/*--------------------------------*- C++ -*----------------------------------*\
  =========                 |
  \\      /  F ield         | OpenFOAM: The Open Source CFD Toolbox
   \\    /   O peration     | Website:  https://openfoam.org
    \\  /    A nd           | Version:  7
     \\/     M anipulation  |
\*---------------------------------------------------------------------------*/
FoamFile
{
    version     2.0;
    format      ascii;
    class       volVectorField;
    location    "0.3";
    object      U;
}
// * * * * * * * * * * * * * * * * * * * * * * * * * * * * * * * * * * * * * //

dimensions      [0 1 -1 0 0 0 0];

internalField   nonuniform List<vector> 
22500
(
(-1.28862315621e-05 -1.44745740211e-05 -2.78340625415e-05)
(-1.20024703919e-05 -1.64411212906e-05 -2.92040998238e-05)
(-1.06194094284e-05 -1.83845502673e-05 -3.05050091721e-05)
(-8.97332544128e-06 -2.00798454287e-05 -3.17159681033e-05)
(-7.00428163491e-06 -2.14936248608e-05 -3.27586048147e-05)
(-4.80598455031e-06 -2.25505599972e-05 -3.355865393e-05)
(-2.44165880877e-06 -2.3204268302e-05 -3.40620958569e-05)
(8.56115671982e-09 -2.34252530506e-05 -3.42346310689e-05)
(2.45858048568e-06 -2.32024390095e-05 -3.40560916181e-05)
(4.82232347479e-06 -2.25469823145e-05 -3.35466848364e-05)
(7.01972266971e-06 -2.1488451466e-05 -3.2740757895e-05)
(8.98763595338e-06 -2.00733186943e-05 -3.16923883232e-05)
(1.06323371812e-05 -1.83769519742e-05 -3.04758713605e-05)
(1.20141271645e-05 -1.64326909136e-05 -2.91695858832e-05)
(1.28956562847e-05 -1.44662374759e-05 -2.77946688566e-05)
(-3.82310462928e-05 -4.28025879413e-05 -0.000135888715073)
(-3.55364525876e-05 -4.85302602913e-05 -0.000145121644224)
(-3.14956772151e-05 -5.41784130558e-05 -0.000153933539312)
(-2.66008223104e-05 -5.91294903296e-05 -0.00016196192124)
(-2.0779939769e-05 -6.32562422831e-05 -0.000168756896356)
(-1.42630444585e-05 -6.63438284399e-05 -0.000173916894825)
(-7.2481810936e-06 -6.82552350862e-05 -0.00017714078911)
(2.48869900531e-08 -6.89012596797e-05 -0.000178237870624)
(7.29737189015e-06 -6.82497832993e-05 -0.000177122569779)
(1.43105399773e-05 -6.63331777678e-05 -0.000173880571134)
(2.08247785927e-05 -6.32408848644e-05 -0.000168702726463)
(2.66422686473e-05 -5.9110176413e-05 -0.000161890328984)
(3.15330226426e-05 -5.41560734561e-05 -0.000153845049678)
(3.55696029646e-05 -4.8505752495e-05 -0.000145016799685)
(3.82577630421e-05 -4.27782151285e-05 -0.000135768905563)
(-6.13018272148e-05 -6.83355161257e-05 -0.000288035646803)
(-5.67619787799e-05 -7.72942695508e-05 -0.000308758850466)
(-5.02657385678e-05 -8.6050555565e-05 -0.000328450095333)
(-4.23858212709e-05 -9.3721156654e-05 -0.000346222600349)
(-3.30846201176e-05 -0.000100094369241 -0.000361145450763)
(-2.26942720757e-05 -0.000104855642143 -0.000372413035288)
(-1.15287311578e-05 -0.000107800352132 -0.000379424883026)
(3.85831169761e-08 -0.000108795062797 -0.000381804217835)
(1.16050328131e-05 -0.000107791953065 -0.000379395528484)
(2.27680538967e-05 -0.00010483922938 -0.000372354453478)
(3.31544077524e-05 -0.000100070704668 -0.000361057948605)
(4.24504383066e-05 -9.36913871168e-05 -0.000346106706422)
(5.03240852235e-05 -8.6016177027e-05 -0.000328306493537)
(5.68136248447e-05 -7.72566747743e-05 -0.000308588176171)
(6.13437330272e-05 -6.82978924663e-05 -0.000287839705719)
(-8.18273865798e-05 -9.08878896384e-05 -0.000472963186668)
(-7.54919328331e-05 -0.000102469541584 -0.00050680396052)
(-6.67433568315e-05 -0.000113687227562 -0.000538690589228)
(-5.61669808557e-05 -0.000123490249032 -0.000567201197202)
(-4.37855465161e-05 -0.000131606488983 -0.000590950650357)
(-3.00058534188e-05 -0.000137656888845 -0.00060877524843)
(-1.52350992514e-05 -0.000141393674928 -0.00061982121659)
(4.90411982674e-08 -0.000142655000206 -0.000623559871505)
(1.53321525294e-05 -0.000141383199464 -0.000619782621289)
(3.00998985736e-05 -0.000137636403589 -0.00060869811036)
(4.38747744105e-05 -0.000131576922367 -0.000590835152746)
(5.62498823358e-05 -0.000123452989582 -0.000567047727896)
(6.6818517723e-05 -0.000113644137609 -0.000538499706204)
(7.55585566447e-05 -0.000102422340867 -0.000506576029935)
(8.18820272148e-05 -9.08402372594e-05 -0.000472699759265)
(-9.96139670234e-05 -0.000110336357961 -0.000678007911108)
(-9.1589642531e-05 -0.000123893068808 -0.000724655950088)
(-8.08031391371e-05 -0.000136903944198 -0.000768133402165)
(-6.78435705786e-05 -0.000148236961169 -0.0008066238793)
(-5.28044086611e-05 -0.000157583947909 -0.000838421428378)
(-3.61445323974e-05 -0.000164535092982 -0.000862135466255)
(-1.83403198213e-05 -0.00016882137044 -0.000876766755077)
(5.63691983069e-08 -0.000170266998367 -0.000881706402593)
(1.84519623938e-05 -0.000168809643774 -0.000876721079237)
(3.62529605882e-05 -0.000164512137401 -0.000862044025014)
(5.29076407793e-05 -0.000157550761789 -0.000838284143659)
(6.79398861575e-05 -0.000148195034913 -0.000806440798618)
(8.08909028399e-05 -0.000136855302556 -0.000767904715254)
(9.16677462437e-05 -0.000123839574927 -0.000724381438955)
(9.96788307847e-05 -0.000110281785089 -0.000677688304183)
(-0.000114530977061 -0.000126586830297 -0.000891192200186)
(-0.000104961739584 -0.00014145775062 -0.000948884798309)
(-9.23715593349e-05 -0.000155602978413 -0.0010019997211)
(-7.73658629946e-05 -0.00016787697591 -0.00104854975984)
(-6.01087177032e-05 -0.000177959288274 -0.00108668671013)
(-4.10912928369e-05 -0.000185438834637 -0.00111494879047)
(-2.08354962191e-05 -0.00019004341747 -0.00113231019612)
(6.11283684971e-08 -0.000191595153519 -0.00113815715073)
(2.095665692e-05 -0.000190031125316 -0.00113225940886)
(4.12092270848e-05 -0.000185414744168 -0.00111484696041)
(6.02213924826e-05 -0.000177924393495 -0.00108653344456)
(7.7471453585e-05 -0.000167832763756 -0.00104834468341)
(9.24683049124e-05 -0.000155551483197 -0.00100174254361)
(0.000105048298766 -0.000141400833457 -0.000948574528991)
(0.000114603821342 -0.000126528107311 -0.000890828362353)
(-0.000126566100162 -0.000139648054644 -0.00110259226627)
(-0.000115618808373 -0.000155194803853 -0.00116876042055)
(-0.000101475608656 -0.000169859233875 -0.00122890942493)
(-8.47733283636e-05 -0.000182529407922 -0.00128111212647)
(-6.57393594199e-05 -0.000192894695118 -0.00132354244369)
(-4.48792473944e-05 -0.000200565874076 -0.00135479781202)
(-2.27387132285e-05 -0.000205281062471 -0.00137391904963)
(6.40554562125e-08 -0.000206868878389 -0.00138034378902)
(2.28657647312e-05 -0.000205268723845 -0.00137386467612)
(4.50031691435e-05 -0.000200541663172 -0.00135468866269)
(6.58581431162e-05 -0.00019285955332 -0.00132337784437)
(8.48851229611e-05 -0.000182484748953 -0.00128089132118)
(0.000101578613334 -0.000169806998326 -0.00122863167769)
(0.000115711520888 -0.000155136751298 -0.00116842391901)
(0.000126645146796 -0.000139587457398 -0.00110219514477)
(-0.000135809617593 -0.000149624716252 -0.00130492273121)
(-0.000123662465119 -0.000165256832654 -0.00137677945847)
(-0.000108225081796 -0.000179888654078 -0.00144129890461)
(-9.01755297089e-05 -0.000192471613324 -0.00149679608227)
(-6.97925426636e-05 -0.000202724126701 -0.00154158052634)
(-4.75796883386e-05 -0.000210295181023 -0.00157439070189)
(-2.40875398553e-05 -0.000214942247715 -0.00159438835192)
(6.58618196025e-08 -0.000216506059018 -0.0016010933471)
(2.42182551343e-05 -0.00021493022314 -0.00159433141437)
(4.77074147988e-05 -0.000210271557332 -0.00157427632421)
(6.99153345635e-05 -0.000202689763592 -0.00154140784363)
(9.0291557144e-05 -0.000192427810458 -0.00149656408774)
(0.000108332560602 -0.00017983719625 -0.00144100655846)
(0.000123759794342 -0.000165199326671 -0.00137642417975)
(0.000135893619307 -0.000149563974205 -0.00130450126786)
(-0.000142419016082 -0.000156685259409 -0.00149349520644)
(-0.000129252800522 -0.000171872967444 -0.00156845276109)
(-0.000112780270511 -0.000185988758731 -0.0016349990352)
(-9.37225174073e-05 -0.000198066844839 -0.00169179638242)
(-7.23947674344e-05 -0.000207870022641 -0.00173734180765)
(-4.92839046058e-05 -0.000215095300509 -0.00177054906665)
(-2.49295077427e-05 -0.000219524701 -0.00179072173558)
(6.7123240054e-08 -0.000221014353773 -0.00179747242563)
(2.50627980762e-05 -0.000219513225864 -0.00179066282084)
(4.9414352763e-05 -0.000215072726904 -0.00177043068802)
(7.25205024845e-05 -0.000207837112 -0.00173716301915)
(9.38417532321e-05 -0.000198024758751 -0.00169155609183)
(0.000112891269916 -0.000185939093228 -0.00163469609053)
(0.000129353906492 -0.000171817143307 -0.00156808390566)
(0.000142507244569 -0.000156625602723 -0.00149305594322)
(-0.000146590011098 -0.000161036285526 -0.00166580141829)
(-0.000132581993009 -0.000175313467386 -0.00174170146619)
(-0.000115327616529 -0.000188493975685 -0.00180842953167)
(-9.55836874717e-05 -0.000199712307125 -0.00186501571853)
(-7.36855029229e-05 -0.000208785722153 -0.00191014324922)
(-5.00907964171e-05 -0.000215462580999 -0.00194290415168)
(-2.53156605493e-05 -0.000219551547477 -0.00196274606512)
(6.82460076783e-08 -0.00022092592219 -0.00196937423124)
(2.54512442964e-05 -0.000219540771482 -0.00196268544736)
(5.02236736343e-05 -0.000215441351304 -0.00194278236399)
(7.38138770048e-05 -0.000208754690976 -0.00190995935926)
(9.57058224334e-05 -0.000199672481014 -0.00186476870381)
(0.000115441831306 -0.000188446743007 -0.0018081183197)
(0.000132686593719 -0.000175260043966 -0.00174132219964)
(0.000146682183369 -0.000160978535728 -0.00166534854431)
(-0.000148535648579 -0.000162906392848 -0.00182094964804)
(-0.000133855479988 -0.000175863983712 -0.0018961510378)
(-0.0001160638164 -0.000187745016579 -0.00196175299081)
(-9.59346537092e-05 -0.000197806273124 -0.00201708810004)
(-7.38064924288e-05 -0.000205920870598 -0.00206099326327)
(-5.00992054421e-05 -0.000211885021326 -0.00209273429022)
(-2.5296548094e-05 -0.000215534095353 -0.00211190268285)
(6.94775534866e-08 -0.000216759846853 -0.00211829460929)
(2.54346378367e-05 -0.000215524118564 -0.00211184045501)
(5.02347110362e-05 -0.000211865331627 -0.0020926092999)
(7.39376874388e-05 -0.000205892001282 -0.00206080464553)
(9.6059852186e-05 -0.000197769060909 -0.00201683501368)
(0.000116181389439 -0.000187700626433 -0.00196143461158)
(0.000133963706208 -0.000175813406853 -0.00189576294525)
(0.000148631839067 -0.000162851086854 -0.00182048533107)
(-0.000148467395937 -0.000162529706484 -0.00195910809736)
(-0.000133279616065 -0.000173800846556 -0.00203250678427)
(-0.000115188149333 -0.000184067581615 -0.0020961806671)
(-9.49505387658e-05 -0.000192730277505 -0.00214961339249)
(-7.28954804104e-05 -0.000199704468109 -0.00219177146504)
(-4.94031440491e-05 -0.000204824863773 -0.00222211008583)
(-2.49196989663e-05 -0.000207953945906 -0.00224037448417)
(7.09361153032e-08 -0.000209004075458 -0.00224645358879)
(2.50607448732e-05 -0.000207944846532 -0.0022403106798)
(4.95417188403e-05 -0.000204806867003 -0.00222198194775)
(7.30299250136e-05 -0.000199677980712 -0.0021915781863)
(9.50792161362e-05 -0.000192695951504 -0.00214935434965)
(0.000115309474613 -0.000184026340029 -0.00209585543419)
(0.000133391840168 -0.000173753437976 -0.00203211046551)
(0.000148567920338 -0.000162477261266 -0.00195863310254)
(-0.000146579794715 -0.000160098835702 -0.00208102894084)
(-0.000131069644689 -0.000169363242807 -0.0021521131243)
(-0.000112908317774 -0.000177764889281 -0.00221350574687)
(-9.28043476096e-05 -0.000184849393699 -0.00226464465931)
(-7.10819524977e-05 -0.00019054586733 -0.00230469055368)
(-4.80883009616e-05 -0.000194718963133 -0.00233334814473)
(-2.42278501805e-05 -0.000197263183212 -0.0023505388063)
(7.2641970927e-08 -0.000198115638599 -0.00235624863173)
(2.43723446515e-05 -0.000197255029978 -0.00235047351483)
(4.82304314608e-05 -0.000194702795489 -0.0023332169868)
(7.12201260534e-05 -0.000190521966743 -0.0023044926842)
(9.2936976855e-05 -0.000184818211834 -0.00226437957637)
(0.000113033853606 -0.000177727084974 -0.00221317353419)
(0.000131186305052 -0.000169319283193 -0.00215170882566)
(0.000146685013901 -0.00016004966457 -0.00208054392497)
(-0.000143133421221 -0.000155758509084 -0.00218766245445)
(-0.000127522881479 -0.000162790951668 -0.00225678907544)
(-0.000109454961176 -0.000169136452315 -0.00231585784934)
(-8.96598475064e-05 -0.000174523884844 -0.00236437631971)
(-6.84798699133e-05 -0.000178835057502 -0.00240197473241)
(-4.62283609952e-05 -0.000181974544785 -0.00242869988279)
(-2.32577342129e-05 -0.000183879374911 -0.00244466702821)
(7.45480564951e-08 -0.000184515686335 -0.00244995839462)
(2.3406075282e-05 -0.000183872220703 -0.00244460052163)
(4.63744352522e-05 -0.000181960320111 -0.00242856616266)
(6.86221496776e-05 -0.000178813923843 -0.00240177272225)
(8.97967988089e-05 -0.000174496098192 -0.00236410530046)
(0.000109585074848 -0.000169102384369 -0.00231551827686)
(0.00012764434093 -0.000162750743145 -0.00225637685466)
(0.00014324383706 -0.000155712823341 -0.00218716943894)
(-0.000138701441913 -0.000150394492857 -0.00227968593657)
(-0.000123109817453 -0.000154206322579 -0.00234892389522)
(-0.000105073316753 -0.00015845349619 -0.00240534335296)
(-8.57086387302e-05 -0.000162012528724 -0.00245077511705)
(-6.52393915194e-05 -0.000164817692317 -0.00248557884647)
(-4.39310469755e-05 -0.000166834272729 -0.00251015296558)
(-2.2066191694e-05 -0.000168047574676 -0.00252477822614)
(7.65692507262e-08 -0.000168450797081 -0.0025296140625)
(2.2218602509e-05 -0.000168041491746 -0.00252471113696)
(4.40812739925e-05 -0.000166822145524 -0.00251001786979)
(6.53859615586e-05 -0.000164799588914 -0.00248537425191)
(8.58500662733e-05 -0.000161988547183 -0.00245049952964)
(0.000105208146117 -0.000158423775127 -0.00240499698331)
(0.000123236007228 -0.000154170549347 -0.00234850102925)
(0.000138817617061 -0.000150353077486 -0.00227919424563)
(2.38952683164e-07 3.29845743172e-07 -9.19501937722e-05)
(1.9560628736e-07 4.21004099261e-07 -9.6536088843e-05)
(1.59288791494e-07 4.90718461708e-07 -0.000100710028486)
(1.31566011721e-07 5.44329242467e-07 -0.000104330781672)
(9.99874284383e-08 5.87327368427e-07 -0.00010727859756)
(6.73289375888e-08 6.18490678977e-07 -0.000109454873387)
(3.30825378714e-08 6.37424359658e-07 -0.000110790796648)
(-1.8284663121e-09 6.43653605371e-07 -0.000111244124451)
(-3.66924882414e-08 6.36896652896e-07 -0.000110790133887)
(-7.08201797484e-08 6.17435125884e-07 -0.000109453532637)
(-1.03380547573e-07 5.85735043559e-07 -0.000107276534635)
(-1.34936836814e-07 5.42223377198e-07 -0.000104327900515)
(-1.62685221191e-07 4.88101843335e-07 -0.00010070616338)
(-1.99035762137e-07 4.17990787476e-07 -9.653088489e-05)
(-2.41951324921e-07 3.26850676699e-07 -9.19428233589e-05)
(1.93953440786e-06 2.30154062326e-06 -0.000269911976781)
(1.78854793603e-06 2.78512275076e-06 -0.000282885508835)
(1.59107120211e-06 3.22521428577e-06 -0.000294690858225)
(1.36229277418e-06 3.60697385133e-06 -0.000304925825582)
(1.07632527086e-06 3.92610996475e-06 -0.000313253976058)
(7.4487646069e-07 4.16588176027e-06 -0.000319401155546)
(3.78757257985e-07 4.31483708917e-06 -0.000323173178396)
(-5.43043495871e-09 4.36500279868e-06 -0.000324449817357)
(-3.89497904448e-07 4.31329594714e-06 -0.000323170983341)
(-7.55308892736e-07 4.16281038868e-06 -0.000319396727122)
(-1.08644336406e-06 3.92152626941e-06 -0.000313247196692)
(-1.37224353937e-06 3.60098570003e-06 -0.000304916431974)
(-1.60094233358e-06 3.21793589599e-06 -0.000294678384963)
(-1.79827093504e-06 2.77690932924e-06 -0.000282868952055)
(-1.94807921066e-06 2.29333616812e-06 -0.000269889381256)
(4.48783574864e-06 5.18473951414e-06 -0.000440840211385)
(4.18674578739e-06 6.15705353584e-06 -0.000461461720963)
(3.7485828286e-06 7.07035119228e-06 -0.000480200550857)
(3.20765753503e-06 7.87325410077e-06 -0.000496434063613)
(2.5345292891e-06 8.54473567417e-06 -0.000509634473998)
(1.75372892541e-06 9.04951481816e-06 -0.000519374223758)
(8.93250778515e-07 9.3629647007e-06 -0.00052534795405)
(-8.8674976636e-09 9.46866725618e-06 -0.000527366502229)
(-9.10811324993e-07 9.36051747671e-06 -0.000525344002221)
(-1.77082938327e-06 9.04464291867e-06 -0.000519366271864)
(-2.55109253386e-06 8.53750381586e-06 -0.000509622362528)
(-3.22381168435e-06 7.86386915148e-06 -0.000496417425058)
(-3.76441480012e-06 7.05912798872e-06 -0.000480178717014)
(-4.2021205786e-06 6.1445800601e-06 -0.000461433236699)
(-4.50142589307e-06 5.17231040691e-06 -0.000440802338186)
(7.39269350444e-06 8.43584002486e-06 -0.000604618922362)
(6.89547715351e-06 9.87231116047e-06 -0.000632131274017)
(6.16365829248e-06 1.12346414388e-05 -0.000657077664944)
(5.25252778174e-06 1.24305871224e-05 -0.000678665795128)
(4.13678146641e-06 1.34257543777e-05 -0.0006962055488)
(2.85513963038e-06 1.41706663716e-05 -0.00070913982833)
(1.45292058592e-06 1.4631695822e-05 -0.000717068611151)
(-1.20845631847e-08 1.4786981022e-05 -0.000719744529539)
(-1.47688675354e-06 1.46285897726e-05 -0.000717062664093)
(-2.87855736827e-06 1.41644933951e-05 -0.000709127895768)
(-4.15950269069e-06 1.34166268882e-05 -0.000696187477563)
(-5.27461647368e-06 1.24187849614e-05 -0.000678641205338)
(-6.1851551158e-06 1.12206275971e-05 -0.00065704582712)
(-6.91616988046e-06 9.8568083717e-06 -0.000632090499926)
(-7.41108803124e-06 8.42032911895e-06 -0.000604566138434)
(1.02227624618e-05 1.15710625911e-05 -0.000761051397765)
(9.49131078106e-06 1.33626493806e-05 -0.000794671987277)
(8.44481110963e-06 1.5062173873e-05 -0.000825072373417)
(7.1567432002e-06 1.65433219851e-05 -0.000851345799121)
(5.61115339721e-06 1.77662716847e-05 -0.000872671231875)
(3.85949084699e-06 1.86758248623e-05 -0.000888386582871)
(1.96039726825e-06 1.92361347269e-05 -0.00089801456654)
(-1.50134941636e-08 1.94244273295e-05 -0.000901260768679)
(-1.99021181606e-06 1.92326006792e-05 -0.000898006372796)
(-3.88871837549e-06 1.86688124374e-05 -0.000888370194374)
(-5.63958593837e-06 1.77559287669e-05 -0.000872646564797)
(-7.18436346262e-06 1.65299748739e-05 -0.000851312570982)
(-8.47158337506e-06 1.50463681611e-05 -0.00082502995733)
(-9.516961334e-06 1.33451743794e-05 -0.000794618672181)
(-1.02457202101e-05 1.15534640565e-05 -0.000760984000851)
(1.27162617829e-05 1.42999532188e-05 -0.000909946899382)
(1.17271925461e-05 1.63067442614e-05 -0.000948881083296)
(1.03718292333e-05 1.82000472506e-05 -0.000983974035358)
(8.73554787572e-06 1.98335588695e-05 -0.00101425937173)
(6.81447407402e-06 2.11696774756e-05 -0.00103881579336)
(4.66935202465e-06 2.21558603126e-05 -0.00105689923331)
(2.36642862957e-06 2.27600911777e-05 -0.00106797154923)
(-1.7598466233e-08 2.29625525917e-05 -0.00107170164421)
(-2.40141695747e-06 2.27563205667e-05 -0.00106796085077)
(-4.703751797e-06 2.21483867612e-05 -0.00105687790579)
(-6.84803114037e-06 2.1158671509e-05 -0.00103878389329)
(-8.76816473834e-06 1.98193711002e-05 -0.00101421683016)
(-1.04033868715e-05 1.81832622351e-05 -0.000983920490587)
(-1.17573711517e-05 1.62881566992e-05 -0.000948814962477)
(-1.27435028866e-05 1.42811044085e-05 -0.000909865005575)
(1.47308927395e-05 1.64690389552e-05 -0.00105117300929)
(1.34789685365e-05 1.85530468011e-05 -0.00109463387598)
(1.18423594804e-05 2.04997772199e-05 -0.00113367340257)
(9.90975504297e-06 2.21601704961e-05 -0.00116731624153)
(7.68992883528e-06 2.35040747081e-05 -0.00119456763452)
(5.2485020005e-06 2.44877468859e-05 -0.00121462144458)
(2.65349790413e-06 2.50868983652e-05 -0.00122689321856)
(-1.98085081696e-08 2.52869936049e-05 -0.0012310244026)
(-2.6929196894e-06 2.5083050452e-05 -0.00122687975923)
(-5.28736120921e-06 2.44801245559e-05 -0.00121459469958)
(-7.72794238838e-06 2.3492858489e-05 -0.00119452787146)
(-9.94675501569e-06 2.214571356e-05 -0.00116726371655)
(-1.18781551127e-05 2.04826707815e-05 -0.00113360816581)
(-1.35132024409e-05 1.85340506591e-05 -0.00109455460619)
(-1.47620791865e-05 1.64496333036e-05 -0.00105107654519)
(1.6210581782e-05 1.80228404025e-05 -0.0011846678808)
(1.4708748995e-05 2.0066132314e-05 -0.00123189156057)
(1.2834399977e-05 2.19478493872e-05 -0.00127416379324)
(1.06702267324e-05 2.35331264658e-05 -0.00131054383048)
(8.23662498128e-06 2.4801722621e-05 -0.00133998423137)
(5.59960927766e-06 2.57220558603e-05 -0.00136163336086)
(2.82400553439e-06 2.6279157699e-05 -0.001374873679)
(-2.16395865244e-08 2.64645404226e-05 -0.00137932790327)
(-2.86710963449e-06 2.62753636183e-05 -0.00137485721387)
(-5.64219776485e-06 2.57145408564e-05 -0.00136160073826)
(-8.2784029383e-06 2.47906639981e-05 -0.00133993599223)
(-1.07109715291e-05 2.35188637109e-05 -0.00131048065287)
(-1.28738618598e-05 2.19309508859e-05 -0.0012740862615)
(-1.47465493148e-05 2.00473018141e-05 -0.00123179867159)
(-1.62453379637e-05 1.80034384092e-05 -0.00118455655247)
(1.71607658793e-05 1.89755620384e-05 -0.00131042351022)
(1.54371478087e-05 2.08879468162e-05 -0.00136067645255)
(1.33778647284e-05 2.26156940362e-05 -0.00140550818493)
(1.1051173207e-05 2.40524101129e-05 -0.00144404559246)
(8.48699401844e-06 2.51881568106e-05 -0.00147520177776)
(5.74783838058e-06 2.60044549938e-05 -0.00149809390536)
(2.89165139665e-06 2.64954066477e-05 -0.00151208494995)
(-2.31131834235e-08 2.66581495613e-05 -0.00151678844453)
(-2.93772687983e-06 2.64917721597e-05 -0.00151206525358)
(-5.79345926925e-06 2.5997252891e-05 -0.00149805497527)
(-8.53186874861e-06 2.51775494756e-05 -0.00147514447415)
(-1.10950432042e-05 2.40387072416e-05 -0.00144397109005)
(-1.34204361336e-05 2.25994181374e-05 -0.00140541769542)
(-1.54780276312e-05 2.08697256071e-05 -0.00136056931227)
(-1.71987010115e-05 1.89566042398e-05 -0.00131029676916)
(1.76258467422e-05 1.9385115176e-05 -0.00142845346498)
(1.5718862643e-05 2.11041994167e-05 -0.0014810348755)
(1.35306559091e-05 2.26182080167e-05 -0.00152779932854)
(1.11085175381e-05 2.38595338997e-05 -0.00156795699811)
(8.48908387808e-06 2.48279351128e-05 -0.00160038606306)
(5.72832158295e-06 2.55171984129e-05 -0.0016241871156)
(2.87495310347e-06 2.59290136219e-05 -0.0016387203462)
(-2.42661998986e-08 2.60649669293e-05 -0.00164360215229)
(-2.92336121174e-06 2.59256236109e-05 -0.00163869721867)
(-5.77634539321e-06 2.55104732471e-05 -0.00162414148587)
(-8.53644842687e-06 2.48180105612e-05 -0.00160031913317)
(-1.11549452595e-05 2.38466756437e-05 -0.00156787048612)
(-1.35758235669e-05 2.26028734982e-05 -0.0015276951372)
(-1.57623632025e-05 2.10869258179e-05 -0.00148091265702)
(-1.76665702538e-05 1.93669359361e-05 -0.00142831046182)
(1.76704659964e-05 1.93315864005e-05 -0.00153875485623)
(1.56235307374e-05 2.0817944494e-05 -0.00159300399033)
(1.33609739171e-05 2.20826130632e-05 -0.00164113364538)
(1.0904689573e-05 2.31030252985e-05 -0.00168242072641)
(8.29460485515e-06 2.3887748847e-05 -0.00171570543)
(5.57793716828e-06 2.4440686613e-05 -0.00174009253801)
(2.79306439243e-06 2.47688547371e-05 -0.00175496326129)
(-2.5143095823e-08 2.48767242689e-05 -0.00175995325237)
(-2.84325360398e-06 2.47657754814e-05 -0.00175493653406)
(-5.62781752359e-06 2.44345666502e-05 -0.00174003986078)
(-8.34392823862e-06 2.38786874744e-05 -0.00171562833703)
(-1.09531760992e-05 2.309123078e-05 -0.00168232149137)
(-1.34082852962e-05 2.20684600132e-05 -0.00164101490265)
(-1.56692445873e-05 2.08018699034e-05 -0.00159286564894)
(-1.77136133638e-05 1.9314424647e-05 -0.00153859438321)
(1.73651361894e-05 1.89011515405e-05 -0.00164126677502)
(1.52225037945e-05 2.01307431742e-05 -0.00169659656059)
(1.29364540938e-05 2.11277333085e-05 -0.00174561549266)
(1.05000420543e-05 2.19173796828e-05 -0.00178759275812)
(7.9525317786e-06 2.25155299026e-05 -0.0018213325947)
(5.33105641031e-06 2.29328254029e-05 -0.00184598342511)
(2.66365749961e-06 2.31788805414e-05 -0.00186098355124)
(-2.57866998825e-08 2.32593758674e-05 -0.00186600995729)
(-2.71516061324e-06 2.31761648406e-05 -0.00186095309892)
(-5.38232754335e-06 2.29274106158e-05 -0.00184592341359)
(-8.00335887783e-06 2.2507472567e-05 -0.0018212448348)
(-1.05501572066e-05 2.19068183602e-05 -0.00178748004296)
(-1.29855172565e-05 2.11149461125e-05 -0.00174548122107)
(-1.52700814556e-05 2.01160598149e-05 -0.00169644086098)
(-1.74103862976e-05 1.88852099888e-05 -0.00164108726855)
(1.67749287442e-05 1.8171431172e-05 -0.00173581866697)
(1.45819769069e-05 1.91281563191e-05 -0.0017918310046)
(1.23203829429e-05 1.98518786355e-05 -0.00184141350797)
(9.95030721558e-06 2.04130124882e-05 -0.00188368484493)
(7.50725257999e-06 2.08320749608e-05 -0.00191747212242)
(5.01833145729e-06 2.11217450627e-05 -0.00194204629022)
(2.50232783443e-06 2.12914449449e-05 -0.00195695398586)
(-2.62317041816e-08 2.13466581094e-05 -0.00196194017109)
(-2.55474754502e-06 2.128913002e-05 -0.00195691975604)
(-5.07059449838e-06 2.11171094076e-05 -0.00194197877039)
(-7.55918777202e-06 2.0825131104e-05 -0.00191737327481)
(-1.00016727821e-05 2.04038199099e-05 -0.00188355785641)
(-1.23708483606e-05 1.9840602099e-05 -0.00184126257094)
(-1.46310999533e-05 1.91150101811e-05 -0.00179165663822)
(-1.68219836483e-05 1.81568884878e-05 -0.00173561863349)
(1.59606972431e-05 1.72016032896e-05 -0.00182205239262)
(1.37701890993e-05 1.78867056711e-05 -0.00187889777747)
(1.15772140198e-05 1.83361790146e-05 -0.00192889942573)
(9.30891930692e-06 1.86810362328e-05 -0.00197103487559)
(6.9996106042e-06 1.89352012776e-05 -0.00200439852004)
(4.66715323164e-06 1.91091204059e-05 -0.00202850807375)
(2.32279034047e-06 1.92101535581e-05 -0.00204307452554)
(-2.65054257296e-08 1.92427280744e-05 -0.00204793528718)
(-2.37577950622e-06 1.92082574591e-05 -0.00204303660588)
(-4.72005024944e-06 1.9105303726e-05 -0.00202843311632)
(-7.05228959481e-06 1.89294323444e-05 -0.00200428841554)
(-9.36118154822e-06 1.86732966282e-05 -0.00197089288566)
(-1.16287531515e-05 1.83265160571e-05 -0.00192873041772)
(-1.38205536428e-05 1.78751849274e-05 -0.00187870335208)
(-1.600928115e-05 1.7188528101e-05 -0.0018218311859)
(1.49819523308e-05 1.61817289908e-05 -0.00189959593679)
(1.28684563206e-05 1.64603482813e-05 -0.00195893930127)
(1.07650883915e-05 1.66487125406e-05 -0.00200887773795)
(8.62085060331e-06 1.67908910487e-05 -0.00205016622258)
(6.4624617562e-06 1.68906435356e-05 -0.002082475655)
(4.2990985725e-06 1.69562357302e-05 -0.0021056516632)
(2.13574536566e-06 1.6993067649e-05 -0.00211959063881)
(-2.66283364454e-08 1.70044944354e-05 -0.00212423003755)
(-2.1889972323e-06 1.69915960947e-05 -0.00211954945776)
(-4.35230939872e-06 1.69532609605e-05 -0.00210557001694)
(-6.51554317512e-06 1.68861014693e-05 -0.00208235508357)
(-8.67364875353e-06 1.67847088619e-05 -0.00205000947677)
(-1.08173609962e-05 1.66408224701e-05 -0.0020086898637)
(-1.29197278847e-05 1.64506443032e-05 -0.00195872139951)
(-1.50318757229e-05 1.61702548501e-05 -0.00189935841197)
(-8.15945813671e-08 -1.3837776107e-07 -0.00010671749482)
(-4.53807344435e-08 -1.87059030576e-07 -0.000112074540059)
(-2.26233736417e-08 -2.17221218473e-07 -0.000116959182386)
(-7.0644484918e-09 -2.36841026699e-07 -0.00012120760041)
(1.89062865663e-09 -2.48910042793e-07 -0.000124670015742)
(4.96154632627e-09 -2.55705848516e-07 -0.00012722819758)
(3.63355886501e-09 -2.59023413172e-07 -0.000128799021168)
(-1.57242659116e-10 -2.6000380977e-07 -0.000129331839269)
(-3.94748550238e-09 -2.59031089055e-07 -0.0001287975824)
(-5.26677391209e-09 -2.55713205265e-07 -0.00012722533196)
(-2.15339760376e-09 -2.48900830748e-07 -0.000124665745251)
(6.89566635785e-09 -2.36799973915e-07 -0.000121201940438)
(2.25758611564e-08 -2.17131465832e-07 -0.000116952090996)
(4.5484534165e-08 -1.86887206529e-07 -0.000112065715557)
(8.17796387024e-08 -1.38175793184e-07 -0.000106705785433)
(-3.36559442562e-07 -4.8753802087e-07 -0.00031022095758)
(-2.38869380725e-07 -6.28261390968e-07 -0.000325055283252)
(-1.66852095189e-07 -7.27642622892e-07 -0.000338570825834)
(-1.11101663383e-07 -7.98685798754e-07 -0.000350308125438)
(-6.88609023636e-08 -8.47218263009e-07 -0.000359863563759)
(-3.84680336898e-08 -8.7798606206e-07 -0.000366918637954)
(-1.68970825208e-08 -8.94811401593e-07 -0.000371247723197)
(-2.56675586505e-10 -9.00138356749e-07 -0.00037271217665)
(1.63859583274e-08 -8.94797255201e-07 -0.000371243303711)
(3.79783346943e-08 -8.77940659923e-07 -0.000366909840214)
(6.84614799881e-08 -8.47110908867e-07 -0.000359850463595)
(1.10903623115e-07 -7.98490128066e-07 -0.00035029078782)
(1.66931648201e-07 -7.27331528855e-07 -0.000338549153778)
(2.39278442335e-07 -6.27774716965e-07 -0.000325028434804)
(3.37130749443e-07 -4.86992740367e-07 -0.000310186305906)
(-6.75857131324e-07 -9.06314761868e-07 -0.000502286659033)
(-5.25990647721e-07 -1.13492676656e-06 -0.000525421822269)
(-4.03422763323e-07 -1.30919851556e-06 -0.000546459571283)
(-2.99377785245e-07 -1.44062767082e-06 -0.000564702372171)
(-2.0956053378e-07 -1.53546998062e-06 -0.000579538130239)
(-1.32022729183e-07 -1.59887062803e-06 -0.000590483874162)
(-6.35456011804e-08 -1.63508997851e-06 -0.00059719580594)
(-1.44963452561e-10 -1.64684215526e-06 -0.000599462501832)
(6.32569287956e-08 -1.63502088343e-06 -0.000597188349003)
(1.31754792813e-07 -1.59871177368e-06 -0.00059046903844)
(2.09389590618e-07 -1.53518856458e-06 -0.000579516060357)
(2.99435651373e-07 -1.44020187157e-06 -0.000564673211342)
(4.03816323814e-07 -1.30861355448e-06 -0.000546423242318)
(5.26789471175e-07 -1.13413391778e-06 -0.000525377174409)
(6.76838086348e-07 -9.05464729729e-07 -0.000502230061283)
(-1.02344559503e-06 -1.31501206834e-06 -0.000683274677576)
(-8.2961399117e-07 -1.61357097882e-06 -0.000713620129745)
(-6.59800158097e-07 -1.85050310628e-06 -0.000741144126396)
(-5.07573944208e-07 -2.03395494031e-06 -0.000764975754565)
(-3.67792884032e-07 -2.16969875159e-06 -0.000784336241262)
(-2.38582063497e-07 -2.26246326742e-06 -0.000798610058245)
(-1.17060890122e-07 -2.31635728062e-06 -0.000807357267903)
(1.40572921422e-10 -2.33399780353e-06 -0.000810307628891)
(1.17340731529e-07 -2.31623015861e-06 -0.000807346744696)
(2.38874183472e-07 -2.26219105607e-06 -0.000798589136894)
(3.68164945841e-07 -2.16925542282e-06 -0.000784305155354)
(5.08153845492e-07 -2.0333272791e-06 -0.000764934765174)
(6.60702425852e-07 -1.84968733695e-06 -0.000741093270377)
(8.30918227343e-07 -1.61253459462e-06 -0.000713558194533)
(1.02490152387e-06 -1.31391195579e-06 -0.000683197562072)
(-1.3606950553e-06 -1.69767740665e-06 -0.000853608300684)
(-1.13007358747e-06 -2.04951565161e-06 -0.000890159590957)
(-9.17443272219e-07 -2.33568991409e-06 -0.000923214647163)