/*--------------------------------*- C++ -*----------------------------------*\
  =========                 |
  \\      /  F ield         | OpenFOAM: The Open Source CFD Toolbox
   \\    /   O peration     | Website:  https://openfoam.org
    \\  /    A nd           | Version:  7
     \\/     M anipulation  |
\*---------------------------------------------------------------------------*/
FoamFile
{
    version     2.0;
    format      ascii;
    class       volVectorField;
    location    "1.46";
    object      U;
}
// * * * * * * * * * * * * * * * * * * * * * * * * * * * * * * * * * * * * * //

dimensions      [0 1 -1 0 0 0 0];

internalField   nonuniform List<vector> 
22500
(
(1.81130117224e-05 2.05524085293e-05 0.000310885257546)
(1.66501720713e-05 2.32746123615e-05 0.000325708350373)
(1.43863211932e-05 2.59242434159e-05 0.000338997543178)
(1.19786604698e-05 2.81020228443e-05 0.000350404643376)
(9.23898949808e-06 2.98638537952e-05 0.000359632541124)
(6.29455361551e-06 3.11506546628e-05 0.000366418017272)
(3.19512757469e-06 3.19357649804e-05 0.000370571134661)
(1.57982345108e-08 3.22004172947e-05 0.000371976692982)
(-3.16417112784e-06 3.19371956853e-05 0.000370571773833)
(-6.26539754638e-06 3.11532470647e-05 0.000366419414257)
(-9.21296396734e-06 2.9866876186e-05 0.000359634675504)
(-1.19570705784e-05 2.81046839501e-05 0.000350407279237)
(-1.4370933845e-05 2.59249855261e-05 0.000339000738468)
(-1.66408627855e-05 2.3273683354e-05 0.000325716131736)
(-1.81102503141e-05 2.05501072136e-05 0.000310924313927)
(5.27733474654e-05 5.9816098313e-05 0.000800152297915)
(4.85101711349e-05 6.75054742382e-05 0.000831799532875)
(4.21205774019e-05 7.49466005217e-05 0.000859618613436)
(3.50689544436e-05 8.11490913894e-05 0.000883173896679)
(2.7084964189e-05 8.61817054623e-05 0.000902033898749)
(1.84608840538e-05 8.98683074974e-05 0.000915799710783)
(9.3705295621e-06 9.21220810616e-05 0.000924182865523)
(3.89564087414e-08 9.28813905179e-05 0.000927009300494)
(-9.29403696793e-06 9.21242919228e-05 0.00092418530083)
(-1.8388525078e-05 8.98721436846e-05 0.000915804840071)
(-2.70196858658e-05 8.61856307352e-05 0.000902041437507)
(-3.50138928716e-05 8.11514745988e-05 0.000883182897333)
(-4.20794271663e-05 7.49445324661e-05 0.00085962891902)
(-4.84831130069e-05 6.74999794973e-05 0.000831822490652)
(-5.27628953694e-05 5.98077998624e-05 0.000800246529301)
(7.93658415908e-05 8.97776626559e-05 0.00118668996758)
(7.26335995619e-05 0.00010071235567 0.00122703018097)
(6.29527607843e-05 0.000111224779931 0.00126183471429)
(5.22558004397e-05 0.000119967874651 0.00129094780993)
(4.02763052641e-05 0.000127033111786 0.00131404661086)
(2.74063917824e-05 0.000132194342916 0.00133079738442)
(1.3896056812e-05 0.000135343289875 0.00134095294928)
(5.52822632959e-08 0.000136402320929 0.00134436601434)
(-1.37872976371e-05 0.000135344185105 0.00134095641596)
(-2.73029752786e-05 0.000132195458005 0.00133080468701)
(-4.01820057043e-05 0.00012703274106 0.00131405711622)
(-5.2174658731e-05 0.000119964154041 0.00129095979749)
(-6.28895019679e-05 0.000111215074683 0.00126184709511)
(-7.25887664597e-05 0.000100698714518 0.00122705724757)
(-7.93444768377e-05 8.97615415901e-05 0.00118681110299)
(9.94769888795e-05 0.000112310782902 0.00149296755375)
(9.06177251462e-05 0.00012516854553 0.00153660190091)
(7.83206096153e-05 0.000137483845767 0.00157348560859)
(6.47950782643e-05 0.00014766125617 0.00160392864678)
(4.98173683428e-05 0.000155846710114 0.00162784778196)
(3.38335976751e-05 0.000161803253792 0.00164507409987)
(1.71340701655e-05 0.000165427997582 0.0016554686253)
(6.6490369676e-08 0.000166644813141 0.00165895072674)
(-1.70031176846e-05 0.0001654274732 0.00165547167054)
(-3.37087201109e-05 0.00016180153142 0.00164508060978)
(-4.9702822675e-05 0.000155842163992 0.00162785672244)
(-6.46952675651e-05 0.000147652057892 0.00160393741824)
(-7.82405760861e-05 0.000137467864635 0.00157349143292)
(-9.05580663773e-05 0.000125148548636 0.00153661774824)
(-9.94443876129e-05 0.000112288480888 0.00149307903354)
(0.000114497428592 0.00012907078833 0.00173553329705)
(0.000103832564634 0.00014287919312 0.00177885267182)
(8.94633953221e-05 0.000156084651833 0.00181461139421)
(7.37665956855e-05 0.000166912988699 0.00184366297988)
(5.65719695942e-05 0.000175577687515 0.00186623147948)
(3.83466618033e-05 0.000181857125833 0.00188235649645)
(1.93961133556e-05 0.000185667856691 0.00189203415038)
(7.39448087513e-08 0.000186944859931 0.00189526475566)
(-1.92503862745e-05 0.000185666197784 0.00189203559695)
(-3.82074451222e-05 0.000181853188711 0.00188235975745)
(-5.64437723417e-05 0.000175570028552 0.00186623501848)
(-7.36539005565e-05 0.000166899979432 0.0018436630711)
(-8.9371028977e-05 0.000156064517699 0.0018146027999)
(-0.00010376103479 0.000142855249455 0.00177884469736)
(-0.000114454147544 0.00012904445052 0.00173560974731)
(0.000125159760708 0.000140897347458 0.00192697693254)
(0.000112991556127 0.000154877362118 0.00196761099225)
(9.70266475487e-05 0.000168249452021 0.00200020510031)
(7.97320313578e-05 0.000179120380848 0.0020261685566)
(6.0989494754e-05 0.000187770487385 0.00204605793511)
(4.12602623906e-05 0.000194012565715 0.00206013156251)
(2.08446890408e-05 0.000197789781675 0.00206852334529)
(7.85994540997e-08 0.00019905342346 0.00207131333855)
(-2.06897116515e-05 0.000197787362472 0.00206852245692)
(-4.11119961192e-05 0.00019400718662 0.00206012997671)
(-6.08525137983e-05 0.000187760923831 0.00204605345651)
(-7.96107168572e-05 0.000179105261936 0.0020261560038)
(-9.69252788693e-05 0.000168227353303 0.00200017615147)
(-0.000112910398455 0.000154851858924 0.00196757066346)
(-0.000125106796146 0.000140869426418 0.00192700623497)
(0.000132062532621 0.000148457146315 0.00207723650582)
(0.000118677853246 0.000161992567015 0.00211371767634)
(0.00010154380317 0.000174960401886 0.00214194577719)
(8.3155592389e-05 0.000185406060825 0.00216385749646)
(6.34416744998e-05 0.000193667254439 0.00218033748348)
(4.28348495143e-05 0.000199602819579 0.00219185209567)
(2.16143122091e-05 0.000203184143805 0.00219866083393)
(8.12509395722e-08 0.000204380391449 0.00220091301364)
(-2.14540452642e-05 0.000203181460197 0.00219865724884)
(-4.26813246543e-05 0.000199596985065 0.00219184480861)
(-6.32993991728e-05 0.000193657277641 0.00218032345129)
(-8.30287178473e-05 0.00018539080462 0.0021638297557)
(-0.000101435972616 0.000174938757652 0.00214189256789)
(-0.000118588939873 0.000161968062721 0.00211364037823)
(-0.000132000977282 0.000148430237132 0.00207721489415)
(0.000135784375429 0.000152400423677 0.00219438150693)
(0.000121454515694 0.000165027212774 0.00222591971558)
(0.000103531592851 0.000177158389946 0.00224919728653)
(8.44860698711e-05 0.000186836513647 0.00226662738494)
(6.42872732839e-05 0.000194441789743 0.00227939881935)
(4.33212849066e-05 0.00019988329494 0.0022881628688)
(2.18343096422e-05 0.000203157501684 0.00229328419057)
(8.25579181423e-08 0.000204249724769 0.00229496617877)
(-2.1671407343e-05 0.000203155101222 0.00229327781482)
(-4.31650292306e-05 0.000199878108239 0.00228814957733)
(-6.4142013782e-05 0.000194433015733 0.00227937454634)
(-8.4355667951e-05 0.000186823216481 0.00226658314318)
(-0.000103419022841 0.000177139664804 0.00224911786071)
(-0.000121359343996 0.000165006391152 0.00222580435817)
(-0.000135715370626 0.000152377123466 0.00219431080334)
(0.000136853109616 0.00015332436613 0.0022850823822)
(0.000121831493253 0.000164707133834 0.00231139620522)
(0.000103457063973 0.00017568399318 0.00232958947362)
(8.41286700182e-05 0.000184355055604 0.0023424918221)
(6.3849557114e-05 0.000191125548419 0.00235156133808)
(4.29451019318e-05 0.000195952321908 0.00235760467033)
(2.16207430711e-05 0.000198849984201 0.00236106782495)
(8.30952331811e-08 0.000199815737346 0.00236219183527)
(-2.14567132485e-05 0.000198848433079 0.00236105874559)
(-4.27875335627e-05 0.000195948909437 0.00235758547518)
(-6.37025792205e-05 0.000191119613863 0.0023515268349)
(-8.39958383497e-05 0.000184345790533 0.00234243091707)
(-0.000103340750927 0.000175670588851 0.0023294838203)
(-0.000121731111293 0.000164692504687 0.00231124497212)
(-0.000136777750799 0.000153307160428 0.00228496857896)
(0.000135732091982 0.00015175449673 0.0023548913581)
(0.000120252066286 0.000161658128896 0.00237606787808)
(0.000101725616272 0.000171251981919 0.00238936080852)
(8.24357508063e-05 0.000178755624861 0.00239795625995)
(6.24094624707e-05 0.000184581337292 0.00240354079592)
(4.19018983655e-05 0.000188724694593 0.00240704339279)
(2.10740655912e-05 0.000191208633949 0.00240896701347)
(8.33644372995e-08 0.00019203633733 0.00240957481328)
(-2.09094170903e-05 0.000191208445354 0.00240895548586)
(-4.1743448456e-05 0.000188724066294 0.00240701880795)
(-6.22610984464e-05 0.000184579713874 0.00240349686859)
(-8.23007321812e-05 0.000178752241755 0.00239787992561)
(-0.000101605846502 0.000171246009554 0.00238923121158)
(-0.000120146994118 0.000161651894669 0.0023758864378)
(-0.000135651204413 0.000151745593188 0.00235474435166)
(0.000132822244572 0.000148148186202 0.00240839756596)
(0.00011709602168 0.000156407771263 0.00242476528543)
(9.86860080856e-05 0.000164455012237 0.00243355194708)
(7.97122815033e-05 0.000170691083337 0.00243824270145)
(6.02100409205e-05 0.000175515575465 0.00244070389417)
(4.03602172017e-05 0.000178946431223 0.00244194861848)
(2.02805326172e-05 0.000181003407645 0.00244251188527)
(8.37989607706e-08 0.00018168942235 0.00244266510419)
(-2.01149084503e-05 0.000181004983724 0.00244249843652)
(-4.02004590639e-05 0.000178949389409 0.00244191982617)
(-6.00597877618e-05 0.000175519431798 0.00244065263646)
(-7.95745624308e-05 0.000170695065724 0.00243815435081)
(-9.85624346513e-05 0.000164458146049 0.00243340395166)
(-0.000116986293286 0.000156411685401 0.00242456369754)
(-0.000132736253979 0.000148149286813 0.00240823215553)
(0.000128464202202 0.000142898918501 0.00244927787081)
(0.000112687534299 0.000149387419661 0.00246128285842)
(9.46419041517e-05 0.000155771435546 0.00246608843938)
(7.62253926119e-05 0.000160689092844 0.00246741142221)
(5.74623501143e-05 0.000164498562704 0.00246722700609)
(3.84646039237e-05 0.000167216712779 0.00246658133315)
(1.93134754908e-05 0.000168849638569 0.00246601339801)
(8.47572239508e-08 0.000169395367651 0.00246579010752)
(-1.91457950176e-05 0.000168853223083 0.00246599906982)
(-3.83023861429e-05 0.000167223720796 0.00246655073871)
(-5.73090042453e-05 0.000164508602509 0.00246717279241)
(-7.60838066705e-05 0.000160701359032 0.00246731816692)
(-9.45136273674e-05 0.000155784749728 0.00246593267738)
(-0.000112572750809 0.000149402629463 0.00246107711481)
(-0.000128373062576 0.000142911301132 0.00244911569597)
(0.00012293837345 0.000136316562645 0.00248022703272)
(0.000107318120974 0.000140926008144 0.00248831307015)
(8.98742432934e-05 0.000145584489298 0.00248976380572)
(7.22154990985e-05 0.000149182365825 0.00248840054968)
(5.43485948586e-05 0.000151996873595 0.00248618305306)
(3.63357392213e-05 0.000154018967979 0.00248411517688)
(1.8232924196e-05 0.000155237669425 0.00248270544537)
(8.65155187189e-08 0.000155646358174 0.00248220376564)
(-1.80615788524e-05 0.00015524325869 0.00248269212954)
(-3.6169384279e-05 0.000154030041406 0.00248408716666)
(-5.4190414703e-05 0.000152013144973 0.00248613392396)
(-7.20683768617e-05 0.000149203062133 0.00248831549539)
(-8.97399164382e-05 0.000145608224835 0.00248961898244)
(-0.000107197481827 0.000140952846435 0.00248812699163)
(-0.00012284170885 0.000136340610581 0.00248009624898)
(0.000116533255663 0.000128612677833 0.00250271181192)
(0.000101326632879 0.000131322510718 0.00250725050474)
(8.46681286394e-05 0.000134239238139 0.00250614645423)
(6.78897958753e-05 0.000136570722049 0.00250301021834)
(5.10096785688e-05 0.000138424492067 0.00249957580318)
(3.40608396493e-05 0.00013976486393 0.00249670271273)
(1.70809398696e-05 0.000140574153487 0.00249482956706)
(8.92057011555e-08 0.000140846722455 0.00249417732153)
(-1.69040271462e-05 0.000140581451631 0.00249482020814)
(-3.38883864183e-05 0.000139779426909 0.00249668411292)
(-5.08446487807e-05 0.000138446150434 0.00249954444055)
(-6.77351826604e-05 0.000136598870114 0.00250295481943)
(-8.45261524732e-05 0.000134272540104 0.00250604407715)
(-0.000101199120893 0.000131360222996 0.00250711955522)
(-0.000116430223236 0.000128647737506 0.00250264470634)
(0.000109680750158 0.000120405186021 0.00251640547814)
(9.51360374566e-05 0.000120436862265 0.00251794803668)
(7.91885538893e-05 0.000121873946162 0.00251552562752)
(6.33397350374e-05 0.000123035364984 0.00251191181756)
(4.74948105349e-05 0.000123968728904 0.00250836873479)
(3.16686275418e-05 0.000124640161237 0.00250551153244)
(1.58714959027e-05 0.000125044243065 0.00250367449394)
(9.28065492927e-08 0.000125181505868 0.00250303951969)
(-1.56871954809e-05 0.000125052545358 0.00250367198418)
(-3.1488233618e-05 0.000124656800434 0.00250550914057)
(-4.73210156832e-05 0.000123993670317 0.00250836820405)
(-6.31755791691e-05 0.000123068329487 0.00251191048761)
(-7.90370407716e-05 0.000121913881444 0.00251550525514)
(-9.50008910729e-05 0.000120483209507 0.00251794127216)
(-0.000109569746195 0.000120449397202 0.00251639855384)
(4.25192627364e-07 8.10391493588e-07 0.000191329860075)
(1.45584004066e-07 1.09801362957e-06 0.000199947538034)
(-4.72014651326e-10 1.24256751206e-06 0.000207292848493)
(-1.02990743435e-07 1.32346673626e-06 0.000213434640874)
(-1.45479459243e-07 1.35567713489e-06 0.000218336644576)
(-1.33417002354e-07 1.36106434207e-06 0.000221916755447)
(-7.99143908766e-08 1.35677899433e-06 0.000224102296995)
(-3.3125885095e-09 1.35395014608e-06 0.000224843322863)
(7.40050234113e-08 1.35630961819e-06 0.00022410237719)
(1.29649263651e-07 1.36032060434e-06 0.000221917113125)
(1.4484101054e-07 1.35485320371e-06 0.000218337514564)
(1.04983538037e-07 1.32259467397e-06 0.000213436275981)
(3.67964129554e-09 1.24203302946e-06 0.000207296221751)
(-1.42218335928e-07 1.09754810698e-06 0.000199959263847)
(-4.23944620232e-07 8.10595250798e-07 0.000191377566318)
(4.47254285886e-06 5.71616873237e-06 0.000559169958122)
(3.5989586144e-06 7.08111459448e-06 0.000583363935035)
(2.90555172792e-06 8.1350949223e-06 0.000603866947216)
(2.2329874146e-06 8.96562802868e-06 0.000620918683126)
(1.60649412146e-06 9.57520226702e-06 0.000634475910062)
(1.032853367e-06 9.98913899329e-06 0.000644355039094)
(5.01803082835e-07 1.02283616651e-05 0.000650376066184)
(-4.01507540616e-09 1.03063670596e-05 0.000652410201985)
(-5.08287321231e-07 1.02272311061e-05 0.00065037648318)
(-1.03479942371e-06 9.98716708675e-06 0.000644356371699)
(-1.60192279076e-06 9.57266022787e-06 0.000634478728176)
(-2.22282095647e-06 8.96259426782e-06 0.000620923535598)
(-2.89332949136e-06 8.13241240898e-06 0.000603876487425)
(-3.58748513481e-06 7.07876857895e-06 0.000583397201975)
(-4.46775828588e-06 5.71553635516e-06 0.000559292426642)
(1.07581929966e-05 1.28793649208e-05 0.000912142516413)
(9.21005503949e-06 1.55753134218e-05 0.000950288191391)
(7.7762122606e-06 1.78306803767e-05 0.000982386116851)
(6.25848835983e-06 1.96864702681e-05 0.00100891887319)
(4.70007827407e-06 2.11144501675e-05 0.00102991210998)
(3.13214515272e-06 2.21232909291e-05 0.00104515898429)
(1.56407788361e-06 2.27239315912e-05 0.00105442948012)
(-1.89859733679e-10 2.29232361239e-05 0.00105755268073)
(-1.56263149193e-06 2.27225586737e-05 0.00105442975057)
(-3.12538813882e-06 2.21206975893e-05 0.0010451601043)
(-4.68576457718e-06 2.11106526763e-05 0.00102991461911)
(-6.23760810007e-06 1.96813583924e-05 0.00100892315474)
(-7.75329005351e-06 1.78251586807e-05 0.000982395514499)
(-9.18934580022e-06 1.55706190734e-05 0.000950329583871)
(-1.07482296349e-05 1.28775531182e-05 0.000912309715712)
(1.82702966929e-05 2.11985510425e-05 0.0012460961052)
(1.59698909228e-05 2.52609307375e-05 0.00129580850019)
(1.36784611689e-05 2.8744537894e-05 0.00133720564268)
(1.11548581653e-05 3.16581095172e-05 0.0013711247331)
(8.47452587443e-06 3.39351995259e-05 0.00139777139423)
(5.69938130628e-06 3.55631080955e-05 0.00141702526449)
(2.86583594905e-06 3.65405260986e-05 0.00142869087153)
(6.41309118798e-09 3.68663614144e-05 0.00143260959889)
(-2.85126921366e-06 3.65390839109e-05 0.00142868965604)
(-5.67980878341e-06 3.55602505395e-05 0.0014170232006)
(-8.44794839613e-06 3.39307536453e-05 0.00139776853385)
(-1.11223357394e-05 3.16518785299e-05 0.00137112068879)
(-1.36447401884e-05 2.87372584821e-05 0.0013372032154)
(-1.59400297503e-05 2.52549079863e-05 0.00129583769455)
(-1.82542292509e-05 2.11963086369e-05 0.00124626736012)
(2.61481655703e-05 2.97428611465e-05 0.00155640606655)
(2.30490466341e-05 3.50514728407e-05 0.0016146996748)
(1.98574220489e-05 3.9615077887e-05 0.00166255218731)
(1.62714880113e-05 4.34575395254e-05 0.0017012914368)
(1.2412078936e-05 4.64768737595e-05 0.00173143041756)
(8.37387935666e-06 4.86436745177e-05 0.00175305414212)
(4.22123984715e-06 4.99480713251e-05 0.00176609318629)
(1.43071115192e-08 5.03835339495e-05 0.00177045899247)
(-4.19117676881e-06 4.9946746966e-05 0.00176608894036)
(-8.33970760333e-06 4.86409695878e-05 0.00175304554999)
(-1.23723075941e-05 4.64725176796e-05 0.00173141659318)
(-1.6227290954e-05 4.34512780933e-05 0.00170127056336)
(-1.98133425341e-05 3.96074183791e-05 0.00166252524859)
(-2.30101820567e-05 3.50451838918e-05 0.00161469685157)
(-2.61252448288e-05 2.9741003028e-05 0.00155654730901)
(3.38081850682e-05 3.79053964192e-05 0.00183928967079)
(2.98964722426e-05 4.42462892702e-05 0.00190291162558)
(2.58143888001e-05 4.9645707729e-05 0.00195417680678)
(2.11832217726e-05 5.41999956758e-05 0.00199503305015)
(1.6177521827e-05 5.77804267097e-05 0.0020264187228)
(1.09238167644e-05 6.03503083831e-05 0.00204872864896)
(5.51136185411e-06 6.18975176775e-05 0.00206209825323)
(2.24793396518e-08 6.24141188354e-05 0.00206655745837)
(-5.46533953933e-06 6.18965117374e-05 0.00206208953232)
(-1.08748352083e-05 6.034818283e-05 0.00204871051349)
(-1.61246859098e-05 5.7776853732e-05 0.00202638898657)
(-2.11277917447e-05 5.41946479423e-05 0.00199498785931)
(-2.57605333755e-05 4.96388724165e-05 0.00195411427452)
(-2.98487856899e-05 4.42408502153e-05 0.00190286081772)
(-3.37778047012e-05 3.79046257307e-05 0.00183937767925)
(4.08267292931e-05 4.52624212415e-05 0.00209243367356)
(3.61208723763e-05 5.23638581946e-05 0.00215820679336)
(3.11989839895e-05 5.8306532165e-05 0.00220998440448)
(2.55960284423e-05 6.33120069606e-05 0.00225042986948)
(1.95423957836e-05 6.72371962908e-05 0.00228099645027)
(1.31930487365e-05 7.00488594805e-05 0.00230246300292)
(6.65670902373e-06 7.17393912248e-05 0.00231522389089)
(3.02966570669e-08 7.23035654704e-05 0.00231945960477)
(-6.59544730287e-06 7.17389063302e-05 0.00231520949394)
(-1.31299882313e-05 7.00477380847e-05 0.0023024330441)
(-1.94772124045e-05 6.72350670816e-05 0.00228094721104)
(-2.55300411449e-05 6.33084696836e-05 0.00225035499116)
(-3.11358844474e-05 5.83015969165e-05 0.00220987845472)
(-3.6064652607e-05 5.23604231944e-05 0.002158097677)
(-4.07884273432e-05 4.52634101049e-05 0.00209245518882)
(4.69049200152e-05 5.15254473814e-05 0.00231508145802)
(4.14543557069e-05 5.90870792961e-05 0.00238017572333)
(3.57763517627e-05 6.52680020775e-05 0.0024299584362)
(2.93182319456e-05 7.04542819553e-05 0.00246786492807)
(2.23616387322e-05 7.45021679919e-05 0.00249591045656)
(1.50845864149e-05 7.73915860953e-05 0.00251529379194)
(7.60864437988e-06 7.91249944685e-05 0.00252669283351)
(3.74585269393e-08 7.97030061135e-05 0.00253045274193)
(-7.53341889507e-06 7.91252272931e-05 0.00252667257378)
(-1.50086072737e-05 7.73918756665e-05 0.00251525148088)
(-2.2285067546e-05 7.45021032632e-05 0.00249584068409)
(-2.92424299625e-05 7.04533840987e-05 0.0024677585388)
(-3.57044831699e-05 6.52659949423e-05 0.00242980616862)
(-4.13898822355e-05 5.9086701746e-05 0.00238000510655)
(-4.68586148942e-05 5.15291020916e-05 0.00231503276285)
(5.18537272751e-05 5.65218057003e-05 0.00250784247371)
(4.57348148429e-05 6.42377416641e-05 0.00256994001695)
(3.94100201761e-05 7.03663104435e-05 0.00261576091844)
(3.2244227332e-05 7.54779697914e-05 0.00264952444292)
(2.45595824438e-05 7.94419788097e-05 0.00267380912589)
(1.65502606808e-05 8.22585677626e-05 0.00269022953326)
(8.34383462505e-06 8.39435339197e-05 0.00269974209816)
(4.38733446373e-08 8.45048671073e-05 0.00270285245726)
(-8.2560742954e-06 8.39446366211e-05 0.00269971653618)
(-1.64625959603e-05 8.22605888964e-05 0.00269017595937)
(-2.4472556399e-05 7.94444933259e-05 0.00267372044854)
(-3.21592362146e-05 7.54804152084e-05 0.00264938867928)
(-3.93297778699e-05 7.03681615591e-05 0.00261556510051)
(-4.56623327728e-05 6.42414038769e-05 0.00256971266665)
(-5.1799556568e-05 5.65290739754e-05 0.0025077294934)
(5.55767766034e-05 6.01741050902e-05 0.00267235906996)
(4.88872546492e-05 6.77501926354e-05 0.0027297179421)
(4.20433454785e-05 7.35674031176e-05 0.00277020577245)
(3.43368131384e-05 7.83796486721e-05 0.0027987916694)
(2.61148573271e-05 8.20819229672e-05 0.00281857092618)
(1.75796024489e-05 8.46984253352e-05 0.00283152991834)
(8.85830659593e-06 8.62588105606e-05 0.00283887089483)
(4.95905146479e-08 8.67781866164e-05 0.00284123984113)
(-8.75933400184e-06 8.62608773311e-05 0.00283884153191)
(-1.74813597738e-05 8.47023796563e-05 0.00283146818131)
(-2.60181736688e-05 8.20873516624e-05 0.00281846827962)
(-3.42431221968e-05 7.83859286429e-05 0.00279863356589)
(-4.19550256393e-05 7.35738054445e-05 0.00276997597402)
(-4.88070423726e-05 6.77587149511e-05 0.00272944763401)
(-5.55149704184e-05 6.01858335934e-05 0.00267219813016)
(5.80516719603e-05 6.24799061839e-05 0.00281090707308)
(5.09046918965e-05 6.96451239411e-05 0.00286233756345)
(4.36807932049e-05 7.49317712331e-05 0.00289670386919)
(3.56098817934e-05 7.92584143393e-05 0.00291963965795)
(2.7045704845e-05 8.25564062575e-05 0.00293465757022)
(1.81890466499e-05 8.48736580494e-05 0.00294403098569)
(9.16168040068e-06 8.62512318175e-05 0.00294914918299)
(5.47120085814e-08 8.6709483372e-05 0.0029507645795)
(-9.05261778037e-06 8.62542545083e-05 0.00294911869034)
(-1.8081146133e-05 8.48795518675e-05 0.00294396672823)
(-2.69399920491e-05 8.25647995545e-05 0.00293455012168)
(-3.55078510257e-05 7.92686823882e-05 0.00291947247906)
(-4.35846308111e-05 7.49430474914e-05 0.00289645798346)
(-5.08170367647e-05 6.96590219888e-05 0.00286204840694)
(-5.79825683181e-05 6.24966877255e-05 0.00281072634528)
(5.93095491362e-05 6.34905579324e-05 0.00292595305893)
(5.18283448713e-05 7.00027697001e-05 0.00297073098588)
(4.43703577764e-05 7.45811154756e-05 0.00299872619811)
(3.61130079525e-05 7.82778621414e-05 0.0030160761773)
(2.73970340739e-05 8.10669903265e-05 0.00302654636794)
(1.84124056642e-05 8.30154234134e-05 0.00303256900394)
(9.27206866307e-06 8.41704141592e-05 0.00303563677263)
(5.93325422745e-08 8.45545515199e-05 0.00303656258053)
(-9.15386067268e-06 8.41742699001e-05 0.00303560929462)
(-1.82956350198e-05 8.30230118664e-05 0.00303251107879)
(-2.72828593531e-05 8.10780396464e-05 0.00302644867463)
(-3.60029919721e-05 7.8291796753e-05 0.00301592113963)
(-4.4266616902e-05 7.45970517436e-05 0.00299849236471)
(-5.1733597772e-05 7.00219858129e-05 0.00297045864192)
(-5.92334906759e-05 6.35125362768e-05 0.00292579403027)
(5.94110930289e-05 6.32807961581e-05 0.00301965121139)
(5.17314388578e-05 6.89325760903e-05 0.00305742184854)
(4.41930796438e-05 7.2670780815e-05 0.00307931441882)
(3.59221394629e-05 7.56371596601e-05 0.00309166981736)
(2.72316348435e-05 7.78522491566e-05 0.00309826387193)
(1.8293923848e-05 7.93916519744e-05 0.00310151754935)
(9.21222098547e-06 8.03018757924e-05 0.00310292201352)
(6.35020173598e-08 8.06047040187e-05 0.0031032951484)
(-9.085750615e-06 8.03063086125e-05 0.00310290335527)
(-1.81690689121e-05 7.94004526699e-05 0.00310147846027)
(-2.71096440016e-05 7.78652522517e-05 0.00309819679779)
(-3.58046628759e-05 7.56539497406e-05 0.00309155786016)
(-4.40822408532e-05 7.26905538858e-05 0.0030791334028)
(-5.16301460784e-05 6.89564348861e-05 0.00305721402885)
(-5.93286334349e-05 6.33074648686e-05 0.00301956552756)
(5.84593274043e-05 6.19442594096e-05 0.00309323010246)
(5.07388923874e-05 6.66466954909e-05 0.00312406199784)
(4.32767404998e-05 6.94236920603e-05 0.00314070548788)
(3.51403224848e-05 7.1591743885e-05 0.0031492027353)
(2.6626211622e-05 7.31941725591e-05 0.00315304467465)
(1.78836477737e-05 7.43017050774e-05 0.00315444467302)
(9.00670638378e-06 7.49544056174e-05 0.00315477636765)
(6.71981204237e-08 7.51716364475e-05 0.00315480234351)
(-8.87289945345e-06 7.49590617745e-05 0.00315477365205)
(-1.77516267916e-05 7.43110049483e-05 0.00315443987573)
(-2.64972888429e-05 7.32080765107e-05 0.00315303460956)
(-3.50162312583e-05 7.16100553466e-05 0.00314917487238)
(-4.31596399474e-05 6.94459129181e-05 0.00314063384357)
(-5.06318728484e-05 6.66738675306e-05 0.00312398038922)
(-5.83709968036e-05 6.19746633529e-05 0.0030932721015)
(5.65232779515e-05 6.04234798278e-05 0.00314625249982)
(4.90102741973e-05 6.35253890497e-05 0.00317133646208)
(4.17321014769e-05 6.51705457946e-05 0.00318422821929)
(3.38459304964e-05 6.64493392246e-05 0.00319053784653)
(2.56348898488e-05 6.73691691986e-05 0.00319316157128)
(1.72148289051e-05 6.79947090365e-05 0.00319391025951)
(8.67122475752e-06 6.83590511335e-05 0.00319393015043)
(7.03549482519e-08 6.84800697593e-05 0.00319387062743)
(-8.53119130362e-06 6.83633661185e-05 0.00319394947627)
(-1.70767921788e-05 6.80033803299e-05 0.00319395300736)
(-2.55002460012e-05 6.73822935278e-05 0.00319323179302)
(-3.37164305788e-05 6.64669968442e-05 0.0031906339358)
(-4.16098837607e-05 6.51926196379e-05 0.00318432745895)
(-4.88991017441e-05 6.35534394791e-05 0.00317148153435)
(-5.64293698125e-05 6.04548465239e-05 0.0031464238829)
(-8.6025465214e-08 -1.42046841249e-07 0.000126638546878)
(-5.50315687244e-08 -1.93725079297e-07 0.000132020130765)
(-3.45282089959e-08 -2.2952980952e-07 0.00013630806173)
(-1.76688486813e-08 -2.56091862725e-07 0.000139723607184)
(-6.60401396202e-09 -2.73257519232e-07 0.00014235328801)
(3.70293485732e-10 -2.84095999839e-07 0.000144228728594)
(3.25319461672e-09 -2.89960885192e-07 0.000145358535147)
(3.27653341555e-09 -2.91728984133e-07 0.000145741284686)
(3.0404743391e-09 -2.89750990662e-07 0.000145360310762)
(5.2305270642e-09 -2.8360956712e-07 0.000144232074083)
(1.15503916077e-08 -2.72269941739e-07 0.000142357915145)
(2.31310208282e-08 -2.54162102243e-07 0.00013972969594)
(4.05441189563e-08 -2.27257352011e-07 0.000136317361006)
(6.07391390979e-08 -1.90637807866e-07 0.00013203929311)
(9.05220926553e-08 -1.3911941727e-07 0.000126691012693)
(3.95642778121e-07 3.47533258879e-07 0.000392982638962)
(4.2869513168e-07 3.72668153428e-07 0.000410115975213)
(4.16193421115e-07 4.24557626306e-07 0.00042394117384)
(3.74914066145e-07 4.85377388275e-07 0.000435009304331)
(3.07472161277e-07 5.47374736631e-07 0.00044355761862)
(2.20803682481e-07 5.98554898479e-07 0.000449667107842)
(1.1933492907e-07 6.32123403158e-07 0.000453349756226)
(8.98258833759e-09 6.43971463139e-07 0.000454591043181)
(-1.01846341747e-07 6.32514379075e-07 0.000453354046425)
(-2.0455475516e-07 5.99572375492e-07 0.000449675149432)
(-2.92287152024e-07 5.49595440728e-07 0.000443568703229)
(-3.58823094978e-07 4.89702898065e-07 0.000435024121148)
(-3.98895194438e-07 4.2997121484e-07 0.000423964992901)
(-4.12289380367e-07 3.80203400561e-07 0.000410168567603)
(-3.82986771416e-07 3.55074939566e-07 0.000393120258278)
(1.59436290242e-06 1.66826240352e-06 0.000668443390883)
(1.5744197892e-06 1.94983080662e-06 0.000697980362796)
(1.45208689815e-06 2.25408709844e-06 0.000721951927326)
(1.25619268908e-06 2.54809482102e-06 0.00074118502069)
(9.99068658972e-07 2.80778076748e-06 0.000756051728539)
(6.97167845911e-07 3.00858930468e-06 0.000766680182112)
(3.64017731033e-07 3.13512488769e-06 0.000773084323556)
(1.37746275442e-08 3.17848078611e-06 0.000775236571411)
(-3.3692538777e-07 3.1354045382e-06 0.00077308943555)
(-6.71225492579e-07 3.00957421654e-06 0.000766689667252)
(-9.73992573389e-07 2.81040256288e-06 0.000756064614961)
(-1.2300104178e-06 2.55350345628e-06 0.000741202419633)
(-1.42456641897e-06 2.26143361557e-06 0.000721981686497)
(-1.54808475586e-06 1.96011270244e-06 0.000698052073207)
(-1.57411931539e-06 1.67960489828e-06 0.000668638674017)
(3.5830425013e-06 3.88515509433e-06 0.000949127909837)
(3.45969505506e-06 4.5968467438e-06 0.000991092365695)
(3.15061730222e-06 5.31782729755e-06 0.00102519697248)
(2.698202936e-06 5.98965824523e-06 0.0010525388454)
(2.12882844002e-06 6.56524464841e-06 0.00107363932884)
(1.47372317074e-06 7.00325895252e-06 0.00108870009947)
(7.6100603405e-07 7.27660403248e-06 0.00109776076933)
(1.8281970296e-08 7.36966306905e-06 0.00110079780016)
(-7.2479761489e-07 7.2768824602e-06 0.00109776434103)
(-1.43837340466e-06 7.00434165654e-06 0.00108870642813)
(-2.0940328392e-06 6.56821153435e-06 0.00107364729164)
(-2.66237264583e-06 5.99576465704e-06 0.00105254971806)
(-3.11383822889e-06 5.32665945653e-06 0.00102521990794)
(-3.42449918427e-06 4.60943931822e-06 0.000991163089001)
(-3.55574746523e-06 3.90008685734e-06 0.000949344950442)
(6.22640518002e-06 6.82474929271e-06 0.00123045475523)
(5.95422855497e-06 8.07787525381e-06 0.0012841351786)
(5.39329062075e-06 9.3178126735e-06 0.00132763231655)
(4.59913620949e-06 1.04540586983e-05 0.00136236186211)
(3.61622025047e-06 1.14140443225e-05 0.00138904734313)
(2.49495970324e-06 1.21386213034e-05 0.00140802331383)
(1.28218965048e-06 1.25885635784e-05 0.00141940594612)
(2.28417498419e-08 1.27413218295e-05 0.00142321049033)
(-1.23676736739e-06 1.25890004813e-05 0.00141940568881)
(-2.45014866945e-06 1.21400355468e-05 0.00140802196522)
(-3.57177386037e-06 1.14175131999e-05 0.0013890435982)
(-4.55395281501e-06 1.0460869788e-05 0.00136235672979)
(-5.34785650662e-06 9.32799381867e-06 0.00132763493378)
(-5.91106953854e-06 8.09272989109e-06 0.00128418488742)
(-6.19240738354e-06 6.84290640087e-06 0.00123066252308)
(9.35393647965e-06 1.02790948255e-05 0.00150747646325)
(8.89309706524e-06 1.21186014131e-05 0.00157142435482)
(8.02877968356e-06 1.39108490194e-05 0.00162286576384)
(6.828354225e-06 1.55347627445e-05 0.00166362898853)