/*--------------------------------*- C++ -*----------------------------------*\
  =========                 |
  \\      /  F ield         | OpenFOAM: The Open Source CFD Toolbox
   \\    /   O peration     | Website:  https://openfoam.org
    \\  /    A nd           | Version:  7
     \\/     M anipulation  |
\*---------------------------------------------------------------------------*/
FoamFile
{
    version     2.0;
    format      ascii;
    class       surfaceScalarField;
    location    "2.14";
    object      phi;
}
// * * * * * * * * * * * * * * * * * * * * * * * * * * * * * * * * * * * * * //

dimensions      [0 3 -1 0 0 0 0];

internalField   nonuniform List<scalar> 
65775
(
-1.00597587131e-11
-2.78666449007e-09
-1.08325684276e-10
-2.26083443152e-14
-1.73356675326e-11
-2.92953763556e-09
-1.18688782519e-10
-2.11720866013e-11
-3.05876076434e-09
-1.28213360911e-10
-2.0940651761e-11
-3.17092759141e-09
-1.36623173735e-10
-1.75210840709e-11
-3.2611893206e-09
-1.43578474612e-10
-1.16421670054e-11
-3.32760252495e-09
-1.48786980607e-10
-4.23635054856e-12
-3.36934616343e-09
-1.52067902377e-10
3.71289056043e-12
-3.38495736607e-09
-1.53257924041e-10
1.11316343499e-11
-3.36934396925e-09
-1.52073422582e-10
1.70364773266e-11
-3.32759725422e-09
-1.48797941457e-10
2.04939669857e-11
-3.26118014103e-09
-1.43594730788e-10
2.07731098699e-11
-3.17091400516e-09
-1.36644577109e-10
1.69903505865e-11
-3.05874551896e-09
-1.28239884149e-10
9.76906953215e-12
-2.92952192011e-09
-1.18720899204e-10
-2.78667269038e-09
-1.08364715188e-10
-2.41638171602e-13
-3.27757094613e-11
-5.13869165173e-09
-3.8281910517e-10
-4.78944062683e-14
-5.7502658926e-11
-5.39776491665e-09
-4.24584618333e-10
-6.90245430078e-11
-5.63542504427e-09
-4.63820319507e-10
-6.84085704183e-11
-5.84010957682e-09
-4.98984356754e-10
-5.72551058512e-11
-6.00461846829e-09
-5.28397227348e-10
-3.80382398757e-11
-6.12530007674e-09
-5.50611471101e-10
-1.37444803804e-11
-6.20102108746e-09
-5.64642248102e-10
1.22745363227e-11
-6.22926747802e-09
-5.69681196937e-10
3.66022623092e-11
-6.20101986473e-09
-5.64659601912e-10
5.58874965547e-11
-6.12529635827e-09
-5.5064582685e-10
6.71420412595e-11
-6.00460956183e-09
-5.28447923919e-10
6.78868133677e-11
-5.84009296542e-09
-4.99050610275e-10
5.65118301251e-11
-5.63540273704e-09
-4.63901607322e-10
3.19460404972e-11
-5.397748353e-09
-4.24681756873e-10
-5.13872678107e-09
-3.82934461641e-10
-6.9219852549e-13
-5.83969066905e-11
-7.0313811169e-09
-6.79106165656e-10
-4.84906085736e-14
-9.98111154982e-11
-7.37815122957e-09
-7.57731024296e-10
-1.18807951319e-10
-7.69754986708e-09
-8.32029798732e-10
-1.17515666103e-10
-7.97029760744e-09
-8.98841766098e-10
-9.82888665612e-11
-8.18895828599e-09
-9.54850801858e-10
-6.523894771e-11
-8.34878500162e-09
-9.97214032338e-10
-2.34615134119e-11
-8.44885694774e-09
-1.02396195732e-09
2.12513449606e-11
-8.48612335966e-09
-1.03352231174e-09
6.30774996584e-11
-8.44886476498e-09
-1.02398896858e-09
9.62246321344e-11
-8.34879834614e-09
-9.97267555471e-10
1.15594584279e-10
-8.18897266231e-09
-9.5492986305e-10
1.17069729493e-10
-7.9703088998e-09
-8.98945189621e-10
9.8284810215e-11
-7.69755682071e-09
-8.32156746891e-10
5.71092445116e-11
-7.37817104156e-09
-7.57882553093e-10
-7.03146414795e-09
-6.79285318262e-10
-1.0709372887e-12
-8.56314188724e-11
-8.46406334858e-09
-9.74455579327e-10
-4.52726071936e-14
-1.43324911487e-10
-8.87058019949e-09
-1.09141492241e-09
-1.69769836411e-10
-9.24341849984e-09
-1.20199926864e-09
-1.67543243755e-10
-9.55906381366e-09
-1.30139803383e-09
-1.40010651455e-10
-9.81109039705e-09
-1.38466342008e-09
-9.28370030166e-11
-9.99457779594e-09
-1.44759264465e-09
-3.32511231038e-11
-1.01091970733e-08
-1.48726828162e-09
3.04956953565e-11
-1.01518353227e-08
-1.50139691686e-09
9.013899934e-11
-1.01092155256e-08
-1.48730286161e-09
1.37426968233e-10
-9.99461184414e-09
-1.44766131424e-09
1.65128236164e-10
-9.81113361033e-09
-1.38476496995e-09
1.67571886732e-10
-9.55910981502e-09
-1.30153093469e-09
1.41382274071e-10
-9.24346350855e-09
-1.2021623079e-09
8.39792963352e-11
-8.87064709586e-09
-1.09160909466e-09
-8.46420175577e-09
-9.74684165722e-10
-1.3781817939e-12
-1.13031418123e-10
-9.45472279971e-09
-1.25165244353e-09
-4.2738823341e-14
-1.86867319336e-10
-9.89491112228e-09
-1.40536593666e-09
-2.20685337467e-10
-1.02947429021e-08
-1.55031853398e-09
-2.17403274025e-10
-1.06302084479e-08
-1.68026468694e-09
-1.81519946918e-10
-1.08966743693e-08
-1.78885409444e-09
-1.20242107421e-10
-1.10898710165e-08
-1.87075423691e-09
-4.29131098979e-11
-1.1210263475e-08
-1.92228248945e-09
3.97879948692e-11
-1.12550205328e-08
-1.94057167123e-09
1.17178536069e-10
-1.12102939297e-08
-1.92232247329e-09
1.78579076899e-10
-1.10899284608e-08
-1.87083375637e-09
2.14644025524e-10
-1.08967517132e-08
-1.78897179262e-09
2.18161383548e-10
-1.06302979226e-08
-1.68041875857e-09
1.84623100639e-10
-1.02948385378e-08
-1.55050732802e-09
1.11107001406e-10
-9.89503585802e-09
-1.4055902245e-09
-9.45491955883e-09
-1.25191552067e-09
-1.61506806007e-12
-1.395793823e-10
-1.00366638153e-08
-1.49639686434e-09
-4.13319598933e-14
-2.29352495745e-10
-1.04875957321e-08
-1.68307876457e-09
-2.70404161445e-10
-1.08919810232e-08
-1.85833094721e-09
-2.66043646426e-10
-1.122806337e-08
-2.01483130734e-09
-2.21957134468e-10
-1.14934371851e-08
-2.14517691001e-09
-1.46894532418e-10
-1.16850416274e-08
-2.24322393606e-09
-5.22634949844e-11
-1.18041538719e-08
-2.30476216753e-09
4.89099358373e-11
-1.18484108507e-08
-2.32653535255e-09
1.43603730858e-10
-1.18041944952e-08
-2.30480588945e-09
2.18791480181e-10
-1.16851195217e-08
-2.24331088201e-09
2.63063835952e-10
-1.1493544998e-08
-2.14530553586e-09
2.67666331205e-10
-1.12281926786e-08
-2.01499944739e-09
2.26904871566e-10
-1.08921241284e-08
-1.8585363919e-09
1.37464225628e-10
-1.04877757145e-08
-1.6833219192e-09
-1.00369181255e-08
-1.49668102105e-09
-1.78829949757e-12
-1.64673820106e-10
-1.02539013105e-08
-1.69857936507e-09
-4.08349114947e-14
-2.69973454467e-10
-1.069656149e-08
-1.91327034781e-09
-3.1804803421e-10
-1.10879468196e-08
-2.11373301834e-09
-3.1266147254e-10
-1.14100069848e-08
-2.29196172488e-09
-2.60678444125e-10
-1.16627003957e-08
-2.43986740549e-09
-1.72382812267e-10
-1.18444218664e-08
-2.55080665821e-09
-6.11726252549e-11
-1.19571237632e-08
-2.62026082998e-09
5.76913370919e-11
-1.19989658644e-08
-2.64475558908e-09
1.68963935886e-10
-1.19571736649e-08
-2.62030700201e-09
2.5738405213e-10
-1.18445187225e-08
-2.55089840136e-09
3.09552192276e-10
-1.16628374033e-08
-2.440002905e-09
3.1518047938e-10
-1.14101758784e-08
-2.29213832927e-09
2.6739718147e-10
-1.10881387008e-08
-2.1139478033e-09
1.62431827516e-10
-1.06967966805e-08
-1.91352324364e-09
-1.02542115088e-08
-1.69887359625e-09
-1.90946289141e-12
-1.8805191083e-10
-1.01564880634e-08
-1.85242454319e-09
-4.01579768065e-14
-3.08247882022e-10
-1.05760225517e-08
-2.08988195041e-09
-3.63081693355e-10
-1.09416813795e-08
-2.3103633983e-09
-3.5677563444e-10
-1.1239502301e-08
-2.50552757907e-09
-2.97309738121e-10
-1.14716987884e-08
-2.66691302752e-09
-1.96474787383e-10
-1.16380817713e-08
-2.7876284542e-09
-6.95732927646e-11
-1.17410342199e-08
-2.86301254143e-09
6.60258254601e-11
-1.17792007137e-08
-2.88950700425e-09
1.92988932759e-10
-1.17410919124e-08
-2.86306032591e-09
2.93946690747e-10
-1.1638194876e-08
-2.78772325433e-09
3.5359505716e-10
-1.14718615931e-08
-2.66705265155e-09
3.60139621881e-10
-1.12397069984e-08
-2.50570874058e-09
3.05593811235e-10
-1.09419189672e-08
-2.31058229787e-09
1.85728810661e-10
-1.05763106195e-08
-2.09013796319e-09
-1.01568552252e-08
-1.85272064307e-09
-1.99185473479e-12
-2.09704354984e-10
-9.79655267573e-09
-1.95586971133e-09
-3.92513370999e-14
-3.44014262756e-10
-1.01820853807e-08
-2.21116824892e-09
-4.05327689944e-10
-1.0513510124e-08
-2.44694618794e-09
-3.98239289149e-10
-1.07807158591e-08
-2.65478771326e-09
-3.31746139392e-10
-1.09878432647e-08
-2.8260908373e-09
-2.19110705174e-10
-1.1135836427e-08
-2.95389524464e-09
-7.74554270114e-11
-1.12272036948e-08
-3.03350725303e-09
7.38715804042e-11
-1.12609845902e-08
-3.06138128087e-09
2.15587902527e-10
-1.12272688348e-08
-3.0335561496e-09
3.28344815188e-10
-1.11359651782e-08
-2.95399204653e-09
3.95018080676e-10
-1.0988031399e-08
-2.8262328845e-09
4.02341493335e-10
-1.07809564919e-08
-2.65497095594e-09
3.41311841717e-10
-1.0513794271e-08
-2.44716582292e-09
2.07328055725e-10
-1.0182427947e-08
-2.21142305097e-09
-9.79697806971e-09
-1.95616212375e-09
-2.04822524719e-12
-2.29772761372e-10
-9.22539284716e-09
-2.00959993095e-09
-3.7216483088e-14
-3.77387710445e-10
-9.5695735936e-09
-2.27844129772e-09
-4.44940757301e-10
-9.86168293264e-09
-2.52552103862e-09
-4.37210557626e-10
-1.00950483591e-08
-2.7425088964e-09
-3.64114318872e-10
-1.02751671961e-08
-2.92081296044e-09
-2.40371204852e-10
-1.04036328199e-08
-3.05352312306e-09
-8.4853237702e-11
-1.04827602892e-08
-3.1359838758e-09
8.12398980608e-11
-1.05118794957e-08
-3.1647320056e-09
2.36818938744e-10
-1.04828329237e-08
-3.13603358953e-09
3.60683236625e-10
-1.04037775072e-08
-3.05362130926e-09
4.33958701101e-10
-1.02753809938e-08
-2.92095644239e-09
4.41922005366e-10
-1.00953259836e-08
-2.74269278226e-09
3.74649786394e-10
-9.86201601226e-09
-2.52573943859e-09
2.27357620289e-10
-9.56997489042e-09
-2.27869237911e-09
-9.22588345076e-09
-2.00988529436e-09
-2.08964156975e-12
-2.48455376726e-10
-8.49166437431e-09
-2.01606351262e-09
-3.44770109278e-14
-4.08716719073e-10
-8.78998697797e-09
-2.29487391631e-09
-4.82373316832e-10
-9.04039390748e-09
-2.55003815766e-09
-4.74096570643e-10
-9.23926991915e-09
-2.77336492914e-09
-3.94705632377e-10
-9.39253699279e-09
-2.95635992392e-09
-2.60425490989e-10
-9.50180326689e-09
-3.09224857355e-09
-9.18256555512e-11
-9.56891822e-09
-3.1764649479e-09
8.81754600481e-11
-9.59342727704e-09
-3.20568316562e-09
2.56837046467e-10
-9.56899938366e-09
-3.17651527155e-09
3.91239554574e-10
-9.50196569741e-09
-3.09234773788e-09
4.70810655049e-10
-9.39277951912e-09
-2.95650424767e-09
4.79320986899e-10
-9.23958846405e-09
-2.77354866494e-09
4.05944700328e-10
-9.04078137141e-09
-2.55025428195e-09
2.46005135398e-10
-8.79045415415e-09
-2.29511999006e-09
-8.49222772533e-09
-2.0163400642e-09
-2.12476666572e-12
-2.65956885923e-10
-7.64042641544e-09
-1.97864890713e-09
-3.04922962334e-14
-4.38634685331e-10
-7.89029118281e-09
-2.26457095059e-09
-5.18378340085e-10
-8.09888490636e-09
-2.52533064752e-09
-5.09473279826e-10
-8.26487108543e-09
-2.75281273752e-09
-4.23872542527e-10
-8.39309503547e-09
-2.93868067234e-09
-2.79453409223e-10
-8.48454447759e-09
-3.0763779932e-09
-9.84295959647e-11
-8.5404880425e-09
-3.16147805689e-09
9.47278313023e-11
-8.56066801521e-09
-3.19084119568e-09
2.75814851775e-10
-8.54057966547e-09
-3.1615287717e-09
4.20358836667e-10
-8.48472848938e-09
-3.07647774777e-09
5.06142977322e-10
-8.39337094545e-09
-2.93882536766e-09
5.15284680563e-10
-8.26523697602e-09
-2.75299583887e-09
4.35823928987e-10
-8.09933514242e-09
-2.52554395457e-09
2.63470001006e-10
-7.89083504085e-09
-2.26481130734e-09
-7.64107371717e-09
-1.97891572775e-09
-2.15913329334e-12
-2.82872306705e-10
-6.71241871933e-09
-1.90108422017e-09
-2.56142895237e-14
-4.68518387621e-10
-6.91222217134e-09
-2.19198140429e-09
-5.54058073928e-10
-7.08157335368e-09
-2.4564979129e-09
-5.43902186423e-10
-7.21830616727e-09
-2.68642932313e-09
-4.51825328637e-10
-7.32440514839e-09
-2.87370297733e-09
-2.97513438753e-10
-7.40003075057e-09
-3.01208967185e-09
-1.04674453039e-10
-7.44599321467e-09
-3.09735712417e-09
1.00904300583e-10
-7.46227174935e-09
-3.12659653996e-09
2.9380865167e-10
-7.44609820496e-09
-3.09740790603e-09
4.48249755467e-10
-7.40024130073e-09
-3.01218946026e-09
5.40515118125e-10
-7.32472223659e-09
-2.87384743357e-09
5.50913451229e-10
-7.21872844852e-09
-2.686611322e-09
4.65662357221e-10
-7.08209708578e-09
-2.45670804262e-09
2.80345710315e-10
-6.9128566239e-09
-2.19221529975e-09
-6.71316485348e-09
-1.90134000511e-09
-2.19039528651e-12
-3.01967770018e-10
-5.74193190734e-09
-1.7870494375e-09
-1.81039984556e-14
-5.01087439614e-10
-5.8929792206e-09
-2.08168735068e-09
-5.90490131858e-10
-6.02942343501e-09
-2.34863349566e-09
-5.77487567206e-10
-6.14163467676e-09
-2.57958358286e-09
-4.78377821288e-10
-6.22875131634e-09
-2.76700137444e-09
-3.14432510192e-10
-6.29068488643e-09
-2.9051167742e-09
-1.10497955832e-10
-6.32801541019e-09
-2.98993940969e-09
1.06644201115e-10
-6.34090401592e-09
-3.01882591022e-09
3.10647404871e-10
-6.32813754175e-09
-2.98998972121e-09
4.74727332253e-10
-6.29092967066e-09
-2.90521564415e-09
5.74033547634e-10
-6.22911877408e-09
-2.76714449543e-09
5.87287077537e-10
-6.14212465369e-09
-2.57976366957e-09
4.98180611026e-10
-6.03003412967e-09
-2.34884010554e-09
2.99398338784e-10
-5.89372126879e-09
-2.08191386235e-09
-5.74279310825e-09
-1.78729145176e-09
-2.22580077844e-12
-3.29902090066e-10
-1.63987808051e-09
-1.18297873887e-14
-4.7532638029e-09
-5.39670428847e-10
-1.93852046235e-09
-4.86826072237e-09
-6.29537959193e-10
-2.2065271386e-09
-4.98007792953e-09
-6.12049584529e-10
-2.43713372022e-09
-5.07209927344e-09
-5.05337729006e-10
-2.62359024715e-09
-5.14341080761e-09
-3.31554879127e-10
-2.76063470298e-09
-5.19422438347e-09
-1.16390603872e-10
-2.84451551286e-09
-5.22469199186e-09
1.12442138923e-10
-2.8728639564e-09
-5.23488709122e-09
3.27679064768e-10
-2.84456439303e-09
-5.22483657674e-09
5.01604451687e-10
-2.76073083216e-09
-5.19451351666e-09
6.08523118202e-10
-2.62372961102e-09
-5.14384357114e-09
6.26274254158e-10
-2.43730952195e-09
-5.07267442858e-09
5.36716093054e-10
-2.20672853824e-09
-4.98079361638e-09
3.27293988814e-10
-1.93874058414e-09
-4.86912687932e-09
-1.6400981289e-09
-2.25742636295e-12
-4.75426408128e-09
-2.57725618972e-12
1.22006630495e-10
-2.27787931054e-10
-4.10336853254e-16
-4.13094140512e-12
1.34826311899e-10
-2.52015706028e-10
-4.65011425998e-12
1.47096320107e-10
-2.74850303978e-10
-4.47394072898e-12
1.58462704035e-10
-2.95315906025e-10
-3.67070474001e-12
1.67986310617e-10
-3.12407349157e-10
-2.38285231621e-12
1.75193887682e-10
-3.25294723155e-10
-7.81253047265e-13
1.79743800776e-10
-3.33430099225e-10
9.28032046917e-13
1.81378316031e-10
-3.36357751425e-10
2.52457904334e-12
1.79752330661e-10
-3.33432233442e-10
3.80332193902e-12
1.75213304626e-10
-3.25298942808e-10
4.595206652e-12
1.68018675328e-10
-3.12413566753e-10
4.7597381517e-12
1.58506858615e-10
-2.95324081809e-10
4.22848515576e-12
1.47144177849e-10
-2.74860606075e-10
2.66170347769e-12
1.34867274979e-10
-2.52029033736e-10
1.22032494143e-10
-2.27807390295e-10
6.47428134399e-14
-4.23568772057e-12
3.59969930926e-10
-6.16543143787e-10
-6.17416288065e-14
-6.79037225814e-12
3.94169716336e-10
-6.81464862562e-10
-7.70410189392e-12
4.26505031083e-10
-7.4241607709e-10
-7.35750357264e-12
4.55883405673e-10
-7.96839866606e-10
-5.9926733869e-12
4.80317310097e-10
-8.42157104591e-10
-3.85890007456e-12
4.98659751271e-10
-8.7625352888e-10
-1.23951788558e-12
5.10194347132e-10
-8.97740271755e-10
1.54925676128e-12
5.14341429343e-10
-9.05454028599e-10
4.16105214364e-12
5.10209560996e-10
-8.97745736156e-10
6.28351866247e-12
4.98694064774e-10
-8.76264410508e-10
7.63855736888e-12
4.80374717358e-10
-8.42173284149e-10
7.98055312473e-12
4.55961944102e-10
-7.96861425227e-10
7.06308378099e-12
4.26590539063e-10
-7.42443713785e-10
4.49550999772e-12
3.94241887469e-10
-6.81501303166e-10
3.60012809396e-10
-6.16595329393e-10
1.64299874121e-13
-3.4986118488e-12
6.30000063034e-10
-9.45626847324e-10
-6.6271210228e-14
-5.35325674475e-12
6.842485207e-10
-1.04603097279e-09
-5.92765289924e-12
7.35017771411e-10
-1.14004937263e-09
-5.4885486712e-12
7.80348638103e-10
-1.22381658938e-09
-4.34253755783e-12
8.17718046435e-10
-1.2934503865e-09
-2.70228438103e-12
8.45545687384e-10
-1.34577663114e-09
-7.6320231016e-13
8.62973160026e-10
-1.37870470789e-09
1.28484615587e-12
8.69245366083e-10
-1.3904926213e-09
3.21226366984e-12
8.62992465076e-10
-1.37871414264e-09
4.8328057809e-12
8.45588075927e-10
-1.34579534325e-09
5.95654869263e-12
8.17786797921e-10
-1.29347804161e-09
6.37466013515e-12
7.8043975008e-10
-1.22385304666e-09
5.7773563028e-12
7.35114916544e-10
-1.1400952711e-09
3.88683916304e-12
6.84328664793e-10
-1.04608975506e-09
6.30047042909e-10
-9.45707512251e-10
2.64981230407e-13
-1.02729046152e-12
8.80573777714e-10
-1.22397315183e-09
-8.04067231563e-14
-1.06019312154e-12
9.48618542672e-10
-1.3558247906e-09
-8.06729012925e-13
1.01166373582e-09
-1.47897683763e-09
-3.92140258632e-13
1.06695279525e-09
-1.58848424818e-09
-4.43916209874e-14
1.11203380387e-09
-1.67937752942e-09
1.7501041721e-13
1.14529906556e-09
-1.74760037244e-09
2.93794352954e-13
1.1660331566e-09
-1.79047152773e-09
3.89752818496e-13
1.17350873199e-09
-1.80577439355e-09
4.95395701208e-13
1.16605371095e-09
-1.79048473245e-09
6.91734769109e-13
1.14534367209e-09
-1.74762639776e-09
1.01161367278e-12
1.11210537258e-09
-1.67941579016e-09
1.39677452121e-12
1.06704613794e-09
-1.58853428643e-09
1.61581225252e-12
1.01176120592e-09
-1.47903895674e-09
1.53203843186e-12
9.48695352628e-10
-1.35590241984e-09
8.80610977768e-10
-1.22407582494e-09
3.49931222156e-13
2.59232087345e-12
1.08000999264e-09
-1.45363528102e-09
-9.29793395076e-14
4.9653888207e-12
1.15395694534e-09
-1.61313684336e-09
6.26922881679e-12
1.22170181319e-09
-1.76172111952e-09
6.53346939061e-12
1.27995317578e-09
-1.89358201478e-09
5.7143426864e-12
1.32682445791e-09
-2.00286579993e-09
3.98316633116e-12
1.3610448106e-09
-2.08479812482e-09
1.66235340479e-12
1.38226043179e-09
-2.13620977249e-09
-8.42384475499e-13
1.38993143916e-09
-2.15450548984e-09
-3.17686792619e-12
1.38227953835e-09
-2.13622659126e-09
-4.93278637717e-12
1.36108558245e-09
-2.08483112113e-09
-5.78369625823e-12
1.32688791848e-09
-2.00291403137e-09
-5.55578482248e-12
1.2800337681e-09
-1.89364450767e-09
-4.29657159898e-12
1.22178255208e-09
-1.76179755831e-09
-1.98695879929e-12
1.1540165506e-09
-1.61323017972e-09
1.08003042965e-09
-1.45375462477e-09
4.24785691286e-13
6.8456691662e-12
1.21355289249e-09
-1.63672716902e-09
-1.00932807613e-13
1.18146600853e-11
1.28617966116e-09
-1.82032446157e-09
1.4201550369e-11
1.35181519483e-09
-1.99088749285e-09
1.42023619879e-11
1.40702193271e-09
-2.14194964358e-09
1.20268743533e-11
1.4507447129e-09
-2.26695948109e-09
8.12486085226e-12
1.48226848195e-09
-2.36057312734e-09
3.13612113986e-12
1.50169260381e-09
-2.41922573284e-09
-2.19900555557e-12
1.50874651288e-09
-2.44003076685e-09
-7.20169546711e-12
1.50170963003e-09
-2.41924587547e-09
-1.11298856421e-11
1.48230427066e-09
-2.3606125539e-09
-1.33406218932e-11
1.45079952109e-09
-2.26701682667e-09
-1.33827088115e-11
1.40708972717e-09
-2.14202329436e-09
-1.10497148203e-11
1.35187999502e-09
-1.9909762807e-09
-6.15500593081e-12
1.28622202648e-09
-1.82043058606e-09
1.21355409624e-09
-1.63685907729e-09
4.90940126402e-13
1.12969057287e-11
1.279163308e-09
-1.77542059985e-09
-1.04593781892e-13
1.87896300218e-11
1.34518155785e-09
-1.9798084936e-09
2.21761294409e-11
1.40380670754e-09
-2.1691547547e-09
2.18312264777e-11
1.45187901151e-09
-2.33651155816e-09
1.82537570085e-11
1.48922173085e-09
-2.47479701126e-09
1.21847914261e-11
1.51573786582e-09
-2.57822984822e-09
4.57178348583e-12
1.53195854695e-09
-2.6429311674e-09
-3.5358706942e-12
1.53788683962e-09
-2.66580173117e-09
-1.11629868869e-11
1.53197300753e-09
-2.64295445681e-09
-1.72592546831e-11
1.51576765396e-09
-2.57827531776e-09
-2.08751992525e-11
1.48926613296e-09
-2.47486279541e-09
-2.12691761437e-11
1.45193188247e-09
-2.33659527324e-09
-1.79451888164e-11
1.40385426685e-09
-2.16925421166e-09
-1.05363203443e-11
1.34520725701e-09
-1.97992503285e-09
1.27915083836e-09
-1.77556190075e-09
5.48742091365e-13
1.56129988393e-11
1.28311726524e-09
-1.87191968307e-09
-1.04451620378e-13
2.54057374403e-11
1.33950867906e-09
-2.09403931284e-09
2.96511589585e-11
1.38839015595e-09
-2.29923021891e-09
2.89171180275e-11
1.42727159142e-09
-2.48021967385e-09
2.39965014929e-11
1.45674399939e-09
-2.62954163268e-09
1.59098215929e-11
1.47726898164e-09
-2.74109378821e-09
5.88287636457e-12
1.48971224461e-09
-2.81075546148e-09
-4.76648577166e-12
1.49430238182e-09
-2.83528593106e-09
-1.48076733339e-11
1.48972500859e-09
-2.8107817255e-09
-2.29225994274e-11
1.47729490987e-09
-2.7411449313e-09
-2.78845072775e-11
1.45678181902e-09
-2.62961522822e-09
-2.86727575312e-11
1.42731554471e-09
-2.48031247413e-09
-2.44971780004e-11
1.38842750091e-09
-2.29933891561e-09
-1.47957938499e-11
1.33952542475e-09
-2.09416438726e-09
1.28309711685e-09
-1.8720679493e-09
5.9813290998e-13
1.95527117589e-11
1.23619041671e-09
-1.92842317645e-09
-1.01891747693e-13
3.13529742007e-11
1.28195970659e-09
-2.16544973523e-09
3.63055281897e-11
1.32025525656e-09
-2.38379350585e-09
3.51813456479e-11
1.34956962675e-09
-2.57598760418e-09
2.90462177678e-11
1.37107283594e-09
-2.7343061034e-09
1.91727299331e-11
1.38565794778e-09
-2.85242816759e-09
7.0270993132e-12
1.39439377415e-09
-2.92605706642e-09
-5.84760012329e-12
1.39766108996e-09
-2.95187669217e-09
-1.80075354487e-11
1.39440549076e-09
-2.92608613325e-09
-2.79099975065e-11
1.38568144725e-09
-2.85248462952e-09
-3.40886235054e-11
1.37110658363e-09
-2.73438693972e-09
-3.52712916244e-11
1.34960843506e-09
-2.57608865045e-09
-3.0394402575e-11
1.32028827473e-09
-2.38391029382e-09
-1.86916944645e-11
1.28197515491e-09
-2.16558194933e-09
1.23617477252e-09
-1.92857662139e-09
6.39772078186e-13
2.29572613314e-11
1.15079445674e-09
-1.94708814451e-09
-9.71391628332e-14
3.64551307102e-11
1.18641084745e-09
-2.19641463954e-09
4.19823102522e-11
1.2146385109e-09
-2.42545572785e-09
4.05074129763e-11
1.23516210597e-09
-2.62664827204e-09
3.33283265349e-11
1.2495278408e-09
-2.79210739825e-09
2.19339479688e-11
1.25889990499e-09
-2.91538580876e-09
7.99262399405e-12
1.26441230087e-09
-2.9920735941e-09
-6.76591449364e-12
1.26652014579e-09
-3.01884266064e-09
-2.07215945983e-11
1.26442418581e-09
-2.99210528742e-09
-3.21455098038e-11
1.25892357333e-09
-2.91544724504e-09
-3.93697090111e-11
1.24956201839e-09
-2.7921949648e-09
-4.09061783759e-11
1.23520214149e-09
-2.62675687785e-09
-3.54590122456e-11
1.21467504566e-09
-2.42557974553e-09
-2.20629073078e-11
1.18643420383e-09
-2.19655304455e-09
1.15079248181e-09
-1.94724554783e-09
6.73869511135e-13
2.57380116245e-11
1.03906599979e-09
-1.93000318457e-09
-9.15230029578e-14
4.0639998051e-11
1.06584625491e-09
-2.18923101071e-09
4.66499926658e-11
1.08532186205e-09
-2.42675061483e-09
4.4899576587e-11
1.09848064324e-09
-2.63495029354e-09
3.68648067355e-11
1.10705219697e-09
-2.80586421993e-09
2.42149150924e-11
1.11229525556e-09
-2.9330068409e-09
8.78870435618e-12
1.11528277404e-09
-3.01191982425e-09
-7.52870519453e-12
1.1164713448e-09
-3.03932601643e-09
-2.29693750577e-11
1.11529584845e-09
-3.01195395347e-09
-3.56491597069e-11
1.11232142211e-09
-2.9330729036e-09
-4.37302489659e-11
1.1070903131e-09
-2.80595805712e-09
-4.55443612331e-11
1.09852730929e-09
-2.63506592128e-09
-3.96172937528e-11
1.08536936733e-09
-2.42688126189e-09
-2.48200752913e-11
1.06588670317e-09
-2.18937501567e-09
1.03909030397e-09
-1.93016380071e-09
7.01492217034e-13
2.78641057349e-11
9.11792554333e-10
-1.87917189175e-09
-8.49933313531e-14
4.39333624917e-11
9.31319108829e-10
-2.14612835549e-09
5.03960958289e-11
9.43680948381e-10
-2.39016730989e-09
4.84690282608e-11
9.51176628787e-10
-2.60359524872e-09
3.97561868552e-11
9.55505008711e-10
-2.77843254314e-09
2.60842486587e-11
9.57833053459e-10
-2.90825313898e-09
9.43984627879e-12
9.59062704963e-10
-2.98862225855e-09
-8.15866383829e-12
9.59599255044e-10
-3.01637727301e-09
-2.48176603634e-11
9.59078113724e-10
-2.98865859427e-09
-3.85199226605e-11
9.57863974435e-10
-2.9083234344e-09
-4.7279749949e-11
9.55551221479e-10
-2.77853219607e-09
-4.92717686985e-11
9.5123551567e-10
-2.60371747055e-09
-4.28936772719e-11
9.43746449836e-10
-2.39030418034e-09
-2.69304814771e-11
9.3138540182e-10
-2.14627753076e-09
9.11851898358e-10
-1.87933522554e-09
7.22970941904e-13
2.93846556793e-11
7.77888920324e-10
-1.79650246013e-09
-7.903205179e-14
4.6527312845e-11
7.91514564335e-10
-2.069332111e-09
5.34792089159e-11
7.98456278724e-10
-2.31823727437e-09
5.14560099291e-11
8.02070180445e-10
-2.53530987031e-09
4.21866275082e-11
8.03727302578e-10
-2.71266417684e-09
2.76549257804e-11
8.04328139118e-10
-2.84406133082e-09
9.98511522694e-12
8.04541017721e-10
-2.92517096348e-09
-8.69335200094e-12
8.04682240089e-10
-2.95300712009e-09
-2.63780557e-11
8.0456010401e-10
-2.92520920246e-09
-4.09403102769e-11
8.04366718774e-10
-2.84413534092e-09
-5.02572885687e-11
8.03785185252e-10
-2.71276909161e-09
-5.23460347935e-11
8.02146405725e-10
-2.53543828359e-09
-4.54792287757e-11
7.98547226356e-10
-2.31838008027e-09
-2.84431760998e-11
7.91615693868e-10
-2.06948588499e-09
7.77994489454e-10
-1.79666751559e-09
7.38301913034e-13
3.05528126454e-11
6.44146490252e-10
-1.68380023655e-09
-7.27088936327e-14
4.88995237402e-11
6.52725982964e-10
-1.96125520105e-09
5.63695266007e-11
6.5603093912e-10
-2.21368666926e-09
5.42260010056e-11
6.57551398784e-10
-2.43293025823e-09
4.44098635164e-11
6.57997862e-10
-2.61146368282e-09
2.90792098942e-11
6.57930099467e-10
-2.74339342535e-09
1.04741560184e-11
6.57770659596e-10
-2.82457015573e-09
-9.18125127844e-12
6.57745334128e-10
-2.85223743827e-09
-2.78014816647e-11
6.57795134178e-10
-2.82460978246e-09
-4.31633521004e-11
6.5797966347e-10
-2.74347025657e-09
-5.30272276308e-11
6.58072886453e-10
-2.61157287812e-09
-5.52360741038e-11
6.57651511416e-10
-2.43306420136e-09
-4.78510251312e-11
6.56153273459e-10
-2.21383518949e-09
-2.96099029916e-11
6.52870041586e-10
-1.96141272912e-09
6.44306231991e-10
-1.68396468085e-09
7.4830955969e-13
3.13759781857e-11
-1.5432258928e-09
-6.4365832577e-14
5.16171581837e-10
5.16460416969e-11
-1.8253702134e-09
5.19297715714e-10
5.95602576038e-11
-2.07975452477e-09
5.21335584523e-10
5.71619088551e-11
-2.29953104564e-09
5.22340785482e-10
4.67264317676e-11
-2.47784536643e-09
5.22681928771e-10
3.05532982379e-11
-2.60925736614e-09
5.22719479029e-10
1.09783362428e-11
-2.68983847293e-09
5.22663928244e-10
-9.69201446124e-12
-2.71709481159e-09
5.22641503312e-10
-2.92824111231e-11
-2.68987854242e-09
5.22696576172e-10
-4.5487421089e-11
-2.60933525152e-09
5.2278456912e-10
-5.59712158826e-11
-2.47795655836e-09
5.22779959211e-10
-5.84355161803e-11
-2.2996683886e-09
5.22471007351e-10
-5.06046459357e-11
-2.07990732095e-09
5.21497710494e-10
-3.04375843114e-11
-1.82553238741e-09
5.1949145155e-10
-1.54338205683e-09
7.54149182985e-13
5.16395423667e-10
1.72364367398e-12
-2.88897688037e-11
-2.00622682724e-10
-2.36872484679e-14
2.64282893717e-12
-3.22139366781e-11
-2.2075052186e-10
3.00386836285e-12
-3.56701832538e-11
-2.39573892934e-10
2.90160983692e-12
-3.8887850293e-11
-2.56354474802e-10
2.39254376608e-12
-4.16188236355e-11
-2.70307933724e-10
1.56391835204e-12
-4.36960347631e-11
-2.80795540923e-10
5.28312309482e-13
-4.50077486953e-11
-2.87406021138e-10
-5.80499656379e-13
-4.54727357132e-11
-2.89789700588e-10
-1.61249375588e-12
-4.50010615283e-11
-2.87408640531e-10
-2.43386427789e-12
-4.36840549088e-11
-2.80800716337e-10
-2.9331987625e-12
-4.16045219033e-11
-2.70315556606e-10
-3.02479940991e-12
-3.88733356904e-11
-2.56364439255e-10
-2.65096449399e-12
-3.56530624891e-11
-2.39586238742e-10
-1.72102001649e-12
-3.21975951416e-11
-2.20766043437e-10
-2.88756002723e-11
-2.00644434348e-10
-1.27741638861e-14
3.89896857578e-12
-6.82295242021e-11
-5.81093534557e-10
-5.02586316579e-14
6.20601483601e-12
-7.52832023822e-11
-6.40756579384e-10
7.17607844505e-12
-8.25130629981e-11
-6.9660100795e-10
6.98065805804e-12
-8.92055126158e-11
-7.46379119694e-10
5.77474284926e-12
-9.48453792949e-11
-7.87772833176e-10
3.7796835617e-12
-9.91078007503e-11
-8.1888763511e-10
1.27704414701e-12
-1.01790751376e-10
-8.38485347905e-10
-1.40398351338e-12
-1.02743095856e-10
-8.45524528843e-10
-3.89780626366e-12
-1.01775219367e-10
-8.3849334251e-10
-5.87585877513e-12
-9.9078941419e-11
-8.18903396436e-10
-7.05996852332e-12
-9.4807567583e-11
-7.87795970172e-10
-7.23229177452e-12
-8.91619938237e-11
-7.46409206905e-10
-6.23643026779e-12
-8.24627021226e-11
-6.96638008067e-10
-3.90542523767e-12
-7.52349001433e-11
-6.40802494731e-10
-6.81910324511e-11
-5.81154836472e-10
-3.73045217638e-14
5.09682528412e-12
-1.03851574519e-10
-9.15076733981e-10
-5.96635946652e-14
8.27195986109e-12
-1.13687485686e-10
-1.01084159078e-09
9.65943649658e-12
-1.2362491513e-10
-1.10036573218e-09
9.43479922658e-12
-1.32774630973e-10
-1.18006334447e-09
7.82002397584e-12
-1.40445547305e-10
-1.24627421446e-09
5.12465045352e-12
-1.46214634277e-10
-1.29600791225e-09
1.73655353589e-12
-1.49835602929e-10
-1.32729732768e-09
-1.89483580023e-12
-1.51121491919e-10
-1.33850133305e-09
-5.27272525712e-12
-1.4981469316e-10
-1.32731023661e-09
-7.94847577877e-12
-1.46175680619e-10
-1.29603330812e-09
-9.53743870441e-12
-1.4039403572e-10
-1.24631136578e-09
-9.73352800788e-12
-1.3271540403e-10
-1.18011143799e-09
-8.31528276611e-12
-1.23559000909e-10
-1.10042450935e-09
-5.11106073726e-12
-1.13622031851e-10
-1.01091363348e-09
-1.03795281961e-10
-9.15170508343e-10
-5.0094178921e-14
5.59004148604e-12
-1.34428108494e-10
-1.19895711314e-09
-6.11381506958e-14
9.1965452328e-12
-1.46269823976e-10
-1.32688833069e-09
1.08287257551e-11
-1.58019633143e-10
-1.44625664401e-09
1.06189652573e-11
-1.68732218705e-10
-1.55235761108e-09
8.81785736357e-12
-1.77657702791e-10
-1.64040117879e-09
5.78340482443e-12
-1.84336202462e-10
-1.70647507489e-09
1.96050295707e-12
-1.88515854109e-10
-1.7479920265e-09
-2.13916892867e-12
-1.900001173e-10
-1.76281340538e-09
-5.9514708195e-12
-1.884906567e-10
-1.74800937939e-09
-8.96569674488e-12
-1.84288768839e-10
-1.70650915899e-09
-1.07398980319e-11
-1.77593278517e-10
-1.64045090292e-09
-1.09193136841e-11
-1.68656235049e-10
-1.552421705e-09
-9.2546399607e-12
-1.57935294243e-10
-1.44633439963e-09
-5.61712566624e-12
-1.46186153586e-10
-1.32698222012e-09
-1.34355643207e-10
-1.19907609105e-09
-6.21969581253e-14
5.5648554669e-12
-1.58989163179e-10
-1.43460533493e-09
-6.00473269537e-14
9.25610473497e-12
-1.72138289803e-10
-1.59098684226e-09
1.09762413252e-11
-1.84915322214e-10
-1.73657461913e-09
1.08026572308e-11
-1.96410973199e-10
-1.86575921064e-09