/*--------------------------------*- C++ -*----------------------------------*\
  =========                 |
  \\      /  F ield         | OpenFOAM: The Open Source CFD Toolbox
   \\    /   O peration     | Website:  https://openfoam.org
    \\  /    A nd           | Version:  7
     \\/     M anipulation  |
\*---------------------------------------------------------------------------*/
FoamFile
{
    version     2.0;
    format      ascii;
    class       volVectorField;
    location    "1.12";
    object      U;
}
// * * * * * * * * * * * * * * * * * * * * * * * * * * * * * * * * * * * * * //

dimensions      [0 1 -1 0 0 0 0];

internalField   nonuniform List<vector> 
22500
(
(3.44477416184e-05 3.84199300803e-05 0.000791510137644)
(3.21913780209e-05 4.30756424309e-05 0.000830566214212)
(2.8155909296e-05 4.78729011867e-05 0.000866245262052)
(2.36961719122e-05 5.19359847885e-05 0.000896957743346)
(1.84299860651e-05 5.53085848331e-05 0.000921785870286)
(1.26236761698e-05 5.78188075578e-05 0.000940015562007)
(6.41455973513e-06 5.93681067085e-05 0.000951158993948)
(-3.74065324057e-09 5.98921702692e-05 0.00095492413898)
(-6.42181480619e-06 5.9367672795e-05 0.000951158887496)
(-1.26302512607e-05 5.78180348005e-05 0.000940015318927)
(-1.84353303367e-05 5.53077011252e-05 0.00092178548602)
(-2.36998866787e-05 5.19351934979e-05 0.000896957298385)
(-2.81578015719e-05 4.78726135469e-05 0.000866244795937)
(-3.21917527436e-05 4.30759041689e-05 0.000830565203272)
(-3.44471698222e-05 3.84205714982e-05 0.000791503780467)
(9.86384276273e-05 0.000110407253885 0.00191189491154)
(9.19050701474e-05 0.000123444294547 0.0019861689172)
(8.05748544507e-05 0.0001366580762 0.00205296463055)
(6.76537110188e-05 0.000147945851528 0.00210965370328)
(5.25883548293e-05 0.000157300273055 0.00215492081652)
(3.59879448815e-05 0.000164258159549 0.00218784353137)
(1.82741768985e-05 0.000168551906947 0.00220783855099)
(-1.69264985985e-08 0.000170003498085 0.00221456656859)
(-1.83072556189e-05 0.00016855134332 0.00220783837106)
(-3.60186203612e-05 0.000164257376304 0.00218784310356)
(-5.26146640613e-05 0.000157299974222 0.00215492015095)
(-6.76736719496e-05 0.000147946721684 0.0021096530529)
(-8.05870295366e-05 0.000136661337195 0.0020529641687)
(-9.19095371869e-05 0.000123450265218 0.00198616710929)
(-9.86368081458e-05 0.000110415194225 0.001911881659)
(0.000143059177981 0.000160214819573 0.00271177841918)
(0.000132555440642 0.000177786080247 0.0027980903778)
(0.000115818420116 0.000195496879117 0.00287456460847)
(9.68398893459e-05 0.000210536010618 0.00293866815503)
(7.50475655593e-05 0.00022293321518 0.00298929344144)
(5.1239826327e-05 0.000232116989293 0.00302579844262)
(2.59857615227e-05 0.000237769932293 0.0030478366809)
(-1.54751053473e-08 0.000239678750708 0.00305522416716)
(-2.60160891527e-05 0.000237770184355 0.0030478352354)
(-5.1268231404e-05 0.000232117715451 0.00302579555513)
(-7.50724879625e-05 0.000222934888409 0.00298928934931)
(-9.68596922061e-05 0.000210539031385 0.00293866356319)
(-0.000115831756389 0.000195501930931 0.00287456038163)
(-0.000132562347594 0.000177793015008 0.00279808526343)
(-0.000143060585257 0.000160222665449 0.00271175940251)
(0.000172930833412 0.000193681325376 0.00328671369084)
(0.000159327772942 0.000213119839882 0.00337219861962)
(0.000138614623332 0.000232730111435 0.00344668872014)
(0.000115390078046 0.000249197086129 0.00350830173564)
(8.91211243699e-05 0.000262692772945 0.00355638660367)
(6.06939434902e-05 0.000272639368886 0.00359073835607)
(3.07331844626e-05 0.000278742495251 0.00361134146347)
(-1.61550408526e-08 0.00028079998605 0.00361822081458)
(-3.07649130552e-05 0.000278743435349 0.00361133936629)
(-6.07238763811e-05 0.000272641436052 0.00359073422883)
(-8.91478419134e-05 0.000262696344297 0.00355638085711)
(-0.000115412082975 0.000249202435935 0.00350829539371)
(-0.000138630556657 0.000232737575963 0.00344668329896)
(-0.000159337593335 0.000213128897901 0.00337219376637)
(-0.000172935040518 0.000193690683681 0.00328669624232)
(0.000192348621726 0.000215493556392 0.00369925491592)
(0.000176262123687 0.000235090218671 0.00377693215241)
(0.000152674701196 0.00025499325302 0.00384333471168)
(0.000126558943951 0.000271488667361 0.00389742700124)
(9.74289122961e-05 0.000284928793314 0.00393908117425)
(6.61894267957e-05 0.000294783477802 0.00396852476381)
(3.3465916117e-05 0.000300810861428 0.00398605272559)
(-1.70839889999e-08 0.000302839417419 0.00399188022833)
(-3.34994908195e-05 0.0003008121499 0.00398605044869)
(-6.62211814715e-05 0.000294786243806 0.00396852034395)
(-9.74574713904e-05 0.000284933385996 0.00393907515899)
(-0.000126582904473 0.000271495354193 0.00389742066608)
(-0.000152692776589 0.000255002259445 0.00384333019563)
(-0.00017627425336 0.000235100795548 0.00377693024898)
(-0.000192355146269 0.000215504234914 0.00369924370456)
(0.000203582871126 0.000228155166992 0.00399283622006)
(0.000185576919503 0.000246723048468 0.00405934633849)
(0.000160033512609 0.000265829372803 0.00411495988525)
(0.00013212328336 0.000281444262663 0.00415946336197)
(0.000101397350097 0.000294093080058 0.00419320677439)
(6.87259958953e-05 0.0003033220749 0.00421676533479)
(3.46994186256e-05 0.000308949684512 0.00423066819249)
(-1.78081726117e-08 0.000310840797786 0.00423526812082)
(-3.47344172351e-05 0.000308951127007 0.0042306660972)
(-6.87591142223e-05 0.000303325155676 0.0042167613389)
(-0.000101427234624 0.000294098146435 0.00419320153615)
(-0.000132148614377 0.000281451607604 0.0041594583795)
(-0.000160053156479 0.000265839194848 0.00411495789449)
(-0.000185590866133 0.000246734496212 0.00405934920124)
(-0.000203591349964 0.000228166653444 0.00399283313707)
(0.000208368261634 0.000233546197371 0.00419894920451)
(0.000188960795982 0.000250293381619 0.00425323825553)
(0.000162238182589 0.000267880434167 0.00429749271921)
(0.000133423450961 0.000282048175806 0.00433217140988)
(0.000102095746198 0.000293460175555 0.00435798977351)
(6.90495023479e-05 0.000301749914293 0.00437575230011)
(3.48169708289e-05 0.000306791100616 0.00438612637294)
(-1.82255107833e-08 0.000308482932778 0.00438953946765)
(-3.48527810299e-05 0.000306792540151 0.00438612470223)
(-6.90833781645e-05 0.000301752995921 0.00437574920626)
(-0.000102126357124 0.000293465250331 0.00435798601825)
(-0.000133449563744 0.000282055571959 0.00433216871791)
(-0.000162258838406 0.000267890357312 0.00429749439379)
(-0.000188976107456 0.000250304994099 0.00425324693155)
(-0.000208378367005 0.000233557847691 0.00419895456543)
(0.000208223446273 0.000233338570278 0.00434101880389)
(0.000187882397161 0.000247802181347 0.00438347522268)
(0.000160624827455 0.00026343596164 0.00441708707708)
(0.000131606028386 0.000275851034998 0.00444277991434)
(0.00010043093837 0.000285799418821 0.00446149280371)
(6.77882326182e-05 0.000293000075091 0.00447413812528)
(3.41399738343e-05 0.000297369465444 0.00448142984573)
(-1.83772214744e-08 0.000298834374283 0.00448381253334)
(-3.41760695429e-05 0.000297370759128 0.00448142873678)
(-6.78223570086e-05 0.000293002870193 0.00447413620566)
(-0.000100461790516 0.000285804074774 0.00446149094941)
(-0.000131632464173 0.000275857919583 0.00444278010073)
(-0.00016064607234 0.000263445312702 0.00441709312799)
(-0.000187898696125 0.000247813222995 0.00438349013029)
(-0.000208234871504 0.000233349722535 0.00434103203428)
(0.000204409095001 0.000228936254736 0.00443665795939)
(0.000183543882587 0.000240898715249 0.00446850512406)
(0.00015627409836 0.000254348811304 0.00449288301398)
(0.000127588656141 0.00026488196883 0.0045109712729)
(9.71213626776e-05 0.000273285528485 0.00452379183355)
(6.54360030672e-05 0.000279354344784 0.00453226004248)
(3.29197110171e-05 0.000283032086169 0.00453706312616)
(-1.83596530851e-08 0.000284264413846 0.0045386189237)
(-3.29557607526e-05 0.000283033105358 0.00453706263712)
(-6.54700641676e-05 0.000279356593665 0.0045322594183)
(-9.71521701079e-05 0.000273289378544 0.00452379208715)
(-0.000127615151569 0.000264887830682 0.00451097465916)
(-0.000156295680182 0.000254356974698 0.00449289380677)
(-0.000183560897351 0.000240908527715 0.00446852618997)
(-0.000204421549799 0.000228946274985 0.00443667797564)
(0.000197928214261 0.000221463757308 0.00449910495058)
(0.000176883201167 0.000230872972324 0.00452196818917)
(0.000150017292424 0.000242038298373 0.00453879791724)
(0.000122070553524 0.000250665762155 0.00455083865792)
(9.27088224244e-05 0.000257529747493 0.00455907653023)
(6.23619415985e-05 0.000262485803305 0.00456435159605)
(3.13428773353e-05 0.000265489114892 0.00456727491449)
(-1.82881338333e-08 0.000266495482656 0.00456821018561)
(-3.13787802065e-05 0.000265489745375 0.00456727505138)
(-6.23958566308e-05 0.000262487277001 0.00456435228615)
(-9.27395228972e-05 0.000257532449587 0.00455907894425)
(-0.000122097059364 0.000250670152944 0.00455084534451)
(-0.000150039145759 0.000242044740441 0.00453881350115)
(-0.000176900816555 0.000230880973817 0.00452199489578)
(-0.000197941479933 0.000221472090456 0.00449913028935)
(0.000189565109386 0.000211810227885 0.00453823129982)
(0.000168616264887 0.000218710987774 0.00455384050338)
(0.000142480797857 0.000227563620628 0.0045648108911)
(0.000115575306158 0.00023431895553 0.00457230200341)
(8.75948057506e-05 0.000239696427485 0.00457717911525)
(5.88366121349e-05 0.000243590925967 0.00458015848989)
(2.95452408765e-05 0.000245955147924 0.00458174891087)
(-1.82773582846e-08 0.000246747952295 0.00458224744183)
(-2.95811253707e-05 0.000245955295631 0.00458174963607)
(-5.88705270964e-05 0.000243591432924 0.00458016041662)
(-8.76255605852e-05 0.000239697693809 0.00457718356881)
(-0.00011560198035 0.000234321493311 0.00457231180682)
(-0.000142503035921 0.000227567885397 0.00456483089636)
(-0.000168634488175 0.000218716690044 0.00455387177747)
(-0.000189579066301 0.000211816428306 0.00453825996473)
(0.000179923104938 0.00020067675044 0.00456131201364)
(0.000159282939964 0.000205146456921 0.00457131464606)
(0.000134136069849 0.000211693284254 0.0045779529277)
(0.000108495040513 0.000216641898069 0.00458219839261)
(8.2074637938e-05 0.00022061195264 0.00458474903881)
(5.50550754665e-05 0.000223509553201 0.00458617708208)
(2.76233239504e-05 0.000225275456407 0.00458688207981)
(-1.84295534642e-08 0.000225868447167 0.00458709315064)
(-2.7659524847e-05 0.000225275053459 0.00458688328899)
(-5.50893425495e-05 0.000223508956755 0.00458618000576)
(-8.21058122435e-05 0.000220611574981 0.00458475509592)
(-0.00010852223591 0.000216642288438 0.00458221059598)
(-0.000134158971992 0.000211694999168 0.00457797623536)
(-0.000159301907537 0.000205149425373 0.00457134854446)
(-0.000179937730637 0.000200680368743 0.00456134105701)
(0.000169451759151 0.000188581900485 0.00457365797095)
(0.000149307156914 0.000190687175873 0.00457951887028)
(0.000125357297758 0.00019496982445 0.00458310250045)
(0.000101129650768 0.00019820714921 0.00458514505146)
(7.63619079914e-05 0.000200863313422 0.00458617158743)
(5.11516634696e-05 0.000202827336267 0.00458661421793)
(2.56416364711e-05 0.000204030466809 0.00458676968356)
(-1.8825831367e-08 0.000204434962027 0.0045868045768)
(-2.56786466407e-05 0.000204029489937 0.00458677114927)
(-5.11867866095e-05 0.000202825595224 0.00458661759669)
(-7.6394017692e-05 0.000200861205188 0.00458617821747)
(-0.000101157870295 0.000198205251654 0.00458515791588)
(-0.000125381287994 0.000194968760023 0.00458312657461)
(-0.000149327132656 0.000190687088436 0.00457955206311)
(-0.000169467125575 0.000188582581842 0.00457368334489)
(0.000158542787269 0.000175849146754 0.00457917100948)
(0.000139120664119 0.00017566186149 0.00458212661683)
(0.000116468629174 0.000177763721898 0.00458363328945)
(9.36913118371e-05 0.000179442086193 0.00458422274676)
(7.05852108029e-05 0.000180881918358 0.00458428198431)
(4.71983673113e-05 0.000181962916915 0.00458412359896)
(2.36327178767e-05 0.000182627095122 0.00458395475189)
(-1.95040881558e-08 0.000182850191051 0.00458388755005)
(-2.36710928359e-05 0.00018262557759 0.00458395606644)
(-4.72348978249e-05 0.000181960086193 0.00458412644918)
(-7.06187878626e-05 0.000180878163244 0.00458428726881)
(-9.37210457705e-05 0.000179437955115 0.00458423287846)
(-0.000116494116438 0.000177759820228 0.00458365301033)
(-0.000139141911895 0.000175658489558 0.00458215334453)
(-0.000158559046655 0.000175846443625 0.00457918760022)
(0.000147825719593 0.000162537415741 0.0045808793684)
(0.000129276826071 0.000159275663027 0.00458188559302)
(0.000107621505455 0.000159812625069 0.00458193042109)
(8.62381560798e-05 0.00016021383162 0.0045815094323)
(6.47563336851e-05 0.000160615228645 0.00458091502785)
(4.31965446874e-05 0.000160921023943 0.00458036529414)
(2.15967981367e-05 0.000161108678853 0.00457999233272)
(-2.03836002978e-08 0.000161171252975 0.00457986211379)
(-2.1636934203e-05 0.000161106822399 0.00457999306624)
(-4.32348339281e-05 0.000160917466443 0.00458036654312)
(-6.47916872511e-05 0.0001606102836 0.00458091677439)
(-8.6269689667e-05 0.000160207891823 0.00458151252101)
(-0.000107648706424 0.000159806150925 0.00458193863843)
(-0.000129299334069 0.000159268879572 0.00458189318209)
(-0.000147843048565 0.000162530966349 0.00458088811429)
(1.2275537892e-06 1.95612114875e-06 0.000486681795686)
(7.63465544297e-07 2.53021270639e-06 0.000510992088862)
(5.54958176569e-07 2.86470623831e-06 0.000533088839471)
(3.43974781445e-07 3.11856876031e-06 0.000552172751835)
(1.82620118258e-07 3.2859456385e-06 0.000567644551132)
(8.31357815029e-08 3.38440175681e-06 0.000579028092443)
(3.14983055934e-08 3.43418082092e-06 0.000585999109041)
(8.6842478166e-09 3.44959667118e-06 0.00058836162277)
(-1.45765373034e-08 3.43532008931e-06 0.000586000544742)
(-6.76713853567e-08 3.38632284884e-06 0.000579030914411)
(-1.69965866564e-07 3.2879142086e-06 0.000567648559992)
(-3.35444926475e-07 3.11965769463e-06 0.000552177444771)
(-5.51423932181e-07 2.8637675977e-06 0.000533093366704)
(-7.64766647715e-07 2.52675522459e-06 0.000510994432323)
(-1.2316049018e-06 1.9508945151e-06 0.000486676222711)
(1.11430024396e-05 1.34644207759e-05 0.0013747956094)
(9.71918990198e-06 1.63564004796e-05 0.00143918836981)
(8.55639034778e-06 1.88176381926e-05 0.0014975840709)
(7.13240834781e-06 2.0952830571e-05 0.00154788201235)
(5.50282209597e-06 2.26595001081e-05 0.0015885599878)
(3.74665738504e-06 2.38969995323e-05 0.00161843590634)
(1.9032496511e-06 2.46471073339e-05 0.00163670515955)
(2.08011749552e-08 2.48993193553e-05 0.00164287998984)
(-1.86278672078e-06 2.46489808494e-05 0.00163670989418)
(-3.70987036067e-06 2.39000019968e-05 0.00161844519772)
(-5.47290715521e-06 2.26621019414e-05 0.00158857320577)
(-7.11261483966e-06 2.09532290021e-05 0.00154789765656)
(-8.54868621773e-06 1.88134528117e-05 0.00149759955569)
(-9.72296518588e-06 1.63468512704e-05 0.00143919778418)
(-1.11534077781e-05 1.34509337838e-05 0.00137478495704)
(2.50834543243e-05 2.8873804652e-05 0.00217926568217)
(2.24780256747e-05 3.44038057292e-05 0.00227479898352)
(1.99791124788e-05 3.93559197766e-05 0.00236086122584)
(1.68445598902e-05 4.36965877954e-05 0.00243453517873)
(1.31371551977e-05 4.72189503465e-05 0.00249379288425)
(9.01277402375e-06 4.98063521172e-05 0.00253712819404)
(4.59279615581e-06 5.13892309333e-05 0.00256354392057)
(2.63246075811e-08 5.19231103704e-05 0.00257244714819)
(-4.54153644509e-06 5.13909360557e-05 0.00256355009741)
(-8.96597234509e-06 4.98088649067e-05 0.00253714035303)
(-1.30985797146e-05 4.72205051913e-05 0.00249381031564)
(-1.68181487822e-05 4.36950301353e-05 0.00243455610947)
(-1.99675599332e-05 3.93488405319e-05 0.00236088244081)
(-2.2480898671e-05 3.43902298013e-05 0.00227481258892)
(-2.50955468629e-05 2.88550673347e-05 0.00217925185253)
(4.01951720891e-05 4.51258922737e-05 0.00289183134514)
(3.61804559496e-05 5.3073258138e-05 0.00300789016436)
(3.21534804105e-05 6.02130935637e-05 0.00311135106884)
(2.71143012897e-05 6.64741110595e-05 0.00319910399222)
(2.11616876497e-05 7.15602120473e-05 0.00326911420371)
(1.45225982328e-05 7.52986096094e-05 0.0033199852957)
(7.3974960057e-06 7.75868363285e-05 0.00335085194799)
(2.79942570026e-08 7.83581303504e-05 0.003361222677)
(-7.34295898089e-06 7.75879193164e-05 0.0033508586915)
(-1.44726966633e-05 7.52999041718e-05 0.00331999863167)
(-2.11202678184e-05 7.15600514351e-05 0.00326913358151)
(-2.70854502546e-05 6.64704444021e-05 0.00319912791918)
(-3.21402278646e-05 6.02037768855e-05 0.00311137662778)
(-3.61826240676e-05 5.30573019822e-05 0.00300790913374)
(-4.0207833353e-05 4.51041731558e-05 0.00289182093363)
(5.46056769101e-05 6.02673959797e-05 0.00350528002066)
(4.90468339275e-05 7.01533512274e-05 0.00363102681436)
(4.34630767917e-05 7.88918870988e-05 0.00374161460198)
(3.65489254389e-05 8.65341225051e-05 0.00383431201601)
(2.84688140142e-05 9.27213226016e-05 0.00390751168814)
(1.95063952484e-05 9.72554551699e-05 0.00396026975585)
(9.92324859043e-06 0.000100025269194 0.00399209731567)
(2.71579540167e-08 0.000100957412151 0.0040027534589)
(-9.87032410263e-06 0.000100025612493 0.00399210383486)
(-1.94578865364e-05 9.72553713397e-05 0.00396028279631)
(-2.84283317996e-05 9.27193830241e-05 0.0039075311026)
(-3.65203644814e-05 8.65285709419e-05 0.00383433708381)
(-4.34495164839e-05 7.88809296483e-05 0.00374164349645)
(-4.90484403349e-05 7.01361238107e-05 0.00363105219041)
(-5.46181796467e-05 6.02441310186e-05 0.00350527768275)
(6.72566808873e-05 7.32691460316e-05 0.00401835617637)
(6.01210578184e-05 8.45145910326e-05 0.00414424052872)
(5.30578959949e-05 9.41796254217e-05 0.00425317228618)
(4.44357861949e-05 0.00010259596369 0.00434321642513)
(3.45041483643e-05 0.000109370414567 0.00441346702817)
(2.35854170225e-05 0.000114311109622 0.00446361575462)
(1.19783743322e-05 0.000117319603998 0.00449366488703)
(2.48575796084e-08 0.000118329993139 0.00450368662304)
(-1.19299111161e-05 0.000117319145616 0.00449367076156)
(-2.35409089429e-05 0.000114309580004 0.0044636277368)
(-3.44667997512e-05 0.000109366696932 0.00441348554128)
(-4.44091298318e-05 0.00010258869102 0.00434324181707)
(-5.30448961416e-05 9.41674105531e-05 0.00425320429963)
(-6.01222299436e-05 8.44967171432e-05 0.00414427325353)
(-6.72686645318e-05 7.32452661786e-05 0.00401836450384)
(7.75674179035e-05 8.36185716007e-05 0.00443571792644)
(6.89214579647e-05 9.56312307938e-05 0.00455435509047)
(6.0532614395e-05 0.000105578915262 0.0046551269299)
(5.04570473948e-05 0.000114195202466 0.00473711289795)
(3.90345425752e-05 0.00012107844289 0.00480020250524)
(2.66079204806e-05 0.000126068539055 0.0048447468946)
(1.34886025803e-05 0.000129095027081 0.00487123182312)
(2.18167135484e-08 0.000130109075483 0.00488002705974)
(-1.34460456839e-05 0.000129093789612 0.00487123698385)
(-2.6568752268e-05 0.000126065622823 0.00484475772184)
(-3.90014966271e-05 0.000121073057417 0.00480022007027)
(-5.04332107516e-05 0.000114186385705 0.0047371387245)
(-6.05207574615e-05 0.000105565709212 0.00465516248192)
(-6.89223607856e-05 9.56130818273e-05 0.00455439589193)
(-7.75786986918e-05 8.35946712319e-05 0.00443573798331)
(8.53009617917e-05 9.11566215158e-05 0.00476628306987)
(7.52966356978e-05 0.000103389392844 0.00487271478438)
(6.57896526596e-05 0.000113072218629 0.0049612540181)
(5.45647302016e-05 0.000121406308757 0.00503202207055)
(4.20442291256e-05 0.000128004524226 0.00508564525858)
(2.85745517764e-05 0.000132755374355 0.00512303836058)
(1.44580567045e-05 0.000135623884336 0.00514507688634)
(1.85058821268e-08 0.00013658259222 0.00515236081757)
(-1.44219428484e-05 0.000135621954943 0.00514508149702)
(-2.85412546622e-05 0.000132751234489 0.00512304836599)
(-4.20160143033e-05 0.000127997682427 0.00508566237165)
(-5.45442201261e-05 0.000121396184918 0.00503204895156)
(-6.57793581716e-05 0.00011305824838 0.0049612937395)
(-7.52975202932e-05 0.000103371213634 0.00487276391837)
(-8.53114964257e-05 9.11330302675e-05 0.00476631463258)
(9.04700571553e-05 9.59714513286e-05 0.00502136057057)
(7.93216341283e-05 0.000107954046452 0.00511288357513)
(6.89352610785e-05 0.000116950177456 0.0051872844932)
(5.68833977044e-05 0.000124634449045 0.00524560157812)
(4.36526464016e-05 0.000130655022172 0.00528903665828)
(2.95787453552e-05 0.000134957361445 0.00531890404915)
(1.49379288938e-05 0.0001375427105 0.00533633260096)
(1.51798162931e-08 0.000138404573188 0.00534206231719)
(-1.49083030594e-05 0.00013754020286 0.0053363369166)
(-2.95514118674e-05 0.000134952199476 0.00531891371796)
(-4.36294384959e-05 0.000130646967446 0.00528905396749)
(-5.6866486233e-05 0.000124623245454 0.00524563018098)
(-6.89268490035e-05 0.000116935602828 0.00518732878695)
(-7.93227545596e-05 0.000107935916025 0.005112940562)
(-9.04799010435e-05 9.59482899928e-05 0.005021402211)
(9.32522690239e-05 9.83066449266e-05 0.00521308055673)
(8.12097983073e-05 0.000109655572362 0.00528884004643)
(7.01932567108e-05 0.000117668770595 0.00534889346197)
(5.76314012787e-05 0.000124446853028 0.00539496959638)
(4.40494521773e-05 0.000129693272949 0.00542863562456)
(2.97603959516e-05 0.000133411885928 0.00545142106479)
(1.5002400505e-05 0.000135635680381 0.00546456628352)
(1.19565000583e-08 0.000136375167704 0.00546886178616)
(-1.49790813709e-05 0.000135632728305 0.00546457051311)
(-2.97389190587e-05 0.000133405937676 0.00545143076001)
(-4.40312720221e-05 0.00012968427745 0.00542865352648)
(-5.76182637924e-05 0.000124434806166 0.00539500013514)
(-7.01870180722e-05 0.000117653717748 0.00534894199293)
(-8.12114324818e-05 0.000109637474131 0.00528890329439)
(-9.32615243e-05 9.82838763221e-05 0.00521312949992)
(9.39192756141e-05 9.8488542429e-05 0.00535326411218)
(8.12442033401e-05 0.000108901941351 0.00541376822177)
(6.98410727831e-05 0.000115742057794 0.0054604399173)
(5.70651477951e-05 0.000121451138022 0.00549542224681)
(4.34500500229e-05 0.000125807494175 0.00552043638015)
(2.92748358536e-05 0.000128868890566 0.00553705985969)
(1.47327066361e-05 0.00013069133263 0.00554652335171)
(8.86032774656e-09 0.000131295997685 0.00554959408457)
(-1.47154633505e-05 0.000130688074603 0.00554652752565)
(-2.92590622974e-05 0.000128862398563 0.00553706955021)
(-4.34368726403e-05 0.000125797838206 0.00552045459957)
(-5.70559206659e-05 0.000121438479782 0.00549545393611)
(-6.98372864362e-05 0.000115726623889 0.00546049102567)
(-8.12466597927e-05 0.000108883800664 0.00541383453616)
(-9.39281124397e-05 9.84659803223e-05 0.00535331582188)
(9.27773260477e-05 9.68687231516e-05 0.00545272128146)
(7.97243123968e-05 0.000106109734161 0.00549938298937)
(6.81660120108e-05 0.000111662489624 0.00553433727748)
(5.54448794857e-05 0.000116212013468 0.00555986272597)
(4.20698171356e-05 0.000119627010084 0.00557766193358)
(2.8275333928e-05 0.000122007354495 0.00558923605058)
(1.4208265285e-05 0.000123419288731 0.00559571966686)
(5.88110677492e-09 0.000123886917822 0.0055978055783)
(-1.41968851984e-05 0.000123415886721 0.00559572350467)
(-2.82651181271e-05 0.00012200059712 0.00558924502858)
(-4.20616176023e-05 0.000119617016711 0.00557767906311)
(-5.54396927123e-05 0.000116199017211 0.00555989313251)
(-6.81649527097e-05 0.000111646810974 0.0055343872456)
(-7.97279456219e-05 0.000106091507833 0.00549944698174)
(-9.27859987552e-05 9.68462797891e-05 0.00545276888687)
(9.01108859915e-05 9.37654568128e-05 0.00552090904929)
(7.69297370205e-05 0.00010164159068 0.00555568069599)
(6.54484603136e-05 0.000105846210448 0.00558089190914)
(5.3025797499e-05 0.000109203145099 0.0055987280548)
(4.01175365927e-05 0.000111681366013 0.00561077716593)
(2.69082712104e-05 0.0001133989531 0.00561839622079)
(1.35040821499e-05 0.000114416051643 0.00562257549739)
(3.01675094219e-09 0.000114752607148 0.00562390493037)
(-1.34983578079e-05 0.000114412680282 0.00562257830416)
(-2.69034669043e-05 0.000113392241183 0.00561840287244)
(-4.01142657352e-05 0.000111671429394 0.00561079025422)
(-5.30247323597e-05 0.000109190180706 0.00559875242316)
(-6.54503400278e-05 0.000105830511876 0.00558093408549)
(-7.69348334172e-05 0.000101623318294 0.00555573424355)
(-9.01196520956e-05 9.3743161727e-05 0.005520943543)
(8.61803332238e-05 8.94514770555e-05 0.00556586786691)
(7.31549634724e-05 9.59207705159e-05 0.00559101162729)
(6.20051852341e-05 9.86951642989e-05 0.00560844798053)
(5.00814869952e-05 0.000100860508432 0.00562021331058)
(3.78066592776e-05 0.000102439704379 0.00562779826655)
(2.53175907186e-05 0.00010353299655 0.00563239878086)
(1.26922023344e-05 0.000104180655902 0.00563484259288)
(2.90017506201e-10 0.000104394756377 0.00563560610647)
(-1.26918683877e-05 0.000104177493919 0.00563484327009)
(-2.53179532464e-05 0.000103526668944 0.00563240060554)
(-3.78081428801e-05 0.000102430250721 0.00562780278536)
(-5.00845139386e-05 0.000100848007915 0.00562022421973)
(-6.20101303929e-05 9.86797972678e-05 0.00560847177434)
(-7.31617313877e-05 9.59025938467e-05 0.00559104304889)
(-8.61894326213e-05 8.94292094671e-05 0.00556587911897)
(8.10673637874e-05 8.55149408227e-05 0.00559444049423)
(6.87364288908e-05 8.95644983276e-05 0.00561244576815)
(5.81411901639e-05 9.07058571503e-05 0.00562366170853)
(4.68500023294e-05 9.16452040002e-05 0.0056306104543)
(3.53130152552e-05 9.23006185879e-05 0.00563471860447)
(2.36173624583e-05 9.274970604e-05 0.005637010157)
(1.18286694169e-05 9.3013286243e-05 0.00563814397968)
(-2.23492802366e-09 9.30995270417e-05 0.00563848293462)
(-1.18333199469e-05 9.30105348945e-05 0.00563814144066)
(-2.36224998223e-05 9.27441802788e-05 0.00563700470931)
(-3.5318876764e-05 9.22922452637e-05 0.00563471007553)
(-4.68567797605e-05 9.16339340317e-05 0.00563059996531)
(-5.81490491796e-05 9.06916162271e-05 0.005623654624)
(-6.8744823844e-05 8.95470972592e-05 0.00561243491884)
(-8.10771800816e-05 8.5493450082e-05 0.00559442764183)
(-9.12992256458e-08 -3.46279894336e-07 0.000337741905762)
(1.50671597879e-07 -5.6959536719e-07 0.000354852521887)
(3.62347372873e-07 -6.92780043568e-07 0.000370477505616)
(4.65145594695e-07 -7.16175254458e-07 0.000384059804338)
(4.67122145892e-07 -6.82527983986e-07 0.000395113878367)
(3.71502109207e-07 -6.27432664761e-07 0.000403270458536)
(2.0500703196e-07 -5.81504232834e-07 0.000408275689756)
(-7.37956659112e-11 -5.6405250563e-07 0.000409975429664)
(-2.0507983256e-07 -5.81948211409e-07 0.000408277394536)
(-3.7137881093e-07 -6.282900475e-07 0.000403273759999)
(-4.6673788913e-07 -6.83709911899e-07 0.000395118480271)
(-4.64437386272e-07 -7.1752922431e-07 0.000384065110449)
(-3.61503041133e-07 -6.94285463401e-07 0.000370482450368)
(-1.50066792138e-07 -5.71062055159e-07 0.000354854853277)
(9.15004121686e-08 -3.47520678668e-07 0.000337736619173)
(1.20777476166e-06 7.8145199414e-07 0.00100946226481)
(1.68080750892e-06 6.14362214543e-07 0.00105960713713)
(2.06198618985e-06 6.88952791854e-07 0.0011054907317)
(2.13964176967e-06 9.72771550313e-07 0.00114537338894)
(1.92936920141e-06 1.34037441551e-06 0.00117783356461)
(1.4501975737e-06 1.68937398732e-06 0.00120178907242)
(7.75953771707e-07 1.93441902145e-06 0.00121648664805)
(-2.95857513726e-09 2.0221708886e-06 0.00122146484958)
(-7.81648336097e-07 1.93339823634e-06 0.0012164921244)
(-1.45524935235e-06 1.68738992394e-06 0.00120179964806)
(-1.93339260453e-06 1.3376000632e-06 0.00117784825158)
(-2.14223444677e-06 9.69659221418e-07 0.00114539025887)
(-2.06311413308e-06 6.85988917892e-07 0.00110550648219)
(-1.68077595696e-06 6.12347684875e-07 0.00105961509413)
(-1.20696638153e-06 7.80631316064e-07 0.00100945008683)
(4.13025019974e-06 3.8516407391e-06 0.00166724573875)
(4.62173093461e-06 4.22405068283e-06 0.00174826378467)
(4.93396132498e-06 4.92923504076e-06 0.00182228158952)
(4.74585743718e-06 5.87243663731e-06 0.00188648422353)
(4.08273956051e-06 6.84115946132e-06 0.00193864376154)
(2.98641954639e-06 7.66848951719e-06 0.00197708287427)
(1.57725025433e-06 8.2201732491e-06 0.00200063826389)
(1.70447293302e-09 8.41352207792e-06 0.00200860122814)
(-1.57387041442e-06 8.21884319862e-06 0.00200064802402)
(-2.98315711356e-06 7.6657545989e-06 0.00197710176574)
(-4.07972609889e-06 6.83703476847e-06 0.00193867017079)
(-4.74317521184e-06 5.86719253679e-06 0.00188651500184)
(-4.93192085812e-06 4.92320316259e-06 0.00182231139774)
(-4.62070359954e-06 4.21808706266e-06 0.00174828229092)
(-4.13029352541e-06 3.84626915185e-06 0.00166723432355)
(8.73464672049e-06 8.84303093881e-06 0.00230123706357)
(9.06141732549e-06 1.01547767248e-05 0.00240908400318)
(9.08092012197e-06 1.18380683954e-05 0.00250711625708)
(8.38346135328e-06 1.37209010846e-05 0.00259174831997)
(7.01286690627e-06 1.54990593719e-05 0.00266022152393)
(5.04100510058e-06 1.69465709881e-05 0.00271051558874)
(2.63710610934e-06 1.78867896451e-05 0.00274125864565)
(5.02584458814e-09 1.82124724369e-05 0.00275162908289)
(-2.62731986009e-06 1.78854212369e-05 0.00274127163903)
(-5.03202349811e-06 1.69436613496e-05 0.00271054082889)
(-7.00523859592e-06 1.54944593567e-05 0.00266025711301)
(-8.37763067614e-06 1.37146781596e-05 0.00259179050896)
(-9.07736191644e-06 1.18304214225e-05 0.00250715861378)
(-9.06030773275e-06 1.01464501926e-05 0.00240911403603)
(-8.73563290677e-06 8.83454987087e-06 0.00230123162954)
(1.4516401748e-05 1.5127548216e-05 0.00289897154402)
(1.45184253014e-05 1.75615491267e-05 0.00302757784544)
(1.40633147298e-05 2.03431088525e-05 0.0031434878982)
(1.26697614609e-05 2.32372599972e-05 0.00324281303409)
(1.04130357325e-05 2.58571752776e-05 0.00332265538113)
(7.39943433711e-06 2.79335463919e-05 0.00338099556168)
(3.84519943775e-06 2.92612636527e-05 0.00341652231476)
(7.07074304539e-09 2.97177689014e-05 0.00342847598223)
(-3.83149347077e-06 2.92598678279e-05 0.00341653715371)
(-7.38702227489e-06 2.79305378865e-05 0.00338102456379)
(-1.04027442169e-05 2.58523035026e-05 0.00332269680686)
(-1.26622578774e-05 2.32304474629e-05 0.00324286330918)
(-1.4059136812e-05 2.03344467518e-05 0.00314354060132)
(-1.45175578413e-05 1.75516441709e-05 0.00302761963242)
(-1.4518176236e-05 1.51167199987e-05 0.00289897580369)
(2.08987526513e-05 2.20306638543e-05 0.00344823792039)
(2.04425722786e-05 2.55736467435e-05 0.00359012408594)
(1.93778324824e-05 2.93733488982e-05 0.00371651923277)
(1.71686220134e-05 3.31702090822e-05 0.00382376610354)
(1.39347683648e-05 3.65150807715e-05 0.00390924397741)