/*--------------------------------*- C++ -*----------------------------------*\
  =========                 |
  \\      /  F ield         | OpenFOAM: The Open Source CFD Toolbox
   \\    /   O peration     | Website:  https://openfoam.org
    \\  /    A nd           | Version:  7
     \\/     M anipulation  |
\*---------------------------------------------------------------------------*/
FoamFile
{
    version     2.0;
    format      ascii;
    class       volVectorField;
    location    "0.78";
    object      U;
}
// * * * * * * * * * * * * * * * * * * * * * * * * * * * * * * * * * * * * * //

dimensions      [0 1 -1 0 0 0 0];

internalField   nonuniform List<vector> 
22500
(
(-1.65898429381e-05 -1.88210871073e-05 1.42614393141e-05)
(-1.52570071122e-05 -2.15312812557e-05 1.56169497836e-05)
(-1.3368632228e-05 -2.41174615005e-05 1.72614027862e-05)
(-1.11915707147e-05 -2.63306452166e-05 1.88910904125e-05)
(-8.67580254928e-06 -2.81407253906e-05 2.03258341014e-05)
(-5.93034076419e-06 -2.94757601634e-05 2.14366984467e-05)
(-3.02059339735e-06 -3.02952421876e-05 2.2132460913e-05)
(-2.61586768898e-08 -3.05738473425e-05 2.23611086863e-05)
(2.96866390408e-06 -3.03015160439e-05 2.21132276613e-05)
(5.87951203115e-06 -2.94881800253e-05 2.13982009984e-05)
(8.62654855738e-06 -2.81590402616e-05 2.02681229675e-05)
(1.11441515961e-05 -2.6354354153e-05 1.88142459021e-05)
(1.33236214995e-05 -2.41459918962e-05 1.71652283407e-05)
(1.52141425297e-05 -2.15640595234e-05 1.55005523324e-05)
(1.65535598923e-05 -1.88544974255e-05 1.4124457735e-05)
(-4.98016091993e-05 -5.61959366189e-05 -6.20996332977e-05)
(-4.576982867e-05 -6.41378946016e-05 -6.86669131112e-05)
(-4.01927788519e-05 -7.17314395189e-05 -7.39168798888e-05)
(-3.36508790082e-05 -7.8261205204e-05 -7.81442119371e-05)
(-2.61158507158e-05 -8.36012680274e-05 -8.14415812927e-05)
(-1.78629230161e-05 -8.75437569527e-05 -8.38259280767e-05)
(-9.10462392816e-06 -8.99661464836e-05 -8.52873751658e-05)
(-8.5479682206e-08 -9.07894151215e-05 -8.58041005202e-05)
(8.93531457501e-06 -8.99841658468e-05 -8.53431615567e-05)
(1.76984353971e-05 -8.75792578146e-05 -8.39378276035e-05)
(2.59589367416e-05 -8.36531374826e-05 -8.16098672461e-05)
(3.35037415774e-05 -7.83275388691e-05 -7.83693000478e-05)
(4.005791122e-05 -7.18098034169e-05 -7.42001512679e-05)
(4.56480826474e-05 -6.42259100379e-05 -6.90118781277e-05)
(4.97022442016e-05 -5.62851195493e-05 -6.25082068411e-05)
(-8.14062146055e-05 -9.13143653224e-05 -0.000234593199065)
(-7.46351816596e-05 -0.000103978464723 -0.000257553792143)
(-6.55527047993e-05 -0.000116009367535 -0.000277678179393)
(-5.48455936825e-05 -0.000126366255424 -0.000294801476141)
(-4.25611066418e-05 -0.000134824531059 -0.00030862080597)
(-2.91055942678e-05 -0.000141068896937 -0.000318804968597)
(-1.48292376737e-05 -0.000144905848611 -0.000325072594969)
(-1.29149391532e-07 -0.000146209727564 -0.000327225867037)
(1.45733526643e-05 -0.000144934250259 -0.000325160090049)
(2.88567793136e-05 -0.000141124746726 -0.000318980863103)
(4.23235180561e-05 -0.000134905789874 -0.00030888611161)
(5.46226265394e-05 -0.000126469659561 -0.000295157650306)
(6.53479565291e-05 -0.000116130522833 -0.000278128304623)
(7.44508075135e-05 -0.000104113199383 -0.000258104775391)
(8.12545610796e-05 -9.14513220991e-05 -0.000235250410257)
(-0.00011040472442 -0.000123258686806 -0.000482794241847)
(-0.000100977562307 -0.000139875652167 -0.0005265092637)
(-8.86236517372e-05 -0.000155533341729 -0.000565266777689)
(-7.40589837784e-05 -0.000169000819816 -0.000598350472223)
(-5.74339816715e-05 -0.000179977766186 -0.000625035865513)
(-3.9254520987e-05 -0.000188074983748 -0.000644657618295)
(-1.99881438665e-05 -0.000193047985834 -0.000656692156193)
(-1.60440504785e-07 -0.000194736772162 -0.00066079344397)
(1.96701024522e-05 -0.000193082973228 -0.000656802847103)
(3.89448473978e-05 -0.00018814377205 -0.000644880848912)
(5.71378007182e-05 -0.000180077761294 -0.000625374012039)
(7.37806944483e-05 -0.000169127953524 -0.000598806881002)
(8.83677827093e-05 -0.000155682005705 -0.000565847127183)
(0.000100747536798 -0.000140040677612 -0.000527224929286)
(0.000110213863102 -0.000123427721527 -0.000483656652333)
(-0.000136043946937 -0.000151337546311 -0.000779965087173)
(-0.000124131793103 -0.000170987736813 -0.000844385314531)
(-0.00010879113153 -0.000189336901021 -0.000901181333604)
(-9.0765799408e-05 -0.0002050888411 -0.00094933032252)
(-7.03157381938e-05 -0.000217897220678 -0.000987896387936)
(-4.80181216753e-05 -0.000227334979382 -0.00101608029253)
(-2.44312629164e-05 -0.000233127163587 -0.00103328013063)
(-1.78287404248e-07 -0.000235092545458 -0.00103911133148)
(2.40776116248e-05 -0.000233165484213 -0.00103340583644)
(4.76731373749e-05 -0.000227410364079 -0.0010163346182)
(6.99849069973e-05 -0.000218006867777 -0.000988283321802)
(9.04540396621e-05 -0.000205228390947 -0.000949855426931)
(0.000108503481189 -0.000189500289633 -0.00090185317847)
(0.000123872568597 -0.000171169457114 -0.000845220100333)
(0.000135826222949 -0.000151525717187 -0.000780981816957)
(-0.000157872995005 -0.000175150746822 -0.00109952694591)
(-0.00014370414587 -0.000196862437814 -0.00118131629577)
(-0.000125707986998 -0.000216955093873 -0.00125255285819)
(-0.00010468297575 -0.000234159121619 -0.00131231691831)
(-8.09896331979e-05 -0.000248113447983 -0.00135975403836)
(-5.52505497355e-05 -0.000258384418371 -0.00139416999995)
(-2.80865002742e-05 -0.00026468360285 -0.00141506120621)
(-1.85910414481e-07 -0.000266819417784 -0.00142211511906)
(2.7717476413e-05 -0.000264722751071 -0.00141519565784)
(5.48898649549e-05 -0.000258461494331 -0.0013944427389)
(8.06427094322e-05 -0.000248225692825 -0.00136017048165)
(0.000104354838025 -0.000234302248539 -0.00131288457679)
(0.000125403788671 -0.000217123131536 -0.00125328279375)
(0.000143428707333 -0.000197050046491 -0.00118222913021)
(0.000157638427607 -0.000175347509833 -0.00110064953021)
(-0.000175725677276 -0.000194566937245 -0.00141960139727)
(-0.000159561700103 -0.0002173931171 -0.0015138192465)
(-0.000139274156943 -0.000238344033271 -0.00159468863917)
(-0.000115744917247 -0.000256228779846 -0.00166177486085)
(-8.94159092453e-05 -0.000270701087778 -0.00171453591404)
(-6.09310990755e-05 -0.000281344036054 -0.00175254436256)
(-3.09469034235e-05 -0.000287867946035 -0.00177550132876)
(-1.8743529738e-07 -0.000290078676502 -0.00178322764061)
(3.05746330026e-05 -0.000287906288248 -0.00177564071068)
(6.05666185435e-05 -0.000281419579717 -0.00175282758352)
(8.90643806653e-05 -0.000270811240242 -0.00171496935043)
(0.000115411233747 -0.000256369514887 -0.00166236728601)
(0.000138963296408 -0.000238509779202 -0.00159545270406)
(0.000159278681686 -0.000217578992467 -0.00151477905817)
(0.000175481342395 -0.000194764528521 -0.00142079088905)
(-0.000189656012589 -0.000209660291986 -0.0017249431033)
(-0.000171772841548 -0.000232724328537 -0.0018265185101)
(-0.000149574077929 -0.000253744851665 -0.0019124274962)
(-0.000124043647029 -0.000271629327642 -0.00198295536276)
(-9.56797277073e-05 -0.000286071632739 -0.00203797188597)
(-6.51254670321e-05 -0.000296686840206 -0.00207736350862)
(-3.30494149823e-05 -0.000303191949459 -0.00210105595622)
(-1.86346948329e-07 -0.000305395511724 -0.00210901024181)
(3.26791420217e-05 -0.000303228581175 -0.00210119859454)
(6.47624720952e-05 -0.000296759054197 -0.00207765354109)
(9.53288871764e-05 -0.000286177046306 -0.00203841610505)
(0.000123709637273 -0.000271764239009 -0.00198356298614)
(0.000149261569864 -0.000253904211752 -0.0019132116917)
(0.000171486835674 -0.000232903798486 -0.0018275057835)
(0.000189406064026 -0.000209853649867 -0.00172617300946)
(-0.000199858940355 -0.000220635603506 -0.00200672594651)
(-0.000180533219176 -0.000243149615605 -0.00211136306142)
(-0.00015680525935 -0.000263550711293 -0.00219869414924)
(-0.000129764339417 -0.000280847254625 -0.00226978305754)
(-9.99374284618e-05 -0.000294792318355 -0.00232488160845)
(-6.79469593038e-05 -0.000305040870094 -0.00236414546397)
(-3.44543449344e-05 -0.000311321236378 -0.00238768526477)
(-1.85023152354e-07 -0.000313448367941 -0.00239557494449)
(3.4086592353e-05 -0.000311355743134 -0.0023878309453)
(6.75861157082e-05 -0.000305108926876 -0.00236444162832)
(9.95881431141e-05 -0.000294891759548 -0.00232533501635)
(0.000129431085002 -0.000280974716167 -0.0022704026583)
(0.000156492382948 -0.000263701685664 -0.00219949267287)
(0.000180245589833 -0.000243320341733 -0.0021123685234)
(0.000199604998224 -0.000220821843457 -0.00200798180492)
(-0.000206602183233 -0.000227766227579 -0.00226114816208)
(-0.000186102887366 -0.00024903089912 -0.00236566953337)
(-0.000161220604728 -0.000268209813611 -0.00245197724977)
(-0.00013313540697 -0.000284414809255 -0.00252181953387)
(-0.000102375967615 -0.000297467714983 -0.00257571182561)
(-6.95277271095e-05 -0.000307064109002 -0.00261398922962)
(-3.52304748618e-05 -0.000312946129941 -0.00263688620573)
(-1.84814212345e-07 -0.000314938427449 -0.00264455262677)
(3.4863064175e-05 -0.000312978365018 -0.00263703549785)
(6.91670030683e-05 -0.000307127718616 -0.00261429252772)
(0.000102026429699 -0.000297560755652 -0.00257617559119)
(0.000132801379738 -0.000284534262793 -0.00252245196438)
(0.000160906163042 -0.00026835170508 -0.00245278994229)
(0.000185812762973 -0.000249192039638 -0.00236669151654)
(0.000206343947303 -0.00022794401061 -0.00226242532915)
(-0.000210178535744 -0.000231354027081 -0.00248771343039)
(-0.000188763211106 -0.000250744330259 -0.00259003108656)
(-0.000163091102315 -0.000268167108857 -0.00267391666626)
(-0.000134397161279 -0.000282850828908 -0.00274158581565)
(-0.00010318755584 -0.000294679759904 -0.00279366018558)
(-7.00008671549e-05 -0.000303383352693 -0.00283056559986)
(-3.54459192274e-05 -0.000308719672833 -0.00285260860497)
(-1.86312123557e-07 -0.000310527358744 -0.002859985319)
(3.50754717432e-05 -0.000308749594444 -0.00285276234125)
(6.96369851467e-05 -0.000303442437654 -0.00283087768452)
(0.000102834649294 -0.000294766303637 -0.00279413673307)
(0.00013405946171 -0.000282962179261 -0.00274223405742)
(0.000162772491491 -0.000268299824752 -0.00267474661163)
(0.000188468303543 -0.000250895816174 -0.0025910726283)
(0.000209914348337 -0.000231522901143 -0.0024890142394)
(-0.000210870300373 -0.000231696086016 -0.00268769208079)
(-0.000188792589046 -0.000248639921356 -0.00278663273798)
(-0.000162688369672 -0.000263835890894 -0.00286751905854)
(-0.000133785984661 -0.000276641078699 -0.00293270341198)
(-0.000102555523251 -0.000286971234775 -0.00298277495421)
(-6.9490109088e-05 -0.000294578195944 -0.00301820157139)
(-3.51629064326e-05 -0.000299241653801 -0.00303933710587)
(-1.8962435609e-07 -0.000300821403118 -0.00304640860182)
(3.47858107586e-05 -0.000299269219158 -0.00303949601307)
(6.91195039834e-05 -0.00029463268067 -0.00301852400796)
(0.000102195759103 -0.00028705119991 -0.00298326687606)
(0.000133441236646 -0.000276744267277 -0.00293337117685)
(0.00016236239932 -0.000263959424893 -0.00286837075936)
(0.000188489948947 -0.000248781815009 -0.00278769883206)
(0.000210597703401 -0.00023185574852 -0.0026890224875)
(-0.000208929461344 -0.000229011637075 -0.00286293596409)
(-0.000186479956417 -0.00024300976894 -0.00295814354939)
(-0.000160290466579 -0.000255600786635 -0.0030360793315)
(-0.000131527862468 -0.000266253383954 -0.00309882422596)
(-0.000100644797544 -0.000274861674892 -0.00314691214085)
(-6.81026800657e-05 -0.000281196309896 -0.00318087261222)
(-3.44343660528e-05 -0.000285074181996 -0.00320111063319)
(-1.94573947381e-07 -0.000286387167558 -0.00320788111971)
(3.40473493615e-05 -0.000285099299212 -0.00320127503673)
(6.77220795471e-05 -0.000281246029027 -0.00318120628242)
(0.000100274910922 -0.000274934813898 -0.00314742133371)
(0.000131172827228 -0.000266348145471 -0.00309951497977)
(0.000159953982573 -0.000255714902329 -0.00303695765631)
(0.000186166587865 -0.000243141950193 -0.00295923888083)
(0.000208645924122 -0.000229161504994 -0.00286430019924)
(-0.000204718300879 -0.000223469794806 -0.00301499565937)
(-0.000182233333557 -0.000234158356107 -0.00310721934409)
(-0.000156196334593 -0.000243864301929 -0.00318267295368)
(-0.000127824071105 -0.000252165370048 -0.00324311628538)
(-9.75898580955e-05 -0.000258855686932 -0.00328926516169)
(-6.5923893522e-05 -0.000263755231603 -0.00332178291052)
(-3.33024378363e-05 -0.000266742798022 -0.00334113772826)
(-2.00838848908e-07 -0.00026775318642 -0.00334761214045)
(3.29028641587e-05 -0.000266765339037 -0.00334130722442)
(6.55306770655e-05 -0.000263799906488 -0.00332212733066)
(9.7207233064e-05 -0.000258921590986 -0.00328979178111)
(0.000127456126827 -0.00025225117136 -0.00324383217354)
(0.00015584672828 -0.000243968444641 -0.00318358280674)
(0.000181906708062 -0.000234280356753 -0.00310834839528)
(0.000204420912819 -0.000223609746087 -0.00301639110248)
(-0.000199112726641 -0.000216297736103 -0.0031440374292)
(-0.000176712194329 -0.000222322793812 -0.00323636376976)
(-0.000150742582749 -0.000229067305178 -0.00330961118589)
(-0.000122936293866 -0.000234772957026 -0.00336780190151)
(-9.35979229486e-05 -0.00023931124333 -0.0034120677484)
(-6.31040869031e-05 -0.000242597690225 -0.00344320377343)
(-3.18467577286e-05 -0.000244588134295 -0.00346171792785)
(-2.08025111257e-07 -0.000245260496014 -0.00346791038734)
(3.14328322716e-05 -0.000244607793733 -0.00346189080187)
(6.26965491762e-05 -0.000242636726711 -0.00344355579375)
(9.32010065744e-05 -0.00023936902505 -0.00341260777552)
(0.000122554076142 -0.000234848598416 -0.0033685400058)
(0.000150378677329 -0.000229159856577 -0.00331055325887)
(0.00017637201722 -0.000222432934098 -0.00323754100354)
(0.000198799141276 -0.000216425394775 -0.00314543374582)
(4.74733756041e-07 7.15529558092e-07 -9.0764206782e-05)
(3.03611263376e-07 9.59424987124e-07 -9.50312205858e-05)
(1.61835973601e-07 1.12820734861e-06 -9.87416269353e-05)
(6.97745278829e-08 1.23536378666e-06 -0.000101864725767)
(9.31885986382e-09 1.30221944272e-06 -0.000104357076016)
(-1.58573066338e-08 1.33941713418e-06 -0.000106173037764)
(-1.566416417e-08 1.35738536597e-06 -0.000107279473996)
(-1.52361858881e-09 1.36293110423e-06 -0.000107654788038)
(1.27865062698e-08 1.3583150559e-06 -0.000107280821487)
(1.36630433376e-08 1.34153713783e-06 -0.00010617575066)
(-9.72116057766e-09 1.30610296308e-06 -0.000104361270029)
(-6.68809161675e-08 1.24165554185e-06 -0.000101870768591)
(-1.54572228935e-07 1.1377173458e-06 -9.87503111313e-05)
(-2.91954910427e-07 9.72228829655e-07 -9.5044443528e-05)
(-4.61733094166e-07 7.29667577477e-07 -9.07868293408e-05)
(3.74738170259e-06 4.62276601919e-06 -0.000274593214739)
(3.23398849588e-06 5.71184397753e-06 -0.000287441407855)
(2.6709201322e-06 6.63322914652e-06 -0.000298640236247)
(2.13424547578e-06 7.36714051883e-06 -0.000308071165905)
(1.59003830712e-06 7.93294553314e-06 -0.000315597658826)
(1.05581329066e-06 8.33119341626e-06 -0.000321083108077)
(5.28937724172e-07 8.56813088589e-06 -0.000324424699634)
(6.95938413651e-09 8.64776390527e-06 -0.00032555463018)
(-5.14909473356e-07 8.57113599519e-06 -0.000324429034947)
(-1.04119142787e-06 8.33761874131e-06 -0.000321091863575)
(-1.57342144041e-06 7.94371564577e-06 -0.00031561123602)
(-2.1134672165e-06 7.38321564439e-06 -0.000308090701356)
(-2.64450374161e-06 6.65578593249e-06 -0.000298668098778)
(-3.20228588032e-06 5.74054467216e-06 -0.000287483127435)
(-3.71587389049e-06 4.65358942975e-06 -0.000274660632686)
(8.61526137052e-06 1.02080687557e-05 -0.000459374725874)
(7.7109082766e-06 1.22816483806e-05 -0.000480824801173)
(6.60099629488e-06 1.41239594811e-05 -0.000499532734157)
(5.42318126538e-06 1.56505821858e-05 -0.000515290909272)
(4.14465333416e-06 1.68621063655e-05 -0.000527865203162)
(2.80381995871e-06 1.77365125837e-05 -0.000537029382517)
(1.41924321152e-06 1.82658419767e-05 -0.000542610355609)
(1.31255576417e-08 1.84450951798e-05 -0.000544494284371)
(-1.39285920819e-06 1.82721357395e-05 -0.000542618255889)
(-2.77667917846e-06 1.77496057897e-05 -0.000537045310223)
(-4.11499803584e-06 1.6882936522e-05 -0.000527889779802)
(-5.38819488255e-06 1.56799420202e-05 -0.000515325857353)
(-6.55852716642e-06 1.41623252618e-05 -0.000499581651892)
(-7.66137665098e-06 1.23278022512e-05 -0.000480895941125)
(-8.56567186628e-06 1.02567503018e-05 -0.000459485237322)
(1.40682854613e-05 1.63694758438e-05 -0.000644151299543)
(1.27146685559e-05 1.93229331302e-05 -0.000674051856231)
(1.09868671659e-05 2.19949781836e-05 -0.000700111612255)
(9.08143379246e-06 2.42295929273e-05 -0.000722053506342)
(6.97832254124e-06 2.60134323672e-05 -0.000739551528719)
(4.73864674152e-06 2.73069052472e-05 -0.000752298477598)
(2.40427737918e-06 2.80921955197e-05 -0.000760057381686)
(2.23026060013e-08 2.83582774386e-05 -0.000762673301733)
(-2.35958214184e-06 2.81010186003e-05 -0.000760069327954)
(-4.69334836278e-06 2.73249804287e-05 -0.000752322516636)
(-6.93085025319e-06 2.6041442437e-05 -0.000739588403823)
(-9.0291317171e-06 2.42679576604e-05 -0.000722105260725)
(-1.09275872691e-05 2.20434823859e-05 -0.000700182540279)
(-1.26489130088e-05 1.93797900746e-05 -0.000674151835611)
(-1.40033963845e-05 1.64291107276e-05 -0.00064430069888)
(1.92390755166e-05 2.21331332271e-05 -0.000827723495276)
(1.73893690629e-05 2.57015254199e-05 -0.000865736061641)
(1.50344640118e-05 2.89433419943e-05 -0.000898807348037)
(1.2416830691e-05 3.16462190442e-05 -0.000926626352432)
(9.53585973721e-06 3.37968400917e-05 -0.000948790155539)
(6.47156882521e-06 3.53519635749e-05 -0.000964924420112)
(3.28267006418e-06 3.62941531362e-05 -0.000974738864727)
(3.14072117264e-08 3.66130208905e-05 -0.000978044797936)
(-3.2197993147e-06 3.6304844424e-05 -0.000974755490385)
(-6.40826866504e-06 3.53736475491e-05 -0.00096495778751)
(-9.47087494355e-06 3.38298904891e-05 -0.000948840949188)
(-1.23479167725e-05 3.16906432234e-05 -0.000926696561907)
(-1.4959736724e-05 2.89983604437e-05 -0.000898901319199)
(-1.73093106102e-05 2.57649640375e-05 -0.000865864398722)
(-1.91607715094e-05 2.21995612338e-05 -0.000827908189369)
(2.3621228565e-05 2.6938609519e-05 -0.00100893219206)
(2.12572369428e-05 3.08126620232e-05 -0.00105457864441)
(1.83192939338e-05 3.43173219749e-05 -0.0010941967611)
(1.50742270172e-05 3.72129364024e-05 -0.00112748316208)
(1.15425947484e-05 3.94988331557e-05 -0.00115397591143)
(7.81572339311e-06 4.11413791587e-05 -0.00117324682722)
(3.95952408108e-06 4.213221113e-05 -0.00118496207403)
(3.94122771238e-08 4.24669431866e-05 -0.00118890569509)
(-3.88064419094e-06 4.21441101028e-05 -0.00118498413243)
(-7.73650584156e-06 4.11653508331e-05 -0.00117329097787)
(-1.14620944957e-05 3.95349770555e-05 -0.00115404255052)
(-1.49906556093e-05 3.7260911495e-05 -0.00112757379203)
(-1.82311108792e-05 3.43759398599e-05 -0.00109431512377)
(-2.11648773642e-05 3.08796037677e-05 -0.00105473551135)
(-2.35310522738e-05 2.7008798015e-05 -0.00100914990537)
(2.69711021077e-05 3.05271523046e-05 -0.00118682578739)
(2.41118488659e-05 3.44239943155e-05 -0.00123955372132)
(2.06767717495e-05 3.79118267886e-05 -0.00128519730931)
(1.69308800644e-05 4.07581313501e-05 -0.00132350276067)
(1.29136516696e-05 4.29813942754e-05 -0.00135396357417)
(8.7187105691e-06 4.45657841688e-05 -0.00137610669173)
(4.40996299251e-06 4.55162601433e-05 -0.00138956124753)
(4.60631417444e-08 4.58367719722e-05 -0.00139408843392)
(-4.31776291697e-06 4.55287870274e-05 -0.00138958968295)
(-8.6262004479e-06 4.45908927046e-05 -0.00137616339417)
(-1.28201395162e-05 4.30189649928e-05 -0.00135404838286)
(-1.68350084939e-05 4.08075766414e-05 -0.0013236162471)
(-2.05773231209e-05 3.79716997044e-05 -0.00128534198366)
(-2.40092009948e-05 3.44919892815e-05 -0.00123973988683)
(-2.68706832845e-05 3.05987571497e-05 -0.00118707609194)
(2.92318197983e-05 3.28529536546e-05 -0.00136069222139)
(2.59322333965e-05 3.65506841583e-05 -0.00141991766595)
(2.21127849198e-05 3.98048072348e-05 -0.00147104887204)
(1.80107726366e-05 4.2422495908e-05 -0.0015139210428)
(1.36799135469e-05 4.44416824881e-05 -0.00154799114688)
(9.20795997069e-06 4.58669982852e-05 -0.00157274570988)
(4.64990347118e-06 4.67167473226e-05 -0.00158778106933)
(5.13839037721e-08 4.70028312297e-05 -0.0015928389056)
(-4.5470329844e-06 4.67293913354e-05 -0.0015878169033)
(-9.10476139101e-06 4.58922501058e-05 -0.00157281687705)
(-1.35758889302e-05 4.4479274122e-05 -0.00154809668355)
(-1.79049398135e-05 4.24716779026e-05 -0.00151406018902)
(-2.2004231319e-05 3.98640226838e-05 -0.0014712223739)
(-2.58212335795e-05 3.66177299042e-05 -0.00142013500505)
(-2.91227988257e-05 3.29241031553e-05 -0.00136097620392)
(3.0469841635e-05 3.40100286734e-05 -0.00152998504274)
(2.68116383208e-05 3.73564662128e-05 -0.00159509975611)
(2.27315185485e-05 4.02311728626e-05 -0.00165117103119)
(1.84173520434e-05 4.25067380058e-05 -0.00169815736804)
(1.39315840588e-05 4.42369864426e-05 -0.00173547933721)
(9.35003153164e-06 4.54454572585e-05 -0.00176258480106)
(4.71468474226e-06 4.61611063836e-05 -0.0017790419206)
(5.55297237016e-08 4.64017504218e-05 -0.00178457720482)
(-4.60349308853e-06 4.61734429354e-05 -0.00177908620014)
(-9.23847543278e-06 4.54700354899e-05 -0.00176267242539)
(-1.38193097127e-05 4.4273450059e-05 -0.00173560834483)
(-1.83036809265e-05 4.25542656187e-05 -0.00169832534563)
(-2.26158014397e-05 4.02882124785e-05 -0.00165137655197)
(-2.66940645015e-05 3.742102559e-05 -0.0015953513504)
(-3.03537736539e-05 3.40792512732e-05 -0.00153030542118)
(3.08190620623e-05 3.41672487491e-05 -0.00169419740597)
(2.68982825649e-05 3.70723348897e-05 -0.00176455047422)
(2.26786570513e-05 3.94849959087e-05 -0.00182499516457)
(1.82833643873e-05 4.1359971805e-05 -0.00187563405151)
(1.37779226046e-05 4.27621841042e-05 -0.00191584056931)
(9.2225250645e-06 4.3730012625e-05 -0.00194502533931)
(4.6446254961e-06 4.4299017093e-05 -0.00196273648154)
(5.87009444691e-08 4.44902460333e-05 -0.00196869275092)
(-4.5270641172e-06 4.43106975906e-05 -0.00196279026281)
(-9.10455586583e-06 4.3753251291e-05 -0.00194513148178)
(-1.36592905477e-05 4.27965991218e-05 -0.00191599600038)
(-1.81636309356e-05 4.14047478718e-05 -0.00187583448571)
(-2.25573901846e-05 3.95386843604e-05 -0.00182523671082)
(-2.67756299967e-05 3.71332293971e-05 -0.00176484076748)
(-3.069735086e-05 3.42334219007e-05 -0.00169455872422)
(3.04385381637e-05 3.35191418048e-05 -0.00185272237602)
(2.63535859575e-05 3.59392501695e-05 -0.00192759908936)
(2.21042097157e-05 3.78549139717e-05 -0.00199183317791)
(1.77399871269e-05 3.93108257088e-05 -0.00204565340635)
(1.33237256767e-05 4.03784759626e-05 -0.00208836035465)
(8.8983182591e-06 4.11055115451e-05 -0.00211933314403)
(4.47712650161e-06 4.15295742738e-05 -0.00213811545627)
(6.11099940513e-08 4.16721663516e-05 -0.00214443067145)
(-4.35472558569e-06 4.15403278722e-05 -0.00213817980631)
(-8.77546638345e-06 4.1126891889e-05 -0.00211945995739)
(-1.32002315086e-05 4.04101281589e-05 -0.00208854545297)
(-1.7615582123e-05 3.93520111549e-05 -0.0020458905408)
(-2.19786239565e-05 3.79043767218e-05 -0.00199211578351)
(-2.62269697493e-05 3.59956134332e-05 -0.00192793408021)
(-3.03123020524e-05 3.35814905333e-05 -0.00185313131463)
(2.94837487017e-05 3.2254170013e-05 -0.00200470644318)
(2.53271701271e-05 3.41735417047e-05 -0.00208334468721)
(2.11432345733e-05 3.55886442416e-05 -0.00215081095587)
(1.69025917839e-05 3.66338653743e-05 -0.00220735079468)
(1.26593785219e-05 3.73823518727e-05 -0.00225215811642)
(8.43929464154e-06 3.78840410224e-05 -0.00228460372707)
(4.24363057263e-06 3.81739670453e-05 -0.00230425575785)
(6.29450943898e-08 3.82717351593e-05 -0.00231086106498)
(-4.11754457696e-06 3.81835759257e-05 -0.00230433174053)
(-8.31271637832e-06 3.79031623263e-05 -0.00228475345558)
(-1.25321405594e-05 3.74106959573e-05 -0.00225237648983)
(-1.67745340736e-05 3.66708344749e-05 -0.00220762969292)
(-2.10141945954e-05 3.56332327313e-05 -0.00215114094225)
(-2.51973058459e-05 3.42247325404e-05 -0.00208373199328)
(-2.93537482161e-05 3.23119908499e-05 -0.00200517198252)
(2.80862641441e-05 3.0529165573e-05 -0.00214887151783)
(2.39460275114e-05 3.19446789772e-05 -0.00223061157181)
(1.99116217998e-05 3.28773024272e-05 -0.00230089308649)
(1.58689588265e-05 3.35396609557e-05 -0.00235972388937)
(1.18600844482e-05 3.40001703854e-05 -0.00240620993639)
(7.89604393391e-06 3.43024772961e-05 -0.00243978199135)
(3.96956012334e-06 3.44750056309e-05 -0.0024600798313)
(6.43483680672e-08 3.45335545882e-05 -0.00246689844731)
(-3.84064733041e-06 3.44833093051e-05 -0.00246016841831)
(-7.76659168525e-06 3.43190321194e-05 -0.00243995682832)
(-1.17299251244e-05 3.40247695844e-05 -0.00240646546124)
(-1.57379770145e-05 3.3571903854e-05 -0.00236005055725)
(-1.97797142791e-05 3.29165144578e-05 -0.00230127838322)
(-2.38133795324e-05 3.19902162861e-05 -0.00223106017609)
(-2.79529928651e-05 3.05818025472e-05 -0.00214940344941)
(2.6356021915e-05 2.8454958671e-05 -0.00228325234141)
(2.23301387538e-05 2.93925673349e-05 -0.00236810540807)
(1.85192223243e-05 2.98677308198e-05 -0.00244105439084)
(1.47263144604e-05 3.01904759306e-05 -0.00250172937747)
(1.09899469206e-05 3.04034279445e-05 -0.00254940640346)
(7.31040565873e-06 3.0536952683e-05 -0.00258370547296)
(3.67553807057e-06 3.06107223003e-05 -0.00260439413733)
(6.54241602337e-08 3.06363188907e-05 -0.00261133909528)
(-3.54447090765e-06 3.06176267201e-05 -0.00260449595449)
(-7.17879266314e-06 3.05507541382e-05 -0.00258390706623)
(-1.08575901517e-05 3.04240331015e-05 -0.00254970261147)
(-1.45930543885e-05 3.02177062297e-05 -0.00250211046655)
(-1.83849520688e-05 2.99012685895e-05 -0.00244150515485)
(-2.21951106954e-05 2.94322886984e-05 -0.00236862593081)
(-2.62198762248e-05 2.85023740988e-05 -0.00228385838255)
(2.4386324625e-05 2.63568272546e-05 -0.00240522833471)
(2.06188344876e-05 2.66026029549e-05 -0.00249555690578)
(1.70614681535e-05 2.66735910859e-05 -0.0025706693495)
(1.35433715648e-05 2.67028192283e-05 -0.00263241875142)
(1.00965511594e-05 2.67005438811e-05 -0.00268061377309)
(6.71235589923e-06 2.66867984936e-05 -0.00271514504118)
(3.37615401377e-06 2.6674124417e-05 -0.00273592452256)
(6.61967414973e-08 2.66707405687e-05 -0.00274289525065)
(-3.24357718088e-06 2.6679452515e-05 -0.00273603902636)
(-6.57933844707e-06 2.66974754394e-05 -0.00271537272002)
(-9.96293773042e-06 2.67166337061e-05 -0.00268095096389)
(-1.34089796146e-05 2.6724355666e-05 -0.00263285787911)
(-1.69260017977e-05 2.67007136081e-05 -0.00257119446661)
(-2.04825993096e-05 2.66357185721e-05 -0.00249616976961)
(-2.42478860012e-05 2.63981289342e-05 -0.00240589564101)
(-1.84763319353e-07 -3.17620715696e-07 -0.000129568159292)
(-8.94174243971e-08 -4.36557438584e-07 -0.000135764214268)
(-2.73226816116e-08 -5.09017540171e-07 -0.000141218190101)
(1.41929256215e-08 -5.53455064683e-07 -0.000145856735486)
(3.47593745509e-08 -5.78051138341e-07 -0.000149582750156)
(3.64878627227e-08 -5.89810151788e-07 -0.00015231073156)
(2.41863298515e-08 -5.94329160887e-07 -0.000153977597545)
(4.20915857176e-09 -5.95284734176e-07 -0.00015454360224)
(-1.58644636139e-08 -5.93987054828e-07 -0.000153980838151)
(-2.85391004086e-08 -5.89262812227e-07 -0.000152317236185)
(-2.77453256028e-08 -5.77590344552e-07 -0.000149592570443)
(-8.97975033741e-09 -5.53463945862e-07 -0.000145870026522)
(3.00565144796e-08 -5.09892560297e-07 -0.000141235466885)
(8.93826133788e-08 -4.38718437219e-07 -0.000135787375017)
(1.82775736528e-07 -3.20585450407e-07 -0.000129603456662)
(-7.11230522807e-07 -1.07164521741e-06 -0.000378969285376)
(-4.59263187142e-07 -1.39975272573e-06 -0.000396287151848)
(-2.749068381e-07 -1.62218904736e-06 -0.000411478948048)
(-1.40278194513e-07 -1.77059938347e-06 -0.000424345361496)
(-5.2884792938e-08 -1.8628013527e-06 -0.000434647979584)
(-7.51648364215e-09 -1.91495891843e-06 -0.000442174566368)
(6.53621708515e-09 -1.94023526299e-06 -0.000446766012684)
(3.48316339462e-09 -1.94730213022e-06 -0.000448320356968)
(3.81520453446e-10 -1.93924242096e-06 -0.000446776679967)
(1.42066761965e-08 -1.91317764171e-06 -0.000442195910067)
(5.88475333191e-08 -1.86066952819e-06 -0.00043468002282)
(1.44637680068e-07 -1.76866817013e-06 -0.000424388334197)
(2.76991384217e-07 -1.6209380763e-06 -0.000411534045766)
(4.58834122119e-07 -1.39989467763e-06 -0.000396359528212)
(7.09204736579e-07 -1.07249426035e-06 -0.000379073477188)
(-1.39004721021e-06 -1.92632436883e-06 -0.000616763246399)
(-1.00633930517e-06 -2.44280495709e-06 -0.000644005647547)
(-7.00524337379e-07 -2.8181676579e-06 -0.000667808482819)
(-4.5891378998e-07 -3.08334236086e-06 -0.000687897586739)
(-2.77480753637e-07 -3.26004949917e-06 -0.000703940110121)
(-1.49379846118e-07 -3.36877349125e-06 -0.000715637357603)
(-6.09218809786e-08 -3.42642336891e-06 -0.000722762678822)
(5.92045790695e-09 -3.44414302131e-06 -0.000725170013625)
(7.26471850624e-08 -3.42585234912e-06 -0.000722780632463)
(1.60607231556e-07 -3.36790700264e-06 -0.000715673234265)
(2.87339026353e-07 -3.259427383e-06 -0.000703993876223)
(4.65974824723e-07 -3.08356696974e-06 -0.000687969513774)
(7.03504759975e-07 -2.81972468305e-06 -0.000667900240497)
(1.00471653141e-06 -2.44627531516e-06 -0.000644124649536)
(1.38531280806e-06 -1.93088019969e-06 -0.000616930057762)
(-2.05367846439e-06 -2.72139170885e-06 -0.000843196911479)
(-1.56399051058e-06 -3.37651258174e-06 -0.00087927537739)
(-1.15181538395e-06 -3.86924877035e-06 -0.000910667116852)
(-8.10478605144e-07 -4.22645050571e-06 -0.00093707748852)
(-5.35208497904e-07 -4.47147253236e-06 -0.000958116714306)
(-3.18348790022e-07 -4.62695742049e-06 -0.000973430659166)
(-1.44759607297e-07 -4.71187726333e-06 -0.000982747196687)
(5.30662692264e-09 -4.73869016048e-06 -0.000985890415075)
(1.55261782746e-07 -4.71172297547e-06 -0.000982772643953)
(3.28361327122e-07 -4.62688869712e-06 -0.00097348142546)
(5.43868897942e-07 -4.47193611526e-06 -0.000958192596811)
(8.16341813774e-07 -4.22792157989e-06 -0.000937178593801)
(1.15349047071e-06 -3.8721077608e-06 -0.000910795122262)
(1.5608104707e-06 -3.38119247769e-06 -0.000879438691679)
(2.04719052214e-06 -2.72726759247e-06 -0.000843419355307)
(-2.67149421309e-06 -3.43100900522e-06 -0.0010588374322)
(-2.09784662908e-06 -4.181716306e-06 -0.00110279970339)
(-1.59522737598e-06 -4.7575952547e-06 -0.00114089291056)