/*--------------------------------*- C++ -*----------------------------------*\
  =========                 |
  \\      /  F ield         | OpenFOAM: The Open Source CFD Toolbox
   \\    /   O peration     | Website:  https://openfoam.org
    \\  /    A nd           | Version:  7
     \\/     M anipulation  |
\*---------------------------------------------------------------------------*/
FoamFile
{
    version     2.0;
    format      ascii;
    class       volScalarField;
    location    "1.26";
    object      p;
}
// * * * * * * * * * * * * * * * * * * * * * * * * * * * * * * * * * * * * * //

dimensions      [0 2 -2 0 0 0 0];

internalField   nonuniform List<scalar> 
22500
(
-1.86178668138e-05
-1.86170894487e-05
-1.86170698557e-05
-1.86167041681e-05
-1.86165197666e-05
-1.8616398124e-05
-1.8616345496e-05
-1.86163362099e-05
-1.86163794346e-05
-1.86164654387e-05
-1.86166192378e-05
-1.86168356944e-05
-1.86172332131e-05
-1.86172847589e-05
-1.86181094983e-05
-1.86128213331e-05
-1.86116782889e-05
-1.8611414727e-05
-1.86107896825e-05
-1.86103646432e-05
-1.86100499066e-05
-1.86098735583e-05
-1.86098235089e-05
-1.86099091298e-05
-1.86101205445e-05
-1.86104693171e-05
-1.86109281613e-05
-1.86115876027e-05
-1.86118855458e-05
-1.86130782755e-05
-1.86072392546e-05
-1.86056838654e-05
-1.86050765656e-05
-1.86041082111e-05
-1.8603383294e-05
-1.86028291147e-05
-1.86025002006e-05
-1.86023992841e-05
-1.86025384938e-05
-1.86029052801e-05
-1.86034964264e-05
-1.86042578462e-05
-1.86052633734e-05
-1.8605906756e-05
-1.86075127803e-05
-1.86009759454e-05
-1.85989111741e-05
-1.85977834749e-05
-1.8596342354e-05
-1.85952073267e-05
-1.85943324557e-05
-1.85937997824e-05
-1.85936303365e-05
-1.85938407917e-05
-1.85944141125e-05
-1.85953288317e-05
-1.85965030656e-05
-1.85979837194e-05
-1.8599149134e-05
-1.8601264225e-05
-1.85934063467e-05
-1.85906504275e-05
-1.85887905185e-05
-1.85867090496e-05
-1.85850180768e-05
-1.85837141349e-05
-1.85829097533e-05
-1.85826485952e-05
-1.85829534251e-05
-1.85838011589e-05
-1.8585147648e-05
-1.85868803636e-05
-1.85890034438e-05
-1.85909028155e-05
-1.85937082547e-05
-1.85842389854e-05
-1.85805639775e-05
-1.85777664667e-05
-1.85748739551e-05
-1.85724802474e-05
-1.85706382595e-05
-1.85694943519e-05
-1.85691184821e-05
-1.85695408196e-05
-1.85707308603e-05
-1.85726180917e-05
-1.8575055988e-05
-1.85779920724e-05
-1.85808305327e-05
-1.85845534701e-05
-1.85733665234e-05
-1.85685263654e-05
-1.85646084763e-05
-1.85607500394e-05
-1.85575231757e-05
-1.8555047141e-05
-1.85535046814e-05
-1.85529941862e-05
-1.85535541173e-05
-1.85551456161e-05
-1.85576696053e-05
-1.85609430163e-05
-1.85648467269e-05
-1.8568807073e-05
-1.85736930408e-05
-1.85607615637e-05
-1.85545185751e-05
-1.85493296914e-05
-1.8544381507e-05
-1.85402205916e-05
-1.85370377856e-05
-1.85350530436e-05
-1.85343933457e-05
-1.85351056204e-05
-1.85371424341e-05
-1.85403759384e-05
-1.85445856993e-05
-1.85495806856e-05
-1.85548132902e-05
-1.85610997292e-05
-1.85464615816e-05
-1.85386148389e-05
-1.8532047213e-05
-1.85259303277e-05
-1.85207756021e-05
-1.85168455089e-05
-1.8514395622e-05
-1.85135793377e-05
-1.8514451463e-05
-1.85169565322e-05
-1.85209400949e-05
-1.85261458916e-05
-1.85323109834e-05
-1.85389233263e-05
-1.85468116845e-05
-1.85305676623e-05
-1.85209767411e-05
-1.85129754357e-05
-1.85056664431e-05
-1.84995077938e-05
-1.84948283868e-05
-1.84919151997e-05
-1.84909434365e-05
-1.84919743325e-05
-1.84949458216e-05
-1.84996814501e-05
-1.85058933608e-05
-1.85132518913e-05
-1.85212987637e-05
-1.8530929755e-05
-1.85132344347e-05
-1.85018366226e-05
-1.84924106492e-05
-1.84839484713e-05
-1.84768293119e-05
-1.84714395924e-05
-1.84680910467e-05
-1.84669738578e-05
-1.84681533698e-05
-1.8471563245e-05
-1.84770118684e-05
-1.84841864441e-05
-1.8492699527e-05
-1.85021718566e-05
-1.8513609201e-05
-1.84946063199e-05
-1.84814648747e-05
-1.84707166998e-05
-1.84612069966e-05
-1.8453223015e-05
-1.84472014874e-05
-1.84434705815e-05
-1.84422265714e-05
-1.84435358521e-05
-1.84473308781e-05
-1.84534138472e-05
-1.84614553656e-05
-1.84710174343e-05
-1.84818128924e-05
-1.84949943261e-05
-1.84746801582e-05
-1.84601592577e-05
-1.84483244597e-05
-1.84379314194e-05
-1.84292243927e-05
-1.84226880295e-05
-1.84186528361e-05
-1.84173094769e-05
-1.84187205554e-05
-1.84228222455e-05
-1.84294223484e-05
-1.84381889221e-05
-1.84486359403e-05
-1.84605190293e-05
-1.84750808428e-05
-1.84538538578e-05
-1.84384245306e-05
-1.84256853723e-05
-1.8414565101e-05
-1.84053086058e-05
-1.839841688e-05
-1.83941867997e-05
-1.83927819498e-05
-1.8394256126e-05
-1.83985543991e-05
-1.84055114726e-05
-1.84148293596e-05
-1.84260054585e-05
-1.84387948799e-05
-1.84542652438e-05
-1.84357293317e-05
-1.84169996376e-05
-1.8403233827e-05
-1.83913525388e-05
-1.83816729214e-05
-1.83745711517e-05
-1.83702479929e-05
-1.83688178041e-05
-1.83703180829e-05
-1.83747102434e-05
-1.83818785305e-05
-1.83916209984e-05
-1.84035603844e-05
-1.84173798848e-05
-1.84361494033e-05
-2.00706355915e-05
-2.00701969513e-05
-2.00696551969e-05
-2.006922385e-05
-2.00688530202e-05
-2.00685761149e-05
-2.00683999666e-05
-2.00683348108e-05
-2.00683838711e-05
-2.00685444821e-05
-2.00688067752e-05
-2.00691617531e-05
-2.00695763595e-05
-2.00700974356e-05
-2.00705103938e-05
-2.0067807018e-05
-2.00674067674e-05
-2.00668934498e-05
-2.00665022155e-05
-2.00661720988e-05
-2.00659296086e-05
-2.006577659e-05
-2.006571968e-05
-2.00657611057e-05
-2.00658992078e-05
-2.00661276187e-05
-2.00664426177e-05
-2.00668166964e-05
-2.00673087419e-05
-2.00676820094e-05
-2.00666239497e-05
-2.00664351474e-05
-2.00660951232e-05
-2.0065872488e-05
-2.00656835573e-05
-2.00655482977e-05
-2.00654620536e-05
-2.00654275525e-05
-2.00654457526e-05
-2.00655161328e-05
-2.00656361954e-05
-2.00658092882e-05
-2.00660141427e-05
-2.00663333357e-05
-2.00664957664e-05
-2.00673022571e-05
-2.00674053466e-05
-2.00672955362e-05
-2.00672801127e-05
-2.00672552225e-05
-2.00672383617e-05
-2.00672232783e-05
-2.0067212265e-05
-2.0067206277e-05
-2.00672046399e-05
-2.00672053185e-05
-2.00672137418e-05
-2.00672112592e-05
-2.00673008815e-05
-2.00671724537e-05
-2.00688929204e-05
-2.0069225105e-05
-2.00692786285e-05
-2.00693933097e-05
-2.00694598841e-05
-2.006950151e-05
-2.00695183663e-05
-2.00695173013e-05
-2.00695011246e-05
-2.00694671891e-05
-2.0069408936e-05
-2.00693256152e-05
-2.00691931898e-05
-2.00691201987e-05
-2.00687634687e-05
-2.00706457618e-05
-2.00710582241e-05
-2.00711448399e-05
-2.00712591754e-05
-2.0071304858e-05
-2.00713181038e-05
-2.00713123075e-05
-2.00713026839e-05
-2.00712951907e-05
-2.00712839497e-05
-2.00712540009e-05
-2.00711916704e-05
-2.00710599261e-05
-2.00709549318e-05
-2.00705187605e-05
-2.00720802604e-05
-2.00723970937e-05
-2.00723778292e-05
-2.00723618613e-05
-2.00722800294e-05
-2.00721858043e-05
-2.00721089286e-05
-2.00720745353e-05
-2.00720921663e-05
-2.00721523038e-05
-2.00722300531e-05
-2.00722955636e-05
-2.00722946942e-05
-2.00722965246e-05
-2.0071957337e-05
-2.00729119565e-05
-2.00729711633e-05
-2.00727315091e-05
-2.00724844981e-05
-2.00721965771e-05
-2.00719390368e-05
-2.00717579308e-05
-2.00716878487e-05
-2.00717417083e-05
-2.0071906569e-05
-2.00721480649e-05
-2.00724201366e-05
-2.00726510582e-05
-2.00728743641e-05
-2.00727944644e-05
-2.00730142388e-05
-2.00726918156e-05
-2.00721537271e-05
-2.00716127599e-05
-2.00710731381e-05
-2.00706219817e-05
-2.00703195688e-05
-2.00702083578e-05
-2.00703039942e-05
-2.00705907859e-05
-2.00710264786e-05
-2.0071550879e-05
-2.00720765564e-05
-2.00725994374e-05
-2.00729029873e-05
-2.00723769314e-05
-2.00715955431e-05
-2.00707167502e-05
-2.00698536338e-05
-2.00690452652e-05
-2.00683916986e-05
-2.006796418e-05
-2.00678109027e-05
-2.00679493534e-05
-2.00683619763e-05
-2.00690007699e-05
-2.00697946e-05
-2.00706432921e-05
-2.00715079858e-05
-2.00722727284e-05
-2.00710636795e-05
-2.00697910932e-05
-2.00685584465e-05
-2.00673715613e-05
-2.00662990462e-05
-2.00654503336e-05
-2.00649038284e-05
-2.00647108482e-05
-2.00648898204e-05
-2.00654222335e-05
-2.00662569339e-05
-2.00673156668e-05
-2.00684889659e-05
-2.00697085104e-05
-2.00709667507e-05
-2.00691834821e-05
-2.00674231419e-05
-2.00658426627e-05
-2.00643477085e-05
-2.00630305096e-05
-2.00620053785e-05
-2.00613530566e-05
-2.00611252132e-05
-2.00613399176e-05
-2.00619790348e-05
-2.0062990968e-05
-2.00642951529e-05
-2.00657773171e-05
-2.00673455422e-05
-2.00690935072e-05
-2.00668827014e-05
-2.00646478564e-05
-2.00627301303e-05
-2.00609529964e-05
-2.00594216863e-05
-2.00582476381e-05
-2.00575086056e-05
-2.00572523738e-05
-2.00574964377e-05
-2.00582231705e-05
-2.00593848705e-05
-2.0060903947e-05
-2.00626690346e-05
-2.00645752969e-05
-2.00667996769e-05
-2.00642543429e-05
-2.00615451124e-05
-2.00593265271e-05
-2.0057314461e-05
-2.00556210833e-05
-2.00543418803e-05
-2.00535438825e-05
-2.00532695579e-05
-2.00535327641e-05
-2.00543194759e-05
-2.00555873662e-05
-2.0057269338e-05
-2.00592698795e-05
-2.00614775293e-05
-2.0064178531e-05
-2.00608483884e-05
-2.00581349165e-05
-2.00557103559e-05
-2.00535591689e-05
-2.00517929312e-05
-2.00504763042e-05
-2.00496622692e-05
-2.00493837131e-05
-2.00496522918e-05
-2.00504560762e-05
-2.00517623077e-05
-2.00535179137e-05
-2.0055658192e-05
-2.00580712935e-05
-2.00607780141e-05
-1.71571885945e-05
-1.71574976339e-05
-1.71578311908e-05
-1.7158161854e-05
-1.71584559934e-05
-1.71586855753e-05
-1.71588313111e-05
-1.7158880565e-05
-1.71588281717e-05
-1.71586791495e-05
-1.71584460195e-05
-1.71581483789e-05
-1.71578138955e-05
-1.71574763089e-05
-1.71571649401e-05
-1.71575657206e-05
-1.71578705072e-05
-1.71582065799e-05
-1.71585399868e-05
-1.71588372321e-05
-1.71590696707e-05
-1.71592173881e-05
-1.71592673046e-05
-1.71592139093e-05
-1.71590625857e-05
-1.7158826318e-05
-1.71585252845e-05
-1.71581880597e-05
-1.71578481871e-05
-1.71575414566e-05
-1.71575063182e-05
-1.71577755587e-05
-1.71580821686e-05
-1.71583909392e-05
-1.71586693455e-05
-1.7158888557e-05
-1.71590284624e-05
-1.71590758075e-05
-1.71590249752e-05
-1.71588815022e-05
-1.71586585502e-05
-1.71583764055e-05
-1.71580638546e-05
-1.71577534976e-05
-1.71574822064e-05
-1.71573531567e-05
-1.71575933104e-05
-1.71578743722e-05
-1.71581610993e-05
-1.71584226981e-05
-1.71586302301e-05
-1.71587632888e-05
-1.71588083791e-05
-1.71587598201e-05
-1.71586232636e-05
-1.71584121108e-05
-1.7158146829e-05
-1.71578563509e-05
-1.7157571496e-05
-1.71573291318e-05
-1.71572244994e-05
-1.7157447907e-05
-1.71577132939e-05
-1.71579858689e-05
-1.71582367701e-05
-1.71584369953e-05
-1.71585658434e-05
-1.71586095641e-05
-1.7158562383e-05
-1.71584300743e-05
-1.71582262905e-05
-1.71579717294e-05
-1.71576954176e-05
-1.71574261621e-05
-1.7157200549e-05
-1.71571248003e-05
-1.71573411791e-05
-1.71575984653e-05
-1.71578630462e-05
-1.7158107863e-05
-1.71583039761e-05
-1.7158430483e-05
-1.71584734414e-05
-1.71584270266e-05
-1.7158297086e-05
-1.71580974638e-05
-1.71578490069e-05
-1.71575807015e-05
-1.71573195186e-05
-1.71571008355e-05
-1.71570525662e-05
-1.71572701546e-05
-1.71575251473e-05
-1.71577864631e-05
-1.71580285888e-05
-1.71582228173e-05
-1.71583482323e-05
-1.7158390829e-05
-1.71583448044e-05
-1.71582159923e-05
-1.71580182992e-05
-1.71577725614e-05
-1.71575075153e-05
-1.71572486562e-05
-1.71570286897e-05
-1.71570096724e-05
-1.71572352457e-05
-1.71574921704e-05
-1.71577537191e-05
-1.71579954627e-05
-1.7158189195e-05
-1.71583142093e-05
-1.715835666e-05
-1.71583108307e-05
-1.7158182471e-05
-1.71579853375e-05
-1.71577400391e-05
-1.71574747929e-05
-1.71572139839e-05
-1.71569859309e-05
-1.71569949126e-05
-1.7157233305e-05
-1.71574948428e-05
-1.71577586448e-05
-1.71580010617e-05
-1.71581947181e-05
-1.71583194314e-05
-1.71583617428e-05
-1.71583161359e-05
-1.71581881586e-05
-1.71579911762e-05
-1.7157745276e-05
-1.71574778298e-05
-1.71572123927e-05
-1.71569714196e-05
-1.71570037855e-05
-1.71572575953e-05
-1.71575249299e-05
-1.71577916058e-05
-1.71580345958e-05
-1.71582277116e-05
-1.7158351653e-05
-1.71583936421e-05
-1.71583484789e-05
-1.7158221386e-05
-1.71580250538e-05
-1.71577786825e-05
-1.7157508434e-05
-1.71572372096e-05
-1.71569805203e-05
-1.71570298188e-05
-1.71572997513e-05
-1.7157572915e-05
-1.71578419836e-05
-1.71580844714e-05
-1.71582757967e-05
-1.71583980217e-05
-1.71584393335e-05
-1.715839501e-05
-1.71582697857e-05
-1.71580753768e-05
-1.71578296407e-05
-1.71575570931e-05
-1.71572800844e-05
-1.71570069743e-05
-1.71570645985e-05
-1.71573504382e-05
-1.71576292481e-05
-1.7157899809e-05
-1.71581401415e-05
-1.71583279513e-05
-1.71584471721e-05
-1.71584873564e-05
-1.71584443688e-05
-1.7158322333e-05
-1.71581316214e-05
-1.71578881917e-05
-1.71576142836e-05
-1.71573317073e-05
-1.71570424264e-05
-1.71570931655e-05
-1.71573975033e-05
-1.71576840867e-05
-1.71579561052e-05
-1.71581930348e-05
-1.71583757953e-05
-1.71584908154e-05
-1.71585294767e-05
-1.71584882529e-05
-1.71583706526e-05
-1.71581851964e-05
-1.71579453735e-05
-1.7157670154e-05
-1.71573799085e-05
-1.71570719265e-05
-1.71571115572e-05
-1.71574415202e-05
-1.71577350003e-05
-1.71580068456e-05
-1.71582377444e-05
-1.71584131576e-05
-1.71585226094e-05
-1.71585591679e-05
-1.7158520331e-05
-1.71584085542e-05
-1.71582306828e-05
-1.71579971005e-05
-1.71577222802e-05
-1.71574252902e-05
-1.71570913753e-05
-1.71573043891e-05
-1.71575709823e-05
-1.71578394283e-05
-1.71580819968e-05
-1.71582836407e-05
-1.71584351653e-05
-1.71585290034e-05
-1.7158560275e-05
-1.71585270265e-05
-1.71584311921e-05
-1.71582774939e-05
-1.71580734638e-05
-1.71578281354e-05
-1.71575565516e-05
-1.71572859587e-05
-1.7628363815e-05
-1.7628150499e-05
-1.76279256006e-05
-1.76277013411e-05
-1.76275027506e-05
-1.76273481658e-05
-1.76272502593e-05
-1.76272172798e-05
-1.76272527646e-05
-1.76273534072e-05
-1.7627511084e-05
-1.7627712478e-05
-1.7627939583e-05
-1.76281654948e-05
-1.76283765893e-05
-1.76282379842e-05
-1.76280307423e-05
-1.76278071901e-05
-1.76275834687e-05
-1.76273847665e-05
-1.76272296117e-05
-1.76271312082e-05
-1.76270981186e-05
-1.76271341317e-05
-1.76272356891e-05
-1.76273943083e-05
-1.76275962676e-05
-1.76278229419e-05
-1.76280474139e-05
-1.76282523556e-05
-1.76284042713e-05
-1.76282235226e-05
-1.76280225361e-05
-1.76278172029e-05
-1.7627632702e-05
-1.76274875051e-05
-1.76273950208e-05
-1.7627363885e-05
-1.76273979218e-05
-1.76274934734e-05
-1.76276419513e-05
-1.76278295468e-05
-1.76280376623e-05
-1.76282394943e-05
-1.7628418525e-05
-1.76285912356e-05
-1.76284309486e-05
-1.76282488188e-05
-1.76280593399e-05
-1.7627887191e-05
-1.76277506626e-05
-1.76276633027e-05
-1.76276338444e-05
-1.76276660996e-05
-1.76277563614e-05
-1.76278959486e-05
-1.76280710143e-05
-1.76282630991e-05
-1.76284461072e-05
-1.76286053195e-05
-1.76287396216e-05
-1.76285923917e-05
-1.76284232637e-05
-1.76282452584e-05
-1.76280821824e-05
-1.76279520633e-05
-1.76278685139e-05
-1.76278402941e-05
-1.76278712135e-05
-1.7627957523e-05
-1.76280904982e-05
-1.76282563223e-05
-1.76284367806e-05
-1.76286068739e-05
-1.76287534964e-05
-1.76288643152e-05
-1.76287257675e-05
-1.76285660056e-05
-1.76283968722e-05
-1.76282410566e-05
-1.76281161917e-05
-1.76280357965e-05
-1.76280086129e-05
-1.76280383996e-05
-1.76281214284e-05
-1.76282489845e-05
-1.76284074197e-05
-1.76285788804e-05
-1.76287396676e-05
-1.76288781354e-05
-1.76289747437e-05
-1.76288416502e-05
-1.76286885838e-05
-1.76285264472e-05
-1.76283765859e-05
-1.76282561988e-05
-1.76281785503e-05
-1.76281522742e-05
-1.76281810329e-05
-1.76282611678e-05
-1.76283840735e-05
-1.76285363997e-05
-1.76287007727e-05
-1.76288548745e-05
-1.76289884181e-05
-1.76290731806e-05
-1.7628942728e-05
-1.76287942607e-05
-1.76286375425e-05
-1.76284926453e-05
-1.76283761884e-05
-1.76283010405e-05
-1.76282755933e-05
-1.76283033882e-05
-1.76283808733e-05
-1.76284996783e-05
-1.76286468873e-05
-1.76288057307e-05
-1.76289553154e-05
-1.76290866699e-05
-1.76291613641e-05
-1.76290314594e-05
-1.76288859329e-05
-1.76287334747e-05
-1.76285928881e-05
-1.76284800581e-05
-1.76284073102e-05
-1.76283826664e-05
-1.76284094907e-05
-1.76284844048e-05
-1.76285993965e-05
-1.76287421419e-05
-1.76288966134e-05
-1.76290433692e-05
-1.76291746124e-05
-1.76292415658e-05
-1.76291107069e-05
-1.76289668793e-05
-1.76288179305e-05
-1.76286813282e-05
-1.7628572112e-05
-1.76285018346e-05
-1.76284780402e-05
-1.76285038302e-05
-1.76285760838e-05
-1.76286872792e-05
-1.76288258655e-05
-1.76289767228e-05
-1.76291218656e-05
-1.76292546144e-05
-1.76293160758e-05
-1.76291831757e-05
-1.76290401712e-05
-1.76288943073e-05
-1.76287617182e-05
-1.76286563333e-05
-1.76285887795e-05
-1.76285659141e-05
-1.76285905597e-05
-1.76286598797e-05
-1.76287670371e-05
-1.76289014475e-05
-1.76290491065e-05
-1.76291935137e-05
-1.7629328832e-05
-1.76293875301e-05
-1.76292513581e-05
-1.76291083495e-05
-1.76289652789e-05
-1.76288369022e-05
-1.76287358219e-05
-1.76286713314e-05
-1.76286495712e-05
-1.76286728648e-05
-1.76287388924e-05
-1.76288415414e-05
-1.76289715406e-05
-1.76291162904e-05
-1.76292607463e-05
-1.76293997654e-05
-1.76294613558e-05
-1.76293196027e-05
-1.76291747012e-05
-1.76290334894e-05
-1.76289092295e-05
-1.76288125389e-05
-1.76287514906e-05
-1.76287308035e-05
-1.76287527658e-05
-1.76288151158e-05
-1.76289130984e-05
-1.76290388179e-05
-1.76291815574e-05
-1.7629327969e-05
-1.762947294e-05
-1.76295401422e-05
-1.76293886522e-05
-1.76292405649e-05
-1.76291005304e-05
-1.76289802979e-05
-1.76288884042e-05
-1.76288307116e-05
-1.76288114208e-05
-1.76288317389e-05
-1.76288904185e-05
-1.76289834453e-05
-1.76291048675e-05
-1.76292462593e-05
-1.76293958449e-05
-1.7629551079e-05
-1.76295269838e-05
-1.76293955365e-05
-1.762926243e-05
-1.762914047e-05
-1.76290379685e-05
-1.76289604046e-05
-1.76289122094e-05
-1.7628895994e-05
-1.76289129503e-05
-1.76289618913e-05
-1.7629040239e-05
-1.76291437124e-05
-1.76292668273e-05
-1.76294011901e-05
-1.76295362897e-05
-1.57686361888e-05
-1.57687796842e-05
-1.57689322866e-05
-1.57690867571e-05
-1.57692236492e-05
-1.5769330648e-05
-1.57693989087e-05
-1.57694226349e-05
-1.57693993183e-05
-1.57693312245e-05
-1.57692239347e-05
-1.57690865971e-05
-1.57689316248e-05
-1.57687778525e-05
-1.5768634383e-05
-1.57687109184e-05
-1.57688501474e-05
-1.57690019397e-05
-1.57691561008e-05
-1.5769293315e-05
-1.57694009355e-05
-1.57694697251e-05
-1.5769493644e-05
-1.57694700192e-05
-1.57694012918e-05
-1.57692932966e-05
-1.57691555086e-05
-1.57690007864e-05
-1.57688480306e-05
-1.57687088912e-05
-1.57685893326e-05
-1.57687107692e-05
-1.57688473166e-05
-1.57689889135e-05
-1.57691165336e-05
-1.57692174548e-05
-1.57692822596e-05
-1.57693048425e-05
-1.57692825012e-05
-1.5769217744e-05
-1.57691164882e-05
-1.57689882995e-05
-1.57688460427e-05
-1.57687086097e-05
-1.57685870876e-05
-1.57684570348e-05
-1.57685648721e-05
-1.57686886382e-05
-1.57688193897e-05
-1.57689386026e-05
-1.57690336219e-05
-1.5769094889e-05
-1.57691162685e-05
-1.57690950729e-05
-1.5769033836e-05
-1.57689385321e-05
-1.5768818762e-05
-1.57686872953e-05
-1.57685625972e-05
-1.57684545496e-05
-1.57683521242e-05
-1.57684510835e-05
-1.57685657341e-05
-1.57686882894e-05
-1.57688009721e-05
-1.57688913142e-05
-1.57689497571e-05
-1.57689701678e-05
-1.57689498791e-05
-1.57688914298e-05
-1.57688008027e-05
-1.57686875448e-05
-1.57685642255e-05
-1.57684485571e-05
-1.57683493679e-05
-1.57682624245e-05
-1.57683547092e-05
-1.57684622367e-05
-1.57685778427e-05
-1.57686847572e-05
-1.57687708313e-05
-1.57688266391e-05
-1.57688461303e-05
-1.57688266869e-05
-1.576877082e-05
-1.57686844478e-05
-1.57685769393e-05
-1.57684605377e-05
-1.5768351999e-05
-1.5768259295e-05
-1.57681799343e-05
-1.57682670242e-05
-1.57683685643e-05
-1.57684778433e-05
-1.57685792837e-05
-1.57686611521e-05
-1.57687143108e-05
-1.57687328664e-05
-1.57687142875e-05
-1.57686610105e-05
-1.57685788108e-05
-1.57684767494e-05
-1.57683666194e-05
-1.57682640975e-05
-1.57681764799e-05
-1.57681018864e-05
-1.57681847689e-05
-1.57682810586e-05
-1.57683844632e-05
-1.57684805765e-05
-1.57685582053e-05
-1.57686086271e-05
-1.57686262086e-05
-1.57686085336e-05
-1.57685579338e-05
-1.57684799453e-05
-1.57683832041e-05
-1.57682789346e-05
-1.57681816519e-05
-1.57680981592e-05
-1.57680262553e-05
-1.57681055564e-05
-1.57681971109e-05
-1.57682948908e-05
-1.57683856669e-05
-1.57684589158e-05
-1.57685064659e-05
-1.57685230163e-05
-1.5768506313e-05
-1.5768458536e-05
-1.57683848931e-05
-1.57682934804e-05
-1.57681948344e-05
-1.57681022692e-05
-1.57680222957e-05
-1.57679511059e-05
-1.5768027131e-05
-1.57681143185e-05
-1.57682066164e-05
-1.5768291976e-05
-1.57683606691e-05
-1.57684051717e-05
-1.57684206317e-05
-1.57684049773e-05
-1.5768360209e-05
-1.57682911088e-05
-1.57682051168e-05
-1.57681119674e-05
-1.57680237641e-05
-1.57679469051e-05
-1.57678748297e-05
-1.57679479276e-05
-1.57680310645e-05
-1.57681179665e-05
-1.57681977836e-05
-1.57682616779e-05
-1.57683029508e-05
-1.57683172384e-05
-1.57683027346e-05
-1.57682611811e-05
-1.57681968662e-05
-1.57681164381e-05
-1.57680286954e-05
-1.57679445522e-05
-1.57678704737e-05
-1.57677961454e-05
-1.57678669335e-05
-1.57679464688e-05
-1.57680281777e-05
-1.57681023178e-05
-1.57681612181e-05
-1.57681990433e-05
-1.576821211e-05
-1.57681988323e-05
-1.5768160725e-05
-1.57681014335e-05
-1.57680266887e-05
-1.57679441729e-05
-1.57678636203e-05
-1.57677917177e-05
-1.57677119333e-05
-1.57677820981e-05
-1.57678594045e-05
-1.57679366655e-05
-1.57680054968e-05
-1.57680594287e-05
-1.57680938276e-05
-1.57681056329e-05
-1.57680936435e-05
-1.57680590145e-05
-1.57680046935e-05
-1.57679353341e-05
-1.57678572696e-05
-1.57677789526e-05
-1.57677075574e-05
-1.57676208505e-05
-1.57676935012e-05
-1.57677697651e-05
-1.57678435341e-05
-1.57679074338e-05
-1.57679567529e-05
-1.57679878551e-05
-1.57679985018e-05
-1.57679877467e-05
-1.57679564373e-05
-1.57679068283e-05
-1.57678423998e-05
-1.57677679199e-05
-1.57676906305e-05
-1.57676166158e-05
-1.576758775e-05
-1.5767645204e-05
-1.57677086864e-05
-1.57677679317e-05
-1.57678183969e-05
-1.57678569383e-05
-1.57678811454e-05
-1.57678894105e-05
-1.57678810997e-05
-1.57678568007e-05
-1.57678180037e-05
-1.57677671403e-05
-1.57677071914e-05
-1.57676428035e-05
-1.5767583986e-05
-1.54960420974e-05
-1.54959449599e-05
-1.54958428351e-05
-1.54957401188e-05
-1.54956487687e-05
-1.54955770528e-05
-1.54955314299e-05
-1.54955158243e-05
-1.54955319188e-05
-1.54955781708e-05
-1.54956508189e-05
-1.54957436729e-05
-1.54958483946e-05
-1.54959522357e-05
-1.54960492857e-05
-1.54959922212e-05
-1.54958983088e-05
-1.54957969826e-05
-1.54956946985e-05
-1.5495603291e-05
-1.54955312945e-05
-1.54954853785e-05
-1.54954696533e-05
-1.5495485933e-05
-1.54955325574e-05
-1.54956055945e-05
-1.54956986464e-05
-1.54958030793e-05
-1.54959061148e-05
-1.54960001562e-05
-1.54960764188e-05
-1.54959947958e-05
-1.54959037327e-05
-1.54958098599e-05
-1.54957249496e-05
-1.54956576071e-05
-1.54956144856e-05
-1.54955997178e-05
-1.54956151274e-05
-1.54956590205e-05
-1.5495727416e-05
-1.54958138676e-05
-1.54959097516e-05
-1.54960022962e-05
-1.5496084349e-05
-1.54961673522e-05
-1.54960949646e-05
-1.54960124546e-05
-1.54959257581e-05
-1.54958465232e-05
-1.54957832786e-05
-1.54957426223e-05
-1.54957287074e-05
-1.54957433451e-05
-1.54957848323e-05
-1.54958491563e-05
-1.54959298582e-05
-1.54960183891e-05
-1.54961022628e-05
-1.54961752166e-05
-1.54962392338e-05
-1.54961729136e-05
-1.54960964676e-05
-1.54960151216e-05
-1.54959402484e-05
-1.54958801926e-05
-1.54958414913e-05
-1.54958282568e-05
-1.5495842291e-05
-1.54958818805e-05
-1.54959430177e-05
-1.54960192869e-05
-1.54961022848e-05
-1.54961800262e-05
-1.5496247017e-05
-1.54963005972e-05
-1.54962388492e-05
-1.54961671275e-05
-1.54960903858e-05
-1.54960194002e-05
-1.54959622834e-05
-1.54959254006e-05
-1.5495912809e-05
-1.5495926266e-05
-1.54959640865e-05
-1.54960223058e-05
-1.54960946432e-05
-1.54961729238e-05
-1.54962458069e-05
-1.54963084156e-05
-1.54963571995e-05
-1.54962991265e-05
-1.54962314255e-05
-1.54961588945e-05
-1.54960915976e-05
-1.54960373606e-05
-1.54960022999e-05
-1.54959903585e-05
-1.5496003219e-05
-1.54960392486e-05
-1.54960945848e-05
-1.54961631653e-05
-1.54962371289e-05
-1.5496305867e-05
-1.54963649742e-05
-1.54964110983e-05
-1.54963560145e-05
-1.54962919133e-05
-1.54962233561e-05
-1.54961597105e-05
-1.5496108402e-05
-1.54960752337e-05
-1.54960639628e-05
-1.54960761881e-05
-1.54961103466e-05
-1.54961627445e-05
-1.54962276178e-05
-1.54962974988e-05
-1.54963625726e-05
-1.54964187542e-05
-1.54964637086e-05
-1.54964113412e-05
-1.54963505468e-05
-1.54962858432e-05
-1.54962258694e-05
-1.54961775738e-05
-1.54961463882e-05
-1.54961358165e-05
-1.54961473515e-05
-1.5496179526e-05
-1.54962288736e-05
-1.54962900075e-05
-1.54963559301e-05
-1.54964176503e-05
-1.54964712359e-05
-1.54965164729e-05
-1.54964666114e-05
-1.54964089125e-05
-1.54963480121e-05
-1.54962917779e-05
-1.54962466427e-05
-1.5496217547e-05
-1.54962077206e-05
-1.54962185002e-05
-1.5496248559e-05
-1.54962947102e-05
-1.54963520233e-05
-1.54964140489e-05
-1.54964726253e-05
-1.54965238341e-05
-1.54965703887e-05
-1.54965228758e-05
-1.54964681115e-05
-1.54964109643e-05
-1.54963585845e-05
-1.54963167377e-05
-1.54962898666e-05
-1.54962808132e-05
-1.54962907783e-05
-1.5496318569e-05
-1.54963613612e-05
-1.5496414753e-05
-1.54964729316e-05
-1.54965285555e-05
-1.54965775657e-05
-1.54966263744e-05
-1.54965807718e-05
-1.54965286242e-05
-1.54964751252e-05
-1.5496426634e-05
-1.54963882641e-05
-1.54963637076e-05
-1.54963554969e-05
-1.54963645551e-05
-1.54963899548e-05
-1.54964292214e-05
-1.54964786155e-05
-1.54965330738e-05
-1.54965860565e-05
-1.54966332796e-05
-1.54966863757e-05
-1.54966415421e-05
-1.54965911181e-05
-1.54965406963e-05
-1.54964959631e-05
-1.54964608984e-05
-1.54964387629e-05
-1.54964313059e-05
-1.54964395179e-05
-1.54964624503e-05
-1.54964982622e-05
-1.54965438722e-05
-1.549659514e-05
-1.54966464064e-05
-1.5496692966e-05
-1.54967512003e-05
-1.54967051357e-05
-1.54966555527e-05
-1.54966076725e-05
-1.54965662001e-05
-1.54965344107e-05
-1.54965143761e-05
-1.54965077884e-05
-1.54965150559e-05
-1.54965357257e-05
-1.54965682625e-05
-1.54966104328e-05
-1.54966591241e-05
-1.54967095083e-05
-1.54967575195e-05
-1.54967774957e-05
-1.54967416175e-05
-1.54967008775e-05
-1.5496662801e-05
-1.54966305134e-05
-1.54966058848e-05
-1.5496590571e-05
-1.54965854921e-05
-1.54965911227e-05
-1.54966070073e-05
-1.54966321953e-05
-1.54966651403e-05
-1.54967039001e-05
-1.54967453933e-05
-1.54967830831e-05
-1.41449411332e-05
-1.41450075498e-05
-1.41450770835e-05
-1.41451474417e-05
-1.41452101373e-05
-1.41452593831e-05
-1.41452907403e-05
-1.41453015949e-05
-1.41452908694e-05
-1.41452596287e-05
-1.41452104413e-05
-1.41451474804e-05
-1.41450764337e-05
-1.41450059233e-05
-1.41449400729e-05
-1.41449751344e-05
-1.4145039478e-05
-1.41451086082e-05
-1.414517878e-05
-1.41452416077e-05
-1.41452911139e-05
-1.414532272e-05
-1.41453336819e-05
-1.41453228347e-05
-1.41452913271e-05
-1.41452418371e-05
-1.41451786949e-05
-1.41451077886e-05
-1.41450377763e-05
-1.41449739749e-05
-1.41449190877e-05
-1.41449751287e-05
-1.41450373334e-05
-1.41451017832e-05
-1.41451601815e-05
-1.41452065351e-05
-1.41452362673e-05
-1.41452466019e-05
-1.41452363494e-05
-1.41452066799e-05
-1.41451603056e-05
-1.41451015972e-05
-1.41450364442e-05
-1.41449734978e-05
-1.41449178315e-05
-1.41448581872e-05
-1.41449079493e-05
-1.41449643274e-05
-1.41450238676e-05
-1.41450783722e-05
-1.41451219271e-05
-1.41451499874e-05
-1.41451597558e-05
-1.41451500362e-05
-1.41451220001e-05
-1.41450783808e-05
-1.4145023565e-05
-1.41449633945e-05
-1.41449063212e-05
-1.41448568923e-05
-1.41448098867e-05
-1.41448555236e-05
-1.41449077195e-05
-1.41449635369e-05
-1.41450150025e-05
-1.41450563423e-05
-1.41450830633e-05
-1.41450923744e-05
-1.41450830782e-05
-1.41450563438e-05
-1.41450149027e-05
-1.4144963114e-05
-1.4144906724e-05
-1.41448538284e-05
-1.41448085096e-05
-1.41447684704e-05
-1.41448109004e-05
-1.41448598333e-05
-1.41449124518e-05
-1.41449612031e-05
-1.41450004994e-05
-1.41450259629e-05
-1.41450348386e-05
-1.41450259455e-05
-1.41450004336e-05
-1.41449609982e-05
-1.41449119124e-05
-1.41448587678e-05
-1.41448092092e-05
-1.41447669435e-05
-1.41447301167e-05
-1.41447699984e-05
-1.41448161368e-05
-1.41448657892e-05
-1.41449119404e-05
-1.4144949217e-05
-1.41449734107e-05
-1.41449818402e-05
-1.41449733643e-05
-1.41449490916e-05
-1.41449116473e-05
-1.41448651569e-05
-1.4144814996e-05
-1.41447682984e-05
-1.41447284884e-05
-1.41446934705e-05
-1.4144731235e-05
-1.41447748685e-05
-1.41448217272e-05
-1.41448653168e-05
-1.41449005407e-05
-1.41449234132e-05
-1.41449313764e-05
-1.41449233411e-05
-1.41449003616e-05
-1.41448649484e-05
-1.4144821024e-05
-1.4144773693e-05
-1.41447295398e-05
-1.41446917897e-05
-1.41446575919e-05
-1.414469348e-05
-1.41447348018e-05
-1.41447789454e-05
-1.41448199509e-05
-1.4144853055e-05
-1.41448745393e-05
-1.41448820111e-05
-1.41448744488e-05
-1.41448528387e-05
-1.41448195334e-05
-1.41447782008e-05
-1.41447336179e-05
-1.41446918013e-05
-1.41446558768e-05
-1.4144621575e-05
-1.4144655695e-05
-1.41446948566e-05
-1.41447363302e-05
-1.41447747093e-05
-1.41448056027e-05
-1.41448256199e-05
-1.41448325678e-05
-1.41448255167e-05
-1.41448053628e-05
-1.41447742614e-05
-1.41447355729e-05
-1.4144693695e-05
-1.41446540727e-05
-1.4144619816e-05
-1.41445847127e-05
-1.41446172169e-05
-1.41446543385e-05
-1.41446931728e-05
-1.41447288599e-05
-1.41447574463e-05
-1.41447759122e-05
-1.41447823055e-05
-1.41447758081e-05
-1.41447572022e-05
-1.41447284135e-05
-1.41446924348e-05
-1.41446532221e-05
-1.4144615667e-05
-1.41445829397e-05
-1.41445464767e-05
-1.41445776393e-05
-1.41446129193e-05
-1.41446492052e-05
-1.41446821663e-05
-1.41447083496e-05
-1.41447251882e-05
-1.41447309979e-05
-1.41447250919e-05
-1.41447081301e-05
-1.41446817464e-05
-1.414464852e-05
-1.41446118834e-05
-1.41445761735e-05
-1.41445446925e-05
-1.41445054893e-05
-1.41445360886e-05
-1.41445701583e-05
-1.41446042698e-05
-1.41446346524e-05
-1.41446585144e-05
-1.41446737125e-05
-1.41446789521e-05
-1.41446736448e-05
-1.41446583235e-05
-1.41446343048e-05
-1.41446036688e-05
-1.41445692307e-05
-1.41445347364e-05
-1.41445037246e-05
-1.41444611436e-05
-1.4144492652e-05
-1.41445260803e-05
-1.4144558439e-05
-1.4144586524e-05
-1.41446081824e-05
-1.41446218835e-05