/*--------------------------------*- C++ -*----------------------------------*\
  =========                 |
  \\      /  F ield         | OpenFOAM: The Open Source CFD Toolbox
   \\    /   O peration     | Website:  https://openfoam.org
    \\  /    A nd           | Version:  7
     \\/     M anipulation  |
\*---------------------------------------------------------------------------*/
FoamFile
{
    version     2.0;
    format      ascii;
    class       surfaceScalarField;
    location    "1.26";
    object      phi;
}
// * * * * * * * * * * * * * * * * * * * * * * * * * * * * * * * * * * * * * //

dimensions      [0 3 -1 0 0 0 0];

internalField   nonuniform List<scalar> 
65775
(
-2.25415087881e-11
-4.29960277171e-09
-1.50107965489e-10
-1.84065401269e-13
-3.96958957289e-11
-4.52180496475e-09
-1.65210670239e-10
-4.81514109618e-11
-4.72404641096e-09
-1.80046923127e-10
-4.73621468004e-11
-4.89880326376e-09
-1.93878831573e-10
-3.91551922574e-11
-5.03903252711e-09
-2.05785125033e-10
-2.52788979813e-11
-5.1419293657e-09
-2.14946651434e-10
-7.88718037821e-12
-5.20648435642e-09
-2.20792272041e-10
1.0719569414e-11
-5.23056885231e-09
-2.22887907238e-10
2.80603763379e-11
-5.2063574269e-09
-2.20747582915e-10
4.18411116986e-11
-5.14168163952e-09
-2.14858274039e-10
4.99222540395e-11
-5.0386804822e-09
-2.05654949367e-10
5.05546637799e-11
-4.89840002358e-09
-1.93709621191e-10
4.19208768843e-11
-4.72363006617e-09
-1.79842057973e-10
2.45457785487e-11
-4.52145700379e-09
-1.64973788133e-10
-4.29931914147e-09
-1.49844895378e-10
1.4673253695e-12
-6.88394220247e-11
-7.90775752673e-09
-5.8358795646e-10
-4.46743891358e-13
-1.22041733635e-10
-8.30841187016e-09
-6.52131494114e-10
-1.47305640506e-10
-8.67807280403e-09
-7.1974765607e-10
-1.4594709447e-10
-8.994341102e-09
-7.8271751167e-10
-1.21289696286e-10
-9.24697824818e-09
-8.36890859711e-10
-7.86915737772e-11
-9.43132846815e-09
-8.78592901711e-10
-2.47815162333e-11
-9.54659802234e-09
-9.05171396056e-10
3.29336349187e-11
-9.58947970534e-09
-9.1464227281e-10
8.66998948604e-11
-9.54628068722e-09
-9.05043513796e-10
1.29024396702e-10
-9.4307127799e-09
-8.78339140421e-10
1.53303475664e-10
-9.24611014034e-09
-8.36516567966e-10
1.54187858321e-10
-8.99332490422e-09
-7.82230386301e-10
1.28363533639e-10
-8.67702409124e-09
-7.19157058041e-10
7.44511652544e-11
-8.30746991649e-09
-6.51447865436e-10
-7.90694798511e-09
-5.82828967018e-10
4.22586431893e-12
-1.16007257446e-10
-1.07616912773e-08
-1.07883215486e-09
-6.66672747823e-13
-2.00952517173e-10
-1.12904977786e-08
-1.21241330391e-09
-2.41593399151e-10
-1.17789395087e-08
-1.34371463835e-09
-2.39688527093e-10
-1.21924452244e-08
-1.46540320377e-09
-1.99657917416e-10
-1.25208407178e-08
-1.56967152604e-09
-1.29926915794e-10
-1.27589625302e-08
-1.64970023636e-09
-4.13650637757e-11
-1.29073202411e-08
-1.70057733461e-09
5.35068853496e-11
-1.29624459937e-08
-1.71864991865e-09
1.41874860831e-10
-1.29068534435e-08
-1.70038154082e-09
2.11233099807e-10
-1.2758061808e-08
-1.64931153864e-09
2.50736052728e-10
-1.25195769292e-08
-1.56909768149e-09
2.51966803045e-10
-1.2190953929e-08
-1.46465550635e-09
2.10502896351e-10
-1.17773908001e-08
-1.34280755049e-09
1.24496680533e-10
-1.12890382357e-08
-1.21136241255e-09
-1.07603880425e-08
-1.07766326529e-09
6.47454409374e-12
-1.61879114459e-10
-1.28564226247e-08
-1.58046822453e-09
-7.81185060549e-13
-2.75003394146e-10
-1.34639002574e-08
-1.78041219092e-09
-3.29455013351e-10
-1.4020338443e-08
-1.97554696796e-09
-3.26715403245e-10
-1.44863167e-08
-2.15516242585e-09
-2.72449701912e-10
-1.48537375831e-08
-2.30819217109e-09
-1.77691571276e-10
-1.51183924102e-08
-2.42514004368e-09
-5.71870163661e-11
-1.52826786054e-08
-2.49924754227e-09
7.19458637512e-11
-1.53437283013e-08
-2.52550369305e-09
1.92238701378e-10
-1.52821149884e-08
-2.49900638678e-09
2.86584662922e-10
-1.51173079187e-08
-2.42466077474e-09
3.40253364616e-10
-1.4852219806e-08
-2.30748320719e-09
3.42212545987e-10
-1.44845139498e-08
-2.15423625165e-09
2.86783401654e-10
-1.40184424883e-08
-1.97442010911e-09
1.7239213429e-10
-1.34620445109e-08
-1.77910237916e-09
-1.28546948501e-08
-1.57900504692e-09
8.14164821136e-12
-2.04494082843e-10
-1.42312353538e-08
-2.04614667247e-09
-8.16305498902e-13
-3.4318738043e-10
-1.48732549322e-08
-2.30639124047e-09
-4.09948057047e-10
-1.54530894958e-08
-2.55807120804e-09
-4.06156282328e-10
-1.59331814988e-08
-2.78792546911e-09
-3.38838219881e-10
-1.63086988161e-08
-2.98251072435e-09
-2.21367081804e-10
-1.65773885657e-08
-3.13049991099e-09
-7.19653829353e-11
-1.67435935052e-08
-3.22395279387e-09
8.81428659467e-11
-1.68054135877e-08
-3.25698349366e-09
2.37336224303e-10
-1.674298375e-08
-3.22368601663e-09
3.54396319153e-10
-1.65762167652e-08
-3.12996926051e-09
4.21106693984e-10
-1.63070577752e-08
-2.9817244605e-09
4.24086992839e-10
-1.59312184526e-08
-2.78689604321e-09
3.56289193567e-10
-1.54509929679e-08
-2.55681559976e-09
2.16250043886e-10
-1.48711420437e-08
-2.30492727192e-09
-1.42291925926e-08
-2.04450400355e-09
9.24638543259e-12
-2.42884034526e-10
-1.49578375638e-08
-2.44439819748e-09
-7.96657214368e-13
-4.05029500628e-10
-1.55983273009e-08
-2.75472697413e-09
-4.82794560428e-10
-1.61671531574e-08
-3.05193677407e-09
-4.77850786202e-10
-1.66325906854e-08
-3.32124362403e-09
-3.98664319573e-10
-1.69935704312e-08
-3.54780592755e-09
-2.60778215509e-10
-1.72502053813e-08
-3.71931350013e-09
-8.55168630631e-11
-1.74084336278e-08
-3.8272567302e-09
1.02278755514e-10
-1.74673637836e-08
-3.86531753811e-09
2.77342383455e-10
-1.74078205309e-08
-3.82697803242e-09
4.14833994672e-10
-1.72490266071e-08
-3.71875907492e-09
4.93427566082e-10
-1.69919155829e-08
-3.546984119e-09
4.97567583341e-10
-1.66305955359e-08
-3.32016707326e-09
4.18760657664e-10
-1.61649901734e-08
-3.05062290585e-09
2.55269762364e-10
-1.55960857479e-08
-2.75319312278e-09
-1.49555826221e-08
-2.44267206103e-09
9.88847110823e-12
-2.76895093669e-10
-1.51261801928e-08
-2.75711075713e-09
-7.44980201923e-13
-4.60542516837e-10
-1.57378761197e-08
-3.10625511054e-09
-5.4818866376e-10
-1.62719484919e-08
-3.43752147376e-09
-5.42099866044e-10
-1.67035953122e-08
-3.73551494558e-09
-4.52191803571e-10
-1.70355107352e-08
-3.98480457704e-09
-2.96047427495e-10
-1.72700795262e-08
-4.17273840087e-09
-9.77630709688e-11
-1.74142650042e-08
-4.29065998788e-09
1.14648075416e-10
-1.74680259445e-08
-4.33213210907e-09
3.12742576488e-10
-1.74136777169e-08
-4.29037710734e-09
4.68505209746e-10
-1.72689484291e-08
-4.17217615619e-09
5.57834108346e-10
-1.70339159348e-08
-3.9839722641e-09
5.63132381197e-10
-1.67016548302e-08
-3.73442654016e-09
4.74458314049e-10
-1.62698102654e-08
-3.43619594664e-09
2.89496313662e-10
-1.57356054349e-08
-3.10470989524e-09
-1.51238012111e-08
-2.75537120914e-09
1.0199324606e-11
-3.06880753168e-10
-1.48322220757e-08
-2.97791115681e-09
-6.7775293605e-13
-5.10074386354e-10
-1.53960713251e-08
-3.35557906943e-09
-6.06598937985e-10
-1.58807075976e-08
-3.71088650312e-09
-5.99435966927e-10
-1.6267445027e-08
-4.02847618209e-09
-4.99883841462e-10
-1.65623759325e-08
-4.29287868891e-09
-3.27446051506e-10
-1.67697120775e-08
-4.49150450418e-09
-1.08705634948e-10
-1.68967986195e-08
-4.61579032122e-09
1.25542410662e-10
-1.69441993066e-08
-4.65937269701e-09
3.44093223766e-10
-1.68962524473e-08
-4.61550679356e-09
5.16148585361e-10
-1.67686570495e-08
-4.49094200996e-09
6.15119619941e-10
-1.65608787698e-08
-4.2920484422e-09
6.21491167391e-10
-1.62656032099e-08
-4.02739484486e-09
5.23944664318e-10
-1.58786412738e-08
-3.70957604132e-09
3.19464439228e-10
-1.53938234985e-08
-3.35405806988e-09
-1.48297663846e-08
-2.97620348021e-09
1.03082029093e-11
-3.33416354225e-10
-1.41694065608e-08
-3.10872207949e-09
-6.069392168e-13
-5.54168430147e-10
-1.46733290145e-08
-3.50648468839e-09
-6.58655948813e-10
-1.51006697916e-08
-3.87793882217e-09
-6.50504150064e-10
-1.54373593965e-08
-4.20814258597e-09
-5.42281129973e-10
-1.56922399864e-08
-4.4819126421e-09
-3.55304289709e-10
-1.58706717474e-08
-4.6869523663e-09
-1.18399625502e-10
-1.59797492807e-08
-4.81491654628e-09
1.35202374429e-10
-1.60203802783e-08
-4.85963459532e-09
3.71909096214e-10
-1.5979247125e-08
-4.81463368521e-09
5.58487268937e-10
-1.58696972604e-08
-4.68639259946e-09
6.66107104784e-10
-1.56908449848e-08
-4.48108981627e-09
6.73444929238e-10
-1.54356192476e-08
-4.20707711061e-09
5.67921060093e-10
-1.5098677259e-08
-3.87665687521e-09
3.45891002576e-10
-1.46711060902e-08
-3.50500695971e-09
-1.41668897884e-08
-3.10707239109e-09
1.03186583978e-11
-3.57075131668e-10
-1.32238875833e-08
-3.15626230151e-09
-5.40286827886e-13
-5.93459449614e-10
-1.36613142769e-08
-3.56765995567e-09
-7.05097979676e-10
-1.402825051e-08
-3.94939807953e-09
-6.96014215641e-10
-1.43139875637e-08
-4.28711166576e-09
-5.79945974666e-10
-1.4529154384e-08
-4.56607709501e-09
-3.7996257292e-10
-1.46794021188e-08
-4.77442960266e-09
-1.2692944855e-10
-1.47710083862e-08
-4.90411942344e-09
1.43809339267e-10
-1.48049941928e-08
-4.94925628196e-09
3.96628821239e-10
-1.47705428802e-08
-4.90383780575e-09
5.96183643898e-10
-1.46784930609e-08
-4.77387385182e-09
7.11608405737e-10
-1.4527838437e-08
-4.56526401003e-09
7.19834246737e-10
-1.43123185303e-08
-4.28606597109e-09
6.07122536353e-10
-1.40262948776e-08
-3.94815089791e-09
3.6944189006e-10
-1.36590759835e-08
-3.56623463794e-09
-1.32212758237e-08
-3.15468407389e-09
1.0305558563e-11
-3.78281596206e-10
-1.20725558701e-08
-3.12935735185e-09
-4.8116958969e-13
-6.2864473423e-10
-1.24408806721e-08
-3.54963921945e-09
-7.4678938862e-10
-1.27475075134e-08
-3.93745132484e-09
-7.36743236347e-10
-1.29844424846e-08
-4.27900518703e-09
-6.13441107949e-10
-1.31626195662e-08
-4.56013546473e-09
-4.01744941559e-10
-1.3286996321e-08
-4.76952439914e-09
-1.34389574917e-10
-1.33626025684e-08
-4.89949210081e-09
1.51492779027e-10
-1.33904182301e-08
-4.94450940858e-09
4.18613337151e-10
-1.33621579748e-08
-4.8992124553e-09
6.29840780409e-10
-1.32861219226e-08
-4.76897403618e-09
7.52445151896e-10
-1.31613379046e-08
-4.55933404309e-09
7.61572498133e-10
-1.29827873138e-08
-4.27798180105e-09
6.42298012415e-10
-1.27455217498e-08
-3.93624232707e-09
3.90597010258e-10
-1.24385520977e-08
-3.54827082751e-09
-1.20697864573e-08
-3.12785708954e-09
1.0315558464e-11
-3.97275366297e-10
-1.07828329947e-08
-3.03723007795e-09
-4.29462676208e-13
-6.6064977584e-10
-1.10815885596e-08
-3.46302952484e-09
-7.84851559335e-10
-1.13304319441e-08
-3.8539676922e-09
-7.7355509826e-10
-1.15232138277e-08
-4.19670265862e-09
-6.43299220116e-10
-1.16688283186e-08
-4.47772599316e-09
-4.20925607535e-10
-1.1770633143e-08
-4.68640727254e-09
-1.40864745595e-10
-1.18322541002e-08
-4.81552860981e-09
1.58334224251e-10
-1.18545833847e-08
-4.8600042497e-09
4.38135234898e-10
-1.18318082862e-08
-4.815252274e-09
6.59993051207e-10
-1.17697499367e-08
-4.68586468232e-09
7.89487187139e-10
-1.16675184491e-08
-4.47693918132e-09
7.99791783251e-10
-1.15214945008e-08
-4.19570465681e-09
6.74388489373e-10
-1.13283252937e-08
-3.85280009156e-09
4.09614879366e-10
-1.10790704869e-08
-3.46172174279e-09
-1.077981876e-08
-3.0358119638e-09
1.03709477905e-11
-4.14740685564e-10
-9.41275135374e-09
-2.88859141513e-09
-3.86710027912e-13
-6.91460981e-10
-9.64179807066e-09
-3.31772772906e-09
-8.20917859669e-10
-9.83851443843e-09
-3.70979963268e-09
-8.07315922229e-10
-9.99404701681e-09
-4.0517144337e-09
-6.69882768746e-10
-1.01124977669e-08
-4.33082510132e-09
-4.37636305446e-10
-1.01954224634e-08
-4.53738255774e-09
-1.46392977741e-10
-1.024526638e-08
-4.66473732545e-09
1.64346500058e-10
-1.02628933093e-08
-4.7083251932e-09
4.55302571259e-10
-1.02447906419e-08
-4.66446648685e-09
6.86981606094e-10
-1.01944748434e-08
-4.53685164779e-09
8.23582067633e-10
-1.01110828763e-08
-4.33005765389e-09
8.36111032117e-10
-9.99216824254e-09
-4.05074641206e-09
7.05370275467e-10
-9.83617760508e-09
-3.70867764888e-09
4.27174549514e-10
-9.63896581353e-09
-3.3164858382e-09
-9.40936846008e-09
-2.88726226393e-09
1.04566222926e-11
-4.35104045033e-10
-8.00810038993e-09
-2.69125718468e-09
-3.55194898694e-13
-7.25787882617e-10
-8.17049060736e-09
-3.12282915659e-09
-8.57241619178e-10
-8.32596539847e-09
-3.51468287895e-09
-8.38762589195e-10
-8.45214081272e-09
-3.8541026938e-09
-6.93373386941e-10
-8.54858820531e-09
-4.12975060558e-09
-4.51914130986e-10
-8.61608208665e-09
-4.33297673764e-09
-1.50995386866e-10
-8.65630098494e-09
-4.45778725994e-09
1.69514651e-10
-8.67002110781e-09
-4.5001972955e-09
4.70117501323e-10
-8.65576018314e-09
-4.45752515528e-09
7.10953354007e-10
-8.6150039848e-09
-4.33246338973e-09
8.55435057336e-10
-8.54697375757e-09
-4.12900983265e-09
8.72753740799e-10
-8.44999055269e-09
-3.85317154966e-09
7.39930406139e-10
-8.3232760782e-09
-3.51361191095e-09
4.4769052089e-10
-8.16720739025e-09
-3.12166006458e-09
-8.0042137071e-09
-2.69002972443e-09
1.05954495909e-11
-4.73486836184e-10
-2.45180129901e-09
-3.20259768805e-13
-6.59298453201e-09
-7.72772549966e-10
-2.88676066906e-09
-6.71420157476e-09
-8.9996543555e-10
-3.27691240267e-09
-6.84170071677e-09
-8.73233951468e-10
-3.61227168828e-09
-6.94509332935e-09
-7.18340137914e-10
-3.88317759849e-09
-7.02414490656e-09
-4.66890662428e-10
-4.08214819942e-09
-7.07982162255e-09
-1.55790982182e-10
-4.20384121202e-09
-7.11285325202e-09
1.74919122104e-10
-4.24486178859e-09
-7.12361266218e-09
4.85671931679e-10
-4.20359250683e-09
-7.11220528535e-09
7.36439650833e-10
-4.08166122796e-09
-7.07853087895e-09
8.90342749821e-10
-3.88247532292e-09
-7.02221729742e-09
9.15816644134e-10
-3.61138973543e-09
-6.94253380643e-09
7.87152782445e-10
-3.27590264752e-09
-6.83850658309e-09
4.86231591352e-10
-2.88566513655e-09
-6.71032691707e-09
-2.45070655089e-09
1.07428906646e-11
-6.58842991233e-09
-2.89404593482e-12
2.4306549484e-10
-3.90194934539e-10
1.85353066258e-13
-3.74192577421e-12
2.68631206979e-10
-4.32518318979e-10
-3.40037886273e-12
2.93172765687e-10
-4.72949686194e-10
-2.80857895361e-12
3.15650247999e-10
-5.09521253987e-10
-2.10901565934e-12
3.34309585353e-10
-5.402601367e-10
-1.39205898296e-12
3.48281701849e-10
-5.63537719365e-10
-6.60897274248e-13
3.57032362491e-10
-5.78260335013e-10
7.77429431821e-14
3.60134492233e-10
-5.83547633781e-10
8.1063948171e-13
3.56928140213e-10
-5.78249624302e-10
1.52242434361e-12
3.48071311917e-10
-5.63516477482e-10
2.19467527485e-12
3.34003357364e-10
-5.40228675971e-10
2.74913656046e-12
3.15304022101e-10
-5.0947967676e-10
3.05226743294e-12
2.92830499682e-10
-4.72897731149e-10
2.21803930659e-12
2.6838530837e-10
-4.32453954718e-10
2.42934530605e-10
-3.90111249629e-10
-3.86056360896e-13
-2.44118710154e-12
7.02429849715e-10
-1.04041935622e-09
3.93247778644e-13
-1.50480146716e-12
7.67831756889e-10
-1.15148316298e-09
4.51061522723e-13
8.29650156139e-10
-1.25721786432e-09
1.86539105257e-12
8.8502538982e-10
-1.35256055127e-09
2.18767331387e-12
9.30410417071e-10
-1.43250382099e-09
1.43018405921e-12
9.64002095929e-10
-1.49293567633e-09
-6.17389789828e-14
9.84911134868e-10
-1.53110317394e-09
-1.79838889406e-12
9.9234266246e-10
-1.54477994995e-09
-3.27987674726e-12
9.84687074996e-10
-1.53106915751e-09
-4.03233390074e-12
9.63551932483e-10
-1.49286895599e-09
-3.73315841804e-12
9.29756803712e-10
-1.43240572725e-09
-2.3555664087e-12
8.84268969383e-10
-1.35243219781e-09
-4.1347169716e-13
8.28915520673e-10
-1.25705972695e-09
6.30836727578e-13
7.67294815291e-10
-1.15129082284e-09
7.02151298915e-10
-1.04017909185e-09
-1.13908748602e-12
1.80678288572e-12
1.19847396237e-09
-1.57684123502e-09
6.14838135379e-13
6.88573337968e-12
1.29673853898e-09
-1.74567842972e-09
1.12730862835e-11
1.38839908974e-09
-1.90598072945e-09
1.32163462759e-11
1.46876643213e-09
-2.05023504389e-09
1.19833184332e-11
1.53370334353e-09
-2.17101040564e-09
7.88826263868e-12
1.58116059798e-09
-2.26220953453e-09
1.87260531437e-12
1.61049633929e-09
-2.31973803878e-09
-4.79110864192e-12
1.6209582229e-09
-2.34029949498e-09
-1.07965311725e-11
1.61022420611e-09
-2.31968363999e-09
-1.48899214361e-11
1.58061866262e-09
-2.26210283449e-09
-1.61533215488e-11
1.53292692144e-09
-2.17085361189e-09
-1.42555592817e-11
1.46787638084e-09
-2.05003024847e-09
-9.86732335731e-12
1.38756382947e-09
-1.90572885206e-09
-4.61297449108e-12
1.29615472202e-09
-1.74537414739e-09
1.19822703077e-09
-1.57646866486e-09
-1.79227926079e-12
8.33727801748e-12
1.62842615875e-09
-2.01907113626e-09
7.54439179164e-13
1.86094367755e-11
1.74402094771e-09
-2.23730771942e-09
2.56447357271e-11
1.85050864403e-09
-2.4439071976e-09
2.77068081208e-11
1.94173646492e-09
-2.62944140869e-09
2.41945975068e-11
2.01420133531e-09
-2.78454716956e-09
1.58620251403e-11
2.06638269028e-09
-2.90154168406e-09
4.34112595315e-12
2.09838263196e-09
-2.97524693052e-09
-8.25570766405e-12
2.10984584824e-09
-3.00151956104e-09
-1.97639714506e-11
2.09811044532e-09
-2.97517249332e-09
-2.80876555476e-11
2.0658465345e-09
-2.9013958427e-09
-3.1614293557e-11
2.01344513249e-09
-2.7843334928e-09
-2.95707055812e-11
1.94088247971e-09
-2.62916383702e-09
-2.24875894097e-11
1.84973711779e-09
-2.44356869095e-09
-1.19633055012e-11
1.74352674532e-09
-2.23690440477e-09
1.62830143945e-09
-2.0185882099e-09
-2.37427381642e-12
1.59049128502e-11
1.93906600766e-09
-2.37311943367e-09
8.39604428444e-13
3.1310958819e-11
2.05594251845e-09
-2.63313101829e-09
4.06658046724e-11
2.16227199718e-09
-2.87849861872e-09
4.2430690922e-11
2.25106801379e-09
-3.09836971418e-09
3.6363199221e-11
2.32020013229e-09
-3.28189700741e-09
2.37218613053e-11
2.36911889802e-09
-3.42017182725e-09
6.7911894425e-12
2.39884543497e-09
-3.50716438659e-09
-1.15818059332e-11
2.40956468602e-09
-3.53808530497e-09
-2.84965048106e-11
2.39859921698e-09
-3.50707033054e-09
-4.1117541293e-11
2.3686397133e-09
-3.41998788117e-09
-4.71742851296e-11
2.31953512341e-09
-3.28162865186e-09
-4.53863465203e-11
2.25033441188e-09
-3.0980236348e-09
-3.59257657489e-11
2.16164100933e-09
-2.87808111218e-09
-2.01972549544e-11
2.05559903317e-09
-2.63264127731e-09
1.93910203236e-09
-2.37254577471e-09
-2.87925796676e-12
2.35333717299e-11
2.11558080518e-09
-2.64494833272e-09
8.85207338729e-13
4.33540297443e-11
2.2217919619e-09
-2.93986718953e-09
5.44238262262e-11
2.3171115114e-09
-3.2172468619e-09
5.55536523498e-11
2.39449649484e-09
-3.4652392005e-09
4.69932784863e-11
2.45333215594e-09
-3.67190835023e-09
3.05002746211e-11
2.49410201133e-09
-3.82743446315e-09
8.89691382139e-12
2.51861447035e-09
-3.92513780452e-09
-1.44163611365e-11
2.52754035326e-09
-3.95975934925e-09
-3.60002915765e-11
2.51840403687e-09
-3.92502466337e-09
-5.24610200949e-11
2.49369760068e-09
-3.82721368292e-09
-6.09829014811e-11
2.45278176954e-09
-3.67158785148e-09
-5.97860389081e-11
2.39390531316e-09
-3.46482923078e-09
-4.8552195732e-11
2.31663514315e-09
-3.21675812206e-09
-2.83523416881e-11
2.22158929735e-09
-2.93930292376e-09
2.11575499891e-09
-2.64430055982e-09
-3.30690228278e-12
3.05203011084e-11
2.16788034733e-09
-2.84047785676e-09
9.02338476871e-13
5.37521862197e-11
2.25694773487e-09
-3.16418343594e-09
6.58711262212e-11
2.33556953563e-09
-3.46758586046e-09
6.61484620349e-11
2.39738496921e-09
-3.73820333862e-09
5.53799945303e-11
2.44304665382e-09
-3.96335193845e-09
3.5763059113e-11
2.47387001203e-09
-4.13257293749e-09
1.05136458767e-11
2.49216385586e-09
-4.23871223894e-09
-1.66099481105e-11
2.49892322716e-09
-4.27619684403e-09
-4.18365595574e-11
2.49199058135e-09
-4.23858079092e-09
-6.14095921914e-11
2.4735407639e-09
-4.13231704299e-09
-7.21132265692e-11
2.44260652205e-09
-3.96298238188e-09
-7.17271499436e-11
2.39692448741e-09
-3.73773455694e-09
-5.9393376551e-11
2.33522433183e-09
-3.46703370483e-09
-3.57376720098e-11
2.25685337899e-09
-3.16355566143e-09
2.16813890912e-09
-2.8397703375e-09
-3.65600825038e-12
3.64358548075e-11
2.11846637697e-09
-2.9654996792e-09
8.96872445281e-13
6.20587515993e-11
2.18871966743e-09
-3.31257324797e-09
7.46280189654e-11
2.24927328516e-09
-3.63672369601e-09
7.39592896196e-11
2.29511332389e-09
-3.92513321964e-09
6.13816833866e-11
2.32774403078e-09
-4.16465895845e-09
3.94466422468e-11
2.34901553948e-09
-4.34444107317e-09
1.16207683197e-11
2.36142615296e-09
-4.45700853214e-09
-1.81534332154e-11
2.3661151575e-09
-4.49661573991e-09
-4.59530463379e-11
2.36128560043e-09
-4.45685991795e-09
-6.78330926581e-11
2.34875083809e-09
-4.3441524328e-09
-8.03218433322e-11
2.3273947711e-09
-4.16424419844e-09
-8.08443051211e-11
2.29475468907e-09
-3.92461133997e-09
-6.80171810936e-11
2.24901711688e-09
-3.63611609497e-09
-4.19385790914e-11
2.18867823727e-09
-3.31189224029e-09
2.11873471227e-09
-2.9647451051e-09
-3.93178517626e-12
4.10684441182e-11
1.99368680954e-09
-3.02558173661e-09
8.75302157332e-13
6.81829861722e-11
2.04670633203e-09
-3.39123993062e-09
8.07372010991e-11
2.09065189926e-09
-3.73150638872e-09
7.91378778897e-11
2.12237020617e-09
-4.03346346713e-09
6.51874261298e-11
2.14381993763e-09
-4.28375265424e-09
4.16991565835e-11
2.15711038059e-09
-4.47132502082e-09
1.22674292963e-11
2.16467046533e-09
-4.58853987766e-09
-1.91177449034e-11
2.16763178826e-09
-4.62961183457e-09
-4.85191819907e-11
2.16455649177e-09
-4.58837565177e-09
-7.1941341401e-11
2.15689598906e-09
-4.47100673504e-09
-8.57806515157e-11
2.14353691485e-09
-4.2832974015e-09
-8.72008724897e-11
2.12207674794e-09
-4.03289491683e-09
-7.43527432115e-11
2.09043699392e-09
-3.73085155613e-09
-4.67608170004e-11
2.04665816506e-09
-3.39051542817e-09
1.99389188554e-09
-3.02479156478e-09
-4.14108762962e-12
4.43665392537e-11
1.8185171246e-09
-3.02601437674e-09
8.42370107937e-13
7.22413673717e-11
1.85751843422e-09
-3.40604768109e-09
8.44694550521e-11
1.88771254651e-09
-3.75838085663e-09
8.20428593182e-11
1.90813223656e-09
-4.07016706659e-09
6.71471835031e-11
1.92091290993e-09
-4.32803400626e-09
4.27683400415e-11
1.92819806218e-09
-4.5209385909e-09
1.25353388986e-11
1.93216336452e-09
-4.64121426057e-09
-1.96097597914e-11
1.93382082063e-09
-4.68316394676e-09
-4.98076605157e-11
1.93206795504e-09
-4.64103638464e-09
-7.41087134422e-11
1.92801683955e-09
-4.52059446761e-09
-8.88723429027e-11
1.9206682229e-09
-4.32754377463e-09
-9.10903360826e-11
1.90786571675e-09
-4.06955891817e-09
-7.85382269162e-11
1.88748940363e-09
-3.7576872381e-09
-5.01699747895e-11
1.85740402952e-09
-3.40528902766e-09
1.81858287363e-09
-3.02519911169e-09
-4.29328146318e-12
4.63909633246e-11
1.61404596063e-09
-2.97180887598e-09
8.02734396973e-13
7.44697365701e-11
1.64260339594e-09
-3.36254883569e-09
8.62184847199e-11
1.66222156522e-09
-3.7234548326e-09
8.31390679698e-11
1.6742770154e-09
-4.04183877557e-09
6.76869646823e-11
1.68091217826e-09
-4.30448197012e-09
4.29465829724e-11
1.68412100666e-09
-4.500536669e-09
1.25207711098e-11
1.68569639615e-09
-4.62245700743e-09
-1.97497654983e-11
1.68646219475e-09
-4.66475987092e-09
-5.01346801666e-11
1.68561050605e-09
-4.62226781876e-09
-7.47847834442e-11
1.68395446524e-09
-4.50017115096e-09
-9.00844688814e-11
1.68067714244e-09
-4.30396295496e-09
-9.29288721748e-11
1.67399833839e-09
-4.04119859787e-09
-8.08304815365e-11
1.66194233517e-09
-3.72273103292e-09
-5.22458924612e-11
1.642367667e-09
-3.36176513003e-09
1.61390539983e-09
-2.97097824462e-09
-4.39800100444e-12
4.72731361158e-11
1.39676058593e-09
-2.86773173672e-09
7.56702552757e-13
7.52048561329e-11
1.41792839591e-09
-3.26607153607e-09
8.64962783796e-11
1.42979607318e-09
-3.63262396811e-09
8.29901144118e-11
1.43610669094e-09
-3.95483541664e-09
6.72997089127e-11
1.43884214159e-09
-4.21979874172e-09
4.25621808044e-11
1.4396575066e-09
-4.41706568146e-09
1.23333116362e-11
1.43988506866e-09
-4.5393660792e-09
-1.96668470112e-11
1.44011314598e-09
-4.58155370517e-09
-4.98478753096e-11
1.43979903173e-09
-4.53916828608e-09
-7.4481797027e-11
1.43948524671e-09
-4.41668382618e-09
-8.99998341831e-11
1.43858647145e-09
-4.21925775428e-09
-9.32468329163e-11
1.43577699931e-09
-3.95417114861e-09
-8.15836001372e-11
1.42941478666e-09
-3.63187870346e-09
-5.31361681351e-11
1.41752098855e-09
-3.26527201829e-09
1.39636155155e-09
-2.86689520472e-09
-4.46451915348e-12
4.72432290447e-11
1.17878415226e-09
-2.71834933496e-09
7.08092113061e-13
7.5009867729e-11
1.19447977702e-09
-3.1218662636e-09
8.60593763484e-11
1.20086081954e-09
-3.49174168569e-09
8.23446133807e-11
1.20368336184e-09
-3.81542136943e-09
6.65921014953e-11
1.20444253725e-09
-4.08053751524e-09
4.20064711523e-11
1.20426885723e-09
-4.27728662567e-09
1.21010766742e-11
1.20398740832e-09
-4.39883595254e-09
-1.95023154844e-11
1.20397408708e-09
-4.44049062628e-09
-4.935245231e-11
1.20388899523e-09
-4.39863269971e-09
-7.38198782086e-11
1.20406836202e-09
-4.27689425438e-09
-8.93800240417e-11
1.20413527944e-09
-4.07998214248e-09
-9.28133428314e-11
1.20326447293e-09
-3.8147413539e-09
-8.13725126651e-11
1.20033263643e-09
-3.49098374142e-09
-5.30806856228e-11
1.19385026198e-09
-3.1210610181e-09
1.17807482135e-09
-2.71751828814e-09
-4.49719845504e-12
4.68218123055e-11
9.68301883649e-10
-2.52805995383e-09
6.60037245492e-13
7.49338197725e-11
9.79059346945e-10
-2.93537287568e-09
8.60645912839e-11
9.81990613382e-10
-3.30680453805e-09
8.22083380433e-11
9.83421668974e-10
-3.62985521256e-09
6.63271768241e-11
9.83846317794e-10
-3.89315677457e-09
4.17466552529e-11
9.83797453039e-10
-4.0878275963e-09
1.19860259359e-11
9.83667286886e-10
-4.20761482622e-09
-1.9426049469e-11
9.83628207257e-10
-4.24836641018e-09
-4.91227983287e-11
9.83542814647e-10
-4.20740986835e-09
-7.35686891609e-11
9.83542190339e-10
-4.08743163548e-09
-8.92376804456e-11
9.83449616004e-10
-3.89259592211e-09
-9.27926744053e-11
9.82870094889e-10
-3.62916859246e-09
-8.12549020302e-11
9.81272929196e-10
-3.30604241179e-09
-5.26099473758e-11
9.78159313211e-10
-2.93457271006e-09
9.67225735076e-10
-2.52725016534e-09
-4.50330151259e-12
4.59799203989e-11
-2.3018153736e-09
6.07578140007e-13
7.71903701868e-10
7.62871852403e-11
-2.71336016243e-09
7.75477455819e-10
8.77892522303e-11
-3.08429731971e-09
7.77993402866e-10
8.36597909145e-11
-3.40447383932e-09
7.79859553604e-10
6.73527834358e-11
-3.66400822869e-09
7.81081667975e-10
4.23445970913e-11
-3.85512269893e-09
7.81869767993e-10
1.21745270089e-11
-3.97221536244e-09
7.82286268209e-10
-1.96274302325e-11
-4.01172870901e-09
7.82367001187e-10
-4.97240069067e-11
-3.97201402234e-09
7.82117536827e-10
-7.4579431236e-11
-3.85473322529e-09
7.81527641166e-10
-9.06511701227e-11
-3.6634553077e-09
7.80553482259e-10
-9.44568780305e-11
-3.40379466962e-09
7.79129086581e-10
-8.25362082229e-11
-3.08354343043e-09
7.77036514943e-10
-5.169748962e-11
-2.71257007235e-09
7.74265539991e-10
-2.30105979119e-09
-4.47949278122e-12
7.70397982898e-10
3.10487498499e-12
-4.99068847472e-11
-3.43369250142e-10
-4.47348432504e-14
4.7276019989e-12
-5.56420663828e-11
-3.78569030539e-10
5.37409158568e-12
-6.16142349824e-11
-4.12068224934e-10
5.19940667153e-12
-6.71366164337e-11
-4.42292158016e-10
4.29681665097e-12
-7.17900927317e-11
-4.67636470443e-10
2.81389276875e-12
-7.53046030341e-11
-4.86792679167e-10
9.47353294524e-13
-7.7516062859e-11
-4.98896852105e-10
-1.05699553437e-12
-7.829841065e-11
-5.03248537349e-10
-2.91867829161e-12
-7.74997092061e-11
-4.98882571525e-10
-4.38969002271e-12
-7.52703608541e-11
-4.86764502894e-10
-5.27023475643e-12
-7.17397456928e-11
-4.67595114501e-10
-5.41579421751e-12
-6.70813485956e-11
-4.42238474381e-10
-4.73458531475e-12
-6.15612658327e-11
-4.12002713862e-10
-3.07925152961e-12
-5.56038880139e-11
-3.78490348934e-10
-4.98932720301e-11
-3.43270420479e-10
-1.17097255762e-14
6.8562405705e-12
-1.15823441427e-10
-9.81337741344e-10
-6.57949795429e-14
1.08168879641e-11
-1.27694917986e-10
-1.08350289169e-09
1.24588955754e-11
-1.39900328761e-10
-1.1807063639e-09
1.2105675735e-11
-1.5111006968e-10
-1.26835869225e-09
1.00241655453e-11
-1.60463028136e-10
-1.34184645045e-09
6.5811503345e-12
-1.67466859706e-10
-1.39738942239e-09
2.24870429319e-12
-1.7185078116e-10
-1.43246214348e-09
-2.40147061094e-12
-1.73402552411e-10
-1.4450293227e-09
-6.72515104028e-12
-1.71814011294e-10
-1.43242091575e-09
-1.01478159855e-11
-1.67390723731e-10
-1.39730806683e-09
-1.21938626819e-11
-1.60350498209e-10
-1.34172706741e-09
-1.25001400227e-11
-1.50979918448e-10
-1.26820374948e-09
-1.08043282507e-11
-1.39775002054e-10
-1.18051741264e-09
-6.79756135413e-12
-1.27600630353e-10
-1.08327641993e-09
-1.1578339604e-10
-9.81059561878e-10
-2.62750488633e-15
8.77633177537e-12
-1.72468509478e-10
-1.52890312895e-09
-1.13868935306e-13
1.40270166608e-11
-1.88508210794e-10
-1.69021848428e-09
1.62223663646e-11
-2.04795065328e-10
-1.84340265244e-09
1.57573408642e-11
-2.19662971978e-10
-1.98132620166e-09
1.30298543775e-11
-2.31985515629e-10
-2.09684267334e-09
8.5463244948e-12
-2.41153261453e-10
-2.18408802104e-09
2.9277397486e-12
-2.46867921826e-10
-2.23912236982e-09
-3.09425991497e-12
-2.48892873764e-10
-2.25878784486e-09
-8.70033028017e-12
-2.46825793744e-10
-2.23905453658e-09
-1.31549970553e-11
-2.4106666775e-10
-2.18395443057e-09
-1.58324354414e-11
-2.31858384695e-10
-2.09664721064e-09
-1.62297970297e-11
-2.19516705891e-10
-1.98107363621e-09
-1.39572157576e-11
-2.04656604718e-10
-1.84309678667e-09
-8.64444693852e-12
-1.88408364231e-10
-1.68985624592e-09
-1.72431359056e-10
-1.52846754003e-09
2.44898102153e-14
9.40130454843e-12
-2.18553640182e-10
-1.98229949092e-09
-1.34711196427e-13
1.51508419063e-11
-2.37227920688e-10
-2.19443110331e-09
1.75838265635e-11
-2.5588579799e-10
-2.39535630728e-09
1.70827849211e-11
-2.72755415717e-10
-2.57594029895e-09
1.41173155369e-11
-2.86634686834e-10
-2.72699917537e-09
9.26424342307e-12
-2.96894763525e-10
-2.84098572412e-09
3.2027609953e-12
-3.03265125998e-10
-2.91280385717e-09
-3.2872116809e-12
-3.05525337518e-10
-2.93839634966e-09
-9.33637871474e-12
-3.03226847024e-10
-2.91271127533e-09
-1.41612499003e-11
-2.9681692294e-10
-2.84080369936e-09
-1.70777257838e-11
-2.86521864485e-10
-2.72673354662e-09
-1.75113764613e-11
-2.72626962844e-10
-2.5755985116e-09
-1.5001754643e-11
-2.55767753366e-10
-2.39494525628e-09
-9.19362320278e-12
-2.37148892945e-10
-2.19395019125e-09
-2.18533007071e-10
-1.98173292162e-09
7.41528906519e-14
9.13638290804e-12
-2.53230174031e-10
-2.34748440274e-09
-1.40068698486e-13
1.48165206932e-11
-2.73275557584e-10
-2.60285069069e-09
1.72433255314e-11
-2.92893159376e-10
-2.84401178531e-09
1.67567735341e-11
-3.10396198083e-10
-3.06032020323e-09