/*--------------------------------*- C++ -*----------------------------------*\
  =========                 |
  \\      /  F ield         | OpenFOAM: The Open Source CFD Toolbox
   \\    /   O peration     | Website:  https://openfoam.org
    \\  /    A nd           | Version:  7
     \\/     M anipulation  |
\*---------------------------------------------------------------------------*/
FoamFile
{
    version     2.0;
    format      ascii;
    class       volScalarField;
    location    "0.64";
    object      p;
}
// * * * * * * * * * * * * * * * * * * * * * * * * * * * * * * * * * * * * * //

dimensions      [0 2 -2 0 0 0 0];

internalField   nonuniform List<scalar> 
22500
(
3.72700779225e-05
3.72645280078e-05
3.72621842319e-05
3.72592298174e-05
3.72569032807e-05
3.72551201094e-05
3.72540319003e-05
3.72536937356e-05
3.72541524185e-05
3.72553563588e-05
3.72572483829e-05
3.72596619252e-05
3.72626806008e-05
3.72650281908e-05
3.72705370725e-05
3.72036794134e-05
3.71947543561e-05
3.71895341597e-05
3.71840575234e-05
3.71796851542e-05
3.71763930564e-05
3.71743833237e-05
3.7173738031e-05
3.71745069956e-05
3.71766357947e-05
3.71800390583e-05
3.71845027824e-05
3.71900437241e-05
3.71952696981e-05
3.72041555917e-05
3.71396027448e-05
3.7127555437e-05
3.71199029088e-05
3.71122256883e-05
3.71060957589e-05
3.71015071563e-05
3.70987059482e-05
3.70977934238e-05
3.70988230574e-05
3.71017368394e-05
3.71064297265e-05
3.71126466416e-05
3.71203848798e-05
3.71280465919e-05
3.71400666136e-05
3.70825326752e-05
3.70679207108e-05
3.70584075461e-05
3.70490757678e-05
3.70416325693e-05
3.70360851115e-05
3.70327005437e-05
3.70315899214e-05
3.70328080658e-05
3.70362959619e-05
3.70419384014e-05
3.70494612124e-05
3.70588509631e-05
3.70683767301e-05
3.70829772564e-05
3.70294590228e-05
3.70126596805e-05
3.70016269704e-05
3.6991001802e-05
3.69825341448e-05
3.69762493454e-05
3.69724183141e-05
3.69711563747e-05
3.69725166331e-05
3.69764420414e-05
3.69828134654e-05
3.69913540068e-05
3.70020341702e-05
3.70130818619e-05
3.70298810834e-05
3.69796988975e-05
3.69610852122e-05
3.69488259438e-05
3.69372145118e-05
3.69279664187e-05
3.69211288996e-05
3.69169649433e-05
3.69155897517e-05
3.69170539207e-05
3.69213034555e-05
3.69282193705e-05
3.69375339452e-05
3.69491962097e-05
3.6961474136e-05
3.69800982759e-05
3.69334323969e-05
3.69133894359e-05
3.69001681054e-05
3.6887849686e-05
3.68780399175e-05
3.68708131146e-05
3.68664160053e-05
3.68649612207e-05
3.68664962283e-05
3.68709705631e-05
3.68782682073e-05
3.68881385766e-05
3.69005042243e-05
3.69137456579e-05
3.69338089738e-05
3.68906252823e-05
3.68695123536e-05
3.68555520678e-05
3.68427611492e-05
3.68325720997e-05
3.68250904225e-05
3.68205419501e-05
3.68190351638e-05
3.68206139624e-05
3.68252317817e-05
3.68327774075e-05
3.68430215864e-05
3.68558563458e-05
3.68698381991e-05
3.68909808175e-05
3.68510786238e-05
3.68292191766e-05
3.68147062793e-05
3.68016379239e-05
3.67912218434e-05
3.67835954479e-05
3.67789628787e-05
3.67774268522e-05
3.67790274852e-05
3.67837223691e-05
3.67914064802e-05
3.6801873095e-05
3.6814982187e-05
3.68295182268e-05
3.68514141775e-05
3.68145624097e-05
3.67922513095e-05
3.67773526734e-05
3.67641757855e-05
3.67536651514e-05
3.67459887574e-05
3.67413299533e-05
3.67397842216e-05
3.67413879522e-05
3.67461028364e-05
3.67538314484e-05
3.67643884974e-05
3.67776036914e-05
3.67925268648e-05
3.68148820298e-05
3.6780851797e-05
3.67583584497e-05
3.67432393261e-05
3.67301070954e-05
3.67196234749e-05
3.67119829862e-05
3.6707350537e-05
3.67058130184e-05
3.67074027803e-05
3.67120858093e-05
3.67197738119e-05
3.67303002839e-05
3.67434686881e-05
3.67586136584e-05
3.6781157462e-05
3.67497033953e-05
3.67273004537e-05
3.67121479843e-05
3.66992051208e-05
3.66888625268e-05
3.66813384595e-05
3.66767820447e-05
3.66752699062e-05
3.66768292599e-05
3.66814317053e-05
3.66889990903e-05
3.66993815938e-05
3.67123588013e-05
3.67275381624e-05
3.67499963085e-05
3.67207715879e-05
3.66988491384e-05
3.66839037722e-05
3.66712857954e-05
3.66611900956e-05
3.66538603981e-05
3.66494300238e-05
3.66479598922e-05
3.66494731162e-05
3.66539452782e-05
3.66613151071e-05
3.66714481337e-05
3.66840991045e-05
3.66990726707e-05
3.6721054138e-05
3.66937459087e-05
3.66727895362e-05
3.66582757949e-05
3.6646112866e-05
3.66363846805e-05
3.66293513666e-05
3.66251124349e-05
3.66237085688e-05
3.66251518756e-05
3.66294293615e-05
3.66365000427e-05
3.66462639716e-05
3.66584587637e-05
3.66730021182e-05
3.66940213551e-05
3.66696754084e-05
3.66484024112e-05
3.66346067413e-05
3.66230244184e-05
3.66138684509e-05
3.66073109032e-05
3.66033798054e-05
3.66020800975e-05
3.66034160915e-05
3.6607382573e-05
3.66139749668e-05
3.66231651066e-05
3.66347797764e-05
3.66486054315e-05
3.66699359509e-05
2.86428229264e-05
2.86447745069e-05
2.86462014841e-05
2.86475438114e-05
2.86487146894e-05
2.86496015157e-05
2.86501398403e-05
2.86502787425e-05
2.86500037895e-05
2.86493379168e-05
2.86483432505e-05
2.8647099694e-05
2.86457136263e-05
2.86442911383e-05
2.86423648092e-05
2.86505548584e-05
2.86528866727e-05
2.86546873076e-05
2.86563714215e-05
2.86578264862e-05
2.86589265426e-05
2.86595974076e-05
2.86597811828e-05
2.86594596622e-05
2.86586597241e-05
2.86574506581e-05
2.86559216596e-05
2.86541975376e-05
2.86524004513e-05
2.86500969317e-05
2.86606784796e-05
2.86638618116e-05
2.86663908167e-05
2.86687627635e-05
2.86708035669e-05
2.86723506021e-05
2.86733027499e-05
2.86735836813e-05
2.86731680431e-05
2.86720896102e-05
2.86704354523e-05
2.86683198819e-05
2.86659084903e-05
2.86633791645e-05
2.86602230402e-05
2.86741876255e-05
2.86787992268e-05
2.86824904887e-05
2.86859369368e-05
2.86888894787e-05
2.86911291836e-05
2.86925155604e-05
2.86929460586e-05
2.86923858153e-05
2.86908777016e-05
2.86885338544e-05
2.86855061304e-05
2.86820187238e-05
2.86783239792e-05
2.86737357153e-05
2.8691638228e-05
2.8698133822e-05
2.87032951679e-05
2.87080739222e-05
2.87121438619e-05
2.87152243459e-05
2.8717133979e-05
2.87177440352e-05
2.87170102181e-05
2.8714984411e-05
2.87118037668e-05
2.87076597985e-05
2.87028383657e-05
2.86976704281e-05
2.86911928436e-05
2.87126018764e-05
2.87212448191e-05
2.87280077489e-05
2.87342121886e-05
2.8739460538e-05
2.87434191043e-05
2.87458712641e-05
2.8746667157e-05
2.87457547991e-05
2.87431931588e-05
2.87391395099e-05
2.87338190068e-05
2.87275709848e-05
2.87207959616e-05
2.87121675612e-05
2.8736275779e-05
2.87471342919e-05
2.87554843578e-05
2.87630693042e-05
2.87694414112e-05
2.87742281012e-05
2.87771879454e-05
2.87781574697e-05
2.87770797912e-05
2.87740180654e-05
2.87691422921e-05
2.87627009176e-05
2.87550722283e-05
2.87467052791e-05
2.87358556948e-05
2.87618001406e-05
2.87747806879e-05
2.87845922494e-05
2.87934114422e-05
2.88007715748e-05
2.88062771072e-05
2.88096737064e-05
2.88107925335e-05
2.88095745712e-05
2.88060843725e-05
2.8800496292e-05
2.87930704604e-05
2.87842073345e-05
2.87743748726e-05
2.87613962688e-05
2.87883681535e-05
2.88032523117e-05
2.88143253162e-05
2.88241703733e-05
2.88323349362e-05
2.88384164245e-05
2.88421588819e-05
2.88433959164e-05
2.88420690865e-05
2.88382416179e-05
2.88320844461e-05
2.88238582758e-05
2.88139697382e-05
2.880287215e-05
2.87879838002e-05
2.88152756519e-05
2.88317559925e-05
2.88438477323e-05
2.88544795035e-05
2.88632440063e-05
2.88697452153e-05
2.88737352828e-05
2.88750569036e-05
2.88736548274e-05
2.88695883181e-05
2.8863018362e-05
2.88541965611e-05
2.88435221441e-05
2.88314027621e-05
2.88149120319e-05
2.88419338993e-05
2.88596471466e-05
2.88724965396e-05
2.88836711892e-05
2.88928306567e-05
2.88995962652e-05
2.89037367432e-05
2.8905109734e-05
2.89036653248e-05
2.88994566941e-05
2.88926291724e-05
2.88834169278e-05
2.88722010518e-05
2.88593219376e-05
2.88415930255e-05
2.88678563609e-05
2.88864136723e-05
2.88997637346e-05
2.89112552765e-05
2.89206192568e-05
2.89275042593e-05
2.89317043232e-05
2.89330974686e-05
2.89316414006e-05
2.89273809614e-05
2.89204405237e-05
2.89110283322e-05
2.88994975408e-05
2.88861170634e-05
2.88675404465e-05
2.88926319221e-05
2.8911668581e-05
2.89252964811e-05
2.89369101254e-05
2.89463068534e-05
2.89531777553e-05
2.89573525021e-05
2.89587371099e-05
2.89572972673e-05
2.89530692678e-05
2.89461490707e-05
2.8936708563e-05
2.89250580345e-05
2.89113997051e-05
2.88923411427e-05
2.8916152963e-05
2.89354029364e-05
2.89490424377e-05
2.8960561072e-05
2.89697866877e-05
2.89764833232e-05
2.89805344932e-05
2.89818756891e-05
2.89804861722e-05
2.89763881597e-05
2.89696474992e-05
2.89603824837e-05
2.89488298216e-05
2.89351612872e-05
2.89158870601e-05
2.89396965386e-05
2.89577480643e-05
2.89710110133e-05
2.89821552773e-05
2.89909336581e-05
2.89972493938e-05
2.9001050247e-05
2.9002307119e-05
2.90010080423e-05
2.8997166228e-05
2.89908116114e-05
2.89819978207e-05
2.89708222315e-05
2.89575330534e-05
2.89394562245e-05
2.95579611016e-05
2.95573317852e-05
2.95563385994e-05
2.95552536127e-05
2.9554224976e-05
2.95534101488e-05
2.95528968854e-05
2.955273345e-05
2.95529353137e-05
2.95534820011e-05
2.95543203844e-05
2.95553632926e-05
2.95564679607e-05
2.95574697361e-05
2.95581138121e-05
2.95586975348e-05
2.95581166888e-05
2.9557174001e-05
2.95561287866e-05
2.9555129315e-05
2.95543319665e-05
2.95538273056e-05
2.95536663095e-05
2.95538658412e-05
2.95544040511e-05
2.95552250414e-05
2.95562388013e-05
2.95573013687e-05
2.95582550487e-05
2.95588492784e-05
2.95598254663e-05
2.95593159206e-05
2.95584390936e-05
2.95574523279e-05
2.95564984697e-05
2.95557319031e-05
2.95552440443e-05
2.9555088134e-05
2.95552821843e-05
2.95558036229e-05
2.95565947119e-05
2.95575641723e-05
2.9558566861e-05
2.95594549688e-05
2.9559976334e-05
2.956061017e-05
2.95601556308e-05
2.95593230957e-05
2.95583838257e-05
2.95574705018e-05
2.95567338749e-05
2.95562634333e-05
2.95561128894e-05
2.95563007689e-05
2.95568045525e-05
2.95575666588e-05
2.95584969242e-05
2.95594510338e-05
2.95602936252e-05
2.95607603847e-05
2.9561151895e-05
2.95607690364e-05
2.95599931308e-05
2.95591218489e-05
2.9558270193e-05
2.95575819743e-05
2.95571418166e-05
2.95570012241e-05
2.95571781377e-05
2.95576510585e-05
2.95583650835e-05
2.95592346708e-05
2.95601207012e-05
2.95609056491e-05
2.95613011312e-05
2.9561686646e-05
2.95614202176e-05
2.9560738715e-05
2.95599753617e-05
2.95592228658e-05
2.95586133186e-05
2.95582231115e-05
2.95580991775e-05
2.95582580448e-05
2.95586800891e-05
2.95593154777e-05
2.95600865864e-05
2.95608645256e-05
2.95615553729e-05
2.95618335207e-05
2.95623705285e-05
2.95622766752e-05
2.95617321815e-05
2.95611189754e-05
2.95605034405e-05
2.95600018379e-05
2.95596802875e-05
2.95595793816e-05
2.95597136096e-05
2.95600657831e-05
2.9560592871e-05
2.95612274844e-05
2.95618553644e-05
2.95624098313e-05
2.95625151783e-05
2.95632949208e-05
2.95634247781e-05
2.95630539664e-05
2.95626241196e-05
2.95621745588e-05
2.95618027978e-05
2.95615635578e-05
2.95614902801e-05
2.9561595056e-05
2.95618635043e-05
2.95622601824e-05
2.95627291428e-05
2.95631739242e-05
2.95635552808e-05
2.95634376174e-05
2.95645035064e-05
2.95648914346e-05
2.95647194233e-05
2.95644921508e-05
2.9564224689e-05
2.9563994408e-05
2.95638445406e-05
2.9563801249e-05
2.95638741046e-05
2.95640516314e-05
2.95643060374e-05
2.95645930145e-05
2.95648357236e-05
2.95650189763e-05
2.95646438793e-05
2.95659982955e-05
2.95666569176e-05
2.95666944207e-05
2.9566673696e-05
2.9566591388e-05
2.95665042075e-05
2.95664444189e-05
2.95664312864e-05
2.95664720113e-05
2.95665578405e-05
2.95666682494e-05
2.95667700792e-05
2.95668067118e-05
2.95667813631e-05
2.95661362532e-05
2.95677495274e-05
2.95686670048e-05
2.95689102356e-05
2.95690873325e-05
2.95691822274e-05
2.95692315252e-05
2.95692573856e-05
2.95692728646e-05
2.95692830033e-05
2.9569281519e-05
2.9569254439e-05
2.95691788953e-05
2.95690180865e-05
2.95687878553e-05
2.95678846877e-05
2.95696982814e-05
2.9570840649e-05
2.95712752025e-05
2.95716338829e-05
2.95718912034e-05
2.95720653042e-05
2.95721692013e-05
2.95722106808e-05
2.95721928641e-05
2.95721116796e-05
2.95719587055e-05
2.95717203903e-05
2.95713782263e-05
2.95709572405e-05
2.95698299074e-05
2.9571759048e-05
2.95730836383e-05
2.95736930559e-05
2.95742139309e-05
2.95746150772e-05
2.95748992199e-05
2.95750717121e-05
2.95751359438e-05
2.95750934342e-05
2.95749419999e-05
2.95746777597e-05
2.9574295124e-05
2.95737907646e-05
2.95731953454e-05
2.95718864704e-05
2.95739097435e-05
2.95753829816e-05
2.95761218768e-05
2.9576768435e-05
2.95772791115e-05
2.95776471334e-05
2.95778718117e-05
2.95779531534e-05
2.95778916312e-05
2.95776861665e-05
2.95773367721e-05
2.9576843802e-05
2.95762136221e-05
2.95754891382e-05
2.95740314575e-05
2.95765426592e-05
2.95777012467e-05
2.95784818236e-05
2.9579194198e-05
2.95797604207e-05
2.95801718424e-05
2.95804234967e-05
2.95805134702e-05
2.95804413284e-05
2.95802072304e-05
2.95798128917e-05
2.95792634895e-05
2.95785673005e-05
2.95778021375e-05
2.95766585967e-05
2.61969671817e-05
2.61973368156e-05
2.61978265785e-05
2.61983304216e-05
2.61987940084e-05
2.61991601139e-05
2.61993929429e-05
2.61994685141e-05
2.61993786171e-05
2.61991330968e-05
2.61987579595e-05
2.61982930054e-05
2.6197791861e-05
2.61973161167e-05
2.6196951871e-05
2.61972387083e-05
2.61976181652e-05
2.61981196137e-05
2.61986390777e-05
2.61991168668e-05
2.61994950411e-05
2.61997356576e-05
2.61998136517e-05
2.61997201577e-05
2.6199465727e-05
2.61990776986e-05
2.61985978754e-05
2.61980824713e-05
2.61975943293e-05
2.61972237175e-05
2.61972853922e-05
2.61976562062e-05
2.6198150813e-05
2.61986685254e-05
2.61991471273e-05
2.61995282914e-05
2.61997716621e-05
2.61998510376e-05
2.61997569433e-05
2.61995005205e-05
2.61991101784e-05
2.61986292658e-05
2.61981159259e-05
2.61976320587e-05
2.61972709438e-05
2.61973360122e-05
2.61976989738e-05
2.61981889399e-05
2.6198701623e-05
2.61991782724e-05
2.61995599386e-05
2.61998045889e-05
2.61998850214e-05
2.61997912553e-05
2.61995348662e-05
2.61991450408e-05
2.61986661299e-05
2.61981572406e-05
2.61976763153e-05
2.6197322037e-05
2.61974244409e-05
2.6197781523e-05
2.6198270097e-05
2.61987769823e-05
2.61992505658e-05
2.61996312007e-05
2.61998761024e-05
2.61999571426e-05
2.61998640431e-05
2.61996085969e-05
2.61992206204e-05
2.61987450329e-05
2.61982412333e-05
2.61977608621e-05
2.61974112173e-05
2.61975332323e-05
2.61978884539e-05
2.61983774469e-05
2.61988800389e-05
2.61993510679e-05
2.61997311422e-05
2.61999764855e-05
2.62000583002e-05
2.61999658915e-05
2.61997113013e-05
2.61993248437e-05
2.61988519356e-05
2.6198352023e-05
2.61978691986e-05
2.61975218034e-05
2.61976656508e-05
2.6198023991e-05
2.61985191767e-05
2.61990218384e-05
2.61994936428e-05
2.61998754628e-05
2.62001225959e-05
2.62002056166e-05
2.62001134591e-05
2.61998583571e-05
2.6199471074e-05
2.61989975638e-05
2.61984973386e-05
2.61980066633e-05
2.61976557895e-05
2.61978357453e-05
2.61982055673e-05
2.61987142066e-05
2.61992223423e-05
2.61996993829e-05
2.62000859709e-05
2.62003367093e-05
2.62004215002e-05
2.62003290758e-05
2.62000717005e-05
2.61996805134e-05
2.61992019422e-05
2.61986955821e-05
2.61981902876e-05
2.61978267359e-05
2.61980556238e-05
2.61984476579e-05
2.61989757867e-05
2.61994945787e-05
2.61999803561e-05
2.62003738142e-05
2.62006291348e-05
2.6200715944e-05
2.62006229083e-05
2.62003621761e-05
2.61999649463e-05
2.61994778233e-05
2.61989602468e-05
2.61984343669e-05
2.61980477232e-05
2.61983330296e-05
2.61987568355e-05
2.61993076551e-05
2.61998395612e-05
2.62003349487e-05
2.62007351839e-05
2.62009946315e-05
2.62010831946e-05
2.62009896856e-05
2.62007259384e-05
2.6200322665e-05
2.61998260541e-05
2.61992948176e-05
2.61987451862e-05
2.61983260007e-05
2.61986677475e-05
2.61991295951e-05
2.61997029398e-05
2.62002472034e-05
2.62007501444e-05
2.62011545963e-05
2.62014160776e-05
2.62015055211e-05
2.62014122174e-05
2.62011473907e-05
2.62007405507e-05
2.62002365793e-05
2.61996926093e-05
2.6199119677e-05
2.61986618007e-05
2.61990492088e-05
2.61995522575e-05
2.62001456151e-05
2.62006993213e-05
2.62012056381e-05
2.62016099734e-05
2.62018702312e-05
2.62019592506e-05
2.62018672301e-05
2.62016043865e-05
2.62011981874e-05
2.62006910539e-05
2.62001374779e-05
2.61995442099e-05
2.61990447873e-05
2.61994549208e-05
2.6200001925e-05
2.62006141659e-05
2.62011745201e-05
2.62016798422e-05
2.62020794476e-05
2.62023348096e-05
2.62024220588e-05
2.62023324268e-05
2.6202075007e-05
2.62016739891e-05
2.62011680589e-05
2.62006078713e-05
2.61999956464e-05
2.61994519722e-05
2.61999021367e-05
2.6200504635e-05
2.62011194925e-05
2.6201673596e-05
2.62021654614e-05
2.62025491916e-05
2.6202792272e-05
2.62028748696e-05
2.62027902624e-05
2.62025454546e-05
2.62021605101e-05
2.62016683074e-05
2.62011145886e-05
2.62005002615e-05
2.61999008216e-05
2.62007911029e-05
2.62012425447e-05
2.62017676742e-05
2.62022436915e-05
2.62026639559e-05
2.6202988161e-05
2.62031916203e-05
2.62032604795e-05
2.62031898031e-05
2.62029848174e-05
2.62026595843e-05
2.62022391623e-05
2.62017639831e-05
2.62012404457e-05
2.6200791574e-05
2.49405980494e-05
2.49404052238e-05
2.49401299586e-05
2.49398192934e-05
2.49395231043e-05
2.49392833099e-05
2.49391323383e-05
2.49390847495e-05
2.49391446068e-05
2.49393050388e-05
2.49395488984e-05
2.49398475076e-05
2.49401636346e-05
2.49404394992e-05
2.49406457461e-05
2.49407680877e-05
2.49405869986e-05
2.49403254703e-05
2.4940023685e-05
2.49397335449e-05
2.49394976103e-05
2.49393483321e-05
2.49393011084e-05
2.49393604358e-05
2.49395190311e-05
2.4939759029e-05
2.49400509675e-05
2.49403574532e-05
2.49406213299e-05
2.49408149555e-05
2.49410332944e-05
2.49408649893e-05
2.49406204987e-05
2.49403303842e-05
2.49400500045e-05
2.49398205746e-05
2.49396745509e-05
2.49396281914e-05
2.49396865196e-05
2.49398420377e-05
2.49400762812e-05
2.49403590219e-05
2.49406530765e-05
2.49409005096e-05
2.49410796334e-05
2.49412276941e-05
2.49410629919e-05
2.49408264966e-05
2.49405411474e-05
2.49402650471e-05
2.49400385288e-05
2.49398936222e-05
2.4939847392e-05
2.49399053857e-05
2.49400599802e-05
2.49402922211e-05
2.49405711893e-05
2.49408598413e-05
2.49410987283e-05
2.49412736618e-05
2.49413462745e-05
2.49411789964e-05
2.49409453474e-05
2.49406613391e-05
2.49403867938e-05
2.49401612286e-05
2.49400164633e-05
2.49399700997e-05
2.49400279691e-05
2.49401824254e-05
2.49404142232e-05
2.49406921043e-05
2.49409793047e-05
2.49412146334e-05
2.49413920509e-05
2.4941416358e-05
2.49412434673e-05
2.4941012881e-05
2.49407303194e-05
2.49404581278e-05
2.4940234647e-05
2.49400909423e-05
2.49400447588e-05
2.49401020573e-05
2.49402553111e-05
2.4940485389e-05
2.49407612541e-05
2.49410468541e-05
2.49412792972e-05
2.49414610226e-05
2.49414565767e-05
2.49412804834e-05
2.49410557898e-05
2.49407782346e-05
2.49405122724e-05
2.49402942517e-05
2.49401540176e-05
2.49401088674e-05
2.4940164656e-05
2.49403141716e-05
2.49405389297e-05
2.49408089123e-05
2.49410894436e-05
2.4941316327e-05
2.49415004907e-05
2.4941484024e-05
2.49413105e-05
2.49410968947e-05
2.49408307344e-05
2.49405772332e-05
2.4940370023e-05
2.49402368631e-05
2.49401940067e-05
2.49402469448e-05
2.49403890364e-05
2.49406030458e-05
2.49408609207e-05
2.49411302013e-05
2.49413461413e-05
2.49415276067e-05
2.49415161594e-05
2.49413525231e-05
2.49411571444e-05
2.49409104775e-05
2.49406770284e-05
2.49404870063e-05
2.49403651805e-05
2.49403261049e-05
2.49403746752e-05
2.494050503e-05
2.4940701818e-05
2.4940939933e-05
2.49411900558e-05
2.49413879415e-05
2.49415592963e-05
2.49415676348e-05
2.49414220598e-05
2.49412525009e-05
2.49410336601e-05
2.49408282028e-05
2.49406619214e-05
2.49405557518e-05
2.49405219645e-05
2.49405646651e-05
2.49406789582e-05
2.49408519466e-05
2.49410623897e-05
2.49412850436e-05
2.49414574302e-05
2.49416102837e-05
2.49416487109e-05
2.49415286281e-05
2.49413912956e-05
2.4941207756e-05
2.4941037384e-05
2.49409006785e-05
2.49408139875e-05
2.49407868226e-05
2.49408223451e-05
2.49409167653e-05
2.49410600812e-05
2.49412357025e-05
2.49414234011e-05
2.4941563883e-05
2.49416908191e-05
2.49417618018e-05
2.49416721688e-05
2.49415714782e-05
2.49414294338e-05
2.49413001464e-05
2.49411979219e-05
2.49411338495e-05
2.49411143916e-05
2.49411416972e-05
2.49412131158e-05
2.49413218737e-05
2.49414566228e-05
2.49416031427e-05
2.49417071294e-05
2.49418031361e-05
2.49419005788e-05
2.49418426013e-05
2.49417817266e-05
2.49416862289e-05
2.49416031322e-05
2.49415393191e-05
2.49415002831e-05
2.49414893882e-05
2.49415076337e-05
2.49415536936e-05
2.49416238915e-05
2.49417126258e-05
2.49418128689e-05
2.49418772022e-05
2.49419410661e-05
2.49420721054e-05
2.4942047379e-05
2.49420203937e-05
2.49419704685e-05
2.49419333476e-05
2.49419073182e-05
2.49418926613e-05
2.49418899554e-05
2.49418995419e-05
2.49419208186e-05
2.49419530848e-05
2.49419959024e-05
2.49420508453e-05
2.49420815472e-05
2.49421110171e-05
2.49424114199e-05
2.49423369499e-05
2.49423092807e-05
2.49422809945e-05
2.49422699193e-05
2.4942265452e-05
2.49422645636e-05
2.494226652e-05
2.49422710157e-05
2.49422782352e-05
2.49422887683e-05
2.49423056358e-05
2.49423394063e-05
2.49423718297e-05
2.49424499064e-05
2.2757533052e-05
2.27576067922e-05
2.27577045276e-05
2.27578005352e-05
2.27578888386e-05
2.27579579478e-05
2.27580008311e-05
2.27580133207e-05
2.27579945343e-05
2.27579462859e-05
2.27578735516e-05
2.27577835766e-05
2.27576868006e-05
2.27575939051e-05
2.2757519942e-05
2.27576293663e-05
2.27577102818e-05
2.27578144314e-05
2.2757918366e-05
2.27580136112e-05
2.27580881922e-05
2.27581344905e-05
2.27581480274e-05
2.27581276825e-05
2.27580755231e-05
2.27579969692e-05
2.27578999597e-05
2.27577958336e-05
2.2757696019e-05
2.27576172429e-05
2.27576783695e-05
2.27577617677e-05
2.27578677525e-05
2.27579761507e-05
2.27580757945e-05
2.27581544674e-05
2.27582036905e-05
2.27582184794e-05
2.27581974308e-05
2.27581428394e-05
2.27580605684e-05
2.27579592022e-05
2.27578509839e-05
2.27577476907e-05
2.27576673053e-05
2.27577269382e-05
2.27578121622e-05
2.27579208642e-05
2.27580326431e-05
2.27581361168e-05
2.27582183166e-05
2.27582701877e-05
2.27582862497e-05
2.27582647949e-05
2.27582083142e-05
2.27581230403e-05
2.27580180947e-05
2.27579064442e-05
2.2757799578e-05
2.27577168078e-05
2.27577851255e-05
2.27578729768e-05
2.27579853573e-05
2.2758100025e-05
2.27582068379e-05
2.27582919615e-05
2.27583460484e-05
2.2758363149e-05
2.27583413922e-05
2.27582833505e-05
2.27581955876e-05
2.27580875964e-05
2.2757972887e-05
2.27578620951e-05
2.27577761477e-05
2.27578490698e-05
2.27579410488e-05
2.27580562224e-05
2.27581733844e-05
2.27582827348e-05
2.27583701486e-05
2.27584259924e-05
2.275844401e-05
2.27584221203e-05
2.2758362988e-05
2.27582733987e-05
2.27581631271e-05
2.27580460284e-05
2.27579314293e-05
2.27578420513e-05
2.2757917894e-05
2.27580136947e-05
2.27581316391e-05
2.2758250644e-05
2.27583617353e-05
2.27584507936e-05
2.27585079393e-05
2.27585266913e-05
2.27585047856e-05
2.275844497e-05
2.27583541705e-05
2.27582423731e-05
2.27581236049e-05
2.27580054997e-05
2.27579126037e-05
2.27579916432e-05
2.27580908321e-05
2.27582115951e-05
2.27583316199e-05
2.27584438286e-05
2.27585340165e-05
2.27585921601e-05
2.2758611512e-05
2.27585896992e-05
2.27585294867e-05
2.27584379424e-05
2.27583252123e-05
2.27582053732e-05
2.27580840809e-05
2.27579875294e-05
2.27580698167e-05
2.27581728314e-05
2.27582962112e-05
2.27584168012e-05
2.27585297119e-05
2.27586207395e-05
2.27586796542e-05
2.27586994976e-05
2.27586777994e-05
2.27586173342e-05
2.2758525301e-05
2.27584120145e-05
2.27582915264e-05
2.27581673444e-05
2.27580669627e-05
2.27581528788e-05
2.27582599308e-05
2.27583855566e-05
2.27585063947e-05
2.27586197447e-05
2.2758711439e-05
2.27587709832e-05
2.27587912405e-05
2.27587696379e-05
2.27587089812e-05
2.27586165689e-05
2.27585029349e-05
2.27583820896e-05
2.27582553644e-05
2.27581510332e-05
2.27582403194e-05
2.27583512821e-05
2.2758478828e-05
2.27585997529e-05
2.27587134596e-05
2.27588057328e-05
2.27588657902e-05
2.27588863686e-05
2.27588648396e-05
2.27588040184e-05
2.27587112634e-05
2.2758597377e-05
2.27584763835e-05
2.2758347607e-05
2.27582394861e-05
2.27583298073e-05
2.27584441682e-05
2.27585734195e-05
2.27586946988e-05
2.27588090106e-05
2.27589019363e-05
2.27589624571e-05
2.27589832641e-05
2.27589617759e-05
2.27589007322e-05
2.27588075005e-05
2.27586931183e-05
2.27585718015e-05
2.27584414095e-05
2.27583301214e-05
2.27584162173e-05
2.27585326488e-05
2.27586643192e-05
2.27587873302e-05
2.27589033451e-05
2.27589975134e-05
2.27590586213e-05
2.27590796472e-05
2.27590580816e-05
2.27589965737e-05
2.27589022233e-05
2.2758786236e-05
2.2758663324e-05
2.27585307591e-05
2.27584175404e-05
2.27585040294e-05
2.27586256518e-05
2.27587573958e-05
2.27588812724e-05
2.2758997866e-05
2.27590915741e-05
2.27591518993e-05
2.27591725326e-05
2.27591513609e-05
2.27590906477e-05
2.27589967518e-05
2.27588803091e-05
2.27587567661e-05
2.27586247031e-05
2.27585064765e-05
2.27587222392e-05
2.27588013674e-05
2.27589044112e-05
2.27590056808e-05
2.27591022755e-05
2.27591790709e-05
2.27592279471e-05
2.27592445307e-05
2.27592273675e-05
2.27591780708e-05
2.27591011047e-05
2.27590047484e-05
2.27589042114e-05
2.27588017006e-05
2.27587253303e-05
2.1040085498e-05
2.10400403289e-05
2.10399588537e-05
2.10398653969e-05
2.10397789507e-05
2.10397104294e-05
2.1039666661e-05
2.10396519624e-05
2.10396675965e-05
2.10397116213e-05
2.10397791111e-05
2.10398618992e-05
2.10399491341e-05
2.10400244493e-05
2.10400776988e-05
2.10401436671e-05
2.10401023473e-05
2.10400268889e-05
2.1039938192e-05
2.1039855466e-05
2.10397894893e-05
2.10397472473e-05
2.10397330415e-05
2.10397481951e-05
2.10397906865e-05
2.10398554774e-05
2.10399343454e-05
2.10400166307e-05
2.10400865147e-05
2.10401351726e-05
2.10402146778e-05
2.10401762686e-05
2.10401074618e-05
2.10400239789e-05
2.10399454012e-05
2.10398821464e-05
2.10398414615e-05
2.10398277791e-05
2.10398424515e-05
2.10398834091e-05
2.10399455211e-05
2.10400205122e-05
2.10400979755e-05
2.1040162263e-05
2.10402067302e-05
2.10402651576e-05
2.1040227613e-05
2.1040162019e-05
2.1040081724e-05
2.10400053539e-05
2.1039943373e-05
2.1039903379e-05
2.10398898987e-05
2.10399043183e-05
2.10399445211e-05
2.10400053043e-05
2.10400783316e-05
2.10401533749e-05
2.10402146767e-05
2.10402579401e-05
2.10402963138e-05
2.10402582919e-05
2.10401941481e-05
2.10401155765e-05
2.10400403421e-05
2.10399790287e-05
2.10399393874e-05
2.1039925976e-05
2.10399402189e-05
2.10399799907e-05
2.10400400651e-05
2.10401121192e-05
2.10401860839e-05
2.10402459901e-05
2.1040289828e-05
2.10403157829e-05
2.10402758022e-05
2.10402130805e-05
2.10401359233e-05
2.10400617624e-05
2.10400012059e-05
2.10399619756e-05
2.10399486378e-05
2.1039962609e-05
2.10400018091e-05
2.10400610731e-05
2.10401322166e-05
2.10402053921e-05
2.10402644119e-05
2.10403094188e-05
2.10403275655e-05
2.10402862739e-05
2.10402253007e-05
2.10401497787e-05
2.10400773134e-05
2.1040018148e-05
2.10399797968e-05
2.10399666911e-05
2.10399802092e-05
2.10400183668e-05
2.10400762073e-05
2.10401458518e-05
2.10402178007e-05
2.10402757173e-05
2.10403216704e-05
2.10403354548e-05
2.10402941454e-05
2.10402354294e-05
2.10401626811e-05
2.10400931568e-05
2.10400364719e-05
2.10399997392e-05
2.10399871196e-05
2.10399999104e-05
2.10400362889e-05
2.10400916617e-05
2.10401586885e-05
2.10402283997e-05
2.10402844544e-05
2.10403304982e-05
2.10403433632e-05
2.10403032006e-05
2.10402478304e-05
2.1040179311e-05
2.10401142381e-05
2.10400614443e-05
2.10400273074e-05
2.10400155349e-05
2.10400272709e-05
2.10400609375e-05
2.10401124782e-05
2.10401753635e-05
2.10402414056e-05
2.10402944585e-05
2.10403394055e-05
2.10403540144e-05
2.10403159794e-05
2.10402652747e-05
2.10402026422e-05
2.1040143911e-05
2.10400966575e-05
2.1040066239e-05
2.10400557283e-05
2.10400660585e-05
2.104009595e-05
2.10401420869e-05
2.10401990413e-05
2.10402597303e-05
2.10403085066e-05
2.10403511082e-05
2.10403688199e-05
2.10403337114e-05
2.1040288904e-05
2.10402339047e-05
2.10401834545e-05
2.10401434615e-05
2.10401179465e-05
2.10401091371e-05
2.10401177008e-05
2.10401427057e-05
2.10401817621e-05
2.10402308397e-05
2.10402843669e-05
2.10403276185e-05
2.10403670556e-05
2.10403869466e-05
2.10403548129e-05
2.10403168929e-05
2.10402715207e-05
2.10402315226e-05
2.10402006698e-05
2.10401812858e-05
2.10401746361e-05
2.10401810595e-05
2.10402000316e-05
2.10402301928e-05
2.10402692284e-05
2.10403135628e-05
2.1040350104e-05
2.10403862749e-05
2.10404041464e-05
2.10403739419e-05
2.10403445722e-05
2.10403114063e-05
2.10402844757e-05
2.10402647773e-05
2.10402528299e-05
2.10402487911e-05
2.10402527003e-05
2.10402644129e-05
2.10402836646e-05
2.10403100361e-05
2.1040342546e-05
2.10403707295e-05
2.10404046631e-05
2.10404174738e-05
2.10403903527e-05
2.10403705349e-05
2.10403515336e-05
2.10403392418e-05
2.10403316507e-05
2.10403275038e-05
2.10403262175e-05
2.10403275575e-05
2.10403316383e-05
2.1040339095e-05
2.10403511603e-05
2.10403698453e-05
2.10403886779e-05
2.10404187063e-05
2.1040471593e-05
2.10404310176e-05
2.10404125902e-05
2.10404001334e-05
2.1040395177e-05
2.10403933222e-05
2.10403927993e-05
2.10403928416e-05
2.10403931456e-05
2.10403939612e-05
2.10403960058e-05
2.10404011457e-05
2.10404138187e-05
2.10404318692e-05
2.10404739841e-05
1.91594936197e-05
1.91594973793e-05
1.9159499388e-05
1.9159495015e-05
1.91594892237e-05
1.91594831499e-05
1.91594781908e-05
1.91594745517e-05
1.91594723583e-05
1.91594715577e-05
1.91594719781e-05
1.91594731378e-05
1.91594742275e-05
1.91594732259e-05
1.91594697879e-05
1.9159513258e-05
1.91595210844e-05
1.91595258545e-05
1.91595249359e-05
1.91595220226e-05
1.91595181691e-05
1.91595145861e-05
1.91595113547e-05
1.91595085771e-05
1.91595062173e-05
1.91595042321e-05
1.91595023193e-05
1.91595000221e-05
1.91594957717e-05
1.91594900294e-05
1.91595276521e-05
1.91595376071e-05
1.91595442044e-05
1.91595465399e-05
1.91595465238e-05
1.91595451162e-05
1.91595430755e-05
1.91595404496e-05
1.91595372785e-05
1.9159533612e-05
1.91595295287e-05
1.91595249435e-05
1.91595197604e-05
1.91595127418e-05
1.91595052766e-05
1.9159541765e-05
1.91595524768e-05
1.91595607559e-05
1.91595652739e-05
1.91595675518e-05
1.91595681547e-05
1.91595674344e-05
1.91595653674e-05
1.91595619421e-05
1.91595572892e-05
1.91595516028e-05
1.91595449846e-05
1.91595376389e-05
1.91595284553e-05
1.91595197054e-05
1.91595561587e-05
1.91595675088e-05