/*--------------------------------*- C++ -*----------------------------------*\
  =========                 |
  \\      /  F ield         | OpenFOAM: The Open Source CFD Toolbox
   \\    /   O peration     | Website:  https://openfoam.org
    \\  /    A nd           | Version:  7
     \\/     M anipulation  |
\*---------------------------------------------------------------------------*/
FoamFile
{
    version     2.0;
    format      ascii;
    class       volVectorField;
    location    "0.64";
    object      U;
}
// * * * * * * * * * * * * * * * * * * * * * * * * * * * * * * * * * * * * * //

dimensions      [0 1 -1 0 0 0 0];

internalField   nonuniform List<vector> 
22500
(
(2.56284538121e-05 2.84080404236e-05 0.000521242995069)
(2.40697972123e-05 3.18197482255e-05 0.000547499501355)
(2.11779705276e-05 3.53916517015e-05 0.000571596554766)
(1.78902173745e-05 3.84682723521e-05 0.000592388430287)
(1.39537496711e-05 4.10449754189e-05 0.000609210068346)
(9.56934170723e-06 4.29759782153e-05 0.000621565915848)
(4.85432697388e-06 4.41722052765e-05 0.000629120683844)
(-3.24362907361e-08 4.45770926028e-05 0.000631673099018)
(-4.91769807576e-06 4.41703033998e-05 0.000629116489097)
(-9.62844799459e-06 4.29729012459e-05 0.000621557771667)
(-1.40050031496e-05 4.10426509828e-05 0.000609198503438)
(-1.79299857687e-05 3.84685287325e-05 0.000592374977744)
(-2.12018745723e-05 3.53985509378e-05 0.00057158301777)
(-2.40759939074e-05 3.18338980276e-05 0.000547485783593)
(-2.56203015424e-05 2.84263556666e-05 0.000521210033066)
(7.35883485001e-05 8.19098543324e-05 0.0012920987176)
(6.88609565274e-05 9.15486520901e-05 0.00134498879173)
(6.07004347452e-05 0.000101458013053 0.00139295087468)
(5.11574548515e-05 0.00011004846243 0.00143384737985)
(3.98775973203e-05 0.000117228540382 0.00146657898704)
(2.73282531514e-05 0.000122604303735 0.00149041766297)
(1.38625102926e-05 0.000125934580579 0.00150490814131)
(-7.83717798313e-08 0.000127062514003 0.00150978268993)
(-1.4015940911e-05 0.000125933613106 0.00150489343427)
(-2.74719392967e-05 0.000122603928145 0.00149038937643)
(-4.00038209143e-05 0.000117232572337 0.00146653931681)
(-5.12575212947e-05 0.000110060384429 0.0014338013631)
(-6.07646898068e-05 0.000101484878522 0.00139290467472)
(-6.88853280912e-05 9.15900995258e-05 0.00134494260033)
(-7.35770368785e-05 8.19595717878e-05 0.0012920128629)
(0.000107660341715 0.000119849864107 0.00186364388272)
(0.000100166908434 0.000133035658122 0.00192796918721)
(8.80214796342e-05 0.00014649818586 0.00198568009125)
(7.38966483475e-05 0.000158113216152 0.00203440189572)
(5.74431966083e-05 0.000167777114214 0.00207303528217)
(3.92823856463e-05 0.000174988139476 0.00210096537159)
(1.99012395771e-05 0.000179446883814 0.00211785496159)
(-1.10159526628e-07 0.000180957167609 0.0021235159216)
(-2.01173314008e-05 0.00017945114676 0.00211783225088)
(-3.94858669458e-05 0.000174998498262 0.00210092193467)
(-5.76243258253e-05 0.000167797695702 0.00207297486909)
(-7.40441786159e-05 0.000158147763944 0.00203433217026)
(-8.81225119514e-05 0.000146552419716 0.00198561115885)
(-0.000100215746705 0.000133106689795 0.0019279029509)
(-0.000107658300409 0.000119928353809 0.00186352757423)
(0.000131485431106 0.000146311146278 0.00228999405799)
(0.000121645732507 0.000161170161182 0.00235666825294)
(0.000106491876408 0.000176321141311 0.0024158108829)
(8.90490901385e-05 0.000189278308144 0.00246523400095)
(6.90144354234e-05 0.000200006514198 0.00250404955083)
(4.70881774338e-05 0.000207978652043 0.00253189582345)
(2.38226874612e-05 0.000212896152014 0.00254864336661)
(-1.3139802259e-07 0.000214560980661 0.00255423705147)
(-2.40806991621e-05 0.000212905347541 0.00254861707482)
(-4.7331781314e-05 0.000207998856737 0.00253184592185)
(-6.92327625632e-05 0.000200041485198 0.00250398090567)
(-8.92298962882e-05 0.000189331455 0.00246515583487)
(-0.000106620910344 0.000176396275829 0.00241573610256)
(-0.000121716804208 0.000161262347419 0.00235660149503)
(-0.000131496916541 0.000146410338972 0.00228987984481)
(0.000147715910312 0.000164328796071 0.00260790448555)
(0.000135935886891 0.000179598665024 0.00267150894596)
(0.000118538444316 0.000195217345408 0.00272724566745)
(9.87465190043e-05 0.000208440056649 0.00277331394325)
(7.63083532277e-05 0.000219333389539 0.00280912359319)
(5.19510008533e-05 0.000227394564014 0.00283459813664)
(2.62476506638e-05 0.00023235463268 0.0028498284587)
(-1.44703015894e-07 0.000234032771301 0.00285489735724)
(-2.65319465112e-05 0.000232367697608 0.00284980258592)
(-5.22198641917e-05 0.000227422300133 0.00283454955845)
(-7.65504052312e-05 0.000219378898076 0.00280905783069)
(-9.89493624766e-05 0.000208506051924 0.00277324100191)
(-0.000118687978662 0.000195306317616 0.00272718027571)
(-0.000136025890373 0.000179703995344 0.00267145851056)
(-0.000147742607235 0.000164441615601 0.00260781599395)
(0.000157837529973 0.000175540342209 0.00284366078247)
(0.000144501607505 0.000190296831049 0.0029011381201)
(0.000125508730838 0.000205506574867 0.00295086782511)
(0.000104168913295 0.000218246568872 0.00299148875581)
(8.02737679846e-05 0.000228688860361 0.00302271277405)
(5.45363071348e-05 0.000236385294521 0.00304471987318)
(2.7518548148e-05 0.00024110952353 0.00305779095475)
(-1.51911409333e-07 0.000242706960405 0.00306212522047)
(-2.78171674214e-05 0.000241125454693 0.00305776833767)
(-5.48191705291e-05 0.00023641845773 0.00304467809115)
(-8.0529506364e-05 0.000228741602942 0.00302265767098)
(-0.000104385506855 0.000218320766167 0.00299143071717)
(-0.000125673191296 0.000205603549136 0.00295082284852)
(-0.000144608112919 0.000190409048554 0.00290111569943)
(-0.000157879794317 0.000175660665487 0.00284361005853)
(0.000163007680575 0.000181199673802 0.00301678265685)
(0.000148480044039 0.000194785951024 0.00306665578498)
(0.000128450939459 0.000208967035186 0.00310926376328)
(0.000106229034463 0.000220717509797 0.00314364220613)
(8.16415311785e-05 0.000230300002965 0.00316975320909)
(5.53549340231e-05 0.000237336559787 0.00318797059865)
(2.78975968176e-05 0.00024164614992 0.00319871280445)
(-1.54564220072e-07 0.000243102728104 0.00320226114416)
(-2.82015920602e-05 0.000241663812052 0.00319869505336)
(-5.56434079382e-05 0.00023737288556 0.00318793869047)
(-8.19035119858e-05 0.000230356558789 0.0031697131697)
(-0.000106453254189 0.000220795386769 0.00314360471685)
(-0.000128625786943 0.000209066553487 0.00310924587864)
(-0.000148600569946 0.000194899499009 0.00306666795137)
(-0.000163065121291 0.00018132202899 0.00301677412322)
(0.000164257053835 0.000182440679695 0.00314212011054)
(0.000148876708828 0.000194431757699 0.00318397326938)
(0.000128286946157 0.000207176287147 0.00321932683249)
(0.000105723844882 0.000217624249235 0.00324751308303)
(8.10453041895e-05 0.000226102934357 0.00326865860596)
(5.48473939099e-05 0.000232309243841 0.00328325290776)
(2.76101235222e-05 0.000236103160984 0.00329179182575)
(-1.53928915238e-07 0.000237385129275 0.00329460120374)
(-2.79130478476e-05 0.000236121430531 0.00329177953112)
(-5.51354661642e-05 0.000232346475097 0.00328323199166)
(-8.13082353247e-05 0.000226160042155 0.00326863529549)
(-0.000105951324094 0.000217701625606 0.00324749848324)
(-0.000128468889879 0.000207273563257 0.00321933899137)
(-0.000149008972696 0.000194541514981 0.00318402223883)
(-0.000164328774559 0.000182560269596 0.00314215306798)
(0.000162465586874 0.000180242841591 0.00323111926136)
(0.000146538455032 0.000190396717614 0.00326522806134)
(0.00012578536152 0.000201458162366 0.00329381357032)
(0.000103311768945 0.000210432015776 0.00331637532473)
(7.90041437232e-05 0.000217681767606 0.00333310393386)
(5.33720677431e-05 0.000222976153771 0.00334452469656)
(2.68385883352e-05 0.000226208229305 0.00335115335537)
(-1.51108368423e-07 0.00022730038907 0.00335332573304)
(-2.7136175437e-05 0.000226226021272 0.00335114639422)
(-5.36557753157e-05 0.000223012153241 0.00334451452448)
(-7.92645750229e-05 0.000217736407921 0.00333309708454)
(-0.000103539670346 0.00021050518152 0.00331638353025)
(-0.00012597212981 0.000201549065744 0.00329385580653)
(-0.000146680557862 0.000190498579813 0.00326531248889)
(-0.000162550337554 0.000180355550883 0.00323118936825)
(0.000158361409857 0.000175423292432 0.00329264658135)
(0.000142153270091 0.000183632637545 0.00331970802511)
(0.000121562400161 0.000192878430301 0.00334236417494)
(9.95159902991e-05 0.000200301969421 0.0033601433685)
(7.5926731499e-05 0.000206277223148 0.00337320187487)
(5.12088727872e-05 0.000210636211611 0.00338203006206)
(2.57247395747e-05 0.000213295810743 0.00338711560882)
(-1.47026033735e-07 0.000214194892546 0.00338877654469)
(-2.60145420987e-05 0.000213312192339 0.00338711340203)
(-5.14859862434e-05 0.000210669192214 0.00338202948898)
(-7.61827487792e-05 0.00020632689609 0.00337320987251)
(-9.97427854411e-05 0.00020036796951 0.00336017244114)
(-0.000121752698571 0.000192959814259 0.00334243406663)
(-0.00014230400079 0.000183723515375 0.00331982340466)
(-0.000158458098197 0.000175525953566 0.00329274641593)
(0.000152541701514 0.000168660784143 0.00333357956066)
(0.000136272349982 0.000174908408232 0.00335452164632)
(0.000116104706175 0.000182280637567 0.00337224584112)
(9.47463194703e-05 0.000188138783544 0.00338617785384)
(7.212979713e-05 0.000192845285703 0.0033963598448)
(4.85725085278e-05 0.000196281710745 0.00340319552343)
(2.43764801171e-05 0.00019837961727 0.00340711075865)
(-1.42448829603e-07 0.000199089419199 0.00340838652967)
(-2.46575524504e-05 0.000198393860738 0.00340711240186)
(-4.88422163118e-05 0.00019631027315 0.00340320270492)
(-7.23807568519e-05 0.000192888099244 0.00339637987558)
(-9.49714801078e-05 0.000188195421276 0.00338622398345)
(-0.000116297952634 0.000182350308795 0.00337233830554)
(-0.000136430853486 0.000174986249003 0.00335466001173)
(-0.000152649555408 0.000168751433201 0.00333369803814)
(0.000145491148232 0.000160521741339 0.00335928829148)
(0.000129333020891 0.000164833923677 0.00337515181949)
(0.000109795697027 0.000170318397127 0.00338896072746)
(8.93227593469e-05 0.000174635913684 0.00339993421683)
(6.78563225434e-05 0.000178112860288 0.0034079607319)
(4.56246650187e-05 0.00018066084682 0.00341333538024)
(2.28740406765e-05 0.00018221909371 0.00341640600962)
(-1.37976782028e-07 0.000182747036228 0.00341740610509)
(-2.31466331408e-05 0.000182230704026 0.00341641023686)
(-4.58872746065e-05 0.000180684112352 0.00341334761651)
(-6.81025561277e-05 0.00017814761118 0.0034079883584)
(-8.95465460867e-05 0.000174681844419 0.00339999089545)
(-0.000109991824677 0.000170375039803 0.00338906689576)
(-0.000129498676593 0.000164897476193 0.00337530071696)
(-0.000145609535005 0.000160598745234 0.00335940917921)
(0.000137590017796 0.000151452218696 0.00337410043535)
(0.000121691426614 0.000153862942098 0.00338598657278)
(0.000102949453942 0.000157483126224 0.00339680114465)
(8.34986341223e-05 0.000160319620371 0.00340552927854)
(6.3289792615e-05 0.000162629365103 0.00341194007656)
(4.24825895794e-05 0.000164332681665 0.00341623874039)
(2.12742315921e-05 0.00016537652115 0.00341869747149)
(-1.34067955609e-07 0.000165730598704 0.00341949947124)
(-2.15394352913e-05 0.000165385315461 0.00341870248707)
(-4.2739203032e-05 0.000164350291915 0.00341625203574)
(-6.35323491573e-05 0.000162655606304 0.00341196832184)
(-8.3721842453e-05 0.000160354347771 0.00340558562654)
(-0.000103148796555 0.000157526302302 0.00339690605359)
(-0.000121863919598 0.000153911806417 0.00338612750412)
(-0.000137718461726 0.000151514620547 0.00337420243293)
(0.00012917396665 0.000141755095037 0.00338183935859)
(0.000113707579036 0.000142318290777 0.00339089184907)
(9.58445909525e-05 0.000144127359926 0.00339938395475)
(7.74648390787e-05 0.00014559307447 0.00340625087016)
(5.85532221635e-05 0.000146812893848 0.00341128986655)
(3.9219290403e-05 0.000147716599569 0.00341467437002)
(1.96111276638e-05 0.000148269620409 0.00341661678087)
(-1.30965976276e-07 0.000148457397445 0.00341725196721)
(-1.9870580565e-05 0.000148275714966 0.00341662013245)
(-3.94714886167e-05 0.000147728791264 0.00341468311515)
(-5.87935352373e-05 0.000146831067434 0.00341130844895)
(-7.76885504358e-05 0.000145617194206 0.00340628969586)
(-9.60475499087e-05 0.000144157682333 0.00339946260164)
(-0.000113886672164 0.000142353234067 0.00339099697123)
(-0.00012931228467 0.000141803674929 0.00338189758303)
(0.000120726018847 0.000131642603938 0.00338660722217)
(0.000105832458337 0.000129678838381 0.00339385569364)
(8.86376046554e-05 0.00013009931154 0.00340010318024)
(7.13055780792e-05 0.000130406175412 0.00340497722829)
(5.36904241016e-05 0.000130681217639 0.0034084844897)
(3.58604083618e-05 0.000130880917322 0.00341082722821)
(1.78975428959e-05 0.000131000803472 0.00341217421402)
(-1.28753014501e-07 0.000131041939798 0.00341261556584)
(-1.81529618738e-05 0.000131004506932 0.00341217365512)
(-3.61097719822e-05 0.000130888316876 0.00341082610198)
(-5.39298691549e-05 0.000130692272524 0.0034084830978)
(-7.15309206132e-05 0.000130420881482 0.00340497914054)
(-8.88445866111e-05 0.000130118213493 0.00340012412075)
(-0.000106017054204 0.000129700784085 0.00339386999044)
(-0.000120874163862 0.000131678156177 0.00338662485843)
(8.34689152121e-07 1.25612393269e-06 0.000345006655358)
(6.23874123631e-07 1.57700608867e-06 0.000362777190245)
(5.61935567607e-07 1.77941923941e-06 0.000379211919528)
(4.61501109104e-07 1.96042609258e-06 0.000393518477543)
(3.52694964011e-07 2.10425774972e-06 0.000405154497357)
(2.44461548412e-07 2.20598212424e-06 0.000413728168795)
(1.37109158695e-07 2.26689266221e-06 0.00041898200075)
(3.1054386873e-08 2.28855883199e-06 0.000420763388209)
(-7.76646675336e-08 2.27100211397e-06 0.000418985462086)
(-1.93143911796e-07 2.21292285159e-06 0.000413734305397)
(-3.14852110189e-07 2.11179874522e-06 0.000405161863047)
(-4.39199291411e-07 1.96645878486e-06 0.000393525263617)
(-5.54452471223e-07 1.78038851659e-06 0.000379216726588)
(-6.27888149055e-07 1.5731283382e-06 0.000362774148668)
(-8.42629711186e-07 1.24749006467e-06 0.000344974711318)
(7.06072004483e-06 8.41277564727e-06 0.000970868170703)
(6.38260468999e-06 1.01169950967e-05 0.00101761611892)
(5.85018506648e-06 1.16379904625e-05 0.00106083999024)
(5.05807137921e-06 1.30366723579e-05 0.00109841448361)
(4.03141843636e-06 1.42111612786e-05 0.00112892079542)
(2.82117178295e-06 1.50942875009e-05 0.0011513650882)
(1.4779027469e-06 1.56435417794e-05 0.00116510119816)
(6.58510903556e-08 1.58329389009e-05 0.00116974667445)
(-1.35202214984e-06 1.56521743313e-05 0.00116510972265)
(-2.71292755139e-06 1.5109036889e-05 0.00115137999306)
(-3.95194534666e-06 1.42275812206e-05 0.00112893826691)
(-5.01260227117e-06 1.30502463923e-05 0.00109843005675)
(-5.83653835451e-06 1.16414679085e-05 0.00106085011811)
(-6.39318467806e-06 1.01099008418e-05 0.00101760501015)
(-7.07891107463e-06 8.39479847761e-06 0.000970786517003)
(1.60289149872e-05 1.82712614198e-05 0.00153545995847)
(1.47277692067e-05 2.1646518357e-05 0.00160503199629)
(1.34564666817e-05 2.48035347977e-05 0.00166915473646)
(1.16300484844e-05 2.77009383715e-05 0.0017246972937)
(9.26694002315e-06 3.01390975791e-05 0.00176963013384)
(6.46845279603e-06 3.19778270466e-05 0.00180258902192)
(3.35515145409e-06 3.31226715918e-05 0.00182271305949)
(7.81252270526e-08 3.35147845999e-05 0.00182950275273)
(-3.20590777392e-06 3.31319766559e-05 0.0018227240486)
(-6.34034892119e-06 3.19936981268e-05 0.00180260809181)
(-9.17310669788e-06 3.01568801956e-05 0.00176965249977)
(-1.15773525441e-05 2.77157755887e-05 0.00172471770556)
(-1.34425873472e-05 2.48079527463e-05 0.00166916894863)
(-1.47428562096e-05 2.16382490227e-05 0.00160501917279)
(-1.60527958661e-05 1.82495281825e-05 0.00153534953092)
(2.59688805312e-05 2.89303855452e-05 0.00203838491733)
(2.38811862681e-05 3.39135844705e-05 0.00212412349231)
(2.17148781157e-05 3.85910052951e-05 0.00220269353684)
(1.86957083202e-05 4.28689147415e-05 0.00227036918178)
(1.48518355809e-05 4.64576257657e-05 0.00232482399192)
(1.0333837873e-05 4.91580959685e-05 0.0023645882108)
(5.33068109954e-06 5.08364213849e-05 0.00238878597296)
(7.55458980931e-08 5.14090117221e-05 0.00239692934235)
(-5.18656427772e-06 5.08452072483e-05 0.0023887973281)
(-1.0210644767e-05 4.91731368132e-05 0.00236460818725)
(-1.47623730094e-05 4.64747397267e-05 0.00232484846258)
(-1.86471154842e-05 4.28834795202e-05 0.00227039411023)
(-2.17053565642e-05 3.85964365947e-05 0.00220271575015)
(-2.39003056772e-05 3.39060993645e-05 0.00212412122433)
(-2.59961970229e-05 2.8908396244e-05 0.00203827548161)
(3.57019344572e-05 3.91547160866e-05 0.00247773270697)
(3.27129639738e-05 4.55028030817e-05 0.00257287853281)
(2.95924923334e-05 5.13817895317e-05 0.00265940710148)
(2.53588943762e-05 5.67366026625e-05 0.0027334094883)
(2.00703650086e-05 6.12074750397e-05 0.00279255617065)
(1.39196933219e-05 6.45590058616e-05 0.00283550379326)
(7.15193523664e-06 6.66362349996e-05 0.00286153047546)
(6.45929940296e-08 6.73427104397e-05 0.00287026558308)
(-7.02898458403e-06 6.66438062581e-05 0.00286154143517)
(-1.38153386917e-05 6.45720390891e-05 0.00283552388505)
(-1.9995857539e-05 6.12224713633e-05 0.00279258314217)
(-2.53207739722e-05 5.67495568272e-05 0.00273344194084)
(-2.95896011139e-05 5.13872439869e-05 0.00265944446861)
(-3.27359714713e-05 4.54967351687e-05 0.00257290029008)
(-3.57314427802e-05 3.91339078944e-05 0.00247764907774)
(4.45233823589e-05 4.82505600727e-05 0.0028533896396)
(4.05760640466e-05 5.56358541649e-05 0.00295174035287)
(3.65073532366e-05 6.23167159712e-05 0.0030403988755)
(3.1125617437e-05 6.83743682461e-05 0.00311561580805)
(2.45348634522e-05 7.34023885685e-05 0.00317527802425)
(1.69601725184e-05 7.71537633819e-05 0.00321832270179)
(8.68563699017e-06 7.94709990145e-05 0.00324428559371)
(4.98843693469e-08 8.02568216123e-05 0.00325297463776)
(-8.59101750921e-06 7.94768886082e-05 0.00324429650285)
(-1.68808437879e-05 7.71639402967e-05 0.00321834402289)
(-2.4479993139e-05 7.34141334613e-05 0.00317531002173)
(-3.11008085948e-05 6.83845322588e-05 0.00311566048521)
(-3.65119390767e-05 6.23210307007e-05 0.00304045924669)
(-4.06027844393e-05 5.56305507781e-05 0.00295179781345)
(-4.45547955842e-05 4.82312770605e-05 0.00285334842009)
(5.20022871503e-05 5.58219673741e-05 0.00316765235547)
(4.70976710108e-05 6.38831613515e-05 0.00326404153253)
(4.21359847418e-05 7.09542240153e-05 0.00335012623701)
(3.573328743e-05 7.73335561035e-05 0.00342255076561)
(2.80467931283e-05 8.25920147107e-05 0.0034795397905)
(1.93232801374e-05 8.64939426582e-05 0.00352037488645)
(9.86722731814e-06 8.88949443638e-05 0.00354488108015)
(3.44164786581e-08 8.9706849301e-05 0.00355305906322)
(-9.80237908392e-06 8.88989546588e-05 0.00354489282775)
(-1.92702336682e-05 8.65008343682e-05 0.00352039936032)
(-2.80125921664e-05 8.25998469463e-05 0.00347957995022)
(-3.57224748486e-05 7.73400352521e-05 0.0034226122627)
(-4.21483541506e-05 7.09563745443e-05 0.00335021603422)
(-4.71278886717e-05 6.38774413081e-05 0.00326414258061)
(-5.2035765558e-05 5.58039405913e-05 0.00316766269972)
(5.7910932544e-05 6.16830691505e-05 0.00342485136521)
(5.21023396636e-05 7.00619895156e-05 0.00351537306094)
(4.63414492464e-05 7.71463506533e-05 0.00359548933368)
(3.90845954295e-05 8.3500550645e-05 0.0036623529749)
(3.0541899331e-05 8.8696721907e-05 0.00371455220117)
(2.09714940367e-05 9.2528823691e-05 0.00375169775543)
(1.06803920274e-05 9.48769028668e-05 0.00377387571249)
(1.98970627264e-08 9.56686068165e-05 0.00378125594852)
(-1.06435056354e-05 9.48790007316e-05 0.00377388917528)
(-2.09431960019e-05 9.25322907951e-05 0.00375172707558)
(-3.05273199917e-05 8.87003176696e-05 0.003714602903)
(-3.90872255084e-05 8.350278728e-05 0.00366243423175)
(-4.63614835759e-05 7.7145420778e-05 0.00359561194893)
(-5.21360745431e-05 7.00547840831e-05 0.00351552044026)
(-5.7946505479e-05 6.1665201654e-05 0.00342491527507)
(6.21793491377e-05 6.58056765078e-05 0.00363068653183)
(5.55616566368e-05 7.41732207201e-05 0.00371271006919)
(4.91215650889e-05 8.09547771529e-05 0.00378473893748)
(4.11984672228e-05 8.69938212427e-05 0.00384443814513)
(3.20485688212e-05 9.18870480753e-05 0.00389070953435)
(2.19315331613e-05 9.54710496827e-05 0.00392342300018)
(1.11413230925e-05 9.7657061352e-05 0.00394285903438)
(7.12078543078e-09 9.83919263842e-05 0.00394930993466)
(-1.1129082035e-05 9.76573213032e-05 0.00394287464577)
(-2.19251821003e-05 9.54711592891e-05 0.00392345783541)
(-3.20516406092e-05 9.18863150021e-05 0.00389077135046)
(-4.12135006774e-05 8.69914522082e-05 0.00384453925906)
(-4.91489466404e-05 8.09498939733e-05 0.00378489353657)
(-5.55989842944e-05 7.41633108865e-05 0.00371290050619)
(-6.22170395487e-05 6.57865417198e-05 0.0036307987905)
(6.48524652294e-05 6.82725322237e-05 0.00379157897951)
(5.75484639119e-05 7.63424274712e-05 0.00386363028963)
(5.05633313776e-05 8.25745591913e-05 0.00392656016597)
(4.21679919843e-05 8.80721326551e-05 0.00397845895655)
(3.26526964688e-05 9.24786553664e-05 0.00401844677252)
(2.22691872598e-05 9.5681512224e-05 0.00404655819564)
(1.12856975495e-05 9.76255051669e-05 0.00406318725888)
(-3.71303092336e-09 9.82769891251e-05 0.00406869399631)
(-1.12944100422e-05 9.76240799896e-05 0.00406320468296)
(-2.22816752914e-05 9.56784810645e-05 0.00404659756669)
(-3.26712270162e-05 9.24737102163e-05 0.00401851757994)
(-4.21942686843e-05 8.80650099432e-05 0.00397857609012)
(-5.05977362015e-05 8.25650748768e-05 0.00392674053843)
(-5.75894048391e-05 7.63286463193e-05 0.00386385355855)
(-6.48923051421e-05 6.82506739612e-05 0.00379172658481)
(6.60518012121e-05 6.9237668415e-05 0.00391416811454)
(5.81983663039e-05 7.67699980943e-05 0.00397575204662)
(5.08066504922e-05 8.22707091616e-05 0.00402944772609)
(4.21284027443e-05 8.70602376179e-05 0.00407362199982)
(3.2471961023e-05 9.08500126704e-05 0.00410751046345)
(2.2071324351e-05 9.35814281129e-05 0.004131226417)
(1.11594963491e-05 9.52308978172e-05 0.00414520545345)
(-1.27362911063e-08 9.57819065538e-05 0.00414982615627)
(-1.1185726648e-05 9.52280236776e-05 0.00414522330088)
(-2.20997739415e-05 9.3575635724e-05 0.00413126711161)
(-3.25039448715e-05 9.08412207574e-05 0.00410758452261)
(-4.21649010645e-05 8.70484997309e-05 0.00407374613813)
(-5.08478552576e-05 8.22562818277e-05 0.00402964092158)
(-5.82430107634e-05 7.67514101607e-05 0.00397598978164)
(-6.60937274563e-05 6.92117064143e-05 0.00391432900123)
(6.59393993537e-05 6.88911681727e-05 0.00400500386533)
(5.76771787426e-05 7.56866926543e-05 0.00405642949897)
(5.00178152937e-05 8.0324198029e-05 0.00410138612245)
(4.12364683361e-05 8.4290365077e-05 0.00413834798893)
(3.1640269023e-05 8.7381800542e-05 0.00416660608765)
(2.14352589883e-05 8.95905231717e-05 0.00418630896538)
(1.08136592602e-05 9.09179150476e-05 0.00419788993748)
(-2.02183962491e-08 9.13598627352e-05 0.004201712262)
(-1.08544813376e-05 9.09139269188e-05 0.00419790549945)
(-2.14772078074e-05 8.95825501058e-05 0.0041863449522)
(-3.16839750418e-05 8.736983737e-05 0.00416667302299)
(-4.1282310679e-05 8.42745984468e-05 0.00413846341747)
(-5.00656806148e-05 8.03050797389e-05 0.00410157072545)
(-5.77257459517e-05 7.56631076478e-05 0.00405665400224)
(-6.59835241173e-05 6.88605532514e-05 0.00400514548289)
(6.46815761242e-05 6.74195242479e-05 0.00407045420286)
(5.61578542595e-05 7.33075913393e-05 0.00411270884101)
(4.83790542469e-05 7.69884359464e-05 0.00414980051764)
(3.96652295009e-05 8.00610822419e-05 0.00418020959464)
(3.03038422963e-05 8.24190692456e-05 0.00420333736722)
(2.04658309989e-05 8.40911119475e-05 0.00421939528045)
(1.03025121932e-05 8.5091875585e-05 0.00422880850623)
(-2.64290058806e-08 8.54240719415e-05 0.00423191032681)
(-1.03555047188e-05 8.508718857e-05 0.00422881761477)
(-2.05192144451e-05 8.40817250667e-05 0.00421941735539)
(-3.03577479986e-05 8.24049769141e-05 0.0042033813978)
(-3.97195291324e-05 8.00423946562e-05 0.00418029237181)
(-4.84332507057e-05 7.69655831199e-05 0.00414994454919)
(-5.62103220365e-05 7.32796307054e-05 0.00411288245581)
(-6.47278889018e-05 6.73846526218e-05 0.00407053582795)
(6.24504515238e-05 6.49869364048e-05 0.00411684038347)
(5.38450655259e-05 6.98978617381e-05 0.00415153578403)
(4.61179653674e-05 7.25194349007e-05 0.004181693871)
(3.76199407863e-05 7.46615612646e-05 0.00420603512791)
(2.86287390511e-05 7.62856075668e-05 0.00422432448363)
(1.92780746286e-05 7.74316974829e-05 0.00423692995245)
(9.68453446002e-06 7.8115560275e-05 0.00424429028937)
(-3.15870344216e-08 7.83417059477e-05 0.00424670891256)
(-9.74765894424e-06 7.81106648207e-05 0.00424428762263)
(-1.93410261998e-05 7.74218493125e-05 0.0042369263567)
(-2.86913192302e-05 7.62707082421e-05 0.00422432510612)
(-3.76816461323e-05 7.46415418725e-05 0.00420605281685)
(-4.61778935469e-05 7.24944893626e-05 0.0041817521442)
(-5.3901087885e-05 6.98669593909e-05 0.00415160919978)
(-6.24988189887e-05 6.49486253872e-05 0.00411681908787)
(5.93377525954e-05 6.26819218406e-05 0.00415098807881)
(5.09936448088e-05 6.58827166796e-05 0.00418025670948)
(4.34728086628e-05 6.72611505299e-05 0.00420376546159)
(3.53000035021e-05 6.84140712601e-05 0.00422199923572)
(2.67698186156e-05 6.92684940259e-05 0.00423535963833)
(1.79766198501e-05 6.98666338542e-05 0.00424443721604)
(9.01232958443e-06 7.02207376201e-05 0.00424969648471)
(-3.57951732084e-08 7.03367151869e-05 0.0042514143044)
(-9.08372092905e-06 7.02163118642e-05 0.00424967748402)
(-1.80473830356e-05 6.985773384e-05 0.00424439786814)
(-2.68394333559e-05 6.92548677173e-05 0.00423529876695)
(-3.53676654636e-05 6.83954599708e-05 0.00422192024136)
(-4.35374490956e-05 6.72372856409e-05 0.00420368865562)
(-5.10521124678e-05 6.58520189177e-05 0.00418014912228)
(-5.93881047794e-05 6.26437309261e-05 0.00415086358301)
(-9.01363614643e-08 -3.15415493629e-07 0.00024597606257)
(1.16302228072e-07 -5.01283507335e-07 0.000258995757136)
(2.83004231642e-07 -6.00686594571e-07 0.000271259292362)
(3.7270215892e-07 -6.22466399936e-07 0.000282111817533)
(3.76991617767e-07 -5.97462038593e-07 0.000291037151072)
(2.99118373186e-07 -5.53620376895e-07 0.000297661773393)
(1.61940296718e-07 -5.16477024184e-07 0.000301738589629)
(-6.39095479031e-09 -5.02521643786e-07 0.000303122663509)
(-1.7386252342e-07 -5.17532188557e-07 0.000301736610238)
(-3.08694630703e-07 -5.55661877082e-07 0.000297658154985)
(-3.83978748939e-07 -6.00584467008e-07 0.00029103225393)
(-3.79340191866e-07 -6.27040906187e-07 0.000282105222463)
(-2.90161797577e-07 -6.0551024174e-07 0.000271248913595)
(-1.23156991695e-07 -5.06854280606e-07 0.000258976632464)
(8.45933832427e-08 -3.19955239322e-07 0.0002459304443)
(4.74828677887e-07 1.75812518264e-08 0.000725752528009)
(9.51444239208e-07 -2.53434484252e-07 0.000763018892837)
(1.32366844155e-06 -3.09479248418e-07 0.000798222557321)
(1.47629822557e-06 -1.82509383512e-07 0.000829409086858)
(1.38491930746e-06 3.79392973529e-08 0.000855076468613)
(1.06250390537e-06 2.69201445511e-07 0.000874138078566)
(5.7053489595e-07 4.38882552375e-07 0.000885870004315)
(-1.11167080211e-08 5.00249167334e-07 0.000889845158132)
(-5.91366447672e-07 4.3658424425e-07 0.000885866705152)
(-1.07964290353e-06 2.64489726746e-07 0.00087413219922)
(-1.39848855759e-06 3.03391168968e-08 0.000855068516307)
(-1.49049715629e-06 -1.93752799759e-07 0.000829397204591)
(-1.34084923795e-06 -3.22175441826e-07 0.000798200282345)
(-9.6940303187e-07 -2.68351069057e-07 0.000762970773262)
(-4.89906658999e-07 4.30003344689e-09 0.000725636150695)
(1.86869213734e-06 1.37819170475e-06 0.00118776151838)
(2.48829786909e-06 1.30276177121e-06 0.00124713188787)
(2.9361359926e-06 1.53782424357e-06 0.00130321657974)
(3.02470251386e-06 2.01351971723e-06 0.00135287566585)
(2.71742552908e-06 2.58062869156e-06 0.00139372084434)
(2.03921494978e-06 3.10297572017e-06 0.00142403665319)
(1.08701783331e-06 3.46552683644e-06 0.00144268376164)
(-1.06976251557e-08 3.59435224405e-06 0.0014489933026)
(-1.10728381924e-06 3.46294458274e-06 0.0014426813891)
(-2.0566637663e-06 3.09726080871e-06 0.00142403267255)
(-2.73287715874e-06 2.57058878877e-06 0.00139371551272)
(-3.0428955636e-06 1.99802501046e-06 0.0013528658077)
(-2.95988973862e-06 1.51911050108e-06 0.00130319255042)
(-2.51499799032e-06 1.28081608193e-06 0.00124706991702)
(-1.89172291772e-06 1.35684249994e-06 0.0011875999323)
(4.21089739197e-06 3.85551425215e-06 0.00162845694515)
(4.86352226431e-06 4.23415009857e-06 0.00170706393174)
(5.25817951026e-06 4.9899035116e-06 0.00178114964968)
(5.14432518653e-06 6.00233923827e-06 0.00184660937086)
(4.47907789149e-06 7.05878349484e-06 0.00190034150947)
(3.30264842522e-06 7.97072571343e-06 0.0019401525643)
(1.74769789674e-06 8.58346438362e-06 0.00196460560027)
(-8.7339074445e-09 8.79860685889e-06 0.0019728681303)
(-1.76463705002e-06 8.58100889349e-06 0.00196460571368)
(-3.31850905271e-06 7.96493163416e-06 0.00194015346966)
(-4.49537789106e-06 7.04796624078e-06 0.00190034323178)
(-5.16560125217e-06 5.9850120245e-06 0.00184660817273)
(-5.28698135894e-06 4.96762405709e-06 0.00178113455874)
(-4.89723811545e-06 4.20721478915e-06 0.00170700585833)
(-4.24081249384e-06 3.82723703878e-06 0.00162828086924)
(7.28188639121e-06 7.16311846095e-06 0.00204289364712)
(7.86622270566e-06 8.14740726475e-06 0.00213700030591)
(8.09291406417e-06 9.54193338307e-06 0.00222530293745)
(7.66000739186e-06 1.11755653555e-05 0.00230303830961)
(6.52615380866e-06 1.27747654139e-05 0.00236663007485)
(4.74963289628e-06 1.41063667021e-05 0.00241361068844)
(2.49749961368e-06 1.4983598076e-05 0.00244240423394)
(-7.8258123653e-09 1.52891310468e-05 0.00245211804088)
(-2.51318942777e-06 1.49813591779e-05 0.00244240756083)
(-4.76583158218e-06 1.41008329186e-05 0.00241361806809)
(-6.54484681331e-06 1.27640090185e-05 0.00236664173488)
(-7.68521418893e-06 1.11577859604e-05 0.00230305104009)
(-8.12659142254e-06 9.51782396339e-06 0.00222530631216)
(-7.90572931987e-06 8.11693724021e-06 0.00213696224385)
(-7.31782784795e-06 7.12950697839e-06 0.00204272840596)
(1.08096343897e-05 1.09728922477e-05 0.00242581313953)
(1.12331359323e-05 1.26103948389e-05 0.00253098644655)
(1.11948157581e-05 1.46541075882e-05 0.00262906521647)
(1.03544304243e-05 1.68934562504e-05 0.00271497910672)