/*--------------------------------*- C++ -*----------------------------------*\
  =========                 |
  \\      /  F ield         | OpenFOAM: The Open Source CFD Toolbox
   \\    /   O peration     | Website:  https://openfoam.org
    \\  /    A nd           | Version:  7
     \\/     M anipulation  |
\*---------------------------------------------------------------------------*/
FoamFile
{
    version     2.0;
    format      ascii;
    class       volScalarField;
    location    "1.84";
    object      p;
}
// * * * * * * * * * * * * * * * * * * * * * * * * * * * * * * * * * * * * * //

dimensions      [0 2 -2 0 0 0 0];

internalField   nonuniform List<scalar> 
22500
(
-1.65411157569e-05
-1.65410068277e-05
-1.65415543678e-05
-1.65417389162e-05
-1.65420371787e-05
-1.65422862086e-05
-1.65424591628e-05
-1.65425126367e-05
-1.65424523739e-05
-1.65422725218e-05
-1.65420164621e-05
-1.65417110482e-05
-1.6541519132e-05
-1.65409643288e-05
-1.65410628479e-05
-1.65422333817e-05
-1.65420377438e-05
-1.6542657066e-05
-1.65428828615e-05
-1.65432039364e-05
-1.65434644445e-05
-1.65436433557e-05
-1.65437002438e-05
-1.65436364216e-05
-1.65434504557e-05
-1.654318272e-05
-1.65428542625e-05
-1.65426208367e-05
-1.65419941174e-05
-1.65421795915e-05
-1.6542078828e-05
-1.65417006235e-05
-1.65421947233e-05
-1.65423080056e-05
-1.65425355079e-05
-1.65427189716e-05
-1.65428489115e-05
-1.65428899252e-05
-1.65428419875e-05
-1.65427050009e-05
-1.65425143201e-05
-1.65422794502e-05
-1.65421584741e-05
-1.6541656849e-05
-1.65420247834e-05
-1.65400083206e-05
-1.65392677319e-05
-1.65393436565e-05
-1.65391186967e-05
-1.65390612291e-05
-1.65390248766e-05
-1.65390160632e-05
-1.65390102844e-05
-1.65390090701e-05
-1.65390107823e-05
-1.65390398628e-05
-1.65390898897e-05
-1.65393070757e-05
-1.65392235688e-05
-1.65399540249e-05
-1.65356715601e-05
-1.65342758508e-05
-1.65336107476e-05
-1.65327755606e-05
-1.65321963532e-05
-1.65317609673e-05
-1.65315003024e-05
-1.65314090423e-05
-1.65314932347e-05
-1.65317467224e-05
-1.65321747872e-05
-1.65327465196e-05
-1.65335739193e-05
-1.65342313392e-05
-1.65356169481e-05
-1.65287504043e-05
-1.6526305605e-05
-1.6524561209e-05
-1.6522809189e-05
-1.65214417903e-05
-1.65204044106e-05
-1.65197640755e-05
-1.65195436001e-05
-1.65197568603e-05
-1.65203898887e-05
-1.65214198313e-05
-1.65227796633e-05
-1.65245238421e-05
-1.65262605137e-05
-1.65286954015e-05
-1.65189802534e-05
-1.65150200816e-05
-1.65118539824e-05
-1.65088654853e-05
-1.65064347956e-05
-1.65045862927e-05
-1.65034352616e-05
-1.65030408806e-05
-1.65034278997e-05
-1.65045714927e-05
-1.65064124587e-05
-1.65088355157e-05
-1.65118161655e-05
-1.65149744572e-05
-1.65189247968e-05
-1.65061662238e-05
-1.65001982432e-05
-1.64952819954e-05
-1.64907535835e-05
-1.64870021235e-05
-1.64841483348e-05
-1.64823660198e-05
-1.64817567692e-05
-1.64823584687e-05
-1.64841331747e-05
-1.64869792936e-05
-1.6490723017e-05
-1.64952435644e-05
-1.6500151961e-05
-1.65061102776e-05
-1.64901990451e-05
-1.64817613227e-05
-1.64748047677e-05
-1.6468481677e-05
-1.64631975481e-05
-1.64591811054e-05
-1.64566712225e-05
-1.64558146345e-05
-1.64566634718e-05
-1.64591655649e-05
-1.64631741986e-05
-1.64684504966e-05
-1.64747656932e-05
-1.64817143411e-05
-1.64901424178e-05
-1.6471078511e-05
-1.64597952976e-05
-1.64505739174e-05
-1.64422790849e-05
-1.64353199061e-05
-1.64300384171e-05
-1.64267403672e-05
-1.64256163212e-05
-1.64267323822e-05
-1.64300224348e-05
-1.64352959349e-05
-1.64422471667e-05
-1.6450534072e-05
-1.64597474917e-05
-1.64710211201e-05
-1.64489287825e-05
-1.64345544993e-05
-1.64229389367e-05
-1.6412594399e-05
-1.64039032067e-05
-1.63973207207e-05
-1.63932165216e-05
-1.63918196773e-05
-1.63932082827e-05
-1.63973042407e-05
-1.64038785507e-05
-1.64125616373e-05
-1.6422898193e-05
-1.64345057022e-05
-1.64488703042e-05
-1.64239216508e-05
-1.64064317706e-05
-1.63924426888e-05
-1.63800837516e-05
-1.63696944248e-05
-1.63618446727e-05
-1.63569611034e-05
-1.63553015357e-05
-1.63569525886e-05
-1.63618276582e-05
-1.63696689732e-05
-1.63800500219e-05
-1.63924008784e-05
-1.64063818247e-05
-1.64238618727e-05
-1.63960980832e-05
-1.63759564362e-05
-1.6359821562e-05
-1.63455857479e-05
-1.63336182932e-05
-1.63246078332e-05
-1.63190198681e-05
-1.63171247163e-05
-1.63190110615e-05
-1.63245902108e-05
-1.63335920009e-05
-1.6345550911e-05
-1.63597784837e-05
-1.63759051153e-05
-1.6396036805e-05
-1.63662440826e-05
-1.63440590718e-05
-1.63259320815e-05
-1.63099545082e-05
-1.62965980277e-05
-1.62866174027e-05
-1.62804608278e-05
-1.62783784378e-05
-1.62804517121e-05
-1.62865992066e-05
-1.62965707965e-05
-1.63099184777e-05
-1.63258876075e-05
-1.6344006137e-05
-1.63661814987e-05
-1.63396919751e-05
-1.63122270991e-05
-1.62917736781e-05
-1.62739289375e-05
-1.62593270906e-05
-1.62485646261e-05
-1.62419770394e-05
-1.62397571257e-05
-1.62419676132e-05
-1.62485457971e-05
-1.62592989678e-05
-1.6273891683e-05
-1.62917275362e-05
-1.63121722202e-05
-1.63396284061e-05
-2.03405345419e-05
-2.03395248439e-05
-2.03381669147e-05
-2.03369295694e-05
-2.03358233704e-05
-2.03349707331e-05
-2.03344312206e-05
-2.03342477909e-05
-2.03344344363e-05
-2.03349769999e-05
-2.03358324805e-05
-2.03369414531e-05
-2.03381821145e-05
-2.03395441378e-05
-2.0340559513e-05
-2.03359913402e-05
-2.03350807196e-05
-2.0333796931e-05
-2.03326435687e-05
-2.03316115199e-05
-2.03308170545e-05
-2.03303145866e-05
-2.03301437392e-05
-2.03303177348e-05
-2.03308231702e-05
-2.03316203637e-05
-2.03326550645e-05
-2.03338116267e-05
-2.03350995489e-05
-2.03360159141e-05
-2.03345099349e-05
-2.03340217145e-05
-2.03330900638e-05
-2.03322721724e-05
-2.0331517474e-05
-2.03309317467e-05
-2.03305583926e-05
-2.03304311745e-05
-2.03305615663e-05
-2.03309379674e-05
-2.03315265769e-05
-2.03322841311e-05
-2.03331053023e-05
-2.03340410112e-05
-2.03345345882e-05
-2.03363722221e-05
-2.03364454239e-05
-2.03359672516e-05
-2.03355568541e-05
-2.03351274768e-05
-2.033477834e-05
-2.03345480501e-05
-2.03344685977e-05
-2.03345512746e-05
-2.03347846912e-05
-2.03351368236e-05
-2.03355691804e-05
-2.03359829096e-05
-2.03364650775e-05
-2.0336397055e-05
-2.03397946687e-05
-2.03402893626e-05
-2.03401235715e-05
-2.03399677246e-05
-2.03397251102e-05
-2.03395009316e-05
-2.03393415617e-05
-2.03392849072e-05
-2.03393448477e-05
-2.03395074453e-05
-2.03397347756e-05
-2.03399805222e-05
-2.03401397677e-05
-2.03403094261e-05
-2.03398195702e-05
-2.03433487923e-05
-2.03439663365e-05
-2.03438578222e-05
-2.03437102213e-05
-2.03434471281e-05
-2.03431905926e-05
-2.03430043242e-05
-2.03429372671e-05
-2.03430076595e-05
-2.03431972261e-05
-2.03434569827e-05
-2.03437232875e-05
-2.03438742908e-05
-2.03439866193e-05
-2.03433737199e-05
-2.03461471883e-05
-2.03465560206e-05
-2.03462526989e-05
-2.03458848224e-05
-2.03454183798e-05
-2.03449961907e-05
-2.03447023439e-05
-2.03445979135e-05
-2.03447057319e-05
-2.03450029514e-05
-2.03454284613e-05
-2.0345898215e-05
-2.03462695103e-05
-2.03465765548e-05
-2.03461720238e-05
-2.03477188568e-05
-2.03476351264e-05
-2.03469457297e-05
-2.03461946714e-05
-2.03454008386e-05
-2.03447262597e-05
-2.03442738322e-05
-2.03441152563e-05
-2.0344277239e-05
-2.03447330684e-05
-2.03454110135e-05
-2.03462081954e-05
-2.03469626951e-05
-2.03476557595e-05
-2.03477436284e-05
-2.03479031892e-05
-2.03471237867e-05
-2.03459276292e-05
-2.03446992018e-05
-2.03435106298e-05
-2.03425392589e-05
-2.03419032636e-05
-2.0341682539e-05
-2.03419066731e-05
-2.03425460887e-05
-2.03435208635e-05
-2.03447128289e-05
-2.0345944697e-05
-2.03471444668e-05
-2.03479277149e-05
-2.03467391877e-05
-2.03451444186e-05
-2.03433790414e-05
-2.03416326862e-05
-2.03400240865e-05
-2.03387419964e-05
-2.03379158599e-05
-2.03376311135e-05
-2.03379192309e-05
-2.03387487639e-05
-2.03400342443e-05
-2.03416462456e-05
-2.03433960468e-05
-2.03451650049e-05
-2.03467634913e-05
-2.03443700887e-05
-2.03419121724e-05
-2.03395567723e-05
-2.03372887303e-05
-2.03352635501e-05
-2.03336777632e-05
-2.03326676098e-05
-2.03323212602e-05
-2.03326709165e-05
-2.03336844055e-05
-2.03352735552e-05
-2.03373021034e-05
-2.03395735686e-05
-2.03419325057e-05
-2.03443939331e-05
-2.03409899803e-05
-2.03376754618e-05
-2.03347351567e-05
-2.03319646744e-05
-2.03295461197e-05
-2.03276787803e-05
-2.03265003067e-05
-2.03260979783e-05
-2.03265035108e-05
-2.03276852309e-05
-2.03295558352e-05
-2.03319777076e-05
-2.03347515692e-05
-2.03376953606e-05
-2.03410133137e-05
-2.03368365267e-05
-2.0332685749e-05
-2.03291723384e-05
-2.03259335584e-05
-2.03231616422e-05
-2.03210489655e-05
-2.03197266542e-05
-2.03192771011e-05
-2.03197297163e-05
-2.03210551208e-05
-2.03231709675e-05
-2.0325946084e-05
-2.03291881493e-05
-2.03327049758e-05
-2.03368589971e-05
-2.03320519524e-05
-2.03270670721e-05
-2.03230375662e-05
-2.03194013308e-05
-2.03163528467e-05
-2.03140581235e-05
-2.03126330553e-05
-2.03121502596e-05
-2.03126359141e-05
-2.03140638896e-05
-2.03163615588e-05
-2.03194131077e-05
-2.03230525842e-05
-2.03270854208e-05
-2.03320733832e-05
-2.03259140425e-05
-2.03208433604e-05
-2.03164559256e-05
-2.0312572355e-05
-2.03093885622e-05
-2.03070194666e-05
-2.03055580938e-05
-2.03050647283e-05
-2.03055606795e-05
-2.0307024729e-05
-2.03093965701e-05
-2.0312583268e-05
-2.03164698751e-05
-2.03208606888e-05
-2.03259342643e-05
-1.57864674629e-05
-1.57870711834e-05
-1.57877317177e-05
-1.57883919348e-05
-1.57889790941e-05
-1.57894375881e-05
-1.5789728692e-05
-1.57898283506e-05
-1.57897269095e-05
-1.57894341823e-05
-1.57889744489e-05
-1.578838652e-05
-1.57877255485e-05
-1.57870649001e-05
-1.57864610005e-05
-1.57870916704e-05
-1.57876829534e-05
-1.57883438043e-05
-1.57890062811e-05
-1.57895977818e-05
-1.5790060931e-05
-1.57903556348e-05
-1.57904567192e-05
-1.57903537476e-05
-1.57900573172e-05
-1.57895928223e-05
-1.578900044e-05
-1.57883372061e-05
-1.57876762085e-05
-1.57870848835e-05
-1.57869315e-05
-1.57874571629e-05
-1.5788062925e-05
-1.57886805775e-05
-1.57892382144e-05
-1.5789677901e-05
-1.57899589526e-05
-1.57900556192e-05
-1.57899571321e-05
-1.5789674418e-05
-1.57892334219e-05
-1.57886749282e-05
-1.57880566406e-05
-1.57874506839e-05
-1.57869248286e-05
-1.57866321898e-05
-1.57871087157e-05
-1.57876704809e-05
-1.57882512689e-05
-1.57887813721e-05
-1.57892022748e-05
-1.57894725309e-05
-1.57895657021e-05
-1.57894707844e-05
-1.57891989296e-05
-1.57887767328e-05
-1.57882457408e-05
-1.57876643284e-05
-1.57871023944e-05
-1.57866256369e-05
-1.5786401438e-05
-1.57868531405e-05
-1.57873906282e-05
-1.57879505102e-05
-1.57884656206e-05
-1.57888768219e-05
-1.57891417973e-05
-1.57892333426e-05
-1.57891401593e-05
-1.57888736804e-05
-1.57884612598e-05
-1.57879453001e-05
-1.57873848425e-05
-1.5786847165e-05
-1.57863950494e-05
-1.57862383123e-05
-1.57866843382e-05
-1.57872120984e-05
-1.57877629565e-05
-1.57882720784e-05
-1.57886798629e-05
-1.57889432759e-05
-1.57890344061e-05
-1.57889417309e-05
-1.57886768981e-05
-1.5788267935e-05
-1.57877579666e-05
-1.57872065202e-05
-1.57866785517e-05
-1.57862321041e-05
-1.57861371096e-05
-1.57865935191e-05
-1.57871229313e-05
-1.57876742211e-05
-1.57881842254e-05
-1.57885931983e-05
-1.57888576428e-05
-1.57889491897e-05
-1.57888562163e-05
-1.57885904613e-05
-1.57881803907e-05
-1.57876695801e-05
-1.5787117722e-05
-1.57865880304e-05
-1.57861310687e-05
-1.57861012351e-05
-1.57865820777e-05
-1.57871222906e-05
-1.57876812502e-05
-1.57881970133e-05
-1.57886101768e-05
-1.57888771979e-05
-1.57889696241e-05
-1.57888758844e-05
-1.57886076516e-05
-1.57881934572e-05
-1.57876769005e-05
-1.57871173653e-05
-1.57865768301e-05
-1.57860953992e-05
-1.57861300812e-05
-1.57866461692e-05
-1.57872035962e-05
-1.57877748167e-05
-1.57882989017e-05
-1.57887174001e-05
-1.57889873442e-05
-1.57890806987e-05
-1.57889861524e-05
-1.57887151038e-05
-1.57882956539e-05
-1.5787770809e-05
-1.57871990015e-05
-1.57866412002e-05
-1.57861244009e-05
-1.57862172266e-05
-1.57867758748e-05
-1.57873541083e-05
-1.57879393203e-05
-1.57884717345e-05
-1.57888946773e-05
-1.57891665969e-05
-1.5789260468e-05
-1.57891655182e-05
-1.5788892596e-05
-1.5788468766e-05
-1.578793562e-05
-1.57873498122e-05
-1.57867711601e-05
-1.57862117887e-05
-1.57863533489e-05
-1.57869578718e-05
-1.57875578951e-05
-1.57881562142e-05
-1.57886945793e-05
-1.57891191883e-05
-1.57893908949e-05
-1.57894844656e-05
-1.57893899272e-05
-1.57891173098e-05
-1.57886918896e-05
-1.57881528155e-05
-1.57875539035e-05
-1.57869534076e-05
-1.57863481088e-05
-1.57865252431e-05
-1.57871764396e-05
-1.57877980994e-05
-1.5788407016e-05
-1.57889471977e-05
-1.57893691278e-05
-1.57896374683e-05
-1.57897295542e-05
-1.57896366036e-05
-1.57893674475e-05
-1.57889447543e-05
-1.57884039074e-05
-1.57877943964e-05
-1.5787172246e-05
-1.57865202581e-05
-1.57867076156e-05
-1.57874100808e-05
-1.57880562202e-05
-1.57886739917e-05
-1.5789211648e-05
-1.57896263391e-05
-1.57898878658e-05
-1.57899772694e-05
-1.57898870972e-05
-1.57896248154e-05
-1.57892094527e-05
-1.57886711385e-05
-1.57880527926e-05
-1.5787406138e-05
-1.57867028404e-05
-1.57868910679e-05
-1.57876570622e-05
-1.57883254397e-05
-1.57889470931e-05
-1.5789475092e-05
-1.57898761362e-05
-1.57901267805e-05
-1.57902119508e-05
-1.57901260787e-05
-1.57898747758e-05
-1.57894730683e-05
-1.57889444862e-05
-1.5788322277e-05
-1.57876533962e-05
-1.57868865936e-05
-1.57873915794e-05
-1.57880712392e-05
-1.578870576e-05
-1.57892788897e-05
-1.57897536126e-05
-1.57901095172e-05
-1.57903300971e-05
-1.57904047405e-05
-1.57903294597e-05
-1.57901082615e-05
-1.57897517833e-05
-1.57892765005e-05
-1.57887028443e-05
-1.57880678514e-05
-1.57873874661e-05
-1.75662354894e-05
-1.75658356837e-05
-1.7565403468e-05
-1.75649659274e-05
-1.75645771927e-05
-1.75642731709e-05
-1.75640799823e-05
-1.75640137158e-05
-1.7564080942e-05
-1.75642749007e-05
-1.75645793574e-05
-1.756496795e-05
-1.75654050192e-05
-1.75658366104e-05
-1.75662366837e-05
-1.7566035657e-05
-1.75656492061e-05
-1.7565221624e-05
-1.7564786341e-05
-1.75643977496e-05
-1.7564092837e-05
-1.75638986122e-05
-1.75638318634e-05
-1.75638996419e-05
-1.75640946748e-05
-1.75644000052e-05
-1.7564788401e-05
-1.75652230685e-05
-1.75656499844e-05
-1.75660366209e-05
-1.75663549192e-05
-1.75660160087e-05
-1.75656305329e-05
-1.75652294574e-05
-1.7564867229e-05
-1.75645807291e-05
-1.75643973169e-05
-1.75643340631e-05
-1.75643982427e-05
-1.75645823952e-05
-1.756486931e-05
-1.75652314624e-05
-1.75656320513e-05
-1.75660170221e-05
-1.75663559395e-05
-1.75666964614e-05
-1.75663920296e-05
-1.75660398009e-05
-1.75656666307e-05
-1.75653259594e-05
-1.75650545239e-05
-1.75648799664e-05
-1.75648196013e-05
-1.75648808004e-05
-1.75650560211e-05
-1.7565327818e-05
-1.75656684373e-05
-1.75660412146e-05
-1.75663930509e-05
-1.75666975391e-05
-1.75669558449e-05
-1.75666709302e-05
-1.75663398879e-05
-1.75659855665e-05
-1.75656596043e-05
-1.75653984765e-05
-1.75652299299e-05
-1.75651715124e-05
-1.75652306592e-05
-1.75653997932e-05
-1.75656612773e-05
-1.75659872625e-05
-1.75663413394e-05
-1.75666720854e-05
-1.75669569761e-05
-1.75671629544e-05
-1.75668885299e-05
-1.75665712717e-05
-1.75662301919e-05
-1.75659149084e-05
-1.75656614351e-05
-1.75654974318e-05
-1.75654405031e-05
-1.75654980802e-05
-1.75656626049e-05
-1.75659163821e-05
-1.75662316947e-05
-1.75665725743e-05
-1.75668896574e-05
-1.75671640649e-05
-1.75673353434e-05
-1.75670645694e-05
-1.75667556169e-05
-1.75664238629e-05
-1.75661165937e-05
-1.75658691516e-05
-1.75657088299e-05
-1.75656531264e-05
-1.75657093914e-05
-1.75658701779e-05
-1.75661179135e-05
-1.75664252689e-05
-1.75667569193e-05
-1.75670657812e-05
-1.75673364735e-05
-1.75674777767e-05
-1.75672053006e-05
-1.7566900268e-05
-1.75665747228e-05
-1.75662734445e-05
-1.75660309118e-05
-1.75658737603e-05
-1.75658191546e-05
-1.75658742492e-05
-1.75660318077e-05
-1.75662746009e-05
-1.756657597e-05
-1.7566901471e-05
-1.75672064911e-05
-1.75674789404e-05
-1.75675944474e-05
-1.75673160067e-05
-1.75670116293e-05
-1.75666902153e-05
-1.75663938488e-05
-1.7566155823e-05
-1.75660017749e-05
-1.75659482872e-05
-1.75660022037e-05
-1.75661566169e-05
-1.75663949032e-05
-1.75666913983e-05
-1.75670128315e-05
-1.75673172496e-05
-1.75675956054e-05
-1.75676903915e-05
-1.75674032131e-05
-1.75670973513e-05
-1.75667789646e-05
-1.75664872557e-05
-1.75662539625e-05
-1.75661033771e-05
-1.75660511673e-05
-1.75661037515e-05
-1.75662546683e-05
-1.75664882003e-05
-1.756678006e-05
-1.75670985151e-05
-1.75674044814e-05
-1.75676915985e-05
-1.75677706912e-05
-1.75674728809e-05
-1.75671642677e-05
-1.75668486938e-05
-1.75665622255e-05
-1.75663346157e-05
-1.75661882849e-05
-1.75661376802e-05
-1.75661886261e-05
-1.7566335262e-05
-1.75665631208e-05
-1.75668497503e-05
-1.75671654385e-05
-1.75674741628e-05
-1.7567771878e-05
-1.75678403004e-05
-1.75675304061e-05
-1.7567218198e-05
-1.75669056748e-05
-1.75666256732e-05
-1.75664051638e-05
-1.75662642694e-05
-1.75662156967e-05
-1.75662645841e-05
-1.75664057852e-05
-1.75666265088e-05
-1.75669067117e-05
-1.75672193696e-05
-1.75675317259e-05
-1.75678415068e-05
-1.75679098468e-05
-1.75675844183e-05
-1.75672659826e-05
-1.75669558253e-05
-1.75666829273e-05
-1.75664708493e-05
-1.75663363531e-05
-1.7566290263e-05
-1.75663366662e-05
-1.7566471409e-05
-1.75666837669e-05
-1.75669568158e-05
-1.7567267158e-05
-1.75675857301e-05
-1.75679110038e-05
-1.75679848818e-05
-1.75676365555e-05
-1.75673103474e-05
-1.75670022842e-05
-1.75667378652e-05
-1.75665354853e-05
-1.75664085491e-05
-1.75663652449e-05
-1.75664088242e-05
-1.75665360586e-05
-1.7566738624e-05
-1.75670032776e-05
-1.75673115099e-05
-1.75676379088e-05
-1.75679860167e-05
-1.75678891267e-05
-1.7567571393e-05
-1.75672713012e-05
-1.75669971305e-05
-1.7566767279e-05
-1.75665937914e-05
-1.75664857919e-05
-1.75664491755e-05
-1.75664860759e-05
-1.75665943212e-05
-1.75667680622e-05
-1.75669981176e-05
-1.75672724922e-05
-1.7567572756e-05
-1.75678903676e-05
-1.50266399717e-05
-1.50269088308e-05
-1.50271992963e-05
-1.50274937577e-05
-1.50277555208e-05
-1.50279604371e-05
-1.50280905301e-05
-1.50281350762e-05
-1.50280896964e-05
-1.50279589342e-05
-1.50277536372e-05
-1.50274915877e-05
-1.50271967469e-05
-1.50269062508e-05
-1.50266370038e-05
-1.50267508192e-05
-1.50270105499e-05
-1.50272978565e-05
-1.50275908483e-05
-1.50278526844e-05
-1.50280583829e-05
-1.50281893223e-05
-1.50282342523e-05
-1.50281884432e-05
-1.50280567927e-05
-1.50278506681e-05
-1.50275884884e-05
-1.5027295052e-05
-1.50270076433e-05
-1.5026747574e-05
-1.50265130356e-05
-1.50267407279e-05
-1.50270000331e-05
-1.50272706384e-05
-1.50275152519e-05
-1.50277088683e-05
-1.50278327222e-05
-1.50278753558e-05
-1.50278318865e-05
-1.50277073327e-05
-1.50275132639e-05
-1.50272683517e-05
-1.50269974517e-05
-1.50267380413e-05
-1.50265099963e-05
-1.50262674571e-05
-1.50264721587e-05
-1.50267093996e-05
-1.50269616103e-05
-1.50271919766e-05
-1.50273756133e-05
-1.50274936222e-05
-1.50275343471e-05
-1.50274928386e-05
-1.50273741639e-05
-1.50271900618e-05
-1.50269593738e-05
-1.50267068808e-05
-1.50264695657e-05
-1.50262645539e-05
-1.50260801185e-05
-1.50262710675e-05
-1.50264937499e-05
-1.50267331296e-05
-1.50269533602e-05
-1.50271298011e-05
-1.5027243569e-05
-1.5027282916e-05
-1.50272428481e-05
-1.50271284556e-05
-1.50269515695e-05
-1.50267310581e-05
-1.50264914819e-05
-1.50262687584e-05
-1.50260774353e-05
-1.50259271344e-05
-1.50261094644e-05
-1.50263215598e-05
-1.50265507248e-05
-1.50267625609e-05
-1.50269328582e-05
-1.50270429466e-05
-1.50270810775e-05
-1.50270422877e-05
-1.50269316248e-05
-1.50267608979e-05
-1.50265487782e-05
-1.50263194106e-05
-1.50261072739e-05
-1.50259246365e-05
-1.50257936687e-05
-1.50259703267e-05
-1.50261742552e-05
-1.50263947429e-05
-1.50265990287e-05
-1.50267635404e-05
-1.50268700506e-05
-1.50269069763e-05
-1.50268694603e-05
-1.50267624337e-05
-1.50265975294e-05
-1.50263929946e-05
-1.50261723493e-05
-1.50259683632e-05
-1.50257913613e-05
-1.50256741474e-05
-1.50258472496e-05
-1.50260446607e-05
-1.5026257294e-05
-1.50264543139e-05
-1.50266130128e-05
-1.50267158118e-05
-1.50267514668e-05
-1.50267152905e-05
-1.50266120332e-05
-1.50264529747e-05
-1.50262557086e-05
-1.5026042914e-05
-1.50258454306e-05
-1.50256720179e-05
-1.50255641196e-05
-1.50257347654e-05
-1.50259266545e-05
-1.50261317918e-05
-1.50263214511e-05
-1.50264740055e-05
-1.50265727591e-05
-1.50266070072e-05
-1.50265723049e-05
-1.50264731476e-05
-1.50263202756e-05
-1.502613039e-05
-1.50259250998e-05
-1.50257331278e-05
-1.50255621318e-05
-1.50254590381e-05
-1.50256279128e-05
-1.50258147733e-05
-1.50260123521e-05
-1.50261941933e-05
-1.50263399895e-05
-1.50264342094e-05
-1.50264668483e-05
-1.50264338164e-05
-1.50263392485e-05
-1.50261931614e-05
-1.50260111071e-05
-1.5025813366e-05
-1.50256264109e-05
-1.50254572268e-05
-1.50253554299e-05
-1.50255228023e-05
-1.50257048452e-05
-1.50258945865e-05
-1.50260678904e-05
-1.50262061266e-05
-1.50262951597e-05
-1.50263259554e-05
-1.5026294821e-05
-1.5026205481e-05
-1.50260669929e-05
-1.50258934813e-05
-1.50257035884e-05
-1.50255214273e-05
-1.50253537579e-05
-1.50252503002e-05
-1.50254168157e-05
-1.50255944184e-05
-1.50257760193e-05
-1.50259399882e-05
-1.50260696764e-05
-1.50261528109e-05
-1.50261814583e-05
-1.50261525168e-05
-1.50260691174e-05
-1.50259391828e-05
-1.50257750427e-05
-1.50255932839e-05
-1.50254155727e-05
-1.50252487822e-05
-1.50251378471e-05
-1.50253058472e-05
-1.50254807989e-05
-1.50256549785e-05
-1.50258093131e-05
-1.50259299653e-05
-1.50260066164e-05
-1.50260329783e-05
-1.50260063583e-05
-1.50259294421e-05
-1.50258086095e-05
-1.50256540624e-05
-1.50254797707e-05
-1.50253047041e-05
-1.50251364657e-05
-1.50250144889e-05
-1.50251891806e-05
-1.50253634464e-05
-1.50255310319e-05
-1.50256758652e-05
-1.50257870851e-05
-1.50258571414e-05
-1.5025880996e-05
-1.50258568855e-05
-1.50257866249e-05
-1.50256751659e-05
-1.50255302114e-05
-1.50253624574e-05
-1.50251881265e-05
-1.50250132196e-05
-1.50249920879e-05
-1.5025145553e-05
-1.50252981679e-05
-1.50254394567e-05
-1.50255585129e-05
-1.50256488424e-05
-1.50257052088e-05
-1.50257243561e-05
-1.50257049754e-05
-1.50256483782e-05
-1.50255578779e-05
-1.50254386283e-05
-1.50252972485e-05
-1.50251445331e-05
-1.50249909037e-05
-1.53923502672e-05
-1.53921696994e-05
-1.53919752099e-05
-1.5391778566e-05
-1.53916041954e-05
-1.53914679966e-05
-1.53913816991e-05
-1.53913522795e-05
-1.53913825928e-05
-1.53914695986e-05
-1.53916061301e-05
-1.53917804197e-05
-1.53919766336e-05
-1.53921702828e-05
-1.53923504183e-05
-1.53922710949e-05
-1.53920964348e-05
-1.53919039199e-05
-1.53917081145e-05
-1.53915336414e-05
-1.53913969568e-05
-1.53913101533e-05
-1.53912805316e-05
-1.53913111395e-05
-1.53913987146e-05
-1.53915357549e-05
-1.5391710093e-05
-1.53919053541e-05
-1.53920969851e-05
-1.53922711119e-05
-1.53924248082e-05
-1.53922713736e-05
-1.53920977608e-05
-1.53919172191e-05
-1.53917544507e-05
-1.53916258909e-05
-1.53915438137e-05
-1.5391515686e-05
-1.53915446675e-05
-1.53916274156e-05
-1.53917563032e-05
-1.53919190108e-05
-1.53920991404e-05
-1.53922720544e-05
-1.53924248558e-05
-1.53925835638e-05
-1.53924455112e-05
-1.53922866952e-05
-1.53921184966e-05
-1.5391965247e-05
-1.53918433376e-05
-1.53917651473e-05
-1.53917382674e-05
-1.53917659006e-05
-1.53918446796e-05
-1.53919668668e-05
-1.53921200458e-05
-1.53922878731e-05
-1.53924461049e-05
-1.53925836484e-05
-1.53927031622e-05
-1.53925741479e-05
-1.53924251043e-05
-1.53922656491e-05
-1.53921192653e-05
-1.53920021746e-05
-1.53919267783e-05
-1.53919007722e-05
-1.53919273944e-05
-1.53920032705e-05
-1.53921206041e-05
-1.53922669698e-05
-1.53924261761e-05
-1.53925747679e-05
-1.53927032694e-05
-1.53928002895e-05
-1.53926771919e-05
-1.53925352902e-05
-1.53923827289e-05
-1.53922419938e-05
-1.5392129027e-05
-1.53920560983e-05
-1.53920308904e-05
-1.53920566238e-05
-1.53921299538e-05
-1.53922431073e-05
-1.53923838013e-05
-1.53925361282e-05
-1.53926776947e-05
-1.53928003517e-05
-1.53928852949e-05
-1.53927661979e-05
-1.53926298993e-05
-1.53924834156e-05
-1.53923479276e-05
-1.53922389473e-05
-1.53921684586e-05
-1.53921440446e-05
-1.53921688716e-05
-1.53922396786e-05
-1.5392348814e-05
-1.53924842931e-05
-1.53926306295e-05
-1.53927666874e-05
-1.53928853549e-05
-1.53929622248e-05
-1.5392846042e-05
-1.53927143304e-05
-1.53925733654e-05
-1.53924429301e-05
-1.53923379731e-05
-1.53922700451e-05
-1.5392246492e-05
-1.53922703743e-05
-1.53923385527e-05
-1.53924436184e-05
-1.53925740316e-05
-1.53927148755e-05
-1.53928464281e-05
-1.53929622877e-05
-1.53930342278e-05
-1.53929201789e-05
-1.53927924478e-05
-1.53926568391e-05
-1.53925315974e-05
-1.53924309418e-05
-1.53923658113e-05
-1.53923432202e-05
-1.53923660655e-05
-1.53924313876e-05
-1.53925321403e-05
-1.53926573803e-05
-1.53927929131e-05
-1.53929205505e-05
-1.53930342657e-05
-1.53931041323e-05
-1.53929919643e-05
-1.53928679056e-05
-1.5392737675e-05
-1.53926179116e-05
-1.53925219212e-05
-1.53924599173e-05
-1.53924384153e-05
-1.53924601086e-05
-1.53925222634e-05
-1.53926183185e-05
-1.53927380902e-05
-1.53928682735e-05
-1.53929922927e-05
-1.53931041975e-05
-1.53931742756e-05
-1.53930636921e-05
-1.53929431123e-05
-1.53928184432e-05
-1.53927045859e-05
-1.53926138046e-05
-1.53925553249e-05
-1.5392535082e-05
-1.53925554765e-05
-1.53926140741e-05
-1.53927049269e-05
-1.53928187912e-05
-1.53929434489e-05
-1.53930639943e-05
-1.53931743119e-05
-1.53932463317e-05
-1.53931368349e-05
-1.53930195091e-05
-1.53929005096e-05
-1.53927930914e-05
-1.53927080324e-05
-1.53926535573e-05
-1.53926347248e-05
-1.53926536729e-05
-1.53927082679e-05
-1.53927933494e-05
-1.5392900823e-05
-1.53930198191e-05
-1.53931371429e-05
-1.53932463739e-05
-1.53933240941e-05
-1.539321397e-05
-1.53930986138e-05
-1.53929848215e-05
-1.53928837397e-05
-1.5392804807e-05
-1.53927545117e-05
-1.53927372635e-05
-1.53927546272e-05
-1.53928049622e-05
-1.53928840063e-05
-1.53929850543e-05
-1.53930989201e-05
-1.53932142674e-05
-1.5393324106e-05
-1.53934087089e-05
-1.53932943325e-05
-1.53931801134e-05
-1.53930708606e-05
-1.53929763351e-05
-1.53929034669e-05
-1.53928576477e-05
-1.53928419535e-05
-1.53928577224e-05
-1.53929036553e-05
-1.53929765064e-05
-1.53930711314e-05
-1.53931803814e-05
-1.53932946772e-05
-1.53934086961e-05
-1.53934182079e-05
-1.53933219252e-05
-1.53932244162e-05
-1.53931342357e-05
-1.53930576083e-05
-1.5392999347e-05
-1.5392962888e-05
-1.53929505031e-05
-1.53929629926e-05
-1.53929995097e-05
-1.53930578472e-05
-1.53931344883e-05
-1.5393224754e-05
-1.53933222557e-05
-1.53934183166e-05
-1.38053826482e-05
-1.38055032217e-05
-1.38056331542e-05
-1.38057645456e-05
-1.38058810107e-05
-1.38059720494e-05
-1.38060298252e-05
-1.38060495456e-05
-1.38060292019e-05
-1.38059707941e-05
-1.38058791378e-05
-1.38057622047e-05
-1.38056306392e-05
-1.38055011953e-05
-1.38053808974e-05
-1.38054248788e-05
-1.38055411031e-05
-1.38056693098e-05
-1.38057997986e-05
-1.3805916057e-05
-1.38060072381e-05
-1.38060652521e-05
-1.38060850827e-05
-1.3806064581e-05
-1.38060058859e-05
-1.38059140368e-05
-1.38057972716e-05
-1.38056665973e-05
-1.38055388206e-05
-1.38054229081e-05
-1.38053098755e-05
-1.38054114693e-05
-1.38055267345e-05
-1.38056468794e-05
-1.3805755221e-05
-1.38058408919e-05
-1.38058956598e-05
-1.38059144348e-05
-1.38058950199e-05
-1.38058396157e-05
-1.38057533438e-05
-1.3805644547e-05
-1.38055242334e-05
-1.38054093215e-05
-1.38053080418e-05
-1.38051932362e-05
-1.38052842961e-05
-1.38053893894e-05
-1.38055011561e-05
-1.3805603043e-05
-1.38056841957e-05
-1.38057362976e-05
-1.38057541953e-05
-1.38057356777e-05
-1.38056829691e-05
-1.38056012644e-05
-1.38054989743e-05
-1.38053870575e-05
-1.38052822519e-05
-1.38051914318e-05
-1.38051040071e-05
-1.38051887632e-05
-1.38052871201e-05
-1.38053929956e-05
-1.38054902734e-05
-1.38055681744e-05
-1.3805618364e-05
-1.38056356396e-05
-1.38056177904e-05
-1.38055670515e-05
-1.38054886592e-05
-1.38053910301e-05
-1.38052850068e-05
-1.38051869072e-05
-1.38051023092e-05
-1.38050308728e-05
-1.38051115773e-05
-1.38052049217e-05
-1.38053061061e-05
-1.38053995422e-05
-1.38054746352e-05
-1.38055231297e-05
-1.38055398449e-05
-1.38055225902e-05
-1.38054735866e-05
-1.3805398054e-05
-1.38053043114e-05
-1.38052029972e-05
-1.38051098345e-05
-1.38050292763e-05
-1.38049667016e-05
-1.38050445626e-05
-1.38051339344e-05
-1.38052310083e-05
-1.38053208873e-05
-1.38053932715e-05
-1.3805440091e-05
-1.38054562486e-05
-1.38054396031e-05
-1.3805392326e-05
-1.38053195531e-05
-1.3805229397e-05
-1.38051321989e-05
-1.38050429666e-05
-1.38049651724e-05
-1.38049086253e-05
-1.3804984418e-05
-1.38050704445e-05
-1.38051637011e-05
-1.38052500953e-05
-1.38053197001e-05
-1.38053647463e-05
-1.38053803007e-05
-1.38053643052e-05
-1.38053188502e-05
-1.38052489049e-05
-1.38051622707e-05
-1.38050688922e-05
-1.38049829474e-05
-1.38049071738e-05
-1.38048543377e-05
-1.38049284137e-05
-1.38050114533e-05
-1.3805100955e-05
-1.3805183725e-05
-1.38052503303e-05
-1.38052934191e-05
-1.38053082978e-05
-1.38052930265e-05
-1.38052495766e-05
-1.38051826658e-05
-1.38050996751e-05
-1.38050100503e-05
-1.3804927058e-05
-1.38048529242e-05
-1.3804801604e-05
-1.38048740837e-05
-1.3804954259e-05
-1.38050399092e-05
-1.38051187994e-05
-1.38051821034e-05
-1.38052229863e-05
-1.38052370968e-05
-1.38052226441e-05
-1.38051814433e-05
-1.38051178763e-05
-1.38050387859e-05
-1.38049530084e-05
-1.38048728277e-05
-1.38048002499e-05
-1.38047486938e-05
-1.38048195754e-05
-1.380489696e-05
-1.38049785921e-05
-1.38050532556e-05
-1.38051128566e-05
-1.38051512359e-05
-1.38051644598e-05
-1.38051509354e-05
-1.38051122797e-05
-1.38050524405e-05
-1.38049775959e-05
-1.38048958368e-05
-1.38048184253e-05
-1.38047473792e-05
-1.38046942509e-05
-1.38047637497e-05
-1.38048384861e-05
-1.38049159657e-05
-1.38049860196e-05
-1.38050415081e-05
-1.38050770391e-05
-1.38050892581e-05
-1.38050767779e-05
-1.38050409932e-05
-1.38049853114e-05
-1.38049150868e-05
-1.38048374837e-05
-1.38047626998e-05
-1.38046930198e-05
-1.38046357233e-05
-1.38047048609e-05
-1.38047777889e-05
-1.3804851442e-05
-1.38049168248e-05
-1.38049679098e-05
-1.38050004109e-05
-1.38050115119e-05
-1.38050001719e-05
-1.38049674791e-05
-1.38049161906e-05
-1.38048506721e-05
-1.38047769014e-05
-1.38047039258e-05
-1.38046346098e-05
-1.38045709312e-05
-1.38046419549e-05
-1.38047143081e-05
-1.38047847821e-05
-1.38048456234e-05