/*--------------------------------*- C++ -*----------------------------------*\
  =========                 |
  \\      /  F ield         | OpenFOAM: The Open Source CFD Toolbox
   \\    /   O peration     | Website:  https://openfoam.org
    \\  /    A nd           | Version:  7
     \\/     M anipulation  |
\*---------------------------------------------------------------------------*/
FoamFile
{
    version     2.0;
    format      ascii;
    class       surfaceScalarField;
    location    "1.84";
    object      phi;
}
// * * * * * * * * * * * * * * * * * * * * * * * * * * * * * * * * * * * * * //

dimensions      [0 3 -1 0 0 0 0];

internalField   nonuniform List<scalar> 
65775
(
-1.9113359018e-11
-5.30185951347e-09
-5.1564460272e-11
-1.44539280496e-14
-3.45727061755e-11
-5.58110446705e-09
-5.41861213067e-11
-4.13884706805e-11
-5.83797912333e-09
-5.6190170452e-11
-4.01167710914e-11
-6.05991188226e-09
-5.78129566501e-11
-3.29606277547e-11
-6.23843279463e-09
-5.90731857106e-11
-2.15534459911e-11
-6.36969663933e-09
-5.9969092111e-11
-7.59025256768e-12
-6.45213881351e-09
-6.05280747163e-11
7.26872130904e-12
-6.48288015799e-09
-6.07503277918e-11
2.12373530398e-11
-6.45213018888e-09
-6.05264475775e-11
3.26562826709e-11
-6.36967837018e-09
-5.9966207633e-11
3.98308499342e-11
-6.23840449551e-09
-5.90697602668e-11
4.11271631491e-11
-6.05987485791e-09
-5.78102378177e-11
3.43402393846e-11
-5.83793923794e-09
-5.61901827987e-11
1.89129002399e-11
-5.58106932442e-09
-5.41921951198e-11
-5.30185999496e-09
-5.15815668685e-11
-1.59378370789e-13
-6.47241349557e-11
-9.91445533528e-09
-4.41082253699e-10
-3.28099133831e-14
-1.13943808455e-10
-1.04314074447e-08
-4.96070218015e-10
-1.35113787231e-10
-1.09120293355e-08
-5.49051358127e-10
-1.3212426181e-10
-1.13232119962e-08
-5.97646420833e-10
-1.09296834492e-10
-1.16523978183e-08
-6.3904175538e-10
-7.17964404256e-11
-1.18931962578e-08
-6.70716786807e-10
-2.52301209973e-11
-1.20439691929e-08
-6.90851135328e-10
2.43762550311e-11
-1.21000479019e-08
-6.98051488535e-10
7.09570508177e-11
-1.20439546053e-08
-6.90846886384e-10
1.08488179294e-10
-1.18931650691e-08
-6.7070935817e-10
1.31363846174e-10
-1.16523476443e-08
-6.39033180107e-10
1.34418477028e-10
-1.13231437023e-08
-5.97640242514e-10
1.13326801253e-10
-1.09119523824e-08
-5.49053319778e-10
6.42020068838e-11
-1.04313471019e-08
-4.96089668164e-10
-9.91447347063e-09
-4.41131716128e-10
-4.22170744102e-13
-1.17176101169e-10
-1.36594283039e-08
-1.00208508109e-09
-4.55450018926e-14
-1.98372124247e-10
-1.43539586296e-08
-1.1366240977e-09
-2.34281998364e-10
-1.49967748933e-08
-1.26682745209e-09
-2.29864130602e-10
-1.55409474239e-08
-1.3860780239e-09
-1.90904949218e-10
-1.59738934809e-08
-1.4874220519e-09
-1.25720883996e-10
-1.62887140069e-08
-1.5648032919e-09
-4.41300459341e-11
-1.648519642e-08
-1.61386393632e-09
4.29309657579e-11
-1.65582266175e-08
-1.63131791986e-09
1.24540956435e-10
-1.64851871102e-08
-1.61385796284e-09
1.89765782206e-10
-1.62886924356e-08
-1.56479290598e-09
2.28789522252e-10
-1.59738560727e-08
-1.48741023479e-09
2.33295641288e-10
-1.55408946663e-08
-1.3860699839e-09
1.97494486064e-10
-1.49967148604e-08
-1.26683163071e-09
1.16433871402e-10
-1.4353923972e-08
-1.13665431066e-09
-1.36594907706e-08
-1.00215968747e-09
-6.1075218977e-13
-1.72084303114e-10
-1.64646784415e-08
-1.63273797724e-09
-5.49897451636e-14
-2.84493015253e-10
-1.72720042839e-08
-1.85471263257e-09
-3.35299608095e-10
-1.80084964191e-08
-2.06818822451e-09
-3.29462285306e-10
-1.86253012374e-08
-2.26233528541e-09
-2.74254100258e-10
-1.91125568578e-08
-2.4262940275e-09
-1.80869959626e-10
-1.9464806398e-08
-2.55085797492e-09
-6.34232175878e-11
-1.96840046628e-08
-2.62953115767e-09
6.20514068588e-11
-1.9765535192e-08
-2.65742953083e-09
1.79518313694e-10
-1.96840037022e-08
-2.62952439459e-09
2.7294545208e-10
-1.94648015894e-08
-2.55084627355e-09
3.2822247244e-10
-1.91125433328e-08
-2.42628086209e-09
3.34155549983e-10
-1.86252776269e-08
-2.26232672879e-09
2.83469839899e-10
-1.8008468646e-08
-2.06819414764e-09
1.71213153788e-10
-1.72720098703e-08
-1.85474946532e-09
-1.64647920233e-08
-1.6328279964e-09
-7.31955341291e-13
-2.25570144667e-10
-1.83438080266e-08
-2.25121124557e-09
-6.18321164574e-14
-3.68862605723e-10
-1.92045450974e-08
-2.55411641214e-09
-4.34336383624e-10
-1.99744476516e-08
-2.8425079415e-09
-4.27036272599e-10
-2.06124101343e-08
-3.10248584985e-09
-3.55866122986e-10
-2.11128291579e-08
-3.3204284591e-09
-2.34835957125e-10
-2.14727579201e-08
-3.48506779701e-09
-8.22637680584e-11
-2.16962221762e-08
-3.58863346462e-09
8.08405459056e-11
-2.17794640444e-08
-3.62526288543e-09
2.33431849495e-10
-2.16962327333e-08
-3.58862659716e-09
3.54503041573e-10
-2.14727758605e-08
-3.48505619856e-09
4.25739338455e-10
-2.11128495132e-08
-3.32041566736e-09
4.33132626362e-10
-2.0612430099e-08
-3.10247803267e-09
3.67778474087e-10
-1.99744702464e-08
-2.84251518849e-09
2.24637370947e-10
-1.9204604501e-08
-2.55415609599e-09
-1.83439729767e-08
-2.25130776552e-09
-8.00617167926e-13
-2.75112512256e-10
-1.93745394384e-08
-2.79590982174e-09
-6.57798019164e-14
-4.48691366976e-10
-2.02402363744e-08
-3.1654732786e-09
-5.28308341192e-10
-2.09984127363e-08
-3.51358307833e-09
-5.19545066186e-10
-2.16202065966e-08
-3.82471645042e-09
-4.33107506914e-10
-2.21048249329e-08
-4.08376307462e-09
-2.85829755784e-10
-2.24520036275e-08
-4.2784504597e-09
-1.0003410879e-10
-2.26672114827e-08
-4.40047714538e-09
9.86244281819e-11
-2.2747503896e-08
-4.44353384147e-09
2.84437755454e-10
-2.26672325692e-08
-4.40047118214e-09
4.31753262207e-10
-2.2452042915e-08
-4.2784405676e-09
5.18251827497e-10
-2.21048771712e-08
-4.08375253762e-09
5.2710144202e-10
-2.16202677713e-08
-3.82471095882e-09
4.47596765397e-10
-2.09984828339e-08
-3.51359201802e-09
2.74160421482e-10
-2.02403466232e-08
-3.16551366417e-09
-1.93747522237e-08
-2.79600671495e-09
-8.33543093677e-13
-3.19736468253e-10
-1.967049474e-08
-3.23190791538e-09
-6.72560789582e-14
-5.22418109808e-10
-2.05047370245e-08
-3.65234947288e-09
-6.15450097169e-10
-2.12211828865e-08
-4.04458645901e-09
-6.05312280057e-10
-2.18029219173e-08
-4.39262050959e-09
-5.04594386978e-10
-2.22538714342e-08
-4.6807782515e-09
-3.32943126939e-10
-2.25760385011e-08
-4.89646027027e-09
-1.16429582866e-10
-2.2775539915e-08
-5.03124455444e-09
1.15056460354e-10
-2.28500432118e-08
-5.0786869333e-09
3.31586548258e-10
-2.27755718537e-08
-5.03124001633e-09
5.03272819382e-10
-2.25760997139e-08
-4.89645302923e-09
6.0404684243e-10
-2.2253956693e-08
-4.68077115255e-09
6.1426382358e-10
-2.18030262737e-08
-4.39261842727e-09
5.21335045764e-10
-2.12213033978e-08
-4.04459753032e-09
3.18784836357e-10
-2.05048989976e-08
-3.65238959707e-09
-1.96707514266e-08
-3.23200174756e-09
-8.46531924952e-13
-3.59659404855e-10
-1.93572040291e-08
-3.54707840994e-09
-6.60194319018e-14
-5.89724520445e-10
-2.0134251081e-08
-4.00474630741e-09
-6.9535904422e-10
-2.07907977111e-08
-4.42837046496e-09
-6.84008261576e-10
-2.13187901404e-08
-4.80213580471e-09
-5.70107833066e-10
-2.1726365183e-08
-5.11030411491e-09
-3.76058544764e-10
-2.20170958612e-08
-5.34026521079e-09
-1.31420742361e-10
-2.21970055078e-08
-5.48362304599e-09
1.30081821165e-10
-2.22641703419e-08
-5.53394301064e-09
3.74735562782e-10
-2.21970474141e-08
-5.48362026565e-09
5.68818157024e-10
-2.20171772392e-08
-5.34026124116e-09
6.82771166168e-10
-2.17264808936e-08
-5.11030128012e-09
6.9419549128e-10
-2.13189341609e-08
-4.8021380115e-09
5.88656492108e-10
-2.07909651253e-08
-4.42838436707e-09
3.58713426905e-10
-2.01344620509e-08
-4.00478637232e-09
-1.93575040992e-08
-3.54716809533e-09
-8.51402158031e-13
-3.95728453677e-10
-1.85566289794e-08
-3.74414640735e-09
-6.30605947574e-14
-6.51198082351e-10
-1.9259252579e-08
-4.22864687091e-09
-7.68665398201e-10
-1.98457809295e-08
-4.6743985604e-09
-7.56284023264e-10
-2.03132486448e-08
-5.06602906236e-09
-6.30225201199e-10
-2.0673176448e-08
-5.38793403422e-09
-4.1557304753e-10
-2.09298452059e-08
-5.62760421682e-09
-1.45152064643e-10
-2.10885717209e-08
-5.77669569318e-09
1.43833036064e-10
-2.11476953006e-08
-5.82885422916e-09
4.14269821329e-10
-2.1088623439e-08
-5.77669490784e-09
6.28954582596e-10
-2.09299463069e-08
-5.62760398136e-09
7.55064054388e-10
-2.06733220629e-08
-5.38793613399e-09
7.67515301836e-10
-2.0313431798e-08
-5.06603640146e-09
6.50138156344e-10
-1.98459946349e-08
-4.67441626879e-09
3.94783652946e-10
-1.92595123135e-08
-4.22868795102e-09
-1.85569702947e-08
-3.7442325514e-09
-8.55690143398e-13
-4.28936536893e-10
-1.73795915617e-08
-3.83325257e-09
-5.81112265587e-14
-7.07940626892e-10
-1.79970235029e-08
-4.33713755765e-09
-8.36634614337e-10
-1.85085686214e-08
-4.79859947962e-09
-8.23355089216e-10
-1.89133640448e-08
-5.20272636516e-09
-6.85930548536e-10
-1.92249773373e-08
-5.53410180515e-09
-4.52120308613e-10
-1.94474201338e-08
-5.78036605461e-09
-1.5784309887e-10
-1.95848428564e-08
-5.93323863758e-09
1.56525159269e-10
-1.96357779843e-08
-5.98650645455e-09
4.50818425191e-10
-1.95849036673e-08
-5.93324006289e-09
6.84661328685e-10
-1.94475397766e-08
-5.78036999524e-09
8.22136091751e-10
-1.92251507398e-08
-5.53410952818e-09
8.35483952121e-10
-1.89135841178e-08
-5.2027397977e-09
7.0687730202e-10
-1.85088267529e-08
-4.79862227048e-09
4.27984682391e-10
-1.79973313561e-08
-4.33718133632e-09
-1.73799760648e-08
-3.83333687762e-09
-8.6395068532e-13
-4.60128637324e-10
-1.59236131626e-08
-3.82685762807e-09
-5.22854112162e-14
-7.61319979079e-10
-1.64497006075e-08
-4.34483986599e-09
-9.00894691359e-10
-1.68847690054e-08
-4.81753864954e-09
-8.86684467018e-10
-1.72282105297e-08
-5.23038263891e-09
-7.38314276825e-10
-1.74934557227e-08
-5.56816119167e-09
-4.86361019861e-10
-1.76832007628e-08
-5.81873358911e-09
-1.69714350104e-10
-1.78001844821e-08
-5.97392856699e-09
1.68378188706e-10
-1.78431683471e-08
-6.0277504824e-09
4.85041350902e-10
-1.78002538063e-08
-5.97393243007e-09
7.37028163319e-10
-1.76833374709e-08
-5.81874218871e-09
8.85449250241e-10
-1.74936555039e-08
-5.56817532903e-09
8.99728339811e-10
-1.72284655049e-08
-5.23040331719e-09
7.6024056434e-10
-1.68850699366e-08
-4.81756807732e-09
4.59159522978e-10
-1.64500552681e-08
-4.34488837422e-09
-1.59240394423e-08
-3.82694241734e-09
-8.78568042225e-13
-4.89915906799e-10
-1.42735793115e-08
-3.73698140189e-09
-4.5328801521e-14
-8.13034408642e-10
-1.47048487697e-08
-4.2652375424e-09
-9.63351713997e-10
-1.50650485296e-08
-4.74595071895e-09
-9.4773638823e-10
-1.53516432379e-08
-5.16465879072e-09
-7.88315415736e-10
-1.55745237316e-08
-5.50641527608e-09
-5.1880581501e-10
-1.57342675004e-08
-5.75943230105e-09
-1.80927698853e-10
-1.58323388385e-08
-5.91573904569e-09
1.79554907983e-10
-1.58678746547e-08
-5.96965021644e-09
5.1745026505e-10
-1.58324159418e-08
-5.91574557276e-09
7.86994684189e-10
-1.57344202007e-08
-5.75944606256e-09
9.46468743068e-10
-1.5574747286e-08
-5.5064366967e-09
9.62155247974e-10
-1.53519309401e-08
-5.16468803668e-09
8.11927285151e-10
-1.50653905021e-08
-4.74598853816e-09
4.88920718302e-10
-1.47052494392e-08
-4.26529283819e-09
-1.42740467062e-08
-3.73706903951e-09
-8.99948592746e-13
-5.19583379091e-10
-1.25026456716e-08
-3.5740729379e-09
-3.81993500916e-14
-8.66080047242e-10
-1.28367620605e-08
-4.10989193732e-09
-1.02624200658e-09
-1.31284239571e-08
-4.59624537018e-09
-1.00759767417e-09
-1.33657517679e-08
-5.01847044321e-09
-8.36344543603e-10
-1.35515389746e-08
-5.36209167605e-09
-5.49584124745e-10
-1.3684557918e-08
-5.61589187404e-09
-1.91509045819e-10
-1.37655953853e-08
-5.77222314059e-09
1.90082741978e-10
-1.37943617845e-08
-5.82580738434e-09
5.48175929805e-10
-1.37656795115e-08
-5.77223249451e-09
8.34973624242e-10
-1.3684724322e-08
-5.61591119827e-09
1.00628269547e-09
-1.35517846774e-08
-5.36212116642e-09
1.02500265711e-09
-1.33660695929e-08
-5.01850960002e-09
8.64935165092e-10
-1.31288047519e-08
-4.59629342052e-09
5.18555466535e-10
-1.28372080013e-08
-4.10995574596e-09
-1.25031534182e-08
-3.57416476712e-09
-9.22763423596e-13
-5.55581244451e-10
-1.06688638234e-08
-3.34678193116e-09
-2.91187882977e-14
-9.26603869666e-10
-1.09100928814e-08
-3.88874611005e-09
-1.09195648817e-09
-1.11471745544e-08
-4.37891446898e-09
-1.06667111402e-09
-1.13439435369e-08
-4.8024881109e-09
-8.82240745964e-10
-1.14976393799e-08
-5.14598000881e-09
-5.78514639691e-10
-1.1607129159e-08
-5.39900573152e-09
-2.01394373196e-10
-1.16731640363e-08
-5.55435166842e-09
1.99899550931e-10
-1.16959568913e-08
-5.60722694561e-09
5.77039619921e-10
-1.16732540703e-08
-5.55436382781e-09
8.80805355066e-10
-1.16073080309e-08
-5.3990306712e-09
1.06529662743e-09
-1.14979035806e-08
-5.14601790177e-09
1.09066365708e-09
-1.13442881693e-08
-4.80253816304e-09
9.25412410966e-10
-1.11475921491e-08
-4.37897452818e-09
5.54514808583e-10
-1.09105847252e-08
-3.88881986858e-09
-1.06694116214e-08
-3.34687742998e-09
-9.52313101838e-13
-6.18406657631e-10
-3.06158309872e-09
-2.09954341525e-14
-8.80331469354e-09
-1.00530371888e-09
-3.61057430715e-09
-8.99051983663e-09
-1.16753738051e-09
-4.10249546037e-09
-9.1887012222e-09
-1.131514712e-09
-4.52528923051e-09
-9.35153100302e-09
-9.31903403577e-10
-4.86689541347e-09
-9.4777993167e-09
-6.09723287361e-10
-5.11785784185e-09
-9.56773707252e-09
-2.12056775391e-10
-5.27140744414e-09
-9.62161455832e-09
2.10481038181e-10
-5.32326872213e-09
-9.63958456744e-09
6.08169264945e-10
-5.27142192004e-09
-9.62171000822e-09
9.30393253819e-10
-5.11788748914e-09
-9.56792719801e-09
1.13007091702e-09
-4.86694055429e-09
-9.47808156017e-09
1.16618256606e-09
-4.5253493312e-09
-9.35190150161e-09
1.00406078363e-09
-4.10256759803e-09
-9.18915396828e-09
6.17298755903e-10
-3.61066122137e-09
-8.99105619217e-09
-3.06167585806e-09
-9.86998699085e-13
-8.80390583515e-09
-8.88798281656e-12
4.07370886328e-10
-4.50064381115e-10
-2.50003770076e-14
-1.41363110549e-11
4.50134362603e-10
-4.99141170123e-10
-1.59656877879e-11
4.91156141181e-10
-5.4559123734e-10
-1.54433199701e-11
5.28949940165e-10
-5.87351005172e-10
-1.2772135021e-11
5.60517881327e-10
-6.22308315668e-10
-8.3998032382e-12
5.84341782171e-10
-6.48712434119e-10
-2.90635046352e-12
5.99354284885e-10
-6.65394213083e-10
2.98192573828e-12
6.04739165099e-10
-6.71391353003e-10
8.4734209536e-12
5.99364328177e-10
-6.65393733933e-10
1.28436106404e-11
5.84364411427e-10
-6.48711542195e-10
1.55151734083e-11
5.60555626469e-10
-6.22307133434e-10
1.60426525864e-11
5.2900198537e-10
-5.87349850649e-10
1.42198058057e-11
4.91213698558e-10
-5.45590873828e-10
8.97387758689e-12
4.50187648588e-10
-4.99143594862e-10
4.07409975121e-10
-4.50075106907e-10
4.84014073476e-14
-1.43303058579e-11
1.16206146573e-09
-1.18145075975e-09
-6.52022364128e-14
-2.2461165117e-11
1.26950771405e-09
-1.3074280677e-09
-2.53532800417e-11
1.37090764274e-09
-1.42603566826e-09
-2.42500504279e-11
1.46224758325e-09
-1.53215424843e-09
-1.98836542366e-11
1.53768419219e-09
-1.62064938906e-09
-1.29905740951e-11
1.59398936462e-09
-1.68730524885e-09
-4.46228520674e-12
1.62927902039e-09
-1.72933513689e-09
4.65360938645e-12
1.64196567793e-09
-1.74441730814e-09
1.31788553689e-11
1.62930584792e-09
-1.72933341723e-09
2.006945635e-11
1.59404818216e-09
-1.6873020892e-09
2.44394217858e-11
1.53778018178e-09
-1.62064521377e-09
2.55556394872e-11
1.4623784645e-09
-1.53215005767e-09
2.26789454947e-11
1.37105413475e-09
-1.42603369653e-09
1.45506493501e-11
1.26964443568e-09
-1.30743397687e-09
1.16216491533e-09
-1.18147725263e-09
1.26333325827e-13
-1.16377158516e-11
1.95949698951e-09
-1.78785802228e-09
-9.47450656479e-14
-1.71608420748e-11
2.11743356153e-09
-1.97912153844e-09
-1.88190405578e-11
2.2642801888e-09
-2.15864158113e-09
-1.74941320687e-11
2.39361791261e-09
-2.31885754171e-09
-1.40528705575e-11
2.4989685627e-09
-2.45220882833e-09
-9.05293565329e-12
2.57665115214e-09
-2.55250591604e-09
-3.05495370665e-12
2.62504155226e-09
-2.61565195606e-09
3.32941582484e-12
2.64249228163e-09
-2.63824941166e-09
9.32542159598e-12
2.62508381389e-09
-2.61564907537e-09
1.43253694834e-11
2.57674014229e-09
-2.55250058782e-09
1.77745085623e-11
2.49910748615e-09
-2.45220174963e-09
1.91176051069e-11
2.39380088715e-09
-2.31885028485e-09
1.74790869673e-11
2.26448421004e-09
-2.15863748262e-09
1.19561811978e-11
2.11762803227e-09
-1.97912872099e-09
1.95965749452e-09
-1.78789389531e-09
1.85515198318e-13
-3.9002755197e-12
2.62861584604e-09
-2.29790567551e-09
-1.15543367253e-13
-3.77959477784e-12
2.80910831412e-09
-2.54659864333e-09
-2.9839572264e-12
2.97455531046e-09
-2.77935456674e-09
-1.89018768056e-12
3.11673550716e-09
-2.98662720698e-09
-1.02877675487e-12
3.23061067073e-09
-3.15885627093e-09
-4.5283639693e-13
3.31340741023e-09
-3.28822961385e-09
-4.19473010091e-14
3.36463406079e-09
-3.36956180199e-09
3.75679831734e-13
3.38320877858e-09
-3.39858403718e-09
7.86518533297e-13
3.36468921276e-09
-3.36955790969e-09
1.365848568e-12
3.31352131728e-09
-3.288222372e-09
2.23911155731e-12
3.23078492745e-09
-3.15884657396e-09
3.35437397056e-12
3.11696136133e-09
-2.98661700646e-09
4.17105587546e-12
2.97480713757e-09
-2.77934783594e-09
4.28990406253e-12
2.80935144998e-09
-2.5466047501e-09
2.62882161056e-09
-2.29794421426e-09
2.29638098045e-13
6.49394046296e-12
3.0867987049e-09
-2.71581756658e-09
-1.29537185043e-13
1.31457060098e-11
3.26285367482e-09
-3.01458710039e-09
1.65708439113e-11
3.42195949736e-09
-3.29341071862e-09
1.69753215496e-11
3.55496890015e-09
-3.54118603737e-09
1.4467509471e-11
3.65939168168e-09
-3.74674793964e-09
9.66893170131e-12
3.73408189418e-09
-3.90097684153e-09
3.47886942706e-12
3.77996179848e-09
-3.99779445307e-09
-3.10353543986e-12
3.79675011793e-09
-4.03223974701e-09
-9.29143793298e-12
3.78002578264e-09
-3.99779002952e-09
-1.40831468455e-11
3.73421167721e-09
-3.90096833346e-09
-1.65760450476e-11
3.65958567733e-09
-3.74673633432e-09
-1.61486779114e-11
3.55521689769e-09
-3.54117343138e-09
-1.27034174621e-11
3.42223601361e-09
-3.2934012562e-09
-6.05573598481e-12
3.26312690644e-09
-3.01459057194e-09
3.0870403416e-09
-2.71585405097e-09
2.62049202678e-13
1.77113947045e-11
3.31943815859e-09
-3.04617621151e-09
-1.37695255833e-13
3.05080207094e-11
3.47280524485e-09
-3.38828801337e-09
3.61996525862e-11
3.6092797922e-09
-3.70666315524e-09
3.5592508395e-11
3.71981847904e-09
-3.98901671072e-09
2.95660849545e-11
3.80453415059e-09
-4.22292298535e-09
1.94467724585e-11
3.86394170595e-09
-4.39822231935e-09
6.86303181289e-12
3.90015125818e-09
-4.50810561885e-09
-6.45906135365e-12
3.91359560941e-09
-4.54707484548e-09
-1.90387492343e-11
3.90022039651e-09
-4.50810069314e-09
-2.9148602883e-11
3.86408053861e-09
-4.39821280771e-09
-3.51581136575e-11
3.80473993917e-09
-4.22290985644e-09
-3.5742480447e-11
3.72008010635e-09
-3.98900197892e-09
-3.00324082386e-11
3.60957304418e-09
-3.70665075247e-09
-1.72416038424e-11
3.4730996001e-09
-3.38828765035e-09
3.31970437244e-09
-3.04620795097e-09
2.85068102424e-13
2.84608675076e-11
3.35304730933e-09
-3.29388449805e-09
-1.41335745911e-13
4.64664286838e-11
3.47566362264e-09
-3.67326679487e-09
5.3897407875e-11
3.58257062316e-09
-4.02536095024e-09
5.21424973323e-11
3.66592366603e-09
-4.33701522366e-09
4.28501209451e-11
3.72784949185e-09
-4.59483604854e-09
2.79908427423e-11
3.77016486218e-09
-4.78785020775e-09
9.80920360728e-12
3.79572250616e-09
-4.90865401612e-09
-9.38547561219e-12
3.80543598102e-09
-4.95134810108e-09
-2.7561674889e-11
3.79579242469e-09
-4.90864890111e-09
-4.24097365139e-11
3.77030421415e-09
-4.78784027153e-09
-5.1684516953e-11
3.72805459459e-09
-4.59482213167e-09
-5.34180856904e-11
3.66618365537e-09
-4.33699906299e-09
-4.5971390103e-11
3.58286483173e-09
-4.02534598539e-09
-2.79735894361e-11
3.47596516091e-09
-3.67326241271e-09
3.35333079977e-09
-3.2939104527e-09
3.00766995307e-13
3.79582974812e-11
3.23200355721e-09
-3.46389241381e-09
-1.40949671598e-13
6.01471303764e-11
3.32375456344e-09
-3.87507199877e-09
6.88309541499e-11
3.401122221e-09
-4.25565164814e-09
6.59543855868e-11
3.45850307357e-09
-4.59187844709e-09
5.38493202849e-11
3.49926141536e-09
-4.86964248578e-09
3.50294658974e-11
3.52605323386e-09
-5.07735787298e-09
1.22300609546e-11
3.54203159601e-09
-5.20715137555e-09
-1.17924129695e-11
3.54834982983e-09
-5.25284913134e-09
-3.45856415071e-11
3.54209941446e-09
-5.20714643232e-09
-5.33935951957e-11
3.52618802756e-09
-5.07734819126e-09
-6.54816262868e-11
3.49945945812e-09
-4.86962868392e-09
-6.83390684885e-11
3.45875482064e-09
-4.59186182948e-09
-5.96428477024e-11
3.40140970497e-09
-4.25563498219e-09
-3.7463223066e-11
3.32405502597e-09
-3.8750642634e-09
3.23229294269e-09
-3.46391281578e-09
3.10567568381e-13
4.58001037686e-11
3.00307443567e-09
-3.5609158017e-09
-1.38001584258e-13
7.12708951677e-11
3.06849674807e-09
-3.99889671749e-09
8.08468582435e-11
3.12030916152e-09
-4.40319715779e-09
7.69939159132e-11
3.15598350478e-09
-4.75968743795e-09
6.25994728622e-11
3.17945813105e-09
-5.05376153252e-09
4.06125798849e-11
3.19382447519e-09
-5.27340888116e-09
1.41479182519e-11
3.20219601449e-09
-5.41041159982e-09
-1.36996793167e-11
3.205776781e-09
-5.45844692237e-09
-4.01579906725e-11
3.20225896778e-09
-5.41040724778e-09
-6.21332695044e-11
3.19394945462e-09
-5.27340025868e-09
-7.65122372822e-11
3.17964173952e-09
-5.05374896261e-09
-8.03492779933e-11
3.15621809861e-09
-4.75967167963e-09
-7.07646282625e-11
3.12058070785e-09
-4.40318019905e-09
-4.53052163464e-11
3.06878690109e-09
-3.99888712941e-09
3.00336436277e-09
-3.56093196611e-09
3.16308338539e-13
5.18594342476e-11
2.70735007282e-09
-3.58928466543e-09
-1.32547838902e-13
7.98835951876e-11
2.75274134101e-09
-4.04943591185e-09
9.01308226849e-11
2.78449681142e-09
-4.47306358678e-09
8.55253873628e-11
2.80367483722e-09
-4.84583817412e-09
6.9363372388e-11
2.8143446997e-09
-5.15284825853e-09
4.49296219091e-11
2.81971514635e-09
-5.38184065278e-09
1.56315141853e-11
2.8226238195e-09
-5.52438304597e-09
-1.51746513751e-11
2.8241957247e-09
-5.57413110362e-09
-4.44667583471e-11
2.82268050507e-09
-5.5243797713e-09
-6.88900668579e-11
2.81982762788e-09
-5.3818340432e-09
-8.50389530251e-11
2.81451065938e-09
-5.15283829722e-09
-8.96321785521e-11
2.80388825232e-09
-4.84582500177e-09
-7.9380319322e-11
2.7847472141e-09
-4.47304834389e-09
-5.13694484249e-11
2.75301482129e-09
-4.04942677877e-09
2.7076311648e-09
-3.58929886196e-09
3.18656916219e-13
5.62009375849e-11
2.37732631366e-09
-3.55293526631e-09
-1.26091836271e-13
8.62106209733e-11
2.40880250862e-09
-4.03093472631e-09
9.70433300358e-11
2.42594553105e-09
-4.46984305744e-09
9.19594064071e-11
2.43358346133e-09
-4.85522797495e-09
7.45092687137e-11
2.43564833901e-09
-5.1720320241e-09
4.82313792736e-11
2.43518705839e-09
-5.40794278259e-09
1.67696918488e-11
2.43459719539e-09
-5.5544526977e-09
-1.63053949448e-11
2.43483491827e-09
-5.60532533296e-09
-4.77619270327e-11
2.43464657752e-09
-5.55445104759e-09
-7.40310796821e-11
2.43528540175e-09
-5.40793928391e-09
-9.14712215872e-11
2.43579386549e-09
-5.17202631397e-09
-9.65469853954e-11
2.43377277208e-09
-4.85521953926e-09
-8.57138263205e-11
2.42617135664e-09
-4.46983212414e-09
-5.57198608815e-11
2.40905509267e-09
-4.03092905675e-09
2.37759536462e-09
-3.55295058385e-09
3.18933054212e-13
5.90001552116e-11
2.03693062697e-09
-3.45548868903e-09
-1.18462873188e-13
9.06152678363e-11
2.05928904459e-09
-3.94735775571e-09
1.02104221482e-10
2.06639300896e-09
-4.397905108e-09
9.68414627827e-11
2.06672306781e-09
-4.79255180622e-09
7.84966474631e-11
2.0638027673e-09
-5.11623915245e-09
5.08195519725e-11
2.06021984921e-09
-5.35679886649e-09
1.76666370114e-11
2.05780159188e-09
-5.50580087495e-09
-1.7196160165e-11
2.05728643712e-09
-5.55724676213e-09
-5.03450245602e-11
2.05784345866e-09
-5.50580142848e-09
-7.80158006479e-11
2.06030338532e-09
-5.35679967084e-09
-9.63538615833e-11
2.06392788776e-09
-5.11623954703e-09
-1.01612750974e-10
2.06688771109e-09
-4.79255063265e-09
-9.01275260187e-11
2.06659309344e-09
-4.39790157434e-09
-5.85301348241e-11
2.05951872134e-09
-3.9473590123e-09
2.03718233093e-09
-3.45550873861e-09
3.17206826181e-13
6.0553118661e-11
1.70274487194e-09
-3.30034898839e-09
-1.11347702116e-13
9.37661872236e-11
1.71881550486e-09
-3.80264688921e-09
1.06168260585e-10
1.71944656393e-09
-4.26171560745e-09
1.00972435787e-10
1.71604233776e-09
-4.66260625976e-09
8.19475061036e-11
1.71120514833e-09
-4.9904788788e-09
5.30803507475e-11
1.70675077318e-09
-5.23356560779e-09
1.84536553578e-11
1.70387841322e-09
-5.38367947289e-09
-1.79787140733e-11
1.70308870567e-09
-5.43518458847e-09
-5.26028076233e-11
1.70391313749e-09
-5.38368277047e-09
-8.14659270166e-11
1.70682069336e-09
-5.23357186778e-09
-1.00487885394e-10
1.711310359e-09
-4.99048727094e-09
-1.05683943448e-10
1.716183474e-09
-4.66261508995e-09
-9.32894354956e-11
1.71962272795e-09
-4.2617229016e-09
-6.00965808765e-11
1.7190235885e-09
-3.80265856865e-09
1.702980507e-09
-3.30037699927e-09
3.13416962016e-13
6.15242325813e-11
1.38530454555e-09
-3.09077851936e-09
-1.0363149718e-13
9.69995452063e-11
1.39574854354e-09
-3.60116630314e-09
1.10654497143e-10
1.3930743155e-09
-4.06620760939e-09
1.05521917262e-10
1.3892055537e-09
-4.47052952996e-09
8.57037771937e-11
1.38505988378e-09
-4.80002619878e-09
5.55230985884e-11
1.38155701918e-09
-5.0436375843e-09
1.92989488412e-11
1.3793154274e-09
-5.1935719825e-09
-1.88219651065e-11
1.37863736654e-09
-5.24465920375e-09
-5.5044818062e-11
1.37934418745e-09
-5.19357839399e-09
-8.52242993042e-11
1.38161545309e-09
-5.04365014119e-09
-1.05042427094e-10
1.38514924106e-09
-4.8000441335e-09
-1.10178632423e-10
1.3893273352e-09
-4.47055094819e-09
-9.65348235639e-11
1.39322897459e-09
-4.06622935144e-09
-6.10816494863e-11
1.39593823671e-09
-3.60119170406e-09
1.38552615568e-09
-3.09081627527e-09
3.07658733369e-13
6.14445544929e-11
-2.83109644425e-09
-9.62382365791e-14
1.09345577513e-09
1.01939387708e-10
-3.34960015675e-09
1.09426968719e-09
1.17083361524e-10
-3.81758216124e-09
1.09300666386e-09
1.11718792197e-10
-4.22216472686e-09
1.09143791021e-09
9.07261056976e-11
-4.55056777533e-09
1.0897170676e-09
5.87726928387e-11
-4.79265776044e-09
1.08830257728e-09
2.04233037414e-11
-4.94112254975e-09
1.0873743676e-09
-1.99468776949e-11
-4.99132356256e-09
1.08705628428e-09
-5.82960121146e-11
-4.94113195472e-09
1.08739968919e-09
-9.02504826961e-11
-4.79267645605e-09
1.08835343231e-09
-1.11246146768e-10
-4.55059530879e-09
1.08979527257e-09
-1.16617960136e-10
-4.22219962872e-09
1.09154506513e-09
-1.01486731801e-10
-3.81762053672e-09
1.0931465589e-09
-6.10147598486e-11
-3.34964437272e-09
1.09444548551e-09
-2.83113981807e-09
3.01238857491e-13
1.09367061508e-09
6.26671398959e-12
-8.99057257636e-11
-3.66439035936e-10
-1.84129295051e-14
9.77579889992e-12
-1.00168896533e-10
-4.0251993932e-10
1.12945434822e-11
-1.10886277384e-10
-4.36266975007e-10
1.10402341812e-11
-1.20782181781e-10
-4.66352229828e-10
9.19310801307e-12
-1.29134812516e-10
-4.91364355765e-10
6.06860273917e-12
-1.35462800387e-10
-5.10159228489e-10
2.10539260998e-12
-1.3945294804e-10
-5.22003712235e-10
-2.15826502756e-12
-1.40870295795e-10
-5.26275108685e-10
-6.11735726277e-12
-1.39442971502e-10
-5.2200384368e-10
-9.23407526431e-12
-1.35444416294e-10
-5.10159486838e-10
-1.10720590788e-11
-1.29111620438e-10
-4.91364786968e-10
-1.13184860634e-11
-1.20756910338e-10
-4.66353023048e-10
-9.79022034339e-12
-1.10856359271e-10
-4.36268714539e-10
-6.27360532256e-12
-1.0014133e-10
-4.0252454982e-10
-8.98841273024e-11
-3.6645209456e-10
-1.78027688665e-14
1.41128675679e-11
-2.03501746924e-10
-1.08197607691e-09
-4.52310493146e-14
2.27710289099e-11
-2.24111582168e-10
-1.19221364916e-09
2.66488515947e-11
-2.45317150973e-10
-1.29555788504e-09
2.61729623312e-11
-2.64743531401e-10
-1.38778541421e-09
2.18323153587e-11
-2.80966278895e-10
-1.46454101751e-09
1.44177863364e-11
-2.93141767489e-10
-1.52226611513e-09
4.99809995007e-12
-3.00778907983e-10
-1.55863011787e-09
-5.1356975017e-12
-3.03496202033e-10
-1.5716861699e-09
-1.4545636859e-11
-3.00755948244e-10
-1.55863049016e-09
-2.19419580609e-11
-2.93098405963e-10
-1.52226680864e-09
-2.62604956766e-11
-2.80908396433e-10
-1.46454214883e-09
-2.6714795111e-11
-2.64675970973e-10
-1.3877875194e-09
-2.2813340237e-11
-2.45238761556e-10
-1.29556266981e-09
-1.41339851098e-11
-2.2403730755e-10
-1.19222651303e-09
-2.03445710231e-10
-1.08200983431e-09
-4.81733589063e-14
1.83555302409e-11
-2.97054481588e-10
-1.71264303239e-09
-6.26903772081e-14
3.01030898412e-11
-3.24183515885e-10
-1.89084912554e-09
3.54674678285e-11
-3.51655070998e-10
-2.05772126664e-09
3.49057362751e-11
-3.76626475454e-10
-2.20646587196e-09
2.91255308206e-11
-3.97295309868e-10
-2.33015056811e-09
1.92269044673e-11
-4.12683590349e-10
-2.42310951526e-09
6.65815216021e-12
-4.22288811166e-10
-2.48160671223e-09
-6.85786791106e-12
-4.25708487465e-10
-2.50254496617e-09
-1.94136411005e-11
-4.2225913962e-10
-2.48160717143e-09
-2.92880928796e-11
-4.12627208197e-10
-2.4231103619e-09
-3.50380030171e-11
-3.97219009413e-10
-2.33015197758e-09
-3.55682058434e-11
-3.76536986202e-10
-2.2064686653e-09
-3.01708259679e-11
-3.51554449646e-10
-2.05772798159e-09
-1.83923034621e-11
-3.24085279481e-10
-1.8908674516e-09
-2.96975674058e-10
-1.71269049669e-09
-7.32262858356e-14
2.00694572672e-11
-3.69840548676e-10
-2.24515677154e-09
-7.2997121412e-14
3.32689330883e-11
-4.00661492953e-10
-2.48337091056e-09
3.94158126578e-11
-4.31219947825e-10
-2.70599116421e-09
3.88685282184e-11
-4.58648947821e-10
-2.90411003904e-09
3.24452012869e-11
-4.81120184753e-10
-3.06865599468e-09
2.14126741522e-11
-4.97706254823e-10
-3.19221438811e-09
7.40717926897e-12
-5.08005557844e-10
-3.26987018436e-09
-7.65020787678e-12
-5.11674134133e-10
-3.29758317553e-09
-2.16413031217e-11
-5.07971734418e-10
-3.26987052773e-09
-3.26469532931e-11
-4.97641467601e-10
-3.19221500111e-09
-3.9035613088e-11
-4.81030347599e-10
-3.06865710933e-09
-3.95452380163e-11
-4.58541049546e-10
-2.90411268242e-09
-3.33588303225e-11
-4.31098928556e-10
-2.70599835519e-09
-2.01218978525e-11
-4.00543225372e-10
-2.48339148658e-09
-3.69744606113e-10
-2.2452104322e-09
-9.3702789113e-14
2.00190780139e-11
-4.21455404217e-10
-2.68417758966e-09
-7.80237900809e-14
3.34731835965e-11
-4.53703573729e-10
-2.97503416177e-09
3.98466346323e-11
-4.84836632017e-10
-3.24620493217e-09
3.93707611936e-11
-5.1229786533e-10
-3.48709924753e-09