/*--------------------------------*- C++ -*----------------------------------*\
  =========                 |
  \\      /  F ield         | OpenFOAM: The Open Source CFD Toolbox
   \\    /   O peration     | Website:  https://openfoam.org
    \\  /    A nd           | Version:  7
     \\/     M anipulation  |
\*---------------------------------------------------------------------------*/
FoamFile
{
    version     2.0;
    format      ascii;
    class       surfaceScalarField;
    location    "0.16";
    object      phi;
}
// * * * * * * * * * * * * * * * * * * * * * * * * * * * * * * * * * * * * * //

dimensions      [0 3 -1 0 0 0 0];

internalField   nonuniform List<scalar> 
65775
(
2.47964239979e-11
1.60808605667e-09
2.9959348067e-10
-1.53255773599e-13
4.18057015755e-11
1.68166407287e-09
3.33604433367e-10
5.04641203298e-11
1.74640903961e-09
3.6717559367e-10
5.01213566228e-11
1.80204775571e-09
3.98073172308e-10
4.18462722522e-11
1.84633603629e-09
4.24311907865e-10
2.7365604706e-11
1.87861432058e-09
4.44300495744e-10
8.94705669676e-12
1.89886753863e-09
4.5696799986e-10
-1.08268747576e-11
1.90655148668e-09
4.6149597646e-10
-2.91921839535e-11
1.89891013114e-09
4.56939039302e-10
-4.35743324691e-11
1.87870099736e-09
4.44243583768e-10
-5.17108198371e-11
1.84647032091e-09
4.24228181098e-10
-5.1887718628e-11
1.8022280822e-09
3.97963745688e-10
-4.30456213595e-11
1.74663341899e-09
3.67040166532e-10
-2.58745656405e-11
1.68190851912e-09
3.33433400978e-10
1.60813050959e-09
2.99343630125e-10
-8.91704583211e-13
6.2652265653e-11
2.63951912536e-09
7.46990087284e-10
-3.34206729433e-13
1.09717331287e-10
2.74629525214e-09
8.28594614554e-10
1.33811015123e-10
2.8428456441e-09
9.09156727335e-10
1.34003706153e-10
2.92516750586e-09
9.83277946715e-10
1.12425177545e-10
2.99035650371e-09
1.0461681952e-09
7.36945415653e-11
3.03751309573e-09
1.09403451918e-09
2.40258893469e-11
3.06702638829e-09
1.12434370094e-09
-2.93683230177e-11
3.0782942267e-09
1.13515836347e-09
-7.88913838952e-11
3.06711468987e-09
1.12425380706e-09
-1.17348123779e-10
3.03769819015e-09
1.09385911016e-09
-1.38542036803e-10
2.99064981169e-09
1.04591176232e-09
-1.37879308426e-10
2.92557608716e-09
9.82945279255e-10
-1.13266347235e-10
2.84337234828e-09
9.08748802102e-10
-6.564416451e-11
2.74686489079e-09
8.28086906161e-10
2.63968317972e-09
7.46293912163e-10
-2.49627445596e-12
9.07554816356e-11
3.23010818557e-09
1.06842651064e-09
-4.22153916782e-13
1.60348015087e-10
3.3422023045e-09
1.18303940076e-09
1.96501149562e-10
3.44789124158e-09
1.2961823432e-09
1.9751891569e-10
3.53750262293e-09
1.40028461005e-09
1.66091548153e-10
3.60824172374e-09
1.48859468366e-09
1.08942799182e-10
3.6590231213e-09
1.55578516098e-09
3.53475250916e-11
3.69071961242e-09
1.59829988855e-09
-4.38386929915e-11
3.70290631875e-09
1.61343603799e-09
-1.17208813249e-10
3.69082436387e-09
1.59815007611e-09
-1.73930945141e-10
3.65925135946e-09
1.55549376549e-09
-2.04757719807e-10
3.60861719199e-09
1.48817065286e-09
-2.02999602202e-10
3.5380477647e-09
1.39973808515e-09
-1.66017272014e-10
3.44862209248e-09
1.29551904082e-09
-9.5495009831e-11
3.34298919454e-09
1.18223086965e-09
3.23036243698e-09
1.06736087694e-09
-3.950873378e-12
1.11553771974e-10
3.48354780202e-09
1.29342232023e-09
-4.65543201876e-13
1.9724259774e-10
3.58276255168e-09
1.43054169562e-09
2.42480747232e-10
3.68191023781e-09
1.56581972623e-09
2.44319049729e-10
3.76607162131e-09
1.69028344285e-09
2.05761438597e-10
3.83244093385e-09
1.7958546907e-09
1.34973040374e-10
3.87974296322e-09
1.87615975045e-09
4.35232203814e-11
3.90919356218e-09
1.92693746716e-09
-5.49459446861e-11
3.92061758448e-09
1.94497328776e-09
-1.46098138499e-10
3.90928811131e-09
1.92673014977e-09
-2.16319997213e-10
3.87996327966e-09
1.87575789541e-09
-2.54077076612e-10
3.8328242706e-09
1.79527287046e-09
-2.51247730269e-10
3.76665729741e-09
1.68953900603e-09
-2.0488623062e-10
3.6827336595e-09
1.56492674853e-09
-1.17935685885e-10
3.58364986507e-09
1.42947746956e-09
3.4838511849e-09
1.29207380801e-09
-5.32277445971e-12
1.26016912932e-10
3.48636691019e-09
1.43820289817e-09
-4.79133690688e-13
2.22614156199e-10
3.56174605946e-09
1.58946145504e-09
2.74251101349e-10
3.64449605259e-09
1.73854798778e-09
2.76794899612e-10
3.71556300732e-09
1.87570639092e-09
2.33352554599e-10
3.77177938654e-09
1.99204294678e-09
1.53009926429e-10
3.81159745053e-09
2.08052444457e-09
4.89532076906e-11
3.83634241457e-09
2.13643338553e-09
-6.31558628693e-11
3.84605543114e-09
2.1562414452e-09
-1.66847517734e-10
3.83640388203e-09
2.13617109367e-09
-2.46492868541e-10
3.81176310922e-09
2.08001784267e-09
-2.88946545783e-10
3.77210020682e-09
1.99131348083e-09
-2.85175554201e-10
3.71609458913e-09
1.87478059362e-09
-2.32139663748e-10
3.64529570684e-09
1.73745155615e-09
-1.33982729218e-10
3.56260985633e-09
1.58818269075e-09
3.48664381618e-09
1.43663822678e-09
-6.65113188781e-12
1.3509471825e-10
3.31058305636e-09
1.51633150949e-09
-4.73939536406e-13
2.38219072266e-10
3.35682793993e-09
1.6750820429e-09
2.93784444724e-10
3.41802097507e-09
1.83137405462e-09
2.96784554475e-10
3.47220095902e-09
1.97515089002e-09
2.50315368539e-10
3.51551895476e-09
2.09710945658e-09
1.63966281296e-10
3.54606356806e-09
2.18986174908e-09
5.19317958308e-11
3.56503633582e-09
2.24842761918e-09
-6.88190023396e-11
3.57260975717e-09
2.26911852583e-09
-1.80425137956e-10
3.56504283966e-09
2.24811297424e-09
-2.65953375094e-10
3.54612932832e-09
2.18925613249e-09
-3.1125555591e-10
3.51570607023e-09
2.0962423299e-09
-3.06804147673e-10
3.47258086878e-09
1.97405974537e-09
-2.49581964555e-10
3.41867187808e-09
1.83009859333e-09
-1.44624026808e-10
3.35753784579e-09
1.67362338177e-09
3.31073191766e-09
1.51459686957e-09
-7.958662789e-12
1.39601477377e-10
3.01576895106e-09
1.53944612505e-09
-4.57347395384e-13
2.45476889648e-10
3.03201282693e-09
1.70047515724e-09
3.02691797023e-10
3.07015017509e-09
1.85880802843e-09
3.05797468409e-10
3.10647822904e-09
2.00445090264e-09
2.5784540378e-10
3.13628158462e-09
2.12800805387e-09
1.68596020189e-10
3.15725727537e-09
2.22197592141e-09
5.27029459571e-11
3.17031369508e-09
2.28126394408e-09
-7.22226852859e-11
3.17566639324e-09
2.30214326488e-09
-1.87627947934e-10
3.17024572325e-09
2.28089974931e-09
-2.75939911407e-10
3.15718082085e-09
2.22127714194e-09
-3.22555888996e-10
3.13626623434e-09
2.12701302939e-09
-3.17786350287e-10
3.10660892156e-09
2.00320941358e-09
-2.58670220487e-10
3.07052583126e-09
1.85737515318e-09
-1.50701966944e-10
3.03242399119e-09
1.69886439033e-09
3.01565963592e-09
1.5375745479e-09
-9.26661256527e-12
1.40137853705e-10
2.65074071023e-09
1.51770573453e-09
-4.32803456453e-13
2.45452853413e-10
2.63945586043e-09
1.67701816288e-09
3.02225038757e-10
2.65577040149e-09
1.83344204625e-09
3.05035685922e-10
2.67523653065e-09
1.97730484806e-09
2.56913809446e-10
2.69229528861e-09
2.0993614349e-09
1.67520010354e-10
2.70432604e-09
2.19218384174e-09
5.1470511164e-11
2.71187336297e-09
2.25069644632e-09
-7.36012592622e-11
2.71513512658e-09
2.27122749742e-09
-1.89107800149e-10
2.71171357223e-09
2.2502857979e-09
-2.77455481556e-10
2.7040682483e-09
2.19139801216e-09
-3.24082355222e-10
2.69201205411e-09
2.09824806655e-09
-3.19406557286e-10
2.67502149115e-09
1.97592673223e-09
-2.60499692634e-10
2.65574093252e-09
1.83187007075e-09
-1.52837793344e-10
2.63941297363e-09
1.67527652746e-09
2.6502150254e-09
1.51572095737e-09
-1.0590231496e-11
1.3712364857e-10
2.25490323584e-09
1.46010357753e-09
-4.03117652079e-13
2.38901221734e-10
2.22093044001e-09
1.61475995111e-09
2.93308184227e-10
2.21851689785e-09
1.76635889456e-09
2.95422530096e-10
2.22331548929e-09
1.90571628053e-09
2.48292562275e-10
2.22918573697e-09
2.02392525896e-09
1.6124402977e-10
2.23337424519e-09
2.11379550715e-09
4.84049425284e-11
2.23609637893e-09
2.17038017154e-09
-7.31429522966e-11
2.23750668721e-09
2.19015064819e-09
-1.85389131664e-10
2.23583005596e-09
2.16992661894e-09
-2.71291946287e-10
2.23290093285e-09
2.11292922912e-09
-3.1677993336e-10
2.22857423616e-09
2.02270305011e-09
-3.12610860391e-10
2.22266227884e-09
1.90421396801e-09
-2.55844619314e-10
2.21795133285e-09
1.76466283075e-09
-1.51466145903e-10
2.22026774996e-09
1.61290282226e-09
2.25377890551e-09
1.45802235392e-09
-1.19415481871e-11
1.30825882049e-10
1.85932528924e-09
1.3747086991e-09
-3.69455972657e-13
2.26305921785e-10
1.80898523898e-09
1.52270831591e-09
2.76586301523e-10
1.79196701332e-09
1.66745352935e-09
2.7765605381e-10
1.78484718034e-09
1.80033952471e-09
2.3260119282e-10
1.78140245338e-09
1.91295195991e-09
1.50191380249e-10
1.77902112773e-09
1.99849187328e-09
4.36550282013e-11
1.77769359192e-09
2.05225841303e-09
-7.10004769805e-11
1.77753454398e-09
2.07095064604e-09
-1.76899772293e-10
1.77730886351e-09
2.05176619493e-09
-2.58074699855e-10
1.77830342614e-09
1.99755257111e-09
-3.01353752802e-10
1.78040956868e-09
1.91163069781e-09
-2.98052728415e-10
1.78366873298e-09
1.79872445154e-09
-2.45196782271e-10
1.79073601724e-09
1.6656455589e-09
-1.46861270594e-10
1.80753016552e-09
1.52074628514e-09
1.85740063256e-09
1.37254235538e-09
-1.33284992727e-11
1.21358847957e-10
1.48761403214e-09
1.2688695469e-09
-3.33008234119e-13
2.0792581729e-10
1.42781318231e-09
1.40907611424e-09
2.5251788013e-10
1.40052197443e-09
1.5457047034e-09
2.5231652991e-10
1.38424966969e-09
1.67076743294e-09
2.10401155679e-10
1.37336457713e-09
1.77649283492e-09
1.34764659727e-10
1.36567686865e-09
1.85664061789e-09
3.73702164e-11
1.3610730765e-09
1.90688864091e-09
-6.73110537836e-11
1.35963205074e-09
1.92425393243e-09
-1.64030070223e-10
1.36055951728e-09
1.90636321587e-09
-2.38352898008e-10
1.36468954197e-09
1.85563702682e-09
-2.78372428966e-10
1.37194289292e-09
1.77508315682e-09
-2.76179539048e-10
1.38246561911e-09
1.66905066454e-09
-2.28805451715e-10
1.39849982725e-09
1.54379519028e-09
-1.39132440578e-10
1.42539293523e-09
1.40701686602e-09
1.48468101928e-09
1.26662557549e-09
-1.47547508974e-11
1.08671543298e-10
1.15662173877e-09
1.14939743082e-09
-2.92121304324e-13
1.83922147601e-10
1.09375877244e-09
1.28149928292e-09
2.21602078966e-10
1.05995751867e-09
1.40940065503e-09
2.20106354119e-10
1.03697744276e-09
1.52576086174e-09
1.82388305009e-10
1.02040632913e-09
1.62363841266e-09
1.15468357656e-10
1.00863591324e-09
1.69755191377e-09
2.97420061872e-11
1.00151341115e-09
1.74371225419e-09
-6.2235268776e-11
9.99078407269e-10
1.75955031152e-09
-1.47252040243e-10
1.00085895971e-09
1.74315991907e-09
-2.12787488458e-10
1.0073532888e-09
1.69649469867e-09
-2.48501178676e-10
1.01851059703e-09
1.62215259436e-09
-2.47452699885e-10
1.03451192327e-09
1.52395393352e-09
-2.06795390212e-10
1.05702304155e-09
1.40739959334e-09
-1.28198524704e-10
1.090205807e-09
1.27935104498e-09
1.15248251086e-09
1.14708315436e-09
-1.62131473414e-11
9.26144598974e-11
8.76898640345e-10
1.0227339056e-09
-2.43081447258e-13
1.54761934725e-10
8.15318789384e-10
1.1472098229e-09
1.84894486923e-10
7.77715889813e-10
1.26628618988e-09
1.82305407248e-10
7.5019432415e-10
1.37338720636e-09
1.4972865095e-10
7.29694922972e-10
1.46267156147e-09
9.31074808073e-11
7.15119546085e-10
1.52965497641e-09
2.10727540364e-11
7.06279321726e-10
1.57124972435e-09
-5.6023932651e-11
7.03143326826e-10
1.58539592504e-09
-1.27314801703e-10
7.05464943071e-10
1.57067915964e-09
-1.82482873647e-10
7.1350370819e-10
1.52855908278e-09
-2.12951825329e-10
7.27270347092e-10
1.46112614098e-09
-2.12856218396e-10
7.46968557068e-10
1.37150449522e-09
-1.79562997515e-10
7.73750631606e-10
1.26420559669e-09
-1.13840478187e-10
8.10464260977e-10
1.14498748757e-09
8.71342551368e-10
1.02036848652e-09
-1.76122529666e-11
7.37303716624e-11
6.52230158838e-10
8.95087978081e-10
-1.75209319649e-13
1.22569561318e-10
5.9252842305e-10
1.01308801417e-09
1.451397404e-10
5.53449501297e-10
1.12353239615e-09
1.41557758426e-10
5.23818040892e-10
1.22099021556e-09
1.145595244e-10
5.01410069422e-10
1.3010829853e-09
6.90709408019e-11
4.85487758096e-10
1.36056587035e-09
1.18606752479e-11
4.75814790824e-10
1.39720335928e-09
-4.91036284885e-11
4.72294744254e-10
1.40952646869e-09
-1.05530287126e-10
4.74805850453e-10
1.39662469283e-09
-1.49488104853e-10
4.83475947654e-10
1.35944983844e-09
-1.74268663935e-10
4.98376189529e-10
1.29950047104e-09
-1.75027844286e-10
5.19741218389e-10
1.21905115017e-09
-1.4913799923e-10
5.48347259191e-10
1.12138604878e-09
-9.65255379183e-11
5.86213660109e-10
1.01081495614e-09
6.45121870098e-10
8.92716505247e-10
-1.89785947536e-11
6.0341592537e-11
7.72742241937e-10
-1.22131026949e-13
4.71834306957e-10
9.61703149732e-11
8.85562152634e-10
4.18487555242e-10
1.09770937304e-10
9.87482257156e-10
3.81854297525e-10
1.03685787865e-10
1.07496304057e-09
3.5298718793e-10
8.10563998311e-11
1.14540097164e-09
3.30852697243e-10
4.58755998829e-11
1.19695942191e-09
3.15075506488e-10
2.97473049522e-12
1.22835481918e-09
3.05440455826e-10
-4.22596998625e-11
1.23876547264e-09
3.01819820333e-10
-8.43229405744e-11
1.22778314938e-09
3.04175190783e-10
-1.17869353529e-10
1.19585169895e-09
3.12552759515e-10
-1.38139338922e-10
1.14381904574e-09
3.27062025487e-10
-1.41239841074e-10
1.07300526242e-09
3.47907773705e-10
-1.24137742133e-10
9.85300650726e-10
3.754619563e-10
-8.43898245456e-11
8.83235952078e-10
4.10610891737e-10
7.70497527553e-10
-2.01777017806e-11
4.63036735736e-10
1.06168165325e-12
5.32006325014e-11
2.45226863328e-10
-5.19800637936e-14
2.98313803395e-12
5.90548498995e-11
2.7237684287e-10
4.28162894601e-12
6.59259437203e-11
2.99695849277e-10
4.60574142882e-12
7.22858733769e-11
3.25231247376e-10
3.97196980441e-12
7.76135005907e-11
3.47155013365e-10
2.56988649952e-12
8.15860399851e-11
3.63978623747e-10
6.82563270759e-13
8.40543958865e-11
3.74678451122e-10
-1.36862914639e-12
8.49330643541e-11
3.78496414639e-10
-3.25496895809e-12
8.40810871109e-11
3.74629937518e-10
-4.65114822764e-12
8.16449541162e-11
3.6388350921e-10
-5.26352946592e-12
7.77164859774e-11
3.47016579088e-10
-4.89119319891e-12
7.24334139872e-11
3.25053241058e-10
-3.52059426553e-12
6.60875453958e-11
2.99480342748e-10
-1.51590773122e-12
5.92138544381e-11
2.72116660135e-10
5.32419974472e-11
2.44885526521e-10
-3.93040457354e-13
4.61602838161e-12
1.29301456007e-10
6.66111655403e-10
-1.27571575059e-13
1.05683332568e-11
1.41895089748e-10
7.39409568852e-10
1.47738445329e-11
1.57176090325e-10
8.13294443117e-10
1.59466980605e-11
1.71547273598e-10
8.82489422707e-10
1.38832486672e-11
1.83573045658e-10
9.4199631446e-10
9.06474993381e-12
1.92498832845e-10
9.87716245169e-10
2.43234201386e-12
1.98026182063e-10
1.01680245594e-09
-4.8213145561e-12
1.99995939624e-10
1.02715602018e-09
-1.1429235293e-11
1.98097413604e-10
1.0166584462e-09
-1.61900358651e-11
1.92650107537e-10
9.87434063846e-10
-1.81436023047e-11
1.83820987131e-10
9.41586245835e-10
-1.678778565e-11
1.71890446787e-10
8.81963438194e-10
-1.23349885226e-11
1.57560058234e-10
8.12660201498e-10
-6.09319397499e-12
1.42254436171e-10
7.38649173468e-10
1.29423942776e-10
6.65150931147e-10
-1.27666263427e-12
8.71258652352e-12
1.93390574413e-10
9.95524451176e-10
-1.74252131783e-13
1.85699281111e-11
2.10073653625e-10
1.10464894099e-09
2.56304537716e-11
2.31212008888e-10
1.21471513149e-09
2.76979659571e-11
2.51542424589e-10
1.31790281195e-09
2.4209349724e-11
2.68674161382e-10
1.40672936317e-09
1.58489125142e-11
2.81411633756e-10
1.47502356675e-09
4.21723046651e-12
2.89298782769e-10
1.5184692011e-09
-8.54095842678e-12
2.921079814e-10
1.53390086516e-09
-2.010766868e-11
2.89404838378e-10
1.51823418556e-09
-2.83283752727e-11
2.81631608712e-10
1.47456375351e-09
-3.15841588644e-11
2.69021391662e-10
1.40606268839e-09
-2.91723725661e-11
2.52007977199e-10
1.3170507202e-09
-2.16705385907e-11
2.31731004107e-10
1.21369402824e-09
-1.13046703872e-11
2.10535059632e-10
1.1034399844e-09
1.93542234607e-10
9.9403488792e-10
-2.2304368575e-12
1.26639450336e-11
2.36194059502e-10
1.23789897076e-09
-2.05637252371e-13
2.59382068998e-11
2.53970098617e-10
1.37304609825e-09
3.54580572443e-11
2.77811304709e-10
1.50936706535e-09
3.8297730043e-11
3.01426600213e-10
1.63727302727e-09
3.3517447608e-11
3.21606507499e-10
1.74746921979e-09
2.19275640893e-11
3.36720487793e-10
1.83224300996e-09
5.70867625252e-12
3.46110696125e-10
1.88616382205e-09
-1.21079884647e-11
3.49452345826e-10
1.90527373878e-09
-2.82112458748e-11
3.46229299528e-10
1.88584364165e-09
-3.95617622747e-11
3.3696303612e-10
1.83161771672e-09
-4.39667516106e-11
3.21980310346e-10
1.74656518102e-09
-4.06065598905e-11
3.01915592277e-10
1.6361226807e-09
-3.04430034455e-11
2.78352578241e-10
1.50799896324e-09
-1.64407920696e-11
2.54427088994e-10
1.37144937393e-09
2.36314643398e-10
1.23598050295e-09
-3.24230453e-12
1.59435843728e-11
2.54744859903e-10
1.40369418281e-09
-2.26166917004e-13
3.17570647278e-11
2.70971113659e-10
1.55635362137e-09
4.30592937095e-11
2.94506028312e-10
1.71025753451e-09
4.64241384509e-11
3.18778759235e-10
1.85473355971e-09
4.06048891546e-11
3.39972224749e-10
1.97928434985e-09
2.64714695139e-11
3.56051377557e-10
2.07514362681e-09
6.63981973298e-12
3.66108966895e-10
2.13609837859e-09
-1.51590605634e-11
3.69682246336e-10
2.15765009592e-09
-3.48205685313e-11
3.6620867067e-10
2.13569936513e-09
-4.86087246271e-11
3.56254805661e-10
2.07436597567e-09
-5.39044503138e-11
3.40282842207e-10
1.97816369947e-09
-4.98401565453e-11
3.19179074548e-10
1.85331493566e-09
-3.7694897472e-11
2.94942433272e-10
1.70858467836e-09
-2.09424817202e-11
2.71305073035e-10
1.5544287511e-09
2.54749735826e-10
1.4014327365e-09
-4.28605188554e-12
1.81369730634e-11
2.50336593746e-10
1.50261519605e-09
-2.39541412676e-13
3.53538784449e-11
2.63081721228e-10
1.66549489549e-09
4.75657677552e-11
2.83884135658e-10
1.82952304217e-09
5.11303040078e-11
3.06608387796e-10
1.98352582522e-09
4.46143235255e-11
3.27059428624e-10
2.11634209361e-09
2.88936602445e-11
3.42870380495e-10
2.21859074489e-09
6.82987037968e-12
3.52860709756e-10
2.28358018618e-09
-1.74198823372e-11
3.56400506204e-10
2.30649867011e-09
-3.92605461965e-11
3.52908308858e-10
2.28310898155e-09
-5.45335847867e-11
3.42970260725e-10
2.21767436663e-09
-6.03840039149e-11
3.2721491104e-10
2.11502618809e-09
-5.59509446542e-11
3.06806861586e-10
1.98186938835e-09
-4.27095471739e-11
2.84089222041e-10
1.82758720416e-09
-2.43604994225e-11
2.63168245684e-10
1.66329691957e-09
2.50132323078e-10
1.50008060112e-09
-5.3328903221e-12
1.89989382071e-11
2.2694695002e-10
1.54387569309e-09
-2.48067657532e-13
3.6360073994e-11
2.35102646246e-10
1.71086581977e-09
4.85223727441e-11
2.51545787461e-10
1.87875336776e-09
5.19306303593e-11
2.71108358324e-10
2.03633698263e-09
4.51112922463e-11
2.89454642103e-10
2.17225353107e-09
2.89027258913e-11
3.04001861796e-10
2.27689338512e-09
6.20186076339e-12
3.13317100994e-10
2.3433599057e-09
-1.87277495067e-11
3.16601868068e-10
2.36673036084e-09
-4.11584831038e-11
3.13280285292e-10
2.34282338964e-09
-5.68288382784e-11
3.03935653132e-10
2.27585218272e-09
-6.28571375666e-11
2.89367195579e-10
2.17076376821e-09
-5.8431829804e-11
2.70998124805e-10
2.0344725705e-09
-4.50761314834e-11
2.51400960219e-10
1.87659402734e-09
-2.64132355295e-11
2.34820490576e-10
1.70844367136e-09
2.26427833339e-10
1.54112610116e-09
-6.35736359804e-12
1.8452321226e-11
1.89960367504e-10
1.53630538159e-09
-2.53156773756e-13
3.47074238413e-11
1.93216122424e-10
1.70244976329e-09
4.58860831705e-11
2.04505245724e-10
1.86910161866e-09
4.88024612406e-11
2.19916509228e-10
2.02539604491e-09
4.2087676868e-11
2.35215196237e-10
2.16015177481e-09
2.65057903099e-11
2.47752953953e-10
2.2638657731e-09
4.7824345542e-12
2.55916254115e-10
2.32968139203e-09
-1.90353438122e-11
2.58770572911e-10
2.35274417498e-09
-4.04508843929e-11
2.55768449408e-10
2.32908661217e-09
-5.54217424322e-11
2.47469115745e-10
2.26271369488e-09
-6.12446013791e-11
2.348116846e-10
2.15850906714e-09
-5.71913395491e-11
2.19407252524e-10
2.02335190291e-09
-4.46866973628e-11
2.0390587144e-10
1.86675462506e-09
-2.69889112109e-11
1.92456546611e-10
1.69984542593e-09
1.89012856147e-10
1.53338925525e-09
-7.33315549631e-12
1.65675731406e-11
1.45185267919e-10
1.48839785367e-09
-2.57004251723e-13
3.0592283556e-11
1.43911276999e-10
1.6498664418e-09
3.99775033903e-11
1.49982784039e-10
1.81132022907e-09
4.21347223157e-11
1.60824372865e-10
1.96248775234e-09
3.59158887642e-11
1.72529773946e-10
2.09268137544e-09
2.19769471531e-11
1.82554827532e-10
2.1927956672e-09
2.69001990959e-12
1.89218263085e-10
2.2562360906e-09
-1.84010104335e-11
1.91512396828e-10
2.27837685126e-09
-3.73538557363e-11
1.88939938038e-10
2.25559021607e-09
-5.0630721621e-11
1.82015320513e-10
2.19154653344e-09
-5.58866588151e-11
1.71755732062e-10
2.09090574662e-09
-5.25074627573e-11
1.59847968073e-10
1.96028984329e-09
-4.1700148773e-11
1.48846960757e-10
1.80881700727e-09
-2.61273550842e-11
1.42582048023e-10
1.6471147014e-09
1.43706098234e-10
1.48535508139e-09
-8.23585439156e-12
1.35380290912e-11
9.81287775542e-11
1.40833442848e-09
-2.59824024818e-13
2.44277333145e-11
9.31826979518e-11
1.56239793074e-09
3.14160811404e-11
9.45228752169e-11
1.71577286898e-09
3.26531340975e-11
1.00841768432e-10
1.85894085096e-09
2.72782931143e-11
1.08760108385e-10
1.98196232002e-09
1.5806372861e-11
1.16003889069e-10
2.07638907607e-09
1.15395528312e-13
1.20952263322e-10
2.13609580036e-09
-1.69723493352e-11
1.2260511774e-10
2.15683161639e-09
-3.23150555685e-11
1.20533122007e-10
2.13540613837e-09
-4.30971461282e-11
1.15188238457e-10
2.07505652376e-09
-4.74700579587e-11
1.07585108019e-10
1.98007270427e-09
-4.49636238548e-11
9.93568677508e-11
1.85661251503e-09
-3.64971027175e-11
9.27958115096e-11
1.71314020776e-09
-2.39928440111e-11
9.12151909914e-11
1.55952676969e-09
9.6025476891e-11
1.40519714528e-09
-9.04376768944e-12
9.64627197804e-12
5.34730750104e-11
1.30400340378e-09
-2.63181795282e-13
1.67928283392e-11
4.59717283274e-11
1.44901273583e-09
2.10500079824e-11
4.33973071865e-11
1.59244172021e-09
2.13364376929e-11
4.55862916246e-11
1.72560981885e-09
1.70857568056e-11
4.98343554048e-11
1.83954924245e-09
8.63989727493e-12
5.42612870843e-11
1.92671434131e-09
-2.7012938792e-12
5.74237863579e-11
1.98164879087e-09
-1.49661463002e-11
5.84064754034e-11
2.00061182267e-09
-2.59562914388e-11
5.68628508281e-11
1.98092278347e-09
-3.37069620845e-11
5.31661438608e-11
1.92531199673e-09
-3.69478808711e-11
4.82518621033e-11
1.83756362029e-09
-3.53816470929e-11
4.35805902413e-11
1.72317188915e-09
-2.96305764268e-11
4.10553558737e-11
1.58970227434e-09
-2.08445303078e-11
4.33259164708e-11
1.44604481304e-09
5.06782626766e-11
1.30079726111e-09
-9.7379573414e-12
5.22824265722e-12
1.47596135448e-11
1.18302490453e-09
-2.6627986449e-13
8.38749153861e-12
5.81044870098e-12
1.31839154853e-09
9.89410958495e-12
2.5438741144e-13
1.45092434081e-09
9.33595934325e-12
-1.04590368745e-12
1.5728405757e-09
6.39223105442e-12
-6.77466296914e-14
1.67637760132e-09
1.21414998263e-12
1.74903999511e-12
1.75513997985e-09
-5.49659662475e-12
3.21199475737e-12
1.80453516632e-09
-1.2646201268e-11
3.55546653074e-12
1.82145602301e-09
-1.9013065173e-11
2.515981133e-12
1.80378088399e-09
-2.35096767078e-11
3.87232109056e-13
1.75368212967e-09
-2.54629381782e-11
-2.04227475979e-12
1.67431382778e-09
-2.47637189362e-11
-3.55815047081e-12
1.57031220032e-09
-2.17847421653e-11
-2.6969325466e-12
1.44809803158e-09
-1.70001793571e-11
2.47671550781e-12
1.31534778074e-09
1.12305543298e-11
1.17977282146e-09
-1.03050095056e-11
6.45534398727e-13
-1.577704906e-11
1.05278285207e-09
-2.69022987906e-13
1.94390692564e-14
-2.53799992981e-11
1.17893196471e-09
-9.06968922785e-13
-3.30087809407e-11
1.30037857784e-09
-2.09609700378e-12
-3.69432698357e-11
1.41037861565e-09
-3.68944684404e-12
-3.85600429564e-11
1.50266347164e-09
-5.71243514322e-12
-3.89057470479e-11
1.57224076699e-09
-8.00944787059e-12
-3.88902092143e-11
1.61556126379e-09
-1.03022978098e-11
-3.90981288116e-11
1.63025554719e-09
-1.22696358e-11
-3.9706810046e-11
1.61478776088e-09
-1.363992819e-11
-4.05087174467e-11
1.57074347323e-09
-1.42824792778e-11
-4.08926718637e-11
1.50054098298e-09
-1.42622037568e-11
-3.99268388088e-11
1.40777882112e-09
-1.37666628673e-11
-3.65390806809e-11
1.29748417752e-09
-1.28142277378e-11
-2.93873752459e-11
1.17583713286e-09
-2.00584272881e-11
1.04951790919e-09
-1.07304216509e-11
-3.64428028668e-12
-3.73224486843e-11
9.20444161285e-10
-2.70700069758e-13
-7.28115102016e-12
-4.73775877705e-11
1.03864080173e-09
-1.00439304845e-11
-5.61035515673e-11
1.14930745887e-09
-1.16566278397e-11
-6.15600759064e-11
1.24713516557e-09
-1.2071878695e-11
-6.48420475205e-11
1.32769726616e-09
-1.14264972923e-11
-6.66932609372e-11
1.38762738341e-09
-1.00111446075e-11
-6.77374106632e-11
1.42455508081e-09
-8.22257195384e-12
-6.83550218815e-11
1.43691925715e-09
-6.49747611639e-12
-6.86562640256e-11
1.42377346013e-09
-5.23750168462e-12
-6.85016133474e-11
1.3861107368e-09
-4.75564465144e-12
-6.74859006746e-11
1.32554040431e-09
-5.22165271028e-12
-6.49625749478e-11
1.24448573557e-09
-6.63210176771e-12
-6.01665357763e-11
1.14636208168e-09
-8.7568691917e-12
-5.20275221966e-11
1.03552479008e-09
-4.23483382802e-11
9.17223804848e-10
-1.10243173425e-11
-6.6586504795e-12
7.92721153485e-10
-2.73606090187e-13
-5.04662864599e-11
-1.18750208569e-11
9.04484455208e-10
-6.1156950933e-11
-1.59662370768e-11
1.00485500116e-09
-6.946016644e-11
-1.80497002425e-11
1.09061962597e-09
-7.52067772956e-11
-1.77756646351e-11
1.15943551383e-09
-7.92252969057e-11
-1.532656639e-11
1.20966492795e-09
-8.19216097595e-11
-1.13224186738e-11
1.24016262834e-09
-8.3619668369e-11
-6.67440872017e-12
1.25019641606e-09
-8.45029327018e-11
-2.38004439826e-12
1.23938982693e-09
-8.46223669636e-11
6.4466261565e-13
1.20816128077e-09
-8.39023570666e-11
1.76244815017e-12
1.15728755278e-09
-8.21367514332e-11
7.61823039189e-13
1.08796417693e-09
-7.89825315935e-11
-2.04173443414e-12
1.00189412636e-09
-7.40134126987e-11
-5.81834360141e-12
9.01347423555e-10
-6.64151025864e-11
7.89693142897e-10
-1.11622129543e-11
-5.6248764187e-11
1.66607360202e-12
-2.23275094857e-11
2.65782275787e-10
-3.04619741151e-14
2.5791156743e-12
-2.50491004308e-11
2.96356234275e-10
2.98646958671e-12
-2.79951358949e-11
3.27103494447e-10
2.93781553177e-12
-3.07308440986e-11
3.55864402624e-10
2.44248959687e-12
-3.30902092715e-11
3.80589148094e-10
1.58079473319e-12
-3.48960185623e-11
3.99587286167e-10
4.78372598473e-13
-3.60340555664e-11
4.11681145657e-10
-7.08892020292e-13
-3.64272784597e-11
4.15996351912e-10
-1.80682246356e-12
-3.60037360238e-11
4.11631664639e-10
-2.66064532527e-12
-3.48426398641e-11
3.99490109397e-10
-3.14883771582e-12
-3.30251950622e-11
3.8044732573e-10
-3.19400250307e-12
-3.06609251696e-11
3.55681402795e-10
-2.76387559358e-12
-2.79049681759e-11
3.2688117717e-10
-1.82774345638e-12
-2.49768860522e-11
2.9608702592e-10
-2.22771462163e-11
2.65429040076e-10
-1.6050040122e-13
3.90538537117e-12
-4.95748564944e-11
6.89309295236e-10
-7.7407465071e-14
6.30036881692e-12
-5.51270285605e-11
7.66831949756e-10
7.43998877524e-12
-6.11333372871e-11
8.45023918095e-10
7.37891531221e-12
-6.67647601564e-11
9.18339645091e-10
6.15835847095e-12
-7.15952638268e-11
9.81477939015e-10
3.97486831339e-12
-7.52804866027e-11
1.0300504182e-09
1.15391190042e-12
-7.75998170278e-11
1.06098021748e-09
-1.8911430543e-12
-7.84008323433e-11
1.07199289782e-09
-4.69817143367e-12
-7.75314567601e-11
1.06083306715e-09
-6.85619975131e-12
-7.51568561879e-11
1.02976181172e-09
-8.04761560886e-12
-7.14386046113e-11
9.81057534453e-10
-8.07697973194e-12
-6.65922919743e-11
9.17798666981e-10
-6.87288910137e-12
-6.09369374953e-11
8.44369259664e-10
-4.39885459402e-12
-5.49580661246e-11
7.66044790135e-10
-4.94619783717e-11
6.88313810722e-10
-4.79648984695e-13
5.28348648989e-12
-7.00915649377e-11
1.01066982143e-09
-1.12660490311e-13
8.73271545807e-12
-7.74119017891e-11
1.12324623672e-09
1.04529286657e-11
-8.53396781556e-11
1.23696206496e-09
1.04358702219e-11
-9.28321288354e-11
1.34376208466e-09
8.73418260121e-12
-9.92520894034e-11
1.43586493596e-09
5.61667795708e-12
-1.04143093565e-10
1.50678977085e-09
1.55407603623e-12
-1.07218219946e-10
1.55195787152e-09
-2.84015128902e-12
-1.08279889489e-10
1.56800550968e-09
-6.87802587835e-12
-1.07127365965e-10
1.55171840668e-09
-9.94915472253e-12
-1.03978207853e-10
1.50632067877e-09
-1.15911786156e-11
-9.90424132177e-11
1.43518303846e-09
-1.15348856474e-11
-9.26034523408e-11
1.34288756084e-09
-9.70353907297e-12
-8.50956631314e-11
1.23590991987e-09
-6.11744909075e-12
-7.72046635254e-11
1.12199624039e-09
-6.99673792733e-11
1.00912679331e-09
-7.99808755405e-13
6.08592097104e-12
-8.44570207891e-11
1.24613125147e-09
-1.38973872372e-13
1.02548061028e-11
-9.27760666592e-11
1.38403318755e-09
1.24304073589e-11
-1.01762585286e-10
1.52340087014e-09
1.24988152197e-11
-1.10280258346e-10
1.65444583561e-09
1.04928888945e-11
-1.17563977843e-10
1.76758474294e-09
6.72107093756e-12
-1.23099894738e-10
1.8547800299e-09
1.75978659069e-12
-1.26576418585e-10
1.91030970641e-09
-3.61826555389e-12
-1.27778696054e-10
1.92999598699e-09
-8.54276343646e-12
-1.26482605987e-10
1.90998467263e-09
-1.22445138299e-11
-1.22929676178e-10
1.85414419918e-09
-1.41548590348e-11
-1.17347552743e-10
1.76666269753e-09
-1.39661246582e-11
-1.10048753786e-10
1.65326809539e-09
-1.16292270276e-11
-1.01532344309e-10
1.52199391323e-09
-7.26990572061e-12
-9.2596099592e-11
1.38238429087e-09
-8.43664898612e-11
1.24414427372e-09
-1.12239756218e-12
6.47214559172e-12
-9.33518123572e-11
1.4061062066e-09
-1.58409214382e-13
1.10754224648e-11
-1.02140221497e-10
1.5609381728e-09
1.35669513468e-11
-1.11566753252e-10
1.71738258816e-09
1.37266716242e-11
-1.20485732551e-10
1.86459705506e-09
1.15497962618e-11
-1.28088920394e-10
1.99180718157e-09
7.35964509236e-12
-1.33847414427e-10
2.08991046023e-09
1.8029223313e-12
-1.37456147934e-10
2.15237821122e-09
-4.23177579083e-12
-1.38708654563e-10
2.17447334152e-09
-9.73906614639e-12
-1.37378774346e-10
2.15197465731e-09
-1.38341799477e-11
-1.3370886129e-10
2.08912225565e-09
-1.58782087547e-11
-1.2791744183e-10
1.99066734915e-09
-1.55512542719e-11
-1.20312680901e-10
1.86314793466e-09
-1.28489748138e-11
-1.11412853829e-10
1.71566515855e-09
-8.00594333888e-12
-1.02053141711e-10
1.55895234191e-09
-9.33456760463e-11
1.40376394987e-09
-1.44099796925e-12
6.55862692498e-12
-9.76092565818e-11