# vtk DataFile Version 2.0
track0
ASCII
DATASET POLYDATA
POINTS 12040 float
-0.0205 0.001 1e-05
-0.02052 0.000999985 1e-05
-0.02054 0.000999974 1e-05
-0.02056 0.000999965 1e-05
-0.02058 0.000999959 1e-05
-0.0206 0.000999956 1e-05
-0.0205 0.00367778 1e-05
-0.02052 0.00367778 1e-05
-0.02054 0.00367777 1e-05
-0.02056 0.00367777 1e-05
-0.02058 0.00367777 1e-05
-0.0206 0.00367777 1e-05
-0.0205 0.00635556 1e-05
-0.02052 0.00635555 1e-05
-0.02054 0.00635555 1e-05
-0.02056 0.00635555 1e-05
-0.02058 0.00635555 1e-05
-0.0206 0.00635555 1e-05
-0.0205 0.00903333 1e-05
-0.02052 0.00903333 1e-05
-0.02054 0.00903333 1e-05
-0.02056 0.00903333 1e-05
-0.02058 0.00903333 1e-05
-0.0206 0.00903333 1e-05
-0.0205 0.0117111 1e-05
-0.02052 0.0117111 1e-05
-0.02054 0.0117111 1e-05
-0.02056 0.0117111 1e-05
-0.02058 0.0117111 1e-05
-0.0206 0.0117111 1e-05
-0.0205 0.0143889 1e-05
-0.02052 0.0143889 1e-05
-0.02054 0.0143889 1e-05
-0.02056 0.0143889 1e-05
-0.02058 0.0143889 1e-05
-0.0206 0.0143889 1e-05
-0.0205 0.0170667 1e-05
-0.02052 0.0170667 1e-05
-0.02054 0.0170667 1e-05
-0.02056 0.0170667 1e-05
-0.02058 0.0170667 1e-05
-0.0206 0.0170667 1e-05
-0.0205 0.0197444 1e-05
-0.02052 0.0197444 1e-05
-0.02054 0.0197444 1e-05
-0.02056 0.0197444 1e-05
-0.02058 0.0197444 1e-05
-0.0206 0.0197444 1e-05
-0.0205 0.0224222 1e-05
-0.02052 0.0224222 1e-05
-0.02054 0.0224222 1e-05
-0.02056 0.0224222 1e-05
-0.02058 0.0224222 1e-05
-0.0206 0.0224222 1e-05
-0.0205 0.0251 1e-05
-0.02052 0.0250998 1e-05
-0.02054 0.0250997 1e-05
-0.02056 0.0250995 1e-05
-0.02058 0.0250995 1e-05
-0.0206 0.0250994 1e-05
-0.0205 0.001 1e-05
-0.0202034 0.00100022 1e-05
-0.0199069 0.00100067 1e-05
-0.0196103 0.00100132 1e-05
-0.0193137 0.00100219 1e-05
-0.0190172 0.00100326 1e-05
-0.0187132 0.00100466 1e-05
-0.0184093 0.00100588 1e-05
-0.0181054 0.0010071 1e-05
-0.0178015 0.00100832 1e-05
-0.0174976 0.00100953 1e-05
-0.0172058 0.00101083 1e-05
-0.016914 0.00101193 1e-05
-0.0166222 0.00101303 1e-05
-0.0163305 0.00101413 1e-05
-0.0160387 0.00101522 1e-05
-0.0157586 0.00101636 1e-05
-0.0154784 0.00101744 1e-05
-0.0151983 0.00101856 1e-05
-0.0149182 0.00101971 1e-05
-0.0146381 0.0010209 1e-05
-0.0143744 0.00102208 1e-05
-0.0141107 0.00102327 1e-05
-0.013847 0.00102449 1e-05
-0.0135833 0.00102574 1e-05
-0.0133606 0.00102682 1e-05
-0.0133472 0.00102688 1e-05
-0.0133337 0.00102695 1e-05
-0.0133203 0.00102702 1e-05
-0.0133069 0.00102708 1e-05
-0.0132934 0.00102715 1e-05
-0.0130353 0.00102844 1e-05
-0.0127771 0.00102974 1e-05
-0.0125189 0.00103106 1e-05
-0.0122607 0.00103239 1e-05
-0.0120025 0.00103374 1e-05
-0.0117547 0.00103505 1e-05
-0.0115068 0.00103637 1e-05
-0.0112589 0.00103769 1e-05
-0.0110111 0.00103901 1e-05
-0.0107632 0.00104034 1e-05
-0.0105252 0.00104161 1e-05
-0.0102873 0.00104289 1e-05
-0.0100493 0.00104417 1e-05
-0.00981133 0.00104545 1e-05
-0.00957337 0.00104673 1e-05
-0.00934491 0.00104794 1e-05
-0.00911645 0.00104917 1e-05
-0.00888799 0.00105038 1e-05
-0.00865954 0.0010516 1e-05
-0.00843108 0.00105281 1e-05
-0.00821175 0.00105397 1e-05
-0.00799242 0.00105512 1e-05
-0.00777309 0.00105628 1e-05
-0.00755376 0.00105743 1e-05
-0.00733443 0.00105857 1e-05
-0.00712387 0.00105966 1e-05
-0.0069133 0.00106075 1e-05
-0.00670273 0.00106183 1e-05
-0.00649216 0.00106291 1e-05
-0.0062816 0.00106399 1e-05
-0.00607944 0.00106501 1e-05
-0.00587729 0.00106604 1e-05
-0.00567514 0.00106706 1e-05
-0.00547298 0.00106807 1e-05
-0.00527083 0.00106908 1e-05
-0.00507675 0.00107004 1e-05
-0.00488267 0.00107101 1e-05
-0.0046886 0.00107196 1e-05
-0.00449452 0.00107292 1e-05
-0.00430044 0.00107387 1e-05
-0.00411412 0.00107477 1e-05
-0.0039278 0.00107568 1e-05
-0.00374147 0.00107658 1e-05
-0.00355515 0.00107747 1e-05
-0.00336883 0.00107837 1e-05
-0.00318995 0.00107922 1e-05
-0.00301107 0.00108007 1e-05
-0.00283219 0.00108092 1e-05
-0.00265331 0.00108176 1e-05
-0.00247443 0.0010826 1e-05
-0.0023027 0.00108341 1e-05
-0.00213097 0.00108421 1e-05
-0.00195924 0.00108501 1e-05
-0.0017875 0.00108581 1e-05
-0.00161577 0.00108661 1e-05
-0.0014509 0.00108737 1e-05
-0.00128603 0.00108813 1e-05
-0.00112116 0.00108889 1e-05
-0.000956289 0.00108965 1e-05
-0.000791418 0.0010904 1e-05
-0.000633135 0.00109113 1e-05
-0.000474851 0.00109185 1e-05
-0.000316567 0.00109258 1e-05
-0.000158284 0.0010933 1e-05
0 0.00109402 1e-05
0.000105677 0.0010945 1e-05
0.000211355 0.00109497 1e-05
0.000317032 0.00109544 1e-05
0.00042271 0.00109591 1e-05
0.000528387 0.00109638 1e-05
0.000634886 0.00109684 1e-05
0.000741385 0.0010973 1e-05
0.000847885 0.00109776 1e-05
0.000954384 0.00109822 1e-05
0.00106088 0.00109867 1e-05
0.00116821 0.00109912 1e-05
0.00127554 0.00109957 1e-05
0.00138286 0.00110001 1e-05
0.00149019 0.00110045 1e-05
0.00159752 0.00110087 1e-05
0.00170568 0.0011013 1e-05
0.00181384 0.00110172 1e-05
0.001922 0.00110213 1e-05
0.00203016 0.00110254 1e-05
0.00213833 0.00110293 1e-05
0.00224733 0.00110332 1e-05
0.00235633 0.0011037 1e-05
0.00246533 0.00110408 1e-05
0.00257434 0.00110445 1e-05
0.00268334 0.0011048 1e-05
0.00279319 0.00110515 1e-05
0.00290304 0.0011055 1e-05
0.00301289 0.00110583 1e-05
0.00312274 0.00110616 1e-05
0.00323259 0.00110648 1e-05
0.00334329 0.00110679 1e-05
0.003454 0.0011071 1e-05
0.0035647 0.0011074 1e-05
0.0036754 0.0011077 1e-05
0.00378611 0.00110798 1e-05
0.00389767 0.00110826 1e-05
0.00400924 0.00110853 1e-05
0.0041208 0.0011088 1e-05
0.00423237 0.00110905 1e-05
0.00434393 0.0011093 1e-05
0.00445636 0.00110954 1e-05
0.00456879 0.00110978 1e-05
0.00468123 0.00111001 1e-05
0.00479366 0.00111023 1e-05
0.00490609 0.00111044 1e-05
0.0050194 0.00111064 1e-05
0.0051327 0.00111084 1e-05
0.00524601 0.00111104 1e-05
0.00535932 0.00111122 1e-05
0.00547262 0.0011114 1e-05
0.00558681 0.00111156 1e-05
0.005701 0.00111172 1e-05
0.00581518 0.00111188 1e-05
0.00592937 0.00111203 1e-05
0.00604356 0.00111217 1e-05
0.00615863 0.0011123 1e-05
0.00627371 0.00111242 1e-05
0.00638878 0.00111254 1e-05
0.00650386 0.00111265 1e-05
0.00661893 0.00111276 1e-05
0.0067349 0.00111285 1e-05
0.00685087 0.00111294 1e-05
0.00696684 0.00111302 1e-05
0.00708281 0.0011131 1e-05
0.00719878 0.00111316 1e-05
0.00726961 0.0011132 1e-05
0.00734043 0.00111323 1e-05
0.00741126 0.00111326 1e-05
0.00748209 0.00111329 1e-05
0.00755059 0.00111331 1e-05
0.0075971 0.00111333 1e-05
0.00764361 0.00111334 1e-05
0.00769012 0.00111335 1e-05
0.00773663 0.00111336 1e-05
0.00778313 0.00111337 1e-05
0.00790091 0.00111339 1e-05
0.00801869 0.00111341 1e-05
0.00813647 0.00111341 1e-05
0.00825425 0.00111341 1e-05
0.00837203 0.0011134 1e-05
0.00849073 0.00111338 1e-05
0.00860942 0.00111336 1e-05
0.00872812 0.00111332 1e-05
0.00884682 0.00111328 1e-05
0.00896551 0.00111323 1e-05
0.00908513 0.00111317 1e-05
0.00920475 0.0011131 1e-05
0.00932437 0.00111303 1e-05
0.00944398 0.00111295 1e-05
0.0095636 0.00111286 1e-05
0.00968415 0.00111275 1e-05
0.0098047 0.00111265 1e-05
0.00992525 0.00111253 1e-05
0.0100458 0.00111241 1e-05
0.0101663 0.00111228 1e-05
0.0102878 0.00111213 1e-05
0.0104093 0.00111198 1e-05
0.0105308 0.00111183 1e-05
0.0106523 0.00111166 1e-05
0.0107738 0.00111149 1e-05
0.0108962 0.00111129 1e-05
0.0110186 0.0011111 1e-05
0.0111411 0.0011109 1e-05
0.0112635 0.0011107 1e-05
0.0113859 0.00111048 1e-05
0.0115093 0.00111024 1e-05
0.0116327 0.00111001 1e-05
0.0117561 0.00110976 1e-05
0.0118795 0.00110951 1e-05
0.0120028 0.00110925 1e-05
0.0121272 0.00110897 1e-05
0.0122515 0.00110869 1e-05
0.0123759 0.0011084 1e-05
0.0125002 0.0011081 1e-05
0.0126245 0.0011078 1e-05
0.0127498 0.00110746 1e-05
0.0128752 0.00110714 1e-05
0.0130005 0.0011068 1e-05
0.0131258 0.00110646 1e-05
0.0132511 0.00110611 1e-05
0.0133774 0.00110573 1e-05
0.0135036 0.00110536 1e-05
0.0136299 0.00110498 1e-05
0.0137562 0.00110459 1e-05
0.0138825 0.00110419 1e-05
0.0140098 0.00110376 1e-05
0.014137 0.00110334 1e-05
0.0142643 0.00110291 1e-05
0.0143915 0.00110247 1e-05
0.0145188 0.00110203 1e-05
0.0146471 0.00110156 1e-05
0.0147753 0.00110109 1e-05
0.0149036 0.00110061 1e-05
0.0150318 0.00110012 1e-05
0.0151601 0.00109962 1e-05
0.0152893 0.0010991 1e-05
0.0154186 0.00109858 1e-05
0.0155478 0.00109805 1e-05
0.0156771 0.00109752 1e-05
0.0158063 0.00109697 1e-05
0.0159366 0.0010964 1e-05
0.0160668 0.00109583 1e-05
0.0161971 0.00109525 1e-05
0.0163274 0.00109467 1e-05
0.0164576 0.00109407 1e-05
0.0165889 0.00109346 1e-05
0.0167201 0.00109284 1e-05
0.0168514 0.00109221 1e-05
0.0169827 0.00109157 1e-05
0.0171139 0.00109092 1e-05
0.0172462 0.00109026 1e-05
0.0173785 0.00108959 1e-05
0.0175108 0.00108891 1e-05
0.0176431 0.00108822 1e-05
0.0177754 0.00108752 1e-05
0.0179087 0.00108681 1e-05
0.018042 0.00108609 1e-05
0.0181753 0.00108536 1e-05
0.0183087 0.00108462 1e-05
0.018442 0.00108387 1e-05
0.0185763 0.00108312 1e-05
0.0187107 0.00108235 1e-05
0.018845 0.00108156 1e-05
0.0189794 0.00108076 1e-05
0.0191137 0.00107997 1e-05
0.0192491 0.00107917 1e-05
0.0193845 0.00107835 1e-05
0.0195199 0.00107751 1e-05
0.0196553 0.00107666 1e-05
0.0197907 0.00107582 1e-05
0.0199272 0.00107497 1e-05
0.0200636 0.0010741 1e-05
0.0202001 0.00107321 1e-05
0.0203365 0.00107231 1e-05
0.020473 0.00107141 1e-05
0.0206105 0.00107051 1e-05
0.020748 0.00106959 1e-05
0.0208855 0.00106865 1e-05
0.021023 0.0010677 1e-05
0.0211606 0.00106675 1e-05
0.0212991 0.00106581 1e-05
0.0214377 0.00106484 1e-05
0.0215763 0.00106385 1e-05
0.0217149 0.00106284 1e-05
0.0218535 0.00106185 1e-05
0.0219931 0.00106085 1e-05
0.0221328 0.00105983 1e-05
0.0222724 0.00105879 1e-05
0.0224121 0.00105774 1e-05
0.0225517 0.00105669 1e-05
0.0226925 0.00105565 1e-05
0.0228332 0.00105457 1e-05
0.022974 0.00105348 1e-05
0.0231147 0.00105237 1e-05
0.0232555 0.00105128 1e-05
0.0233973 0.00105018 1e-05
0.0235391 0.00104906 1e-05
0.023681 0.00104791 1e-05
0.0238228 0.00104676 1e-05
0.0239647 0.00104561 1e-05
0.0241076 0.00104446 1e-05
0.0242505 0.00104329 1e-05
0.0243935 0.00104209 1e-05
0.0245364 0.00104088 1e-05
0.0246794 0.00103968 1e-05
0.0248234 0.00103849 1e-05
0.0249675 0.00103726 1e-05
0.0251115 0.00103601 1e-05
0.0252556 0.00103475 1e-05
[...]
POINT_DATA 12040
 FIELD attributes 1
U 3 12040 float
10.0004 	0.00731826 	0 10.0004 	0.00585461 	0 10.0003 	0.00439096 	0 10.0002 	0.00292731 	0 10.0001 	0.00146365 	0 10 	0 	0
10.0001 	0.000879106 	0 10 	0.000703285 	0 10 	0.000527463 	0 10 	0.000351642 	0 10 	0.000175821 	0 10 	0 	0
10.0001 	0.000465893 	0 10.0001 	0.000372524 	0 10.0001 	0.000279155 	0 10 	0.000185786 	0 10 	9.24162e-05 	0 10 	0 	0
10 	0.000265863 	0 10 	0.00021269 	0 10 	0.000159518 	0 10 	0.000106345 	0 10 	5.31725e-05 	0 10 	0 	0
10 	8.0195e-05 	0 10 	6.4156e-05 	0 10 	4.8117e-05 	0 10 	3.2078e-05 	0 10 	1.6039e-05 	0 10 	0 	0
10 	-2.64297e-05 	0 10 	-2.11437e-05 	0 10 	-1.58578e-05 	0 10 	-1.05719e-05 	0 10 	-5.28594e-06 	0 10 	0 	0
10 	-0.000216316 	0 10 	-0.000173053 	0 10 	-0.00012979 	0 10 	-8.65266e-05 	0 10 	-4.32633e-05 	0 10 	0 	0
10 	-0.000377976 	0 10 	-0.000302381 	0 10 	-0.000226786 	0 10 	-0.00015119 	0 10 	-7.55952e-05 	0 10 	0 	0
9.99999 	-0.000427661 	0 9.99999 	-0.000342129 	0 9.99999 	-0.000256597 	0 10 	-0.000171065 	0 10 	-8.55323e-05 	0 10 	0 	0
9.17387 	0.0870992 	0 9.1308 	0.0696794 	0 9.08741 	0.0522592 	0 9.04368 	0.0348389 	0 8.99962 	0.0174184 	0 8.95524 	0 	0
10.0004 	0.00731826 	0 10.0024 	0.0151683 	0 10.0045 	0.0221868 	0 10.0065 	0.0291612 	0 10.0085 	0.0360916 	0 10.0135 	0.0463065 	0 10.0163 	0.0402052 	0 10.0207 	0.0401632 	0 10.0252 	0.0401213 	0 10.0296 	0.0400796 	0 10.0356 	0.0445399 	0 10.0385 	0.0378986 	0 10.0424 	0.0378539 	0 10.0464 	0.0378092 	0 10.0504 	0.0377644 	0 10.0545 	0.0408653 	0 10.0567 	0.0387864 	0 10.0592 	0.0400948 	0 10.0616 	0.0414048 	0 10.0641 	0.0427164 	0 10.0662 	0.0451743 	0 10.0677 	0.0452848 	0 10.0691 	0.0464869 	0 10.0704 	0.0476901 	0 10.0718 	0.0488945 	0 10.0729 	0.0499128 	0 10.073 	0.0499746 	0 10.073 	0.0500364 	0 10.0731 	0.0500982 	0 10.0732 	0.0501601 	0 10.0732 	0.0502126 	0 10.0738 	0.0508383 	0 10.0743 	0.0514581 	0 10.0748 	0.0520784 	0 10.0753 	0.0526992 	0 10.0758 	0.053156 	0 10.0757 	0.0534506 	0 10.0754 	0.0536399 	0 10.075 	0.0538292 	0 10.0747 	0.0540186 	0 10.0742 	0.0539697 	0 10.0737 	0.0541133 	0 10.0726 	0.0540886 	0 10.0716 	0.0540639 	0 10.0705 	0.0540392 	0 10.0689 	0.0537453 	0 10.0685 	0.053824 	0 10.0669 	0.053689 	0 10.0653 	0.0535539 	0 10.0637 	0.0534187 	0 10.0612 	0.0529971 	0 10.0612 	0.0530492 	0 10.0591 	0.0528526 	0 10.0571 	0.0526559 	0 10.0551 	0.0524591 	0 10.0516 	0.0519632 	0 10.0522 	0.0520133 	0 10.0499 	0.0517897 	0 10.0476 	0.051566 	0 10.0453 	0.0513423 	0 10.0407 	0.0508113 	0 10.0421 	0.0508802 	0 10.0396 	0.0506504 	0 10.0371 	0.0504206 	0 10.0346 	0.0501907 	0 10.0289 	0.0496399 	0 10.0313 	0.049733 	0 10.0287 	0.0495129 	0 10.0261 	0.0492927 	0 10.0234 	0.0490725 	0 10.0166 	0.048524 	0 10.0202 	0.04865 	0 10.0175 	0.0484384 	0 10.0148 	0.0482269 	0 10.012 	0.0480153 	0 10.004 	0.0474564 	0 10.0088 	0.0476125 	0 10.0061 	0.0474489 	0 10.0034 	0.0472852 	0 10.0006 	0.0471214 	0 9.99142 	0.0466223 	0 9.9976 	0.0468445 	0 9.99492 	0.0466904 	0 9.99224 	0.0465362 	0 9.98956 	0.046382 	0 9.97915 	0.0458363 	0 9.98671 	0.0460591 	0 9.98411 	0.0460148 	0 9.98151 	0.0459705 	0 9.97891 	0.0459261 	0 9.96733 	0.0455375 	0 9.97634 	0.0458138 	9.15739e-22 9.97433 	0.0456542 	5.93277e-21 9.97232 	0.0454947 	1.09499e-20 9.97031 	0.0453351 	1.59673e-20 9.95824 	0.0447239 	1.35601e-20 9.96847 	0.0448333 	9.32344e-20 9.96666 	0.0445258 	8.65307e-20 9.96485 	0.0442182 	7.98234e-20 9.96304 	0.0439106 	7.31127e-20 9.95076 	0.0432304 	-1.48398e-20 9.96084 	0.0431868 	-4.02061e-20 9.95908 	0.0428927 	-4.47289e-20 9.95732 	0.0425985 	-4.92502e-20 9.95556 	0.0423043 	-5.377e-20 9.94349 	0.0417355 	-2.12026e-20 9.95311 	0.0415287 	-1.86518e-20 9.9512 	0.0409667 	-1.2985e-20 9.94929 	0.0404047 	-7.31869e-21 9.94738 	0.0398426 	-1.65276e-21 9.93552 	0.0390605 	6.95645e-21 9.94473 	0.038744 	-5.67426e-21 9.94263 	0.037936 	-2.40885e-20 9.94052 	0.0371278 	-4.25047e-20 9.9384 	0.0363195 	-6.09229e-20 9.92664 	0.0352481 	-8.68752e-20 9.93528 	0.0349981 	-1.22545e-19 9.93282 	0.0341788 	-1.10307e-19 9.93036 	0.0333594 	-9.80617e-20 9.9279 	0.0325397 	-8.58088e-20 9.91614 	0.0313354 	-2.96143e-20 9.92404 	0.0312087 	3.37705e-20 9.92119 	0.0304676 	4.71093e-20 9.91833 	0.0297264 	6.04388e-20 9.91547 	0.0289849 	7.3759e-20 9.90377 	0.0277566 	3.6417e-20 9.91085 	0.0276724 	-4.5524e-20 9.90762 	0.0269686 	-5.15239e-20 9.90438 	0.0262645 	-5.75096e-20 9.90113 	0.0255602 	-6.34811e-20 9.8896 	0.0243425 	-3.35696e-22 9.89574 	0.0242209 	5.91668e-20 9.89209 	0.0235243 	4.9864e-20 9.88844 	0.0228275 	4.0547e-20 9.88479 	0.0221304 	3.12159e-20 9.8735 	0.0209604 	-2.84052e-20 9.8785 	0.0207741 	-8.22235e-20 9.8744 	0.0200846 	-1.0415e-19 9.8703 	0.0193947 	-1.26071e-19 9.86619 	0.0187046 	-1.47987e-19 9.85524 	0.0176145 	-1.35281e-19 9.85887 	0.0173587 	-1.53941e-19 9.8543 	0.0166804 	-1.41649e-19 9.84972 	0.0160017 	-1.29354e-19 9.84513 	0.0153227 	-1.17054e-19 9.83469 	0.0143287 	-8.27477e-20 9.8367 	0.0140105 	-6.94549e-20 9.83165 	0.0133489 	-5.11859e-20 9.82659 	0.0126869 	-3.29186e-20 9.82152 	0.0120247 	-1.46531e-20 9.81182 	0.0111304 	1.98377e-21 9.81191 	0.0107446 	0 9.80639 	0.0100953 	0 9.80087 	0.00944564 	0 9.79534 	0.00879574 	0 9.78666 	0.00799666 	0 9.78448 	0.00752908 	-1.64819e-20 9.7785 	0.00688627 	-3.5203e-20 9.77252 	0.00624315 	-5.39258e-20 9.76653 	0.00559971 	-7.26502e-20 9.75923 	0.00489625 	-9.19297e-20 9.7569 	0.00458241 	-9.52806e-20 9.75301 	0.00419669 	-9.57254e-20 9.74911 	0.00381085 	-9.61683e-20 9.74521 	0.00342488 	-9.66094e-20 9.74144 	0.00305147 	-9.70342e-20 9.73884 	0.00279648 	-9.77661e-20 9.73625 	0.00254143 	-9.84983e-20 9.73365 	0.00228633 	-9.92307e-20 9.73106 	0.00203117 	-9.99633e-20 9.72593 	0.00166238 	-9.99539e-20 9.72133 	0.00113363 	-7.46295e-20 9.71438 	0.000500621 	-4.58963e-20 9.70742 	-0.000132772 	-1.71724e-20 9.70045 	-0.00076655 	1.15422e-20 9.68458 	-0.00179145 	4.92455e-20 9.6854 	-0.00206433 	5.01145e-20 9.67803 	-0.00269128 	5.12438e-20 9.67064 	-0.00331865 	5.2371e-20 9.66324 	-0.00394644 	5.3496e-20 9.6407 	-0.00521523 	5.67412e-20 9.64682 	-0.00526248 	4.47026e-20 9.63903 	-0.00588336 	3.26615e-20 9.63124 	-0.00650469 	2.06192e-20 9.62343 	-0.00712648 	8.57584e-21 9.59455 	-0.00859525 	-1.07496e-21 9.60567 	-0.00845981 	-8.07052e-21 9.5975 	-0.00907505 	-1.95616e-20 9.58931 	-0.00969078 	-3.10516e-20 9.58111 	-0.010307 	-4.25404e-20 9.54639 	-0.0119241 	-5.40447e-20 9.5621 	-0.0116562 	-5.38425e-20 9.55356 	-0.0122679 	-6.11272e-20 9.54501 	-0.0128802 	-6.84089e-20 9.53645 	-0.0134929 	-7.56876e-20 9.49648 	-0.015204 	-9.44154e-20 9.51629 	-0.0148543 	-1.49503e-19 9.50742 	-0.0154628 	-1.40128e-19 9.49853 	-0.0160719 	-1.30766e-19 9.48964 	-0.0166815 	-1.21417e-19 9.44509 	-0.0184268 	-4.11671e-20 9.46843 	-0.0180466 	-2.62744e-20 9.45924 	-0.0186514 	-1.8413e-20 9.45005 	-0.0192568 	-1.05507e-20 9.44083 	-0.0198629 	-2.68773e-21 9.39245 	-0.0215847 	0 9.41872 	-0.0212224 	0 9.40925 	-0.0218246 	0 9.39976 	-0.0224273 	0 9.39026 	-0.0230307 	0 9.33879 	-0.0246789 	0 9.36739 	-0.0243811 	1.56611e-21 9.35766 	-0.0249825 	8.87976e-21 9.34792 	-0.0255846 	1.61927e-20 9.33816 	-0.0261873 	2.35048e-20 9.28434 	-0.0277142 	4.13299e-20 9.31469 	-0.0275303 	1.59436e-19 9.30473 	-0.0281314 	1.6233e-19 9.29475 	-0.0287332 	1.65239e-19 9.28475 	-0.0293357 	1.68162e-19 9.2293 	-0.0306893 	4.1519e-20 9.26085 	-0.0306621 	2.21578e-20 9.25068 	-0.0312616 	1.56195e-20 9.24049 	-0.0318617 	9.08045e-21 9.22757 	-0.032494 	3.8039e-21 9.17387 	-0.0335965 	1.74659e-20 9.20196 	-0.0338043 	1.03945e-19 9.19576 	-0.0343592 	1.14367e-19 9.18539 	-0.0349569 	1.15575e-19 9.16829 	-0.0355954 	1.00309e-19 9.11821 	-0.0364321 	3.98189e-21 9.14294 	-0.0368574 	-9.83792e-20 9.1402 	-0.0374144 	-1.28853e-19 9.12966 	-0.0380092 	-1.38993e-19 9.10911 	-0.0386034 	-1.27827e-19 9.06249 	-0.039195 	-6.11831e-20 9.08406 	-0.0398175 	-1.77045e-19 9.08421 	-0.0404194 	-2.17391e-19 9.07354 	-0.0410111 	-2.19628e-19 9.05018 	-0.0415166 	-1.72282e-19 9.00686 	-0.0418855 	-4.67858e-20 9.02548 	-0.0426848 	-2.47456e-20 9.028 	-0.0433688 	-1.08179e-20 9.01722 	-0.0439573 	-3.60156e-21 8.99168 	-0.0443359 	0 8.95145 	-0.0445051 	0 8.96734 	-0.0454605 	0 8.97178 	-0.0462579 	0 8.9609 	-0.0468433 	0 8.93372 	-0.0470637 	2.02231e-21 8.89639 	-0.0470563 	5.30702e-21 8.90977 	-0.0481478 	2.17519e-21 8.91571 	-0.0490844 	0 8.90475 	-0.0496666 	0 8.87644 	-0.0497038 	2.40877e-21 8.84178 	-0.0495418 	5.6976e-21 8.85288 	-0.0507503 	2.56526e-21 8.85995 	-0.0518457 	1.18442e-21 8.84894 	-0.0524249 	7.73164e-21 8.81991 	-0.0522604 	2.42983e-20 8.78773 	-0.0519655 	4.26181e-20 8.79675 	-0.0532729 	1.67062e-19 8.80465 	-0.054542 	2.84957e-19 8.7936 	-0.0551184 	2.88383e-19 8.76423 	-0.0547389 	1.67567e-19 8.73433 	-0.0543312 	4.31254e-20 8.74147 	-0.0557205 	2.5069e-20 8.74856 	-0.0571113 	7.01379e-21 8.73728 	-0.0576451 	2.97572e-22 8.70946 	-0.0571444 	3.46077e-21 8.68165 	-0.0566432 	6.62382e-21 8.6871 	-0.0580989 	3.62096e-21 8.6925 	-0.0595561 	6.18878e-22 8.68159 	-0.0600598 	2.06262e-21 8.65567 	-0.0594835 	-1.8315e-21 8.62976 	-0.0589067 	-5.72466e-21 8.6337 	-0.0604147 	-4.87793e-20 8.63759 	-0.0619242 	-9.18375e-20 8.62708 	-0.062398 	-9.31841e-20 8.6029 	-0.0617617 	-5.37916e-20 8.57873 	-0.0611249 	-1.43972e-20 8.58132 	-0.0626745 	8.40132e-20 8.58386 	-0.0642258 	1.82418e-19 8.57379 	-0.0646711 	1.90899e-19 8.55119 	-0.0639883 	1.08937e-19 8.52861 	-0.063305 	2.69748e-20 8.53 	-0.0648901 	1.56863e-20 8.53134 	-0.0664768 	4.3945e-21 8.52176 	-0.0668952 	4.78609e-22 8.50059 	-0.0661751 	5.0606e-21 8.47944 	-0.0654544 	9.64434e-21 8.47979 	-0.0670637 	4.15433e-21 8.48008 	-0.0686746 	-1.3407e-21 8.47098 	-0.069067 	-2.06786e-20 8.45111 	-0.0683222 	-7.03483e-20 8.43125 	-0.0675768 	-1.2002e-19 8.43067 	-0.0691964 	-2.50026e-19 8.43005 	-0.0708175 	-3.80026e-19 8.42146 	-0.0711851 	-3.64993e-19 8.40275 	-0.0704316 	-2.15977e-19 8.38406 	-0.0696775 	-6.69638e-20 8.38267 	-0.0712949 	5.60913e-20 8.38121 	-0.0729098 	1.78767e-19 8.37286 	-0.0732237 	1.76391e-19 8.35551 	-0.0725134 	8.98408e-20 8.33788 	-0.0717668 	3.523e-22 8.33578 	-0.0733781 	-8.8462e-20 8.33278 	-0.0748097 	-1.66132e-19 8.32458 	-0.0751302 	-1.75349e-19 8.3094 	-0.0745872 	-1.13638e-19 8.29272 	-0.0738564 	-3.65364e-20 8.28999 	-0.0754577 	-2.53801e-20 8.28574 	-0.0767054 	-1.43217e-20 8.27768 	-0.0770339 	-3.51081e-21 8.26438 	-0.0766621 	1.37998e-20 8.24857 	-0.075953 	3.42385e-20 8.24528 	-0.0775421 	1.25902e-20 8.24004 	-0.0786081 	-2.4095e-21 8.23211 	-0.0789462 	-8.16691e-21 8.22044 	-0.0787471 	-3.08582e-21 8.20543 	-0.078065 	1.17325e-20 8.20164 	-0.0796411 	-4.67835e-21 8.19561 	-0.0805303 	-1.54548e-20 8.18781 	-0.0808798 	-2.18046e-20 8.17756 	-0.0808526 	-3.38553e-20 8.16327 	-0.0802011 	-5.53499e-20 8.15905 	-0.0817639 	5.23847e-20 8.1524 	-0.0824822 	8.60514e-20 8.14473 	-0.0828444 	8.84755e-20 8.13571 	-0.0829872 	6.96943e-20 8.12208 	-0.0823692 	-2.25483e-20 8.11746 	-0.083919 	6.84185e-20 8.11036 	-0.0844732 	8.49592e-20 8.1028 	-0.0848494 	8.81771e-20 8.09485 	-0.0851593 	8.59094e-20 8.08182 	-0.0845772 	1.02152e-20 8.07686 	-0.0861146 	-6.43846e-22 8.06943 	-0.086512 	-4.74426e-22 8.06198 	-0.0869036 	-2.47115e-22 8.05451 	-0.0872955 	-1.98255e-23 8.04247 	-0.0868327 	1.80411e-20 8.03691 	-0.0881989 	0 8.02958 	-0.088607 	0 8.02222 	-0.0890153 	0 8.01485 	-0.0894239 	0 8.00401 	-0.0891436 	1.50222e-20 7.99798 	-0.0903403 	0 7.99074 	-0.0907663 	0 7.98348 	-0.0911927 	0 7.9762 	-0.0916193 	0 7.9664 	-0.0915174 	0 7.96002 	-0.0925526 	0 7.95286 	-0.0929979 	0 7.94568 	-0.0934435 	0 7.93849 	-0.0938893 	0 7.92961 	-0.0939618 	-8.30866e-21 7.92298 	-0.0948434 	0 7.9159 	-0.0953091 	0 7.90879 	-0.0957751 	0 7.90167 	-0.0962413 	0 7.89359 	-0.0964842 	-1.02071e-20 7.8868 	-0.0972198 	0 7.87978 	-0.0977069 	0 7.87275 	-0.0981943 	0 7.8657 	-0.0986819 	0 7.85831 	-0.099091 	-3.66464e-21 7.85447 	-0.0994643 	-4.84631e-21 7.85057 	-0.0997501 	-1.0607e-20 7.84667 	-0.100036 	-1.63682e-20 7.84276 	-0.100322 	-2.21297e-20 7.83894 	-0.100602 	-2.77594e-20 7.83576 	-0.100828 	-3.19966e-20 7.83258 	-0.101054 	-3.62336e-20 7.8294 	-0.10128 	-4.04702e-20 7.82621 	-0.101506 	-4.47067e-20 7.82337 	-0.101663 	-4.89461e-20 7.81616 	-0.10226 	-4.75663e-20 7.80906 	-0.102796 	-4.69419e-20 7.80193 	-0.103331 	-4.63148e-20 7.79479 	-0.103867 	-4.56849e-20 7.78877 	-0.104181 	-4.75611e-20 7.78129 	-0.104941 	-3.72021e-20 7.77423 	-0.1055 	-2.68304e-20 7.76715 	-0.10606 	-1.64573e-20 7.76004 	-0.106621 	-6.08284e-21 7.75484 	-0.106813 	0 7.7471 	-0.107732 	-2.65671e-21 7.74007 	-0.108318 	-7.42471e-21 7.73302 	-0.108904 	-1.2192e-20 7.72595 	-0.10949 	-1.69585e-20 7.72154 	-0.109567 	-2.16906e-20 7.71353 	-0.110642 	-5.06186e-20 7.70653 	-0.111255 	-7.02071e-20 7.69951 	-0.111869 	-8.97972e-20 7.69246 	-0.112482 	-1.09389e-19 7.68882 	-0.11245 	-1.01628e-19 7.68053 	-0.113677 	-7.92359e-20 7.67355 	-0.114318 	-6.82033e-20 7.66654 	-0.11496 	-5.71645e-20 7.65951 	-0.115602 	-4.61193e-20 7.65662 	-0.115468 	-6.81334e-20 7.64807 	-0.116835 	-8.20592e-20 7.64108 	-0.117516 	-6.41537e-20 7.63408 	-0.118188 	-4.58599e-20 7.62759 	-0.118762 	-2.57775e-20 7.6249 	-0.118631 	7.22166e-21 7.61637 	-0.120012 	1.15543e-20 7.60908 	-0.120856 	8.4938e-21 7.60209 	-0.12156 	3.48148e-21 7.59637 	-0.122024 	0 7.59361 	-0.121945 	0 7.5851 	-0.123339 	0 7.57749 	-0.124344 	0 7.5705 	-0.12508 	0 7.56554 	-0.12544 	0 7.5627 	-0.125413 	0 7.55421 	-0.126823 	0 7.54628 	-0.127986 	-6.77791e-21 7.53927 	-0.128755 	-2.43157e-20 7.53504 	-0.129017 	-4.19058e-20 7.53212 	-0.129043 	-5.95212e-20 7.52363 	-0.13047 	-4.0518e-20 7.51537 	-0.131787 	-2.0769e-20 7.50834 	-0.13259 	2.40324e-21 7.50483 	-0.132761 	8.8822e-21 7.50181 	-0.13284 	1.29572e-20 7.49333 	-0.134286 	4.51948e-20 7.48479 	-0.135733 	7.74307e-20 7.47795 	-0.136544 	9.45474e-20 7.47485 	-0.136676 	7.97701e-20 7.47173 	-0.136809 	6.49913e-20 7.46324 	-0.138276 	4.1214e-20 7.45469 	-0.139744 	1.74282e-20 7.44826 	-0.140583 	2.50335e-21 7.44505 	-0.140769 	1.17664e-20 7.44183 	-0.140955 	2.10302e-20 7.43331 	-0.142445 	8.37807e-20 7.42475 	-0.143935 	1.46534e-19 7.41872 	-0.144804 	1.47186e-19 7.41539 	-0.145044 	8.50569e-20 7.41205 	-0.145283 	2.29266e-20 7.40351 	-0.146797 	1.44505e-20 7.39492 	-0.148311 	5.97794e-21 7.38926 	-0.149212 	6.14414e-21 7.38581 	-0.149505 	1.51843e-20 7.38234 	-0.149798 	2.42256e-20 7.37376 	-0.151336 	8.55052e-20 7.36514 	-0.152875 	1.46788e-19 7.35984 	-0.153809 	1.47473e-19 7.35625 	-0.154156 	8.68444e-20 7.35264 	-0.154502 	2.62139e-20 7.34403 	-0.156067 	1.79862e-20 7.33576 	-0.157564 	9.74977e-21 7.33064 	-0.158508 	1.4184e-21 7.32667 	-0.159 	0 7.32291 	-0.1594 	0 7.31425 	-0.160992 	0 7.3067 	-0.162383 	0 7.30147 	-0.163368 	0 7.29701 	-0.164041 	0 7.2931 	-0.164494 	0 7.28437 	-0.166114 	0 7.27752 	-0.167404 	0 7.27217 	-0.16843 	0 7.26723 	-0.169281 	5.29545e-21 7.26315 	-0.169787 	2.10139e-20 7.25435 	-0.171436 	3.67707e-21 7.24818 	-0.172627 	6.70514e-21 7.24269 	-0.173696 	1.52168e-20 7.23726 	-0.174723 	2.40699e-20 7.233 	-0.17528 	3.68014e-20 7.22421 	-0.176946 	1.203e-19 7.21861 	-0.178055 	1.2479e-19 7.21297 	-0.179165 	1.29257e-19 7.20729 	-0.180274 	1.33703e-19 7.20262 	-0.180976 	4.94475e-20 7.19452 	-0.182537 	1.24971e-19 7.18876 	-0.183688 	1.13209e-19 7.18297 	-0.184839 	1.01424e-19 7.17714 	-0.18599 	8.96164e-20 7.17194 	-0.186873 	3.80658e-20 7.16451 	-0.188334 	3.27275e-20 7.1586 	-0.189526 	3.32016e-20 7.15264 	-0.190718 	3.36808e-20 7.14664 	-0.19191 	3.41652e-20 7.14093 	-0.192974 	4.46613e-20 7.13449 	-0.194263 	4.8051e-20 7.12877 	-0.195424 	4.56859e-20 7.123 	-0.196584 	4.33069e-20 7.1172 	-0.197745 	4.09138e-20 7.11172 	-0.198835 	3.8653e-20 7.11127 	-0.198922 	3.85913e-20 7.11082 	-0.199008 	3.85296e-20 7.11036 	-0.199095 	3.84679e-20 7.10991 	-0.199181 	3.84062e-20 7.10954 	-0.199259 	3.86511e-20 7.10309 	-0.20054 	3.25829e-20 7.09664 	-0.201812 	2.60749e-20 7.09015 	-0.203084 	1.95751e-20 7.08361 	-0.204356 	1.30836e-20 7.07828 	-0.205496 	8.39066e-22 7.07095 	-0.206941 	-2.47185e-22 7.06431 	-0.208254 	-1.75181e-22 7.05762 	-0.209566 	-1.03152e-22 7.05088 	-0.210878 	-3.10968e-23 7.04654 	-0.211937 	0 7.03831 	-0.213545 	-4.90016e-21 7.03146 	-0.214897 	-1.84622e-20 7.02457 	-0.216248 	-3.20183e-20 7.01762 	-0.2176 	-4.55687e-20 7.01427 	-0.218578 	-5.59319e-20 7.00511 	-0.220349 	-4.38995e-20 6.99805 	-0.221739 	-2.88855e-20 6.99094 	-0.223129 	-1.38656e-20 6.98439 	-0.224457 	4.0718e-23 6.98144 	-0.225416 	7.25987e-21 6.97198 	-0.227234 	9.71009e-22 6.96404 	-0.228776 	8.79954e-21 6.9567 	-0.230204 	2.25335e-20 6.95118 	-0.231444 	3.9391e-20 6.94799 	-0.232447 	6.02203e-20 6.93831 	-0.234296 	3.85194e-20 6.92937 	-0.236005 	1.91992e-20 6.92179 	-0.23747 	4.09303e-21 6.91731 	-0.238622 	-2.20548e-21 6.91387 	-0.239666 	-5.48394e-21 6.90396 	-0.241545 	-5.62907e-20 6.89399 	-0.243422 	-1.06809e-19 6.88641 	-0.244899 	-1.07994e-19 6.88275 	-0.245984 	-6.80473e-20 6.87905 	-0.247069 	-2.81007e-20 6.86889 	-0.248978 	-6.86313e-20 6.85867 	-0.250886 	-1.09169e-19 6.85137 	-0.252402 	-1.08894e-19 6.84744 	-0.253526 	-6.63636e-20 6.84348 	-0.25465 	-2.38326e-20 6.83307 	-0.256587 	-6.65035e-20 6.82259 	-0.258524 	-1.0918e-19 6.81555 	-0.26008 	-1.05212e-19 6.81135 	-0.261242 	-5.70057e-20 6.80711 	-0.262403 	-8.79501e-21 6.79645 	-0.264367 	-6.06086e-21 6.78586 	-0.266316 	-3.32042e-21 6.7792 	-0.267882 	-3.65862e-22 6.77444 	-0.269125 	0 6.76992 	-0.270322 	0 6.75898 	-0.272312 	0 6.74955 	-0.274151 	0 6.74261 	-0.275746 	0 6.73668 	-0.277168 	0 6.73186 	-0.278399 	0 6.72065 	-0.280413 	0 6.71238 	-0.282141 	-2.26077e-21 6.70516 	-0.283764 	-5.34498e-21 6.69801 	-0.285364 	-7.73683e-21 6.6929 	-0.286627 	3.25859e-22 6.68178 	-0.288628 	-5.10478e-20 6.67432 	-0.290278 	-4.78957e-20 6.66681 	-0.291927 	-4.4722e-20 6.65923 	-0.293576 	-4.15266e-20 6.65301 	-0.294999 	-5.61162e-21 6.6431 	-0.296881 	-7.36281e-21 6.63535 	-0.298555 	1.2085e-21 6.62753 	-0.300228 	9.78112e-21 6.61966 	-0.301902 	1.83551e-20 6.61215 	-0.303507 	2.44009e-20 6.60808 	-0.30429 	3.28161e-20 6.60467 	-0.30501 	3.28967e-20 6.60125 	-0.305731 	3.29741e-20 6.59782 	-0.306451 	3.30485e-20 6.59448 	-0.30715 	3.31176e-20 6.5895 	-0.308128 	3.39796e-20 6.58449 	-0.309106 	3.48388e-20 6.57946 	-0.310084 	3.56952e-20 6.57441 	-0.311062 	3.65488e-20 6.56997 	-0.311964 	4.02454e-20 6.56082 	-0.313762 	4.08386e-20 6.55192 	-0.315476 	3.86767e-20 6.54296 	-0.317189 	3.65198e-20 6.53393 	-0.318902 	3.4368e-20 6.52658 	-0.320406 	1.92958e-20 6.5165 	-0.322371 	3.33283e-20 6.50725 	-0.324102 	2.7339e-20 6.49793 	-0.325834 	2.13614e-20 6.48879 	-0.327536 	1.33873e-20 6.48202 	-0.328954 	-1.49409e-20 6.47133 	-0.330991 	-7.90796e-21 6.46135 	-0.332832 	-6.9468e-21 6.45167 	-0.334579 	-8.85275e-21 6.44336 	-0.33616 	-9.43987e-21 6.43625 	-0.337595 	-8.86462e-21 6.42518 	-0.339644 	-7.53082e-21 6.41419 	-0.341654 	-5.64318e-21 6.40414 	-0.343415 	-8.52513e-23 6.3967 	-0.34487 	5.09495e-21 6.38924 	-0.346321 	1.02728e-20 6.37779 	-0.348377 	6.06225e-21 6.36626 	-0.350433 	1.85561e-21 6.35654 	-0.352192 	0 6.34879 	-0.353656 	0 6.34097 	-0.355119 	0 6.32913 	-0.357181 	0 6.3172 	-0.359243 	0 6.30774 	-0.361022 	0 6.29959 	-0.362504 	0 6.29141 	-0.363978 	0 6.27917 	-0.366044 	0 6.26799 	-0.367983 	1.86552e-21 6.25836 	-0.369744 	6.34782e-21 6.24909 	-0.371404 	1.08376e-20 6.24054 	-0.372885 	1.53397e-20 6.22789 	-0.374952 	1.17631e-20 6.21771 	-0.376741 	1.22123e-20 6.20769 	-0.378503 	1.30281e-20 6.1976 	-0.380266 	1.38498e-20 6.18833 	-0.381828 	1.59634e-20 6.17647 	-0.383764 	3.46791e-21 6.16614 	-0.385526 	-2.42255e-21 6.15573 	-0.387288 	-8.30035e-21 6.14525 	-0.38905 	-1.41654e-20 6.13476 	-0.390795 	-1.91066e-20 6.13375 	-0.390956 	-1.87298e-20 6.13285 	-0.391103 	-1.84641e-20 6.13196 	-0.39125 	-1.81985e-20 6.13107 	-0.391397 	-1.79328e-20 6.13018 	-0.391543 	-1.76687e-20 6.12077 	-0.393159 	-1.70533e-20 6.11129 	-0.394775 	-1.64541e-20 6.10176 	-0.39639 	-1.58712e-20 6.09216 	-0.398005 	-1.53048e-20 6.08266 	-0.399473 	-4.5123e-21 6.0