# vtk DataFile Version 2.0
track0
ASCII
DATASET POLYDATA
POINTS 12040 float
-0.0205 0.001 1e-05
-0.02052 0.000999985 1e-05
-0.02054 0.000999974 1e-05
-0.02056 0.000999965 1e-05
-0.02058 0.000999959 1e-05
-0.0206 0.000999956 1e-05
-0.0205 0.00367778 1e-05
-0.02052 0.00367778 1e-05
-0.02054 0.00367777 1e-05
-0.02056 0.00367777 1e-05
-0.02058 0.00367777 1e-05
-0.0206 0.00367777 1e-05
-0.0205 0.00635556 1e-05
-0.02052 0.00635555 1e-05
-0.02054 0.00635555 1e-05
-0.02056 0.00635555 1e-05
-0.02058 0.00635555 1e-05
-0.0206 0.00635555 1e-05
-0.0205 0.00903333 1e-05
-0.02052 0.00903333 1e-05
-0.02054 0.00903333 1e-05
-0.02056 0.00903333 1e-05
-0.02058 0.00903333 1e-05
-0.0206 0.00903333 1e-05
-0.0205 0.0117111 1e-05
-0.02052 0.0117111 1e-05
-0.02054 0.0117111 1e-05
-0.02056 0.0117111 1e-05
-0.02058 0.0117111 1e-05
-0.0206 0.0117111 1e-05
-0.0205 0.0143889 1e-05
-0.02052 0.0143889 1e-05
-0.02054 0.0143889 1e-05
-0.02056 0.0143889 1e-05
-0.02058 0.0143889 1e-05
-0.0206 0.0143889 1e-05
-0.0205 0.0170667 1e-05
-0.02052 0.0170667 1e-05
-0.02054 0.0170667 1e-05
-0.02056 0.0170667 1e-05
-0.02058 0.0170667 1e-05
-0.0206 0.0170667 1e-05
-0.0205 0.0197444 1e-05
-0.02052 0.0197444 1e-05
-0.02054 0.0197444 1e-05
-0.02056 0.0197444 1e-05
-0.02058 0.0197444 1e-05
-0.0206 0.0197444 1e-05
-0.0205 0.0224222 1e-05
-0.02052 0.0224222 1e-05
-0.02054 0.0224222 1e-05
-0.02056 0.0224222 1e-05
-0.02058 0.0224222 1e-05
-0.0206 0.0224222 1e-05
-0.0205 0.0251 1e-05
-0.02052 0.0250998 1e-05
-0.02054 0.0250997 1e-05
-0.02056 0.0250995 1e-05
-0.02058 0.0250995 1e-05
-0.0206 0.0250994 1e-05
-0.0205 0.001 1e-05
-0.0202034 0.00100022 1e-05
-0.0199069 0.00100067 1e-05
-0.0196103 0.00100132 1e-05
-0.0193137 0.00100219 1e-05
-0.0190172 0.00100326 1e-05
-0.0187132 0.00100466 1e-05
-0.0184093 0.00100588 1e-05
-0.0181054 0.0010071 1e-05
-0.0178015 0.00100832 1e-05
-0.0174976 0.00100953 1e-05
-0.0172058 0.00101083 1e-05
-0.016914 0.00101193 1e-05
-0.0166222 0.00101303 1e-05
-0.0163305 0.00101413 1e-05
-0.0160387 0.00101522 1e-05
-0.0157586 0.00101636 1e-05
-0.0154784 0.00101744 1e-05
-0.0151983 0.00101856 1e-05
-0.0149182 0.00101971 1e-05
-0.0146381 0.0010209 1e-05
-0.0143744 0.00102208 1e-05
-0.0141107 0.00102327 1e-05
-0.013847 0.00102449 1e-05
-0.0135833 0.00102574 1e-05
-0.0133606 0.00102682 1e-05
-0.0133472 0.00102688 1e-05
-0.0133337 0.00102695 1e-05
-0.0133203 0.00102702 1e-05
-0.0133069 0.00102708 1e-05
-0.0132934 0.00102715 1e-05
-0.0130353 0.00102844 1e-05
-0.0127771 0.00102974 1e-05
-0.0125189 0.00103106 1e-05
-0.0122607 0.00103239 1e-05
-0.0120025 0.00103374 1e-05
-0.0117547 0.00103505 1e-05
-0.0115068 0.00103637 1e-05
-0.0112589 0.00103769 1e-05
-0.0110111 0.00103901 1e-05
-0.0107632 0.00104034 1e-05
-0.0105252 0.00104161 1e-05
-0.0102873 0.00104289 1e-05
-0.0100493 0.00104417 1e-05
-0.00981133 0.00104545 1e-05
-0.00957337 0.00104673 1e-05
-0.00934491 0.00104794 1e-05
-0.00911645 0.00104917 1e-05
-0.00888799 0.00105038 1e-05
-0.00865954 0.0010516 1e-05
-0.00843108 0.00105281 1e-05
-0.00821175 0.00105397 1e-05
-0.00799242 0.00105512 1e-05
-0.00777309 0.00105628 1e-05
-0.00755376 0.00105743 1e-05
-0.00733443 0.00105857 1e-05
-0.00712387 0.00105966 1e-05
-0.0069133 0.00106075 1e-05
-0.00670273 0.00106183 1e-05
-0.00649216 0.00106291 1e-05
-0.0062816 0.00106399 1e-05
-0.00607944 0.00106501 1e-05
-0.00587729 0.00106604 1e-05
-0.00567514 0.00106706 1e-05
-0.00547298 0.00106807 1e-05
-0.00527083 0.00106908 1e-05
-0.00507675 0.00107004 1e-05
-0.00488267 0.00107101 1e-05
-0.0046886 0.00107196 1e-05
-0.00449452 0.00107292 1e-05
-0.00430044 0.00107387 1e-05
-0.00411412 0.00107477 1e-05
-0.0039278 0.00107568 1e-05
-0.00374147 0.00107658 1e-05
-0.00355515 0.00107747 1e-05
-0.00336883 0.00107837 1e-05
-0.00318995 0.00107922 1e-05
-0.00301107 0.00108007 1e-05
-0.00283219 0.00108092 1e-05
-0.00265331 0.00108176 1e-05
-0.00247443 0.0010826 1e-05
-0.0023027 0.00108341 1e-05
-0.00213097 0.00108421 1e-05
-0.00195924 0.00108501 1e-05
-0.0017875 0.00108581 1e-05
-0.00161577 0.00108661 1e-05
-0.0014509 0.00108737 1e-05
-0.00128603 0.00108813 1e-05
-0.00112116 0.00108889 1e-05
-0.000956289 0.00108965 1e-05
-0.000791418 0.0010904 1e-05
-0.000633135 0.00109113 1e-05
-0.000474851 0.00109185 1e-05
-0.000316567 0.00109258 1e-05
-0.000158284 0.0010933 1e-05
0 0.00109402 1e-05
0.000105677 0.0010945 1e-05
0.000211355 0.00109497 1e-05
0.000317032 0.00109544 1e-05
0.00042271 0.00109591 1e-05
0.000528387 0.00109638 1e-05
0.000634886 0.00109684 1e-05
0.000741385 0.0010973 1e-05
0.000847885 0.00109776 1e-05
0.000954384 0.00109822 1e-05
0.00106088 0.00109867 1e-05
0.00116821 0.00109912 1e-05
0.00127554 0.00109957 1e-05
0.00138286 0.00110001 1e-05
0.00149019 0.00110045 1e-05
0.00159752 0.00110087 1e-05
0.00170568 0.0011013 1e-05
0.00181384 0.00110172 1e-05
0.001922 0.00110213 1e-05
0.00203016 0.00110254 1e-05
0.00213833 0.00110293 1e-05
0.00224733 0.00110332 1e-05
0.00235633 0.0011037 1e-05
0.00246533 0.00110408 1e-05
0.00257434 0.00110445 1e-05
0.00268334 0.0011048 1e-05
0.00279319 0.00110515 1e-05
0.00290304 0.0011055 1e-05
0.00301289 0.00110583 1e-05
0.00312274 0.00110616 1e-05
0.00323259 0.00110648 1e-05
0.00334329 0.00110679 1e-05
0.003454 0.0011071 1e-05
0.0035647 0.0011074 1e-05
0.0036754 0.0011077 1e-05
0.00378611 0.00110798 1e-05
0.00389767 0.00110826 1e-05
0.00400924 0.00110853 1e-05
0.0041208 0.0011088 1e-05
0.00423237 0.00110905 1e-05
0.00434393 0.0011093 1e-05
0.00445636 0.00110954 1e-05
0.00456879 0.00110978 1e-05
0.00468123 0.00111001 1e-05
0.00479366 0.00111023 1e-05
0.00490609 0.00111044 1e-05
0.0050194 0.00111064 1e-05
0.0051327 0.00111084 1e-05
0.00524601 0.00111104 1e-05
0.00535932 0.00111122 1e-05
0.00547262 0.0011114 1e-05
0.00558681 0.00111156 1e-05
0.005701 0.00111172 1e-05
0.00581518 0.00111188 1e-05
0.00592937 0.00111203 1e-05
0.00604356 0.00111217 1e-05
0.00615863 0.0011123 1e-05
0.00627371 0.00111242 1e-05
0.00638878 0.00111254 1e-05
0.00650386 0.00111265 1e-05
0.00661893 0.00111276 1e-05
0.0067349 0.00111285 1e-05
0.00685087 0.00111294 1e-05
0.00696684 0.00111302 1e-05
0.00708281 0.0011131 1e-05
0.00719878 0.00111316 1e-05
0.00726961 0.0011132 1e-05
0.00734043 0.00111323 1e-05
0.00741126 0.00111326 1e-05
0.00748209 0.00111329 1e-05
0.00755059 0.00111331 1e-05
0.0075971 0.00111333 1e-05
0.00764361 0.00111334 1e-05
0.00769012 0.00111335 1e-05
0.00773663 0.00111336 1e-05
0.00778313 0.00111337 1e-05
0.00790091 0.00111339 1e-05
0.00801869 0.00111341 1e-05
0.00813647 0.00111341 1e-05
0.00825425 0.00111341 1e-05
0.00837203 0.0011134 1e-05
0.00849073 0.00111338 1e-05
0.00860942 0.00111336 1e-05
0.00872812 0.00111332 1e-05
0.00884682 0.00111328 1e-05
0.00896551 0.00111323 1e-05
0.00908513 0.00111317 1e-05
0.00920475 0.0011131 1e-05
0.00932437 0.00111303 1e-05
0.00944398 0.00111295 1e-05
0.0095636 0.00111286 1e-05
0.00968415 0.00111275 1e-05
0.0098047 0.00111265 1e-05
0.00992525 0.00111253 1e-05
0.0100458 0.00111241 1e-05
0.0101663 0.00111228 1e-05
0.0102878 0.00111213 1e-05
0.0104093 0.00111198 1e-05
0.0105308 0.00111183 1e-05
0.0106523 0.00111166 1e-05
0.0107738 0.00111149 1e-05
0.0108962 0.00111129 1e-05
0.0110186 0.0011111 1e-05
0.0111411 0.0011109 1e-05
0.0112635 0.0011107 1e-05
0.0113859 0.00111048 1e-05
0.0115093 0.00111024 1e-05
0.0116327 0.00111001 1e-05
0.0117561 0.00110976 1e-05
0.0118795 0.00110951 1e-05
0.0120028 0.00110925 1e-05
0.0121272 0.00110897 1e-05
0.0122515 0.00110869 1e-05
0.0123759 0.0011084 1e-05
0.0125002 0.0011081 1e-05
0.0126245 0.0011078 1e-05
0.0127498 0.00110746 1e-05
0.0128752 0.00110714 1e-05
0.0130005 0.0011068 1e-05
0.0131258 0.00110646 1e-05
0.0132511 0.00110611 1e-05
0.0133774 0.00110573 1e-05
0.0135036 0.00110536 1e-05
0.0136299 0.00110498 1e-05
0.0137562 0.00110459 1e-05
0.0138825 0.00110419 1e-05
0.0140098 0.00110376 1e-05
0.014137 0.00110334 1e-05
0.0142643 0.00110291 1e-05
0.0143915 0.00110247 1e-05
0.0145188 0.00110203 1e-05
0.0146471 0.00110156 1e-05
0.0147753 0.00110109 1e-05
0.0149036 0.00110061 1e-05
0.0150318 0.00110012 1e-05
0.0151601 0.00109962 1e-05
0.0152893 0.0010991 1e-05
0.0154186 0.00109858 1e-05
0.0155478 0.00109805 1e-05
0.0156771 0.00109752 1e-05
0.0158063 0.00109697 1e-05
0.0159366 0.0010964 1e-05
0.0160668 0.00109583 1e-05
0.0161971 0.00109525 1e-05
0.0163274 0.00109467 1e-05
0.0164576 0.00109407 1e-05
0.0165889 0.00109346 1e-05
0.0167201 0.00109284 1e-05
0.0168514 0.00109221 1e-05
0.0169827 0.00109157 1e-05
0.0171139 0.00109092 1e-05
0.0172462 0.00109026 1e-05
0.0173785 0.00108959 1e-05
0.0175108 0.00108891 1e-05
0.0176431 0.00108822 1e-05
0.0177754 0.00108752 1e-05
0.0179087 0.00108681 1e-05
0.018042 0.00108609 1e-05
0.0181753 0.00108536 1e-05
0.0183087 0.00108462 1e-05
0.018442 0.00108387 1e-05
0.0185763 0.00108312 1e-05
0.0187107 0.00108235 1e-05
0.018845 0.00108156 1e-05
0.0189794 0.00108076 1e-05
0.0191137 0.00107997 1e-05
0.0192491 0.00107917 1e-05
0.0193845 0.00107835 1e-05
0.0195199 0.00107751 1e-05
0.0196553 0.00107666 1e-05
0.0197907 0.00107582 1e-05
0.0199272 0.00107497 1e-05
0.0200636 0.0010741 1e-05
0.0202001 0.00107321 1e-05
0.0203365 0.00107231 1e-05
0.020473 0.00107141 1e-05
0.0206105 0.00107051 1e-05
0.020748 0.00106959 1e-05
0.0208855 0.00106865 1e-05
0.021023 0.0010677 1e-05
0.0211606 0.00106675 1e-05
0.0212991 0.00106581 1e-05
0.0214377 0.00106484 1e-05
0.0215763 0.00106385 1e-05
0.0217149 0.00106284 1e-05
0.0218535 0.00106185 1e-05
0.0219931 0.00106085 1e-05
0.0221328 0.00105983 1e-05
0.0222724 0.00105879 1e-05
0.0224121 0.00105774 1e-05
0.0225517 0.00105669 1e-05
0.0226925 0.00105565 1e-05
0.0228332 0.00105457 1e-05
0.022974 0.00105348 1e-05
0.0231147 0.00105237 1e-05
0.0232555 0.00105128 1e-05
0.0233973 0.00105018 1e-05
0.0235391 0.00104906 1e-05
0.023681 0.00104791 1e-05
0.0238228 0.00104676 1e-05
0.0239647 0.00104561 1e-05
0.0241076 0.00104446 1e-05
0.0242505 0.00104329 1e-05
0.0243935 0.00104209 1e-05
0.0245364 0.00104088 1e-05
0.0246794 0.00103968 1e-05
0.0248234 0.00103849 1e-05
0.0249675 0.00103726 1e-05
0.0251115 0.00103601 1e-05
0.0252556 0.00103475 1e-05
[...]
POINT_DATA 12040
 FIELD attributes 2
p 1 12040 float
-4.8174 -4.81408 -4.81076 -4.80745 -4.80414 -4.80082
-4.9696 -4.96958 -4.96956 -4.96954 -4.96951 -4.96949
-5.14341 -5.14329 -5.14316 -5.14304 -5.14292 -5.14281
-5.23634 -5.23629 -5.23624 -5.23618 -5.23613 -5.23608
-5.28105 -5.28094 -5.28083 -5.28071 -5.2806 -5.28049
-5.28728 -5.28712 -5.28696 -5.2868 -5.28664 -5.28648
-5.2601 -5.26003 -5.25996 -5.25989 -5.25982 -5.25975
-5.19037 -5.19033 -5.19029 -5.19025 -5.19021 -5.19017
-5.06899 -5.069 -5.069 -5.06901 -5.06902 -5.06902
-2.85635 -2.87568 -2.89488 -2.91395 -2.93289 -2.95169
-4.8174 -4.81669 -4.81307 -4.80938 -4.80561 -4.79724 -4.8111 -4.82608 -4.84107 -4.85605 -4.88049 -4.90228 -4.93223 -4.96219 -4.99215 -5.02491 -5.0406 -5.06233 -5.08406 -5.10579 -5.12914 -5.14808 -5.16903 -5.18998 -5.21094 -5.22864 -5.22971 -5.23077 -5.23183 -5.2329 -5.23396 -5.25566 -5.27737 -5.29907 -5.32078 -5.34221 -5.36102 -5.37965 -5.39827 -5.41689 -5.43495 -5.45063 -5.46604 -5.48145 -5.49685 -5.51171 -5.52556 -5.53916 -5.55276 -5.56636 -5.57952 -5.59231 -5.60485 -5.61738 -5.62992 -5.64203 -5.65393 -5.66553 -5.67713 -5.68873 -5.69991 -5.71099 -5.7218 -5.73262 -5.74343 -5.75388 -5.76435 -5.77456 -5.78476 -5.79497 -5.80486 -5.81484 -5.82464 -5.83443 -5.84422 -5.85381 -5.86348 -5.87289 -5.8823 -5.89171 -5.9009 -5.91036 -5.91995 -5.92955 -5.93914 -5.94887 -5.95882 -5.96852 -5.97821 -5.98791 -5.99743 -6.00744 -6.01828 -6.02912 -6.03996 -6.05098 -6.06093 -6.07162 -6.08231 -6.093 -6.10324 -6.11253 -6.12135 -6.13017 -6.13899 -6.14701 -6.15415 -6.16233 -6.1705 -6.17868 -6.1876 -6.19576 -6.20437 -6.21299 -6.2216 -6.23033 -6.23845 -6.24559 -6.25273 -6.25987 -6.26616 -6.27286 -6.27827 -6.28369 -6.28911 -6.29347 -6.2991 -6.30369 -6.30828 -6.31287 -6.31651 -6.32138 -6.32536 -6.32934 -6.33332 -6.33649 -6.3404 -6.34356 -6.34672 -6.34989 -6.35245 -6.35534 -6.35769 -6.36004 -6.36239 -6.36437 -6.36653 -6.36834 -6.37015 -6.37195 -6.37357 -6.37537 -6.37696 -6.37854 -6.38013 -6.38163 -6.38323 -6.38472 -6.38621 -6.38769 -6.38915 -6.39004 -6.39088 -6.39173 -6.39258 -6.39339 -6.39395 -6.39451 -6.39506 -6.39562 -6.39622 -6.3975 -6.39884 -6.40018 -6.40151 -6.40304 -6.40415 -6.40548 -6.40682 -6.40815 -6.4099 -6.41081 -6.41218 -6.41355 -6.41492 -6.41701 -6.4177 -6.41917 -6.42065 -6.42212 -6.42467 -6.42518 -6.42678 -6.42838 -6.42998 -6.433 -6.43329 -6.43499 -6.43668 -6.43838 -6.44184 -6.44192 -6.44372 -6.44552 -6.44732 -6.45125 -6.45119 -6.45313 -6.45507 -6.45701 -6.46137 -6.46122 -6.46331 -6.46539 -6.46747 -6.47221 -6.472 -6.47422 -6.47644 -6.47867 -6.48372 -6.4835 -6.48587 -6.48823 -6.49077 -6.49592 -6.49602 -6.49827 -6.50077 -6.50372 -6.50884 -6.50927 -6.51144 -6.5141 -6.51742 -6.52247 -6.52327 -6.5254 -6.5282 -6.53185 -6.53683 -6.53798 -6.54011 -6.54306 -6.547 -6.5519 -6.5534 -6.55558 -6.55868 -6.56284 -6.56767 -6.56951 -6.57177 -6.57501 -6.57937 -6.58414 -6.58629 -6.58867 -6.59205 -6.59657 -6.60128 -6.60373 -6.60625 -6.60977 -6.6144 -6.61907 -6.62181 -6.62455 -6.62823 -6.63287 -6.63751 -6.64051 -6.64351 -6.64732 -6.65194 -6.65657 -6.65982 -6.66307 -6.66701 -6.67164 -6.67627 -6.67977 -6.68327 -6.68733 -6.69195 -6.69658 -6.70031 -6.70404 -6.70821 -6.71281 -6.71742 -6.72135 -6.72528 -6.72954 -6.73412 -6.73871 -6.74279 -6.74687 -6.75121 -6.7558 -6.7604 -6.7646 -6.7688 -6.77323 -6.77785 -6.78247 -6.78677 -6.79111 -6.7956 -6.80023 -6.80489 -6.80928 -6.81372 -6.81828 -6.82293 -6.82764 -6.8321 -6.83662 -6.84124 -6.84593 -6.85068 -6.85519 -6.85979 -6.86446 -6.86918 -6.87396 -6.87852 -6.88319 -6.88789 -6.89262 -6.89744 -6.90203 -6.90675 -6.91148 -6.91622 -6.92106 -6.92567 -6.93043 -6.93518 -6.93993 -6.94478 -6.94942 -6.95417 -6.95893 -6.96369 -6.96852 -6.97318 -6.97793 -6.98268 -6.98743 -6.99224 -6.9969 -7.00163 -7.00636 -7.0111 -7.01586 -7.02051 -7.02521 -7.02991 -7.03461 -7.03933 -7.04396 -7.04861 -7.05326 -7.05791 -7.06257 -7.06513 -7.0677 -7.07028 -7.07285 -7.07536 -7.07739 -7.07942 -7.08145 -7.08348 -7.08552 -7.09003 -7.09455 -7.09906 -7.10358 -7.10811 -7.11253 -7.11695 -7.12138 -7.1258 -7.13025 -7.13457 -7.13889 -7.1432 -7.14752 -7.15186 -7.15607 -7.16026 -7.16446 -7.16865 -7.17286 -7.17695 -7.181 -7.18504 -7.18909 -7.19314 -7.19708 -7.20096 -7.20483 -7.2087 -7.21256 -7.21634 -7.22005 -7.22373 -7.22741 -7.23107 -7.23466 -7.23818 -7.24166 -7.24512 -7.24854 -7.25192 -7.25524 -7.25848 -7.26168 -7.26485 -7.26799 -7.27109 -7.27407 -7.27697 -7.27987 -7.28273 -7.28561 -7.2883 -7.29088 -7.29347 -7.29604 -7.29862 -7.30101 -7.30327 -7.30552 -7.30777 -7.31003 -7.31211 -7.314 -7.31589 -7.3178 -7.31971 -7.32144 -7.32294 -7.32445 -7.32598 -7.32752 -7.32888 -7.32996 -7.33105 -7.33218 -7.33329 -7.33422 -7.3349 -7.33554 -7.33624 -7.33686 -7.33733 -7.33762 -7.33779 -7.33802 -7.33811 -7.33809 -7.33797 -7.33763 -7.33736 -7.33688 -7.33635 -7.33578 -7.3349 -7.3341 -7.33301 -7.33193 -7.33085 -7.32946 -7.32802 -7.32635 -7.32468 -7.32302 -7.32115 -7.31902 -7.31674 -7.31445 -7.31217 -7.30979 -7.30711 -7.30435 -7.30159 -7.29884 -7.29625 -7.29605 -7.29585 -7.29565 -7.29544 -7.29523 -7.29168 -7.28812 -7.28456 -7.28101 -7.27733 -7.27322 -7.26895 -7.26469 -7.26043 -7.25591 -7.25122 -7.24621 -7.24121 -7.23621 -7.23079 -7.22551 -7.21974 -7.21396 -7.20812 -7.20183 -7.19579 -7.18937 -7.18279 -7.17598 -7.16887 -7.16201 -7.15495 -7.14754 -7.13972 -7.13175 -7.12404 -7.11633 -7.10803 -7.09917 -7.09031 -7.08172 -7.07314 -7.06396 -7.05419 -7.04441 -7.03492 -7.02543 -7.01534 -7.00462 -6.99391 -6.98348 -6.97303 -6.96194 -6.95033 -6.93864 -6.92725 -6.91559 -6.90352 -6.89116 -6.87847 -6.86609 -6.85319 -6.8401 -6.82698 -6.81327 -6.7998 -6.78567 -6.77155 -6.75743 -6.74291 -6.72812 -6.71293 -6.69774 -6.68256 -6.66726 -6.66047 -6.65356 -6.64664 -6.63973 -6.63302 -6.62371 -6.61439 -6.60508 -6.59576 -6.5863 -6.56921 -6.55198 -6.53476 -6.51754 -6.49988 -6.48196 -6.46361 -6.44527 -6.42687 -6.40785 -6.38891 -6.3696 -6.35013 -6.33028 -6.3101 -6.29001 -6.26986 -6.24924 -6.2279 -6.20656 -6.18531 -6.16407 -6.14219 -6.11966 -6.09713 -6.07471 -6.0523 -6.02919 -6.00548 -5.98176 -5.95816 -5.93424 -5.90986 -5.8853 -5.86038 -5.83558 -5.81006 -5.78448 -5.7589 -5.73293 -5.70659 -5.67978 -5.65299 -5.6262 -5.59939 -5.59708 -5.59474 -5.5924 -5.59005 -5.58773 -5.56212 -5.53653 -5.51094 -5.48537 -5.45951 -5.43057 -5.40143 -5.37229 -5.34317 -5.31346 -5.28343 -5.25317 -5.22282 -5.19216 -5.16124 -5.12999 -5.09875 -5.06713 -5.03499 -5.00285 -4.97038 -4.93793 -4.905 -4.87165 -4.8383 -4.80463 -4.77082 -4.73657 -4.70218 -4.66763 -4.63276 -4.5974 -4.56196 -4.52653 -4.49088 -4.45928 -4.42737 -4.39547 -4.36358 -4.33342 -4.32836 -4.32331 -4.31826 -4.3132 -4.3081 -4.27043 -4.23273 -4.19505 -4.15737 -4.11924 -4.08067 -4.04183 -4.003 -3.96397 -3.92449 -3.88481 -3.84507 -3.80512 -3.76455 -3.72395 -3.68314 -3.64235 -3.60108 -3.5594 -3.51771 -3.47582 -3.43374 -3.39125 -3.34866 -3.30591 -3.26294 -3.2194 -3.17585 -3.13231 -3.08865 -3.06881 -3.04879 -3.02877 -3.00875 -2.98926 -2.96465 -2.94004 -2.91543 -2.89082 -2.86596 -2.8206 -2.77511 -2.72964 -2.68412 -2.63801 -2.59178 -2.54546 -2.49903 -2.45211 -2.40507 -2.35789 -2.31073 -2.26318 -2.21525 -2.1673 -2.11923 -2.071 -2.02238 -1.97371 -1.92491 -1.87594 -1.82648 -1.77702 -1.72757 -1.67807 -1.66765 -1.65715 -1.64665 -1.63615 -1.62578 -1.58603 -1.5463 -1.50657 -1.46684 -1.42676 -1.37592 -1.32497 -1.27402 -1.22288 -1.17139 -1.11983 -1.06828 -1.01654 -0.964399 -0.912231 -0.859992 -0.807759 -0.755072 -0.702318 -0.649509 -0.596626 -0.543384 -0.490082 -0.436789 -0.383429 -0.363944 -0.344338 -0.324734 -0.305131 -0.285901 -0.251568 -0.217239 -0.182914 -0.148593 -0.114021 -0.0596818 -0.00531714 0.0490374 0.103533 0.158299 0.213108 0.267905 0.322788 0.377917 0.433083 0.488298 0.543544 0.599046 0.654536 0.71006 0.765651 0.821492 0.877323 0.933145 0.989002 0.991801 0.99461 0.99742 1.00023 1.00303 1.05639 1.10973 1.16307 1.2164 1.27 1.32644 1.38284 1.43922 1.49577 1.55241 1.60906 1.66569 1.72244 1.77917 1.83595 1.89274 1.94961 2.00652 2.06342 2.12031 2.14112 2.16196 2.1828 2.20363 2.22412 2.26038 2.29663 2.33288 2.36912 2.40547 2.46264 2.5197 2.57674 2.63383 2.691 2.74814 2.80528 2.86237 2.91939 2.97646 3.03352 3.09056 3.14759 3.20461 3.26158 3.28318 3.30476 3.32634 3.34792 3.36915 3.40459 3.44002 3.47545 3.51087 3.5463 3.60325 3.66003 3.71679 3.7735 3.83023 3.88692 3.9436 4.00016 4.05652 4.11293 4.16931 4.22556 4.28176 4.33795 4.39414 4.40244 4.41071 4.41898 4.42725 4.43548 4.4832 4.53092 4.57863 4.62633 4.67393 4.72973 4.78544 4.841 4.89635 4.95175 5.00708 5.06238 5.11745 5.1724 5.22727 5.26692 5.30638 5.34581 5.38524 5.42378 5.43912 5.45446 5.46979 5.48512 5.50039 5.55471 5.60889 5.66307 5.71713 5.77106 5.82488 5.87869 5.93221 5.98545 6.03872 6.09188 6.1448 6.1976 6.25039 6.30315 6.31041 6.31762 6.32482 6.33203 6.33921 6.38435 6.42949 6.47463 6.51972 6.56458 6.61647 6.66831 6.71989 6.77114 6.82243 6.87355 6.92454 6.97525 7.02595 7.07641 7.09874 7.1209 7.14302 7.16515 7.18714 7.21511 7.24308 7.27104 7.29896 7.32668 7.37632 7.42577 7.47513 7.52406 7.57296 7.62173 7.67044 7.71869 7.76686 7.81484 7.84042 7.86578 7.89107 7.91636 7.94162 7.96385 7.98607 8.00829 8.03046 8.05244 8.0995 8.14631 8.19307 8.2394 8.28563 8.33172 8.37778 8.42331 8.46874 8.51397 8.53854 8.56289 8.58715 8.61141 8.63583 8.65625 8.67667 8.69709 8.71745 8.73762 8.78183 8.82579 8.86971 8.91317 8.9565 8.99967 9.0428 9.0854 9.1279 9.17017 9.19309 9.21576 9.23836 9.26095 9.28389 9.30295 9.322 9.34106 9.36005 9.37884 9.42001 9.46092 9.5018 9.54222 9.58249 9.62257 9.66263 9.70213 9.74151 9.78068 9.80432 9.82768 9.85096 9.87425 9.89818 9.91332 9.92847 9.94361 9.95871 9.97363 10.0116 10.0493 10.087 10.1243 10.1614 10.1983 10.2351 10.2715 10.3076 10.3436 10.3729 10.4018 10.4307 10.4596 10.49 10.496 10.5021 10.5082 10.5142 10.5202 10.5547 10.5891 10.6236 10.6578 10.6917 10.7252 10.7588 10.792 10.8247 10.8574 10.8899 10.922 10.9539 10.9858 11.0175 11.0279 11.0381 11.0484 11.0586 11.0691 11.0898 11.1106 11.1313 11.1519 11.1723 11.2026 11.2326 11.2626 11.2923 11.3218 11.3509 11.3801 11.4089 11.4373 11.4656 11.4936 11.5214 11.5491 11.5768 11.6042 11.6144 11.6243 11.6342 11.6441 11.6546 11.671 11.6875 11.7039 11.7204 11.7365 11.7621 11.788 11.8139 11.8403 11.8673 11.8938 11.9203 11.941 11.9566 11.9722 11.987 12.0018 12.0275 12.0608 12.0949 12.1283 12.1467 12.1608 12.1749 12.1884 12.1885 12.1887 12.189 12.1893 12.1896 12.196 12.2023 12.2086 12.2158 12.2272 12.2381 12.249 12.259 12.2684 12.2776 12.286 12.2935 12.2997 12.3058 12.3106 12.3124 12.3135 12.3145 12.3155 12.3165 12.318 12.3195 12.3209 12.3223 12.3231 12.323 12.3218 12.3205 12.3183 12.3153 12.3107 12.3059 12.2995 12.2914 12.2832 12.2731 12.2619 12.2496 12.2372 12.2232 12.2132 12.2018 12.1904 12.1789 12.1658 12.1592 12.1527 12.1461 12.1395 12.1322 12.1087 12.084 12.0593 12.034 12.0065 11.9761 11.9451 11.9121 11.8761 11.8401 11.8008 11.7615 11.7191 11.6734 11.6277 11.5783 11.5265 11.4732 11.4197 11.3633 11.3074 11.2486 11.1898 11.1309 11.0565 11.0534 11.0503 11.0472 11.0441 11.0409 10.9645 10.888 10.8113 10.7345 10.6543 10.5672 10.4759 10.3845 10.2914 10.1947 10.0923 9.9885 9.88033 9.76583 9.65074 9.52948 9.40816 9.28135 9.14925 9.01703 8.87813 8.73881 8.58816 8.42946 8.26907 8.10105 7.93199 7.76204 7.59166 7.41983 7.24008 7.02986 6.81967 6.60953 6.38241 6.14967 5.93327 5.71682 5.50033 5.28754 5.20887 5.11409 5.01935 4.92466 4.81849 4.60495 4.39118 4.17718 3.96296 3.71588 3.39648 3.13698 2.87673 2.61575 2.49384 2.37878 1.94335 1.51308 0.94343 0