/*--------------------------------*- C++ -*----------------------------------*\
  =========                 |
  \\      /  F ield         | OpenFOAM: The Open Source CFD Toolbox
   \\    /   O peration     | Website:  https://openfoam.org
    \\  /    A nd           | Version:  7
     \\/     M anipulation  |
\*---------------------------------------------------------------------------*/
FoamFile
{
    version     2.0;
    format      ascii;
    class       volScalarField;
    location    "0.32";
    object      p;
}
// * * * * * * * * * * * * * * * * * * * * * * * * * * * * * * * * * * * * * //

dimensions      [0 2 -2 0 0 0 0];

internalField   nonuniform List<scalar> 
22500
(
3.02139520421e-05
3.02108397383e-05
3.02089593946e-05
3.02067342505e-05
3.02048866344e-05
3.02034589158e-05
3.02025713044e-05
3.020227642e-05
3.02026073759e-05
3.02035298851e-05
3.02049915984e-05
3.02068693071e-05
3.02091225366e-05
3.02110173666e-05
3.02141536592e-05
3.01832644904e-05
3.01786349367e-05
3.01754457162e-05
3.01720660049e-05
3.01692706975e-05
3.01671396319e-05
3.0165820303e-05
3.01653814216e-05
3.01658581039e-05
3.01672141527e-05
3.01693807566e-05
3.01722081974e-05
3.01756165972e-05
3.01788210743e-05
3.01834742856e-05
3.01542459619e-05
3.01482735257e-05
3.01440147379e-05
3.01396657451e-05
3.01360883454e-05
3.0133377194e-05
3.01317023397e-05
3.01311437934e-05
3.01317387579e-05
3.01334489783e-05
3.01361941514e-05
3.01398026754e-05
3.01441793682e-05
3.01484536847e-05
3.01544524235e-05
3.01287294775e-05
3.01216894521e-05
3.01166193327e-05
3.01115538748e-05
3.0107402586e-05
3.01042708612e-05
3.01023395351e-05
3.010169458e-05
3.01023738754e-05
3.01043385568e-05
3.01075021579e-05
3.01116826444e-05
3.01167745558e-05
3.01218598481e-05
3.01289290308e-05
3.0105316223e-05
3.00973991563e-05
3.00916748727e-05
3.00860622619e-05
3.00814740136e-05
3.00780276228e-05
3.00759059018e-05
3.00751971956e-05
3.00759385027e-05
3.00780918369e-05
3.00815683292e-05
3.00861840351e-05
3.0091821656e-05
3.00975603009e-05
3.01055077792e-05
3.00836170431e-05
3.00750021179e-05
3.00687597176e-05
3.00627445639e-05
3.00578360987e-05
3.0054164399e-05
3.00519078725e-05
3.00511542843e-05
3.0051938945e-05
3.0054225594e-05
3.00579257954e-05
3.00628601531e-05
3.00688984732e-05
3.0075154838e-05
3.00838012583e-05
3.00636472977e-05
3.00545124684e-05
3.00478770633e-05
3.00415908018e-05
3.00364676496e-05
3.00326504319e-05
3.00303084665e-05
3.0029526762e-05
3.00303383433e-05
3.00327092063e-05
3.00365536117e-05
3.00417012886e-05
3.00480090207e-05
3.00546575234e-05
3.00638251499e-05
3.00453664923e-05
3.00358749449e-05
3.00289552603e-05
3.00225102033e-05
3.0017262652e-05
3.00133672917e-05
3.00109814306e-05
3.00101857049e-05
3.00110104213e-05
3.00134242225e-05
3.00173457629e-05
3.00226166911e-05
3.00290816807e-05
3.00360138655e-05
3.00455395689e-05
3.00286747711e-05
3.00189697949e-05
3.00118588495e-05
3.00053496928e-05
3.0000054715e-05
2.99961378096e-05
2.99937429777e-05
2.99929450742e-05
2.99937714321e-05
2.9996193616e-05
3.00001360069e-05
3.00054536199e-05
3.00119814472e-05
3.00191046961e-05
3.00288450154e-05
3.00134552999e-05
3.00036596018e-05
2.99964401256e-05
2.9989949374e-05
2.99846751556e-05
2.99807864866e-05
2.99784133336e-05
2.99776236619e-05
2.99784416174e-05
2.99808419096e-05
2.99847557816e-05
2.99900522548e-05
2.99965609303e-05
3.00037929316e-05
3.00136257398e-05
2.99995806105e-05
2.99897955651e-05
2.99825474302e-05
2.99761516728e-05
2.99709628761e-05
2.99671493589e-05
2.99648268595e-05
2.99640552306e-05
2.9964855342e-05
2.99672051521e-05
2.99710440317e-05
2.99762552289e-05
2.99826687106e-05
2.99899301658e-05
2.9999754597e-05
2.99868920486e-05
2.99772098364e-05
2.99700235132e-05
2.99638008492e-05
2.99587630143e-05
2.99550724129e-05
2.99528299467e-05
2.99520865005e-05
2.99528589498e-05
2.99551293468e-05
2.99588459325e-05
2.99639069008e-05
2.99701478093e-05
2.99773488448e-05
2.99870730255e-05
2.99751382656e-05
2.99657020014e-05
2.9958704458e-05
2.99527421404e-05
2.99479261773e-05
2.99444107145e-05
2.99422811777e-05
2.99415767107e-05
2.99423110407e-05
2.99444693257e-05
2.99480119386e-05
2.99528524276e-05
2.9958834457e-05
2.99658488384e-05
2.99753298249e-05
2.99640165158e-05
2.99550351443e-05
2.99483744403e-05
2.99427791523e-05
2.99382745125e-05
2.99350046231e-05
2.99330315513e-05
2.99323816357e-05
2.9933062281e-05
2.99350651664e-05
2.99383636668e-05
2.99428949887e-05
2.99485125184e-05
2.99551936638e-05
2.99642204512e-05
2.99539353229e-05
2.99447248745e-05
2.99386062685e-05
2.99334897444e-05
2.99294241891e-05
2.99265047204e-05
2.99247546858e-05
2.99241808334e-05
2.99247862259e-05
2.99265669705e-05
2.99295164363e-05
2.99336112186e-05
2.99387549368e-05
2.99448997913e-05
2.99541488226e-05
2.57769849913e-05
2.57775193031e-05
2.57777542313e-05
2.57779477812e-05
2.57781163746e-05
2.57782532685e-05
2.57783438461e-05
2.57783729677e-05
2.57783350832e-05
2.57782372965e-05
2.57780968532e-05
2.57779300315e-05
2.57777392777e-05
2.57775091041e-05
2.5776981933e-05
2.5779659454e-05
2.57803309814e-05
2.57807141823e-05
2.57810442951e-05
2.5781324559e-05
2.57815432439e-05
2.57816838467e-05
2.57817299779e-05
2.57816750903e-05
2.578152733e-05
2.57813051626e-05
2.57810268486e-05
2.5780701021e-05
2.57803220491e-05
2.5779658159e-05
2.57826972218e-05
2.57836260529e-05
2.57842418461e-05
2.57847973429e-05
2.57852699451e-05
2.57856352672e-05
2.57858679757e-05
2.57859458616e-05
2.57858599844e-05
2.57856207423e-05
2.57852521021e-05
2.57847808298e-05
2.57842297299e-05
2.5783616824e-05
2.57826963577e-05
2.5786656981e-05
2.578802632e-05
2.57890146662e-05
2.57899244497e-05
2.57907019493e-05
2.57913013007e-05
2.57916815375e-05
2.57918101777e-05
2.57916744454e-05
2.5791288392e-05
2.57906858663e-05
2.57899089607e-05
2.57890030404e-05
2.57880167803e-05
2.57866564156e-05
2.57918646089e-05
2.57938392713e-05
2.57953194387e-05
2.57966880178e-05
2.57978579501e-05
2.57987570067e-05
2.57993254217e-05
2.57995185268e-05
2.57993191486e-05
2.57987456141e-05
2.57978436247e-05
2.57966739344e-05
2.57953085665e-05
2.57938299169e-05
2.57918647954e-05
2.57982678749e-05
2.58009583272e-05
2.58029975828e-05
2.58048793103e-05
2.5806483714e-05
2.58077124106e-05
2.58084867573e-05
2.58087502221e-05
2.5808481356e-05
2.58077026456e-05
2.58064714128e-05
2.58048670704e-05
2.5802988147e-05
2.58009493056e-05
2.57982698422e-05
2.58056652599e-05
2.58091188278e-05
2.58117340086e-05
2.58141337762e-05
2.58161720417e-05
2.58177273341e-05
2.58187045467e-05
2.58190370956e-05
2.58186999996e-05
2.5817719179e-05
2.58161618509e-05
2.58141236898e-05
2.58117265458e-05
2.58091109011e-05
2.58056694771e-05
2.58138093394e-05
2.58180146988e-05
2.58211793788e-05
2.5824061063e-05
2.582649831e-05
2.58283512004e-05
2.58295120415e-05
2.58299069163e-05
2.58295083336e-05
2.58283446585e-05
2.58264902772e-05
2.58240533445e-05
2.58211740536e-05
2.58180084489e-05
2.58138158321e-05
2.58224428388e-05
2.58273384121e-05
2.58309925418e-05
2.58342904998e-05
2.58370676525e-05
2.58391711898e-05
2.58404853078e-05
2.58409319575e-05
2.58404823279e-05
2.58391660728e-05
2.58370615936e-05
2.58342851054e-05
2.58309894801e-05
2.58273341293e-05
2.58224522817e-05
2.58313195093e-05
2.58368029224e-05
2.5840863259e-05
2.58444937095e-05
2.58475375623e-05
2.58498346164e-05
2.58512654475e-05
2.58517512114e-05
2.58512630452e-05
2.5849830647e-05
2.58475331556e-05
2.58444903483e-05
2.58408622663e-05
2.58368006489e-05
2.58313318436e-05
2.58402136825e-05
2.58461529014e-05
2.58505233387e-05
2.58543959311e-05
2.58576286011e-05
2.58600585631e-05
2.5861567408e-05
2.58620788441e-05
2.58615653414e-05
2.58600552846e-05
2.58576252751e-05
2.58543940891e-05
2.58505240685e-05
2.58461525837e-05
2.58402292619e-05
2.58489195688e-05
2.58551650413e-05
2.58597487531e-05
2.58637785823e-05
2.58671260148e-05
2.58696305374e-05
2.58711797629e-05
2.58717037999e-05
2.5871177698e-05
2.58696273364e-05
2.58671229313e-05
2.58637773749e-05
2.58597504634e-05
2.58551663909e-05
2.58489382403e-05
2.58572396723e-05
2.58636474902e-05
2.58683658035e-05
2.58724840822e-05
2.58758812403e-05
2.5878406792e-05
2.58799613165e-05
2.58804855736e-05
2.58799588433e-05
2.58784027819e-05
2.58758772603e-05
2.58724821616e-05
2.58683673204e-05
2.58636495253e-05
2.58572603401e-05
2.58650484456e-05
2.58715308169e-05
2.58763138136e-05
2.58804538398e-05
2.58838282188e-05
2.5886313198e-05
2.5887832846e-05
2.58883432962e-05
2.58878295004e-05
2.58863075681e-05
2.58838219701e-05
2.5880449664e-05
2.58763135546e-05
2.58715330087e-05
2.58650689245e-05
2.58727797632e-05
2.58789231764e-05
2.58836561219e-05
2.58877069709e-05
2.58909394908e-05
2.58932898918e-05
2.58947159224e-05
2.58951927266e-05
2.589471179e-05
2.58932825973e-05
2.58909308794e-05
2.58877000137e-05
2.58836541692e-05
2.58789269294e-05
2.587279864e-05
2.60108366022e-05
2.60104551699e-05
2.6009944939e-05
2.60094019077e-05
2.60088975203e-05
2.60084994265e-05
2.60082468106e-05
2.60081610694e-05
2.60082494661e-05
2.60085036907e-05
2.60089012754e-05
2.60094035729e-05
2.60099494499e-05
2.60104581279e-05
2.60108452004e-05
2.6010639387e-05
2.60102663825e-05
2.60097659517e-05
2.60092302074e-05
2.60087307047e-05
2.60083346358e-05
2.60080824574e-05
2.60079968025e-05
2.60080856265e-05
2.60083399064e-05
2.6008735884e-05
2.60092336632e-05
2.60097715252e-05
2.60102715744e-05
2.60106499542e-05
2.60107065697e-05
2.60103571479e-05
2.60098812773e-05
2.60093666412e-05
2.60088836467e-05
2.60084985243e-05
2.60082522326e-05
2.60081684112e-05
2.60082555261e-05
2.60085041695e-05
2.60088897539e-05
2.60093717068e-05
2.6009888019e-05
2.60103637315e-05
2.60107187816e-05
2.60107144608e-05
2.60103771039e-05
2.60099144663e-05
2.60094135483e-05
2.60089420453e-05
2.60085650553e-05
2.6008323268e-05
2.60082408283e-05
2.60083264911e-05
2.60085707458e-05
2.60089487535e-05
2.60094198921e-05
2.60099222086e-05
2.60103842485e-05
2.60107285606e-05
2.60106288754e-05
2.60102986839e-05
2.60098454407e-05
2.60093579983e-05
2.60088991709e-05
2.60085322019e-05
2.60082966694e-05
2.60082163115e-05
2.60082997822e-05
2.60085377987e-05
2.60089060861e-05
2.60093650525e-05
2.60098539593e-05
2.60103061989e-05
2.6010644844e-05
2.60105115055e-05
2.60101930827e-05
2.60097551617e-05
2.60092888281e-05
2.60088509125e-05
2.60085011926e-05
2.6008276826e-05
2.60082002712e-05
2.60082797417e-05
2.60085065317e-05
2.60088578077e-05
2.60092962891e-05
2.60097641328e-05
2.60102011864e-05
2.60105289677e-05
2.60104101509e-05
2.60101139418e-05
2.60097008916e-05
2.60092664361e-05
2.60088599648e-05
2.60085361575e-05
2.60083287103e-05
2.60082579579e-05
2.60083313769e-05
2.60085411086e-05
2.60088665812e-05
2.60092739731e-05
2.60097100503e-05
2.60101224896e-05
2.60104293023e-05
2.60103544681e-05
2.60100915164e-05
2.60097129984e-05
2.60093206309e-05
2.6008955383e-05
2.60086654115e-05
2.60084800502e-05
2.60084168854e-05
2.60084824206e-05
2.60086698911e-05
2.60089616056e-05
2.60093281324e-05
2.60097223273e-05
2.601010048e-05
2.60103754972e-05
2.60103617878e-05
2.60101403089e-05
2.60098040133e-05
2.60094613397e-05
2.60091445683e-05
2.60088942744e-05
2.60087347957e-05
2.60086805298e-05
2.60087368422e-05
2.60088982288e-05
2.60091502813e-05
2.60094686449e-05
2.60098134574e-05
2.60101497361e-05
2.60103846353e-05
2.60104377696e-05
2.60102610648e-05
2.60099713403e-05
2.60096824588e-05
2.60094183363e-05
2.60092111072e-05
2.6009079672e-05
2.60090350524e-05
2.60090813968e-05
2.60092145296e-05
2.60094235335e-05
2.60096895566e-05
2.60099809107e-05
2.60102711208e-05
2.60104623751e-05
2.60105771277e-05
2.6010442388e-05
2.60101998761e-05
2.60099657022e-05
2.60097555141e-05
2.60095923944e-05
2.60094896771e-05
2.600945491e-05
2.60094910791e-05
2.60095952771e-05
2.60097601489e-05
2.60099725184e-05
2.60102094864e-05
2.60104530715e-05
2.60106034091e-05
2.60107642521e-05
2.60106620396e-05
2.6010464474e-05
2.60102840609e-05
2.60101272398e-05
2.60100078101e-05
2.60099333962e-05
2.60099083708e-05
2.6009934466e-05
2.60100101459e-05
2.60101312875e-05
2.60102904887e-05
2.60104740034e-05
2.60106731756e-05
2.601079181e-05
2.60109737185e-05
2.6010889591e-05
2.60107346401e-05
2.60106070199e-05
2.60105023232e-05
2.60104250658e-05
2.60103779066e-05
2.60103621106e-05
2.60103786342e-05
2.60104268079e-05
2.60105056284e-05
2.60106128468e-05
2.60107437742e-05
2.60109009022e-05
2.60110020372e-05
2.60111625967e-05
2.60110903659e-05
2.60109829628e-05
2.60109094635e-05
2.60108547545e-05
2.60108166591e-05
2.60107940484e-05
2.60107866538e-05
2.60107944821e-05
2.60108177716e-05
2.60108573003e-05
2.60109144515e-05
2.60109914031e-05
2.60111016294e-05
2.6011190478e-05
2.60112485315e-05
2.60112133081e-05
2.60111763543e-05
2.60111654096e-05
2.60111606496e-05
2.60111585645e-05
2.60111577916e-05
2.60111577093e-05
2.60111583323e-05
2.60111599618e-05
2.60111635096e-05
2.60111709049e-05
2.6011185715e-05
2.60112264366e-05
2.60112750709e-05
2.35758707849e-05
2.35760506549e-05
2.35762804251e-05
2.35765210629e-05
2.35767399358e-05
2.35769108854e-05
2.35770179016e-05
2.35770508354e-05
2.35770062188e-05
2.35768885637e-05
2.35767091461e-05
2.35764857622e-05
2.35762427328e-05
2.35760138692e-05
2.35758297551e-05
2.35758007081e-05
2.35759720546e-05
2.357619449e-05
2.35764309374e-05
2.3576647105e-05
2.35768169408e-05
2.35769235932e-05
2.35769563921e-05
2.35769115524e-05
2.35767939414e-05
2.35766154512e-05
2.35763946836e-05
2.35761566569e-05
2.35759350212e-05
2.35757615466e-05
2.35755439549e-05
2.35756932506e-05
2.35758938597e-05
2.35761134345e-05
2.35763167024e-05
2.3576478258e-05
2.35765803802e-05
2.35766119217e-05
2.35765688087e-05
2.35764561553e-05
2.35762862573e-05
2.35760781959e-05
2.35758571185e-05
2.35756562108e-05
2.35755059965e-05
2.35753047356e-05
2.35754357135e-05
2.35756181508e-05
2.35758221588e-05
2.35760134233e-05
2.35761670058e-05
2.35762646905e-05
2.35762950128e-05
2.35762537169e-05
2.35761460569e-05
2.35759845385e-05
2.35757884201e-05
2.35755826036e-05
2.35753992239e-05
2.3575267815e-05
2.35751048336e-05
2.35752205386e-05
2.35753877837e-05
2.35755772781e-05
2.35757568916e-05
2.35759021851e-05
2.35759950852e-05
2.35760239653e-05
2.35759845572e-05
2.35758820994e-05
2.35757291038e-05
2.3575544629e-05
2.35753529518e-05
2.35751845222e-05
2.35750689086e-05
2.35749209668e-05
2.35750224122e-05
2.35751745735e-05
2.35753494513e-05
2.35755166314e-05
2.3575652825e-05
2.3575740247e-05
2.35757674427e-05
2.35757301424e-05
2.35756335414e-05
2.35754899192e-05
2.35753178443e-05
2.35751406274e-05
2.35749865909e-05
2.35748865518e-05
2.35747419759e-05
2.35748286545e-05
2.35749662215e-05
2.3575126298e-05
2.35752804832e-05
2.35754068828e-05
2.35754882835e-05
2.35755135642e-05
2.35754785304e-05
2.35753882496e-05
2.35752546147e-05
2.35750954809e-05
2.35749329723e-05
2.35747930496e-05
2.35747088802e-05
2.35745642962e-05
2.357463585e-05
2.35747596834e-05
2.35749050861e-05
2.35750462989e-05
2.35751626926e-05
2.35752378717e-05
2.35752611237e-05
2.35752284469e-05
2.35751446799e-05
2.35750212089e-05
2.35748750184e-05
2.35747269443e-05
2.35746005563e-05
2.35745321714e-05
2.35743860916e-05
2.35744433581e-05
2.35745544057e-05
2.35746858086e-05
2.3574814307e-05
2.35749206631e-05
2.35749894746e-05
2.35750106088e-05
2.357498032e-05
2.35749031507e-05
2.35747898265e-05
2.35746563069e-05
2.35745220291e-05
2.35744083078e-05
2.35743549992e-05
2.35742072834e-05
2.35742515568e-05
2.35743508186e-05
2.35744689119e-05
2.35745849036e-05
2.35746811686e-05
2.35747434357e-05
2.3574762374e-05
2.35747345282e-05
2.35746640949e-05
2.3574560957e-05
2.35744398597e-05
2.35743186884e-05
2.35742166493e-05
2.35741770014e-05
2.3574028245e-05
2.35740615424e-05
2.35741500931e-05
2.3574255379e-05
2.35743588783e-05
2.3574444723e-05
2.35745001392e-05
2.35745167191e-05
2.35744914455e-05
2.35744280285e-05
2.35743353591e-05
2.3574226705e-05
2.35741181577e-05
2.35740268675e-05
2.35739987476e-05
2.35738502753e-05
2.35738753047e-05
2.35739540139e-05
2.35740466536e-05
2.3574137247e-05
2.35742121619e-05
2.35742602106e-05
2.35742742802e-05
2.35742517309e-05
2.35741958145e-05
2.35741141408e-05
2.35740182836e-05
2.3573922242e-05
2.35738409119e-05
2.35738214997e-05
2.35736739402e-05
2.35736938487e-05
2.35737634968e-05
2.35738435761e-05
2.35739210805e-05
2.35739845348e-05
2.35740249493e-05
2.35740363054e-05
2.35740167143e-05
2.35739686199e-05
2.35738983971e-05
2.35738155889e-05
2.35737318919e-05
2.35736597697e-05
2.35736457731e-05
2.35734986743e-05
2.3573516921e-05
2.35735784418e-05
2.35736464145e-05
2.35737109107e-05
2.35737631116e-05
2.35737957692e-05
2.35738046026e-05
2.35737879685e-05
2.35737478497e-05
2.35736890961e-05
2.35736191611e-05
2.35735473453e-05
2.35734832841e-05
2.35734712716e-05
2.35733679517e-05
2.35733905361e-05
2.35734335989e-05
2.35734791383e-05
2.35735223451e-05
2.35735569629e-05
2.35735783502e-05
2.35735834907e-05
2.35735714308e-05
2.3573543434e-05
2.3573502746e-05
2.35734543918e-05
2.35734048284e-05
2.35733586288e-05
2.35733404264e-05
2.26605456148e-05
2.26604383937e-05
2.26603072993e-05
2.26601719273e-05
2.26600448316e-05
2.26599422504e-05
2.26598772283e-05
2.26598559375e-05
2.26598802582e-05
2.2659947266e-05
2.26600498737e-05
2.26601771127e-05
2.26603149771e-05
2.26604452466e-05
2.26605561282e-05
2.26604794746e-05
2.26603717934e-05
2.26602389671e-05
2.26600998527e-05
2.26599689579e-05
2.2659863327e-05
2.26597961711e-05
2.2659774101e-05
2.26597992534e-05
2.26598684778e-05
2.26599742989e-05
2.26601052161e-05
2.26602465254e-05
2.26603795235e-05
2.26604905358e-05
2.26605249333e-05
2.26604238196e-05
2.26602967075e-05
2.2660160526e-05
2.2660031806e-05
2.26599274912e-05
2.2659860798e-05
2.26598387431e-05
2.26598637211e-05
2.2659932481e-05
2.26600372518e-05
2.26601661048e-05
2.26603038877e-05
2.2660431496e-05
2.26605354552e-05
2.26605725191e-05
2.2660476187e-05
2.26603532212e-05
2.26602198011e-05
2.26600932156e-05
2.26599903423e-05
2.26599241654e-05
2.26599021114e-05
2.2659926822e-05
2.26599949873e-05
2.26600985928e-05
2.26602253795e-05
2.266035991e-05
2.26604831615e-05
2.26605824774e-05
2.2660600717e-05
2.26605068914e-05
2.26603863858e-05
2.2660255216e-05
2.26601304068e-05
2.2660028688e-05
2.26599629529e-05
2.26599408902e-05
2.26599653043e-05
2.26600328489e-05
2.26601353555e-05
2.26602603824e-05
2.26603923963e-05
2.26605128705e-05
2.26606100338e-05
2.26606170046e-05
2.26605238584e-05
2.26604057446e-05
2.26602769485e-05
2.26601542693e-05
2.26600541216e-05
2.26599891396e-05
2.2659967176e-05
2.26599911248e-05
2.26600576643e-05
2.26601585851e-05
2.26602814583e-05
2.2660410868e-05
2.26605290932e-05
2.2660625308e-05
2.26606253718e-05
2.26605327369e-05
2.26604171358e-05
2.26602913e-05
2.26601715183e-05
2.2660073619e-05
2.26600099171e-05
2.26599882446e-05
2.26600115061e-05
2.26600764541e-05
2.26601749966e-05
2.26602949258e-05
2.2660421172e-05
2.26605370689e-05
2.2660632831e-05
2.26606277686e-05
2.26605359125e-05
2.26604233006e-05
2.26603014577e-05
2.26601856729e-05
2.26600910058e-05
2.26600292816e-05
2.2660008151e-05
2.26600304587e-05
2.26600930968e-05
2.26601882527e-05
2.26603041621e-05
2.26604263399e-05
2.26605393728e-05
2.26606346483e-05
2.26606266424e-05
2.26605361721e-05
2.26604275167e-05
2.26603109443e-05
2.26602004141e-05
2.26601100849e-05
2.26600511366e-05
2.26600308389e-05
2.2660051913e-05
2.26601114449e-05
2.26602020665e-05
2.26603126748e-05
2.26604295886e-05
2.26605388006e-05
2.26606329513e-05
2.26606247089e-05
2.26605366371e-05
2.26604332518e-05
2.26603233019e-05
2.26602193722e-05
2.26601345664e-05
2.26600792008e-05
2.26600600552e-05
2.2660079618e-05
2.2660135256e-05
2.2660220182e-05
2.26603241514e-05
2.26604344832e-05
2.26605386161e-05
2.26606304679e-05
2.26606249395e-05
2.26605408329e-05
2.26604439933e-05
2.26603418069e-05
2.26602456456e-05
2.26601673516e-05
2.26601163186e-05
2.26600985861e-05
2.26601164272e-05
2.26601674722e-05
2.26602456948e-05
2.26603418567e-05
2.26604444213e-05
2.26605421916e-05
2.26606301165e-05
2.26606310697e-05
2.26605523964e-05
2.2660462751e-05
2.26603689324e-05
2.2660281167e-05
2.26602101459e-05
2.26601639226e-05
2.26601478705e-05
2.26601637987e-05
2.26602098174e-05
2.26602806536e-05
2.26603682974e-05
2.26604624764e-05
2.26605530591e-05
2.26606354493e-05
2.26606487616e-05
2.26605759148e-05
2.26604926268e-05
2.26604064022e-05
2.26603269389e-05
2.26602631054e-05
2.26602219879e-05
2.26602075992e-05
2.266022172e-05
2.26602625596e-05
2.26603260125e-05
2.2660405346e-05
2.26604917475e-05
2.26605759371e-05
2.26606523288e-05
2.26606827423e-05
2.26606125887e-05
2.26605335825e-05
2.26604537753e-05
2.26603818519e-05
2.26603253489e-05
2.26602891681e-05
2.26602767388e-05
2.26602889541e-05
2.26603247762e-05
2.26603810191e-05
2.26604525953e-05
2.2660532474e-05
2.26606120226e-05
2.26606855287e-05
2.26606766482e-05
2.26606264154e-05
2.26605597315e-05
2.26604945771e-05
2.26604376429e-05
2.26603936269e-05
2.26603659917e-05
2.26603565635e-05
2.26603660595e-05
2.26603937063e-05
2.26604375731e-05
2.26604943732e-05
2.26605593192e-05
2.26606260212e-05
2.26606786468e-05
2.08194054276e-05
2.08194828019e-05
2.08195870842e-05
2.08196973372e-05
2.08197986784e-05
2.08198782926e-05
2.08199280306e-05
2.0819943282e-05
2.08199227369e-05
2.08198685147e-05
2.08197860633e-05
2.0819684125e-05
2.08195746861e-05
2.08194737803e-05
2.08193943502e-05
2.08194199998e-05
2.08194960615e-05
2.08195981554e-05
2.08197072836e-05
2.08198078294e-05
2.08198870332e-05
2.0819936562e-05
2.08199516724e-05
2.08199309496e-05
2.08198766598e-05
2.08197944596e-05
2.08196933274e-05
2.08195853945e-05
2.08194864659e-05
2.08194097804e-05
2.08193707679e-05
2.08194405332e-05
2.08195350949e-05
2.08196386868e-05
2.08197349459e-05
2.08198114971e-05
2.08198596693e-05
2.08198744831e-05
2.08198543645e-05
2.08198016765e-05
2.08197222245e-05
2.08196251533e-05
2.08195226068e-05
2.08194301901e-05
2.08193604252e-05
2.08193221884e-05
2.08193864045e-05
2.08194750229e-05
2.08195735418e-05
2.08196660225e-05
2.08197401762e-05
2.08197871386e-05
2.08198017411e-05
2.08197822712e-05
2.08197311454e-05
2.08196542637e-05
2.08195608586e-05
2.08194630145e-05
2.08193759799e-05
2.08193115097e-05
2.08192841125e-05
2.08193438853e-05
2.0819427696e-05
2.08195214246e-05
2.08196101935e-05
2.08196817777e-05
2.08197273708e-05
2.08197416612e-05
2.08197228895e-05
2.08196734467e-05
2.08195992443e-05
2.08195094505e-05
2.08194159555e-05
2.08193334453e-05
2.08192731225e-05
2.08192491127e-05
2.0819304977e-05
2.0819383433e-05
2.08194720519e-05
2.08195564336e-05
2.08196247871e-05
2.08196684866e-05
2.08196822803e-05
2.08196643759e-05
2.0819617119e-05
2.08195462868e-05
2.08194608141e-05
2.08193722066e-05
2.08192944022e-05
2.08192382803e-05
2.08192131985e-05
2.08192643859e-05
2.08193369593e-05
2.08194195499e-05
2.08194984444e-05
2.08195625744e-05
2.08196036835e-05
2.08196167213e-05
2.08195999174e-05
2.08195555106e-05
2.08194890076e-05
2.08194089096e-05
2.08193261322e-05
2.08192536908e-05
2.08192023607e-05
2.08191742117e-05
2.08192196056e-05
2.08192856939e-05
2.08193611577e-05
2.08194334572e-05
2.08194923423e-05
2.08195301569e-05
2.08195421657e-05
2.08195267038e-05
2.08194858341e-05
2.08194246668e-05
2.08193510727e-05
2.0819275168e-05
2.0819208905e-05
2.08191631082e-05
2.08191303186e-05
2.08191694507e-05
2.08192283237e-05
2.08192956826e-05
2.08193603132e-05
2.0819412979e-05
2.08194468222e-05
2.08194575416e-05
2.08194436343e-05
2.08194069378e-05
2.08193520385e-05
2.0819286002e-05
2.08192179459e-05
2.08191586357e-05
2.08191190703e-05
2.08190809808e-05
2.08191134517e-05
2.08191645304e-05
2.08192230455e-05
2.08192791332e-05
2.08193248251e-05
2.08193541311e-05
2.08193633602e-05
2.08193511725e-05
2.08193191689e-05
2.08192712971e-05
2.08192136677e-05
2.08191542193e-05
2.08191024372e-05
2.08190694927e-05
2.08190261937e-05
2.08190521865e-05
2.0819095332e-05
2.08191445438e-05
2.08191915432e-05
2.08192296654e-05
2.08192540498e-05
2.08192616067e-05
2.08192512663e-05
2.08192243162e-05
2.0819184015e-05
2.08191353856e-05
2.08190850216e-05
2.08190410057e-05
2.08190145759e-05
2.08189672354e-05
2.08189875763e-05
2.08190229741e-05
2.08190627624e-05
2.08191002766e-05
2.08191305736e-05
2.08191497398e-05
2.08191555644e-05
2.08191471041e-05
2.08191254457e-05
2.08190930315e-05
2.08190537414e-05
2.08190126647e-05
2.08189762885e-05
2.08189555679e-05
2.08189059648e-05
2.0818922287e-05
2.08189505075e-05
2.0818980885e-05
2.08190090582e-05
2.08190313172e-05
2.0819045374e-05
2.08190493376e-05
2.0819042846e-05
2.081902646e-05
2.0819001993e-05
2.08189720898e-05
2.08189402311e-05
2.08189109969e-05
2.08188943362e-05
2.08188466603e-05
2.08188607785e-05
2.08188815552e-05
2.08189026529e-05
2.08189213623e-05
2.08189360932e-05
2.08189450036e-05
2.08189473677e-05
2.08189426554e-05
2.08189314088e-05
2.08189146718e-05
2.08188940563e-05
2.08188715003e-05
2.08188496087e-05
2.08188355121e-05
2.08188170641e-05
2.08188203632e-05
2.08188284975e-05
2.08188364038e-05
2.08188436436e-05
2.08188492499e-05
2.08188525634e-05
2.08188529603e-05
2.08188503284e-05
2.08188448871e-05
2.08188372199e-05
2.08188281902e-05
2.08188186354e-05
2.08188092787e-05
2.08188059259e-05
1.95330844361e-05
1.95330445009e-05
1.95329886461e-05
1.95329307772e-05
1.95328788166e-05
1.95328384702e-05
1.95328132108e-05
1.95328054982e-05
1.95328161736e-05
1.95328441587e-05
1.95328867738e-05
1.95329397058e-05
1.95329971902e-05
1.95330514225e-05
1.95330961547e-05
1.95330750115e-05
1.95330358301e-05
1.95329810909e-05
1.95329234241e-05
1.9532871359e-05
1.9532830727e-05
1.95328052389e-05
1.95327974387e-05
1.95328082345e-05
1.95328364804e-05
1.95328793378e-05
1.95329323322e-05
1.95329895206e-05
1.95330431235e-05
1.953308661e-05
1.95331062123e-05
1.95330702595e-05
1.95330196349e-05
1.95329647422e-05
1.95329146483e-05
1.95328751752e-05
1.95328502978e-05
1.95328426575e-05
1.95328531979e-05
1.95328807138e-05
1.95329222653e-05
1.95329732586e-05
1.95330276821e-05
1.95330777829e-05
1.953311733e-05
1.95331369992e-05
1.95331039572e-05
1.95330564064e-05
1.95330041207e-05
1.95329557621e-05
1.95329173137e-05
1.95328929822e-05
1.95328854673e-05
1.95328957278e-05
1.95329225098e-05
1.95329628082e-05
1.95330119599e-05
1.95330639423e-05
1.95331111456e-05
1.95331477417e-05
1.95331610157e-05
1.95331302414e-05
1.95330850573e-05
1.95330351274e-05
1.95329884309e-05
1.95329510631e-05
1.95329273208e-05
1.95329199395e-05
1.95329298788e-05
1.95329558764e-05
1.9532994898e-05
1.95330422852e-05
1.95330920759e-05
1.95331369152e-05
1.95331712148e-05
1.95331824746e-05
1.953315331e-05
1.95331107778e-05
1.95330633217e-05
1.95330185373e-05
1.95329825014e-05
1.9532959524e-05
1.95329523286e-05
1.95329618607e-05
1.95329868728e-05
1.95330243512e-05
1.95330697223e-05
1.95331171709e-05
1.95331596907e-05
1.95331918109e-05
1.95332032904e-05
1.95331761008e-05
1.95331363452e-05
1.95330915787e-05
1.95330491074e-05
1.95330147832e-05
1.95329928309e-05
1.95329859052e-05
1.95329949393e-05
1.95330187118e-05
1.95330543067e-05
1.9533097303e-05
1.95331421121e-05
1.9533182146e-05
1.95332119318e-05
1.95332243913e-05
1.95331996291e-05
1.95331627678e-05
1.95331210948e-05
1.95330813734e-05
1.95330491458e-05
1.95330284761e-05
1.95330219143e-05
1.95330303573e-05
1.95330526411e-05
1.95330859965e-05
1.95331262363e-05
1.95331680785e-05
1.95332054009e-05
1.95332326405e-05
1.95332467211e-05
1.95332245722e-05
1.95331907953e-05
1.95331525535e-05
1.95331159788e-05
1.95330862393e-05
1.95330671265e-05
1.95330610415e-05
1.95330688088e-05
1.95330893688e-05
1.95331201406e-05
1.95331572539e-05
1.95331958052e-05
1.95332301727e-05
1.95332546297e-05
1.95332706916e-05
1.9533251239e-05
1.95332207769e-05
1.95331862687e-05
1.95331532399e-05
1.95331263445e-05
1.9533109053e-05
1.95331035418e-05
1.95331105728e-05
1.95331291847e-05
1.95331570547e-05
1.95331906961e-05
1.95332256676e-05
1.95332568649e-05
1.95332783995e-05
1.95332965285e-05
1.95332797929e-05
1.95332527302e-05
1.95332221612e-05
1.95331929788e-05
1.95331692554e-05
1.9533154023e-05
1.95331491938e-05
1.95331554336e-05
1.95331718982e-05
1.95331965887e-05
1.95332264598e-05
1.9533257612e-05
1.9533285513e-05
1.95333041046e-05
1.95333242423e-05
1.95333099204e-05
1.95332861563e-05
1.95332596644e-05
1.95332345915e-05
1.95332142954e-05
1.95332013414e-05
1.95331972838e-05
1.95332026838e-05
1.95332168558e-05
1.95332381117e-05
1.95332639712e-05
1.95332911533e-05
1.95333157274e-05
1.95333316453e-05
1.95333537286e-05
1.95333411344e-05
1.95333204478e-05
1.9533298019e-05
1.95332771303e-05
1.95332604519e-05
1.95332498671e-05
1.95332466547e-05
1.95332512093e-05
1.95332629749e-05
1.95332806958e-05
1.95333024286e-05
1.95333256157e-05
1.95333470879e-05
1.95333609984e-05
1.95333840167e-05
1.95333722651e-05
1.95333545859e-05
1.9533336227e-05
1.95333196054e-05
1.9533306503e-05
1.95332983606e-05
1.95332959965e-05
1.95332997162e-05
1.9533309091e-05
1.95333232563e-05
1.95333408346e-05
1.95333600013e-05
1.95333784282e-05
1.95333912423e-05
1.95333992985e-05
1.95333925407e-05
1.95333808757e-05
1.95333691069e-05
1.95333586223e-05
1.95333504809e-05
1.95333455179e-05
1.95333442854e-05
1.95333468965e-05
1.95333531199e-05
1.95333623884e-05
1.95333739001e-05
1.95333865216e-05
1.95333989608e-05
1.9533406617e-05
1.79047245137e-05
1.79047536627e-05
1.79047902588e-05
1.79048259632e-05
1.79048574018e-05
1.79048815339e-05
1.79048965611e-05
1.79049009421e-05
1.79048941126e-05
1.79048766746e-05
1.79048502747e-05
1.79048175528e-05
1.79047820701e-05
1.790474864e-05
1.79047208219e-05
1.7904731823e-05
1.7904761512e-05
1.79047975324e-05
1.79048332519e-05
1.79048647609e-05
1.79048890395e-05
1.7904904172e-05
1.79049085461e-05
1.79049015725e-05
1.79048838925e-05
1.79048572399e-05
1.7904824366e-05
1.79047889434e-05
1.79047557995e-05
1.79047287465e-05
1.7904715393e-05
1.79047430706e-05
1.79047762978e-05
1.79048104401e-05
1.79048408599e-05
1.79048646016e-05
1.79048794555e-05
1.7904883778e-05
1.79048769394e-05
1.79048596352e-05
1.79048336668e-05
1.7904801874e-05
1.79047679927e-05
1.79047368611e-05
1.79047121378e-05
1.79046994952e-05
1.79047250366e-05
1.79047561604e-05
1.79047886629e-05
1.79048180891e-05
1.79048413369e-05
1.7904855955e-05
1.79048602577e-05
1.79048535865e-05
1.79048366754e-05
1.79048113747e-05
1.79047805853e-05
1.79047480682e-05
1.79047185884e-05
1.79046956037e-05
1.79046876248e-05
1.7904711464e-05
1.79047409286e-05