/*--------------------------------*- C++ -*----------------------------------*\
  =========                 |
  \\      /  F ield         | OpenFOAM: The Open Source CFD Toolbox
   \\    /   O peration     | Website:  https://openfoam.org
    \\  /    A nd           | Version:  7
     \\/     M anipulation  |
\*---------------------------------------------------------------------------*/
FoamFile
{
    version     2.0;
    format      ascii;
    class       volVectorField;
    location    "0.32";
    object      U;
}
// * * * * * * * * * * * * * * * * * * * * * * * * * * * * * * * * * * * * * //

dimensions      [0 1 -1 0 0 0 0];

internalField   nonuniform List<vector> 
22500
(
(1.43017705536e-05 1.56921921613e-05 0.000239473114263)
(1.36168136688e-05 1.74970769926e-05 0.00025205764494)
(1.21680205697e-05 1.94632715199e-05 0.000263798465553)
(1.03944806137e-05 2.12242176556e-05 0.000274017277935)
(8.18092296391e-06 2.27360083796e-05 0.000282317526367)
(5.6455989842e-06 2.38888140059e-05 0.000288426705447)
(2.87539731041e-06 2.46106460824e-05 0.000292166614597)
(-1.74284479903e-08 2.48559620784e-05 0.000293431784815)
(-2.90964986072e-06 2.46085172895e-05 0.000292166230576)
(-5.67819793686e-06 2.38848179841e-05 0.000288425949406)
(-8.21069437155e-06 2.2730806798e-05 0.000282316401947)
(-1.04203341117e-05 2.1218461554e-05 0.00027401576283)
(-1.21884009233e-05 1.94583082668e-05 0.000263795850395)
(-1.3632078911e-05 1.74925312335e-05 0.000252048539758)
(-1.43098616084e-05 1.56886817601e-05 0.000239429576153)
(4.10897864754e-05 4.52863006068e-05 0.000617051654086)
(3.89241981991e-05 5.04473791772e-05 0.000644729610131)
(3.4806741001e-05 5.59540825075e-05 0.00067046312123)
(2.96600219596e-05 6.08988310865e-05 0.000692727995277)
(2.33249252247e-05 6.51294434501e-05 0.000710691785924)
(1.60829400544e-05 6.83502404128e-05 0.000723838443075)
(8.18818217532e-06 7.03661140487e-05 0.000731854037332)
(-4.67167616147e-08 7.10512916453e-05 0.000734556809867)
(-8.28011227888e-06 7.03618086326e-05 0.000731852554672)
(-1.6170596309e-05 6.83422533134e-05 0.000723835698035)
(-2.34054145386e-05 6.51192000645e-05 0.000710687947969)
(-2.97304205062e-05 6.08877762616e-05 0.000692723169323)
(-3.48636120883e-05 5.59448517745e-05 0.000670455428333)
(-3.89676232462e-05 5.04389357012e-05 0.000644703640901)
(-4.11140992704e-05 4.52798873488e-05 0.000616944912137)
(6.06721603052e-05 6.68371791552e-05 0.000912719185663)
(5.71364002219e-05 7.40144450807e-05 0.000948711061271)
(5.09622621523e-05 8.16176133541e-05 0.000982096353486)
(4.32924530212e-05 8.84277281657e-05 0.00101085645505)
(3.3973816463e-05 9.42356151189e-05 0.00103394053955)
(2.33872539509e-05 9.86480181563e-05 0.00105075773065)
(1.18941722311e-05 0.000101406326591 0.00106097723309)
(-6.9900348534e-08 0.000102343507697 0.00106441461686)
(-1.20319035578e-05 0.000101401310317 0.0010609752677)
(-2.35190313317e-05 9.86388643902e-05 0.00105075433195)
(-3.40956909174e-05 9.42241657779e-05 0.00103393617552)
(-4.34004097728e-05 8.84159476205e-05 0.00101085151294)
(-5.1051663568e-05 8.16083312125e-05 0.000982088682279)
(-5.7206661011e-05 7.40059284811e-05 0.000948679858023)
(-6.07141594922e-05 6.6830154112e-05 0.000912578691465)
(7.4895205014e-05 8.24113914769e-05 0.00114508198377)
(7.01425707512e-05 9.06573608573e-05 0.00118486225606)
(6.23771878208e-05 9.93770620799e-05 0.00122169350309)
(5.28276814078e-05 0.000107150815801 0.00125330650454)
(4.13658121694e-05 0.000113761257155 0.00127856220008)
(2.84282297543e-05 0.000118771696994 0.00129688315132)
(1.44416508644e-05 0.000121899398811 0.0013079813075)
(-8.84213129943e-08 0.000122961313225 0.00131170634795)
(-1.46159781304e-05 0.000121893921744 0.0013079800227)
(-2.85952631711e-05 0.000118761788507 0.00129688152818)
(-4.15207905149e-05 0.000113748958505 0.00127856115124)
(-5.29659239793e-05 0.000107138435696 0.00125330697309)
(-6.24934695843e-05 9.93674523303e-05 0.00122169413169)
(-7.02359307686e-05 9.06484116409e-05 0.00118484148738)
(-7.49544223549e-05 8.24036671166e-05 0.00114494507315)
(8.49834007906e-05 9.34156176412e-05 0.00132753901625)
(7.91831905356e-05 0.000102053068909 0.00136805489131)
(7.01984798726e-05 0.000111203455526 0.0014055343892)
(5.92767191527e-05 0.000119320787598 0.00143761168437)
(4.63168322356e-05 0.000126204163014 0.00146313199012)
(3.17795864279e-05 0.000131409905946 0.00148157065545)
(1.61267173405e-05 0.000134654841262 0.00149270621777)
(-1.02755183689e-07 0.000135755590787 0.00149643686128)
(-1.63293805499e-05 0.000134648822845 0.00149270645595)
(-3.19739736277e-05 0.000131399012832 0.00148157259758)
(-4.64976282306e-05 0.000126190520315 0.0014631372131)
(-5.94388786624e-05 0.000119306890752 0.00143762214756)
(-7.03367301008e-05 0.000111192268287 0.00140555064925)
(-7.92963763454e-05 0.000102042212334 0.00136805734559)
(-8.50592303043e-05 9.3405902166e-05 0.00132743183193)
(9.16486406869e-05 0.000100636501278 0.00147017916858)
(8.49736587527e-05 0.000109143502469 0.00150940111006)
(7.50894599059e-05 0.000118203622083 0.00154571488949)
(6.32226846898e-05 0.000126203469373 0.00157674291208)
(4.92962868067e-05 0.00013296903018 0.00160134507265)
(3.37706379527e-05 0.000138075239311 0.00161905654993)
(1.711877738e-05 0.000141253658686 0.00162972287817)
(-1.13978069569e-07 0.000142330808569 0.00163329055385)
(-1.73436609019e-05 0.000141246947177 0.00162972513809)
(-3.39865771281e-05 0.000138063006832 0.00161906313882)
(-4.94976303385e-05 0.00013295341406 0.0016013584808)
(-6.34042276949e-05 0.00012618705784 0.00157676663407)
(-7.5246234572e-05 0.000118189437512 0.0015457523142)
(-8.51045071684e-05 0.000109129116898 0.00150943552651)
(-9.17404162551e-05 0.000100623080855 0.0014701148354)
(9.54601099571e-05 0.000104692065456 0.00158080466645)
(8.80820711087e-05 0.000112675791028 0.00161743714493)
(7.75783508913e-05 0.000121255304665 0.0016514782955)
(6.51280333909e-05 0.000128799740031 0.00168057200978)
(5.06751791496e-05 0.000135163899191 0.00170359132471)
(3.4660867341e-05 0.000139958377437 0.00172011630013)
(1.75509501205e-05 0.000142938733322 0.00173004442156)
(-1.23160522536e-07 0.000143947647048 0.00173336084409)
(-1.77940483908e-05 0.000142931052123 0.00173004886141)
(-3.48945923968e-05 0.000139944226344 0.00172012791835)
(-5.08936971596e-05 0.000135145374237 0.00170361377261)
(-6.53261176889e-05 0.000128779491825 0.00168061079381)
(-7.77514529568e-05 0.000121236389211 0.00165154023033)
(-8.82291860759e-05 0.00011265598113 0.0016175080309)
(-9.55673264222e-05 0.000104673006992 0.00158078773289)
(9.69336422457e-05 0.000106150022972 0.00166555602772)
(8.90173814466e-05 0.000113335191265 0.00169883646682)
(7.81356565199e-05 0.000121157379771 0.00173001068996)
(6.54017862847e-05 0.000128012132721 0.00175673796704)
(5.07796044927e-05 0.000133780402682 0.00177787973897)
(3.46772460724e-05 0.000138118992992 0.00179303212078)
(1.75393018607e-05 0.000140812468907 0.00180212049564)
(-1.31249539522e-07 0.000141723063298 0.001805153664)
(-1.77984873219e-05 0.000140803485759 0.00180212691246)
(-3.49268130441e-05 0.000138102219392 0.00179304841048)
(-5.10136404708e-05 0.000133757881476 0.00177791091913)
(-6.56151019517e-05 0.000127986548963 0.00175679191588)
(-7.83241527647e-05 0.000121131865202 0.00173009788021)
(-8.91801105031e-05 0.000113307833892 0.00169894397287)
(-9.70559909527e-05 0.000106123273666 0.00166558460851)
(9.65242730702e-05 0.000105517401853 0.00172932846159)
(8.82214589434e-05 0.000111728862644 0.00175888289622)
(7.71653205916e-05 0.000118610515344 0.00178696458119)
(6.43918212918e-05 0.000124623014214 0.00181121194229)
(4.98847494179e-05 0.000129670161633 0.00183043589738)
(3.40101492143e-05 0.000133460943991 0.00184421400859)
(1.71807970564e-05 0.000135811350148 0.00185247269566)
(-1.39063525334e-07 0.000136604632005 0.00185522780661)
(-1.74555737905e-05 0.000135800733773 0.0018524804657)
(-3.42752079169e-05 0.000133440850403 0.00184423373689)
(-5.01341695266e-05 0.000129642562278 0.00183047408392)
(-6.46204560243e-05 0.000124590619598 0.00181127902728)
(-7.73694328824e-05 0.000118576562211 0.00178707460229)
(-8.83999498677e-05 0.000111691914974 0.00175902245949)
(-9.66617495508e-05 0.000105480898138 0.00172939497731)
(9.46271180886e-05 0.000103239381971 0.00177607527189)
(8.60702561132e-05 0.000108383601617 0.00180181713681)
(7.50056294045e-05 0.000114214547506 0.00182684016294)
(6.23863836923e-05 0.000119293312707 0.00184870370974)
(4.82166670219e-05 0.000123545398629 0.00186612634751)
(3.28148907367e-05 0.000126734766575 0.00187863651783)
(1.6554202735e-05 0.000128709696801 0.00188613879547)
(-1.47277482589e-07 0.000129374758076 0.00188864167415)
(-1.68454223064e-05 0.000128697211662 0.00188614675397)
(-3.30964310383e-05 0.000126710848851 0.00187865730387)
(-4.84826350802e-05 0.000123511900635 0.00186616791366)
(-6.2631650804e-05 0.000119252941272 0.00184877903973)
(-7.52266518138e-05 0.000114170653186 0.00182696652571)
(-8.62655074769e-05 0.000108335306138 0.00180197867993)
(-9.47802526079e-05 0.000103191249463 0.00177616603431)
(9.15855134831e-05 9.97096211425e-05 0.00180906077677)
(8.28817834183e-05 0.000103755246567 0.00183112967008)
(7.19374649975e-05 0.000108478302708 0.00185330305677)
(5.96223056223e-05 0.000112575463138 0.00187299187465)
(4.59594691892e-05 0.000115995732975 0.00188879514432)
(3.12170275357e-05 0.000118557799059 0.00190017909047)
(1.57228949505e-05 0.000120141958642 0.00190701536292)
(-1.56399612856e-07 0.000120673706302 0.001909296679)
(-1.60324255847e-05 0.000120127555552 0.00190702162854)
(-3.15170546865e-05 0.000118529908735 0.0019001969993)
(-4.62441581186e-05 0.00011595601988 0.00188883383743)
(-5.98864779466e-05 0.000112526536712 0.00187306660724)
(-7.21775535952e-05 0.000108423594389 0.0018534338943)
(-8.30955242786e-05 0.000103694420502 0.00183129632199)
(-9.17555087737e-05 9.964849918e-05 0.00180915445423)
(8.76961827548e-05 9.52801523983e-05 0.00183111573115)
(7.89231651968e-05 9.82333719432e-05 0.00184985869161)
(6.81941081298e-05 0.000101824151723 0.00186949432363)
(5.62949191637e-05 0.00010492216852 0.00188722989521)
(4.32635932743e-05 0.000107501333079 0.00190156333101)
(2.9318209432e-05 0.000109430696511 0.00191192110983)
(1.47379133156e-05 0.000110621264845 0.00191815065351)
(-1.66727631793e-07 0.000111018910364 0.00192022952568)
(-1.5068220595e-05 0.000110605156789 0.00191815244112)
(-2.96393217215e-05 0.000109399229229 0.00191193019293)
(-4.35697547005e-05 0.000107455856622 0.00190158938856)
(-5.65808314297e-05 0.000104865038795 0.00188728980545)
(-6.8455927197e-05 0.000101758726759 0.00186961065408)
(-7.91575814037e-05 9.81597642969e-05 0.0018500054327)
(-8.7884878187e-05 9.52053611171e-05 0.00183118143837)
(8.32067626773e-05 9.02515876233e-05 0.00184495438358)
(7.44220829825e-05 9.21290665689e-05 0.00186094814824)
(6.39767971587e-05 9.45846245201e-05 0.00187836953778)
(5.25708734353e-05 9.66909780434e-05 0.00189425449734)
(4.0255125312e-05 9.84426609973e-05 0.00190711680896)
(2.72024184625e-05 9.97501460062e-05 0.00191641931601)
(1.36411987806e-05 0.000100554045536 0.00192201752413)
(-1.78301197488e-07 0.000100820070366 0.00192388393529)
(-1.39947906608e-05 0.000100536789832 0.00192201107433)
(-2.75472158838e-05 9.97161617076e-05 0.00191641136159)
(-4.05854880609e-05 9.83928737583e-05 0.00190711626725)
(-5.28813079855e-05 9.66272374134e-05 0.00189427843606)
(-6.4262946061e-05 9.45099375627e-05 0.00187844303285)
(-7.46793231265e-05 9.20437343667e-05 0.00186104102427)
(-8.34159529639e-05 9.01639637549e-05 0.00184495377363)
(7.8338320336e-05 8.48437428503e-05 0.00185362844395)
(6.96107260709e-05 8.56662555244e-05 0.00186770641184)
(5.94789265042e-05 8.69912589412e-05 0.00188305841433)
(4.8598879097e-05 8.81481107997e-05 0.0018968804277)
(3.70427312097e-05 8.9108980683e-05 0.00190797721208)
(2.49412035329e-05 8.9821083031e-05 0.00191597327104)
(1.24685548475e-05 9.02547712797e-05 0.00192077891826)
(-1.90818642722e-07 9.03951267042e-05 0.00192237667462)
(-1.28473222976e-05 9.02372217479e-05 0.00192075982482)
(-2.53115576114e-05 8.97862731695e-05 0.00191593840406)
(-3.73991556315e-05 8.90573664102e-05 0.00190793245031)
(-4.89356608689e-05 8.80807643956e-05 0.00189683966683)
(-5.97910327015e-05 8.69102907211e-05 0.0018830481076)
(-6.9892111689e-05 8.55718555177e-05 0.00186770042597)
(-7.85700790486e-05 8.47450272524e-05 0.00185352145224)
(7.33882482386e-05 7.92664647867e-05 0.00186132593882)
(6.4795797251e-05 7.85902189994e-05 0.00187437445046)
(5.48632153051e-05 7.89651355337e-05 0.00188711628066)
(4.45039872357e-05 7.92792563662e-05 0.00189809398699)
(3.37196081398e-05 7.9537654535e-05 0.00190671089405)
(2.25990460743e-05 7.97217690781e-05 0.00191286023044)
(1.12536555786e-05 7.98290540366e-05 0.00191654086769)
(-2.03646221411e-07 7.98594153734e-05 0.0019177573468)
(-1.16581274462e-05 7.98124910766e-05 0.00191650607509)
(-2.2995252272e-05 7.96887274816e-05 0.00191279125589)
(-3.41021278846e-05 7.94881627915e-05 0.00190660787156)
(-4.48670142336e-05 7.9213502543e-05 0.00189796157162)
(-5.52010191535e-05 7.88841222888e-05 0.00188697775574)
(-6.50995278474e-05 7.84922965304e-05 0.0018741895537)
(-7.36451128901e-05 7.91625043145e-05 0.00186112391278)
(4.16771125436e-07 4.87810604423e-07 0.000186222750709)
(4.33954908334e-07 5.64951130064e-07 0.000196314072412)
(4.86788682724e-07 6.36999878373e-07 0.000205961258809)
(4.77830381273e-07 7.37693243341e-07 0.00021453009535)
(4.13342389041e-07 8.43335181103e-07 0.00022158543301)
(3.01319325988e-07 9.33459423838e-07 0.000226822581071)
(1.55553860083e-07 9.93107325907e-07 0.000230044538825)
(-7.33098176817e-09 1.0134173872e-06 0.000231137016389)
(-1.70454168492e-07 9.91328821338e-07 0.000230042318169)
(-3.16953880805e-07 9.29866781939e-07 0.000226817881742)
(-4.3001614693e-07 8.38001582912e-07 0.000221577680399)
(-4.94832716432e-07 7.30985453065e-07 0.000214518327822)
(-5.02674981341e-07 6.29063086139e-07 0.000205943625367)
(-4.48042390627e-07 5.56550894584e-07 0.000196283895445)
(-4.26014702088e-07 4.79832989297e-07 0.000186156783669)
(2.77081156219e-06 3.04199059465e-06 0.000520633970108)
(2.78777655116e-06 3.54840929061e-06 0.000546904139084)
(2.82257700146e-06 4.10065284505e-06 0.000572139102561)
(2.63857592034e-06 4.71257838523e-06 0.000594605632255)
(2.22196689754e-06 5.29564917688e-06 0.000613118318071)
(1.59945835184e-06 5.77201193615e-06 0.000626862736389)
(8.26128271605e-07 6.08156738521e-06 0.00063531649861)
(-2.58790733005e-08 6.18711907889e-06 0.000638177303792)
(-8.78210707451e-07 6.07573628594e-06 0.00063530946725)
(-1.65251210804e-06 5.76051231128e-06 0.000626848000801)
(-2.27618499875e-06 5.27904109711e-06 0.000613094241897)
(-2.69233410076e-06 4.69200901955e-06 0.000594569484901)
(-2.87227249811e-06 4.07698935283e-06 0.00057208550354)
(-2.83115748811e-06 3.52325924531e-06 0.000546813735267)
(-2.80027287882e-06 3.01746612962e-06 0.000520451973997)
(6.1221950053e-06 6.6145895289e-06 0.000818485009028)
(6.06467764888e-06 7.6928526211e-06 0.00085743850909)
(5.97354991049e-06 8.88161224456e-06 0.00089496543795)
(5.49106960838e-06 1.0140217609e-05 0.000928415949691)
(4.57725646463e-06 1.13105729753e-05 0.000955981671906)
(3.27657877295e-06 1.22540362969e-05 0.000976439882442)
(1.68986381299e-06 1.28632479985e-05 0.000989015631942)
(-4.72215490766e-08 1.30709369443e-05 0.000993265156592)
(-1.78438264765e-06 1.2853621291e-05 0.000989003525786)
(-3.37129723011e-06 1.22352516103e-05 0.000976414866971)
(-4.67173459186e-06 1.12838121792e-05 0.000955941476897)
(-5.58294784636e-06 1.01074470247e-05 0.0009283566669)
(-6.05784541285e-06 8.84458372027e-06 0.000894879216123)
(-6.13761736247e-06 7.6531714196e-06 0.000857297297539)
(-6.17289608594e-06 6.57513926146e-06 0.000818210411071)
(9.79064159592e-06 1.04690636071e-05 0.00108254021113)
(9.57982309175e-06 1.21213902669e-05 0.00113090051223)
(9.29203669612e-06 1.39291438479e-05 0.00117757722306)
(8.45234887601e-06 1.58084603146e-05 0.00121921061352)
(6.9984180236e-06 1.75346251492e-05 0.00125350546528)
(4.98956985807e-06 1.89157043296e-05 0.00127893708991)
(2.56846199424e-06 1.98039130111e-05 0.00129455592745)
(-7.01335203334e-08 2.01063819077e-05 0.00129982694137)
(-2.70834340897e-06 1.97907793921e-05 0.00129453893881)
(-5.12824634907e-06 1.889020645e-05 0.00127890255791)
(-7.13450409212e-06 1.74984843817e-05 0.00125345106998)
(-8.58275811827e-06 1.57642618095e-05 0.00121913212216)
(-9.41102508857e-06 1.38795662562e-05 0.00117746580626)
(-9.68251239831e-06 1.20678584271e-05 0.00113072363699)
(-9.86405212962e-06 1.04150608657e-05 0.00108220542246)
(1.33646938418e-05 1.41699301623e-05 0.00131422303193)
(1.29332403472e-05 1.63319300866e-05 0.00136886439758)
(1.24049078473e-05 1.86613161714e-05 0.00142168587844)
(1.11904810088e-05 2.10599415789e-05 0.00146882490476)
(9.21388090733e-06 2.32455877509e-05 0.00150763199333)
(6.54565721112e-06 2.498487995e-05 0.00153638017554)
(3.36212567319e-06 2.60999234201e-05 0.00155401709587)
(-9.37788207603e-08 2.64790661315e-05 0.00155996197963)
(-3.54872237315e-06 2.60836253946e-05 0.00155399529324)
(-6.72931469224e-06 2.49533126687e-05 0.00153633666347)
(-9.39211765122e-06 2.32008884787e-05 0.00150756507055)
(-1.13594561492e-05 2.10051978454e-05 0.00146873102502)
(-1.25584447808e-05 1.85999996211e-05 0.00142155691434)
(-1.30659817038e-05 1.62655422675e-05 0.00136866615593)
(-1.34621845488e-05 1.41022481294e-05 0.00131385452388)
(1.65946156008e-05 1.74697560875e-05 0.00151480237844)
(1.58911696587e-05 2.00438996131e-05 0.00157284174586)
(1.5096190863e-05 2.2761447692e-05 0.00162905943189)
(1.35155425542e-05 2.55435899188e-05 0.00167927535888)
(1.1069261568e-05 2.8062741296e-05 0.00172059993973)
(7.83567556152e-06 3.00581713866e-05 0.00175118421427)
(4.0145892151e-06 3.13336341625e-05 0.00176992815358)
(-1.17347520482e-07 3.17665029235e-05 0.00177623909225)
(-4.24772208599e-06 3.131452273e-05 0.00176990130641)
(-8.06407667138e-06 3.00211909694e-05 0.00175113161537)
(-1.12893524913e-05 2.80103447527e-05 0.00172052115452)
(-1.37227803886e-05 2.5479277834e-05 0.0016791685486)
(-1.52841178459e-05 2.26893284548e-05 0.00162891872419)
(-1.60543993413e-05 1.99656379709e-05 0.00157263280947)
(-1.67176066506e-05 1.73895259972e-05 0.00151441716042)
(1.93212390136e-05 2.02206109453e-05 0.00168577579313)
(1.83122327912e-05 2.30925999428e-05 0.00174467509255)
(1.72385422414e-05 2.60521030021e-05 0.00180190902713)
(1.53185858801e-05 2.90693330084e-05 0.00185312811418)
(1.24775782206e-05 3.17853475303e-05 0.0018952883051)
(8.7988652021e-06 3.39270225814e-05 0.00192647337741)
(4.4947746621e-06 3.52917697002e-05 0.00194556988801)
(-1.40341455235e-07 3.57538712479e-05 0.00195199300736)
(-4.77333975201e-06 3.52702413359e-05 0.00194553724198)
(-9.07105438906e-06 3.3885353817e-05 0.00192641046348)
(-1.27388239029e-05 3.1726205587e-05 0.00189519652992)
(-1.55637121651e-05 2.89965093075e-05 0.00185300827962)
(-1.74609292401e-05 2.59702431291e-05 0.00180175878209)
(-1.85065248664e-05 2.30034439843e-05 0.00174446048115)
(-1.94712174473e-05 2.01290610241e-05 0.00168538194718)
(2.14553838674e-05 2.23474974938e-05 0.00182896148155)
(2.01247083781e-05 2.53987560321e-05 0.00188659820451)
(1.87720787096e-05 2.84582684005e-05 0.0019429047738)
(1.65522210378e-05 3.15649757838e-05 0.00199346319812)
(1.34032567762e-05 3.43442180324e-05 0.00203512923613)
(9.41146262225e-06 3.65251154038e-05 0.00206595014021)
(4.79085196448e-06 3.7910163775e-05 0.0020848149969)
(-1.62563888562e-07 3.83778244219e-05 0.00209115443401)
(-5.11339830543e-06 3.78866630462e-05 0.00208477503688)
(-9.72625870788e-06 3.64795692539e-05 0.00206587406925)
(-1.37049081385e-05 3.42793904603e-05 0.00203502075859)
(-1.68349883328e-05 3.14848185775e-05 0.00199332652973)
(-1.90292498245e-05 2.83678067519e-05 0.00194274202482)
(-2.03508725737e-05 2.52998041289e-05 0.00188637558463)
(-2.16337189316e-05 2.22456907022e-05 0.001828557719)
(2.2965409606e-05 2.38335045807e-05 0.00194647602928)
(2.13123566941e-05 2.69511846291e-05 0.0020011787037)
(1.96897124008e-05 2.99839389294e-05 0.00205507174334)
(1.72166636292e-05 3.30473360967e-05 0.00210371806722)
(1.3850366103e-05 3.57679056175e-05 0.00214390089869)
(9.67823180581e-06 3.78907757121e-05 0.00217364643004)
(4.9058692476e-06 3.92337541485e-05 0.0021918519965)
(-1.83988057116e-07 3.96856751141e-05 0.00219796459184)
(-5.2709185048e-06 3.92088003703e-05 0.00219180222811)
(-1.00344994821e-05 3.78423052592e-05 0.0021735522891)
(-1.41918159304e-05 3.56986290403e-05 0.00214376867689)
(-1.75370666801e-05 3.29612091542e-05 0.00210355595746)
(-1.99822298261e-05 2.98861530272e-05 0.00205488695568)
(-2.15713967345e-05 2.68436158117e-05 0.00200093692394)
(-2.31734483667e-05 2.37224748635e-05 0.00194605076581)
(2.38645709438e-05 2.47057879491e-05 0.00204068649639)
(2.1900601441e-05 2.77890582366e-05 0.0020912476721)
(2.0023245837e-05 3.06882838116e-05 0.00214168399421)
(1.73469881391e-05 3.35931555428e-05 0.00218753876404)
(1.38521004223e-05 3.61493275139e-05 0.00222553695591)
(9.62502074772e-06 3.81305023182e-05 0.00225369939952)
(4.85394113444e-06 3.9378199515e-05 0.00227093942381)
(-2.04637486104e-07 3.97963562853e-05 0.00227672206682)
(-5.26006939863e-06 3.93524133363e-05 0.00227087619931)
(-1.00217005866e-05 3.80802564552e-05 0.00225357982175)
(-1.42328414409e-05 3.60771137357e-05 0.00222536995961)
(-1.7705146417e-05 3.35027275826e-05 0.00218733682844)
(-2.03517954096e-05 3.05847541947e-05 0.00214145983892)
(-2.21935447289e-05 2.76742515677e-05 0.00209096546055)
(-2.4103658041e-05 2.4586655123e-05 0.00204021654572)
(2.41991099938e-05 2.50232186177e-05 0.00211419194462)
(2.1944180436e-05 2.79854968933e-05 0.00215987801255)
(1.9831953557e-05 3.06634800145e-05 0.00220621951894)
(1.7003402609e-05 3.33125849605e-05 0.00224870010606)
(1.34632174052e-05 3.56164036131e-05 0.00228401287777)
(9.2935943083e-06 3.73877622145e-05 0.00231021166154)
(4.65766283097e-06 3.84976284188e-05 0.0023262501775)
(-2.24460580534e-07 3.8867814714e-05 0.0023316218985)
(-5.10333794965e-06 3.84717710217e-05 0.00232616861504)
(-9.72950647713e-06 3.73371637731e-05 0.00231005660549)
(-1.38826151561e-05 3.55431608746e-05 0.00228379562132)
(-1.73993074558e-05 3.3219992921e-05 0.00224843740579)
(-2.01970850565e-05 3.05562720312e-05 0.00220592993554)
(-2.2271917146e-05 2.7865224763e-05 0.00215952309327)
(-2.4470465149e-05 2.48973604349e-05 0.00211364104367)
(2.40360790189e-05 2.48648783914e-05 0.00216987690608)
(2.15162832036e-05 2.76308297984e-05 0.00221045521861)
(1.91945272426e-05 3.00128440471e-05 0.00225240984196)
(1.62657788964e-05 3.23251409718e-05 0.00229111846872)
(1.27562718353e-05 3.43074159063e-05 0.00232332716467)
(8.73914538469e-06 3.58181831676e-05 0.00234721201375)
(4.34687014531e-06 3.6759678118e-05 0.00236182145258)
(-2.43246663785e-07 3.70720037718e-05 0.00236670227714)
(-4.83011853498e-06 3.67346459888e-05 0.00236171555129)
(-9.21261021027e-06 3.5768951449e-05 0.00234700890359)
(-1.3213119508e-05 3.42355044023e-05 0.00232303968309)
(-1.66988157076e-05 3.22331256607e-05 0.00229076714313)
(-1.95962037606e-05 2.9904705874e-05 0.00225201961354)
(-2.18791814839e-05 2.75075809142e-05 0.00220998472059)
(-2.43406493432e-05 2.47342550878e-05 0.00216919548262)
(2.34500477835e-05 2.43151713918e-05 0.00221108147871)
(2.07011835389e-05 2.68105544342e-05 0.00224687769807)
(1.82078068613e-05 2.88283589814e-05 0.00228439201053)
(1.52347630557e-05 3.07389327892e-05 0.00231894688672)
(1.18226524024e-05 3.23524682216e-05 0.00234756324468)
(8.03073593878e-06 3.35722946496e-05 0.00236870385342)
(3.95874921871e-06 3.43287463726e-05 0.00238159935158)
(-2.60585416167e-07 3.45781991029e-05 0.00238588868679)
(-4.47672496947e-06 3.43055240881e-05 0.00238146249642)
(-8.53909129892e-06 3.35263381623e-05 0.00236843848323)
(-1.23146228189e-05 3.22846231943e-05 0.00234718207521)
(-1.57030838901e-05 3.06507827073e-05 0.00231847262813)
(-1.86447325029e-05 2.87227594257e-05 0.00228385685963)
(-2.10984534392e-05 2.6687552309e-05 0.0022462408127)
(-2.37877180361e-05 2.41827038263e-05 0.00221021399466)
(2.25239503857e-05 2.34400921641e-05 0.00224194299732)
(1.96084460945e-05 2.56115614557e-05 0.00227391096883)
(1.70046266206e-05 2.71895959679e-05 0.0023069127551)
(1.40434054683e-05 2.86522707964e-05 0.00233668722431)
(1.07785776428e-05 2.98742073255e-05 0.0023609794555)
(7.25368107193e-06 3.07932164997e-05 0.00237876210513)
(3.5384894558e-06 3.13610368544e-05 0.00238954695074)
(-2.75877625466e-07 3.15470406484e-05 0.00239310684797)
(-4.08710601648e-06 3.13405499421e-05 0.00238937314112)
(-7.79284183013e-06 3.07523983967e-05 0.00237842109257)
(-1.13016778383e-05 2.98132067974e-05 0.00236048093477)
(-1.4543280263e-05 2.85715499732e-05 0.00233605184912)
(-1.74735530502e-05 2.70904635019e-05 0.00230617899151)
(-2.00375568312e-05 2.54926722286e-05 0.00227305071204)
(-2.28939620042e-05 2.33086124562e-05 0.00224084209357)
(2.13480137351e-05 2.2662158669e-05 0.00226817351765)
(1.84044508699e-05 2.42080550203e-05 0.00229774664684)
(1.57583950445e-05 2.52383320149e-05 0.00232538637116)
(1.28518087008e-05 2.62030082201e-05 0.00234916838944)
(9.75622663995e-06 2.7003198689e-05 0.00236802951369)
(6.50155295211e-06 2.76038044504e-05 0.00238161182272)
(3.13481922873e-06 2.79735961902e-05 0.0023897637285)
(-2.88425976297e-07 2.80934622238e-05 0.00239241708447)
(-3.70852926054e-06 2.79568239697e-05 0.00238955105961)
(-7.06584573967e-06 2.7570147558e-05 0.00238119012846)
(-1.030462929e-05 2.69522353175e-05 0.00236740212519)
(-1.33774109632e-05 2.61341961402e-05 0.00234834599449)
(-1.62538688888e-05 2.51515229499e-05 0.00232440749939)
(-1.88595567905e-05 2.40993675999e-05 0.00229657165647)
(-2.1749520328e-05 2.25383866812e-05 0.0022668771205)
(-8.19149484237e-08 -2.31845406744e-07 0.000146444817261)
(4.78042249739e-08 -3.51229129062e-07 0.000154588246133)
(1.45857643363e-07 -4.1428751344e-07 0.000162550724163)
(2.02523893215e-07 -4.32687921588e-07 0.000169778832465)
(2.09248111778e-07 -4.22124920189e-07 0.000175829755036)
(1.67361696438e-07 -3.98992415018e-07 0.000180374585374)
(8.89337420546e-08 -3.78562786229e-07 0.000183190216666)
(-9.05164292335e-09 -3.71074538197e-07 0.000184144939173)
(-1.0658773755e-07 -3.80126339896e-07 0.000183177800438)
(-1.83760443507e-07 -4.02066420527e-07 0.000180349880324)
(-2.24034067858e-07 -4.26687150915e-07 0.000175792832947)
(-2.16343536968e-07 -4.38778711174e-07 0.00016972938434)
(-1.58573246966e-07 -4.21108142438e-07 0.000162487466156)
(-5.90589795487e-08 -3.58863463285e-07 0.000154506800528)
(7.3392815207e-08 -2.38823245132e-07 0.000146329950619)
(-2.35420421755e-07 -6.06459701345e-07 0.000421573305625)
(1.0271917303e-07 -8.93901361264e-07 0.000443903940288)
(3.72787486357e-07 -1.03878791184e-06 0.000465886854207)
(5.32526258509e-07 -1.06494273786e-06 0.000485930010129)
(5.57141321254e-07 -1.01479385848e-06 0.000502760829605)
(4.48727543757e-07 -9.35000968763e-07 0.00051542925049)
(2.38200895004e-07 -8.68570120176e-07 0.000523285991569)
(-2.74933096575e-08 -8.44563754538e-07 0.000525945597031)
(-2.92121482933e-07 -8.73309963534e-07 0.000523248048101)
(-4.99672414487e-07 -9.4433947897e-07 0.000515353776915)
(-6.04119463653e-07 -1.02855141629e-06 0.000502648041735)
(-5.76250789146e-07 -1.08289302027e-06 0.000485779054933)
(-4.12937724214e-07 -1.05908057328e-06 0.000465694152581)
(-1.38157370796e-07 -9.16371505672e-07 0.000443656810756)
(2.08263117342e-07 -6.27712234238e-07 0.000421236922017)
(-3.66497591101e-07 -8.90818722967e-07 0.000676622298241)
(1.33876836877e-07 -1.27826713565e-06 0.00071104981664)
(5.48036547179e-07 -1.45457680702e-06 0.000745092970957)
(7.97666689715e-07 -1.45299780803e-06 0.000776230280621)
(8.41520038029e-07 -1.34007111529e-06 0.000802433699248)
(6.80428617179e-07 -1.19006084736e-06 0.0008221846202)
(3.59967199743e-07 -1.07073293978e-06 0.000834441676089)
(-4.71252310875e-08 -1.02805539868e-06 0.000838586652535)
(-4.52674920977e-07 -1.07838300675e-06 0.000834378253103)
(-7.68807215186e-07 -1.20517831406e-06 0.000822058501167)
(-9.23858533837e-07 -1.36238377063e-06 0.000802245271809)
(-8.74096257053e-07 -1.48192395824e-06 0.000775978429005)
(-6.17806318782e-07 -1.48763661561e-06 0.000744772797821)
(-1.95529180913e-07 -1.31456550234e-06 0.000710642966108)
(3.18656033643e-07 -9.26109643205e-07 0.000676079795515)
(-3.57250595104e-07 -9.69119967671e-07 0.000911524226889)
(2.65540917911e-07 -1.37578785323e-06 0.000955929250459)
(7.90225060168e-07 -1.51360945943e-06 0.000999995571211)
(1.10338608649e-06 -1.42828876927e-06 0.00104041146179)
(1.14792811127e-06 -1.21083623276e-06 0.00107448411306)
(9.225696943e-07 -9.62252828352e-07 0.00110019418355)
(4.85334569718e-07 -7.73757293756e-07 0.00111615618305)
(-6.76296582748e-08 -7.07115832914e-07 0.0011215497341)
(-6.18676796789e-07 -7.84289890241e-07 0.00111606775636)
(-1.05049170196e-06 -9.83032293949e-07 0.00110001847384)
(-1.26796314164e-06 -1.24135364377e-06 0.00107422183998)
(-1.21475342177e-06 -1.46754883925e-06 0.00104006175876)
(-8.91469225855e-07 -1.55879126861e-06 0.000999553520913)
(-3.55031674993e-07 -1.42542206366e-06 0.000955373717837)
(2.86828861969e-07 -1.01832031479e-06 0.000910798018165)
(-2.19731205586e-07 -8.69856691619e-07 0.00112595668765)
(4.86832169214e-07 -1.23497542162e-06 0.00117814913968)
(1.08642625091e-06 -1.28359898675e-06 0.00123010535975)
(1.43499097162e-06 -1.07647904042e-06 0.00127787709121)
(1.46168077978e-06 -7.289740459e-07 0.00131821200677)
(1.16305209922e-06 -3.66419032703e-07 0.00134867186417)
(6.07391257085e-07 -1.00845655596e-07 0.00136758711)
(-8.91135586116e-08 -7.82635208793e-09 0.00137397363389)
(-7.83358698215e-07 -1.14172082159e-07 0.0013674740009)
(-1.33257257878e-06 -3.92637655343e-07 0.00134844740672)
(-1.62149655135e-06 -7.67268663031e-07 0.00131787760202)
(-1.58330123845e-06 -1.12545326854e-06 0.00127743284982)
(-1.22094898347e-06 -1.34019431503e-06 0.00122954775773)
(-6.05682191377e-07 -1.2974337347e-06 0.00117745625169)
(1.24875015884e-07 -9.3237662904e-07 0.00112506590498)
(1.23541586436e-08 -6.41409641039e-07 0.00131947334619)
(7.64802547198e-07 -9.25235306327e-07 0.00137720831766)