/*--------------------------------*- C++ -*----------------------------------*\
  =========                 |
  \\      /  F ield         | OpenFOAM: The Open Source CFD Toolbox
   \\    /   O peration     | Website:  https://openfoam.org
    \\  /    A nd           | Version:  7
     \\/     M anipulation  |
\*---------------------------------------------------------------------------*/
FoamFile
{
    version     2.0;
    format      ascii;
    class       volScalarField;
    location    "0.6";
    object      p;
}
// * * * * * * * * * * * * * * * * * * * * * * * * * * * * * * * * * * * * * //

dimensions      [0 2 -2 0 0 0 0];

internalField   nonuniform List<scalar> 
22500
(
7.48259324539e-06
7.48132871536e-06
7.4812172912e-06
7.48086695967e-06
7.48065326533e-06
7.48048543843e-06
7.48038431582e-06
7.48034631169e-06
7.48038167504e-06
7.48048021458e-06
7.48064550869e-06
7.48085686264e-06
7.48120497562e-06
7.48131498955e-06
7.48257706413e-06
7.46399804488e-06
7.46177479347e-06
7.46086578586e-06
7.45982179027e-06
7.45904647082e-06
7.45846650121e-06
7.45811395095e-06
7.45799214874e-06
7.4581112161e-06
7.45846108627e-06
7.459038444e-06
7.45981132662e-06
7.46085306973e-06
7.46176060155e-06
7.46398139481e-06
7.44610953845e-06
7.44300732888e-06
7.44141647795e-06
7.43976063732e-06
7.43849966228e-06
7.43756305395e-06
7.43699359361e-06
7.43679940867e-06
7.43699092156e-06
7.43755776177e-06
7.43849182876e-06
7.43975042261e-06
7.4414040686e-06
7.44299344425e-06
7.44609307775e-06
7.43015800454e-06
7.42632814653e-06
7.42418907442e-06
7.42205165949e-06
7.42040918852e-06
7.41919470855e-06
7.4184567206e-06
7.41820642154e-06
7.41845415616e-06
7.4191896267e-06
7.4204016758e-06
7.42204187473e-06
7.42417717952e-06
7.42631482635e-06
7.43014201835e-06
7.41525259146e-06
7.41079752567e-06
7.40818909314e-06
7.40565843718e-06
7.40370280346e-06
7.40226282003e-06
7.40138849775e-06
7.40109296179e-06
7.40138603569e-06
7.40225794301e-06
7.40369559985e-06
7.40564906896e-06
7.4081777155e-06
7.41078479195e-06
7.41523718765e-06
7.40118738302e-06
7.39620848697e-06
7.39320451675e-06
7.39036248221e-06
7.38815759827e-06
7.38654073716e-06
7.38555992938e-06
7.38522919978e-06
7.3855575693e-06
7.38653606104e-06
7.38815069919e-06
7.39035352098e-06
7.39319366749e-06
7.3961963237e-06
7.40117254667e-06
7.38802058536e-06
7.38262561735e-06
7.37930137794e-06
7.37622863858e-06
7.37383791452e-06
7.37209173314e-06
7.37103355797e-06
7.37067739294e-06
7.37103129024e-06
7.37208724165e-06
7.37383129477e-06
7.37622005244e-06
7.37929101783e-06
7.38261399823e-06
7.38800626472e-06
7.37576962982e-06
7.37006419186e-06
7.36649049862e-06
7.36326137662e-06
7.36074329288e-06
7.35891092328e-06
7.35780170073e-06
7.35742889454e-06
7.35779951297e-06
7.35890659356e-06
7.36073691593e-06
7.36325311794e-06
7.36648057007e-06
7.37005303683e-06
7.37575574046e-06
7.36441061832e-06
7.35849440759e-06
7.35473673727e-06
7.35141772687e-06
7.3488245748e-06
7.34694378342e-06
7.34580643395e-06
7.34542461708e-06
7.34580430963e-06
7.34693958071e-06
7.34881839001e-06
7.35140972239e-06
7.35472714944e-06
7.35848359696e-06
7.36439703568e-06
7.3539080597e-06
7.34787393691e-06
7.34399421482e-06
7.34064456962e-06
7.3380226831e-06
7.33612604604e-06
7.33498019534e-06
7.33459587369e-06
7.33497811429e-06
7.33612192925e-06
7.33801662518e-06
7.34063673205e-06
7.34398484833e-06
7.34786332092e-06
7.35389460589e-06
7.34422063484e-06
7.33815517692e-06
7.33421483328e-06
7.33088750852e-06
7.32827732852e-06
7.32639236931e-06
7.32525444636e-06
7.32487305416e-06
7.32525238644e-06
7.32638829268e-06
7.32827132448e-06
7.33087973087e-06
7.33420554481e-06
7.33814457371e-06
7.34420708575e-06
7.33528903812e-06
7.32928561353e-06
7.32535359961e-06
7.32209601644e-06
7.31953123381e-06
7.31768008799e-06
7.31656328109e-06
7.31618918144e-06
7.31656122077e-06
7.31767600102e-06
7.31952520136e-06
7.322088178e-06
7.3253442201e-06
7.32927481203e-06
7.33527515503e-06
7.32700510848e-06
7.32121890793e-06
7.31738447854e-06
7.31423399468e-06
7.31173811272e-06
7.30993661072e-06
7.30885077681e-06
7.30848734505e-06
7.30884869124e-06
7.30993247109e-06
7.31173197045e-06
7.31422596645e-06
7.31737481578e-06
7.3212076731e-06
7.32699063645e-06
7.31937724395e-06
7.31400944787e-06
7.31030918903e-06
7.30727133352e-06
7.30485055497e-06
7.30310830835e-06
7.30206121064e-06
7.30171124673e-06
7.30205908693e-06
7.30310407489e-06
7.30484422995e-06
7.30726298027e-06
7.31029903237e-06
7.31399748172e-06
7.31936203769e-06
7.31350684324e-06
7.30755220536e-06
7.30395690454e-06
7.30098521097e-06
7.29864372875e-06
7.29697804749e-06
7.29598325647e-06
7.2956516775e-06
7.2959810634e-06
7.29697366495e-06
7.29863713461e-06
7.30097638775e-06
7.30394592703e-06
7.3075390389e-06
7.31349093132e-06
5.44190824269e-06
5.44236537823e-06
5.44271500486e-06
5.44302349286e-06
5.44327786721e-06
5.44346756058e-06
5.44358548773e-06
5.44362560163e-06
5.44358588377e-06
5.44346825417e-06
5.44327861894e-06
5.44302402861e-06
5.4427152919e-06
5.44236544901e-06
5.44190804555e-06
5.44392004868e-06
5.44444610049e-06
5.44486677088e-06
5.44523965254e-06
5.44554886672e-06
5.44577985517e-06
5.44592349958e-06
5.44597241809e-06
5.44592386206e-06
5.4457804771e-06
5.44554950872e-06
5.44524002648e-06
5.44486680315e-06
5.44444596563e-06
5.44391965945e-06
5.44607499635e-06
5.44672320935e-06
5.44724817437e-06
5.44771926883e-06
5.44811319248e-06
5.44840873825e-06
5.44859289196e-06
5.44865565321e-06
5.44859322953e-06
5.44840932334e-06
5.44811381894e-06
5.4477196832e-06
5.44724825698e-06
5.44672319317e-06
5.44607465122e-06
5.44850894681e-06
5.44937125692e-06
5.45006756181e-06
5.45069653358e-06
5.45122558908e-06
5.45162395034e-06
5.45187249434e-06
5.45195720311e-06
5.45187280858e-06
5.45162450453e-06
5.45122621508e-06
5.45069701949e-06
5.45006775884e-06
5.44937138592e-06
5.4485086643e-06
5.45150385045e-06
5.4526790942e-06
5.45361794653e-06
5.45446639228e-06
5.45518100143e-06
5.45571956885e-06
5.45605546686e-06
5.45616986577e-06
5.45605576143e-06
5.45572009204e-06
5.45518161409e-06
5.45446691243e-06
5.45361822842e-06
5.45267932819e-06
5.45150360868e-06
5.45513066434e-06
5.45670165012e-06
5.45793867676e-06
5.45905275695e-06
5.45998933497e-06
5.46069430112e-06
5.4611332696e-06
5.46128258782e-06
5.46113353553e-06
5.46069477628e-06
5.45998990529e-06
5.45905326881e-06
5.45793899101e-06
5.45670195934e-06
5.45513039178e-06
5.45935129444e-06
5.46137647246e-06
5.46294671669e-06
5.46435256577e-06
5.46553015514e-06
5.46641427803e-06
5.46696352864e-06
5.46715008691e-06
5.46696376315e-06
5.46641469878e-06
5.46553066578e-06
5.46435303735e-06
5.46294701622e-06
5.46137680624e-06
5.45935095409e-06
5.46408693287e-06
5.46659723634e-06
5.46851483232e-06
5.47021853804e-06
5.47163922135e-06
5.47270239017e-06
5.4733610904e-06
5.47358447122e-06
5.47336128944e-06
5.47270274662e-06
5.4716396551e-06
5.47021893999e-06
5.46851508745e-06
5.46659753612e-06
5.46408650596e-06
5.4692385548e-06
5.47223700269e-06
5.47449651448e-06
5.47648597878e-06
5.47813682671e-06
5.47936775141e-06
5.48012817417e-06
5.48038562992e-06
5.48012833931e-06
5.47936804413e-06
5.47813717846e-06
5.47648629212e-06
5.47449669444e-06
5.47223722623e-06
5.46923798233e-06
5.47469742698e-06
5.47816086994e-06
5.48073941929e-06
5.4829873845e-06
5.48484325313e-06
5.48622171476e-06
5.48707069782e-06
5.48735765431e-06
5.48707083207e-06
5.48622194848e-06
5.48484352455e-06
5.48298760581e-06
5.48073951036e-06
5.478160989e-06
5.47469668462e-06
5.48035335022e-06
5.48423508498e-06
5.48709490454e-06
5.48956278081e-06
5.49158958454e-06
5.49308892294e-06
5.49400942178e-06
5.4943200117e-06
5.49400953432e-06
5.49308911459e-06
5.49158979451e-06
5.4895629208e-06
5.48709490543e-06
5.48423508352e-06
5.48035239778e-06
5.48609375111e-06
5.49032822228e-06
5.49342161609e-06
5.49606498388e-06
5.4982237986e-06
5.49981374512e-06
5.50078654425e-06
5.50111416935e-06
5.500786651e-06
5.49981392141e-06
5.49822398403e-06
5.49606507957e-06
5.49342155427e-06
5.49032810405e-06
5.48609259697e-06
5.49180138882e-06
5.49631928562e-06
5.49959685141e-06
5.50236921937e-06
5.50461834244e-06
5.50626630351e-06
5.5072707879e-06
5.50760841353e-06
5.50727090708e-06
5.50626651039e-06
5.50461855895e-06
5.50236933828e-06
5.49959678336e-06
5.496319098e-06
5.4918000813e-06
5.49747321812e-06
5.50221277237e-06
5.50558324161e-06
5.50841401122e-06
5.51069097687e-06
5.51234949923e-06
5.51335646573e-06
5.5136942199e-06
5.51335662227e-06
5.51234977369e-06
5.51069129032e-06
5.50841422216e-06
5.50558324784e-06
5.50221254372e-06
5.4974718642e-06
5.50370991049e-06
5.50807468778e-06
5.51136119615e-06
5.5141303284e-06
5.51633104273e-06
5.51792387311e-06
5.51888735057e-06
5.51920991436e-06
5.51888753785e-06
5.51792421967e-06
5.51633145994e-06
5.51413066573e-06
5.5113612656e-06
5.50807436427e-06
5.50370860771e-06
5.97790302294e-06
5.97777405392e-06
5.97763789761e-06
5.97748856578e-06
5.9773524614e-06
5.97724346212e-06
5.9771731982e-06
5.97714869044e-06
5.97717286589e-06
5.97724284819e-06
5.97735166726e-06
5.9774876686e-06
5.97763652925e-06
5.97777253217e-06
5.97790099638e-06
5.97806478699e-06
5.97794618075e-06
5.97781722831e-06
5.97767380149e-06
5.97754201656e-06
5.9774359092e-06
5.97736723498e-06
5.97734319818e-06
5.97736686138e-06
5.97743520984e-06
5.97754109482e-06
5.9776727325e-06
5.9778157332e-06
5.97794446113e-06
5.97806260603e-06
5.97838911525e-06
5.97828858163e-06
5.97817694301e-06
5.9780470375e-06
5.97792583379e-06
5.97782719234e-06
5.97776295328e-06
5.97774038378e-06
5.97776258714e-06
5.97782650024e-06
5.97792490157e-06
5.97804592896e-06
5.97817545455e-06
5.9782868505e-06
5.97838690522e-06
5.97863327246e-06
5.97853952489e-06
5.9784371822e-06
5.97831376147e-06
5.97819752234e-06
5.97810228823e-06
5.97804004673e-06
5.97801814652e-06
5.97803970103e-06
5.97810162699e-06
5.97819660597e-06
5.97831264362e-06
5.97843572051e-06
5.97853784716e-06
5.97863102216e-06
5.9787808953e-06
5.97868613742e-06
5.97858736939e-06
5.9784660359e-06
5.97835162669e-06
5.97825775882e-06
5.97819635928e-06
5.97817475395e-06
5.97819602753e-06
5.97825712113e-06
5.97835072962e-06
5.97846492212e-06
5.97858592559e-06
5.97868450907e-06
5.97877860878e-06
5.97886792921e-06
5.97877066858e-06
5.97867477159e-06
5.97855580953e-06
5.97844406027e-06
5.97835253231e-06
5.97829271862e-06
5.9782716854e-06
5.97829240089e-06
5.97835191744e-06
5.97844318209e-06
5.97855470249e-06
5.97867335176e-06
5.97876905944e-06
5.97886562975e-06
5.97892226553e-06
5.97882545182e-06
5.97873508534e-06
5.97862174933e-06
5.9785159421e-06
5.97842954967e-06
5.9783731878e-06
5.97835338339e-06
5.97837288184e-06
5.97842895552e-06
5.97851508486e-06
5.97862065481e-06
5.97873369143e-06
5.97882386482e-06
5.97891993776e-06
5.97896591237e-06
5.97887573805e-06
5.97879560905e-06
5.97869280672e-06
5.97859746903e-06
5.97851986655e-06
5.97846932834e-06
5.9784515758e-06
5.97846903228e-06
5.97851928941e-06
5.97859662738e-06
5.97869171764e-06
5.97879422804e-06
5.97887416341e-06
5.97896353824e-06
5.9790183018e-06
5.9789429166e-06
5.97887864086e-06
5.97879176293e-06
5.97871164243e-06
5.97864655107e-06
5.97860420712e-06
5.97858932165e-06
5.97860391908e-06
5.9786459872e-06
5.97871081377e-06
5.97879067682e-06
5.97887726249e-06
5.97894134037e-06
5.97901587844e-06
5.97909548501e-06
5.97904349283e-06
5.97900042659e-06
5.97893424205e-06
5.97887338107e-06
5.97882389967e-06
5.97879169862e-06
5.9787803452e-06
5.9787914159e-06
5.97882334438e-06
5.97887255744e-06
5.97893314924e-06
5.97899903702e-06
5.97904189317e-06
5.97909300364e-06
5.97920898979e-06
5.97918799012e-06
5.97917018857e-06
5.97912800838e-06
5.97908912611e-06
5.97905731687e-06
5.97903653729e-06
5.97902915253e-06
5.9790362595e-06
5.97905676915e-06
5.97908830733e-06
5.97912690694e-06
5.97916878403e-06
5.97918635864e-06
5.97920644307e-06
5.97936400063e-06
5.97937968924e-06
5.97938948326e-06
5.97937298213e-06
5.97935744661e-06
5.97934435819e-06
5.97933565438e-06
5.97933245377e-06
5.97933538278e-06
5.97934381881e-06
5.97935663298e-06
5.97937187541e-06
5.97938806365e-06
5.97937802985e-06
5.97936140712e-06
5.97956181846e-06
5.9796180501e-06
5.97965552807e-06
5.9796641494e-06
5.97967180023e-06
5.97967746092e-06
5.97968084983e-06
5.97968185181e-06
5.97968058604e-06
5.97967693582e-06
5.97967100377e-06
5.9796630488e-06
5.97965410705e-06
5.97961637024e-06
5.97955919602e-06
5.97983716131e-06
5.97993326963e-06
5.979981557e-06
5.98000499545e-06
5.98002884045e-06
5.98004831538e-06
5.98006078361e-06
5.9800649409e-06
5.98006052976e-06
5.98004781505e-06
5.98002806974e-06
5.98000392137e-06
5.97998015261e-06
5.97993157199e-06
5.97983456755e-06
5.98036665544e-06
5.98035689297e-06
5.98036836308e-06
5.9803799383e-06
5.980400984e-06
5.98042046051e-06
5.98043344926e-06
5.98043787434e-06
5.98043319952e-06
5.98041996314e-06
5.98040022452e-06
5.98037886579e-06
5.98036692853e-06
5.98035509064e-06
5.9803641058e-06
4.99067835595e-06
4.99078114473e-06
4.99089932797e-06
4.9910177655e-06
4.99112351086e-06
4.99120619556e-06
4.99125885551e-06
4.99127714324e-06
4.99125932222e-06
4.99120706961e-06
4.9911246469e-06
4.99101888426e-06
4.99090027581e-06
4.99078169931e-06
4.99067892884e-06
4.99078541141e-06
4.99088761391e-06
4.99100721014e-06
4.99112724393e-06
4.99123495882e-06
4.99131945526e-06
4.99137340472e-06
4.99139218062e-06
4.99137388906e-06
4.99132035998e-06
4.99123612651e-06
4.99112838319e-06
4.99100810609e-06
4.99088813024e-06
4.99078580621e-06
4.99077773951e-06
4.99087116707e-06
4.99098380431e-06
4.99109792377e-06
4.9912013961e-06
4.99128300578e-06
4.99133530365e-06
4.99135353516e-06
4.99133574632e-06
4.99128383325e-06
4.99120246588e-06
4.99109898782e-06
4.99098462925e-06
4.9908717062e-06
4.99077806789e-06
4.99075667725e-06
4.99084301956e-06
4.99094984411e-06
4.99105834558e-06
4.99115755151e-06
4.99123613042e-06
4.99128663099e-06
4.99130424998e-06
4.99128701928e-06
4.99123685573e-06
4.99115848915e-06
4.99105928956e-06
4.99095058405e-06
4.99084353055e-06
4.99075694969e-06
4.99074457233e-06
4.99082549606e-06
4.99092809863e-06
4.9910316742e-06
4.99112691267e-06
4.99120256394e-06
4.99125127712e-06
4.99126828218e-06
4.99125161925e-06
4.9912032018e-06
4.99112774076e-06
4.99103251171e-06
4.99092877152e-06
4.99082596829e-06
4.9907447881e-06
4.99073339179e-06
4.9908092008e-06
4.99090820094e-06
4.99100678315e-06
4.99109779958e-06
4.99117022052e-06
4.99121691941e-06
4.99123322362e-06
4.99121721422e-06
4.99117076955e-06
4.99109851031e-06
4.99100750501e-06
4.99090877957e-06
4.99080964489e-06
4.9907335032e-06
4.99071834286e-06
4.99078925534e-06
4.9908850766e-06
4.99097864768e-06
4.99106527043e-06
4.99113426582e-06
4.9911787978e-06
4.99119434463e-06
4.99117904945e-06
4.99113473494e-06
4.9910658767e-06
4.99097926697e-06
4.99088556795e-06
4.99078966614e-06
4.99071836576e-06
4.99069910769e-06
4.99076580229e-06
4.99085913665e-06
4.99094808848e-06
4.99103050431e-06
4.99109617828e-06
4.99113858308e-06
4.99115338307e-06
4.99113879319e-06
4.99109656907e-06
4.99103100971e-06
4.99094860615e-06
4.99085955291e-06
4.99076616968e-06
4.99069906931e-06
4.99067698527e-06
4.99074074395e-06
4.99083262415e-06
4.99091773304e-06
4.99099648312e-06
4.99105922515e-06
4.99109973132e-06
4.99111386026e-06
4.99109990628e-06
4.99105954929e-06
4.99099690301e-06
4.99091816426e-06
4.99083297702e-06
4.99074107436e-06
4.9906768776e-06
4.99065404329e-06
4.99071688893e-06
4.99080856121e-06
4.99089084637e-06
4.99096668395e-06
4.99102704926e-06
4.99106599483e-06
4.99107956442e-06
4.99106613895e-06
4.9910273163e-06
4.99096702954e-06
4.99089120508e-06
4.99080886229e-06
4.99071719267e-06
4.99065387809e-06
4.99063302686e-06
4.99069763634e-06
4.99079031599e-06
4.99087078338e-06
4.99094446224e-06
4.99100301899e-06
4.9910407438e-06
4.99105386961e-06
4.99104086342e-06
4.99100323989e-06
4.99094474947e-06
4.99087108073e-06
4.99079057204e-06
4.99069790661e-06
4.99063279602e-06
4.99061615033e-06
4.99068577161e-06
4.99078054007e-06
4.99086010244e-06
4.99093236853e-06
4.99098967254e-06
4.99102651641e-06
4.99103930552e-06
4.99102661809e-06
4.99098986048e-06
4.99093261061e-06
4.99086035514e-06
4.99078075882e-06
4.99068600494e-06
4.9906158503e-06
4.99060454863e-06
4.99068272049e-06
4.99078052152e-06
4.99086010033e-06
4.99093192647e-06
4.99098874972e-06
4.99102515282e-06
4.99103776135e-06
4.99102524306e-06
4.990988914e-06
4.99093214347e-06
4.9908603204e-06
4.99078071333e-06
4.99068291555e-06
4.99060418713e-06
4.99061637872e-06
4.99070588072e-06
4.99080044269e-06
4.99087703047e-06
4.99094681765e-06
4.99100198615e-06
4.99103720771e-06
4.99104935292e-06
4.99103728826e-06
4.9910021422e-06
4.99094701596e-06
4.99087723623e-06
4.9908006154e-06
4.99070603162e-06
4.99061595366e-06
4.99079081724e-06
4.99082885625e-06
4.99088456891e-06
4.99093394416e-06
4.99098346654e-06
4.99102357108e-06
4.99104935116e-06
4.99105826906e-06
4.99104942295e-06
4.99102370433e-06
4.99098364426e-06
4.9909341199e-06
4.99088469704e-06
4.99082892493e-06
4.99079041212e-06
4.99755931147e-06
4.99750011657e-06
4.99743636439e-06
4.99736917037e-06
4.99730897009e-06
4.99726135629e-06
4.99723081569e-06
4.99722020926e-06
4.99723074163e-06
4.99726128323e-06
4.99730903962e-06
4.99736934669e-06
4.99743640401e-06
4.99750028126e-06
4.99755913305e-06
4.99757595764e-06
4.99751997431e-06
4.99745786355e-06
4.99739179597e-06
4.99733219344e-06
4.99728481148e-06
4.9972543209e-06
4.9972437018e-06
4.99725423056e-06
4.99728470309e-06
4.99733220227e-06
4.99739190952e-06
4.99745785535e-06
4.99752000665e-06
4.99757568194e-06
4.9976667077e-06
4.99761839919e-06
4.99756312049e-06
4.99750241547e-06
4.99744686607e-06
4.99740225753e-06
4.99737339379e-06
4.99736331015e-06
4.99737330826e-06
4.99740214608e-06
4.99744684252e-06
4.99750248188e-06
4.99756311222e-06
4.99761840546e-06
4.99766644334e-06
4.99774973641e-06
4.99770638058e-06
4.99765625231e-06
4.9975995246e-06
4.99754697042e-06
4.9975043779e-06
4.99747669192e-06
4.9974670009e-06
4.997476617e-06
4.99750427296e-06
4.99754692136e-06
4.99759955371e-06
4.99765624586e-06
4.99770640968e-06
4.99774947634e-06
4.99781318889e-06
4.99777231044e-06
4.99772548598e-06
4.99767127393e-06
4.99762063266e-06
4.99757932738e-06
4.99755238482e-06
4.99754294204e-06
4.99755231837e-06
4.99757923047e-06
4.9976205749e-06
4.99767128498e-06
4.99772548168e-06
4.99777237479e-06
4.9978129303e-06
4.99786403731e-06
4.99782438729e-06
4.9977798807e-06
4.99772749788e-06
4.99767831323e-06
4.99763802817e-06
4.99761169141e-06
4.99760245539e-06
4.99761163446e-06
4.99763794261e-06
4.9976782529e-06
4.99772749853e-06
4.9977798837e-06
4.99782445362e-06
4.99786380362e-06
4.99790647895e-06
4.99786734323e-06
4.99782468445e-06
4.99777385087e-06
4.99772600058e-06
4.99768672967e-06
4.99766102425e-06
4.99765200966e-06
4.9976609766e-06
4.99768665779e-06
4.99772594765e-06
4.99777385188e-06
4.99782470367e-06
4.99786741943e-06
4.99790625111e-06
4.99794268564e-06
4.99790381927e-06
4.99786287263e-06
4.99781358565e-06
4.99776718231e-06
4.99772909744e-06
4.99770416615e-06
4.99769542868e-06
4.99770412793e-06
4.99772903989e-06
4.99776713818e-06
4.99781358528e-06
4.99786289533e-06
4.99790389813e-06
4.99794243684e-06
4.99797476285e-06
4.997936387e-06
4.99789730861e-06
4.99784982471e-06
4.99780520193e-06
4.99776864658e-06
4.99774474049e-06
4.99773637281e-06
4.99774471074e-06
4.99776860228e-06
4.99780516886e-06
4.99784982624e-06
4.99789733046e-06
4.99793646272e-06
4.99797448919e-06
4.99800498706e-06
4.9979677283e-06
4.99793088907e-06
4.99788564863e-06
4.99784329917e-06
4.99780874139e-06
4.99778619591e-06
4.99777831765e-06
4.99778617258e-06
4.99780870763e-06
4.99784327202e-06
4.99788564539e-06
4.99793089873e-06
4.99796778307e-06
4.99800468043e-06
4.99803552982e-06
4.99800028768e-06
4.99796614253e-06
4.9979236561e-06
4.99788416177e-06
4.99785215922e-06
4.99783136525e-06
4.99782412011e-06
4.99783134739e-06
4.99785213304e-06
4.99788414033e-06
4.99792364626e-06
4.99796613912e-06
4.99800031661e-06
4.99803518574e-06
4.99806814826e-06
4.99803591225e-06
4.9980048216e-06
4.9979655669e-06
4.9979295764e-06
4.99790075086e-06
4.99788215934e-06
4.99787570249e-06
4.99788214499e-06
4.99790073019e-06
4.99792955302e-06
4.99796554936e-06
4.99800480084e-06
4.99803592055e-06
4.9980677784e-06
4.99810537271e-06
4.99807654658e-06
4.99804826451e-06
4.99801242123e-06
4.99798049399e-06
4.99795547553e-06
4.99793951328e-06
4.99793401472e-06
4.99793950127e-06
4.997955452e-06
4.99798047231e-06
4.99801238827e-06
4.99804822853e-06
4.99807653153e-06
4.99810498066e-06
4.99815600663e-06
4.99812962066e-06
4.99810087909e-06
4.99806693998e-06
4.99803855951e-06
4.99801705044e-06
4.99800358727e-06
4.99799897395e-06
4.9980035707e-06
4.99801702952e-06
4.9980385237e-06
4.99806690046e-06
4.99810082215e-06
4.99812958379e-06
4.99815560641e-06
4.99823803826e-06
4.99819818679e-06
4.99816156932e-06
4.9981266039e-06
4.9980998976e-06
4.99808043105e-06
4.99806845194e-06
4.99806439314e-06
4.99806842985e-06
4.99808038824e-06
4.99809984317e-06
4.99812652462e-06
4.9981614702e-06
4.99819808556e-06
4.99823766277e-06
4.38807521876e-06
4.38811560858e-06
4.38816107162e-06
4.38820762075e-06
4.38824947052e-06
4.38828248762e-06
4.38830367449e-06
4.38831115788e-06
4.3883041756e-06
4.38828343564e-06
4.38825074766e-06
4.38820905405e-06
4.38816253726e-06
4.38811687326e-06
4.38807662909e-06
4.38810859047e-06
4.3881483477e-06
4.38819404652e-06
4.38824091854e-06
4.38828326769e-06
4.3883167896e-06
4.38833835705e-06
4.38834599399e-06
4.38833888022e-06
4.38831777762e-06
4.38828459128e-06
4.38824238797e-06
4.38819550523e-06
4.38814961696e-06
4.38810988193e-06
4.38809655913e-06
4.38813266937e-06
4.38817538612e-06
4.38821977357e-06
4.38826029911e-06
4.3882925638e-06
4.38831339859e-06
4.38832078576e-06
4.3883138871e-06
4.38829348794e-06
4.38826154279e-06
4.38822117582e-06
4.38817678384e-06
4.38813396448e-06
4.38809781442e-06
4.38808089685e-06
4.38811438933e-06
4.3881547177e-06
4.38819699214e-06
4.38823591102e-06
4.38826704888e-06
4.38828721513e-06
4.38829436605e-06
4.38828765929e-06
4.38826789113e-06
4.38823704995e-06
4.38819829165e-06
4.38815603756e-06
4.38811565326e-06
4.38808213248e-06
4.38807077754e-06
4.38810265721e-06
4.38814141069e-06
4.38818211224e-06
4.38821978242e-06
4.38825002289e-06
4.38826964505e-06
4.38827660213e-06
4.38827005066e-06
4.38825079318e-06
4.38822083223e-06
4.3881833231e-06
4.38814267262e-06
4.38810388549e-06
4.388071988e-06
4.38806326471e-06
4.38809392353e-06
4.38813150902e-06
4.38817079068e-06
4.38820727313e-06
4.3882366174e-06
4.38825568271e-06
4.38826243813e-06
4.38825605211e-06
4.38823732053e-06
4.38820823571e-06
4.38817191058e-06
4.38813269018e-06
4.3880951253e-06
4.38806440548e-06
4.38805633798e-06
4.38808601451e-06
4.38812260065e-06
4.38816049422e-06
4.38819574643e-06
4.38822412154e-06
4.38824256735e-06
4.38824909725e-06
4.3882429031e-06
4.38822476322e-06
4.38819663052e-06
4.38816153566e-06
4.38812371149e-06
4.38808718806e-06
4.38805742098e-06
4.3880493478e-06
4.38807822727e-06
4.38811390145e-06
4.38815039841e-06
4.38818433507e-06
4.38821164152e-06
4.38822938847e-06
4.3882356644e-06
4.3882296935e-06
4.38821222617e-06
4.38818514619e-06
4.38815136426e-06
4.38811494924e-06
4.38807936084e-06
4.38805039363e-06
4.38804195862e-06
4.38807014932e-06
4.38810496312e-06
4.388140021e-06
4.38817253876e-06
4.38819866635e-06
4.38821563017e-06
4.38822162191e-06
4.38821590854e-06
4.38819920146e-06
4.38817328816e-06
4.38814092414e-06
4.38810596092e-06
4.38807125146e-06
4.38804295373e-06
4.38803389628e-06
4.38806155299e-06
4.38809552921e-06
4.38812907992e-06
4.38816005869e-06
4.38818488356e-06
4.38820097653e-06
4.38820665099e-06
4.38820123109e-06
4.38818537592e-06
4.3881607523e-06
4.38812992821e-06
4.38809648314e-06
4.38806262893e-06
4.3880348475e-06
4.38802513825e-06
4.38805248402e-06
4.38808561038e-06
4.38811756222e-06
4.38814686004e-06
4.38817025604e-06
4.38818538387e-06
4.38819071037e-06
4.38818561946e-06
4.38817071241e-06
4.3881475096e-06
4.38811836301e-06
4.3880865263e-06
4.38805352903e-06
4.38802603249e-06
4.3880156863e-06
4.38804310371e-06
4.38807539537e-06
4.38810566813e-06
4.38813317714e-06
4.38815502874e-06
4.38816911853e-06
4.38817406523e-06
4.38816933775e-06
4.3881554575e-06
4.38813378559e-06
4.38810643033e-06
4.38807627461e-06
4.38804411225e-06
4.38801651474e-06
4.38800528927e-06
4.38803343088e-06
4.38806504023e-06
4.3880936928e-06
4.3881194288e-06
4.38813976048e-06
4.38815279216e-06
4.38815736559e-06
4.38815299977e-06
4.38814015886e-06
4.38812000958e-06
4.38809441275e-06
4.38806588455e-06
4.38803439618e-06
4.38800604811e-06
4.38799749383e-06
4.38802714611e-06
4.38805690501e-06
4.3880832854e-06
4.38810686919e-06
4.38812535024e-06
4.38813714781e-06
4.38814126079e-06
4.38813733928e-06
4.38812573291e-06
4.38810741192e-06
4.38808397743e-06
4.38805770825e-06
4.38802806266e-06
4.38799815777e-06
4.38802785112e-06
4.38804478622e-06
4.38806428496e-06
4.38808224912e-06
4.3880988963e-06
4.38811204721e-06
4.38812043813e-06
4.38812338187e-06
4.38812062102e-06
4.3881124022e-06
4.38809941576e-06
4.38808290183e-06
4.38806505263e-06
4.38804565336e-06
4.38802850966e-06
4.16645954207e-06
4.16643757659e-06
4.16641380387e-06
4.16638869743e-06
4.16636599089e-06
4.16634795177e-06
4.16633640438e-06
4.16633241335e-06
4.16633640999e-06
4.16634796838e-06
4.16636602879e-06
4.1663888314e-06
4.1664141126e-06
4.16643816388e-06
4.16645983559e-06
4.16646411443e-06
4.1664432819e-06
4.16642005096e-06
4.16639531549e-06
4.16637278511e-06
4.1663548006e-06
4.16634324501e-06
4.16633923814e-06
4.16634324142e-06
4.16635479874e-06
4.16637280193e-06
4.16639542691e-06
4.16642034312e-06
4.16644381076e-06
4.16646438776e-06
4.16649492316e-06
4.1664768178e-06
4.16645592298e-06
4.16643304082e-06
4.16641191707e-06
4.16639490312e-06
4.16638391003e-06
4.16638008627e-06
4.16638390869e-06
4.1663949081e-06
4.16641194835e-06
4.16643316542e-06
4.16645622499e-06
4.16647730268e-06
4.16649520637e-06
4.16652308677e-06
4.16650671826e-06
4.16648757831e-06
4.1664660554e-06
4.16644597933e-06
4.16642968588e-06
4.16641910758e-06
4.16641542077e-06
4.16641911273e-06
4.16642970726e-06
4.16644604156e-06
4.16646621657e-06
4.16648790012e-06
4.16650720742e-06
4.16652336564e-06
4.1665444751e-06
4.16652899749e-06
4.16651098081e-06
4.16649033266e-06
4.16647094518e-06
4.16645512647e-06
4.1664448214e-06
4.16644122616e-06
4.16644483484e-06
4.16645516585e-06
4.16647103667e-06
4.16649052835e-06
4.16651132104e-06
4.16652950525e-06
4.16654476094e-06
4.16656165171e-06
4.16654669494e-06
4.16652945792e-06
4.16650948089e-06
4.16649065227e-06
4.16647523932e-06
4.16646517557e-06
4.16646166393e-06
4.16646519934e-06
4.1664753002e-06
4.16649077757e-06
4.16650971575e-06
4.16652982439e-06
4.16654719974e-06
4.16656196874e-06
4.16657619975e-06
4.16656153824e-06
4.16654493188e-06
4.1665255631e-06
4.16650727139e-06
4.16649227454e-06
4.16648247021e-06
4.16647905138e-06
4.16648250465e-06
4.16649235664e-06
4.16650742676e-06
4.16652582973e-06
4.16654532435e-06
4.16656204356e-06
4.16657653096e-06
4.16658889685e-06
4.16657444246e-06
4.16655841811e-06
4.166539662e-06
4.16652194954e-06
4.16650742909e-06
4.16649793445e-06
4.16649462782e-06
4.16649797967e-06
4.16650753203e-06
4.1665221324e-06
4.16653995317e-06
4.16655882252e-06
4.16657494266e-06
4.16658921421e-06
4.16660039967e-06
4.16658620383e-06
4.16657078406e-06
4.16655271314e-06
4.16653567621e-06
4.16652172967e-06
4.16651261765e-06
4.16650944934e-06
4.16651267177e-06
4.1665218487e-06
4.16653587803e-06
4.166553018e-06
4.16657118816e-06
4.16658669008e-06
4.16660069801e-06
4.16661136974e-06
4.16659757242e-06
4.1665828233e-06
4.1665655486e-06
4.16654931486e-06
4.16653606792e-06
4.16652742868e-06
4.16652443193e-06
4.16652748931e-06
4.16653619784e-06
4.16654952765e-06
4.16656585448e-06
4.16658321276e-06
4.16659802758e-06
4.16661163579e-06
4.16662235725e-06
4.16660913634e-06
4.16659514644e-06
4.16657879449e-06
4.16656351447e-06
4.16655110962e-06
4.16654304603e-06
4.1665402567e-06
4.16654310913e-06
4.1665512437e-06
4.1665637274e-06
4.16657909037e-06
4.16659551286e-06
4.1666095543e-06
4.16662258473e-06
4.1666337499e-06
4.1666212846e-06
4.16660812359e-06
4.16659280789e-06
4.16657863906e-06
4.16656723582e-06
4.16655986087e-06
4.16655731952e-06
4.16655992345e-06
4.16656736489e-06
4.16657884333e-06
4.1665930831e-06
4.16660845727e-06
4.1666216665e-06
4.16663394304e-06
4.16664612172e-06
4.16663446795e-06
4.16662204789e-06
4.16660777854e-06
4.16659483895e-06
4.16658457203e-06
4.16657799324e-06
4.16657573635e-06
4.16657804955e-06
4.16658469283e-06
4.16659502351e-06
4.16660802588e-06
4.16662234542e-06
4.16663480979e-06
4.16664628012e-06
4.16666133361e-06
4.16665017649e-06
4.16663773282e-06
4.16662415277e-06
4.16661231926e-06
4.16660315678e-06
4.16659735862e-06
4.16659538415e-06
4.16659740683e-06
4.16660325891e-06
4.16661247911e-06
4.16662436294e-06
4.16663798698e-06
4.16665047343e-06
4.16666145282e-06
4.16667990775e-06
4.16666562499e-06
4.1666523948e-06
4.16663965585e-06
4.16662922559e-06
4.16662137922e-06
4.16661648951e-06
4.1666148341e-06
4.16661652477e-06
4.16662145604e-06
4.16662934699e-06
4.16663981659e-06
4.16665259345e-06
4.16666586652e-06
4.16668000867e-06
3.72549078484e-06
3.72550281422e-06
3.72551682443e-06
3.72553162481e-06
3.72554513803e-06
3.72555589846e-06
3.7255628277e-06
3.72556529982e-06
3.72556307326e-06
3.72555639067e-06
3.72554587532e-06
3.72553254237e-06
3.72551781697e-06
3.72550363875e-06
3.72549157396e-06
3.72549879996e-06
3.72551053594e-06
3.72552458311e-06
3.72553944301e-06
3.72555308591e-06
3.72556398746e-06
3.72557102771e-06
3.72557354755e-06
3.72557128612e-06
3.72556450442e-06
3.72555385776e-06
3.7255404021e-06
3.72552560901e-06
3.72551141485e-06
3.72549952869e-06
3.7254945477e-06
3.72550528198e-06
3.72551854303e-06
3.72553272107e-06
3.7255458697e-06
3.7255564326e-06
3.72556328374e-06
3.72556574068e-06
3.72556353401e-06
3.725556932e-06
3.72554660977e-06
3.72553364669e-06
3.72551953444e-06
3.72550619151e-06
3.72549527819e-06
3.72548988834e-06
3.72550001195e-06
3.72551268546e-06
3.72552634545e-06
3.72553909846e-06
3.72554938601e-06
3.72555608055e-06
3.72555848284e-06
3.72555631844e-06
3.72554985948e-06
3.72553979654e-06
3.7255272251e-06
3.72551364902e-06
3.72550092872e-06
3.72549065855e-06
3.72548724001e-06
3.72549706907e-06
3.72550940515e-06
3.72552272283e-06