/*--------------------------------*- C++ -*----------------------------------*\
  =========                 |
  \\      /  F ield         | OpenFOAM: The Open Source CFD Toolbox
   \\    /   O peration     | Website:  https://openfoam.org
    \\  /    A nd           | Version:  7
     \\/     M anipulation  |
\*---------------------------------------------------------------------------*/
FoamFile
{
    version     2.0;
    format      ascii;
    class       volVectorField;
    location    "1.34";
    object      U;
}
// * * * * * * * * * * * * * * * * * * * * * * * * * * * * * * * * * * * * * //

dimensions      [0 1 -1 0 0 0 0];

internalField   nonuniform List<vector> 
22500
(
(-7.98288710971e-06 -9.18056949223e-06 -9.30661203425e-06)
(-7.22722905741e-06 -1.05485540267e-05 -9.27740802419e-06)
(-6.22456239739e-06 -1.1809713561e-05 -8.88899967402e-06)
(-5.14831691445e-06 -1.28478838293e-05 -8.33739546475e-06)
(-3.9539620533e-06 -1.3676611131e-05 -7.76783329373e-06)
(-2.68860319941e-06 -1.42771544498e-05 -7.28836059463e-06)
(-1.37076738871e-06 -1.46421869524e-05 -6.97510434926e-06)
(-2.58054176071e-08 -1.47665999501e-05 -6.87266470124e-06)
(1.31964759671e-06 -1.4647892818e-05 -6.99255340865e-06)
(2.6389122508e-06 -1.42883776464e-05 -7.32318735588e-06)
(3.9064927704e-06 -1.36929590262e-05 -7.81981598488e-06)
(5.10363821796e-06 -1.28687122699e-05 -8.40621337396e-06)
(6.18352920935e-06 -1.18341880725e-05 -8.97449037316e-06)
(7.18930845178e-06 -1.05762015627e-05 -9.38019269901e-06)
(7.95231834036e-06 -9.20807066503e-06 -9.42822281239e-06)
(-2.41684480516e-05 -2.76089824625e-05 -5.77214894836e-05)
(-2.19248833701e-05 -3.16155516392e-05 -6.05848614739e-05)
(-1.896901479e-05 -3.53315699466e-05 -6.22227505101e-05)
(-1.57036800926e-05 -3.84256215437e-05 -6.30565353844e-05)
(-1.20827732306e-05 -4.09027885643e-05 -6.34065647301e-05)
(-8.22439115148e-06 -4.27029882355e-05 -6.3506895265e-05)
(-4.1978699544e-06 -4.37993599517e-05 -6.35181258891e-05)
(-8.44556222133e-08 -4.41729807604e-05 -6.3532048561e-05)
(4.03085850009e-06 -4.38160914157e-05 -6.3570150702e-05)
(8.0629871605e-06 -4.27357569026e-05 -6.36108345595e-05)
(1.19303779754e-05 -4.09501298639e-05 -6.35619309832e-05)
(1.55631121785e-05 -3.84852788199e-05 -6.32626659093e-05)
(1.88432419032e-05 -3.5400510937e-05 -6.24795369141e-05)
(2.18141627334e-05 -3.16916432894e-05 -6.0894506504e-05)
(2.40819437946e-05 -2.7684460562e-05 -5.80876931257e-05)
(-3.96672567788e-05 -4.49995843893e-05 -0.000133673617779)
(-3.5968413029e-05 -5.13833638621e-05 -0.000141954181483)
(-3.11785615638e-05 -5.72968890581e-05 -0.000148016175443)
(-2.58183365979e-05 -6.2251367259e-05 -0.000152371413205)
(-1.98771269099e-05 -6.62253592001e-05 -0.000155412881911)
(-1.35321192954e-05 -6.91200069262e-05 -0.000157419367625)
(-6.90484437804e-06 -7.08855117213e-05 -0.000158575308337)
(-1.31932568879e-07 -7.14874715076e-05 -0.000158982320959)
(6.64383140217e-06 -7.09123056543e-05 -0.000158661009014)
(1.32795382075e-05 -6.91724423843e-05 -0.00015759070309)
(1.96381262759e-05 -6.63009782817e-05 -0.000155669130514)
(2.55972195506e-05 -6.2346450098e-05 -0.000152711551793)
(3.09796722965e-05 -5.74064466455e-05 -0.000148439989634)
(3.57932211331e-05 -5.15035911537e-05 -0.000142465195228)
(3.95286955136e-05 -4.51199012107e-05 -0.000134277773127)
(-5.41856863079e-05 -6.11180034314e-05 -0.000233514446055)
(-4.91096872404e-05 -6.95463959733e-05 -0.000249015667925)
(-4.26191656739e-05 -7.73344521852e-05 -0.000261175303543)
(-3.52951497588e-05 -8.38837084035e-05 -0.000270522632088)
(-2.71821099692e-05 -8.9144020251e-05 -0.000277461505469)
(-1.85065899309e-05 -9.29818686225e-05 -0.000282268243107)
(-9.44055181424e-06 -9.53250569468e-05 -0.000285117375828)
(-1.73065141201e-07 -9.61239806225e-05 -0.000286100522831)
(9.09805354047e-06 -9.53596092785e-05 -0.000285232803903)
(1.8174866105e-05 -9.30494701674e-05 -0.000282499339539)
(2.68678488217e-05 -8.92414391065e-05 -0.000277807680717)
(3.50040799254e-05 -8.40061040934e-05 -0.000270982927809)
(4.23568877672e-05 -7.74753206946e-05 -0.000261749742436)
(4.88789705339e-05 -6.97007471831e-05 -0.000249709349948)
(5.40013286977e-05 -6.12736744473e-05 -0.000234336322148)
(-6.74568814756e-05 -7.57288472515e-05 -0.000352194898293)
(-6.11056963574e-05 -8.58196051879e-05 -0.000375831654063)
(-5.30588184071e-05 -9.51098986146e-05 -0.00039487967758)
(-4.39334573286e-05 -0.000102939199596 -0.000409882087725)
(-3.38363215636e-05 -0.000109231777333 -0.000421240494144)
(-2.30345006777e-05 -0.000113828017316 -0.000429221684223)
(-1.17455833172e-05 -0.000116636217369 -0.00043398726764)
(-2.05352405479e-07 -0.000117593530012 -0.000435618712327)
(1.13390272269e-05 -0.000116676319046 -0.000434127665949)
(2.2640289361e-05 -0.000113906500662 -0.000429503247521)
(3.34622254124e-05 -0.00010934491157 -0.000421663085331)
(4.35862886834e-05 -0.000103081420191 -0.000410445155658)
(5.27451153639e-05 -9.52737305108e-05 -0.000395583716421)
(6.0829321122e-05 -8.59993340201e-05 -0.000376683599498)
(6.72333090576e-05 -7.59116634664e-05 -0.00035320755681)
(-7.92554854995e-05 -8.86259033632e-05 -0.000484051748188)
(-7.17415328215e-05 -9.99618247818e-05 -0.000515868911513)
(-6.22941600343e-05 -0.00011035146456 -0.000541756624248)
(-5.15574340103e-05 -0.000119115420217 -0.000562325168036)
(-3.9699348035e-05 -0.000126159470648 -0.000577999881287)
(-2.70182443998e-05 -0.000131308707048 -0.000589061024327)
(-1.37699849024e-05 -0.000134456321289 -0.00059567617088)
(-2.29028356024e-07 -0.000135529099933 -0.000597929942354)
(1.33163368522e-05 -0.000134499858683 -0.000595836667284)
(2.65777511454e-05 -0.000131393985384 -0.0005893834338)
(3.92803921423e-05 -0.00012628254913 -0.000578484715714)
(5.11675188584e-05 -0.000119270407745 -0.00056297246883)
(6.19404109514e-05 -0.000110530448935 -0.000542567435124)
(7.14286530419e-05 -0.000100158793963 -0.000516852214973)
(7.89989346067e-05 -8.8828165608e-05 -0.000485225003894)
(-8.94228552894e-05 -9.96628237334e-05 -0.000623481414137)
(-8.08625105851e-05 -0.000111810642058 -0.000662810739296)
(-7.01800632405e-05 -0.000122887322531 -0.000694835201014)
(-5.80424979318e-05 -0.000132230230159 -0.000720318238178)
(-4.46727091084e-05 -0.000139736498142 -0.000739753888734)
(-3.03901398005e-05 -0.000145226833799 -0.000753470643992)
(-1.54798488604e-05 -0.000148584266216 -0.000761668220241)
(-2.45522559876e-07 -0.000149728342814 -0.00076445155375)
(1.49932715e-05 -0.000148629424529 -0.000761844496915)
(2.99169286901e-05 -0.000145315391207 -0.000753825268241)
(4.42214745969e-05 -0.000139864544226 -0.000740288052645)
(5.76210873847e-05 -0.000132391877693 -0.000721032555117)
(6.97958639806e-05 -0.000123074664611 -0.000695731145309)
(8.05208428372e-05 -0.000112017713646 -0.000663899454543)
(8.91387765536e-05 -9.98776485141e-05 -0.000624785458748)
(-9.78672611628e-05 -0.000108755678398 -0.000765454539888)
(-8.83781936537e-05 -0.000121282256524 -0.000811142377755)
(-7.66333114504e-05 -0.000132640752091 -0.000848193995038)
(-6.33190011565e-05 -0.000142213023715 -0.000877617580274)
(-4.87027085961e-05 -0.000149898440683 -0.000900017820177)
(-3.31141878032e-05 -0.00015552276564 -0.000915800070807)
(-1.68578374589e-05 -0.000158963497238 -0.000925216606508)
(-2.56696708131e-07 -0.000160135878834 -0.000928405621827)
(1.63488367804e-05 -0.000159008846276 -0.000925405312939)
(3.26183600178e-05 -0.000155611822815 -0.000916180116275)
(4.82286210445e-05 -0.000150027503468 -0.000900590963197)
(6.28745827071e-05 -0.000142376454933 -0.000878384801615)
(7.62259651087e-05 -0.000132830975011 -0.000849156905214)
(8.8013681605e-05 -0.000121493585566 -0.000812314316611)
(9.7560043311e-05 -0.000108977303976 -0.000766863131028)
(-0.000104553519186 -0.000115873310582 -0.000905812167169)
(-9.42542777288e-05 -0.000128357056845 -0.000956451860656)
(-8.1625258027e-05 -0.000139609679383 -0.000997254155054)
(-6.7365999566e-05 -0.000149078998689 -0.00102954501025)
(-5.17752227566e-05 -0.00015667669199 -0.00105406070617)
(-3.51821598725e-05 -0.000162240322271 -0.00107129412149)
(-1.79009003501e-05 -0.000165645594763 -0.00108155742434)
(-2.64395289502e-07 -0.000166806021901 -0.00108502676545)
(1.73763490391e-05 -0.000165690061813 -0.00108175629401)
(3.46703481341e-05 -0.000162327787437 -0.00107169491809)
(5.12845057648e-05 -0.000156803783465 -0.00105466556606)
(6.69042118629e-05 -0.000149240506955 -0.00103035497367)
(8.1199658365e-05 -0.000139798585006 -0.00099827057537)
(9.38709482601e-05 -0.00012856813987 -0.000957690311399)
(0.000104226278286 -0.000116097146367 -0.000907304857667)
(-0.000109491393022 -0.00012102700543 -0.00104134779123)
(-9.85022287825e-05 -0.000133064860067 -0.00109547166367)
(-8.51723033088e-05 -0.000143846971277 -0.00113877215919)
(-7.02027765489e-05 -0.000152905347981 -0.00117292624532)
(-5.39084026406e-05 -0.000160170940926 -0.00119879001419)
(-3.66080928395e-05 -0.000165496140914 -0.00121693263158)
(-1.86172110769e-05 -0.000168757540006 -0.00122771961292)
(-2.70198326285e-07 -0.000169869288356 -0.00123136160705)
(1.80808610503e-05 -0.000168800333381 -0.00122792735357)
(3.60839251392e-05 -0.000165580466837 -0.0012173514747)
(5.34044656826e-05 -0.000160293844249 -0.0011994223043)
(6.97267075534e-05 -0.000153062181953 -0.00117377277659)
(8.47311343897e-05 -0.000144031434848 -0.00113983362264)
(9.81023094385e-05 -0.000133272340029 -0.00109676601522)
(0.000109145929009 -0.000121249543286 -0.00104291114483)
(-0.000112724728823 -0.000124262234927 -0.00116971593615)
(-0.000101169055416 -0.000135471426485 -0.0012259309308)
(-8.7326403801e-05 -0.000145444027009 -0.00127063502612)
(-7.18798919575e-05 -0.000153812835595 -0.0013058252063)
(-5.51445482682e-05 -0.000160528314942 -0.00133242825281)
(-3.74220357058e-05 -0.000165456350228 -0.00135106070698)
(-1.90227319631e-05 -0.000168476608884 -0.00136212551226)
(-2.75307827565e-07 -0.000169506661687 -0.00136585909634)
(1.84759535416e-05 -0.00016851712579 -0.00136234155565)
(3.68868270363e-05 -0.000165536355088 -0.00135149641666)
(5.46286008226e-05 -0.000160645333845 -0.00133308613389)
(7.13905897645e-05 -0.000153962889812 -0.0013067056159)
(8.6870529927e-05 -0.000145621662121 -0.00127173760999)
(0.00010075319048 -0.000135672777303 -0.00122727629263)
(0.000112361570485 -0.000124480768048 -0.00117134376016)
(-0.000114318143679 -0.000125645575398 -0.00128921542912)
(-0.000102327679208 -0.000135661744202 -0.00134630002955)
(-8.81670435747e-05 -0.000144517510402 -0.00139156640433)
(-7.24704711506e-05 -0.000151954251642 -0.00142720029516)
(-5.55414570146e-05 -0.000157930799724 -0.00145412144357)
(-3.76632669771e-05 -0.000162322047816 -0.00147296029379)
(-1.91375519377e-05 -0.000165014416157 -0.001484139654)
(-2.80532072573e-07 -0.000165933135219 -0.00148791161692)
(1.85801122809e-05 -0.000165052162132 -0.00148436382424)
(3.71167659915e-05 -0.000162396751162 -0.0014734126049)
(5.50132062849e-05 -0.000158040513354 -0.00145480474991)
(7.19675718892e-05 -0.000152095750244 -0.00142811458893)
(8.76960401926e-05 -0.000144686307682 -0.0013927098795)
(0.000101895378433 -0.000135854840054 -0.00134769587042)
(0.000113936783221 -0.000125857720309 -0.00129090753081)
(-0.000114345689539 -0.000125225597192 -0.00139847996534)
(-0.000102080520114 -0.000133722394606 -0.00145551246626)
(-8.78004124489e-05 -0.000141208302009 -0.00150083948968)
(-7.2062282026e-05 -0.000147516686229 -0.00153657565104)
(-5.51628562798e-05 -0.000152595607475 -0.00156357256766)
(-3.73729074149e-05 -0.000156327380149 -0.00158245766922)
(-1.89820629698e-05 -0.000158613809633 -0.00159366144909)
(-2.86318974246e-07 -0.00015939429347 -0.00159744285028)
(1.84128458926e-05 -0.000158648343017 -0.00159389355462)
(3.68140103602e-05 -0.000156395900662 -0.00158292645253)
(5.46212005729e-05 -0.000152696690945 -0.00156428179159)
(7.15446718268e-05 -0.000147647945344 -0.00153752558042)
(8.73131828027e-05 -0.000141366336075 -0.00150202652061)
(0.000101630725535 -0.000133905261506 -0.00145696057262)
(0.000113945303641 -0.000125428831995 -0.00140023714109)
(-0.000112964299658 -0.00012305076878 -0.00149607792394)
(-0.000100611804339 -0.000129815954338 -0.00155279214221)
(-8.63618215931e-05 -0.000135724267009 -0.00159807519751)
(-7.07417285391e-05 -0.000140747588002 -0.00163377657347)
(-5.40637943738e-05 -0.000144784003212 -0.00166074305088)
(-3.65846689622e-05 -0.000147739009152 -0.00167960828712)
(-1.85727373427e-05 -0.000149544233012 -0.00169080210391)
(-2.92816885762e-07 -0.000150160575112 -0.00169458225142)
(1.79903400678e-05 -0.000149575166155 -0.00169104139622)
(3.60120440064e-05 -0.000147800533764 -0.00168009245044)
(5.35074863777e-05 -0.000144875194409 -0.00166147776888)
(7.02082323909e-05 -0.000140866910447 -0.00163476418432)
(8.58572496931e-05 -0.000135869577258 -0.00159931108046)
(0.000100143463558 -0.000129986568269 -0.00155429639909)
(0.000112543219028 -0.000123243514269 -0.00149789539186)
(-0.000110540964098 -0.000119992167383 -0.00157992576969)
(-9.81964645766e-05 -0.000124160464109 -0.00163776754198)
(-8.39550135765e-05 -0.000128355797484 -0.00168301102477)
(-6.85824656081e-05 -0.000131894854483 -0.00171863571373)
(-5.23024521124e-05 -0.000134705690297 -0.00174557242195)
(-3.53422653146e-05 -0.000136743570471 -0.00176444058714)
(-1.79333798059e-05 -0.000137981476355 -0.00177564556652)
(-2.99921861984e-07 -0.000138404607529 -0.00177943173596)
(1.73366550583e-05 -0.000138008183297 -0.00177588972833)
(3.47549263239e-05 -0.000136796830018 -0.0017649358312)
(5.17307443454e-05 -0.000134785009105 -0.00174632732165)
(6.80325888242e-05 -0.00013199947725 -0.00171965763396)
(8.34328197056e-05 -0.000128484678067 -0.0016842974974)
(9.77104543912e-05 -0.000124314889632 -0.00163934736032)
(0.000110097140039 -0.000120169590059 -0.00158176223863)
(1.39223250915e-07 2.25627073301e-07 -3.82246698049e-05)
(6.22219327571e-08 3.15630060061e-07 -3.98371889721e-05)
(-4.69240583914e-10 3.73015138398e-07 -4.11130872201e-05)
(-3.81177799073e-08 4.03399342585e-07 -4.21133819616e-05)
(-5.47498371979e-08 4.16512546289e-07 -4.28721270734e-05)
(-4.9873335287e-08 4.19359839886e-07 -4.34059553591e-05)
(-2.93616513241e-08 4.1836544129e-07 -4.37247573619e-05)
(-4.59118042706e-10 4.17799704179e-07 -4.38331688468e-05)
(2.84682945503e-08 4.19141954237e-07 -4.37280675697e-05)
(4.91855804845e-08 4.21074253754e-07 -4.34125757382e-05)
(5.49271301432e-08 4.19538058051e-07 -4.28821186837e-05)
(4.02770149445e-08 4.08171349447e-07 -4.21270009661e-05)
(5.53830262707e-09 3.80057851038e-07 -4.11310297712e-05)
(-5.39818145446e-08 3.25053346589e-07 -3.98615281427e-05)
(-1.29939723351e-07 2.35908466293e-07 -3.82614670953e-05)
(1.15590548241e-06 1.47000601338e-06 -0.000118489234498)
(9.31395398757e-07 1.85129082725e-06 -0.000123621780714)
(7.04512159228e-07 2.15432113467e-06 -0.000127727424048)
(5.11762553919e-07 2.37789385545e-06 -0.000130965201899)
(3.47051762273e-07 2.53623175505e-06 -0.000133429040661)
(2.14100939096e-07 2.63911578994e-06 -0.000135166683971)
(1.04732288541e-07 2.69681855047e-06 -0.000136205124013)
(8.09435109059e-09 2.71617007267e-06 -0.000136556482377)
(-8.87463768569e-08 2.69945836809e-06 -0.00013621565006)
(-1.98529464077e-07 2.64460365899e-06 -0.000135187734155)
(-3.31364959987e-07 2.54507429871e-06 -0.000133460795384)
(-4.94552075655e-07 2.39061711311e-06 -0.000131008390356)
(-6.84494831642e-07 2.17148596134e-06 -0.000127784027795)
(-9.08348505327e-07 1.87267027101e-06 -0.000123697734659)
(-1.13343032821e-06 1.49247721891e-06 -0.00011859894317)
(2.75663398309e-06 3.32393523842e-06 -0.000201978278812)
(2.37559478022e-06 4.06000100453e-06 -0.000210913686855)
(1.94488897379e-06 4.68429378272e-06 -0.00021811238893)
(1.52854957776e-06 5.17801580589e-06 -0.000223816324713)
(1.12336693834e-06 5.55192393446e-06 -0.000228168709094)
(7.3926674999e-07 5.81133925347e-06 -0.000231244010254)
(3.71806945066e-07 5.96438137381e-06 -0.000233083037625)
(1.36246032596e-08 6.01656115266e-06 -0.000233703779981)
(-3.44805562135e-07 5.9697028541e-06 -0.000233101351857)
(-7.12726691478e-07 5.82227125991e-06 -0.000231280598427)
(-1.09654714365e-06 5.56900354666e-06 -0.000228223802287)
(-1.49955916952e-06 5.20163027114e-06 -0.000223890967401)
(-1.91188908344e-06 4.71446085454e-06 -0.000218209473986)
(-2.33831303038e-06 4.09569988026e-06 -0.000211041910183)
(-2.71989230466e-06 3.36107216437e-06 -0.00020215823033)
(4.66967800785e-06 5.49968938505e-06 -0.000288184625261)
(4.12168174064e-06 6.58544784388e-06 -0.000301132382171)
(3.46439429153e-06 7.53310682092e-06 -0.000311618977175)
(2.78756505497e-06 8.30177138086e-06 -0.000319959837881)
(2.09365712816e-06 8.89754101485e-06 -0.000326338296954)
(1.40036700939e-06 9.31952204691e-06 -0.000330851568658)
(7.0998341922e-07 9.57214155858e-06 -0.000333551829598)
(2.18927400896e-08 9.65851495893e-06 -0.000334461961534)
(-6.66517636239e-07 9.57961607139e-06 -0.000333578401653)
(-1.35758197811e-06 9.33470205146e-06 -0.000330904596431)
(-2.05099281431e-06 8.92077475071e-06 -0.000326417964798)
(-2.74329600452e-06 8.33314357326e-06 -0.000320067259905)
(-3.41674330151e-06 7.57210485727e-06 -0.000311757405267)
(-4.07045962117e-06 6.63053138676e-06 -0.000301311979819)
(-4.62011058475e-06 5.54649564594e-06 -0.000288429600968)
(6.6409499281e-06 7.71032837176e-06 -0.000376563011297)
(5.91591088834e-06 9.08643558971e-06 -0.000393652503921)
(5.0247156429e-06 1.03021536142e-05 -0.000407545480121)
(4.07864282453e-06 1.12961743486e-05 -0.000418628402685)
(3.08753662363e-06 1.20725072444e-05 -0.000427118150169)
(2.07689709069e-06 1.26261332324e-05 -0.00043313161655)
(1.05594758268e-06 1.29591119829e-05 -0.000436730731501)
(3.06415273203e-08 1.30730068681e-05 -0.000437942775496)
(-9.95040507382e-07 1.29682605084e-05 -0.00043676608273)
(-2.01688378859e-06 1.26445562882e-05 -0.000433202067747)
(-3.02814084942e-06 1.2100308161e-05 -0.000427223682907)
(-4.01852200436e-06 1.13331012561e-05 -0.000418769869171)
(-4.96240329499e-06 1.03472455146e-05 -0.000407725861772)
(-5.85130433142e-06 9.13782425938e-06 -0.000393882439438)
(-6.57924484952e-06 7.76368846193e-06 -0.000376868688444)
(8.49161550389e-06 9.7570547914e-06 -0.000466554056228)
(7.58324449715e-06 1.1334838639e-05 -0.000487833120845)
(6.46441932967e-06 1.27318901605e-05 -0.000505174332032)
(5.26179551053e-06 1.38731067521e-05 -0.000519039473061)
(3.99330607402e-06 1.4764292125e-05 -0.000529674690482)
(2.69092470017e-06 1.54000383537e-05 -0.000537213990833)
(1.36932671694e-06 1.57825074866e-05 -0.000541727689529)
(3.90298414038e-08 1.59132681675e-05 -0.000543247011369)
(-1.29166682183e-06 1.57927958279e-05 -0.000541772416154)
(-2.61429105693e-06 1.54206407612e-05 -0.000537302989276)
(-3.91770161572e-06 1.47950955111e-05 -0.000529807539618)
(-5.18631070413e-06 1.39135777367e-05 -0.000519216377959)
(-6.38797798189e-06 1.27807372346e-05 -0.000505397377023)
(-7.50585243528e-06 1.13900770102e-05 -0.000488112749358)
(-8.41813411817e-06 9.81455674021e-06 -0.000466917739649)
(1.00973752086e-05 1.15041287853e-05 -0.00055760425336)
(9.00606909183e-06 1.31834798181e-05 -0.000583042794128)
(7.6782483228e-06 1.46629229594e-05 -0.000603803274879)
(6.24832569453e-06 1.58635460972e-05 -0.000620432653502)
(4.74196664607e-06 1.67964390023e-05 -0.000633203226003)
(3.19528470854e-06 1.74595993144e-05 -0.000642263041741)
(1.62607570601e-06 1.78576575776e-05 -0.000647688845751)
(4.67381558795e-08 1.79936555891e-05 -0.000649514878546)
(-1.5329944083e-06 1.78685844421e-05 -0.00064774362062)
(-3.10328321423e-06 1.74813987199e-05 -0.000642371878784)
(-4.65128244262e-06 1.68288333481e-05 -0.000633365077872)
(-6.15846666846e-06 1.59058037593e-05 -0.00062064667563)
(-7.58852120316e-06 1.47135515097e-05 -0.000604070078745)
(-8.9165943672e-06 1.32405012896e-05 -0.000583372277384)
(-1.00125544757e-05 1.156379382e-05 -0.000558024647275)
(1.13810361559e-05 1.28694856873e-05 -0.000649174887221)
(1.01157164217e-05 1.45525062097e-05 -0.000678669468825)
(8.60814050227e-06 1.60180782661e-05 -0.000702756725618)
(6.99199411483e-06 1.71947118234e-05 -0.000722083008119)
(5.29930754281e-06 1.81010364657e-05 -0.000736942840122)
(3.56752622878e-06 1.87412656755e-05 -0.000747493499912)
(1.81504827348e-06 1.91240249659e-05 -0.00075381486288)
(5.36177670316e-08 1.92547223654e-05 -0.000755942490892)
(-1.70818082847e-06 1.91351491791e-05 -0.000753880449758)
(-3.46172245359e-06 1.87634040784e-05 -0.0007476236531)
(-5.19498430232e-06 1.81338056626e-05 -0.000737135688704)
(-6.88902409201e-06 1.7237257283e-05 -0.000722336274656)
(-8.50619366677e-06 1.6068826503e-05 -0.000703069060302)
(-1.00149949643e-05 1.4609571244e-05 -0.000679050082439)
(-1.12854314024e-05 1.29296385115e-05 -0.000649652366081)
(1.23068229002e-05 1.38182654426e-05 -0.000740731780852)
(1.08852313307e-05 1.54189474045e-05 -0.000774106615009)
(9.23514050364e-06 1.6787426358e-05 -0.000801370423687)
(7.48082136038e-06 1.78702180347e-05 -0.000823285306104)
(5.65857772959e-06 1.86943080183e-05 -0.000840160154955)
(3.80436583057e-06 1.92714102258e-05 -0.000852153517047)
(1.93497463343e-06 1.96145740601e-05 -0.000859343400966)
(5.96042103405e-08 1.97317309277e-05 -0.000861764185991)
(-1.81609334622e-06 1.96255234003e-05 -0.000859420795667)
(-3.68648148627e-06 1.92931666462e-05 -0.00085230693609)
(-5.54222945292e-06 1.87264332091e-05 -0.000840386699383)
(-7.36617428175e-06 1.79118133429e-05 -0.000823580879104)
(-9.12217616744e-06 1.68369304773e-05 -0.000801731250394)
(-1.07742437889e-05 1.5474658211e-05 -0.000774541154803)
(-1.22011300144e-05 1.38775358019e-05 -0.000741268778785)
(1.28720262762e-05 1.43533033107e-05 -0.000831713670781)
(1.13196239404e-05 1.58028538963e-05 -0.000868715950474)
(9.56911920158e-06 1.7009609059e-05 -0.000898954119979)
(7.72728621296e-06 1.79467240583e-05 -0.000923317233755)
(5.83207274916e-06 1.86490015966e-05 -0.000942112171119)
(3.9155026179e-06 1.91353623482e-05 -0.000955486645338)
(1.99116526385e-06 1.94226118066e-05 -0.000963510322377)
(6.46740453931e-08 1.9520742284e-05 -0.000966213396117)
(-1.86209280329e-06 1.94330631945e-05 -0.000963600734895)
(-3.78731672238e-06 1.91561143876e-05 -0.000955665664969)
(-5.70537280581e-06 1.86796185813e-05 -0.000942375691835)
(-7.60245478796e-06 1.79863366341e-05 -0.000923659054592)
(-9.44639163034e-06 1.70567575758e-05 -0.000899367678745)
(-1.11994052066e-05 1.58560860054e-05 -0.000869209099559)
(-1.27570667141e-05 1.44106059591e-05 -0.000832314918161)
(1.30977084621e-05 1.45043168032e-05 -0.000921475025892)
(1.14454920705e-05 1.57524423944e-05 -0.000961768127318)
(9.63851060316e-06 1.67528840608e-05 -0.000994738834134)
(7.75889990635e-06 1.75113230246e-05 -0.00102139145577)
(5.84329481752e-06 1.80686528208e-05 -0.00104199994262)
(3.91799604757e-06 1.84492227753e-05 -0.00105668549075)
(1.99257743547e-06 1.86720876764e-05 -0.00106550292618)
(6.88454168052e-08 1.87483749054e-05 -0.00106847566481)
(-1.85510395728e-06 1.86817711526e-05 -0.00106560769296)
(-3.78126161276e-06 1.84684524788e-05 -0.00105689274325)
(-5.70790454321e-06 1.80970475593e-05 -0.00104230433129)
(-7.62537211155e-06 1.75481121443e-05 -0.00102178451047)
(-9.50726396964e-06 1.67967944979e-05 -0.000995210896997)
(-1.13170630644e-05 1.58023102573e-05 -0.000962326709948)
(-1.29743251873e-05 1.45588561586e-05 -0.000922148049745)
(1.30194230879e-05 1.43176304739e-05 -0.0010091939459)
(1.13017124769e-05 1.53304392487e-05 -0.00105236504289)
(9.48183237635e-06 1.60987699292e-05 -0.00108782075164)
(7.61075795384e-06 1.66631599634e-05 -0.00111660906984)
(5.72088371769e-06 1.70674982716e-05 -0.00113892425084)
(3.83196885336e-06 1.73384673993e-05 -0.00115484739261)
(1.94957823425e-06 1.7495299037e-05 -0.00116441533456)
(7.21618546142e-08 1.75492528043e-05 -0.00116764387788)
(-1.80540923185e-06 1.75039815156e-05 -0.00116453582694)
(-3.68836155486e-06 1.73557426472e-05 -0.00115508571707)
(-5.57839243133e-06 1.70930773964e-05 -0.00113927399105)
(-7.46996183773e-06 1.66964413011e-05 -0.00111705953077)
(-9.34326515929e-06 1.61387296238e-05 -0.00108835884119)
(-1.11660251372e-05 1.53762401525e-05 -0.00105299798167)
(-1.28884187173e-05 1.43686964702e-05 -0.0010099492122)
(1.26779881848e-05 1.38437834543e-05 -0.00109372453846)
(1.09326453645e-05 1.46011573844e-05 -0.00113936283321)
(9.14238558171e-06 1.51294057193e-05 -0.001177127319)
(7.320758899e-06 1.55004706942e-05 -0.00120793118606)
(5.49462389763e-06 1.57568978216e-05 -0.00123185366154)
(3.67773699965e-06 1.59236935115e-05 -0.00124893944403)
(1.87246881931e-06 1.60183623436e-05 -0.0012592119547)
(7.46759936198e-08 1.60512438672e-05 -0.00126268127915)
(-1.72319777179e-06 1.6025859168e-05 -0.00125934941694)
(-3.52882696952e-06 1.59386546113e-05 -0.00124921160682)
(-5.34654000376e-06 1.57791541079e-05 -0.00123225357404)
(-7.17406604971e-06 1.55296435956e-05 -0.00120844642456)
(-8.99766989044e-06 1.51648149891e-05 -0.00117774097163)
(-1.07906651456e-05 1.46423152821e-05 -0.00114008061278)
(-1.25401785879e-05 1.38907032352e-05 -0.00109457322087)
(1.21186546088e-05 1.31289984886e-05 -0.00117335695216)
(1.0390605554e-05 1.36333102503e-05 -0.00122138435447)
(8.66821059077e-06 1.39252281635e-05 -0.00126145866655)
(6.92719071511e-06 1.4117158759e-05 -0.00129418707299)
(5.1928397593e-06 1.42399599493e-05 -0.00131961217802)
(3.47398937065e-06 1.4313860608e-05 -0.00133777653235)
(1.77053689287e-06 1.43534242113e-05 -0.00134870131848)
(7.64497581944e-08 1.43676416823e-05 -0.00135239403622)
(-1.61766192459e-06 1.43596112635e-05 -0.00134885649558)
(-3.3213038222e-06 1.43262645537e-05 -0.00133808449343)
(-5.04068795261e-06 1.425855194e-05 -0.00132006649797)
(-6.77603344494e-06 1.41418174291e-05 -0.00129477514619)
(-8.51860951884e-06 1.39556504988e-05 -0.00126216014466)
(-1.02434239852e-05 1.36695041291e-05 -0.00122219923062)
(-1.1974925481e-05 1.31716380733e-05 -0.00117430683322)
(1.13885734262e-05 1.23201740154e-05 -0.00124568226538)
(9.73819807491e-06 1.24754671146e-05 -0.00129740603637)
(8.10013811442e-06 1.2554805197e-05 -0.00133968636185)
(6.45980328646e-06 1.25880924847e-05 -0.00137413349296)
(4.83668651738e-06 1.25930345832e-05 -0.00140089043558)
(3.23441492393e-06 1.25855609414e-05 -0.00142001440585)
(1.65059165721e-06 1.25771124516e-05 -0.00143152183608)
(7.74980958795e-08 1.25750314284e-05 -0.00143541475601)
(-1.49559194022e-06 1.2581829898e-05 -0.00143169382782)
(-3.07952934024e-06 1.25950659397e-05 -0.0014203568521)
(-4.68219331203e-06 1.2607464195e-05 -0.00140139881021)
(-6.30606670064e-06 1.26075624668e-05 -0.00137479804088)
(-7.94752009691e-06 1.25794677833e-05 -0.00134048576903)
(-9.58768237204e-06 1.25058900959e-05 -0.00129834314758)
(-1.12399850728e-05 1.23576369458e-05 -0.00124671208505)
(-7.03351588673e-08 -1.15329692064e-07 -5.19111932113e-05)
(-3.53836702457e-08 -1.59076358075e-07 -5.41652017839e-05)
(-1.19965011604e-08 -1.86394598651e-07 -5.59940948459e-05)
(3.8094928985e-09 -2.03439673905e-07 -5.74636112341e-05)
(1.20306425489e-08 -2.13282704958e-07 -5.85984705137e-05)
(1.33036627226e-08 -2.18267341144e-07 -5.94079961836e-05)
(9.58501924098e-09 -2.20340147451e-07 -5.98955735006e-05)
(3.21355827819e-09 -2.20796147225e-07 -6.006169374e-05)
(-3.20978170829e-09 -2.20113769389e-07 -5.99004218527e-05)
(-7.15531761705e-09 -2.17928576406e-07 -5.94176856728e-05)
(-6.55197839402e-09 -2.13077236331e-07 -5.86130085267e-05)
(2.26983124092e-10 -2.0368856374e-07 -5.74831270419e-05)
(1.40263477342e-08 -1.87347388301e-07 -5.60191396123e-05)
(3.52153388833e-08 -1.61053550872e-07 -5.41979468586e-05)
(6.86376383062e-08 -1.17865603183e-07 -5.19589489963e-05)
(-2.78692324196e-07 -4.13047831383e-07 -0.000156713099946)
(-1.85844967034e-07 -5.37700278509e-07 -0.000163453968589)
(-1.16496524078e-07 -6.24336824324e-07 -0.000168929910945)
(-6.51601068035e-08 -6.83429055247e-07 -0.000173316392255)
(-3.05613069045e-08 -7.21640764358e-07 -0.000176693745304)
(-1.09224345764e-08 -7.4421971733e-07 -0.00017909730704)
(-2.07839993683e-09 -7.55630072732e-07 -0.000180542105965)
(1.04803737858e-09 -7.5883735385e-07 -0.000181032261892)
(4.25061811206e-09 -7.54914947718e-07 -0.000180557621736)
(1.32547667235e-08 -7.42947358359e-07 -0.000179128269322)
(3.28219724888e-08 -7.20155972427e-07 -0.00017674007167)
(6.66770213137e-08 -6.82149684366e-07 -0.000173378270381)
(1.16793449652e-07 -6.23413335739e-07 -0.000169008680185)
(1.84867578966e-07 -5.37639801351e-07 -0.000163555615892)
(2.77075083201e-07 -4.13155735738e-07 -0.000156854555707)
(-5.58608549303e-07 -7.5981046933e-07 -0.000261507042345)
(-4.13062403441e-07 -9.62724619003e-07 -0.00027269652167)
(-2.93491653971e-07 -1.11390018882e-06 -0.000281785861376)
(-1.97485732395e-07 -1.22322305434e-06 -0.000289053324886)
(-1.23469815339e-07 -1.29848453372e-06 -0.000294636990589)
(-6.9127756075e-08 -1.34631200139e-06 -0.000298603634025)
(-2.90712968872e-08 -1.37237001431e-06 -0.000300984263181)
(3.36935951883e-09 -1.38046555155e-06 -0.000301789753008)
(3.58089236092e-08 -1.37198193879e-06 -0.000301010492242)
(7.57311525323e-08 -1.34577681625e-06 -0.000298655932934)
(1.29340921355e-07 -1.29827234112e-06 -0.000294715141333)
(2.01440249919e-07 -1.22381540385e-06 -0.000289157480186)
(2.94502507699e-07 -1.11548489679e-06 -0.000281917823209)
(4.1082661181e-07 -9.6566037371e-07 -0.000272864850347)
(5.54379654786e-07 -7.63280405818e-07 -0.000261735596594)
(-8.45512880419e-07 -1.10265284451e-06 -0.000365857064284)
(-6.55671103327e-07 -1.36846132136e-06 -0.000381419011469)
(-4.90152912362e-07 -1.57349384413e-06 -0.000394055334752)
(-3.50670753999e-07 -1.7257571118e-06 -0.000404144836315)
(-2.35639680352e-07 -1.83341445783e-06 -0.000411883552398)
(-1.42571822489e-07 -1.9037532542e-06 -0.000417373031688)
(-6.55250045993e-08 -1.94309683351e-06 -0.000420663388205)
(2.9531730116e-09 -1.95567886475e-06 -0.0004217747424)
(7.14190292315e-08 -1.94301386684e-06 -0.000420700636542)
(1.48289767059e-07 -1.90380731174e-06 -0.000417447217934)
(2.40560647857e-07 -1.83401433678e-06 -0.000411994191693)
(3.535886602e-07 -1.7272925228e-06 -0.000404291781376)
(4.89938909884e-07 -1.57610816611e-06 -0.000394240256099)
(6.51877577922e-07 -1.37239313728e-06 -0.000381651532725)
(8.39514754883e-07 -1.10728652181e-06 -0.000366164758239)