/*--------------------------------*- C++ -*----------------------------------*\
  =========                 |
  \\      /  F ield         | OpenFOAM: The Open Source CFD Toolbox
   \\    /   O peration     | Website:  https://openfoam.org
    \\  /    A nd           | Version:  7
     \\/     M anipulation  |
\*---------------------------------------------------------------------------*/
FoamFile
{
    version     2.0;
    format      ascii;
    class       volVectorField;
    location    "2.2";
    object      U;
}
// * * * * * * * * * * * * * * * * * * * * * * * * * * * * * * * * * * * * * //

dimensions      [0 1 -1 0 0 0 0];

internalField   nonuniform List<vector> 
22500
(
(-2.44147799683e-06 -2.81831892406e-06 -1.04623392107e-05)
(-2.20095798354e-06 -3.23701196207e-06 -1.08516573854e-05)
(-1.88230232695e-06 -3.62038530566e-06 -1.11152487484e-05)
(-1.54929662857e-06 -3.93051877381e-06 -1.12921285228e-05)
(-1.18472464791e-06 -4.17552831563e-06 -1.14081490533e-05)
(-8.02824228597e-07 -4.35151351285e-06 -1.14804997004e-05)
(-4.07869955609e-07 -4.45781169515e-06 -1.15205969108e-05)
(-6.2097690881e-09 -4.49378948968e-06 -1.15348327488e-05)
(3.95580130644e-07 -4.45901326178e-06 -1.1523902807e-05)
(7.90912577839e-07 -4.35386192289e-06 -1.14871032816e-05)
(1.17343134548e-06 -4.17891070652e-06 -1.14180333599e-05)
(1.538810717e-06 -3.93478595785e-06 -1.13052956964e-05)
(1.87289492331e-06 -3.62531716161e-06 -1.11318017205e-05)
(2.19243229469e-06 -3.24259779483e-06 -1.08721341893e-05)
(2.43499936498e-06 -2.82379877862e-06 -1.04884893751e-05)
(-7.38646440633e-06 -8.46634656177e-06 -3.47501184217e-05)
(-6.67769136279e-06 -9.68887811611e-06 -3.62241281121e-05)
(-5.74381036206e-06 -1.08146567006e-05 -3.73024464947e-05)
(-4.73383955153e-06 -1.17388960355e-05 -3.8083357498e-05)
(-3.62782452112e-06 -1.24724590936e-05 -3.86345760225e-05)
(-2.4608811155e-06 -1.30015761736e-05 -3.90013920517e-05)
(-1.25073664948e-06 -1.33220742955e-05 -3.92132994856e-05)
(-1.84109940724e-08 -1.34305829607e-05 -3.92865454572e-05)
(1.21430477156e-06 -1.3325607996e-05 -3.92235610557e-05)
(2.42559150909e-06 -1.30084857539e-05 -3.90218784704e-05)
(3.59437898593e-06 -1.24824218184e-05 -3.86652106291e-05)
(4.70280877981e-06 -1.17514798499e-05 -3.81241090645e-05)
(5.71585871831e-06 -1.08292241389e-05 -3.73535777897e-05)
(6.65272658769e-06 -9.70522635335e-06 -3.62871481626e-05)
(7.36728931984e-06 -8.48270395182e-06 -3.48290378099e-05)
(-1.20060673608e-05 -1.36737077205e-05 -6.19150809176e-05)
(-1.0849424207e-05 -1.55956301112e-05 -6.47295595517e-05)
(-9.35111223723e-06 -1.73625157372e-05 -6.68621465795e-05)
(-7.70825601889e-06 -1.88223782179e-05 -6.84567353202e-05)
(-5.91060554231e-06 -1.99829182947e-05 -6.96139045735e-05)
(-4.01040235437e-06 -2.08217708183e-05 -7.04011378661e-05)
(-2.03886149774e-06 -2.13305295898e-05 -7.08618770535e-05)
(-3.07631029669e-08 -2.1502882568e-05 -7.10198474003e-05)
(1.9779911488e-06 -2.13361934408e-05 -7.0879262004e-05)
(3.95146617996e-06 -2.08328259999e-05 -7.04358380432e-05)
(5.85480892451e-06 -1.99988090422e-05 -6.96657573899e-05)
(7.65662413021e-06 -1.88423369959e-05 -6.85256168741e-05)
(9.30474643052e-06 -1.73854778122e-05 -6.69483398213e-05)
(1.08085418511e-05 -1.56211106477e-05 -6.48351789797e-05)
(1.19745968787e-05 -1.36993889465e-05 -6.20457405431e-05)
(-1.62822112238e-05 -1.84413576874e-05 -9.15816591858e-05)
(-1.4708084839e-05 -2.09561408862e-05 -9.59336516236e-05)
(-1.26939841283e-05 -2.32636681315e-05 -9.93034686665e-05)
(-1.04649376694e-05 -2.51776767551e-05 -0.000101871927134)
(-8.02713149497e-06 -2.67013628615e-05 -0.000103765449876)
(-5.44727303043e-06 -2.78044742366e-05 -0.000105069137962)
(-2.76975451735e-06 -2.84741957187e-05 -0.000105837335591)
(-4.22418197164e-08 -2.87011882378e-05 -0.000106099591572)
(2.68616309325e-06 -2.84817176066e-05 -0.000105861847768)
(5.36632305075e-06 -2.78191511622e-05 -0.000105118054104)
(7.95048092668e-06 -2.67224456577e-05 -0.000103838493442)
(1.03940248967e-05 -2.52041114631e-05 -0.000101968812598)
(1.2630282102e-05 -2.3294020712e-05 -9.94243368222e-05)
(1.46521439481e-05 -2.09896799588e-05 -9.60808485402e-05)
(1.62386596109e-05 -1.84753601409e-05 -9.17617051977e-05)
(-2.01907123703e-05 -2.27600649987e-05 -0.000123333325126)
(-1.82342095738e-05 -2.57597526628e-05 -0.000129355984201)
(-1.57523168613e-05 -2.85057064443e-05 -0.000134084115191)
(-1.29872954613e-05 -3.07894630725e-05 -0.000137732197941)
(-9.96440778649e-06 -3.26092827164e-05 -0.000140447984156)
(-6.76266433972e-06 -3.39285921243e-05 -0.000142331228364)
(-3.43892470441e-06 -3.47302859475e-05 -0.00014344528862)
(-5.27544199549e-08 -3.50021319176e-05 -0.000143824597949)
(3.33450986049e-06 -3.47393823548e-05 -0.000143476827433)
(6.66149521077e-06 -3.39463452563e-05 -0.000142394151746)
(9.86853123559e-06 -3.26347924802e-05 -0.00014054187023)
(1.28985136939e-05 -3.08214479183e-05 -0.000137856519746)
(1.56724097e-05 -2.85424361514e-05 -0.000134238700807)
(1.81640337458e-05 -2.5800306845e-05 -0.00012954315512)
(2.01353086649e-05 -2.28014119641e-05 -0.00012356013127)
(-2.36953598705e-05 -2.65999877938e-05 -0.000156731106769)
(-2.13928310003e-05 -2.99720565052e-05 -0.000164491774668)
(-1.84921183304e-05 -3.30496647805e-05 -0.000170636314116)
(-1.52461064325e-05 -3.5613732367e-05 -0.00017541473543)
(-1.16992614578e-05 -3.76579891686e-05 -0.000178994037637)
(-7.94061446896e-06 -3.91417336379e-05 -0.000181487101257)
(-4.03823552614e-06 -4.00440566925e-05 -0.000182965363563)
(-6.22889429626e-08 -4.03501700836e-05 -0.00018346775591)
(3.91491563221e-06 -4.00544391072e-05 -0.000183003754542)
(7.82103353357e-06 -3.91620095724e-05 -0.000181563673588)
(1.15857873997e-05 -3.76871529436e-05 -0.000179108189652)
(1.51408495683e-05 -3.56503355284e-05 -0.000175565615411)
(1.83970992083e-05 -3.30917628439e-05 -0.000170823281701)
(2.13091658967e-05 -3.00185876151e-05 -0.000164716989167)
(2.36283566107e-05 -2.66476906142e-05 -0.000157002088755)
(-2.67655322441e-05 -2.9933641122e-05 -0.000191327537789)
(-2.41529869557e-05 -3.35622845472e-05 -0.000200829125225)
(-2.08834922623e-05 -3.68618088924e-05 -0.000208387972997)
(-1.72154740113e-05 -3.96133667064e-05 -0.000214295856779)
(-1.32111407652e-05 -4.1807388377e-05 -0.000218738755746)
(-8.96696351482e-06 -4.34014398498e-05 -0.000221842009124)
(-4.56048248422e-06 -4.43715516206e-05 -0.000223684703745)
(-7.08793185723e-08 -4.47008382874e-05 -0.000224310152949)
(4.42010732808e-06 -4.43829338622e-05 -0.000223729731712)
(8.83070612814e-06 -4.3423690251e-05 -0.000221931789281)
(1.30816206356e-05 -4.18394435797e-05 -0.00021887247172)
(1.709505085e-05 -3.96536732316e-05 -0.00021447225199)
(2.07743693098e-05 -3.69082875503e-05 -0.000208605808224)
(2.40565014935e-05 -3.36137729241e-05 -0.000201090362879)
(2.66871743931e-05 -2.99867154717e-05 -0.000191640201326)
(-2.93789209459e-05 -3.27407085881e-05 -0.000226677805499)
(-2.64914132066e-05 -3.65085719805e-05 -0.000237862559996)
(-2.2903991057e-05 -3.99192569853e-05 -0.000246779174716)
(-1.88759552763e-05 -4.27642020047e-05 -0.000253770672966)
(-1.44846505337e-05 -4.50323642582e-05 -0.000259042376048)
(-9.83112471584e-06 -4.6681822366e-05 -0.000262731378839)
(-5.00029842453e-06 -4.76863905037e-05 -0.000264923902438)
(-7.85948108054e-08 -4.80275877769e-05 -0.000265667459966)
(4.84457922958e-06 -4.76984921698e-05 -0.000264975346157)
(9.67978805982e-06 -4.6705511674e-05 -0.000262833914361)
(1.43404988512e-05 -4.5066567262e-05 -0.000259194941529)
(1.87415402418e-05 -4.28073234334e-05 -0.000253971536467)
(2.27816478187e-05 -3.99691576403e-05 -0.000247026397307)
(2.63826842236e-05 -3.65640342917e-05 -0.000238157959212)
(2.92894322032e-05 -3.27982038393e-05 -0.000227029926867)
(-3.15199791964e-05 -3.50067983686e-05 -0.000262345485043)
(-2.83916674395e-05 -3.87962077547e-05 -0.00027509996661)
(-2.45380073531e-05 -4.22077712725e-05 -0.000285271394742)
(-2.02142688833e-05 -4.50525499171e-05 -0.000293264820106)
(-1.55093825547e-05 -4.73200626083e-05 -0.000299304057998)
(-1.05259742027e-05 -4.89706605999e-05 -0.000303536120195)
(-5.35409195858e-06 -4.99767296501e-05 -0.000306053171396)
(-8.5529690357e-08 -5.03186974163e-05 -0.000306906381679)
(5.18455239116e-06 -4.99892763535e-05 -0.000306110833984)
(1.03609713536e-05 -4.89952646921e-05 -0.000303651012681)
(1.53518356387e-05 -4.73556866942e-05 -0.000299474854022)
(2.00668676909e-05 -4.50976202205e-05 -0.000293489258539)
(2.44031810317e-05 -4.22601623238e-05 -0.000285546766656)
(2.82711643284e-05 -3.8854692849e-05 -0.000275428074525)
(3.14195384379e-05 -3.50678062225e-05 -0.000262735359255)
(-3.31792129569e-05 -3.67229951243e-05 -0.000297900889766)
(-2.98439144025e-05 -4.04169300722e-05 -0.000312061314647)
(-2.57768236074e-05 -4.37209148251e-05 -0.000323348509328)
(-2.12234626589e-05 -4.64743407961e-05 -0.000332237799223)
(-1.62800330966e-05 -4.86689683268e-05 -0.000338966824159)
(-1.10478910534e-05 -5.02683527451e-05 -0.000343688486182)
(-5.62004524326e-06 -5.12440927871e-05 -0.000346498651832)
(-9.17887722862e-08 -5.15760560112e-05 -0.000347451099247)
(5.43800126036e-06 -5.12568113949e-05 -0.000346562382528)
(1.08704329622e-05 -5.02933485675e-05 -0.000343815442261)
(1.61101350589e-05 -4.87052875635e-05 -0.00033915541916)
(2.10639026523e-05 -4.65204956457e-05 -0.000332485214779)
(2.56300978071e-05 -4.37748678193e-05 -0.00032365122326)
(2.97119875308e-05 -4.04775023211e-05 -0.000312421319733)
(3.30679271038e-05 -3.67866389501e-05 -0.000298327624951)
(-3.43530545108e-05 -3.78863085806e-05 -0.00033290907203)
(-3.08451159511e-05 -4.1368921324e-05 -0.00034826755194)
(-2.66189758278e-05 -4.44601457166e-05 -0.000360509551301)
(-2.19031534596e-05 -4.70354684581e-05 -0.000370178516507)
(-1.67964052868e-05 -4.90892389866e-05 -0.000377514347481)
(-1.13966323116e-05 -5.05880527518e-05 -0.000382669254605)
(-5.79800580919e-06 -5.15033136688e-05 -0.000385739663478)
(-9.7472884936e-08 -5.18150278832e-05 -0.000386780512827)
(5.60457492488e-06 -5.15159259321e-05 -0.000385809364054)
(1.12077400563e-05 -5.06129055469e-05 -0.000382808110036)
(1.66150230519e-05 -4.91255062814e-05 -0.000377720558544)
(2.17321028768e-05 -4.70818161901e-05 -0.000370448720393)
(2.64608011281e-05 -4.45147007693e-05 -0.000360839379573)
(3.07020081815e-05 -4.14306208306e-05 -0.000348659443001)
(3.4230935581e-05 -3.79517005509e-05 -0.000333372877949)
(-3.50428243963e-05 -3.84984957536e-05 -0.000366902483442)
(-3.139904178e-05 -4.16554255544e-05 -0.000383219219341)
(-2.70705493943e-05 -4.44348133291e-05 -0.000396255491195)
(-2.22593220338e-05 -4.67526974501e-05 -0.000406595389528)
(-1.7062778182e-05 -4.86036492098e-05 -0.000414461503749)
(-1.15746803833e-05 -4.99563025145e-05 -0.000419997886765)
(-5.88909535669e-06 -5.07828872365e-05 -0.000423298453502)
(-1.0266513524e-07 -5.10647029715e-05 -0.000424417825129)
(5.685233301e-06 -5.07951057372e-05 -0.000423374058428)
(1.1375226906e-05 -4.99804529249e-05 -0.000420148582633)
(1.68706501262e-05 -4.86390747727e-05 -0.000414685402597)
(2.20773433727e-05 -4.67982849e-05 -0.000406888674004)
(2.69013009122e-05 -4.44889374655e-05 -0.000396612884333)
(3.12449445373e-05 -4.17172106942e-05 -0.000383643751085)
(3.49098161843e-05 -3.85646585508e-05 -0.000367404709043)
(-3.52536302156e-05 -3.85573646213e-05 -0.000399329569836)
(-3.1519068674e-05 -4.12816219953e-05 -0.000416370431392)
(-2.71467201297e-05 -4.36645081607e-05 -0.000430077904407)
(-2.23036196413e-05 -4.5657026514e-05 -0.000441005896735)
(-1.7086367117e-05 -4.72505471881e-05 -0.000449341657519)
(-1.15859240846e-05 -4.8415377093e-05 -0.000455217864114)
(-5.89500371713e-06 -4.9126975923e-05 -0.000458724373984)
(-1.07421476989e-07 -4.93698094622e-05 -0.000459914324429)
(5.68156365284e-06 -4.91385068674e-05 -0.000458805783623)
(1.13767009719e-05 -4.84382474015e-05 -0.000455380330763)
(1.68841795799e-05 -4.72842960351e-05 -0.000449583460333)
(2.21112576815e-05 -4.57008266691e-05 -0.000441323035114)
(2.69667938047e-05 -4.37170734915e-05 -0.000430464097458)
(3.13542331049e-05 -4.13423561532e-05 -0.000416828834476)
(3.51098103575e-05 -3.86230984738e-05 -0.000399871532142)
(-3.50176179678e-05 -3.8057930392e-05 -0.000429465239159)
(-3.12446901546e-05 -4.02857189107e-05 -0.000447129043756)
(-2.68743219895e-05 -4.21975535603e-05 -0.000461467152195)
(-2.20495209805e-05 -4.38069340809e-05 -0.000472931827798)
(-1.68733950708e-05 -4.5091472454e-05 -0.000481693736686)
(-1.14330491471e-05 -4.60275150447e-05 -0.000487879459583)
(-5.81675983269e-06 -4.65979823991e-05 -0.000491574497186)
(-1.11765349049e-07 -4.67927986917e-05 -0.00049282930229)
(5.59455660065e-06 -4.66085467933e-05 -0.000491661424732)
(1.1214841601e-05 -4.60485451071e-05 -0.000488053312384)
(1.66618735275e-05 -4.51227093812e-05 -0.000481953407602)
(2.18474076668e-05 -4.3847882051e-05 -0.000473273837756)
(2.66842394442e-05 -4.22473691266e-05 -0.000461884458537)
(3.10695102698e-05 -4.03441790491e-05 -0.000447623157358)
(3.48629307227e-05 -3.81222229185e-05 -0.000430046245296)
(-3.44119209938e-05 -3.73062459918e-05 -0.000456306872961)
(-3.06292295313e-05 -3.8747373193e-05 -0.000475014956476)
(-2.62554459862e-05 -4.01229852224e-05 -0.000489944672736)
(-2.14933226659e-05 -4.12717347089e-05 -0.000501892039812)
(-1.64204469993e-05 -4.21781724114e-05 -0.000511044270364)
(-1.11144387385e-05 -4.28325504729e-05 -0.00051751928464)
(-5.65389881005e-06 -4.32292125316e-05 -0.000521392747019)
(-1.15696780687e-07 -4.33648875002e-05 -0.000522709075502)
(5.42375960283e-06 -4.32384402108e-05 -0.000521484273878)
(1.08880756351e-05 -4.28509846715e-05 -0.000517702851926)
(1.62004097494e-05 -4.22057320255e-05 -0.000511319889465)
(2.12822329184e-05 -4.13082403843e-05 -0.000502258008612)
(2.60559062412e-05 -4.01680255078e-05 -0.000490394310425)
(3.04447017283e-05 -3.88014984275e-05 -0.000475552373476)
(3.424597182e-05 -3.73668158807e-05 -0.000456912464252)
(1.15876480858e-08 2.12382998854e-08 -1.22694365377e-05)
(3.59676857948e-09 2.98905943687e-08 -1.2762013925e-05)
(-2.48017336546e-09 3.50180982657e-08 -1.31336533844e-05)
(-5.88358241358e-09 3.74148738376e-08 -1.34137737122e-05)
(-6.94377505512e-09 3.81426174318e-08 -1.36200000575e-05)
(-5.7692162028e-09 3.79760594812e-08 -1.3762069303e-05)
(-3.01533419556e-09 3.76063954594e-08 -1.38459315765e-05)
(5.65614926508e-10 3.747925394e-08 -1.38746223542e-05)
(4.11503315756e-09 3.77451350976e-08 -1.3847662177e-05)
(6.77538487452e-09 3.82552824262e-08 -1.37655223082e-05)
(7.81837218135e-09 3.85690951194e-08 -1.36251694141e-05)
(6.65972979115e-09 3.7993628049e-08 -1.34206951221e-05)
(3.22041807251e-09 3.57296887999e-08 -1.31425054953e-05)
(-2.81942389861e-09 3.07291054064e-08 -1.27735271746e-05)
(-1.08653811917e-08 2.20348258659e-08 -1.22860411725e-05)
(9.43782366339e-08 1.26766083302e-07 -3.81413530351e-05)
(7.14983115227e-08 1.6070789542e-07 -3.97234313936e-05)
(5.01060394835e-08 1.85901431394e-07 -4.09350180792e-05)
(3.32559267319e-08 2.0317233603e-07 -4.18563529417e-05)
(2.05175710607e-08 2.14429590766e-07 -4.25381146491e-05)
(1.18889770861e-08 2.21137665345e-07 -4.30094920052e-05)
(6.25631284722e-09 2.24667991322e-07 -4.32880580801e-05)
(2.21057618915e-09 2.25897625323e-07 -4.33827359622e-05)
(-1.91562025417e-09 2.25113720507e-07 -4.32935846115e-05)
(-7.79931482079e-09 2.22013639236e-07 -4.30205056179e-05)
(-1.68400720184e-08 2.15702814108e-07 -4.25545692596e-05)
(-3.00614656158e-08 2.04783547398e-07 -4.18783063032e-05)
(-4.73926709693e-08 1.87729755337e-07 -4.09629285495e-05)
(-6.92016398198e-08 1.62642572613e-07 -3.97593418172e-05)
(-9.26204504354e-08 1.28481487248e-07 -3.81909125785e-05)
(2.2732618114e-07 2.82699266473e-07 -6.51611015784e-05)
(1.89041617775e-07 3.47249166147e-07 -6.79342142766e-05)
(1.48753594198e-07 3.99028945053e-07 -7.00795161682e-05)
(1.12321847722e-07 4.37793341292e-07 -7.1722459772e-05)
(7.97524309976e-08 4.65574777814e-07 -7.29434223643e-05)
(5.14875143807e-08 4.83911246704e-07 -7.37900139244e-05)
(2.64568409808e-08 4.94368658897e-07 -7.42907993834e-05)
(3.14927374948e-09 4.97968928607e-07 -7.44603631156e-05)
(-2.02706755059e-08 4.95051596128e-07 -7.4300105343e-05)
(-4.56355750542e-08 4.85277004832e-07 -7.38085554564e-05)
(-7.44114572952e-08 4.6761441249e-07 -7.29711143134e-05)
(-1.07530891599e-07 4.40459788564e-07 -7.17593708673e-05)
(-1.44444817911e-07 4.02168320417e-07 -7.01263010259e-05)
(-1.85116599217e-07 3.50674547689e-07 -6.79938467481e-05)
(-2.24013232069e-07 2.85957437964e-07 -6.52415993975e-05)
(3.89972524602e-07 4.68772358146e-07 -9.31463622885e-05)
(3.35965452942e-07 5.64204625451e-07 -9.71896074605e-05)
(2.7493269901e-07 6.43524022883e-07 -0.000100342784877)
(2.15488858478e-07 7.04990139676e-07 -0.000102772062245)
(1.58349627919e-07 7.50575617177e-07 -0.000104584097557)
(1.04643527786e-07 7.81667805029e-07 -0.000105843558978)
(5.36919787354e-08 7.998207782e-07 -0.000106589267711)
(4.23919397863e-09 8.06054432424e-07 -0.000106841214934)
(-4.5345006536e-08 8.00707451205e-07 -0.00010660250758)
(-9.66817564653e-08 7.83440804105e-07 -0.000105869919242)
(-1.50970204405e-07 7.53221332423e-07 -0.000104623411849)
(-2.08745886298e-07 7.08448236465e-07 -0.000102824317672)
(-2.6876875227e-07 6.47616014774e-07 -0.0001004086239)
(-3.30296269439e-07 5.68694333871e-07 -9.72724233384e-05)
(-3.85108436735e-07 4.73166881543e-07 -9.32554830054e-05)
(5.64205810553e-07 6.64678823955e-07 -0.000121935656437)
(4.94143596449e-07 7.87474475184e-07 -0.000127307171233)
(4.11713133466e-07 8.91254519866e-07 -0.000131523180829)
(3.2793484925e-07 9.72794363074e-07 -0.000134787846362)
(2.44397086377e-07 1.03411902783e-06 -0.000137230967001)
(1.63012069471e-07 1.07649756528e-06 -0.000138932675755)
(8.36354665127e-08 1.10146478394e-06 -0.00013994116083)
(5.40351846596e-09 1.11002729844e-06 -0.000140281453235)
(-7.29710303766e-08 1.10252056915e-06 -0.000139958474068)
(-1.52765066983e-07 1.07860308205e-06 -0.000138967110919)
(-2.34787298845e-07 1.03724604393e-06 -0.000137282222085)
(-3.19051005615e-07 9.76860189156e-07 -0.000134855714045)
(-4.035411755e-07 8.96058660925e-07 -0.000131608070169)
(-4.86636798583e-07 7.92758903366e-07 -0.000127412531294)
(-5.57729673222e-07 6.69934886375e-07 -0.000122071489578)
(7.36705995082e-07 8.55713546574e-07 -0.000151371165034)
(6.50396537053e-07 9.99965140113e-07 -0.00015810681847)
(5.46883435702e-07 1.12252869518e-06 -0.000163419997223)
(4.39059847964e-07 1.21912475786e-06 -0.000167552233801)
(3.29449841125e-07 1.29206272024e-06 -0.000170653702564)
(2.20717035893e-07 1.34267385558e-06 -0.000172818195195)
(1.1325873543e-07 1.37257448209e-06 -0.000174102150284)
(6.60239029336e-09 1.38281755869e-06 -0.000174535092325)
(-1.00201941216e-07 1.37375668611e-06 -0.0001741236887)
(-2.08095705697e-07 1.34502600417e-06 -0.000172860981736)
(-3.17505959056e-07 1.29554155414e-06 -0.000170717234687)
(-4.27925531731e-07 1.22362709279e-06 -0.000167635984625)
(-5.36599664366e-07 1.1278364676e-06 -0.000163523932805)
(-6.40967051556e-07 1.00581696658e-06 -0.000158234223735)
(-7.28529971936e-07 8.61603376113e-07 -0.00015153251123)
(8.96900859354e-07 1.03033483211e-06 -0.000181294347833)
(7.94442745219e-07 1.18861887134e-06 -0.000189406082931)
(6.71039792567e-07 1.32266940043e-06 -0.000195828867328)
(5.40808041933e-07 1.42790135502e-06 -0.00020084315975)
(4.07163784568e-07 1.50715810696e-06 -0.000204617021548)
(2.73385166054e-07 1.56207591738e-06 -0.000207255768216)
(1.40322500382e-07 1.59449035379e-06 -0.00020882262893)
(7.80896111712e-09 1.6055831218e-06 -0.000209350827825)
(-1.24853776084e-07 1.59575358965e-06 -0.000208848567903)
(-2.58359727344e-07 1.56458509236e-06 -0.000207307228224)
(-3.92843324496e-07 1.5108586305e-06 -0.000204693229789)
(-5.27368738606e-07 1.43267552332e-06 -0.000200943143235)
(-6.58579459903e-07 1.32829103944e-06 -0.000195951965594)
(-7.83015530402e-07 1.19483339168e-06 -0.000189555316448)
(-8.86939925111e-07 1.0366583052e-06 -0.000181480589247)
(1.036654518e-06 1.17976480955e-06 -0.000211541604861)
(9.18572491888e-07 1.34391566673e-06 -0.000221015373504)
(7.77294842088e-07 1.48144170853e-06 -0.000228537167823)
(6.27405164721e-07 1.58836899843e-06 -0.000234430001141)
(4.73071817543e-07 1.66828146613e-06 -0.000238877186203)
(3.17977879787e-07 1.72333990457e-06 -0.000241992809495)
(1.63281172527e-07 1.75571447744e-06 -0.000243844926289)
(8.9990029171e-09 1.7667829377e-06 -0.000244469350086)
(-1.45430229566e-07 1.75701275833e-06 -0.000243875474806)
(-3.00568771167e-07 1.72591657171e-06 -0.000242053335899)
(-4.56381950116e-07 1.67207706853e-06 -0.000238966580491)
(-6.11650941362e-07 1.59325919223e-06 -0.000234546726337)
(-7.62629308517e-07 1.48720218816e-06 -0.000228679785506)
(-9.05096548774e-07 1.3503079919e-06 -0.000221186635465)
(-1.02483154254e-06 1.18633670437e-06 -0.000211752717648)
(1.15027843231e-06 1.29801584156e-06 -0.000241937499465)
(1.01762798209e-06 1.45985704467e-06 -0.000252730476928)
(8.61214704423e-07 1.59295831749e-06 -0.000261316975943)
(6.95265955793e-07 1.69490170036e-06 -0.000268067481809)
(5.24483937438e-07 1.7701312948e-06 -0.000273176795284)
(3.52706505407e-07 1.82146169508e-06 -0.000276763921616)
(1.81234294435e-07 1.85144935759e-06 -0.000278899095201)
(1.01489034144e-08 1.86169364211e-06 -0.000279619253162)
(-1.61078641718e-07 1.85273788967e-06 -0.000278934508229)
(-3.32982873153e-07 1.82401943064e-06 -0.00027683400471)
(-5.05479760217e-07 1.77390040596e-06 -0.000273280049137)
(-6.77230579618e-07 1.69976112891e-06 -0.000268201705581)
(-8.44349437635e-07 1.59869489748e-06 -0.000261479835752)
(-1.00207996483e-06 1.46626105011e-06 -0.000252924525292)
(-1.1365360319e-06 1.30467019046e-06 -0.000242174161035)
(1.2343757773e-06 1.38172533321e-06 -0.000272283914947)
(1.08878339612e-06 1.53366334527e-06 -0.000284320942303)
(9.20563613306e-07 1.65521920491e-06 -0.000293914804763)
(7.42736521007e-07 1.74638115489e-06 -0.00030148716782)
(5.60251913713e-07 1.81244664677e-06 -0.000307237638453)
(3.7685051977e-07 1.85688206575e-06 -0.000311284611072)
(1.93826692997e-07 1.88259200958e-06 -0.00031369710039)
(1.12346662319e-08 1.89137068163e-06 -0.000314511377079)
(-1.71491819553e-07 1.88382769763e-06 -0.000313737697616)
(-3.54929072073e-07 1.85933839483e-06 -0.000311364885243)
(-5.39033975404e-07 1.81607438153e-06 -0.000307355669678)
(-7.22495837107e-07 1.75107275265e-06 -0.000301640014268)
(-9.01540872121e-07 1.66078295863e-06 -0.000294099141203)
(-1.07117094519e-06 1.53992801312e-06 -0.00028453924889)
(-1.21868423282e-06 1.38831688604e-06 -0.000272547682625)
(1.28756387591e-06 1.42983482315e-06 -0.000302342290682)
(1.13120276179e-06 1.56526719062e-06 -0.00031551264486)
(9.54941479612e-07 1.66942301936e-06 -0.000326037805491)
(7.69734308062e-07 1.74532398209e-06 -0.000334386774879)
(5.80450468465e-07 1.79895806846e-06 -0.000340751847724)
(3.90519844256e-07 1.83428855799e-06 -0.000345243424602)
(2.01121704757e-07 1.85443695883e-06 -0.000347925429223)
(1.22327016856e-08 1.8613169584e-06 -0.00034883155534)
(-1.76780398417e-07 1.85557967808e-06 -0.000347971594915)
(-3.66564807647e-07 1.83656590539e-06 -0.000345334674303)
(-5.57166406688e-07 1.80233662413e-06 -0.000340885849552)
(-7.47408319573e-07 1.74971909438e-06 -0.000334559811136)
(-9.33843344848e-07 1.67467615743e-06 -0.000326245475224)
(-1.11156700722e-06 1.57125446408e-06 -0.000315757519687)
(-1.26992097175e-06 1.43623695985e-06 -0.00030263580495)
(1.3100672405e-06 1.44314364254e-06 -0.000331803789186)
(1.14561681036e-06 1.55667074386e-06 -0.000345963392072)
(9.65379506252e-07 1.63916327582e-06 -0.000357337824614)
(7.77361134868e-07 1.69692787757e-06 -0.000366418736609)
(5.86039933738e-07 1.73628016033e-06 -0.000373372242082)
(3.94403656543e-07 1.76137067671e-06 -0.000378292969494)
(2.03467483961e-07 1.77533940817e-06 -0.000381236378397)
(1.31199133976e-08 1.78011346383e-06 -0.00038223196902)
(-1.77339447634e-07 1.77635171345e-06 -0.000381288538811)
(-3.68626694108e-07 1.76339784589e-06 -0.000378396103586)
(-5.60884740853e-07 1.73930875831e-06 -0.000373523693061)
(-7.53117419787e-07 1.70090703842e-06 -0.000366614049508)
(-9.42334542736e-07 1.64397887412e-06 -0.000357571411424)
(-1.1240416315e-06 1.56225409923e-06 -0.000346237977508)
(-1.29050531994e-06 1.44923855181e-06 -0.000332130838509)
(1.30316263102e-06 1.42346886484e-06 -0.000360238411995)
(1.13394575827e-06 1.51112124461e-06 -0.000375235903387)
(9.54005596585e-07 1.56963495044e-06 -0.000387400216992)
(7.67545804736e-07 1.60817485315e-06 -0.000397182189364)
(5.78536886238e-07 1.63287044202e-06 -0.000404703932234)
(3.89526353913e-07 1.64765157604e-06 -0.000410040864774)
(2.01369905893e-07 1.65546298943e-06 -0.000413238612048)
(1.38736363674e-08 1.65813837366e-06 -0.000414321567002)
(-1.73719864245e-07 1.65631323588e-06 -0.000413297173916)
(-3.62187225163e-07 1.64936521202e-06 -0.000410156813724)
(-5.51757407211e-07 1.63545828912e-06 -0.000404874507249)
(-7.41605081694e-07 1.61162641102e-06 -0.000397402407177)
(-9.29197806054e-07 1.57389429683e-06 -0.000387663153831)
(-1.11057097552e-06 1.51618542476e-06 -0.000375543958626)
(-1.28177106245e-06 1.42913599111e-06 -0.000360603003697)
(1.26936108286e-06 1.37319392168e-06 -0.000387008462295)
(1.09957847223e-06 1.43382521879e-06 -0.000402796596484)
(9.23962884433e-07 1.46761314046e-06 -0.000415755201984)
(7.42702337145e-07 1.48750105927e-06 -0.000426224932816)
(5.59682186759e-07 1.49835151094e-06 -0.000434299917207)
(3.7701199372e-07 1.50355323669e-06 -0.000440042060335)
(1.95372482179e-07 1.50570033377e-06 -0.000443487907743)
(1.44738643294e-08 1.5064451055e-06 -0.000444656311409)
(-1.66509176709e-07 1.50636672906e-06 -0.000443553109228)
(-3.48419564069e-07 1.50490856696e-06 -0.000440171486579)
(-5.31582603387e-07 1.50043068142e-06 -0.000434491124933)
(-7.15351505823e-07 1.49033656121e-06 -0.000426473033853)
(-8.97644325441e-07 1.47121709279e-06 -0.000416052083008)
(-1.07461096319e-06 1.43827782969e-06 -0.000403142593579)
(-1.24626991387e-06 1.37837287018e-06 -0.000387413136448)
(1.21172549441e-06 1.30673345761e-06 -0.000411206150764)
(1.04702180587e-06 1.32957900535e-06 -0.000428201397193)
(8.77786620568e-07 1.34000637958e-06 -0.000441942230737)
(7.04578360564e-07 1.34264646215e-06 -0.000453062806694)
(5.30703669836e-07 1.34088211195e-06 -0.000461663777679)
(3.57663890734e-07 1.33751245299e-06 -0.000467794536949)
(1.85871352317e-07 1.33467044399e-06 -0.000471479756372)
(1.4900628921e-08 1.33371941393e-06 -0.000472730783584)
(-1.56142975284e-07 1.33513835417e-06 -0.000471551196653)
(-3.2817120853e-07 1.33847846863e-06 -0.000467936821319)
(-5.01641141878e-07 1.34240028725e-06 -0.000461875315682)
(-6.76170839681e-07 1.3447887718e-06 -0.000453340017001)
(-8.50284531192e-07 1.34284896024e-06 -0.000442276787903)
(-1.02077368782e-06 1.33331495828e-06 -0.000428595172583)
(-1.18705710211e-06 1.31131247094e-06 -0.000411641289134)
(-8.21861578638e-09 -1.38019324625e-08 -1.36464369182e-05)
(-4.33676558797e-09 -1.87873459511e-08 -1.4200075343e-05)
(-1.7506525657e-09 -2.19284774245e-08 -1.46191587231e-05)
(-5.02655146254e-11 -2.38976263976e-08 -1.49372097786e-05)
(8.5166504224e-10 -2.51015814626e-08 -1.51721345855e-05)
(9.92413435957e-10 -2.57522763878e-08 -1.53344250663e-05)
(6.21278138566e-10 -2.60573789652e-08 -1.54303784149e-05)
(-1.22456474205e-11 -2.61537230089e-08 -1.54632444599e-05)
(-6.34487306211e-10 -2.60911407251e-08 -1.54324413308e-05)
(-9.74004060259e-10 -2.58280241844e-08 -1.53385383157e-05)
(-8.05398324208e-10 -2.52344328691e-08 -1.51782819412e-05)
(5.91647251299e-11 -2.41017151226e-08 -1.49454082153e-05)
(1.68852027034e-09 -2.21682117858e-08 -1.46295649489e-05)
(4.19680456574e-09 -1.90732427314e-08 -1.4213410482e-05)
(8.0341152895e-09 -1.40655827558e-08 -1.36652283145e-05)
(-3.73323455603e-08 -5.52205853081e-08 -4.224115814e-05)
(-2.69251621252e-08 -7.0651470981e-08 -4.40005823908e-05)
(-1.89736849777e-08 -8.17608077738e-08 -4.53525136616e-05)
(-1.29169716937e-08 -8.96703811094e-08 -4.63857886169e-05)
(-8.37854531841e-09 -9.51641371288e-08 -4.71524541623e-05)
(-5.2255115063e-09 -9.86692245964e-08 -4.76836451761e-05)
(-3.01804356327e-09 -1.00609480273e-07 -4.79979501561e-05)
(-1.2923311767e-09 -1.01247380537e-07 -4.81048781237e-05)
(4.91453759856e-10 -1.00671017686e-07 -4.80043741801e-05)
(2.88497013774e-09 -9.87858602942e-08 -4.76964471024e-05)
(6.35426554224e-09 -9.5317597852e-08 -4.71715692571e-05)
(1.12849011637e-08 -8.98316733511e-08 -4.64112368618e-05)
(1.78257829026e-08 -8.18028956559e-08 -4.53847085774e-05)
(2.63035845166e-08 -7.05506140316e-08 -4.40415623848e-05)
(3.717304142e-08 -5.48976512889e-08 -4.22967758789e-05)
(-8.00269202264e-08 -1.06857787316e-07 -7.18551003262e-05)
(-6.31018577493e-08 -1.33639892259e-07 -7.49080853173e-05)
(-4.84076546967e-08 -1.54534122242e-07 -7.72761219202e-05)
(-3.59249883458e-08 -1.70402075418e-07 -7.9096059116e-05)
(-2.52527948266e-08 -1.82046189787e-07 -8.04510490503e-05)
(-1.62650855138e-08 -1.89904685058e-07 -8.13918643553e-05)
(-8.44140887532e-09 -1.94433840252e-07 -8.19488701134e-05)
(-1.21300791988e-09 -1.95938641241e-07 -8.2137680707e-05)
(6.07194431913e-09 -1.94525742681e-07 -8.19597041976e-05)
(1.40648285484e-08 -1.90099440867e-07 -8.1413443495e-05)
(2.33048455051e-08 -1.8235922695e-07 -8.04832414181e-05)
(3.42298542001e-08 -1.70824001076e-07 -7.91388493611e-05)
(4.69849005334e-08 -1.54939512631e-07 -7.73300611614e-05)
(6.19815218289e-08 -1.33988588721e-07 -7.49760966826e-05)
(7.92722856097e-08 -1.0702796405e-07 -7.19454277237e-05)
(-1.2756434469e-07 -1.62658637518e-07 -0.000102292972442)
(-1.04811008209e-07 -1.99781267383e-07 -0.000106704030809)
(-8.34655059677e-08 -2.29944870862e-07 -0.000110150400725)
(-6.41838890099e-08 -2.53557575296e-07 -0.000112811684248)
(-4.65839778297e-08 -2.71319726311e-07 -0.000114798922804)
(-3.05991428326e-08 -2.83595123417e-07 -0.000116181216543)
(-1.57425005748e-08 -2.90796657857e-07 -0.000117000075773)
(-1.46350388406e-09 -2.93203848175e-07 -0.000117277038244)
(1.28753501622e-08 -2.90912337123e-07 -0.000117015414471)
(2.79056639391e-08 -2.83837216078e-07 -0.000116211744372)
(4.41407379089e-08 -2.71703888681e-07 -0.000114844400196)
(6.19865199823e-08 -2.54072411426e-07 -0.000112871972108)