/*--------------------------------*- C++ -*----------------------------------*\
  =========                 |
  \\      /  F ield         | OpenFOAM: The Open Source CFD Toolbox
   \\    /   O peration     | Website:  https://openfoam.org
    \\  /    A nd           | Version:  7
     \\/     M anipulation  |
\*---------------------------------------------------------------------------*/
FoamFile
{
    version     2.0;
    format      ascii;
    class       volScalarField;
    location    "0.68";
    object      p;
}
// * * * * * * * * * * * * * * * * * * * * * * * * * * * * * * * * * * * * * //

dimensions      [0 2 -2 0 0 0 0];

internalField   nonuniform List<scalar> 
22500
(
-7.10535280133e-06
-7.10479918086e-06
-7.10419139705e-06
-7.10356287741e-06
-7.10301914186e-06
-7.10260504882e-06
-7.10234840316e-06
-7.10226339234e-06
-7.10235584964e-06
-7.10261990789e-06
-7.10304150182e-06
-7.10359276622e-06
-7.10422966614e-06
-7.10484508207e-06
-7.10541810635e-06
-7.10241878079e-06
-7.10174125062e-06
-7.10101124964e-06
-7.10026495789e-06
-7.09961573625e-06
-7.09911860704e-06
-7.09880904051e-06
-7.09870605897e-06
-7.09881686931e-06
-7.09913423538e-06
-7.09963923955e-06
-7.10029640025e-06
-7.10105144011e-06
-7.10178939975e-06
-7.10248591963e-06
-7.09979051977e-06
-7.09902033269e-06
-7.09820154776e-06
-7.09736782761e-06
-7.09663950226e-06
-7.09607936222e-06
-7.09572931811e-06
-7.09561249856e-06
-7.09573737078e-06
-7.09609544068e-06
-7.09666367085e-06
-7.09740015266e-06
-7.0982428381e-06
-7.09906948156e-06
-7.09985856545e-06
-7.09763636373e-06
-7.09680788731e-06
-7.09593064003e-06
-7.09504037141e-06
-7.09425981708e-06
-7.09365765955e-06
-7.09328041703e-06
-7.09315427886e-06
-7.09328864784e-06
-7.0936740933e-06
-7.09428449496e-06
-7.09507332263e-06
-7.09597262168e-06
-7.09685746769e-06
-7.0977047368e-06
-7.09581730092e-06
-7.09495666937e-06
-7.09404249527e-06
-7.09311794901e-06
-7.09230452351e-06
-7.09167556383e-06
-7.09128081749e-06
-7.09114869808e-06
-7.09128924581e-06
-7.09169238255e-06
-7.09232974262e-06
-7.09315154221e-06
-7.09408508689e-06
-7.09500661684e-06
-7.09588597552e-06
-7.09427943894e-06
-7.09340989619e-06
-7.09247838354e-06
-7.0915392654e-06
-7.09071031684e-06
-7.09006825973e-06
-7.08966480048e-06
-7.08952972844e-06
-7.08967344709e-06
-7.09008550488e-06
-7.09073612615e-06
-7.09157355383e-06
-7.0925215728e-06
-7.09346028729e-06
-7.09434861791e-06
-7.09301011138e-06
-7.09215262687e-06
-7.09122222376e-06
-7.09028680298e-06
-7.08945874575e-06
-7.08881668337e-06
-7.08841296676e-06
-7.0882778687e-06
-7.08842186181e-06
-7.08883441053e-06
-7.08948522388e-06
-7.0903218796e-06
-7.09126609133e-06
-7.09220359785e-06
-7.09308004068e-06
-7.09199525195e-06
-7.09116702216e-06
-7.09025409004e-06
-7.08933857099e-06
-7.08852645895e-06
-7.08789657471e-06
-7.08750053991e-06
-7.0873681802e-06
-7.08750972111e-06
-7.08791485855e-06
-7.08855372163e-06
-7.08937458787e-06
-7.09029880855e-06
-7.09121885609e-06
-7.0920662658e-06
-7.09121416601e-06
-7.09042733047e-06
-7.08954549122e-06
-7.08866390634e-06
-7.08788143723e-06
-7.08727503712e-06
-7.08689413685e-06
-7.0867671242e-06
-7.08690365328e-06
-7.08729398198e-06
-7.08790964733e-06
-7.08870109802e-06
-7.08959136e-06
-7.09048046821e-06
-7.09128677483e-06
-7.09064009507e-06
-7.0899006192e-06
-7.08906066062e-06
-7.08822544831e-06
-7.08748551806e-06
-7.0869134782e-06
-7.08655492428e-06
-7.08643579391e-06
-7.08656483804e-06
-7.08693321683e-06
-7.08751489816e-06
-7.08826413787e-06
-7.08910812934e-06
-7.08995568814e-06
-7.09071504672e-06
-7.09023858834e-06
-7.08954515583e-06
-7.08875553177e-06
-7.08797874824e-06
-7.08729448845e-06
-7.08676794322e-06
-7.08643909779e-06
-7.08633042501e-06
-7.08644947884e-06
-7.08678863086e-06
-7.08732530756e-06
-7.08801935481e-06
-7.08880520259e-06
-7.08960298686e-06
-7.09031696744e-06
-7.08996510238e-06
-7.08930793807e-06
-7.08857608275e-06
-7.08787138524e-06
-7.08725751374e-06
-7.08678864491e-06
-7.08649737339e-06
-7.08640189576e-06
-7.08650828436e-06
-7.08681043754e-06
-7.08729006216e-06
-7.08791438586e-06
-7.08862867869e-06
-7.08936950522e-06
-7.09004818267e-06
-7.08975348119e-06
-7.08911496924e-06
-7.0884530656e-06
-7.08784062809e-06
-7.08731601356e-06
-7.08691922288e-06
-7.08667445775e-06
-7.0865951579e-06
-7.08668592973e-06
-7.08694220274e-06
-7.08735050657e-06
-7.08788646138e-06
-7.08850935467e-06
-7.0891812546e-06
-7.08984218725e-06
-7.0894442874e-06
-7.08882101197e-06
-7.08827937277e-06
-7.0878015795e-06
-7.08739802866e-06
-7.08709528601e-06
-7.08690985606e-06
-7.08685101717e-06
-7.08692187841e-06
-7.08711946833e-06
-7.08743457046e-06
-7.08785060481e-06
-7.08834020627e-06
-7.08889352199e-06
-7.08953861042e-06
-7.0886181996e-06
-7.08824163158e-06
-7.08793736419e-06
-7.08766680697e-06
-7.08743459428e-06
-7.08725978758e-06
-7.08715356087e-06
-7.08712176556e-06
-7.08716645164e-06
-7.08728578731e-06
-7.08747411107e-06
-7.08772042116e-06
-7.08800525655e-06
-7.08832413817e-06
-7.08871870701e-06
-6.47274581621e-06
-6.47276234734e-06
-6.47276706068e-06
-6.47276843075e-06
-6.47276741751e-06
-6.47276581755e-06
-6.47276445044e-06
-6.47276386576e-06
-6.47276411697e-06
-6.4727652321e-06
-6.47276678592e-06
-6.47276791554e-06
-6.47276656096e-06
-6.47276133057e-06
-6.47274434774e-06
-6.47273071301e-06
-6.47274649969e-06
-6.47275253454e-06
-6.47275573579e-06
-6.47275628979e-06
-6.47275582237e-06
-6.4727551521e-06
-6.47275485047e-06
-6.47275495666e-06
-6.47275551668e-06
-6.47275607129e-06
-6.47275577633e-06
-6.4727527466e-06
-6.47274615631e-06
-6.47272998746e-06
-6.47264359861e-06
-6.47265343249e-06
-6.4726550664e-06
-6.47265517194e-06
-6.47265319055e-06
-6.47265085627e-06
-6.47264904796e-06
-6.47264840156e-06
-6.47264896582e-06
-6.47265075788e-06
-6.47265322289e-06
-6.47265545613e-06
-6.47265555883e-06
-6.47265331451e-06
-6.4726433624e-06
-6.47255140248e-06
-6.47255544271e-06
-6.47255199761e-06
-6.47254821369e-06
-6.47254301532e-06
-6.47253832364e-06
-6.47253508442e-06
-6.4725339905e-06
-6.47253510498e-06
-6.47253840932e-06
-6.47254326093e-06
-6.47254868451e-06
-6.47255268373e-06
-6.4725555138e-06
-6.47255167243e-06
-6.47246557058e-06
-6.47246469963e-06
-6.47245647264e-06
-6.47244895371e-06
-6.47244067944e-06
-6.47243373908e-06
-6.47242914587e-06
-6.47242762822e-06
-6.47242926343e-06
-6.47243400457e-06
-6.47244114762e-06
-6.47244965028e-06
-6.47245738345e-06
-6.47246500202e-06
-6.47246638307e-06
-6.4723836767e-06
-6.47237867356e-06
-6.47236593386e-06
-6.47235496789e-06
-6.47234388915e-06
-6.47233493413e-06
-6.47232914953e-06
-6.47232726698e-06
-6.47232936451e-06
-6.47233538338e-06
-6.47234459378e-06
-6.47235591963e-06
-6.47236710628e-06
-6.47237922113e-06
-6.47238511001e-06
-6.47230548132e-06
-6.47229704714e-06
-6.47228020619e-06
-6.47226626076e-06
-6.47225284395e-06
-6.47224227491e-06
-6.47223557039e-06
-6.47223341492e-06
-6.47223587604e-06
-6.47224289624e-06
-6.47225377879e-06
-6.47226747252e-06
-6.47228165677e-06
-6.47229785257e-06
-6.47230755448e-06
-6.47223167632e-06
-6.47222038028e-06
-6.47219995711e-06
-6.4721836187e-06
-6.47216849566e-06
-6.47215685336e-06
-6.47214959697e-06
-6.47214729605e-06
-6.47214998907e-06
-6.47215764056e-06
-6.4721696558e-06
-6.47218509493e-06
-6.4722016836e-06
-6.47222147611e-06
-6.4722343802e-06
-6.47216224933e-06
-6.47214840071e-06
-6.47212489338e-06
-6.4721068348e-06
-6.47209075346e-06
-6.47207867493e-06
-6.47207129238e-06
-6.47206899142e-06
-6.47207176007e-06
-6.47207961023e-06
-6.47209212188e-06
-6.47210857187e-06
-6.47212689937e-06
-6.47214980671e-06
-6.47216563103e-06
-6.47209628879e-06
-6.47207967496e-06
-6.47205352935e-06
-6.47203450427e-06
-6.47201830758e-06
-6.47200650811e-06
-6.47199946415e-06
-6.47199732106e-06
-6.47199999773e-06
-6.47200757418e-06
-6.47201986799e-06
-6.47203649055e-06
-6.47205581363e-06
-6.47208141411e-06
-6.47210036972e-06
-6.47203181847e-06
-6.47201153984e-06
-6.47198322212e-06
-6.47196415312e-06
-6.47194882975e-06
-6.47193809418e-06
-6.47193188353e-06
-6.47193005604e-06
-6.47193246726e-06
-6.47193926183e-06
-6.47195054968e-06
-6.47196636991e-06
-6.47198578329e-06
-6.47201363909e-06
-6.47203666159e-06
-6.47196575126e-06
-6.47194011243e-06
-6.47191034559e-06
-6.47189253007e-06
-6.47187928193e-06
-6.47187048799e-06
-6.47186561086e-06
-6.47186426469e-06
-6.47186622098e-06
-6.47187171818e-06
-6.47188111029e-06
-6.47189493144e-06
-6.47191315847e-06
-6.47194258879e-06
-6.47197135578e-06
-6.47189183956e-06
-6.47185877462e-06
-6.47182957166e-06
-6.47181539552e-06
-6.47180594816e-06
-6.47180017344e-06
-6.47179722208e-06
-6.47179650778e-06
-6.47179783183e-06
-6.47180139532e-06
-6.47180779927e-06
-6.47181788422e-06
-6.47183256881e-06
-6.47186159248e-06
-6.47189814895e-06
-6.47178978222e-06
-6.47175132337e-06
-6.47173116653e-06
-6.47172619075e-06
-6.47172394453e-06
-6.47172322743e-06
-6.47172324803e-06
-6.47172352628e-06
-6.47172381651e-06
-6.4717243706e-06
-6.47172569515e-06
-6.47172863094e-06
-6.47173420951e-06
-6.47175446678e-06
-6.47179661803e-06
-6.47162595335e-06
-6.47161727061e-06
-6.47162057626e-06
-6.47163025674e-06
-6.47163760547e-06
-6.47164315242e-06
-6.47164676729e-06
-6.47164818369e-06
-6.47164730865e-06
-6.47164421929e-06
-6.47163924656e-06
-6.47163259522e-06
-6.47162372385e-06
-6.47162088645e-06
-6.47163271584e-06
-6.33497591092e-06
-6.33494236974e-06
-6.33490731195e-06
-6.3348741399e-06
-6.33484497028e-06
-6.33482265327e-06
-6.33480868073e-06
-6.3348039307e-06
-6.33480875083e-06
-6.33482274294e-06
-6.33484497281e-06
-6.3348739233e-06
-6.33490726677e-06
-6.33494188024e-06
-6.33497528076e-06
-6.33492630968e-06
-6.33489261713e-06
-6.33485686421e-06
-6.33482286871e-06
-6.33479297991e-06
-6.3347700617e-06
-6.33475570206e-06
-6.3347508405e-06
-6.33475587723e-06
-6.33477036484e-06
-6.33479329738e-06
-6.33482307049e-06
-6.33485721892e-06
-6.33489264351e-06
-6.33492616945e-06
-6.33492687881e-06
-6.33489691693e-06
-6.33486435399e-06
-6.33483300025e-06
-6.33480523187e-06
-6.33478382195e-06
-6.33477035671e-06
-6.33476579497e-06
-6.33477055668e-06
-6.33478417972e-06
-6.3348056471e-06
-6.33483335297e-06
-6.33486481869e-06
-6.33489710618e-06
-6.33492699278e-06
-6.33493722175e-06
-6.33491073182e-06
-6.33488118229e-06
-6.33485260176e-06
-6.33482711722e-06
-6.33480737475e-06
-6.33479490807e-06
-6.33479067784e-06
-6.33479511069e-06
-6.33480774528e-06
-6.3348275788e-06
-6.33485304421e-06
-6.33488170706e-06
-6.33491097188e-06
-6.33493758717e-06
-6.33494592172e-06
-6.33492217101e-06
-6.33489501156e-06
-6.33486888132e-06
-6.33484546216e-06
-6.33482726383e-06
-6.33481574599e-06
-6.33481183847e-06
-6.33481595861e-06
-6.33482765619e-06
-6.33484596635e-06
-6.33486939746e-06
-6.33489560859e-06
-6.33492246284e-06
-6.33494652277e-06
-6.33495493177e-06
-6.33493353629e-06
-6.334908529e-06
-6.33488471701e-06
-6.33486333097e-06
-6.33484669608e-06
-6.33483615686e-06
-6.33483258628e-06
-6.33483637997e-06
-6.33484711172e-06
-6.33486387848e-06
-6.33488530418e-06
-6.33490918964e-06
-6.33493391724e-06
-6.33495574025e-06
-6.33496583258e-06
-6.33494664494e-06
-6.33492361888e-06
-6.33490205801e-06
-6.33488270609e-06
-6.33486767009e-06
-6.33485815145e-06
-6.3348549359e-06
-6.3348583862e-06
-6.33486810795e-06
-6.33488328972e-06
-6.33490270272e-06
-6.33492433294e-06
-6.33494709615e-06
-6.33496686667e-06
-6.33497894385e-06
-6.3349617757e-06
-6.33494055244e-06
-6.33492114013e-06
-6.33490379623e-06
-6.33489037253e-06
-6.33488189803e-06
-6.33487904892e-06
-6.33488214445e-06
-6.33489083299e-06
-6.33490441754e-06
-6.33492184521e-06
-6.33494132803e-06
-6.33496230052e-06
-6.33498022401e-06
-6.33499426523e-06
-6.33497883067e-06
-6.33495920543e-06
-6.33494179211e-06
-6.33492638373e-06
-6.33491454439e-06
-6.334907112e-06
-6.3349046314e-06
-6.33490736856e-06
-6.33491502581e-06
-6.33492703798e-06
-6.33494255265e-06
-6.33496004533e-06
-6.33497943485e-06
-6.33499579539e-06
-6.33501160788e-06
-6.33499750229e-06
-6.33497922946e-06
-6.33496362198e-06
-6.33495004239e-06
-6.33493973366e-06
-6.33493331741e-06
-6.3349311995e-06
-6.33493358404e-06
-6.33494023514e-06
-6.33495073195e-06
-6.33496444146e-06
-6.33498014191e-06
-6.33499820315e-06
-6.3350134e-06
-6.33503056839e-06
-6.335017244e-06
-6.33500004027e-06
-6.3349860285e-06
-6.33497415482e-06
-6.33496529354e-06
-6.33495985134e-06
-6.33495807802e-06
-6.33496012456e-06
-6.3349658091e-06
-6.3349748705e-06
-6.33498690081e-06
-6.33500102033e-06
-6.33501804295e-06
-6.33503263305e-06
-6.33505072571e-06
-6.33503736039e-06
-6.33502088374e-06
-6.33500825795e-06
-6.33499794626e-06
-6.33499043569e-06
-6.3349858911e-06
-6.33498444397e-06
-6.33498616466e-06
-6.33499095697e-06
-6.33499867913e-06
-6.33500916875e-06
-6.3350219229e-06
-6.33503824481e-06
-6.33505303254e-06
-6.33507187614e-06
-6.33505720935e-06
-6.33504106643e-06
-6.33502961583e-06
-6.33502066164e-06
-6.33501428495e-06
-6.33501051196e-06
-6.3350093177e-06
-6.33501078015e-06
-6.33501479591e-06
-6.3350213852e-06
-6.33503054017e-06
-6.33504213732e-06
-6.33505816925e-06
-6.33507442844e-06
-6.33508977518e-06
-6.33507301569e-06
-6.3350585816e-06
-6.33504890915e-06
-6.33504146125e-06
-6.33503620407e-06
-6.3350330878e-06
-6.33503214013e-06
-6.33503334049e-06
-6.33503667711e-06
-6.33504214727e-06
-6.33504979641e-06
-6.33505963063e-06
-6.33507401173e-06
-6.33509255396e-06
-6.33507073448e-06
-6.33506945821e-06
-6.33506455797e-06
-6.33506173045e-06
-6.33505914282e-06
-6.3350571683e-06
-6.33505599062e-06
-6.33505566004e-06
-6.33505621508e-06
-6.33505759313e-06
-6.33505974792e-06
-6.33506252976e-06
-6.33506554504e-06
-6.33507041149e-06
-6.33507329464e-06
-5.80218609872e-06
-5.80220699651e-06
-5.80222624389e-06
-5.80224361758e-06
-5.80225799989e-06
-5.80226856585e-06
-5.80227495715e-06
-5.80227692061e-06
-5.80227432555e-06
-5.80226736146e-06
-5.80225638396e-06
-5.80224190385e-06
-5.80222457287e-06
-5.80220552961e-06
-5.80218411978e-06
-5.80220833335e-06
-5.80222921439e-06
-5.80224911362e-06
-5.80226733291e-06
-5.80228244538e-06
-5.80229357298e-06
-5.80230031219e-06
-5.80230239563e-06
-5.8022996689e-06
-5.80229235422e-06
-5.80228083235e-06
-5.80226566722e-06
-5.80224761417e-06
-5.80222791918e-06
-5.80220671855e-06
-5.80218807016e-06
-5.80220569147e-06
-5.80222276037e-06
-5.80223877853e-06
-5.80225214052e-06
-5.8022620505e-06
-5.80226807534e-06
-5.8022699453e-06
-5.80226748965e-06
-5.80226093653e-06
-5.80225065404e-06
-5.80223720079e-06
-5.80222133849e-06
-5.80220435336e-06
-5.80218656217e-06
-5.80216151493e-06
-5.80217606823e-06
-5.80219035498e-06
-5.80220399329e-06
-5.80221547291e-06
-5.80222405866e-06
-5.80222930425e-06
-5.80223094051e-06
-5.80222878858e-06
-5.80222307369e-06
-5.80221414669e-06
-5.80220254833e-06
-5.80218900978e-06
-5.80217474198e-06
-5.80216008437e-06
-5.80213746416e-06
-5.8021495839e-06
-5.80216160032e-06
-5.80217316184e-06
-5.80218298611e-06
-5.80219037814e-06
-5.80219492004e-06
-5.80219633877e-06
-5.80219446072e-06
-5.80218949854e-06
-5.8021817864e-06
-5.80217183139e-06
-5.80216031007e-06
-5.80214828669e-06
-5.80213610655e-06
-5.80211432359e-06
-5.80212444754e-06
-5.80213439179e-06
-5.80214407059e-06
-5.80215234813e-06
-5.80215862048e-06
-5.8021624917e-06
-5.80216370554e-06
-5.80216208847e-06
-5.80215784562e-06
-5.80215128434e-06
-5.80214286861e-06
-5.80213319816e-06
-5.80212316705e-06
-5.80211311427e-06
-5.8020911631e-06
-5.80209951444e-06
-5.80210757882e-06
-5.80211552415e-06
-5.80212234636e-06
-5.80212755189e-06
-5.80213077826e-06
-5.80213179206e-06
-5.80213042397e-06
-5.8021268668e-06
-5.80212139843e-06
-5.80211443072e-06
-5.8021064732e-06
-5.8020982542e-06
-5.80209008065e-06
-5.80206787711e-06
-5.80207462088e-06
-5.8020810174e-06
-5.80208738049e-06
-5.80209287988e-06
-5.80209710641e-06
-5.80209974223e-06
-5.80210057062e-06
-5.8020994348e-06
-5.80209650939e-06
-5.80209204441e-06
-5.80208639725e-06
-5.80207998645e-06
-5.8020734009e-06
-5.80206688923e-06
-5.80204434857e-06
-5.80204969206e-06
-5.80205460963e-06
-5.80205959418e-06
-5.80206393908e-06
-5.80206730577e-06
-5.8020694204e-06
-5.80207008385e-06
-5.80206915271e-06
-5.80206678332e-06
-5.80206319827e-06
-5.80205870611e-06
-5.80205364403e-06
-5.8020485092e-06
-5.80204348053e-06
-5.80202043119e-06
-5.80202449776e-06
-5.80202812757e-06
-5.80203197562e-06
-5.80203537398e-06
-5.80203804259e-06
-5.8020397304e-06
-5.80204026146e-06
-5.80203949998e-06
-5.80203758823e-06
-5.80203472267e-06
-5.80203117458e-06
-5.802027224e-06
-5.80202334815e-06
-5.8020196848e-06
-5.80199582579e-06
-5.80199867944e-06
-5.80200125918e-06
-5.80200427239e-06
-5.80200699731e-06
-5.80200916192e-06
-5.8020105459e-06
-5.80201097887e-06
-5.80201034668e-06
-5.80200876682e-06
-5.80200642222e-06
-5.8020035557e-06
-5.80200042181e-06
-5.80199758566e-06
-5.80199523485e-06
-5.80197006061e-06
-5.80197172912e-06
-5.80197359767e-06
-5.80197618441e-06
-5.80197856811e-06
-5.80198048378e-06
-5.80198170174e-06
-5.8019820897e-06
-5.80198152819e-06
-5.80198013712e-06
-5.80197806264e-06
-5.80197554236e-06
-5.80197283235e-06
-5.80197071204e-06
-5.80196964957e-06
-5.80194176648e-06
-5.80194250244e-06
-5.80194435094e-06
-5.80194716416e-06
-5.80194972618e-06
-5.80195172687e-06
-5.80195300767e-06
-5.80195339854e-06
-5.8019528547e-06
-5.80195142257e-06
-5.801949271e-06
-5.80194659428e-06
-5.80194365996e-06
-5.80194158643e-06
-5.80194156303e-06
-5.80190856269e-06
-5.80190936081e-06
-5.80191238284e-06
-5.80191638456e-06
-5.80191979953e-06
-5.80192241423e-06
-5.80192402483e-06
-5.80192455158e-06
-5.80192389052e-06
-5.80192213074e-06
-5.80191939067e-06
-5.80191586495e-06
-5.80191175989e-06
-5.80190856006e-06
-5.80190863025e-06
-5.80188106505e-06
-5.80187999652e-06
-5.80188340758e-06
-5.80188721888e-06
-5.80189035851e-06
-5.80189274365e-06
-5.80189424044e-06
-5.80189470916e-06
-5.80189410648e-06
-5.80189246998e-06
-5.80188994526e-06
-5.8018867023e-06
-5.80188280669e-06
-5.80187924432e-06
-5.80188111529e-06
-5.59069584431e-06
-5.59067738537e-06
-5.59065958899e-06
-5.59064356085e-06
-5.5906296548e-06
-5.59061897633e-06
-5.5906123666e-06
-5.59061012532e-06
-5.59061236791e-06
-5.59061889226e-06
-5.59062931704e-06
-5.59064305703e-06
-5.59065930124e-06
-5.5906768405e-06
-5.5906955001e-06
-5.59067202404e-06
-5.59065361189e-06
-5.59063543176e-06
-5.59061884701e-06
-5.59060443499e-06
-5.59059338518e-06
-5.5905865352e-06
-5.5905842152e-06
-5.59058657225e-06
-5.59059337726e-06
-5.59060422233e-06
-5.59061848525e-06
-5.59063527408e-06
-5.5906533355e-06
-5.59067190204e-06
-5.59068381996e-06
-5.59066812071e-06
-5.59065224746e-06
-5.5906374588e-06
-5.59062453777e-06
-5.59061459641e-06
-5.59060840581e-06
-5.59060629654e-06
-5.59060843183e-06
-5.59061458407e-06
-5.59062435667e-06
-5.59063714135e-06
-5.59065205026e-06
-5.59066785454e-06
-5.59068366797e-06
-5.59070169039e-06
-5.59068857839e-06
-5.59067493683e-06
-5.5906620662e-06
-5.59065075165e-06
-5.59064202449e-06
-5.59063655527e-06
-5.59063467579e-06
-5.59063656019e-06
-5.59064198977e-06
-5.5906505864e-06
-5.59066177048e-06
-5.59067468923e-06
-5.59068823878e-06
-5.59070151224e-06
-5.5907180536e-06
-5.59070703386e-06
-5.59069521106e-06
-5.59068403913e-06
-5.59067415983e-06
-5.59066651468e-06
-5.59066170026e-06
-5.59066003379e-06
-5.59066169065e-06
-5.59066646149e-06
-5.59067399278e-06
-5.59068374542e-06
-5.59069492522e-06
-5.59070661054e-06
-5.59071784829e-06
-5.59073414674e-06
-5.59072485401e-06
-5.59071470399e-06
-5.59070510394e-06
-5.59069658307e-06
-5.59068997644e-06
-5.59068579485e-06
-5.5906843369e-06
-5.59068577186e-06
-5.59068990503e-06
-5.59069641206e-06
-5.59070480867e-06
-5.59071437924e-06
-5.59072440557e-06
-5.59073387751e-06
-5.59075077318e-06
-5.59074306224e-06
-5.59073443781e-06
-5.59072630696e-06
-5.59071907845e-06
-5.59071346272e-06
-5.59070989375e-06
-5.59070864031e-06
-5.59070985974e-06
-5.59071337328e-06
-5.59071889327e-06
-5.59072599826e-06
-5.59073406482e-06
-5.59074257377e-06
-5.5907504658e-06
-5.59076801699e-06
-5.59076173229e-06
-5.59075447502e-06
-5.59074769672e-06
-5.59074167086e-06
-5.59073698337e-06
-5.59073399248e-06
-5.59073293349e-06
-5.5907339488e-06
-5.59073687794e-06
-5.59074147359e-06
-5.5907473812e-06
-5.59075407628e-06
-5.59076121496e-06
-5.59076771043e-06
-5.59078590443e-06
-5.5907808679e-06
-5.59077481673e-06
-5.59076923937e-06
-5.59076428669e-06
-5.59076043152e-06
-5.59075796581e-06
-5.59075708442e-06
-5.59075791392e-06
-5.59076031274e-06
-5.59076407514e-06
-5.5907689135e-06
-5.59077439959e-06
-5.59078032799e-06
-5.59078560181e-06
-5.59080446731e-06
-5.59080049353e-06
-5.59079548036e-06
-5.590790916e-06
-5.59078687642e-06
-5.59078373813e-06
-5.59078172454e-06
-5.59078100038e-06
-5.59078166761e-06
-5.59078360963e-06
-5.59078665835e-06
-5.59079058911e-06
-5.59079506167e-06
-5.59079995494e-06
-5.59080418085e-06
-5.59082375977e-06
-5.59082069144e-06
-5.59081651497e-06
-5.59081272954e-06
-5.59080940895e-06
-5.5908068344e-06
-5.59080518799e-06
-5.59080458822e-06
-5.59080512706e-06
-5.59080670027e-06
-5.59080918354e-06
-5.59081240415e-06
-5.59081609472e-06
-5.59082015731e-06
-5.59082349534e-06
-5.59084399291e-06
-5.59084161276e-06
-5.59083798292e-06
-5.59083468845e-06
-5.59083183377e-06
-5.59082965682e-06
-5.5908282597e-06
-5.5908277579e-06
-5.59082819683e-06
-5.5908295186e-06
-5.59083161215e-06
-5.59083436421e-06
-5.59083756674e-06
-5.59084107095e-06
-5.59084372952e-06
-5.5908658935e-06
-5.59086377505e-06
-5.59086020106e-06
-5.59085694159e-06
-5.59085422134e-06
-5.59085215401e-06
-5.59085087329e-06
-5.59085039294e-06
-5.59085081e-06
-5.5908520247e-06
-5.59085399654e-06
-5.59085663326e-06
-5.59085978677e-06
-5.59086323332e-06
-5.59086564432e-06
-5.59088996269e-06
-5.59088738451e-06
-5.59088341339e-06
-5.59087976125e-06
-5.59087674479e-06
-5.59087452158e-06
-5.59087311181e-06
-5.59087262644e-06
-5.59087305821e-06
-5.59087438956e-06
-5.59087654421e-06
-5.59087945506e-06
-5.59088301058e-06
-5.59088683061e-06
-5.5908897535e-06
-5.59090342062e-06
-5.59090492518e-06
-5.59090258991e-06
-5.59090031034e-06
-5.59089835655e-06
-5.5908968216e-06
-5.59089584468e-06
-5.59089548262e-06
-5.5908957868e-06
-5.59089669945e-06
-5.59089814453e-06
-5.59090001053e-06
-5.59090216634e-06
-5.59090432381e-06
-5.59090312924e-06
-5.11287187874e-06
-5.11288732851e-06
-5.11290222179e-06
-5.11291572975e-06
-5.11292699383e-06
-5.11293532224e-06
-5.1129403799e-06
-5.11294196231e-06
-5.112939981e-06
-5.11293458377e-06
-5.11292606619e-06
-5.1129148711e-06
-5.11290160566e-06
-5.11288721984e-06
-5.11287161551e-06
-5.11288999162e-06
-5.1129055402e-06
-5.11292088327e-06
-5.11293495954e-06
-5.11294671616e-06
-5.11295541442e-06
-5.11296069336e-06
-5.11296234208e-06
-5.11296025629e-06
-5.11295460847e-06
-5.11294571461e-06
-5.11293405242e-06
-5.11292029823e-06
-5.11290545507e-06
-5.11288994938e-06
-5.11287833219e-06
-5.11289163104e-06
-5.11290491943e-06
-5.11291739869e-06
-5.11292788783e-06
-5.11293570884e-06
-5.11294047811e-06
-5.11294197851e-06
-5.11294009117e-06
-5.11293499426e-06
-5.11292699587e-06
-5.11291656771e-06
-5.11290438631e-06
-5.11289145386e-06
-5.11287830911e-06
-5.11286182592e-06
-5.11287292874e-06
-5.11288422372e-06
-5.11289497218e-06
-5.11290410175e-06
-5.11291096591e-06
-5.11291517635e-06
-5.11291651465e-06
-5.11291485277e-06
-5.11291036742e-06
-5.11290335425e-06
-5.11289426763e-06
-5.11288375843e-06
-5.11287274393e-06
-5.11286178369e-06
-5.11284674316e-06
-5.11285607997e-06
-5.11286574781e-06
-5.11287496566e-06
-5.11288287985e-06
-5.11288886767e-06
-5.11289256487e-06
-5.1128937486e-06
-5.11289229305e-06
-5.11288836552e-06
-5.11288224716e-06
-5.11287436282e-06
-5.11286531882e-06
-5.11285589623e-06
-5.11284668466e-06
-5.11283198447e-06
-5.11283986989e-06
-5.11284802743e-06
-5.11285585738e-06
-5.11286262693e-06
-5.11286777912e-06
-5.11287097569e-06
-5.11287200789e-06
-5.11287074995e-06
-5.11286736242e-06
-5.112862103e-06
-5.11285535816e-06
-5.1128476721e-06
-5.11283967189e-06
-5.11283198123e-06
-5.11281691441e-06
-5.1128234784e-06
-5.11283026163e-06
-5.11283679575e-06
-5.1128424677e-06
-5.11284680874e-06
-5.11284951422e-06
-5.11285039519e-06
-5.11284932895e-06
-5.11284646525e-06
-5.1128420345e-06
-5.1128363763e-06
-5.11282996183e-06
-5.11282326627e-06
-5.11281694049e-06
-5.11280146457e-06
-5.11280679751e-06
-5.11281236028e-06
-5.11281770281e-06
-5.11282236268e-06
-5.11282594525e-06
-5.11282818895e-06
-5.11282892428e-06
-5.11282803855e-06
-5.11282566635e-06
-5.11282200956e-06
-5.11281735754e-06
-5.11281210407e-06
-5.11280659214e-06
-5.11280148222e-06
-5.11278556563e-06
-5.1127898388e-06
-5.1127943189e-06
-5.11279860753e-06
-5.11280236351e-06
-5.11280526082e-06
-5.11280708514e-06
-5.1128076856e-06
-5.11280696255e-06
-5.11280503363e-06
-5.1128020711e-06
-5.11279831572e-06
-5.11279408698e-06
-5.11278962723e-06
-5.11278559796e-06
-5.11276919122e-06
-5.11277252206e-06
-5.11277606292e-06
-5.1127794692e-06
-5.11278246072e-06
-5.1127847817e-06
-5.11278624572e-06
-5.11278673191e-06
-5.11278614718e-06
-5.11278459642e-06
-5.11278222173e-06
-5.11277922072e-06
-5.11277584974e-06
-5.11277229899e-06
-5.11276922932e-06
-5.11275221526e-06
-5.11275471819e-06
-5.11275750542e-06
-5.11276023648e-06
-5.11276264935e-06
-5.11276451884e-06
-5.11276570468e-06
-5.11276609683e-06
-5.11276562345e-06
-5.11276436678e-06
-5.11276244724e-06
-5.11276002407e-06
-5.112757307e-06
-5.11275449617e-06
-5.11275228672e-06
-5.11273443215e-06
-5.11273622886e-06
-5.11273850721e-06
-5.11274084183e-06
-5.11274288817e-06
-5.11274448345e-06
-5.112745479e-06
-5.11274581601e-06
-5.11274541256e-06
-5.11274435399e-06
-5.11274272384e-06
-5.11274065654e-06
-5.11273832892e-06
-5.11273602334e-06
-5.11273455705e-06
-5.11271508646e-06
-5.11271647105e-06
-5.11271870448e-06
-5.11272104719e-06
-5.11272308741e-06
-5.112724616e-06
-5.11272559219e-06
-5.11272589988e-06
-5.11272553467e-06
-5.11272451861e-06
-5.11272294283e-06
-5.11272090369e-06
-5.11271855224e-06
-5.11271630287e-06
-5.1127152832e-06
-5.11269323533e-06
-5.11269490346e-06
-5.11269764786e-06
-5.11270053986e-06
-5.11270293131e-06
-5.11270475105e-06
-5.11270585631e-06
-5.11270623592e-06
-5.11270581714e-06
-5.11270466173e-06
-5.11270282957e-06
-5.11270041787e-06
-5.11269753918e-06
-5.11269479068e-06
-5.1126935667e-06
-5.11267851257e-06
-5.11267753758e-06
-5.11267956794e-06
-5.1126816771e-06
-5.11268348033e-06
-5.1126848623e-06
-5.11268574435e-06
-5.11268603159e-06
-5.11268570487e-06
-5.11268479245e-06
-5.11268337774e-06
-5.11268157569e-06
-5.11267946997e-06
-5.11267746354e-06
-5.11267884361e-06
-4.86035272163e-06
-4.8603393377e-06
-4.86032604478e-06
-4.86031397695e-06
-4.86030386439e-06
-4.86029626666e-06
-4.86029151378e-06
-4.86028989429e-06
-4.86029155684e-06
-4.86029636659e-06
-4.86030404543e-06
-4.86031415695e-06
-4.86032611125e-06
-4.86033902756e-06
-4.86035279338e-06
-4.86033561843e-06
-4.86032223772e-06
-4.86030862634e-06
-4.86029614046e-06
-4.86028564526e-06
-4.86027774646e-06
-4.86027280769e-06
-4.86027112705e-06
-4.86027286965e-06
-4.86027788508e-06
-4.86028587417e-06
-4.86029637507e-06
-4.86030873666e-06
-4.86032204319e-06
-4.86033574956e-06
-4.86034489657e-06
-4.86033347999e-06
-4.86032163134e-06
-4.86031052466e-06
-4.8603011118e-06
-4.86029398366e-06
-4.86028951298e-06
-4.86028798703e-06
-4.86028956951e-06
-4.86029410656e-06
-4.86030130712e-06
-4.86031071937e-06
-4.86032169453e-06
-4.86033332987e-06
-4.86034499345e-06
-4.86035860981e-06
-4.8603491083e-06
-4.86033896013e-06
-4.86032933994e-06
-4.86032108952e-06
-4.86031479805e-06
-4.86031083901e-06
-4.86030948265e-06
-4.8603108847e-06
-4.86031489168e-06
-4.86032122596e-06
-4.86032945638e-06
-4.86033895987e-06
-4.86034892053e-06
-4.86035869942e-06
-4.86037118314e-06
-4.8603632315e-06
-4.86035447181e-06
-4.86034615866e-06
-4.86033895328e-06
-4.86033342931e-06
-4.86032994127e-06
-4.86032874159e-06
-4.8603299761e-06
-4.86033349675e-06
-4.86033904177e-06
-4.8603462105e-06
-4.86035442268e-06
-4.86036299091e-06
-4.86037124528e-06
-4.86038354991e-06
-4.86037686709e-06
-4.86036939897e-06
-4.86036229479e-06
-4.86035608259e-06
-4.86035129751e-06
-4.86034826668e-06
-4.86034721947e-06
-4.86034828971e-06
-4.8603513373e-06
-4.86035612047e-06
-4.86036227924e-06
-4.86036929196e-06
-4.86037661595e-06
-4.86038354261e-06
-4.86039628266e-06
-4.86039076856e-06
-4.86038448125e-06
-4.86037849967e-06
-4.8603732417e-06
-4.86036917647e-06
-4.86036659404e-06
-4.86036569616e-06
-4.86036660581e-06
-4.8603691909e-06
-4.86037323744e-06
-4.86037843099e-06
-4.86038431848e-06
-4.86039049889e-06
-4.86039623042e-06
-4.86040943449e-06
-4.86040499274e-06
-4.86039976488e-06
-4.86039482126e-06
-4.86039045602e-06
-4.86038706862e-06
-4.86038490958e-06
-4.86038415343e-06
-4.86038490981e-06
-4.86038705773e-06
-4.86039041251e-06
-4.86039470888e-06
-4.8603995669e-06
-4.86040471032e-06
-4.86040937873e-06
-4.86042304122e-06
-4.86041953893e-06
-4.86041524788e-06
-4.86041122478e-06
-4.86040766054e-06
-4.8604048886e-06
-4.86040311592e-06
-4.86040249082e-06
-4.86040310613e-06
-4.86040485729e-06
-4.86040758746e-06
-4.86041108137e-06
-4.86041502923e-06
-4.8604192517e-06
-4.86042298067e-06
-4.86043712242e-06
-4.8604344316e-06
-4.86043095354e-06
-4.86042770878e-06
-4.86042483081e-06
-4.86042258724e-06
-4.8604211491e-06
-4.86042063687e-06
-4.86042113056e-06
-4.8604225389e-06
-4.86042473432e-06
-4.86042754674e-06
-4.8604307295e-06
-4.86043415905e-06
-4.86043707058e-06
-4.86045173901e-06
-4.86044975132e-06
-4.86044692949e-06
-4.86044428426e-06
-4.860441942e-06
-4.86044011843e-06
-4.86043894841e-06
-4.86043852823e-06
-4.86043892416e-06
-4.86044005749e-06
-4.86044183118e-06
-4.86044411207e-06
-4.86044670383e-06
-4.86044949268e-06
-4.86045169412e-06
-4.86046706307e-06
-4.86046562851e-06
-4.86046324067e-06
-4.8604609689e-06
-4.86045897853e-06
-4.86045743807e-06
-4.86045645593e-06
-4.86045610171e-06
-4.86045642693e-06
-4.86045737297e-06
-4.86045885871e-06
-4.86046079375e-06
-4.86046301947e-06
-4.86046537048e-06
-4.86046700383e-06
-4.86048366981e-06
-4.86048248203e-06
-4.86048014744e-06
-4.86047790492e-06
-4.86047598939e-06
-4.86047454052e-06
-4.86047362306e-06
-4.86047329563e-06
-4.86047359604e-06
-4.86047446997e-06
-4.86047587129e-06
-4.86047773053e-06
-4.86047992721e-06
-4.86048222305e-06
-4.86048359319e-06
-4.8605020439e-06
-4.86050055823e-06
-4.86049789146e-06
-4.86049530569e-06
-4.8604931633e-06
-4.86049155546e-06