/*--------------------------------*- C++ -*----------------------------------*\
  =========                 |
  \\      /  F ield         | OpenFOAM: The Open Source CFD Toolbox
   \\    /   O peration     | Website:  https://openfoam.org
    \\  /    A nd           | Version:  7
     \\/     M anipulation  |
\*---------------------------------------------------------------------------*/
FoamFile
{
    version     2.0;
    format      ascii;
    class       surfaceScalarField;
    location    "0.68";
    object      phi;
}
// * * * * * * * * * * * * * * * * * * * * * * * * * * * * * * * * * * * * * //

dimensions      [0 3 -1 0 0 0 0];

internalField   nonuniform List<scalar> 
65775
(
-7.48400851231e-12
-2.50583645129e-10
-6.21674595775e-11
3.72195638312e-14
-1.30108941372e-11
-2.61567610491e-10
-6.96609889998e-11
-1.58584075909e-11
-2.71447976349e-10
-7.73659095697e-11
-1.58639596007e-11
-2.79848626238e-10
-8.4657521654e-11
-1.33008833962e-11
-2.86480760918e-10
-9.09689183162e-11
-8.71701950856e-12
-2.91267449994e-10
-9.5838268274e-11
-2.84423316017e-12
-2.94255778547e-10
-9.89438227311e-11
3.4730081751e-12
-2.95393395984e-10
-1.00051891682e-10
9.33463460309e-12
-2.94265799325e-10
-9.8937676594e-11
1.38975725007e-11
-2.91287386418e-10
-9.58260464185e-11
1.64310927953e-11
-2.86511521286e-10
-9.09506195883e-11
1.63903450353e-11
-2.79890908028e-10
-8.46327883367e-11
1.35036324692e-11
-2.71502372416e-10
-7.73332723719e-11
7.94000910393e-12
-2.61629694824e-10
-6.96148716252e-11
-2.50574555928e-10
-6.209047841e-11
3.76992637975e-13
-1.88625714343e-11
-3.82119423605e-10
-1.54688002072e-10
7.68213952034e-14
-3.37334626968e-11
-3.95414322329e-10
-1.72780576848e-10
-4.1724067844e-11
-4.08218977082e-10
-1.91547487635e-10
-4.21744068556e-11
-4.19037086301e-10
-2.09416224638e-10
-3.55978494701e-11
-4.27448983144e-10
-2.24944217128e-10
-2.34041532209e-11
-4.33401429252e-10
-2.36954437256e-10
-7.59843289499e-12
-4.370818733e-10
-2.44622471223e-10
9.44933293982e-12
-4.38502124993e-10
-2.47354050027e-10
2.52224820454e-11
-4.37101076089e-10
-2.44603903775e-10
3.73539711177e-11
-4.33440763479e-10
-2.36917618448e-10
4.38423025318e-11
-4.27511473095e-10
-2.24889234039e-10
4.32825686263e-11
-4.19126637809e-10
-2.09342177751e-10
3.51674693841e-11
-4.08339651207e-10
-1.91450356632e-10
2.01435261418e-11
-3.95543797978e-10
-1.72645092163e-10
-3.82095301687e-10
-1.54475598502e-10
1.0724818559e-12
-2.69602193728e-11
-4.25573553166e-10
-2.19549305375e-10
9.75606623746e-14
-4.86854329259e-11
-4.35190544678e-10
-2.44794771115e-10
-6.06996167997e-11
-4.46063651392e-10
-2.71156822194e-10
-6.17194308417e-11
-4.55287622539e-10
-2.96383477044e-10
-5.2294417177e-11
-4.62325642739e-10
-3.18382522474e-10
-3.44286702997e-11
-4.67140260604e-10
-3.35436923716e-10
-1.11052875836e-11
-4.70065280169e-10
-3.46334946425e-10
1.40961606868e-11
-4.71225333605e-10
-3.50210486591e-10
3.73673004714e-11
-4.7008368513e-10
-3.46304629015e-10
5.51322996698e-11
-4.67179741445e-10
-3.35376898506e-10
6.44130889403e-11
-4.62392272598e-10
-3.1829311372e-10
6.32108833823e-11
-4.55389724189e-10
-2.96263640566e-10
5.09828935637e-11
-4.46210293185e-10
-2.71001195122e-10
2.89854162446e-11
-4.35337207188e-10
-2.44582389864e-10
-4.25508973542e-10
-2.19228526263e-10
1.70750767456e-12
-3.24449878492e-11
-4.05387203564e-10
-2.62571351554e-10
1.08643871913e-13
-5.88279572104e-11
-4.075868321e-10
-2.92316034857e-10
-7.37744208927e-11
-4.13282240943e-10
-3.2355781045e-10
-7.5353082044e-11
-4.1836756972e-10
-3.53595610432e-10
-6.40344236327e-11
-4.2209689574e-10
-3.79880364968e-10
-4.21881636347e-11
-4.24408381661e-10
-4.00303882128e-10
-1.34994542945e-11
-4.25734943198e-10
-4.13366310629e-10
1.75469677742e-11
-4.26317127211e-10
-4.18003935782e-10
4.61651999627e-11
-4.25742453018e-10
-4.13325268273e-10
6.78745537156e-11
-4.24428225229e-10
-4.00222767441e-10
7.89954179148e-11
-4.22138173981e-10
-3.79759930405e-10
7.71638087071e-11
-4.18442797266e-10
-3.53435198193e-10
6.19150184919e-11
-4.13405997996e-10
-3.23352099278e-10
3.51529175406e-11
-4.07696250645e-10
-2.92042171512e-10
-4.05253578814e-10
-2.62172558801e-10
2.29688604058e-12
-3.5674571737e-11
-3.42233419215e-10
-2.87171193928e-10
1.13367151602e-13
-6.48633294779e-11
-3.35074163105e-10
-3.19218353058e-10
-8.17220222104e-11
-3.33782465809e-10
-3.53070911498e-10
-8.37800833032e-11
-3.33388230391e-10
-3.85775591118e-10
-7.13634102753e-11
-3.32849376527e-10
-4.14495967922e-10
-4.70230241701e-11
-3.32025133471e-10
-4.36865371797e-10
-1.48938297192e-11
-3.31378244357e-10
-4.51185588451e-10
1.99227759429e-11
-3.31239256885e-10
-4.5626123956e-10
5.19643746728e-11
-3.31365236053e-10
-4.51134708182e-10
7.61336906664e-11
-3.32005744199e-10
-4.3676505094e-10
8.8301467055e-11
-3.32835439249e-10
-4.14347662799e-10
8.59231151815e-11
-3.33395895789e-10
-3.85579660614e-10
6.8678829271e-11
-3.33831930884e-10
-3.52823421361e-10
3.90172344923e-11
-3.35090958449e-10
-3.1889701224e-10
-3.41994001291e-10
-2.86718585219e-10
2.85093206807e-12
-3.69952274833e-11
-2.53323265896e-10
-2.96464696924e-10
1.14048095381e-13
-6.74090728051e-11
-2.36320976226e-10
-3.29031773977e-10
-8.52419136634e-11
-2.27447632309e-10
-3.63638764878e-10
-8.76477842306e-11
-2.21195207178e-10
-3.97240869734e-10
-7.47885872171e-11
-2.16179153756e-10
-4.26859690486e-10
-4.9251224763e-11
-2.12133039671e-10
-4.49986685381e-10
-1.53931235065e-11
-2.09481993004e-10
-4.64806021559e-10
2.13394862287e-11
-2.08606406659e-10
-4.70049052154e-10
5.50937823899e-11
-2.09438948233e-10
-4.64745947765e-10
8.04275596897e-11
-2.12055005974e-10
-4.49868573742e-10
9.29892651407e-11
-2.16079876885e-10
-4.26686035483e-10
9.01995331754e-11
-2.21094246988e-10
-3.97013713595e-10
7.19046937231e-11
-2.27370591589e-10
-3.63356683119e-10
4.09356196559e-11
-2.3619057302e-10
-3.28674357007e-10
-2.52935345209e-10
-2.95975449153e-10
3.37476755205e-12
-3.67098602217e-11
-1.52721330217e-10
-2.93296871873e-10
1.12157924017e-13
-6.69925658824e-11
-1.26552245323e-10
-3.24976745571e-10
-8.49459896032e-11
-1.10477148106e-10
-3.58859566852e-10
-8.75348122186e-11
-9.87244726913e-11
-3.91934612029e-10
-7.47708608878e-11
-8.95686382315e-11
-4.21202885666e-10
-4.91647426024e-11
-8.2596479086e-11
-4.44115244749e-10
-1.50937060447e-11
-7.81458677037e-11
-4.58810771631e-10
2.19044996818e-11
-7.66058301952e-11
-4.63999317487e-10
5.58562763315e-11
-7.80639483978e-11
-4.58741871452e-10
8.12278632832e-11
-8.24414508196e-11
-4.43980200064e-10
9.3648276192e-11
-8.93553436153e-11
-4.21005570732e-10
9.06161721307e-11
-9.84754993865e-11
-3.91679390927e-10
7.21308399842e-11
-1.10223819308e-10
-3.58548387057e-10
4.12192252216e-11
-1.26220092587e-10
-3.24591600046e-10
-1.52136826265e-10
-2.92782935276e-10
3.8737510989e-12
-3.50584799909e-11
-5.16549004355e-11
-2.80265644211e-10
1.0838210185e-13
-6.40360315842e-11
-1.78711058602e-11
-3.0999116997e-10
-8.13386638693e-11
4.29282828463e-12
-3.42014410212e-10
-8.39303072204e-11
2.06679149481e-11
-3.73451392693e-10
-7.17080028296e-11
3.32646616434e-11
-4.01381316632e-10
-4.70190429973e-11
4.26292129376e-11
-4.23301977349e-10
-1.40804311399e-11
4.85335655194e-11
-4.37373014374e-10
2.17124994697e-11
5.06131658576e-11
-4.42329000996e-10
5.45171438133e-11
4.86622890108e-11
-4.37295324189e-10
7.89422387033e-11
4.28778748639e-11
-4.23150182999e-10
9.07776359141e-11
3.36181032458e-11
-4.01161030629e-10
8.76873863436e-11
2.11012349774e-11
-3.73169860814e-10
6.97887346004e-11
4.76898406218e-12
-3.4167752809e-10
4.01144050147e-11
-1.72846284787e-11
-3.09583380107e-10
-5.08217199608e-11
-2.79734589796e-10
4.35202825793e-12
-3.22228949947e-11
4.12091194644e-11
-2.59749950705e-10
1.03365142824e-13
-5.8861300807e-11
8.04494438525e-11
-2.86765542633e-10
-7.48161858867e-11
1.07104070094e-10
-3.16107054146e-10
-7.72311996362e-11
1.26914135687e-10
-3.45078915489e-10
-6.59320783294e-11
1.42060646527e-10
-3.70917674441e-10
-4.30316023644e-11
1.53171454466e-10
-3.91244327174e-10
-1.24263682161e-11
1.60121491313e-10
-4.04299302606e-10
2.08447395302e-11
1.62592154087e-10
-4.08883646281e-10
5.13021077773e-11
1.60303620903e-10
-4.04212520415e-10
7.39110519246e-11
1.53527679269e-10
-3.91075285499e-10
8.47827055023e-11
1.42576603095e-10
-3.70674017082e-10
8.18175731646e-11
1.27563391661e-10
-3.4477119493e-10
6.520727197e-11
1.07844814603e-10
-3.15745503135e-10
3.78079416844e-11
8.13398535628e-11
-2.86336913236e-10
4.23444031921e-11
-2.59205451066e-10
4.81322367812e-12
-2.83337133212e-11
1.19530740092e-10
-2.33946208235e-10
9.74369865167e-14
-5.1699168747e-11
1.61724314523e-10
-2.57787541114e-10
-6.56779638795e-11
1.91040213808e-10
-2.83910258413e-10
-6.77549081688e-11
2.12990333472e-10
-3.09843022169e-10
-5.77209857721e-11
2.2975267885e-10
-3.33044359836e-10
-3.73902797394e-11
2.41952612512e-10
-3.51327149925e-10
-1.01959330213e-11
2.49539702486e-10
-3.63069328314e-10
1.93717211944e-11
2.5225156287e-10
-3.67176802184e-10
4.64051260057e-11
2.49780120106e-10
-3.62972854979e-10
6.64183710963e-11
2.424269022e-10
-3.51139704855e-10
7.59869377768e-11
2.3044841352e-10
-3.32775797037e-10
7.33118225473e-11
2.13881203433e-10
-3.09507511677e-10
5.8621832301e-11
1.92081070358e-10
-2.83522664422e-10
3.44337945171e-11
1.62963488385e-10
-2.57336775375e-10
1.21020479079e-10
-2.33388468351e-10
5.26021433186e-12
-2.34721871684e-11
1.79098129825e-10
-2.04901572919e-10
9.09764521017e-14
-4.27023321948e-11
2.21662038356e-10
-2.25379671599e-10
-5.41523362499e-11
2.51837221071e-10
-2.48001191352e-10
-5.57707652662e-11
2.74707836298e-10
-2.70538010237e-10
-4.73272363643e-11
2.92224559855e-10
-2.90729100865e-10
-3.02727501082e-11
3.04914999592e-10
-3.06645144651e-10
-7.45193315058e-12
3.12768414549e-10
-3.16856725499e-10
1.73597147413e-11
3.15584730339e-10
-3.2041036205e-10
4.00072534849e-11
3.13070163962e-10
-3.16749729315e-10
5.67198875824e-11
3.05514145844e-10
-3.06437583332e-10
6.46625350151e-11
2.93111806381e-10
-2.90433056836e-10
6.24005872079e-11
2.75859062623e-10
-2.70171451893e-10
5.01862448109e-11
2.53206503463e-10
-2.47583943599e-10
3.00741311518e-11
2.23287839733e-10
-2.24902863493e-10
1.80989141627e-10
-2.04327832637e-10
5.69518197903e-12
-1.76654217366e-11
2.17652216356e-10
-1.7454298412e-10
8.36423765971e-14
-3.19735148719e-11
2.58236476242e-10
-1.91731576808e-10
-4.04564152806e-11
2.87754721528e-10
-2.10789282281e-10
-4.15700365551e-11
3.10537743444e-10
-2.29749610896e-10
-3.50378971337e-11
3.28080163863e-10
-2.46695938301e-10
-2.18859233257e-11
3.40745881118e-10
-2.60024139118e-10
-4.26910052917e-12
3.48545758886e-10
-2.68551325086e-10
1.48837523529e-11
3.51347381328e-10
-2.71497314263e-10
3.23154275321e-11
3.48910456025e-10
-2.6843294776e-10
4.51020916738e-11
3.41473295834e-10
-2.59794558374e-10
5.10993168932e-11
3.29165300199e-10
-2.46369227218e-10
4.92984453726e-11
3.11961251152e-10
-2.29347506067e-10
3.99992530092e-11
2.89473476957e-10
-2.10337101079e-10
2.47515655682e-11
2.60278953705e-10
-1.91223440463e-10
2.19981021995e-10
-1.73948783795e-10
6.11834841252e-12
-1.08749916178e-11
2.34738749743e-10
-1.44711114576e-10
7.42938923783e-14
-1.96421418526e-11
2.71672389353e-10
-1.58926502468e-10
-2.49297596235e-11
2.99514411076e-10
-1.74526428407e-10
-2.55999947603e-11
3.21438073069e-10
-1.89857265131e-10
-2.12793232818e-11
3.38384447249e-10
-2.03427326836e-10
-1.25297024194e-11
3.5056937038e-10
-2.14026302738e-10
-7.5603093767e-13
3.58031884988e-10
-2.20767375901e-10
1.20494315796e-11
3.60716071491e-10
-2.23071181768e-10
2.3625813599e-11
3.58460503315e-10
-2.20637135728e-10
3.19865452738e-11
3.51427148523e-10
-2.13773349868e-10
3.57382890719e-11
3.39670508032e-10
-2.03067088359e-10
3.43371832546e-11
3.23140334004e-10
-1.89414729464e-10
2.81807666031e-11
3.01597462075e-10
-1.74033159061e-10
1.84148666713e-11
2.74157944002e-10
-1.58382340162e-10
2.37541250735e-10
-1.44094504022e-10
6.5069280347e-12
-3.1039587981e-12
2.31690611794e-10
-1.1718605097e-10
5.95343695854e-14
-6.21973818474e-12
2.64657914084e-10
-1.28919417849e-10
-8.3910682414e-12
2.90188925911e-10
-1.41256738348e-10
-8.73023497139e-12
3.10541408553e-10
-1.52983951625e-10
-6.78926623107e-12
3.26273485298e-10
-1.63125456315e-10
-2.69291008562e-12
3.37531547632e-10
-1.70923953106e-10
2.91572414965e-12
3.44392756313e-10
-1.75825901883e-10
9.02237104536e-12
3.46867590475e-10
-1.77471450319e-10
1.44205265932e-11
3.44887976252e-10
-1.75684449679e-10
1.81024413359e-11
3.38523636668e-10
-1.70648183229e-10
1.943857694e-11
3.27764018408e-10
-1.62731045668e-10
1.83236695526e-11
3.12525453878e-10
-1.52497479368e-10
1.52328191026e-11
2.92642482992e-10
-1.40715958907e-10
1.10589164e-11
2.67609279812e-10
-1.28336077227e-10
2.34982484176e-10
-1.16552314728e-10
6.87589393792e-12
3.25236962331e-12
-9.37321708562e-11
4.87469570228e-14
2.1399012849e-10
5.58174530265e-12
-1.0341595818e-10
2.41904477708e-10
6.77613336151e-12
-1.12685043696e-10
2.642286626e-10
7.15177458917e-12
-1.20887144026e-10
2.82241014853e-10
7.08224467315e-12
-1.27626341426e-10
2.96181429985e-10
6.8157891662e-12
-1.32629881261e-10
3.06151893487e-10
6.47406111503e-12
-1.35694364496e-10
3.12222922252e-10
6.06754199572e-12
-1.36686315831e-10
3.14432461093e-10
5.49854785533e-12
-1.35544891677e-10
3.12793690577e-10
4.78556589665e-12
-1.32337261754e-10
3.07294239879e-10
4.0666841453e-12
-1.27204958761e-10
2.97895171192e-10
3.61374398589e-12
-1.20362031178e-10
2.84522989347e-10
3.8265523467e-12
-1.12097833268e-10
2.6706986259e-10
5.04212859617e-12
-1.02782116755e-10
2.45328847619e-10
-9.3115347837e-11
7.19815805926e-12
2.17796920478e-10
7.65397523991e-14
-4.0591469425e-12
-5.81579375935e-11
1.23344889632e-14
1.39819122444e-14
-4.66291567868e-12
-6.48726938082e-11
-5.85741604153e-14
-5.42759875434e-12
-7.18010948178e-11
-1.00630115e-13
-6.18041610673e-12
-7.83759903354e-11
-9.72149157402e-14
-6.84938284441e-12
-8.40769434992e-11
-5.0874035752e-14
-7.36859973704e-12
-8.84797715885e-11
2.49715243111e-14
-7.6989888553e-12
-9.12886704345e-11
1.10106597057e-13
-7.81686997044e-12
-9.22897987367e-11
1.84107908445e-13
-7.70496251336e-12
-9.12775286621e-11
2.2625444911e-13
-7.38226510769e-12
-8.84577313238e-11
2.21102947062e-13
-6.87397923642e-12
-8.40443905934e-11
1.6409105144e-13
-6.21628648423e-12
-7.83331741379e-11
7.16255164129e-14
-5.46793795377e-12
-7.17473885325e-11
-1.20658248126e-14
-4.70273127527e-12
-6.48038805886e-11
-4.07722013243e-12
-5.80589388259e-11
5.69201015569e-14
1.76599528491e-13
-5.2477605913e-12
-1.53635642837e-10
3.21785233803e-14
7.69784545974e-14
-6.14369445393e-12
-1.71101603069e-10
-8.20223868278e-14
-7.49607038083e-12
-1.89216941035e-10
-1.83744464695e-13
-8.92075426524e-12
-2.06483401186e-10
-1.81295950805e-13
-1.0220642261e-11
-2.2150359547e-10
-7.24908967413e-14
-1.1243239894e-11
-2.33129846284e-10
1.1085160361e-13
-1.18981581602e-11
-2.40553995582e-10
3.17496039402e-13
-1.21330857843e-11
-2.43194667188e-10
4.93365332828e-13
-1.19160940668e-11
-2.4052087043e-10
5.85773449484e-13
-1.12820603947e-11
-2.33064375069e-10
5.59032798524e-13
-1.02853511621e-11
-2.21407027454e-10
4.11491261656e-13
-9.01171412705e-12
-2.06356675403e-10
1.9334629851e-13
-7.60052045253e-12
-1.89058636416e-10
3.00777834598e-14
-6.24520350885e-12
-1.70900421482e-10
-5.30778673768e-12
-1.5335921459e-10
1.80415963243e-13
2.70762549676e-13
-1.09669056383e-12
-2.23948993193e-10
4.68057432639e-14
2.0019054429e-13
-1.69192734567e-12
-2.49086568501e-10
1.44561142746e-14
-3.102256511e-12
-2.752706279e-10
-1.20352191517e-13
-4.76891670305e-12
-3.0031833886e-10
-1.27894697078e-13
-6.36258213204e-12
-3.22167025615e-10
3.96070750749e-15
-7.64674271238e-12
-3.39110316083e-10
2.35630258611e-13
-8.4781766059e-12
-3.49937041517e-10
4.97710799549e-13
-8.7778245655e-12
-3.537809604e-10
7.14833524726e-13
-8.50987988722e-12
-3.49883081073e-10
8.15651569301e-13
-7.71291967122e-12
-3.39003781698e-10
7.56261226108e-13
-6.46748860115e-12
-3.22010201481e-10
5.45035859821e-13
-4.91095725384e-12
-3.00113271737e-10
2.62952789791e-13
-3.26503227406e-12
-2.75016272816e-10
8.85497219176e-14
-1.84866404038e-12
-2.48768249662e-10
-1.20071730043e-12
-2.23524451328e-10
3.10898112179e-13
4.0883526949e-13
7.18802294788e-12
-2.71257221887e-10
5.81004700249e-14
4.44415035376e-13
7.31733382436e-12
-3.01278850974e-10
3.00339637294e-13
6.25594360167e-12
-3.3268694502e-10
1.61666241485e-13
4.69630340321e-12
-3.62848225036e-10
1.26552086592e-13
3.08780383502e-12
-3.89234740975e-10
2.21816055124e-13
1.74382835723e-12
-4.09737915182e-10
4.13839698736e-13
8.59319297052e-13
-4.22848765058e-10
6.33247181469e-13
5.38274372028e-13
-4.27495033921e-10
8.0254586687e-13
8.13367186675e-13
-4.22775420995e-10
8.50402367992e-13
1.65037736743e-12
-4.09593314973e-10
7.39446298452e-13
2.94499701546e-12
-3.89022436201e-10
4.93979507117e-13
4.5087882045e-12
-3.62571917167e-10
2.18211117706e-13
6.04190384312e-12
-3.32347293817e-10
1.11971486768e-13
7.11037998939e-12
-3.00861296656e-10
7.03775371299e-12
-2.70716768204e-10
4.48442790265e-13
6.13513349744e-13
1.83520874053e-11
-2.98954977527e-10
6.68191099261e-14
8.33063230616e-13
1.94728138563e-11
-3.31519250095e-10
7.94241607357e-13
1.90423735612e-11
-3.65743476034e-10
6.77898974466e-13
1.78477768994e-11
-3.98744614641e-10
5.94346544912e-13
1.64369860018e-11
-4.27706237513e-10
5.88934722317e-13
1.51900141535e-11
-4.50258184659e-10
6.47504788987e-13
1.43489897056e-11
-4.6468998454e-10
7.19791176663e-13
1.40405390566e-11
-4.69794354675e-10
7.46782233655e-13
1.42898431641e-11
-4.64598673229e-10
6.7659598807e-13
1.50718343789e-11
-4.50078466735e-10
4.92569319089e-13
1.62609473834e-11
-4.27443234423e-10
2.39310424195e-13
1.762165047e-11
-3.98404328771e-10
3.49511340325e-14
1.8785670119e-11
-3.65329537957e-10
7.64210440808e-14
1.92224319576e-11
-3.31019398672e-10
1.81582474123e-11
-2.98325411242e-10
5.91441676477e-13
9.01815957539e-13
3.11424951005e-11
-3.10173271797e-10
7.3572965937e-14
1.38365461724e-12
3.33738700657e-11
-3.433488747e-10
1.50998164015e-12
3.37343236011e-11
-3.78390307921e-10
1.43826927692e-12
3.3067733272e-11
-4.12329503332e-10
1.28230312108e-12
3.19983937503e-11
-4.42214110531e-10
1.10912747483e-12
3.09584321689e-11
-4.65536939025e-10
9.37303222422e-13
3.02296693297e-11
-4.80473482252e-10
7.54838846277e-13
2.99579291652e-11
-4.85744923182e-10
5.42230417274e-13
3.01592371368e-11
-4.80365518819e-10
2.8646913144e-13
3.08194792195e-11
-4.65324866699e-10
5.22735635415e-15
3.17953199249e-11
-4.41904951206e-10
-2.33037988407e-13
3.28112371681e-11
-4.11932197196e-10
-3.05084747183e-13
3.34446666648e-11
-3.77912484172e-10
-3.60201927502e-14
3.30894959626e-11
-3.4278166747e-10
3.09100973573e-11
-3.0947529759e-10
7.3866803054e-13
1.28173047126e-12
4.43558296147e-11
-3.07817907486e-10
7.87214009836e-14
2.10571044885e-12
4.76846355145e-11
-3.40053824842e-10
2.45468846634e-12
4.8881052192e-11
-3.74296281898e-10
2.4468946392e-12
4.88157443397e-11
-4.07621754501e-10
2.19220715827e-12
4.81666520264e-11
-4.37070083337e-10
1.7826828039e-12
4.73999665741e-11
-4.60105775247e-10
1.28258983936e-12
4.68266480573e-11
-4.74869195735e-10
7.3713652713e-13
4.66069863281e-11
-4.80066542533e-10
1.86977451429e-13
4.67479460933e-11
-4.7474576342e-10
-3.22903507929e-13
4.72461924955e-11
-4.59863844329e-10
-7.27395676348e-13
4.79450294501e-11
-4.36718902235e-10
-9.30691842503e-13
4.85394235505e-11
-4.07173764087e-10
-8.12038915441e-13
4.85702324238e-11
-3.73763836103e-10
-2.34568925592e-13
4.73788721002e-11
-3.39431797587e-10
4.40950522274e-11
-3.07067822882e-10
8.89842747613e-13
1.75662503573e-12
5.68917630078e-11
-2.94593180215e-10
8.2478627894e-14
3.00345488848e-12
6.11900339108e-11
-3.24692655768e-10
3.63030622449e-12
6.31690117443e-11
-3.56877492899e-10
3.70275628759e-12
6.37039910268e-11
-3.88364644974e-10
3.32100917141e-12
6.35003423786e-11
-4.16290867074e-10
2.60633419138e-12
6.30375531196e-11
-4.38186359263e-10
1.68133739405e-12
6.26420766077e-11
-4.52227495474e-10
6.66516063697e-13
6.2482683286e-11
-4.5715582529e-10
-3.17659204658e-13
6.25588344459e-11
-4.52089611796e-10
-1.15005492776e-12
6.28761921699e-11
-4.37916713803e-10
-1.70543755298e-12
6.32704610081e-11
-4.15901213282e-10
-1.85658769973e-12
6.34206136671e-11
-3.87871371609e-10
-1.49090555699e-12
6.28519530749e-11
-3.56298134421e-10
-5.23772053892e-13
6.08786343667e-11
-3.240257122e-10
5.66190050238e-11
-2.93803626473e-10
1.04421400308e-12
2.32799800542e-12
6.77966705049e-11
-2.73025048465e-10
8.5322172898e-14
4.07784708051e-12
7.28430173236e-11
-3.00124219617e-10
5.03459021359e-12
7.54763229465e-11
-3.29326133778e-10
5.19934625176e-12
7.65554370397e-11
-3.58053097001e-10
4.65994426821e-12
7.67831598305e-11
-3.83622873326e-10
3.57235518971e-12
7.66290240243e-11
-4.03712882595e-10
2.12964389809e-12
7.64189078487e-11
-4.16600206212e-10
5.44013141467e-13
7.63230100045e-11
-4.21106769031e-10
-9.66599627396e-13
7.6335765065e-11
-4.164487041e-10
-2.18848865202e-12
7.64689698249e-11
-4.03417257875e-10
-2.9242354701e-12
7.65575469982e-11
-3.83197581538e-10
-3.00995638487e-12
7.62803633606e-11
-3.57518786465e-10
-2.34408470234e-12
7.5170990566e-11
-3.28705756273e-10
-9.06125026245e-13
7.25459977697e-11
-2.99419559328e-10
6.75326571593e-11
-2.72205409127e-10
1.20100793776e-12
2.99587758159e-12
7.62908936683e-11
-2.45484854327e-10
8.73342898271e-14
5.32650432068e-12
8.1799607852e-11
-2.69036720151e-10
6.65855479719e-12
8.49127814347e-11
-2.94639843716e-10
6.92082553623e-12
8.64473904203e-11
-3.19960231352e-10
6.19068228128e-12
8.70687503331e-11
-3.42565305229e-10
4.66578480983e-12
8.72114673168e-11
-3.60352375671e-10
2.62068490978e-12
8.71846466977e-11
-3.71759262598e-10
3.72762778875e-13
8.7152240311e-11
-3.75728893243e-10
-1.74841098544e-12
8.71068875236e-11
-3.71594807366e-10
-3.42308539315e-12
8.70628602907e-11
-3.60032107253e-10
-4.37081503742e-12
8.68617369437e-11
-3.42106451169e-10
-4.3842369533e-12
8.61986267601e-11
-3.19387858227e-10
-3.3712244104e-12
8.46405102733e-11
-2.93982434152e-10
-1.38344852272e-12
8.15411375912e-11
-2.68298949089e-10
7.60623593269e-11
-2.44641526478e-10
1.3592446561e-12
3.75889010235e-12
8.17909273504e-11
-2.14214090859e-10
8.89458751333e-14
6.74030549979e-12
8.74486245051e-11
-2.33977497264e-10
8.47931122456e-12
9.08554546109e-11
-2.55649283612e-10
8.8333628025e-12
9.27477091564e-11
-2.77159923698e-10
7.87736898486e-12
9.37146386644e-11
-2.96388196853e-10
5.85910087641e-12
9.41337948144e-11
-3.11519775348e-10
3.14274169581e-12
9.42825673119e-11
-3.21210232425e-10
1.5971624307e-13
9.43122112819e-11
-3.24560310217e-10
-2.64022171925e-12
9.42162134286e-11
-3.21033388493e-10
-4.82241080697e-12
9.40082577532e-11
-3.11175900506e-10
-6.01536856048e-12
9.35426140843e-11
-2.95897179788e-10
-5.96017156705e-12
9.25457312585e-11
-2.76551246331e-10
-4.56634862927e-12
9.06406363575e-11
-2.54957077399e-10
-1.95671992574e-12
8.72567320567e-11
-2.33209092082e-10
8.16286302751e-11
-2.13350897289e-10
1.51747193598e-12
4.61349866714e-12
8.39265751445e-11
-1.81350534638e-10
9.00035676674e-14
8.2947055896e-12
8.94443559235e-11
-1.97380497483e-10
1.04452311607e-11
9.2981879391e-11
-2.15037447938e-10
1.08692844834e-11
9.51404475889e-11
-2.32538091767e-10
9.65401132671e-12
9.64003484191e-11
-2.48139061086e-10
7.10411231735e-12
9.70684519478e-11
-2.60382708338e-10
3.67660796426e-12
9.738085678e-11
-2.68196630138e-10
-8.1791642602e-14
9.74695399372e-11
-2.70872006139e-10
-3.599649916e-12
9.73327906476e-11
-2.68008020908e-10
-6.32624349125e-12
9.69789464076e-11
-2.60016242045e-10
-7.79582239816e-12
9.62817511726e-11
-2.47616915428e-10
-7.69136396447e-12
9.50082825898e-11
-2.31893932952e-10
-5.90954006781e-12
9.28520005534e-11
-2.14311361228e-10
-2.62648479625e-12
8.9350314796e-11
-1.96582931361e-10
8.38655741618e-11
-1.80469952743e-10
1.67357938178e-12
5.5497903276e-12
8.25582713978e-11
-1.48954722997e-10
9.0417286935e-14
9.92619670116e-12
8.77454285031e-11
-1.61579905714e-10
1.24455410696e-11
9.12950349724e-11
-1.75334117852e-10
1.29006684863e-11
9.36303134273e-11
-1.88777935326e-10
1.14055805964e-11
9.51191848318e-11
-2.00627093343e-10
8.32153049559e-12
9.59978208505e-11
-2.0984809365e-10
4.19186125824e-12
9.64545969103e-11
-2.15689035571e-10
-3.28103360628e-13
9.65984651053e-11
-2.17657982261e-10
-4.5544002114e-12
9.64324145836e-11
-2.15489685235e-10
-7.82652553993e-12
9.59591937852e-11
-2.09460666783e-10
-9.59141811472e-12
9.50746563498e-11
-2.00075280099e-10
-9.47401061133e-12
9.35937558238e-11
-1.88098847346e-10
-7.34383063277e-12
9.12801850642e-11
-1.74574324675e-10
-3.38853369791e-12
8.77837817185e-11
-1.60755460403e-10
8.26376947945e-11
-1.48062059424e-10
1.82096309753e-12
6.49678503624e-12
7.78414191785e-11
-1.19029379418e-10
8.98495949346e-14
1.1440983823e-11
8.26755956606e-11
-1.28772990791e-10
1.42339606785e-11
8.61156236212e-11
-1.38849245273e-10
1.46900407301e-11
8.85060780062e-11
-1.48294216124e-10
1.29402474885e-11
9.0133727973e-11
-1.56368996498e-10
9.38654437855e-12
9.1168292636e-11
-1.62520118753e-10
4.64363924761e-12
9.17433984631e-11
-1.66351339992e-10
-5.41668261904e-13
9.19359909423e-11
-1.67604403002e-10
-5.38694539087e-12
9.17557672418e-11
-1.66143290724e-10
-9.13930979544e-12
9.11969231423e-11
-1.62115237575e-10
-1.11727862774e-11
9.018636529e-11
-1.55791161087e-10
-1.10705067293e-11
8.85930513002e-11
-1.47582048707e-10
-8.6830970041e-12
8.62479365687e-11
-1.3805548139e-10
-4.17814726131e-12
8.28820828733e-11
-1.27925421427e-10
7.80977235262e-11
-1.18137442543e-10
1.95957268836e-12
6.95601821147e-12
-9.34495679549e-11
8.9803312659e-14
7.0537636619e-11
1.22628631189e-11
-1.00777076509e-10
7.47485552386e-11
1.53083065133e-11
-1.0745541881e-10
7.78596783681e-11
1.58393864472e-11
-1.13067871536e-10
8.01745250888e-11
1.3970806407e-11
-1.17472606294e-10
8.18676323403e-11
1.0125049581e-11
-1.20620666062e-10
8.30236538485e-11
4.97086238736e-12
-1.22483330831e-10
8.37044828072e-11
-6.68305800706e-13
-1.23039740489e-10
8.39461436492e-11
-5.93049623362e-12
-1.2227116271e-10
8.37607919704e-11
-9.98507421553e-12
-1.20206990823e-10
8.31380971497e-11
-1.21510556865e-11
-1.16879978022e-10
8.20437443461e-11
-1.19890078231e-11
-1.12332979104e-10
8.04175721415e-11
-9.36580345501e-12
-1.06634515977e-10
7.81758223291e-11
-4.50983437988e-12
-9.99008682916e-11
7.51581843587e-11
-9.26008689889e-11
2.08077198835e-12
7.10049312425e-11
-3.72070019512e-13
5.69534746314e-12
-6.34532054963e-11
7.99807469267e-15
-5.70660187381e-13
6.35886514513e-12
-7.09901631749e-11
-6.48187375268e-13
7.04742582122e-12
-7.87218185801e-11
-6.26624148947e-13
7.68121617669e-12
-8.60381720376e-11
-5.13249787881e-13
8.22402999483e-12
-9.23735293284e-11
-3.28145362658e-13
8.63768425543e-12
-9.72633704823e-11
-9.74282368092e-14
8.89756980377e-12
-1.00382137294e-10
1.48668447536e-13
8.98690483731e-12
-1.0149301649e-10
3.76898578864e-13
8.88856080582e-12
-1.00368329352e-10
5.57423857186e-13
8.6212732082e-12
-9.72361348684e-11
6.65356771469e-13
8.20271550404e-12
-9.23335098118e-11
6.81960805437e-13
7.65653144245e-12
-8.59859989416e-11
5.95293434568e-13
7.01596419772e-12
-7.86573939085e-11
3.89152305396e-13
6.33053462703e-12
-7.09099239866e-11
5.67299406805e-12
-6.33430816625e-11
1.7607061149e-14
-8.64045720909e-13
1.34438026198e-11
-1.60480956209e-10
2.00364254591e-14
-1.37343262229e-12
1.48560733746e-11
-1.79018411123e-10
-1.58867026797e-12
1.62886898802e-11
-1.98168969e-10
-1.54473282766e-12
1.76052487426e-11
-2.16384039851e-10
-1.26738667132e-12
1.87208865316e-11
-2.32212225062e-10
-8.06315964078e-13
1.95652232642e-11
-2.44456852158e-10
-2.28287699053e-13
2.00937462123e-11
-2.52273604116e-10
3.88914964177e-13
2.02746609666e-11
-2.5505223741e-10
9.59930422323e-13
2.0071041974e-11
-2.52232598534e-10
1.40794078484e-12
1.95226568861e-11
-2.44376054434e-10
1.66884043109e-12
1.8663352449e-11
-2.32093696997e-10
1.6946540606e-12
1.75367185762e-11
-2.16229902976e-10
1.45477006671e-12
1.62075934508e-11
-1.97979355893e-10
9.21018389723e-13
1.47769767792e-11
-1.78783995728e-10
1.33783322659e-11
-1.6017200055e-10
5.52804958269e-14
-1.15156093835e-12
2.04585756499e-11
-2.29786778184e-10
2.83592392228e-14
-1.86625096479e-12
2.2441234523e-11
-2.55891884096e-10
-2.18117109047e-12
2.44028317449e-11
-2.83003670585e-10
-2.12786272767e-12
2.61950781971e-11
-3.08899451037e-10
-1.74515731491e-12
2.77018880207e-11
-3.31470641665e-10
-1.10267630621e-12
2.88361443921e-11
-3.48967142178e-10
-2.94766346873e-13
2.95436844315e-11
-3.60144449387e-10
5.68117437006e-13
2.97845383546e-11
-3.6410959432e-10
1.36489989789e-12
2.9508079325e-11
-3.60077769027e-10
1.9865094946e-12
2.87686391372e-11
-3.48835895256e-10
2.34188347489e-12
2.76091018056e-11
-3.3127847905e-10
2.36332955374e-12
2.60832786046e-11
-3.08650387651e-10
2.00917142261e-12
2.42738257102e-11
-2.82699178402e-10
1.25416158223e-12
2.23114279174e-11
-2.5552042789e-10
2.03475841841e-11
-2.29310098438e-10
9.56127926607e-14
-1.28838117258e-12
2.67753544653e-11
-2.76269659747e-10
3.42175336448e-14
-2.11631236875e-12
2.92169150096e-11
-3.07169381079e-10
-2.49366575237e-12
3.15637264292e-11
-3.39411349864e-10
-2.43931793965e-12
3.36802657226e-11
-3.70330920408e-10
-1.99778732557e-12
3.54422313191e-11
-3.9736208428e-10
-1.25046609246e-12
3.67599651412e-11
-4.18358212949e-10
-3.08277429946e-13
3.75789002757e-11
-4.31780463836e-10
6.98087981845e-13
3.78561304337e-11
-4.36532396736e-10
1.62530545786e-12
3.7531844162e-11
-4.31690009724e-10
2.34435333321e-12
3.66699231756e-11
-4.18180399926e-10
2.74775194147e-12
3.5316567096e-11
-3.971023612e-10
2.75661226632e-12
3.3527339662e-11
-3.69995700349e-10
2.32570047017e-12
3.13896029904e-11
-3.39004693719e-10
1.44285675488e-12
2.90392857951e-11
-3.06680864376e-10
2.66162630819e-11
-2.75659379281e-10
1.39766592575e-13
-1.30709984837e-12
3.23605613225e-11
-3.03225574474e-10
3.81651464513e-14
-2.16733394765e-12
3.51853886913e-11
-3.36578605022e-10
-2.56827126641e-12
3.78161520145e-11
-3.71542857655e-10
-2.51521704368e-12
4.01439731535e-11
-4.0521118088e-10
-2.05280788318e-12
4.20591178336e-11
-4.34737139872e-10
-1.26672934061e-12
4.34802525489e-11
-4.57719067093e-10
-2.74484049693e-13
4.43591480751e-11
-4.724211049e-10
7.8484885751e-13
4.465471458e-11
-4.77615039206e-10