/*--------------------------------*- C++ -*----------------------------------*\
  =========                 |
  \\      /  F ield         | OpenFOAM: The Open Source CFD Toolbox
   \\    /   O peration     | Website:  https://openfoam.org
    \\  /    A nd           | Version:  7
     \\/     M anipulation  |
\*---------------------------------------------------------------------------*/
FoamFile
{
    version     2.0;
    format      ascii;
    class       volVectorField;
    location    "0.06";
    object      U;
}
// * * * * * * * * * * * * * * * * * * * * * * * * * * * * * * * * * * * * * //

dimensions      [0 1 -1 0 0 0 0];

internalField   nonuniform List<vector> 
22500
(
(2.33701941515e-05 2.63624969272e-05 0.000448355278193)
(2.1608404259e-05 2.97509029247e-05 0.000470053892123)
(1.87506610309e-05 3.31122979201e-05 0.000489679307156)
(1.56736163945e-05 3.59025753879e-05 0.00050656196742)
(1.21259521093e-05 3.81804398434e-05 0.000520223442849)
(8.278208702e-06 3.98553912703e-05 0.000530265967993)
(4.20441955299e-06 4.08816614331e-05 0.000536410137874)
(1.37665182316e-08 4.12281215333e-05 0.000538488238283)
(-4.17747811268e-06 4.08829553949e-05 0.000536410845799)
(-8.25293366946e-06 3.985772639e-05 0.000530267493832)
(-1.21035480384e-05 3.81831412601e-05 0.000520225777182)
(-1.56552661569e-05 3.59048793431e-05 0.000506564843341)
(-1.87379042814e-05 3.31127833339e-05 0.000489682564592)
(-2.16011559689e-05 2.97496732454e-05 0.000470060362909)
(-2.33685029564e-05 2.63599108014e-05 0.000448387491139)
(6.76463244104e-05 7.63460920015e-05 0.00112744406267)
(6.24880812864e-05 8.58779249326e-05 0.00117182414722)
(5.44505570295e-05 9.52478267001e-05 0.00121124581028)
(4.54807306919e-05 0.000103123446352 0.00124470509442)
(3.52139082317e-05 0.000109562827962 0.00127149040532)
(2.40408399903e-05 0.000114306471918 0.00129102266186)
(1.22078778971e-05 0.000117216753947 0.00130290695923)
(3.31364634661e-08 0.000118198642644 0.00130691088155)
(-1.21428920541e-05 0.000117218742189 0.00130290957932)
(-2.39795951168e-05 0.000114309902261 0.00129102812448)
(-3.51590306607e-05 0.000109566294224 0.00127149846772)
(-4.54349935777e-05 0.000103125390121 0.0012447147619)
(-5.4417130938e-05 9.52455997509e-05 0.00121125630769)
(-6.24670851711e-05 8.58721734916e-05 0.00117184344561)
(-6.76391534285e-05 7.63375074211e-05 0.00112752067841)
(0.000100421809669 0.000113208755809 0.00164473346324)
(9.23141244671e-05 0.000126513720644 0.00169939813638)
(8.02487874889e-05 0.000139506859785 0.00174712911545)
(6.67987560599e-05 0.000150388054181 0.00178716425613)
(5.1595055108e-05 0.000159243715225 0.00181891185227)
(3.51571851828e-05 0.000165745685324 0.00184190028461)
(1.78310670776e-05 0.000169725644323 0.00185581871532)
(4.62973301142e-08 0.000171066169546 0.0018604921748)
(-1.77400911119e-05 0.000169726502326 0.00185582242801)
(-3.50709862572e-05 0.00016574676364 0.00184190802129)
(-5.15169619008e-05 0.000159243443774 0.00181892307774)
(-6.67323002982e-05 0.000150384650031 0.00178717727366)
(-8.01979737946e-05 0.000139497878209 0.00174714204681)
(-9.2279295073e-05 0.000126500618111 0.00169942050677)
(-0.000100406256971 0.000113192867551 0.00164483033094)
(0.000124236490339 0.000139884570201 0.00204052069912)
(0.000113627483955 0.000155205924955 0.00209774497058)
(9.8445986392e-05 0.000170127481006 0.00214677154726)
(8.16391530077e-05 0.000182521374202 0.00218736840684)
(6.28803760568e-05 0.000192554689606 0.00221923859493)
(4.27547326202e-05 0.000199888626781 0.00224214363102)
(2.16553049239e-05 0.000204364804269 0.00225593881809)
(5.49693417598e-08 0.000205869633176 0.00226055500332)
(-2.15471626057e-05 0.000204364394026 0.00225594227079)
(-4.26519510469e-05 0.000199887165599 0.00224215087864)
(-6.27866678521e-05 0.000192550676984 0.0022192487799)
(-8.15583301647e-05 0.000182513067262 0.00218737910237)
(-9.83822848272e-05 0.000170112875152 0.00214677926876)
(-0.000113581218023 0.000155187061519 0.0020977573411)
(-0.000124212214347 0.000139862922962 0.00204060655581)
(0.000141234206778 0.000158881383907 0.00234313740207)
(0.000128539540855 0.000174986224065 0.0023980989127)
(0.000110963588944 0.000190677541951 0.00244415789973)
(9.16798099949e-05 0.000203583446284 0.00248172753127)
(7.04151691533e-05 0.000213972520233 0.00251088350317)
(4.77755616275e-05 0.000221531038911 0.00253166003492)
(2.41663982322e-05 0.000226130212519 0.00254409889407)
(6.04291846654e-08 0.000227673521722 0.00254824570976)
(-2.40474301689e-05 0.000226128743381 0.0025441010889)
(-4.76622627001e-05 0.000221527508369 0.00253166470666)
(-7.03114289564e-05 0.000213965596976 0.00251088939876)
(-9.15894766367e-05 0.000203571587996 0.00248173132039)
(-0.000110890691691 0.000190659082197 0.0024441539388)
(-0.000128484268272 0.000174963671756 0.00239809110732)
(-0.000141201676809 0.000158855891795 0.00234319148763)
(0.000152577572379 0.000171508271636 0.00257339951337)
(0.000138184202918 0.000187454649582 0.00262320380424)
(0.000118833990842 0.000203043228624 0.00266384274933)
(9.78203540091e-05 0.000215728177624 0.00269638402384)
(7.49202766542e-05 0.000225877711208 0.00272129039082)
(5.07246164392e-05 0.000233226746378 0.0027388592565)
(2.56248923966e-05 0.000237684530743 0.00274930378349)
(6.35472594823e-08 0.000239177724392 0.00275277088475)
(-2.54997153822e-05 0.000237682291807 0.00274930417447)
(-5.06052102378e-05 0.000233221752308 0.00273886015997)
(-7.48105463576e-05 0.000225868840264 0.00272129003651)
(-9.77240319165e-05 0.000215714149262 0.0026963779161)
(-0.00011875463174 0.000203022724233 0.00266382261325)
(-0.0001381217658 0.000187430429426 0.00262316946731)
(-0.000152537644793 0.000171481075525 0.00257341314058)
(0.000159195439193 0.000178787466195 0.00274722821108)
(0.000143467063639 0.000193870131605 0.00279032560568)
(0.000122886866998 0.000208705025085 0.002824339271)
(0.000100781768303 0.000220641414118 0.00285093663159)
(7.69723453024e-05 0.000230130831974 0.00287093924605)
(5.20052520557e-05 0.000236969418056 0.00288487030473)
(2.62386879637e-05 0.00024110477173 0.00289307990749)
(6.50286559656e-08 0.000242487666799 0.00289579096836)
(-2.61105362497e-05 0.000241102159434 0.00289307829301)
(-5.18828304794e-05 0.000236963753533 0.00288486693906)
(-7.68594663883e-05 0.000230121220761 0.00287093168791)
(-0.000100681943647 0.000220626824493 0.00285091894385)
(-0.000122803109484 0.000208684467966 0.00282430027263)
(-0.000143398991776 0.000193846379976 0.00279026175309)
(-0.000159149043158 0.000178760785739 0.00274719990955)
(0.000161953452191 0.000181683500136 0.00287715158206)
(0.000145229584354 0.000195409832533 0.00291294754175)
(0.000123892584729 0.000209031677157 0.00293999570327)
(0.000101230356657 0.000219865857786 0.0029604749105)
(7.71019966688e-05 0.000228422345362 0.00297551210334)
(5.19872498587e-05 0.000234561394815 0.00298580574237)
(2.61978632662e-05 0.000238263121765 0.00299180070602)
(6.5440628586e-08 0.000239499244473 0.00299376672342)
(-2.60688495416e-05 0.000238260582029 0.00299179709329)
(-5.18638282877e-05 0.000234555958992 0.00298579803489)
(-7.69878151549e-05 0.000228413312297 0.00297549703739)
(-0.000101128658346 0.000219852420715 0.00296044488762)
(-0.000123805814215 0.000209013087423 0.00293993662798)
(-0.000145157096097 0.000195388763322 0.00291285391513)
(-0.000161901543914 0.000181659508962 0.00287708425207)
(0.000161615105949 0.000181054805216 0.00297319209462)
(0.000144206795844 0.000193104457392 0.00300175933136)
(0.00012252022941 0.000205204446386 0.0030220826937)
(9.97422150466e-05 0.000214716333198 0.0030367532941)
(7.57657484302e-05 0.000222180318245 0.00304714017655)
(5.09874036085e-05 0.000227515901243 0.00305406432934)
(2.56647825927e-05 0.000230725715206 0.00305802413259)
(6.52597472706e-08 0.000231796491094 0.00305930875901)
(-2.55360704264e-05 0.000230723711488 0.00305801862125)
(-5.08640823462e-05 0.000227511617087 0.00305405241856)
(-7.5651253216e-05 0.000222173203966 0.00304711767493)
(-9.96395080285e-05 0.000214705744651 0.00303671084321)
(-0.000122431239064 0.000205189786347 0.00302200355627)
(-0.000144130738426 0.000193088119416 0.00300163791211)
(-0.000161558592751 0.00018103554652 0.0029730914635)
(0.000158827558957 0.000177632051783 0.0030434140892)
(0.000141013388501 0.000187812493418 0.00306526484881)
(0.000119325986429 0.000198191265331 0.0030794650481)
(9.67952283869e-05 0.000206255827485 0.0030889239348)
(7.33408523627e-05 0.000212549013742 0.00309519028746)
(4.92664028502e-05 0.000217037707599 0.0030991592716)
(2.47726232514e-05 0.000219734541008 0.00310134755425)
(6.48876864638e-08 0.000220633885848 0.00310204166229)
(-2.46445762705e-05 0.000219733500358 0.00310134028843)
(-4.91434918561e-05 0.000217035414995 0.00309914343589)
(-7.32262855997e-05 0.000212545039147 0.0030951607572)
(-9.66916928236e-05 0.000206249614416 0.00308886966849)
(-0.000119234998243 0.000198182265963 0.00307936719614)
(-0.000140934179738 0.000187802675503 0.00306511982896)
(-0.000158767119846 0.000177619318015 0.00304328826565)
(0.000154130476582 0.000172029061946 0.00309427083766)
(0.000136154286952 0.000180231901223 0.00311016874632)
(0.000114766009215 0.000188763904467 0.00311903964343)
(9.2782268164e-05 0.000195321665628 0.00312402935893)
(7.01365022185e-05 0.00020042314851 0.00312680758949)
(4.70367056199e-05 0.000204063157491 0.0031283005879)
(2.36294387827e-05 0.000206250790857 0.00312901545954)
(6.46632838609e-08 0.000206980809275 0.00312922046455)
(-2.35017429235e-05 0.000206251061221 0.0031290066847)
(-4.69138410492e-05 0.000204063548494 0.00312828139912)
(-7.00214462366e-05 0.000200423315316 0.00312677209667)
(-9.26774840714e-05 0.000195321086471 0.00312396514211)
(-0.000114672740028 0.000188761965223 0.00311892645266)
(-0.000136071953781 0.000180230040326 0.00311000718668)
(-0.000154066465141 0.00017202422775 0.00309413106229)
(0.000147965535598 0.000164756118512 0.00313081253266)
(0.000130041156014 0.000170912507317 0.00314161104739)
(0.000109217275547 0.000177519457616 0.00314601974206)
(8.80293153185e-05 0.000182559321609 0.00314734497659)
(6.64067414516e-05 0.000186489670521 0.00314731165534)
(4.4470563107e-05 0.000189306238227 0.00314683306126)
(2.23220219869e-05 0.000191003051282 0.00314638382658)
(6.48643272966e-08 0.000191570314714 0.00314620406573)
(-2.21937999658e-05 0.000191004866845 0.00314637407954)
(-4.43468120347e-05 0.000189309756804 0.00314681182714)
(-6.62902232101e-05 0.000186494641133 0.00314727273213)
(-8.79223399761e-05 0.000182565219497 0.00314727518204)
(-0.000109120996572 0.000177525533068 0.00314589815258)
(-0.000129955376185 0.000170919582034 0.00314144422897)
(-0.000147897921966 0.000164760241419 0.00313067491407)
(0.000140682492574 0.000156204712476 0.00315676019311)
(0.000123025745045 0.00016025693434 0.00316326179275)
(0.000103010297201 0.000164911801302 0.00316409170627)
(8.28146463011e-05 0.00016846926083 0.00316260581659)
(6.23594944194e-05 0.000171279266741 0.00316048329052)
(4.17041302784e-05 0.000173310273013 0.00315856771719)
(2.09175811646e-05 0.000174538460484 0.0031572790253)
(6.57086556182e-08 0.000174950269463 0.0031568234126)
(-2.07875386103e-05 0.000174541868663 0.00315726943846)
(-4.15781376308e-05 0.000173317028431 0.0031585471733)
(-6.22401004221e-05 0.000171289211829 0.00316044619909)
(-8.27041201994e-05 0.000168481901996 0.00316253940222)
(-0.000102909907088 0.000164926220176 0.00316397492986)
(-0.00012293585762 0.000160273306869 0.00316310708659)
(-0.000140610953526 0.000156218176535 0.00315664584168)
(0.000132617633713 0.000146632247988 0.00317440193195)
(0.000115496093108 0.000148590326225 0.00317726486133)
(9.64636964079e-05 0.000151312242887 0.00317546339107)
(7.73655737825e-05 0.000153479808317 0.00317214130957)
(5.81463120665e-05 0.000155231165693 0.00316876055866)
(3.88297035843e-05 0.000156507998049 0.00316601930852)
(1.94601871996e-05 0.000157281803183 0.00316425987376)
(6.73057557578e-08 0.000157542161799 0.00316365172078)
(-1.93267823846e-05 0.000157286622963 0.0031642524307)
(-3.86998689234e-05 0.000156517636861 0.00316600419361)
(-5.80223835647e-05 0.000155245556096 0.00316873442381)
(-7.72498774487e-05 0.000153498577775 0.00317209422766)
(-9.63578648831e-05 0.000151334483957 0.00317537538187)
(-0.000115401247824 0.000148615514054 0.00317714944908)
(-0.000132541486814 0.000146654563576 0.00317433558937)
(0.000124279358049 0.000136539423536 0.00318417384701)
(0.00010793821444 0.000135592774878 0.00318408226026)
(8.97556553507e-05 0.000136761263955 0.00318089878195)
(7.1776233406e-05 0.000137698454315 0.00317698674711)
(5.38140699247e-05 0.000138476446853 0.00317338447139)
(3.58735913702e-05 0.000139041891288 0.00317057098879)
(1.79625667025e-05 0.000139383501694 0.00316879311557)
(6.96499245511e-08 0.000139499336694 0.00316818318034)
(-1.7824301419e-05 0.00013938924536 0.00316878987306)
(-3.57383848893e-05 0.000139053427203 0.00317056630027)
(-5.36839987407e-05 0.000138493800784 0.00317337924111)
(-7.16536303143e-05 0.000137721487829 0.00317697817077)
(-8.96427884108e-05 0.000136789246398 0.0031808711185)
(-0.00010783771095 0.000135625223067 0.00318406220423)
(-0.000124197378658 0.000136569387295 0.00318415131894)
(6.47575382626e-07 1.14952342692e-06 0.000275809487951)
(2.98044227245e-07 1.53005342584e-06 0.000288763479713)
(1.27470138439e-07 1.730006957e-06 0.000300134486327)
(-7.66114250358e-09 1.85789222663e-06 0.000309803003861)
(-8.01528384061e-08 1.92458052354e-06 0.000317590382569)
(-9.33243152024e-08 1.95279174276e-06 0.000323305363161)
(-6.12193894561e-08 1.96131230239e-06 0.00032680223582)
(-3.40484276025e-09 1.96257026466e-06 0.000327988072286)
(5.50707006107e-08 1.96071368421e-06 0.000326802658817)
(8.91332444537e-08 1.95177218429e-06 0.000323306427313)
(7.87627826897e-08 1.92331025229e-06 0.000317592315765)
(8.5751638609e-09 1.85641108299e-06 0.000309805852397)
(-1.25560839488e-07 1.72863732265e-06 0.000300138578044)
(-2.96038512332e-07 1.52863517954e-06 0.000288773890325)
(-6.47389309873e-07 1.14871185305e-06 0.000275850370152)
(6.41995331455e-06 8.03589477806e-06 0.000795774903806)
(5.32793962535e-06 9.88235197162e-06 0.000831310553271)
(4.46580857039e-06 1.13567894906e-05 0.000862354256765)
(3.56105150321e-06 1.25657700784e-05 0.000888641526367)
(2.64949301139e-06 1.34863397016e-05 0.000909752254773)
(1.75166083682e-06 1.41308894444e-05 0.000925218182981)
(8.68065999094e-07 1.45119192961e-05 0.000934669031544)
(-4.22170708816e-09 1.46377354093e-05 0.000937864120431)
(-8.75134594278e-07 1.45104674044e-05 0.00093467060482)
(-1.75472987775e-06 1.41282365327e-05 0.000925221869978)
(-2.6469374341e-06 1.34826977797e-05 0.000909758555766)
(-3.55384648915e-06 1.25612051856e-05 0.000888650331743)
(-4.45717971219e-06 1.13519955151e-05 0.000862366271588)
(-5.32022007346e-06 9.87748861174e-06 0.000831340231064)
(-6.41811208692e-06 8.03248130074e-06 0.00079587906044)
(1.50719306815e-05 1.77932890107e-05 0.00128459869087)
(1.3115338469e-05 2.14045640491e-05 0.00133937758235)
(1.13037054922e-05 2.44972152633e-05 0.00138688554767)
(9.27465094855e-06 2.71068649962e-05 0.00142687656029)
(7.08062646877e-06 2.91589195533e-05 0.00145884123681)
(4.77895564702e-06 3.0633492414e-05 0.00148218058214)
(2.40552594714e-06 3.15219659656e-05 0.00149640827549)
(-6.56502865356e-10 3.18185888912e-05 0.00150120578274)
(-2.4052769859e-06 3.15200935805e-05 0.00149641057621)
(-4.77420331896e-06 3.06298533107e-05 0.00148218579648)
(-7.06961097706e-06 2.91534635267e-05 0.00145884972766)
(-9.25847299223e-06 2.70994554562e-05 0.00142688763975)
(-1.12864611999e-05 2.44885968193e-05 0.00138689953501)
(-1.31005173602e-05 2.13960439062e-05 0.00133941423635)
(-1.50666371431e-05 1.77871420446e-05 0.00128473903483)
(2.50738775738e-05 2.87633378867e-05 0.0017365972171)
(2.21333868281e-05 3.4121586429e-05 0.00180618427646)
(1.92249161383e-05 3.87889373396e-05 0.00186587887133)
(1.58856482232e-05 4.27648265258e-05 0.0019156855155)
(1.22032957129e-05 4.59195148978e-05 0.0019552128916)
(8.27640083864e-06 4.8201199168e-05 0.0019839237064)
(4.18190086359e-06 4.95823286753e-05 0.00200136218747)
(5.30480805075e-09 5.00445911277e-05 0.00200722592591)
(-4.16987022987e-06 4.95802713979e-05 0.00200136390453)
(-8.26032133908e-06 4.81970572171e-05 0.0019839275245)
(-1.21817063631e-05 4.59130349504e-05 0.00195521857059)
(-1.58597380436e-05 4.27557478324e-05 0.00191569128785)
(-1.91989431762e-05 3.87778343867e-05 0.0018658837803)
(-2.21114214781e-05 3.41106949197e-05 0.00180620936715)
(-2.50641017146e-05 2.87554327769e-05 0.00173673710318)
(3.52307393949e-05 3.96677856526e-05 0.00214566962277)
(3.12352465377e-05 4.65549957075e-05 0.00222494982029)
(2.71858843565e-05 5.25285956942e-05 0.00229196156209)
(2.2493826815e-05 5.76307334482e-05 0.00234721156794)
(1.73005214107e-05 6.16851099932e-05 0.00239064235252)
(1.17443948286e-05 6.46195222698e-05 0.00242196704929)
(5.93995669374e-06 6.63965945205e-05 0.00244090181943)
(1.21349526166e-08 6.69915227079e-05 0.00244724865914)
(-5.91457095051e-06 6.63945623172e-05 0.00244090142269)
(-1.17158846589e-05 6.46153460216e-05 0.00242196618881)
(-1.72679190525e-05 6.16784223964e-05 0.00239063977276)
(-2.24584144968e-05 5.76211829437e-05 0.00234720390881)
(-2.71516831116e-05 5.25165203417e-05 0.00229194567376)
(-3.12062579408e-05 4.65430049227e-05 0.00222494567717)
(-3.52156978213e-05 3.96591386957e-05 0.00214577903779)
(4.47760914487e-05 4.97253466537e-05 0.00250767790061)
(3.97058020612e-05 5.78153103159e-05 0.00259149647362)
(3.45418218947e-05 6.47200027077e-05 0.00266102682991)
(2.85510623174e-05 7.06118744439e-05 0.00271748882037)
(2.19409181521e-05 7.52828857938e-05 0.00276133791367)
(1.48850632918e-05 7.86565092914e-05 0.00279268271926)
(7.52715981191e-06 8.06966288313e-05 0.00281151549007)
(1.88641042207e-08 8.13791306724e-05 0.00281780508328)
(-7.48867706392e-06 8.06948323281e-05 0.00281151155738)
(-1.48445279094e-05 7.8652739333e-05 0.00279267428577)
(-2.18978905779e-05 7.52767081396e-05 0.00276132240376)
(-2.8506864422e-05 7.06028483981e-05 0.00271746082289)
(-3.45000740613e-05 6.47082448102e-05 0.00266098025469)
(-3.96699866432e-05 5.78034784115e-05 0.00259144937131)
(-4.47552101035e-05 4.97168512574e-05 0.00250773723618)
(5.31953837886e-05 5.84375103877e-05 0.00282117426842)
(4.70813277225e-05 6.73493592637e-05 0.00290489035668)
(4.08825677651e-05 7.47729646223e-05 0.00297274023561)
(3.37173732739e-05 8.10863248305e-05 0.00302679952223)
(2.58627990681e-05 8.60673041579e-05 0.00306815024735)
(1.75208709543e-05 8.96510003892e-05 0.00309737913319)
(8.85362610914e-06 9.18125967252e-05 0.00311480858456)
(2.49639628793e-08 9.253485975e-05 0.00312060407875)
(-8.80329415792e-06 9.18112261685e-05 0.00311480031173)
(-1.74695012055e-05 8.96480394963e-05 0.00309736136046)
(-2.58104173483e-05 8.6062277973e-05 0.00306811885596)
(-3.36652928294e-05 8.10787190028e-05 0.00302674668415)
(-4.08339187383e-05 7.47626403702e-05 0.00297265646096)
(-4.70390148287e-05 6.73389251356e-05 0.0029047919459)
(-5.31682800705e-05 5.84300065529e-05 0.00282117320461)
(6.01667280219e-05 6.55108002785e-05 0.00308722194334)
(5.30871376603e-05 7.48498934419e-05 0.00316706021553)
(4.59752142331e-05 8.23929135498e-05 0.00322994059777)
(3.78097548534e-05 8.87736021971e-05 0.00327885870187)
(2.89322267933e-05 9.37737555265e-05 0.00331556352026)
(1.95647374387e-05 9.73529519641e-05 0.00334113921003)
(9.87651715069e-06 9.95047046799e-05 0.00335624409307)
(3.02361791671e-08 0.000100222624086 0.00336123926641)
(-9.81593919025e-06 9.95039300911e-05 0.00335623119006)
(-1.95039767076e-05 9.73511662512e-05 0.00334111144605)
(-2.8871672468e-05 9.3770458986e-05 0.00331551512001)
(-3.77506837693e-05 8.87682186727e-05 0.00327877923695)
(-4.59202290146e-05 8.23850533403e-05 0.00322981709593)
(-5.3038659954e-05 7.48419720324e-05 0.0031669082187)
(-6.01333987231e-05 6.55053052537e-05 0.00308715847897)
(6.55276448786e-05 7.08161956074e-05 0.00330883763785)
(5.75996756153e-05 8.02033480606e-05 0.00338203783408)
(4.97265657424e-05 8.75113130117e-05 0.00343768050848)
(4.07667584372e-05 9.36481660096e-05 0.00347966815709)
(3.11128161043e-05 9.84168574421e-05 0.00351038987426)
(2.09979001965e-05 0.000101809704276 0.00353139248613)
(1.0588250896e-05 0.00010384170965 0.00354363745913)
(3.46908391016e-08 0.000104518625525 0.00354765752046)
(-1.05189902366e-05 0.000103841674378 0.00354362020633)
(-2.09291009458e-05 0.000101809398445 0.00353135529196)
(-3.10451234766e-05 9.84157852407e-05 0.00351032534918)
(-4.07014028088e-05 9.36456941468e-05 0.00347956332964)
(-4.96657005997e-05 8.75068424274e-05 0.00343751921897)
(-5.75453345381e-05 8.01989561759e-05 0.00338183638386)
(-6.54883076344e-05 7.08137360247e-05 0.00330871766379)
(6.92404657381e-05 7.43496242183e-05 0.0034903250694)
(6.0609530807e-05 8.34396211593e-05 0.00355512910353)
(5.21464837558e-05 9.02191761209e-05 0.00360224684947)
(4.26141910902e-05 9.58579945338e-05 0.00363640715965)
(3.24368622669e-05 0.000100196013377 0.00366055587664)
(2.18489745104e-05 0.000103261482501 0.00367662558558)
(1.10054556674e-05 0.000105090064789 0.00368582103416)
(3.84624253217e-08 0.000105698330504 0.00368880808922)
(-1.09288069016e-05 0.000105090867264 0.00368580033569)
(-2.17732224118e-05 0.000103262865561 0.00367658089684)
(-3.23628191397e-05 0.000100197509037 0.00366047845282)
(-4.25430462703e-05 9.58589351908e-05 0.00363628182504)
(-5.20800565886e-05 9.02187981625e-05 0.00360205485385)
(-6.0549637665e-05 8.34396061304e-05 0.00355488927624)
(-6.91954208661e-05 7.43511090834e-05 0.00349016253641)
(7.1358453526e-05 7.61958888328e-05 0.00363662155237)
(6.21873070687e-05 8.46865144561e-05 0.00369214561222)
(5.33149737556e-05 9.07080433374e-05 0.00373030069518)
(4.34353067956e-05 9.5654366096e-05 0.00375650338973)
(3.29806067214e-05 9.94159409675e-05 0.00377412417207)
(2.2176117067e-05 0.000102054961159 0.00378537137763)
(1.11595738177e-05 0.000103623023561 0.00379161504667)
(4.17214718704e-08 0.000104144047053 0.00379360783514)
(-1.10764987893e-05 0.000103624678331 0.00379159260664)
(-2.20941910801e-05 0.000102058081398 0.00378532290218)
(-3.29007337413e-05 9.94201090462e-05 0.00377404011003)
(-4.33586663123e-05 9.56589293586e-05 0.00375636699997)
(-5.32431927581e-05 9.07121300408e-05 0.00373009135563)
(-6.21221512781e-05 8.46914383093e-05 0.00369188637977)
(-7.13080795306e-05 7.62019756724e-05 0.0036364394738)
(7.19923546061e-05 7.64950672336e-05 0.00375269269003)
(6.24518861656e-05 8.41277416482e-05 0.00379873200538)
(5.33545108546e-05 8.92188773036e-05 0.00382817201165)
(4.33472706989e-05 9.3334958709e-05 0.00384691408027)
(3.28450463805e-05 9.64254392612e-05 0.00385857130209)
(2.205320388e-05 9.85786102281e-05 0.00386548853053)
(1.1089565523e-05 9.98537149861e-05 0.00386911008327)
(4.46197698953e-08 0.000100277161015 0.0038702251006)
(-1.10007362188e-05 9.98561426926e-05 0.00386908869322)
(-2.19656436186e-05 9.85833057968e-05 0.00386544238182)
(-3.27597050805e-05 9.64320820726e-05 0.00385849098215)
(-4.32653396128e-05 9.33429471538e-05 0.00384678227254)
(-5.32775483517e-05 8.92273323325e-05 0.00382796673927)
(-6.23817703413e-05 8.41376577614e-05 0.00379848141227)
(-7.19370027785e-05 7.65060152277e-05 0.0037525244947)
(7.12743029608e-05 7.54006547915e-05 0.00384295489036)
(6.15457373584e-05 8.19596294457e-05 0.00387978318029)
(5.24148921324e-05 8.60024398906e-05 0.00390130752327)
(4.24889144867e-05 8.92041722015e-05 0.0039136056602)
(3.21448848277e-05 9.15779506801e-05 0.00392029491912)
(2.15612270469e-05 9.32224415616e-05 0.00392369061297)
(1.08371676807e-05 9.41939424871e-05 0.00392521058218)
(4.72582786765e-08 9.45166347588e-05 0.00392562826822)
(-1.07430915766e-05 9.41969492308e-05 0.00392519439544)
(-2.14684675078e-05 9.3228348698e-05 0.00392365591609)
(-3.20544141051e-05 9.15865333999e-05 0.00392023395596)
(-4.24019709842e-05 8.92149677481e-05 0.00391350216505)
(-5.23330465281e-05 8.60146344397e-05 0.00390113822646)
(-6.14710767601e-05 8.19740402659e-05 0.00387957922577)
(-7.12144465296e-05 7.54161551015e-05 0.00384284226823)
(6.9365435807e-05 7.30709970515e-05 0.00391066915233)
(5.96583263524e-05 7.84781037575e-05 0.00393897375721)
(5.06935562103e-05 8.13603847255e-05 0.0039538955359)
(4.10250388548e-05 8.3601124471e-05 0.00396123023192)
(3.10059765386e-05 8.52441048282e-05 0.00396432273161)
(2.07839641428e-05 8.63771213198e-05 0.00396527609259)
(1.04440489416e-05 8.7044830833e-05 0.00396537731268)
(4.96608131563e-08 8.72667284123e-05 0.00396533234338)
(-1.03451839022e-05 8.70481316313e-05 0.00396537174495)
(-2.06864737596e-05 8.63836639387e-05 0.00396526477028)
(-3.091084859e-05 8.52537721688e-05 0.00396430185428)
(-4.09335755448e-05 8.36136360123e-05 0.00396118781372)
(-5.0607381767e-05 8.13751789853e-05 0.00395380795082)
(-5.95797244079e-05 7.84959119461e-05 0.00393886666248)
(-6.93015009688e-05 7.30902640362e-05 0.00391065641499)
(6.6354199601e-05 7.06851737975e-05 0.00395727086984)
(5.70203495781e-05 7.41553697929e-05 0.00397864016261)
(4.83699311296e-05 7.56999513167e-05 0.00398877225192)
(3.90883891364e-05 7.69089427262e-05 0.00399304118856)
(2.9522842141e-05 7.77673030166e-05 0.00399422420044)
(1.97810645265e-05 7.83496962728e-05 0.003994032259)
(9.93896980884e-06 7.86887662934e-05 0.00399352529985)
(5.17976981165e-08 7.88011501774e-05 0.00399329419735)
(-9.83588258008e-06 7.86918820345e-05 0.00399353528036)
(-1.96794670429e-05 7.8355920651e-05 0.00399405512917)
(-2.94237701217e-05 7.77766398755e-05 0.00399426260667)
(-3.8993165274e-05 7.69213517731e-05 0.0039930929695)
(-4.82802083907e-05 7.57151908314e-05 0.00398881769474)
(-5.6939006631e-05 7.41745607591e-05 0.00397871346522)
(-6.62864710583e-05 7.07059621589e-05 0.00395736002883)
(-1.01828200467e-07 -2.02235135603e-07 0.000185385106189)
(-2.7883952551e-08 -2.93452034474e-07 0.000193840489132)
(3.16444529888e-08 -3.51609283318e-07 0.000201013572784)
(6.8141352716e-08 -3.82276672675e-07 0.000206989851394)
(8.02625832269e-08 -3.92972992698e-07 0.000211735977931)
(6.94753005667e-08 -3.93166835177e-07 0.000215190120346)
(4.08742516423e-08 -3.90129193302e-07 0.000217295221218)
(1.9103340729e-09 -3.88555500745e-07 0.000218009983598)
(-3.72554486266e-08 -3.90164478282e-07 0.000217297254197)
(-6.63766834527e-08 -3.93167443423e-07 0.000215193900753)
(-7.75667703327e-08 -3.92710639666e-07 0.000211741041822)
(-6.47298251837e-08 -3.81300473205e-07 0.00020699605379)
(-2.74447087512e-08 -3.5036684788e-07 0.000201022077934)
(3.20976951234e-08 -2.9143958665e-07 0.000193856731702)
(1.05198386679e-07 -2.00253627605e-07 0.000185430245357)
(6.05315912556e-07 4.85020805345e-07 0.000567333651268)
(7.21393511124e-07 4.79876813834e-07 0.000593360784555)
(7.80066157344e-07 5.43525659787e-07 0.000615561200044)
(7.5680464491e-07 6.54950318119e-07 0.000634073880465)
(6.55090743994e-07 7.83865180456e-07 0.000648783976552)
(4.8306835084e-07 8.99604370747e-07 0.000659495482107)
(2.58725394296e-07 9.78858894934e-07 0.000666022930519)
(5.20011227197e-09 1.00698388903e-06 0.000668230791159)
(-2.48658666528e-07 9.78563608892e-07 0.000666028062476)
(-4.73819226771e-07 8.9924842303e-07 0.000659504954506)
(-6.46292608616e-07 7.84030631648e-07 0.000648796525344)
(-7.4653008e-07 6.56586127807e-07 0.000634089162022)
(-7.67965785397e-07 5.45956581743e-07 0.000615582654057)
(-7.0935586222e-07 4.84265355508e-07 0.000593404560271)
(-5.96012876401e-07 4.89695664726e-07 0.000567450260292)
(2.31238471947e-06 2.34147992114e-06 0.000954713160581)
(2.37630669716e-06 2.68791401188e-06 0.000998466028604)
(2.31357922164e-06 3.11594658524e-06 0.00103582420853)
(2.09064908341e-06 3.57893767805e-06 0.00106695181517)
(1.72168862943e-06 4.01436693568e-06 0.00109166122703)
(1.22714467276e-06 4.36697388363e-06 0.00110963986481)
(6.42066480328e-07 4.59537579775e-06 0.00112058629024)
(8.0514936807e-09 4.67431334227e-06 0.00112427978063)
(-6.26235242859e-07 4.59462247155e-06 0.00112059287056)
(-1.21192063032e-06 4.36587547783e-06 0.00110965186241)
(-1.70653350242e-06 4.01383946159e-06 0.00109167673566)
(-2.07357876633e-06 3.58019926938e-06 0.00106697019274)
(-2.29427175455e-06 3.11857041486e-06 0.00103585024398)
(-2.35702006096e-06 2.69316954335e-06 0.000998523594302)
(-2.29764567757e-06 2.34808301901e-06 0.000954875322183)
(5.10534821667e-06 5.43320699937e-06 0.00134188521537)
(5.03343938125e-06 6.37660790683e-06 0.00140255218696)
(4.73183279885e-06 7.39650681874e-06 0.00145421593727)
(4.16357568762e-06 8.40692155748e-06 0.001497120365)
(3.35985061516e-06 9.30522538246e-06 0.00153107179641)
(2.36011054088e-06 1.00082179008e-05 0.00155571329731)
(1.22211342504e-06 1.04545406907e-05 0.00157068690587)
(1.10353965294e-08 1.06073617344e-05 0.00157572738097)
(-1.20020819329e-06 1.04535166314e-05 0.00157069261597)
(-2.33850702106e-06 1.000666249e-05 0.00155572330564)
(-3.33796674992e-06 9.30418563209e-06 0.0015310836767)
(-4.13974138403e-06 8.40772087756e-06 0.00149713295238)
(-4.7059678333e-06 7.3991491199e-06 0.00145423421432)
(-5.00776670026e-06 6.38248921564e-06 0.00140260443931)
(-5.08562408116e-06 5.44161640471e-06 0.00134205933665)
(8.7579525434e-06 9.47251297361e-06 0.00172196948852)
(8.47561549875e-06 1.11559209035e-05 0.00179761483913)
(7.83700362082e-06 1.28906062185e-05 0.00186161145099)
(6.80466082243e-06 1.45469968646e-05 0.00191442211542)
(5.43355766727e-06 1.59814004229e-05 0.00195597777867)
(3.7875369877e-06 1.70846568398e-05 0.00198600428476)
(1.95065356212e-06 1.7777763464e-05 0.00200419091153)
(1.43818502928e-08 1.80139490696e-05 0.00201029689286)
(-1.9219818825e-06 1.77767045574e-05 0.00200419348469)
(-3.75897519836e-06 1.70830326512e-05 0.00198600782432)
(-5.40458536005e-06 1.59802382846e-05 0.00195597932786)
(-6.77402763751e-06 1.45476301925e-05 0.00191441964137)
(-7.80493422952e-06 1.28934264566e-05 0.00186160901681)
(-8.44425528717e-06 1.11626051397e-05 0.00179764293924)
(-8.73349643062e-06 9.48254128848e-06 0.00172212686517)
(1.2991033522e-05 1.41237351552e-05 0.00208766800734)
(1.24337029858e-05 1.65860499811e-05 0.00217532266674)
(1.1382150485e-05 1.90504077751e-05 0.00224869695642)
(9.80014956981e-06 2.13522491885e-05 0.00230867161707)