/*--------------------------------*- C++ -*----------------------------------*\
  =========                 |
  \\      /  F ield         | OpenFOAM: The Open Source CFD Toolbox
   \\    /   O peration     | Website:  https://openfoam.org
    \\  /    A nd           | Version:  7
     \\/     M anipulation  |
\*---------------------------------------------------------------------------*/
FoamFile
{
    version     2.0;
    format      ascii;
    class       volVectorField;
    location    "0.02";
    object      U;
}
// * * * * * * * * * * * * * * * * * * * * * * * * * * * * * * * * * * * * * //

dimensions      [0 1 -1 0 0 0 0];

internalField   nonuniform List<vector> 
22500
(
(2.57745630144e-05 2.85725096952e-05 0.000525383475686)
(2.42048614851e-05 3.20045813455e-05 0.000551839074384)
(2.12944699119e-05 3.55968653451e-05 0.000576116518384)
(1.79873280366e-05 3.86901227831e-05 0.000597062991834)
(1.40286808184e-05 4.12803329975e-05 0.000614009405598)
(9.62040199963e-06 4.32212118265e-05 0.000626456809369)
(4.88021671866e-06 4.44234658589e-05 0.000634067534977)
(-3.23858297734e-08 4.48303744265e-05 0.00063663887536)
(-4.94348790693e-06 4.44215445644e-05 0.000634063425907)
(-9.67940841002e-06 4.32180974388e-05 0.000626448829034)
(-1.40798385397e-05 4.12779528657e-05 0.000613998068642)
(-1.80270074523e-05 3.86903124651e-05 0.000597049809275)
(-2.13183086222e-05 3.56036812511e-05 0.000576103264584)
(-2.42110214748e-05 3.20186497911e-05 0.000551825647551)
(-2.57664076717e-05 2.8590766975e-05 0.000525350934228)
(7.40042376231e-05 8.23800562512e-05 0.00130175988191)
(6.92447484424e-05 9.20749386377e-05 0.00135499663421)
(6.10326230746e-05 0.000102039528237 0.00140326506087)
(5.14337277508e-05 0.000110675578281 0.00144441878487)
(4.00907087025e-05 0.000117892633069 0.00147735463974)
(2.74733800435e-05 0.000123295422793 0.00150134139518)
(1.39361138827e-05 0.000126642188307 0.00151592166445)
(-7.8115222635e-08 0.000127775644995 0.00152082647193)
(-1.40890365905e-05 0.000126641160077 0.00151590720681)
(-2.76165707464e-05 0.000123294925091 0.00150131358376)
(-4.02164649441e-05 0.000117896476535 0.00147731562685)
(-5.15333777216e-05 0.000110687255284 0.00144437353803)
(-6.10965629321e-05 0.000102066081986 0.00140321965944)
(-6.92689327471e-05 9.21160554168e-05 0.00135495125305)
(-7.39928936417e-05 8.2429487831e-05 0.00130167511909)
(0.000108251797163 0.000120519829531 0.00187701006885)
(0.000100709553871 0.000133778855339 0.00194170546556)
(8.84888951101e-05 0.000147313116126 0.0019997344186)
(7.42832093963e-05 0.000158986698345 0.00204871767944)
(5.77401104043e-05 0.000168697644932 0.00208755516765)
(3.94839305729e-05 0.000175942801091 0.00211563138613)
(2.00032752353e-05 0.000180422258804 0.00213260885018)
(-1.09754609713e-07 0.000181939447141 0.00213829932747)
(-2.02185646362e-05 0.000180426398464 0.0021325865381)
(-3.96866283439e-05 0.000175952913574 0.00211558870415)
(-5.79204944329e-05 0.00016871785611 0.00208749579196)
(-7.44300636248e-05 0.000159020770271 0.00204864915865)
(-8.85893888674e-05 0.000147366780346 0.00199966672058)
(-0.000100758026067 0.000133849304405 0.00194164045126)
(-0.000108249620027 0.000120597819754 0.00187689533727)
(0.000132183918559 0.000147103854313 0.00230584282082)
(0.000122282500476 0.000162040596708 0.00237284831549)
(0.00010703694585 0.00017726790529 0.00243226512808)
(8.94970823828e-05 0.000190286086452 0.00248190734881)
(6.93568407609e-05 0.000201062778021 0.00252089009003)
(4.73197660954e-05 0.000209069731788 0.00254885406696)
(2.39397239071e-05 0.000214008215107 0.00256567160229)
(-1.30811308321e-07 0.000215679998159 0.0025712887067)
(-2.41965747133e-05 0.000214017239572 0.00256564580791)
(-4.75622440893e-05 0.00020908959409 0.00254880510134)
(-6.95741061596e-05 0.000201097235246 0.00252082272071)
(-8.96769294372e-05 0.000190338568185 0.00248183064874)
(-0.000107165201658 0.000177342250206 0.00243219182532)
(-0.000122353013112 0.00016213197422 0.00237278297826)
(-0.000132195142165 0.000147202339564 0.00230573038169)
(0.000148474706693 0.000165192042138 0.0026253905714)
(0.000136623311193 0.000180536669059 0.00268925898601)
(0.000119123086815 0.000196229639441 0.00274520211315)
(9.92241391325e-05 0.000209510219037 0.00279142814998)
(7.66716467636e-05 0.000220448992769 0.00282735391683)
(5.21958641085e-05 0.000228542430917 0.00285290801602)
(2.63712008287e-05 0.00023352179892 0.00286818478917)
(-1.43913284903e-07 0.000235206296094 0.00287326914024)
(-2.66539377074e-05 0.000233534667966 0.0028681594498)
(-5.24632278173e-05 0.000228569772896 0.00285286043371)
(-7.69123023738e-05 0.000220493906915 0.00282728949783)
(-9.94257383135e-05 0.00020957543669 0.00279135673035)
(-0.000119271610837 0.000196317679443 0.0027451382195)
(-0.000136712574734 0.000180641029491 0.00268920994229)
(-0.000148501014886 0.000165303981278 0.00262530379455)
(0.000158621863102 0.000176434995578 0.00286219371225)
(0.000145207753966 0.000191258607711 0.00291985878276)
(0.00012610538265 0.000206536655487 0.00296972153293)
(0.000104653492685 0.000219328292226 0.00301043570783)
(8.0640648607e-05 0.00022981062532 0.00304172337224)
(5.47827683106e-05 0.000237535152663 0.00306377151827)
(2.76427262547e-05 0.000242276054956 0.00307686556835)
(-1.50936014163e-07 0.000243878951148 0.00308120737744)
(-2.79394229615e-05 0.000242291780721 0.00307684346415)
(-5.50637923174e-05 0.000237567900547 0.00306373068416)
(-8.08946887334e-05 0.000229862737938 0.0030416695301)
(-0.000104868587166 0.000219401657159 0.00301037906747)
(-0.00012626862228 0.000206632620193 0.00296967788315)
(-0.000145313347488 0.00019136975582 0.00291983753621)
(-0.000158663608531 0.000176554313594 0.00286214446085)
(0.000163791717862 0.000182096229737 0.00303595224133)
(0.000149181572784 0.000195739352514 0.00308593982432)
(0.000129039844862 0.000209980601532 0.00312861262058)
(0.000106704617404 0.000221775074786 0.00316302566142)
(8.2000018945e-05 0.000231391237251 0.00318915355533)
(5.55950046576e-05 0.000238451133511 0.00320737822105)
(2.8018394247e-05 0.000242774466501 0.00321812303263)
(-1.53446420109e-07 0.000244235515982 0.00322167208868)
(-2.83201879838e-05 0.000242791925253 0.00321810573321)
(-5.58813779563e-05 0.000238487046174 0.00320734713621)
(-8.22600677314e-05 0.000231447163719 0.00318911458875)
(-0.00010692713689 0.00022185211318 0.00316298932177)
(-0.000129213297017 0.000210079092011 0.00312859575772)
(-0.000149301029856 0.000195851792414 0.00308595281952)
(-0.000163848506199 0.000182217510181 0.00303594482395)
(0.000165022618068 0.000183318040292 0.00316164722464)
(0.000149557605533 0.000195354638191 0.00320355127016)
(0.000128854950466 0.00020815035459 0.00323891229642)
(0.000106180086358 0.000218634424403 0.00326708495226)
(8.1387823888e-05 0.000227140390799 0.00328820971536)
(5.50761187074e-05 0.000233365404538 0.00330278455484)
(2.77250747622e-05 0.000237170256974 0.0033113101527)
(-1.52718529857e-07 0.000238455761419 0.00331411493399)
(-2.80256156327e-05 0.000237188333914 0.00331129822607)
(-5.5361917764e-05 0.000233402243375 0.00330276429607)
(-8.16486640579e-05 0.000227196898497 0.00328818723332)
(-0.000106405720855 0.000218710995533 0.00326707118701)
(-0.000129035360281 0.000208246633639 0.0032389251012)
(-0.000149688660014 0.000195463304415 0.00320360065896)
(-0.000165093551641 0.000183436539345 0.00316168089036)
(0.000163200617975 0.000181086720775 0.00325082083809)
(0.000147188474575 0.0001912748277 0.00328492989717)
(0.000126324434978 0.00020237844663 0.00331347866908)
(0.000103742626775 0.000211380949225 0.00333599059896)
(7.93264581045e-05 0.000218652116908 0.00335267077201)
(5.3586771499e-05 0.000223961071773 0.00336405279229)
(2.69463869437e-05 0.00022720162429 0.0033706568096)
(-1.49847093772e-07 0.000228296511632 0.00337282083497)
(-2.72414894619e-05 0.000227219241893 0.00337065012655)
(-5.38681064616e-05 0.000223996715098 0.00336404310112)
(-7.95847000284e-05 0.000218706210159 0.00335266449396)
(-0.000103968583759 0.000211453375231 0.00333599930984)
(-0.000126509559288 0.000202468423457 0.00331352116166)
(-0.000147329242475 0.000191375660012 0.00328501432962)
(-0.000163284449263 0.000181198369673 0.00325089124993)
(0.00015905843484 0.00017622454562 0.00331240934282)
(0.000142766399716 0.000184457480031 0.00333943405779)
(0.000122068210083 0.000193736786682 0.00336202235402)
(9.99184904337e-05 0.000201182236253 0.0033797269664)
(7.62269520193e-05 0.000207173779585 0.0033927186438)
(5.14084687485e-05 0.00021154383855 0.0034014955815)
(2.58248841002e-05 0.000214209879263 0.00340654927377)
(-1.45741549242e-07 0.000215111029152 0.00340819948121)
(-2.61121541234e-05 0.000214226110309 0.00340654726188)
(-5.16831571627e-05 0.00021157651059 0.00340149532739)
(-7.64807188935e-05 0.000207222976069 0.00339272697831)
(-0.000100143267203 0.000201247585442 0.00337975624558)
(-0.000122256770215 0.000193817343415 0.00336209214998)
(-0.000142915678681 0.000184547421496 0.00333954907841)
(-0.00015915407518 0.000176326211725 0.00331250913801)
(0.000153196544609 0.000169413991795 0.00335333958466)
(0.000136845533959 0.000175675444708 0.00337422050805)
(0.000116575468119 0.00018307298657 0.00339185728702)
(9.51195889655e-05 0.000188947071561 0.00340569986223)
(7.24076218113e-05 0.000193665503525 0.00341580448457)
(4.87569678707e-05 0.000197110129609 0.00342258202933)
(2.44690019464e-05 0.000199212847182 0.0034264615566)
(-1.41154274211e-07 0.000199924197367 0.00342772534435)
(-2.47475186241e-05 0.00019922696746 0.00342646332819)
(-4.90242182992e-05 0.000197138438464 0.00342258940213)
(-7.26562836991e-05 0.000193707922686 0.00341582467038)
(-9.53426645519e-05 0.000189003163479 0.00340574596973)
(-0.000116766886139 0.0001831419502 0.00339194938971)
(-0.000137002474529 0.000175752465618 0.0033743582568)
(-0.000153303225933 0.000169503734408 0.00335345779607)
(0.000146101895729 0.00016122407962 0.0033790146449)
(0.000129865193614 0.00016554114653 0.00339480281213)
(0.000110231342626 0.000171043151212 0.00340851405716)
(8.96673325242e-05 0.00017537135276 0.00341939129)
(6.81124817788e-05 0.000178856572261 0.003427336278)
(4.57946259105e-05 0.000181410429465 0.00343265044563)
(2.29593007526e-05 0.000182972186335 0.00343568420116)
(-1.36673552019e-07 0.000183501267722 0.00343667195328)
(-2.32293160226e-05 0.00018298370139 0.00343568851505)
(-4.60547444816e-05 0.000181433497826 0.00343266279683)
(-6.83563648054e-05 0.000178891014727 0.00342736395795)
(-8.98889596428e-05 0.000175416850607 0.0034194478281)
(-0.000110425546488 0.000171099219169 0.00340861973506)
(-0.000130029178933 0.0001656040137 0.00339495099903)
(-0.000146218993902 0.000161300284947 0.00337913522272)
(0.000138156227133 0.000152102476333 0.00339378149698)
(0.000122182920689 0.000154509750927 0.0034055851385)
(0.000103351126672 0.000158140127663 0.00341629886192)
(8.38159746506e-05 0.000160982742677 0.00342493051682)
(6.35256280894e-05 0.000163297697737 0.00343126106039)
(4.26390445431e-05 0.000165004934883 0.00343550080603)
(2.13527540467e-05 0.000166051188648 0.00343792381945)
(-1.32750046419e-07 0.000166406057969 0.00343871389148)
(-2.16153467809e-05 0.00016605991272 0.00343792891147)
(-4.28931194401e-05 0.000165022399702 0.00343551420629)
(-6.37657660058e-05 0.000163323710965 0.00343128936467)
(-8.40369343606e-05 0.000161017147966 0.0034249867593)
(-0.000103548441587 0.000158182867477 0.00341640334723)
(-0.000122353640249 0.000154558079029 0.00340572548715)
(-0.000138283281257 0.000152164206905 0.00339388337498)
(0.000129696389624 0.000142352810311 0.00340147046724)
(0.000114160112922 0.000142904682117 0.00341043671172)
(9.62143318486e-05 0.000144717245471 0.00341883049225)
(7.77568505003e-05 0.00014618532524 0.00342560696414)
(5.87702174836e-05 0.000147407730908 0.0034305723569)
(3.9363242408e-05 0.00014831357612 0.00343390343764)
(1.96834211793e-05 0.000148867964212 0.00343581364424)
(-1.29625714523e-07 0.000149056193079 0.00343643811044)
(-1.99402141831e-05 0.000148874007729 0.00343581709751)
(-3.96128414394e-05 0.00014832566271 0.00343391235361)
(-5.90080328263e-05 0.000147425741347 0.00343059113155)
(-7.79782149842e-05 0.000146209217777 0.00342564591442)
(-9.64151555788e-05 0.000144747260014 0.00341890904732)
(-0.000114337336296 0.000142939239783 0.00341054166525)
(-0.000129833234674 0.000142400855172 0.00340152901544)
(0.000121207837507 0.000132185390528 0.00340617744156)
(0.00010624955595 0.000130200549752 0.00341333640016)
(8.89774569472e-05 0.000130621056621 0.00341949534109)
(7.1573770534e-05 0.000130927844994 0.00342429247686)
(5.38895531502e-05 0.000131203537721 0.00342773898107)
(3.59924599887e-05 0.000131403918033 0.00343003826395)
(1.79639029955e-05 0.000131524276457 0.00343135924143)
(-1.27388228747e-07 0.000131565569115 0.00343179198077)
(-1.82166106844e-05 0.000131527943074 0.00343135883752)
(-3.62391654218e-05 0.000131411241528 0.00343003743545)
(-5.41264282001e-05 0.000131214476395 0.00342773802128)
(-7.17966765871e-05 0.000130942394272 0.0034242949256)
(-8.91821996284e-05 0.00013063975604 0.00341951679983)
(-0.000106432189298 0.000130222259565 0.00341335140542)
(-0.000121354433235 0.000132220574832 0.0034061958438)
(8.40997584142e-07 1.26680874652e-06 0.000347278330098)
(6.26644778037e-07 1.5913811239e-06 0.000365156926324)
(5.62734623371e-07 1.79580207797e-06 0.000381686542175)
(4.60694890594e-07 1.97803839756e-06 0.00039607338847)
(3.5104522975e-07 2.1224021725e-06 0.000407773762971)
(2.4277704276e-07 2.22423913431e-06 0.00041639448378)
(1.36008618536e-07 2.28509726022e-06 0.000421677029451)
(3.08893831514e-08 2.30671974404e-06 0.000423468130643)
(-7.68814436044e-08 2.28918871049e-06 0.000421680471936)
(-1.91736519906e-07 2.2311506931e-06 0.000416400590971)
(-3.13405386326e-07 2.12991652449e-06 0.000407781101372)
(-4.38503632731e-07 1.98406133842e-06 0.000396080164809)
(-5.55263376022e-07 1.79680402562e-06 0.000381691375918)
(-6.30585044942e-07 1.5875803755e-06 0.000365153989016)
(-8.48828609573e-07 1.25829221969e-06 0.000347246691029)
(7.1230468359e-06 8.48903050444e-06 0.00097730454897)
(6.43441138577e-06 1.02108255938e-05 0.00102434041622)
(5.89314463289e-06 1.1746043051e-05 0.00106781544447)
(5.0916761855e-06 1.31561917489e-05 0.0011056011164)
(4.05577875586e-06 1.43391712655e-05 0.00113627586935)
(2.83684325476e-06 1.52280649215e-05 0.00115884290622)
(1.48536656431e-06 1.57806428352e-05 0.00117265374988)
(6.54239871018e-08 1.59711097926e-05 0.00117732441866)
(-1.36030250765e-06 1.5789229424e-05 0.00117266221704)
(-2.72929940658e-06 1.5242741128e-05 0.00115885772209)
(-3.97680833311e-06 1.43555225821e-05 0.00113629325638)
(-5.04646674969e-06 1.31697328177e-05 0.00110561665013)
(-5.87951942273e-06 1.17495748379e-05 0.00106782563193)
(-6.44482397824e-06 1.02038808169e-05 0.00102432958858)
(-7.14100440281e-06 8.47129165905e-06 0.000977223694044)
(1.61684782294e-05 1.84332268166e-05 0.0015456845731)
(1.48487128164e-05 2.18410258326e-05 0.00161568128806)
(1.35597606349e-05 2.50257675999e-05 0.00168016930387)
(1.17136562762e-05 2.79460246941e-05 0.00173601510141)
(9.32970829261e-06 3.04016685817e-05 0.00178118724308)
(6.51011931537e-06 3.22526345327e-05 0.00181431911101)
(3.3756539469e-06 3.34047031699e-05 0.00183454787924)
(7.75244317377e-08 3.37991821312e-05 0.00184137273871)
(-3.22755701274e-06 3.34139409454e-05 0.00183455880321)
(-6.38299702028e-06 3.22683994966e-05 0.00181433808023)
(-9.23658305438e-06 3.04193520343e-05 0.00178120951891)
(-1.16613292649e-05 2.79608153992e-05 0.00173603549315)
(-1.35459135398e-05 2.50302555789e-05 0.00168018363896)
(-1.48635665542e-05 2.18329659814e-05 0.00161566890766)
(-1.61920232003e-05 1.8411832951e-05 0.00154557533367)
(2.61904719863e-05 2.9180749516e-05 0.00205194052081)
(2.40749680765e-05 3.42095417238e-05 0.00213818322064)
(2.18814399079e-05 3.892576762e-05 0.00221717703279)
(1.88314685505e-05 4.32357101546e-05 0.00228519733013)
(1.49545228851e-05 4.68490231013e-05 0.00233991944456)
(1.0402472889e-05 4.95667612414e-05 0.00237987434063)
(5.36474890532e-06 5.12553118782e-05 0.00240418649779)
(7.4896844044e-08 5.18312617853e-05 0.00241236807153)
(-5.22186766921e-06 5.12640195316e-05 0.00240419778739)
(-1.02803291685e-05 4.95816758666e-05 0.00237989421621)
(-1.48658070474e-05 4.68660131925e-05 0.00233994382654)
(-1.87832482417e-05 4.32502073896e-05 0.00228522224498)
(-2.18719186138e-05 3.89312552055e-05 0.00221719938722)
(-2.40937994385e-05 3.42022739276e-05 0.0021381814607)
(-2.62173893966e-05 2.91591358917e-05 0.0020518324674)
(3.59996091525e-05 3.94849985682e-05 0.00249409733441)
(3.29731560084e-05 4.58884560315e-05 0.00258976678039)
(2.98161185955e-05 5.18134473269e-05 0.00267672119382)
(2.55411499616e-05 5.72060201382e-05 0.00275105959615)
(2.02083187169e-05 6.17057225077e-05 0.0028104602104)
(1.40120068915e-05 6.50773798243e-05 0.00285358535389)
(7.19790934971e-06 6.71664873433e-05 0.00287971706403)
(6.40038870688e-08 6.78768610307e-05 0.00288848697872)
(-7.07607528903e-06 6.71739769931e-05 0.00287972796141)
(-1.39085870874e-05 6.50902792649e-05 0.0028536053464)
(-2.01344550735e-05 6.17205832105e-05 0.00281048708513)
(-2.55033163338e-05 5.72188932658e-05 0.00275109200891)
(-2.98131601618e-05 5.18189409555e-05 0.00267675865462)
(-3.29958250914e-05 4.58825895896e-05 0.00258978899822)
(-3.60286813581e-05 3.94645656706e-05 0.00249401510533)
(4.4885401626e-05 4.8646685937e-05 0.00287202356133)
(4.08910964513e-05 5.60934282161e-05 0.00297086584705)
(3.67773331651e-05 6.28233613679e-05 0.00305990580245)
(3.13449918474e-05 6.8920885296e-05 0.00313541042567)
(2.47005752761e-05 7.39789906344e-05 0.00319528147487)
(1.70709375262e-05 7.77511529941e-05 0.00323846747868)
(8.74086678573e-06 8.00805726185e-05 0.00326451208802)
(4.94288222595e-08 8.08703808957e-05 0.00327322787941)
(-8.64710415051e-06 8.00863858435e-05 0.00326452293855)
(-1.6992306839e-05 7.77612035698e-05 0.00323848869867)
(-2.4646151825e-05 7.39906055868e-05 0.00319531335337)
(-3.13203235582e-05 6.8930968921e-05 0.00313545500394)
(-3.67817579428e-05 6.28277051783e-05 0.00305996616054)
(-4.09174252982e-05 5.60883060073e-05 0.00297092362867)
(-4.49163505032e-05 4.8627759849e-05 0.0028719836308)
(5.24140602211e-05 5.62674393444e-05 0.00318804218673)
(4.74537414536e-05 6.43925722502e-05 0.00328485382981)
(4.24398203765e-05 7.15120489621e-05 0.00337124428372)
(3.59790880252e-05 7.79301849364e-05 0.0034438831226)
(2.8231846391e-05 8.32174353644e-05 0.00350101698528)
(1.94467025379e-05 8.71389724541e-05 0.00354194414457)
(9.9287768178e-06 8.95513541651e-05 0.00356650111646)
(3.41310223013e-08 9.03669639872e-05 0.00357469528929)
(-9.8644559909e-06 8.95552994476e-05 0.00356651280831)
(-1.93940568689e-05 8.71457564558e-05 0.00354196851135)
(-2.81978480419e-05 8.3225157207e-05 0.00350105699309)
(-3.59682377198e-05 7.79365978447e-05 0.0034439444397)
(-4.24519173853e-05 7.15142285885e-05 0.00337133392216)
(-4.74835095653e-05 6.43870186731e-05 0.0032849550012)
(-5.24470447802e-05 5.62497459944e-05 0.00318805362956)
(5.83571051165e-05 6.21611129599e-05 0.00344654070592)
(5.24854035563e-05 7.06033389516e-05 0.0035373946528)
(4.66666921298e-05 7.77325214489e-05 0.00361772554567)
(3.93464110771e-05 8.41220342851e-05 0.00368471959636)
(3.07382464311e-05 8.93438397892e-05 0.00373699305092)
(2.11021050133e-05 9.31930773649e-05 0.0037741776196)
(1.07455015297e-05 9.55509733098e-05 0.00379637355402)
(1.97890838656e-08 9.63458531304e-05 0.00380375887996)
(-1.07087990389e-05 9.55530206759e-05 0.00379638696417)
(-2.10738981656e-05 9.31964615206e-05 0.00377420682685)
(-3.07236145742e-05 8.93473528532e-05 0.00373704356761)
(-3.93488156212e-05 8.41242277433e-05 0.00368480058968)
(-4.66863339122e-05 7.77316294487e-05 0.00361784784808)
(-5.25186237701e-05 7.05962925848e-05 0.00353754194305)
(-5.83921494345e-05 6.21435590046e-05 0.00344660549792)
(6.26452593285e-05 6.63006785492e-05 0.0036532921903)
(5.59587159286e-05 7.47283905537e-05 0.00373555093396)
(4.94569564126e-05 8.15491550083e-05 0.00380770134854)
(4.14671150304e-05 8.76184322475e-05 0.00386744845313)
(3.22492599233e-05 9.25329981249e-05 0.00391372657592)
(2.20646844856e-05 9.61309282981e-05 0.00394642938002)
(1.12076638448e-05 9.83247882711e-05 0.00396585309236)
(7.18003093513e-09 9.90621718616e-05 0.00397229890482)
(-1.11952827031e-05 9.83250131128e-05 0.00396586865868)
(-2.20581314255e-05 9.6130981724e-05 0.00394646410688)
(-3.22520349513e-05 9.25322136739e-05 0.0039137881915)
(-4.14817392176e-05 8.76160482826e-05 0.0038675492457)
(-4.94838230696e-05 8.15443260513e-05 0.00380785551195)
(-5.59954579007e-05 7.47186408128e-05 0.0037357411072)
(-6.26823800309e-05 6.62818453914e-05 0.00365340514804)
(6.53250377785e-05 6.87708727734e-05 0.00381479528068)
(5.79482790166e-05 7.68959288272e-05 0.00388698885178)
(5.08993767668e-05 8.3160492233e-05 0.00394995507646)
(4.24359457402e-05 8.86823817041e-05 0.00400182894376)
(3.28521795265e-05 9.31054445482e-05 0.00404176565983)
(2.24012400473e-05 9.63187648553e-05 0.00406982479222)
(1.13514659147e-05 9.82685267821e-05 0.00408641652133)
(-3.50469720515e-09 9.89218427048e-05 0.00409190983927)
(-1.13597489273e-05 9.82670811309e-05 0.00408643391987)
(-2.2413262302e-05 9.63157033139e-05 0.00406986408589)
(-3.28701900231e-05 9.31004792056e-05 0.00404183629553)
(-4.24616401726e-05 8.86752737833e-05 0.00400194576167)
(-5.09331456588e-05 8.31510830761e-05 0.00395013497146)
(-5.79885586614e-05 7.68823166314e-05 0.00388721178255)
(-6.53642607571e-05 6.87493128497e-05 0.00381494350517)
(6.65199827162e-05 6.97280805078e-05 0.00393776256356)
(5.85917271296e-05 7.7309258512e-05 0.00399940691022)
(5.11357822263e-05 8.28351527798e-05 0.00405306752996)
(4.23898602265e-05 8.76428325325e-05 0.00409715853693)
(3.26660918585e-05 9.14443297509e-05 0.0041309513538)
(2.21996336916e-05 9.41828390653e-05 0.00415458392625)
(1.12234012511e-05 9.5836100483e-05 0.0041685073414)
(-1.23986595548e-08 9.63882956687e-05 0.00417310860858)
(-1.12489504157e-05 9.58332186106e-05 0.00416852520488)
(-2.22273859483e-05 9.4177039052e-05 0.00415462462203)
(-3.26973558079e-05 9.14355458245e-05 0.0041310253476)
(-4.24256162781e-05 8.76311375949e-05 0.00409728247532)
(-5.11762330996e-05 8.28208232763e-05 0.00405326034661)
(-5.86356317039e-05 7.72908539537e-05 0.00399964440448)
(-6.65612399403e-05 6.9702421945e-05 0.00393792417465)
(6.63942279033e-05 6.9364746309e-05 0.00402880710247)
(5.80568485873e-05 7.62019364323e-05 0.00408022558022)
(5.03342798872e-05 8.0857383405e-05 0.0041250920372)
(4.14871981975e-05 8.48357079038e-05 0.0041619287638)
(3.18261519766e-05 8.79343689087e-05 0.00419006140293)
(2.1558041912e-05 9.01471501576e-05 0.00420966127427)
(1.0874848368e-05 9.14765950177e-05 0.00422117555938)
(-1.97701095383e-08 9.19191682945e-05 0.0042249749035)
(-1.09147732763e-05 9.14726089682e-05 0.00422119121211)
(-2.15990925454e-05 9.01391873603e-05 0.00420969741155)
(-3.18689611394e-05 8.7922436177e-05 0.00419012849393)
(-4.1532151713e-05 8.48200074868e-05 0.00416204427058)
(-5.03812774809e-05 8.08383829639e-05 0.00412527656595)
(-5.81045942919e-05 7.61785497173e-05 0.00408045018537)
(-6.64376263068e-05 6.93344427644e-05 0.00402894982158)
(6.51159179834e-05 6.78694035634e-05 0.00409434641493)
(5.65182876766e-05 7.37914030208e-05 0.00413654043881)
(4.86786840234e-05 7.74832776738e-05 0.00417350326066)
(3.99023484462e-05 8.05625496032e-05 0.00420376209857)
(3.0479619272e-05 8.29238269355e-05 0.00422674952475)
(2.0581997113e-05 8.45973804623e-05 0.00424269630567)
(1.03604776801e-05 8.55987749346e-05 0.00425203896324)
(-2.58869898397e-08 8.59311421624e-05 0.00425511670862)
(-1.04123892536e-05 8.55940963742e-05 0.00425204827955)
(-2.06343095644e-05 8.4588015269e-05 0.00424271877075)
(-3.05324727536e-05 8.29097794857e-05 0.00422679407995)
(-3.99556265765e-05 8.05439431248e-05 0.00420384544593)
(-4.87319051173e-05 7.74605559461e-05 0.00417364779546)
(-5.65698519204e-05 7.3763650598e-05 0.00413671480586)
(-6.51614423126e-05 6.78348474627e-05 0.00409442984286)
(6.28586597945e-05 6.5408017101e-05 0.00414073541836)
(5.41822704615e-05 7.03454446416e-05 0.00417532808541)
(4.63981537207e-05 7.29713441996e-05 0.00420533438161)
(3.78417958541e-05 7.51151314512e-05 0.00422951699769)
(2.87934274047e-05 7.67391607636e-05 0.00424766582268)
(1.93870788661e-05 7.78846999501e-05 0.00426016318693)
(9.73902659247e-06 7.85680612485e-05 0.00426745596868)
(-3.09667742187e-08 7.87940173326e-05 0.00426985176161)
(-9.80091643997e-06 7.85631765681e-05 0.00426745367127)
(-1.94488134426e-05 7.78748779504e-05 0.00426016031712)
(-2.88548214271e-05 7.67243118857e-05 0.0042476675013)
(-3.79023615473e-05 7.50951988204e-05 0.00422953599872)
(-4.64570062445e-05 7.2946533954e-05 0.00420539407573)
(-5.42373085438e-05 7.03147531578e-05 0.00417540326585)
(-6.29061709631e-05 6.53700249403e-05 0.00414071693648)
(5.97142541343e-05 6.30772030968e-05 0.00417481450682)
(5.13051437947e-05 6.6292360545e-05 0.00420394606702)
(4.37322182028e-05 6.76680634755e-05 0.00422729769138)
(3.55057667871e-05 6.8818106655e-05 0.0042453818647)
(2.6922947003e-05 6.96694812078e-05 0.00425861603088)
(1.80781916673e-05 7.02651562517e-05 0.00426759910235)
(9.06321601372e-06 7.06176828938e-05 0.00427280022821)
(-3.5111956246e-08 7.07331222254e-05 0.0042744986105)
(-9.13324807074e-06 7.06132666592e-05 0.00427278178586)
(-1.81476179351e-05 7.02562792411e-05 0.00426756087657)
(-2.69912636615e-05 6.96559005204e-05 0.00425855685655)
(-3.55721884261e-05 6.87995748502e-05 0.00424530512224)
(-4.37956937902e-05 6.76443241095e-05 0.00422722354096)
(-5.13625551534e-05 6.62618624166e-05 0.00420384181474)
(-5.97636722883e-05 6.30393134423e-05 0.00417469374565)
(-9.01859999286e-08 -3.16297275472e-07 0.000247455760763)
(1.17151583706e-07 -5.02979105052e-07 0.000260545366632)
(2.84761520091e-07 -6.02847463732e-07 0.000272868975114)
(3.74821788222e-07 -6.24655652896e-07 0.000283771428978)
(3.79064564734e-07 -5.99453680917e-07 0.000292736102009)
(3.00757093617e-07 -5.55346425069e-07 0.0002993891235)
(1.62869673385e-07 -5.17991532224e-07 0.000303483144139)
(-6.32211357845e-09 -5.039528969e-07 0.00030487304482)
(-1.74657369837e-07 -5.19034643609e-07 0.000303481196259)
(-3.1020822066e-07 -5.57364440331e-07 0.000299385566742)
(-3.8594136607e-07 -6.0254309256e-07 0.000292731296831)
(-3.81356296343e-07 -6.29188202342e-07 0.000283764960597)
(-2.91826603755e-07 -6.076322551e-07 0.00027285876977)
(-1.23934365274e-07 -5.08510869337e-07 0.000260526485719)
(8.46923855311e-08 -3.20801585724e-07 0.000247410537756)
(4.85213663676e-07 2.74550354593e-08 0.000730274350414)
(9.62985467347e-07 -2.42851657174e-07 0.000767754955807)
(1.33620404466e-06 -2.97385173226e-07 0.000803143464869)
(1.48830773929e-06 -1.68155949517e-07 0.000834483617285)
(1.39521987685e-06 5.46545559319e-08 0.000860272005535)
(1.07005089909e-06 2.87936131101e-07 0.000879420949782)
(5.74609914745e-07 4.58962172384e-07 0.000891205748016)
(-1.08974956285e-08 5.20810714448e-07 0.00089519873633)
(-5.95013903377e-07 4.56696583383e-07 0.000891202534131)
(-1.08679319123e-06 2.83289109462e-07 0.000879415238727)
(-1.40843568181e-06 4.71500259438e-08 0.000860264307943)
(-1.50218397057e-06 -1.79275110598e-07 0.000834472092587)
(-1.35309348734e-06 -3.09953032178e-07 0.000803121688171)
(-9.80701531912e-07 -2.57636545783e-07 0.000767707549593)
(-5.00116998909e-07 1.42904078211e-08 0.000730159093592)
(1.90099324931e-06 1.412104062e-06 0.00119534707228)
(2.52072410909e-06 1.34195661414e-06 0.00125507295253)
(2.96805026929e-06 1.58329475212e-06 0.00131146360666)
(3.05352122929e-06 2.0658180386e-06 0.00136137587277)
(2.7411189901e-06 2.63918752921e-06 0.00140241963892)
(2.05607908536e-06 3.16650899854e-06 0.00143287827094)
(1.09591483133e-06 3.53224294496e-06 0.00145161160064)
(-1.03565975362e-08 3.6621814392e-06 0.00145795012807)
(-1.11551230743e-06 3.52971683996e-06 0.00145160935766)
(-2.07289794421e-06 3.16090384591e-06 0.00143287454789)
(-2.75599657622e-06 2.62930599543e-06 0.00140241470187)
(-3.07119077254e-06 2.05052210405e-06 0.00136136657594)
(-2.99133964374e-06 1.56478430158e-06 0.00131144036659)
(-2.5470441273e-06 1.32021001956e-06 0.00125501211478)
(-1.92376259711e-06 1.39093156002e-06 0.00119518723881)
(4.27614327788e-06 3.92572948612e-06 0.0016390540618)
(4.92675706594e-06 4.31652497509e-06 0.00171814079643)
(5.31796037434e-06 5.08529961218e-06 0.00179263544433)
(5.19684193122e-06 6.1107043424e-06 0.0018584300383)
(4.52135398755e-06 7.17844672492e-06 0.00191242229287)
(3.33228011662e-06 8.09907504424e-06 0.00195241890859)
(1.76311455545e-06 8.71725914537e-06 0.00197698329425)
(-8.32476228424e-09 8.93427761512e-06 0.00198528309797)
(-1.77924746652e-06 8.71487115182e-06 0.00197698356374)
(-3.3473690179e-06 8.09341536366e-06 0.00195242012644)
(-4.53693410985e-06 7.16782743094e-06 0.0019124245001)
(-5.21745144374e-06 6.09362919888e-06 0.0018584295413)
(-5.34616588481e-06 5.06328772139e-06 0.00179262135286)
(-4.95997544791e-06 4.2898565824e-06 0.00171808417363)
(-4.30570845164e-06 3.89769469894e-06 0.00163888022212)
(7.38741861479e-06 7.27739544481e-06 0.00205635788009)
(7.96666645404e-06 8.28154633133e-06 0.00215103661261)
(8.1858568399e-06 9.69624874767e-06 0.00223981838543)
(7.74035678907e-06 1.13491187649e-05 0.00231793925288)
(6.59001809531e-06 1.29645808741e-05 0.00238182557094)
(4.79397122908e-06 1.43084236868e-05 0.00242901344098)
(2.52036453411e-06 1.51932241152e-05 0.00245793011472)
(-7.39643484066e-09 1.5501338384e-05 0.00246768489349)
(-2.53520338246e-06 1.51910543224e-05 0.00245793361227)
(-4.80934139196e-06 1.43030302937e-05 0.00242902116453)
(-6.60791757841e-06 1.29540367681e-05 0.00238183777049)
(-7.7648100921e-06 1.13316179283e-05 0.00231795277308)
(-8.21884420325e-06 9.6724507955e-06 0.00223982289701)
(-8.00557926456e-06 8.25140392919e-06 0.00215100022122)
(-7.42292208967e-06 7.24409272055e-06 0.00205619522674)
(1.09586904128e-05 1.11342816515e-05 0.00244191034324)
(1.1373286814e-05 1.27988505869e-05 0.00254770580127)
(1.13226809712e-05 1.48689490379e-05 0.00264629211906)
(1.04637269295e-05 1.71327280923e-05 0.00273260377643)