/*--------------------------------*- C++ -*----------------------------------*\
  =========                 |
  \\      /  F ield         | OpenFOAM: The Open Source CFD Toolbox
   \\    /   O peration     | Website:  https://openfoam.org
    \\  /    A nd           | Version:  7
     \\/     M anipulation  |
\*---------------------------------------------------------------------------*/
FoamFile
{
    version     2.0;
    format      ascii;
    class       surfaceScalarField;
    location    "1.38";
    object      phi;
}
// * * * * * * * * * * * * * * * * * * * * * * * * * * * * * * * * * * * * * //

dimensions      [0 3 -1 0 0 0 0];

internalField   nonuniform List<scalar> 
65775
(
1.85622894164e-11
2.62680827333e-09
3.89130386152e-10
-1.39480737206e-13
2.87502328357e-11
2.7498947024e-09
4.31254061361e-10
3.40508117022e-11
2.85570241208e-09
4.71608764083e-10
3.34024370359e-11
2.94695955743e-09
5.08043744123e-10
2.77924488091e-11
3.01964740721e-09
5.38599504417e-10
1.82611162993e-11
3.07280484966e-09
5.61690730049e-10
6.25002199172e-12
3.10620932465e-09
5.76274992648e-10
-6.62898555817e-12
3.11888369651e-09
5.81511333271e-10
-1.86248451651e-11
3.10628760937e-09
5.76275354273e-10
-2.81269589453e-11
3.07295772327e-09
5.61691299151e-10
-3.36899244501e-11
3.01987141946e-09
5.38599964266e-10
-3.42780231496e-11
2.94723290902e-09
5.08043551341e-10
-2.8901070199e-11
2.8560061534e-09
4.71606681478e-10
-1.86544757951e-11
2.75016611467e-09
4.31245003866e-10
2.62695939696e-09
3.89095561868e-10
-1.70286007702e-13
4.89625209516e-11
4.48820850436e-09
9.80592659249e-10
-3.34093583773e-13
8.19780858412e-11
4.68126016324e-09
1.08258180488e-09
9.7510136797e-11
4.84785087307e-09
1.17966596195e-09
9.63713003722e-11
4.98933690671e-09
1.26685678763e-09
8.04221607751e-11
5.10142737823e-09
1.33964259331e-09
5.29444810295e-11
5.18288874183e-09
1.39445496823e-09
1.81500701332e-11
5.23402076036e-09
1.4289967958e-09
-1.91304277531e-11
5.25354360243e-09
1.44138426759e-09
-5.38858925544e-11
5.23419891937e-09
1.42899692399e-09
-8.12869606962e-11
5.18323757617e-09
1.39445505233e-09
-9.71183573522e-11
5.1019351498e-09
1.33964195153e-09
-9.81023030733e-11
4.98996486683e-09
1.26685419258e-09
-8.23884102487e-11
4.84854610541e-09
1.179658191e-09
-4.92131018954e-11
4.68190339949e-09
1.08255506384e-09
4.48862217799e-09
9.80505788365e-10
-4.31894090284e-13
7.41844329922e-11
5.74005977723e-09
1.42153010919e-09
-4.64974672542e-13
1.25758032213e-10
5.96537213416e-09
1.56718654761e-09
1.49595016591e-10
6.16123991111e-09
1.70515908912e-09
1.4789512675e-10
6.32455406715e-09
1.8286052685e-09
1.23394874297e-10
6.45314961219e-09
1.93133194949e-09
8.12172578779e-11
6.54592156619e-09
2.00850380168e-09
2.78490595399e-11
6.60406002214e-09
2.05704357799e-09
-2.92947104623e-11
6.6264073667e-09
2.07441689024e-09
-8.26057581766e-11
6.60430588306e-09
2.05704363273e-09
-1.2467038755e-10
6.54640217643e-09
2.00850378297e-09
-1.49000498218e-10
6.45384615952e-09
1.93133103994e-09
-1.50477422348e-10
6.32541908228e-09
1.82860189584e-09
-1.26385621512e-10
6.16219725614e-09
1.70514885805e-09
-7.45767868188e-11
5.9662731086e-09
1.56715081747e-09
5.74067584009e-09
1.42141396493e-09
-6.39767475975e-13
9.57702405265e-11
6.50116540105e-09
1.74724688548e-09
-5.50788126656e-13
1.62105736019e-10
6.73264479026e-09
1.9251836448e-09
1.9280884659e-10
6.93507516915e-09
2.09289527104e-09
1.90456005995e-10
7.10068262256e-09
2.24238945264e-09
1.58808499408e-10
7.23002392168e-09
2.36641417195e-09
1.04476509599e-10
7.32254790378e-09
2.45936678935e-09
3.58297336638e-11
7.38040642022e-09
2.51771803798e-09
-3.76288986004e-11
7.40281933367e-09
2.53855633073e-09
-1.06204899674e-10
7.38068773739e-09
2.51771867453e-09
-1.60396932935e-10
7.32309792334e-09
2.4593680832e-09
-1.91836644305e-10
7.2308179967e-09
2.36641538024e-09
-1.93921464028e-10
7.10166948936e-09
2.24238901081e-09
-1.62915298303e-10
6.93617269578e-09
2.09288858412e-09
-9.62955673056e-11
6.73369340553e-09
1.92515056072e-09
6.50192808736e-09
1.74712732159e-09
-8.12997964183e-13
1.1387066543e-10
6.87147733888e-09
1.97647399056e-09
-6.02880799728e-13
1.92098087852e-10
7.09144762176e-09
2.17767598127e-09
2.28416117339e-10
7.2849108292e-09
2.36631909582e-09
2.25430611738e-10
7.44005437322e-09
2.53381156009e-09
1.87858276052e-10
7.55998391739e-09
2.6723330982e-09
1.23532851208e-10
7.64493442724e-09
2.77589880499e-09
4.23703579014e-11
7.69791055967e-09
2.8407764985e-09
-4.44362556975e-11
7.71862180892e-09
2.86388672484e-09
-1.25518161797e-10
7.69820162779e-09
2.84077824715e-09
-1.89684903145e-10
7.64550274231e-09
2.77590257246e-09
-2.27024193061e-10
7.56080275704e-09
2.67233843827e-09
-2.29713818172e-10
7.44107232248e-09
2.5338173091e-09
-1.93064268547e-10
7.28605089143e-09
2.36632128832e-09
-1.14522710021e-10
7.09254818492e-09
2.17765476582e-09
6.87231309577e-09
1.9763686068e-09
-9.6214271839e-13
1.28930855453e-10
6.93546824911e-09
2.12424233769e-09
-6.29571899324e-13
2.16647027784e-10
7.13282468228e-09
2.34152345178e-09
2.57421263433e-10
7.30753857827e-09
2.54411500111e-09
2.53808279105e-10
7.44464807684e-09
2.72324812285e-09
2.1136889531e-10
7.54930784146e-09
2.87091528414e-09
1.38930900503e-10
7.62258805379e-09
2.98104104935e-09
4.76552339258e-11
7.66812976049e-09
3.04987361543e-09
-4.99224373321e-11
7.68613067669e-09
3.07432162925e-09
-1.4111123582e-10
7.66840699064e-09
3.04987674026e-09
-2.13378641169e-10
7.6231292957e-09
2.98104790081e-09
-2.55570187645e-10
7.55008630887e-09
2.8709259147e-09
-2.58872377488e-10
7.44561665845e-09
2.72326213198e-09
-2.17754447504e-10
7.30862931286e-09
2.54412963832e-09
-1.29708210431e-10
7.13389271292e-09
2.34151980168e-09
6.93630626509e-09
2.12415992471e-09
-1.0929515452e-12
1.41418341579e-10
6.76455522027e-09
2.20314686302e-09
-6.37720160071e-13
2.36564400117e-10
6.93338038678e-09
2.43082496341e-09
2.80725636577e-10
7.08403201063e-09
2.64189399903e-09
2.76463137675e-10
7.1994416588e-09
2.82772112349e-09
2.30061879083e-10
7.28618612072e-09
2.98039578667e-09
1.51143717953e-10
7.34609296992e-09
3.093963026e-09
5.18432823772e-11
7.38316674322e-09
3.16477741279e-09
-5.42652247107e-11
7.39801599828e-09
3.1898457724e-09
-1.5347539549e-10
7.38341220113e-09
3.16478186317e-09
-2.32217046071e-10
7.34657203394e-09
3.09397291379e-09
-2.78364071513e-10
7.28687416095e-09
2.98041182286e-09
-2.82311409351e-10
7.20029883184e-09
2.82774394392e-09
-2.37804486251e-10
7.08500347307e-09
2.64192238042e-09
-1.42323187788e-10
6.9343403333e-09
2.43084081316e-09
6.76532636233e-09
2.20309003486e-09
-1.21289037071e-12
1.51658459199e-10
6.41899013045e-09
2.22402917107e-09
-6.31376556562e-13
2.52469427567e-10
6.5573041849e-09
2.45769420632e-09
2.99071973766e-10
6.68195152799e-09
2.67305210788e-09
2.94138415573e-10
6.77482036277e-09
2.86182445903e-09
2.44561323497e-10
6.8433063338e-09
3.01639746721e-09
1.60582991829e-10
6.88983154498e-09
3.13107906883e-09
5.50730591272e-11
6.91847589169e-09
3.20240836618e-09
-5.76194192798e-11
6.93013606087e-09
3.22756250183e-09
-1.63038188258e-10
6.91867576413e-09
3.20241373636e-09
-2.46839161128e-10
6.89022117874e-09
3.13109120319e-09
-2.96162373148e-10
6.84386547798e-09
3.01641783497e-09
-3.00784117719e-10
6.77551754839e-09
2.86185489447e-09
-2.5384138574e-10
6.68274733042e-09
2.67309299357e-09
-1.5269569203e-10
6.55809467989e-09
2.4577278079e-09
6.41963396343e-09
2.22399583217e-09
-1.32609218467e-12
1.5986947987e-10
5.94934228037e-09
2.19635951169e-09
-6.1460460649e-13
2.64829356839e-10
6.0579840741e-09
2.43268334281e-09
3.13067406091e-10
6.15707757557e-09
2.64922733894e-09
3.07465682631e-10
6.22849681082e-09
2.83820454537e-09
2.55407717272e-10
6.27994081949e-09
2.99242721641e-09
1.67607139676e-10
6.31420294094e-09
3.10655406065e-09
5.74653268139e-11
6.33516641242e-09
3.17735042175e-09
-6.01202817806e-11
6.34387146482e-09
3.20220691192e-09
-1.70172221798e-10
6.33531169814e-09
3.17735592411e-09
-2.57798529995e-10
6.31448556582e-09
3.10656685104e-09
-3.09608425588e-10
6.28034542612e-09
2.99244954952e-09
-3.14906802576e-10
6.22900190769e-09
2.83823950971e-09
-2.66338356671e-10
6.15765822237e-09
2.64927685316e-09
-1.61046077569e-10
6.05855925279e-09
2.43272950261e-09
5.94980578643e-09
2.19634378804e-09
-1.43694014098e-12
1.66199273069e-10
5.39770817883e-09
2.12845996663e-09
-5.90685939795e-13
2.74005685184e-10
5.47935898027e-09
2.36502906176e-09
3.23227160016e-10
5.55489350331e-09
2.58056272623e-09
3.17002004608e-10
5.60717125544e-09
2.7678335718e-09
2.6308274078e-10
5.64376649047e-09
2.9201547186e-09
1.72535731127e-10
5.66757151951e-09
3.0325850809e-09
5.91275930615e-11
5.68202813552e-09
3.10213424943e-09
-6.18879743467e-11
5.68817878635e-09
3.12642985513e-09
-1.75209224586e-10
5.6821143892e-09
3.10213869708e-09
-2.6558813009e-10
5.66773832803e-09
3.03259609394e-09
-3.19268682941e-10
5.6440033575e-09
2.92017528666e-09
-3.25202237316e-10
5.60746588285e-09
2.76786800908e-09
-2.75661332632e-10
5.55523501784e-09
2.5806143819e-09
-1.67525034798e-10
5.47968722965e-09
2.36507947158e-09
5.39795373815e-09
2.12845286534e-09
-1.54891071292e-12
1.70730943658e-10
4.79878975141e-09
2.0276492078e-09
-5.62287469788e-13
2.80294150566e-10
4.85707169768e-09
2.26281748463e-09
3.30030236185e-10
4.91187404386e-09
2.47588634852e-09
3.23272861761e-10
4.94801092155e-09
2.66019856862e-09
2.68034638301e-10
4.97251180192e-09
2.8096073106e-09
1.75660717121e-10
4.98802950238e-09
2.91960061904e-09
6.01573861115e-11
4.99736662593e-09
2.98743956815e-09
-6.30305471423e-11
5.00144990582e-09
3.0110015793e-09
-1.7845111133e-10
4.99739383751e-09
2.98744138551e-09
-2.70665060548e-10
4.98807981075e-09
2.91960658918e-09
-3.25675947414e-10
4.97257911114e-09
2.80962101829e-09
-3.32154276658e-10
4.94809047251e-09
2.6602254693e-09
-2.82108836831e-10
4.91196643846e-09
2.47593121141e-09
-1.72216305276e-10
4.85713556329e-09
2.26286121471e-09
4.79879229329e-09
2.02763917421e-09
-1.66540440209e-12
1.73478931332e-10
4.1808558706e-09
1.90035345948e-09
-5.29782605592e-13
2.84030224122e-10
4.21937156246e-09
2.13312072492e-09
3.34038077477e-10
4.25660253319e-09
2.34286489309e-09
3.2684573394e-10
4.28001263516e-09
2.52346469059e-09
2.7070998788e-10
4.29546948149e-09
2.66934168817e-09
1.77258144648e-10
4.30500237357e-09
2.7764405403e-09
6.06446519633e-11
4.3106580231e-09
2.84228146627e-09
-6.36456477711e-11
4.31318879132e-09
2.86500057765e-09
-1.80181142579e-10
4.31062949538e-09
2.84227876483e-09
-2.73481630887e-10
4.30494323572e-09
2.77643750635e-09
-3.29401633736e-10
4.29537562176e-09
2.66934224247e-09
-3.36326294328e-10
4.27988457705e-09
2.52347528233e-09
-2.86016229958e-10
4.25644862381e-09
2.34289195404e-09
-1.75132927932e-10
4.21916650434e-09
2.13314511921e-09
4.18060194056e-09
1.90032732938e-09
-1.78905474984e-12
1.7457817084e-10
3.56640220865e-09
1.75220562847e-09
-4.94420415674e-13
2.85956940162e-10
3.58770809662e-09
1.98213208475e-09
3.36115371356e-10
3.61088806183e-09
2.18815132619e-09
3.28399221935e-10
3.62536459913e-09
2.36462841408e-09
2.71557842898e-10
3.63491302729e-09
2.50660812356e-09
1.77577267475e-10
3.64068236718e-09
2.61053399691e-09
6.06689966736e-11
3.64401246107e-09
2.6741990997e-09
-6.3817193439e-11
3.64547749031e-09
2.69600645693e-09
-1.80651424873e-10
3.6439349303e-09
2.67418988827e-09
-2.74488822482e-10
3.64052545325e-09
2.61051770859e-09
-3.31124026313e-10
3.63467442612e-09
2.50658857326e-09
-3.38580797256e-10
3.62504611113e-09
2.36461269968e-09
-2.88122741357e-10
3.61050199783e-09
2.18814809831e-09
-1.76404884554e-10
3.58724129288e-09
1.98212422418e-09
3.56589059729e-09
1.75215150487e-09
-1.91232376947e-12
1.75198653415e-10
2.97181860326e-09
1.5881376497e-09
-4.5645893112e-13
2.87823369185e-10
2.97749113354e-09
1.81531221965e-09
3.37443715988e-10
2.99134186927e-09
2.01751234304e-09
3.28532033664e-10
3.00088447926e-09
2.18964026356e-09
2.70860865446e-10
3.00734384689e-09
2.32749225756e-09
1.76749846725e-10
3.01123415491e-09
2.42806539906e-09
6.02672069943e-11
3.01337958868e-09
2.48943951519e-09
-6.35812676553e-11
3.01420872248e-09
2.51029036008e-09
-1.79992758626e-10
3.01326040918e-09
2.48942214138e-09
-2.73965627678e-10
3.01099500182e-09
2.42803222554e-09
-3.31436478875e-10
3.00698300898e-09
2.32744630491e-09
-3.40091734851e-10
3.00040310666e-09
2.18958832903e-09
-2.90170003558e-10
2.99074962247e-09
2.01746551977e-09
-1.77194734359e-10
2.97678068006e-09
1.81525996946e-09
2.97107064764e-09
1.58804841534e-09
-2.03883747744e-12
1.81345889831e-10
1.41280712304e-09
-4.16383429296e-13
2.40283868787e-09
2.93739851388e-10
1.63783370929e-09
2.40084972945e-09
3.40044407778e-10
1.83604113677e-09
2.41156636576e-09
3.28289643042e-10
2.003554514e-09
2.41931529879e-09
2.69246769185e-10
2.13704610434e-09
2.42463163627e-09
1.75134882093e-10
2.23409608776e-09
2.42802168221e-09
5.95634968917e-11
2.29307336405e-09
2.4298836228e-09
-6.30566722285e-11
2.31292879364e-09
2.43043039265e-09
-1.78556609532e-10
2.29304761301e-09
2.4297296548e-09
-2.7253001764e-10
2.23404538341e-09
2.42771325224e-09
-3.31371296062e-10
2.13697201362e-09
2.42416871893e-09
-3.42866336257e-10
2.0034617916e-09
2.41869820468e-09
-2.96249239781e-10
1.83594228383e-09
2.4107996202e-09
-1.83488318522e-10
1.63771996483e-09
2.3999290259e-09
1.41269553891e-09
-2.1558387039e-12
2.40187497037e-09
-2.35948071202e-12
1.36802262186e-10
2.54601702955e-10
3.59003417505e-15
-2.27877595083e-12
1.50143905743e-10
2.80894247155e-10
-1.82227562372e-12
1.6489830091e-10
3.06146584778e-10
-1.37876312954e-12
1.78474876836e-10
3.29037940719e-10
-9.6995365298e-13
1.89862579308e-10
3.48284625758e-10
-5.88960456781e-13
1.98428274935e-10
3.62852430845e-10
-2.14797480695e-13
2.03801046698e-10
3.7206211131e-10
1.56900710701e-13
2.05715280698e-10
3.75372786118e-10
5.20234607184e-13
2.03791413116e-10
3.72059554933e-10
8.80732897164e-13
1.9841721963e-10
3.62847265141e-10
1.26738493703e-12
1.89868187064e-10
3.48276695464e-10
1.70239138478e-12
1.7851250054e-10
3.29026756976e-10
2.16021816425e-12
1.64948994534e-10
3.06130686376e-10
2.26000095658e-12
1.50208443822e-10
2.80868920206e-10
1.36809425986e-10
2.54551772882e-10
-7.07837938591e-14
-2.56320074438e-12
3.93846768521e-10
7.25950216993e-10
2.69666712e-15
-1.27140499824e-12
4.2911405371e-10
8.02120821523e-10
5.17336728809e-13
4.67323307942e-10
8.75279693499e-10
1.66187180255e-12
5.02466344646e-10
9.4159864567e-10
1.94453212138e-12
5.31781039078e-10
9.97372656189e-10
1.45402696624e-12
5.53717754874e-10
1.03960039101e-09
4.54318835434e-13
5.67443461582e-10
1.06628477211e-09
-7.21815782072e-13
5.72341159371e-10
1.07584635304e-09
-1.74331136362e-12
5.67430636488e-10
1.06627784124e-09
-2.27298539072e-12
5.53707438069e-10
1.03958624041e-09
-2.02944275936e-12
5.3180472e-10
9.97350717725e-10
-8.95197735203e-13
5.0255325807e-10
9.41567399817e-10
9.15601698785e-13
4.67450543486e-10
8.75235006354e-10
2.26679347236e-12
4.29255573395e-10
8.0204945518e-10
3.93880643423e-10
7.25818566142e-10
-2.18377628382e-13
2.25802536163e-13
6.87364539009e-10
1.12764171816e-09
-7.17986971746e-15
3.8348147001e-12
7.45049410845e-10
1.24746550468e-09
7.28652966117e-12
8.06534867335e-10
1.36233706472e-09
8.93917308202e-12
8.62982740083e-10
1.46632846538e-09
8.36792995517e-12
9.09914738799e-10
1.55370355464e-09
5.80663498527e-12
9.4491386167e-10
1.61981278459e-09
1.9079865868e-12
9.66769948746e-10
1.66154723595e-09
-2.45330170475e-12
9.74572056928e-10
1.67646272249e-09
-6.37522312004e-12
9.66763666631e-10
1.66153674917e-09
-8.97619762696e-12
9.44919176811e-10
1.61979134155e-09
-9.58173192251e-12
9.09967011084e-10
1.55367026077e-09
-7.92567429328e-12
8.63113646624e-10
1.46628105322e-09
-4.42205504337e-12
8.06722912567e-10
1.36226974068e-09
-7.13464281209e-13
7.45238688878e-10
1.2473596327e-09
6.87411960831e-10
1.12745168109e-09
-3.75325610392e-13
4.95841984585e-12
9.73408853665e-10
1.45612510008e-09
-2.44611582344e-14
1.17013821561e-11
1.05064671491e-09
1.61268269682e-09
1.6985766024e-11
1.13166851302e-09
1.76233753717e-09
1.89245281626e-11
1.20579176082e-09
1.89754544478e-09
1.69737111299e-11
1.26723119833e-09
2.01098188824e-09
1.15690716692e-11
1.31291056753e-09
2.09671407599e-09
3.83641263458e-12
1.34138372143e-09
2.15076663882e-09
-4.70032282052e-12
1.35154814452e-09
2.1700345475e-09
-1.24509092582e-11
1.34138835582e-09
2.15075360011e-09
-1.78832857642e-11
1.31293656855e-09
2.09668744235e-09
-1.98495880487e-11
1.26731060604e-09
2.01094063539e-09
-1.78829722674e-11
1.20595143449e-09
1.89748700354e-09
-1.2514323569e-11
1.13189127995e-09
1.76225546251e-09
-5.63340559601e-12
1.05086048534e-09
1.61255595398e-09
9.73461984722e-10
1.45590244869e-09
-5.43910184993e-13
1.09407034197e-11
1.22325370336e-09
1.7156051041e-09
-4.66556785611e-14
2.12488791602e-11
1.31554366615e-09
1.90232349139e-09
2.83921923358e-11
1.41058210729e-09
2.08014074395e-09
3.03950025317e-11
1.49714372565e-09
2.24036782591e-09
2.67138212148e-11
1.56865091276e-09
2.37452905748e-09
1.80367425105e-11
1.62165298139e-09
2.47577155245e-09
5.99821352505e-12
1.65462651095e-09
2.53950272453e-09
-7.19862756677e-12
1.66639310648e-09
2.56215947434e-09
-1.92457351306e-11
1.65463995531e-09
2.53948796606e-09
-2.79316280486e-11
1.62169414131e-09
2.47574152548e-09
-3.16020444279e-11
1.56874591593e-09
2.37448287877e-09
-2.95410195904e-11
1.49731415031e-09
2.24030314441e-09
-2.22809437831e-11
1.41081251622e-09
2.08005145809e-09
-1.17999597047e-11
1.31576180944e-09
1.90218795791e-09
1.22330085586e-09
1.71536977843e-09
-7.18815068936e-13
1.75505013574e-11
1.41979780113e-09
1.91009476845e-09
-7.18027103965e-14
3.15901805996e-11
1.52210479133e-09
2.12079665598e-09
4.05058443851e-11
1.62511904447e-09
2.32055297135e-09
4.23733589081e-11
1.71847137278e-09
2.49996883024e-09
3.6763679956e-11
1.79527675912e-09
2.64983184145e-09
2.46604588644e-11
1.85201951006e-09
2.76271311682e-09
8.20565051201e-12
1.88724488997e-09
2.83364001809e-09
-9.74405936178e-12
1.89980608159e-09
2.85878169973e-09
-2.61961925378e-11
1.88726326116e-09
2.83362404154e-09
-3.82863480076e-11
1.85206741209e-09
2.76268084537e-09
-4.38559030901e-11
1.79537367353e-09
2.64978282686e-09
-4.18985386564e-11
1.71863305608e-09
2.49990145491e-09
-3.28339275298e-11
1.6253330132e-09
2.32046228482e-09
-1.85923844165e-11
1.52230109266e-09
2.12066125144e-09
1.41983104522e-09
1.90985974253e-09
-8.95638122505e-13
2.42692920171e-11
1.5548127967e-09
2.04384533429e-09
-9.70306652369e-14
4.20034527573e-11
1.66222249141e-09
2.27286245413e-09
5.25220985763e-11
1.76752115489e-09
2.48887324266e-09
5.40853339037e-11
1.8623844604e-09
2.6821654474e-09
4.64800079927e-11
1.94004796296e-09
2.84316286763e-09
3.10158788323e-11
1.99721313352e-09
2.96416869435e-09
1.03139077309e-11
2.03261436924e-09
3.04004115609e-09
-1.21810304472e-11
2.04522327326e-09
3.06684989487e-09
-3.2868760565e-11
2.03263191283e-09
3.0400240127e-09
-4.8297859317e-11
1.99725631553e-09
2.96413442373e-09
-5.5834043844e-11
1.9401308638e-09
2.84311174326e-09
-5.41505092318e-11
1.86251819018e-09
2.68209705003e-09
-4.34530949163e-11
1.76769796155e-09
2.48878435696e-09
-2.54907723077e-11
1.66237582481e-09
2.27273217878e-09
1.55481862309e-09
2.04361783179e-09
-1.07248630521e-12
3.06969805909e-11
1.62668105687e-09
2.12148544877e-09
-1.20662219137e-13
5.19311343217e-11
1.73481505965e-09
2.36377072533e-09
6.38261788029e-11
1.83757156004e-09
2.59101769868e-09
6.49513690187e-11
1.92948780995e-09
2.79352058872e-09
5.5390985238e-11
2.00428266795e-09
2.96165644729e-09
3.6796048601e-11
2.05910084102e-09
3.08772124267e-09
1.22183225336e-11
2.0929526823e-09
3.16658027478e-09
-1.4399112278e-11
2.10498814276e-09
3.19434441575e-09
-3.89517666257e-11
2.0929641021e-09
3.16656148333e-09
-5.74912319962e-11
2.05912909518e-09
3.08768413375e-09
-6.69558214953e-11
2.004337198e-09
2.96160226808e-09
-6.56822433126e-11
1.92957627526e-09
2.793450511e-09
-5.35820656911e-11
1.837690082e-09
2.5909306474e-09
-3.20949451038e-11
1.73490478614e-09
2.36364629504e-09
1.62663709106e-09
2.12126755648e-09
-1.24721729021e-12
3.65469444417e-11
1.63854121259e-09
2.14800665718e-09
-1.42321540138e-13
6.0963673543e-11
1.74377996174e-09
2.39921798194e-09
7.39757950942e-11
1.8402714535e-09
2.63343597831e-09
7.45704130116e-11
1.9258160158e-09
2.84121114203e-09
6.3182437179e-11
1.99490572703e-09
3.01312756128e-09
4.18023271171e-11
2.04528788874e-09
3.14168355728e-09
1.38518515282e-11
2.07629706868e-09
3.22189130462e-09
-1.63286731462e-11
2.08729291051e-09
3.25001547689e-09
-4.42445393635e-11
2.07629755679e-09
3.22186981461e-09
-6.55512726268e-11
2.04529209833e-09
3.14164159909e-09
-7.68201718394e-11
1.99491939133e-09
3.01306755474e-09
-7.60524287783e-11
1.9258445989e-09
2.84113616943e-09
-6.28114801823e-11
1.8403143346e-09
2.63334740698e-09
-3.81193885302e-11
1.74378600717e-09
2.39909583951e-09
1.63842809767e-09
2.14779582861e-09
-1.41818559049e-12
4.16396124731e-11
1.59677780132e-09
2.12866913295e-09
-1.6085873286e-13
6.88292590004e-11
1.69633189226e-09
2.38521715741e-09
8.26939823018e-11
1.783965863e-09
2.62293403827e-09
8.27129824779e-11
1.86076885949e-09
2.83279674592e-09
6.96914360889e-11
1.92223277624e-09
3.00578731827e-09
4.5939586505e-11
1.96679418994e-09
3.1347692532e-09
1.5183684783e-11
1.99411511057e-09
3.21500953927e-09
-1.7938101901e-11
2.00376656588e-09
3.24301431868e-09
-4.8651284873e-11
1.99410131515e-09
3.21498375677e-09
-7.2314627416e-11
1.96676796901e-09
3.13471930024e-09
-8.5197289477e-11
1.92219660714e-09
3.00571691279e-09
-8.49838760857e-11
1.86072593266e-09
2.83271113579e-09
-7.08693211511e-11
1.78391778458e-09
2.62283732051e-09
-4.33833160713e-11
1.69623499623e-09
2.38508983968e-09
1.59657144636e-09
2.12845874342e-09
-1.58439841497e-12
4.58904166241e-11
1.50977425324e-09
2.06887322327e-09
-1.7691829904e-13
7.53926811846e-11
1.60164938419e-09
2.32793803314e-09
8.98765998823e-11
1.67883410614e-09
2.56647300219e-09
8.93318795226e-11
1.74548373167e-09
2.77596897062e-09
7.49146252335e-11
1.79825532667e-09
2.94794388979e-09
4.92206947311e-11
1.83627542037e-09
3.07575487962e-09
1.62210950226e-11
1.85948631788e-09
3.15500884875e-09
-1.92339260406e-11
1.86764138774e-09
3.18252173312e-09
-5.21839751336e-11
1.85945610143e-09
3.15497674636e-09
-7.77767877759e-11
1.83621457223e-09
3.07569285314e-09
-9.20386369492e-11
1.79816357884e-09
2.94785697793e-09
-9.23707884365e-11
1.74536173407e-09
2.77586477827e-09
-7.76184443148e-11
1.6786840917e-09
2.566358736e-09
-4.78008697513e-11
1.60143350368e-09
2.32779499443e-09
1.50945455851e-09
2.06865337762e-09
-1.74431004851e-12
4.93001422081e-11
1.38693353532e-09
1.97402519389e-09
-1.90392403685e-13
8.06749563623e-11
1.46978734597e-09
2.23355639799e-09
9.56340906132e-11
1.53570024361e-09
2.47098609325e-09
9.4604061255e-11
1.59160007588e-09
2.67832457539e-09
7.90368475319e-11
1.63537479553e-09
2.84773571275e-09
5.17821517617e-11
1.66673254832e-09
2.97318378094e-09
1.70143449354e-11
1.68579233535e-09
3.05068806982e-09
-2.02645443944e-11
1.6924368801e-09
3.07742857958e-09
-5.49769000339e-11
1.68574425815e-09
3.05064741918e-09
-8.2119538917e-11
1.66663486415e-09
2.97310510795e-09
-9.75173241603e-11
1.6352240395e-09
2.84762523699e-09
-9.83192147544e-11
1.59139444336e-09
2.67819233387e-09
-8.30755379059e-11
1.53544049928e-09
2.47084300652e-09
-5.13682795363e-11
1.46944106924e-09
2.23338552389e-09
1.38648362716e-09
1.97378428156e-09
-1.89631929861e-12
5.19956872686e-11
1.23787776591e-09
1.84941346367e-09
-2.01078697772e-13
8.49707705522e-11
1.31075855154e-09
2.10814060701e-09
1.00424227518e-10
1.36511655882e-09
2.34323401972e-09
9.90322250316e-11
1.41039694138e-09
2.54717572475e-09
8.24934963469e-11
1.4455621399e-09
2.71291017968e-09
5.39150732783e-11
1.47066729226e-09
2.83512790963e-09
1.76666326405e-11
1.48586429071e-09
2.91032507975e-09
-2.11295554701e-11
1.49110119711e-09
2.93608760575e-09
-5.73166948642e-11
1.48579714489e-09
2.91027386232e-09
-8.57731149399e-11
1.47053008857e-09
2.83502832045e-09
-1.0212934484e-10
1.44535005558e-09
2.71276921312e-09
-1.03279635264e-10
1.41010432341e-09
2.54700559287e-09
-8.75275036753e-11
1.36474209298e-09
2.3430501933e-09
-5.42053930527e-11
1.3102718445e-09
2.10793046423e-09
1.23728200912e-09
1.84914215638e-09
-2.03142173998e-12
5.42935929316e-11
1.07177827283e-09
1.70010043701e-09
-2.0906517872e-13
8.894695291e-11
1.13376831417e-09
1.95760837196e-09
1.05145745024e-10
1.17670115743e-09
2.18968714745e-09
1.03497505254e-10
1.21226904754e-09
2.38937252018e-09
8.59976803987e-11
1.2398796515e-09
2.55063038628e-09
5.60794304943e-11
1.25960812162e-09
2.66899738425e-09
1.83381068316e-11
1.27150742638e-09
2.74149204752e-09
-2.19836806549e-11
1.27553660026e-09
2.76613110226e-09
-5.96576823633e-11
1.27141857269e-09
2.74142911314e-09
-8.94428060108e-11
1.25942769812e-09
2.66887425062e-09
-1.06747269067e-10
1.23960161643e-09
2.55045404691e-09
-1.08140413548e-10
1.21188650159e-09
2.38915624267e-09
-9.16326287626e-11
1.17620843849e-09
2.18945116583e-09
-5.66213500903e-11
1.13313459295e-09
1.95734975999e-09
1.07103122604e-09
1.69979633066e-09
-2.15154003579e-12
5.32597923738e-11
1.53075981315e-09
-2.17184827654e-13
9.0073253065e-10
9.20933979308e-11
1.78771383863e-09
9.45016815444e-10
1.10207780931e-10
2.01620371754e-09
9.78385309948e-10
1.08750533523e-10
2.21098335322e-09
1.00625819239e-09
9.0328628147e-11
2.36723675975e-09
1.02806998776e-09
5.88503647344e-11
2.48138202014e-09
1.04375926387e-09
1.92411485193e-11
2.55094996637e-09
1.0531989127e-09
-2.30332648237e-11
2.57438390024e-09
1.056315139e-09
-6.25675164943e-11
2.55087637857e-09
1.05308362476e-09
-9.3899487332e-11
2.48123724598e-09
1.04352661999e-09
-1.12109403403e-10
2.36702695092e-09
1.02771557604e-09
-1.13296756117e-10
2.21072059699e-09
1.00577543944e-09
-9.48608540195e-11
2.01591144601e-09
9.77766399615e-10
-5.56663332372e-11
1.78739272511e-09
9.44232938642e-10
1.53044524082e-09
-2.23696168061e-12
8.99820344953e-10
2.38833553643e-12
-1.34440523803e-11
2.65585867473e-10
-2.5577480937e-15
3.99306854402e-12
-1.51958839799e-11
2.94421138423e-10
4.87583261936e-12
-1.70291379187e-11
3.22218444014e-10
4.94593671291e-12
-1.85988634806e-11
3.4751919081e-10
4.20081476262e-12
-1.99092497225e-11
3.68872130038e-10
2.78064735718e-12
-2.08926744652e-11
3.85084262395e-10
9.18249985707e-13
-2.15046785139e-11
3.95350877699e-10
-1.09843384034e-12
-2.17151193053e-11
3.99036714595e-10
-2.95179174844e-12
-2.14910637497e-11
3.95344853242e-10
-4.35694345187e-12
-2.08727046676e-11
3.85072200103e-10
-5.08926769621e-12
-1.98935304454e-11
3.68853921869e-10
-5.01458453405e-12
-1.85881515301e-11
3.47494462804e-10
-4.11460686427e-12
-1.69990167474e-11
3.22186206959e-10
-2.49376531804e-12
-1.51709510704e-11
2.94377666418e-10
-1.34210877519e-11
2.65519021448e-10
-7.89650122451e-14
5.80957960421e-12
-1.17097511901e-11
7.18295920016e-10
-8.32878097462e-16
1.00233097954e-11
-1.29442371229e-11
7.95545334345e-10
1.23907394845e-11
-1.40985972535e-11
8.69879930584e-10
1.26461178175e-11
-1.47731759249e-11
9.37428259258e-10
1.07831300793e-11
-1.51560896337e-11
9.94370368448e-10
7.14670997376e-12
-1.53503060123e-11
1.03756804472e-09
2.33967608416e-12
-1.54323128849e-11
1.06489896969e-09
-2.87580359592e-12
-1.54483879533e-11
1.07468857586e-09
-7.66124689729e-12
-1.54030023667e-11
1.06488118401e-09
-1.12613105919e-11
-1.53036537339e-11
1.03753250343e-09
-1.3088919121e-11
-1.51103351965e-11
9.94316842634e-10
-1.28066738059e-11
-1.47323954757e-11
9.37355821915e-10
-1.03936594975e-11
-1.40326111748e-11
8.69785866922e-10
-6.12252436686e-12
-1.28777172322e-11
7.95419573411e-10
-1.16592172583e-11
7.18112282511e-10
-2.38578165745e-13
8.19908517633e-12
1.357145885e-11
1.09405980884e-09
3.82883762333e-15
1.43947220139e-11
1.59129753712e-11
1.21231074364e-09
1.79341811614e-11
1.87291691947e-11
1.32588126503e-09
1.83795356432e-11
2.20761455772e-11
1.42894919563e-09
1.57119981281e-11
2.53516930415e-11
1.51576042041e-09
1.041832211e-11
2.80624567254e-11
1.58157853354e-09
3.3816509755e-12
2.98581187963e-11
1.62318311064e-09
-4.26323104858e-12
3.05123116408e-11
1.63804837217e-09
-1.126975075e-11
2.98979193785e-11
1.62315462723e-09
-1.65116652094e-11
2.81284498082e-11
1.5815216654e-09
-1.91232362843e-11
2.5422943189e-11
1.51567494979e-09
-1.86242379698e-11
2.21464171414e-11
1.42883400223e-09
-1.50099485998e-11
1.8824551002e-11
1.32573280561e-09
-8.71706486563e-12
1.60123077161e-11
1.21211543479e-09
1.36357428471e-11
1.09378297807e-09
-3.99691966331e-13
9.96290410244e-12
5.66823811345e-11
1.40295433491e-09
8.20394795924e-15
1.76989800893e-11
6.46627316757e-11
1.55611303374e-09
2.21843144501e-11
7.36530653004e-11
1.70285062639e-09
2.28133533475e-11
8.31001317535e-11
1.83581182504e-09
1.95430613394e-11
9.18224610957e-11
1.94768744064e-09
1.29613071329e-11
9.88097898477e-11
2.03244708501e-09
4.17053341174e-12
1.03348523531e-10
2.08596932772e-09
-5.39134229291e-12
1.04975353703e-10
2.10504431656e-09
-1.41457605836e-11
1.03393909827e-10
2.08593149583e-09
-2.06634202309e-11
9.88880612323e-11
2.03237164408e-09
-2.38575848537e-11
9.19145328926e-11
1.94757435801e-09
-2.31464565637e-11
8.31970608101e-11
1.83566023376e-09
-1.85549730215e-11
7.37699263764e-11
1.7026571912e-09
-1.06863654318e-11
6.4779328896e-11
1.55586322838e-09
5.675451574e-11
1.40261028064e-09
-5.64704211966e-13
1.13832108407e-11
1.11461832632e-10
1.64935166875e-09
1.09374244391e-14
2.03519024836e-11
1.26128446209e-10
1.8318221008e-09
2.55958615352e-11
1.42357183112e-10
2.00612380005e-09
2.63757748695e-11
1.58856254101e-10
2.16376038632e-09
2.2621967978e-11
1.7379512475e-10
2.29622734853e-09
1.4997988819e-11
1.85622622883e-10
2.39649308526e-09
4.78203390121e-12
1.9324992018e-10
2.45972995437e-09
-6.33854672176e-12
1.95967553246e-10
2.48220695113e-09
-1.6512787438e-11
1.93297999552e-10
2.45968397472e-09
-2.40611200147e-11
1.85707737773e-10
2.39640156989e-09
-2.7718726057e-11
1.73899993677e-10
2.29609070178e-09
-2.68280700428e-11
1.589702378e-10
2.16357851712e-09
-2.14456686236e-11
1.42487114255e-10
2.00589456759e-09
-1.23111938723e-11
1.26248120226e-10
1.83153155588e-09
1.11535280184e-10
1.64896130961e-09
-7.32365352478e-13
1.26693299286e-11
1.71493414823e-10
1.83731785302e-09
1.19722182052e-14
2.26673145203e-11
1.92933005606e-10
2.0439363152e-09
2.85173305499e-11
2.16386690901e-10