/*--------------------------------*- C++ -*----------------------------------*\
  =========                 |
  \\      /  F ield         | OpenFOAM: The Open Source CFD Toolbox
   \\    /   O peration     | Website:  https://openfoam.org
    \\  /    A nd           | Version:  7
     \\/     M anipulation  |
\*---------------------------------------------------------------------------*/
FoamFile
{
    version     2.0;
    format      ascii;
    class       surfaceScalarField;
    location    "1.22";
    object      phi;
}
// * * * * * * * * * * * * * * * * * * * * * * * * * * * * * * * * * * * * * //

dimensions      [0 3 -1 0 0 0 0];

internalField   nonuniform List<scalar> 
65775
(
-1.50722738601e-11
-7.27220407078e-09
1.91204872193e-10
2.36209238279e-13
-3.05741687412e-11
-7.66702057873e-09
2.19159069145e-10
-3.52326321712e-11
-8.03782490996e-09
2.48607776176e-10
-3.30174687608e-11
-8.35760410063e-09
2.76954591578e-10
-2.69520873908e-11
-8.61594904455e-09
3.0185701953e-10
-1.86964950168e-11
-8.8064230909e-09
3.21282103574e-10
-9.26653401723e-12
-8.92621932832e-09
3.33726306313e-10
6.16154519722e-13
-8.97073783013e-09
3.38124756379e-10
1.02047966815e-11
-8.92621437766e-09
3.33660662018e-10
1.87854056087e-11
-8.80640357645e-09
3.21146433916e-10
2.53250601725e-11
-8.61589343098e-09
3.01646905535e-10
2.81435405138e-11
-8.35749525808e-09
2.76662675627e-10
2.41844409407e-11
-8.03769340243e-09
2.48221621014e-10
9.50536450019e-12
-7.6669305658e-09
2.18658838708e-10
-7.27242302763e-09
1.90573367538e-10
-4.2046898647e-12
-6.21587234668e-11
-1.387027449e-08
-9.9577811797e-11
-5.98935271527e-13
-1.09282745075e-10
-1.46228838397e-08
-1.23639045809e-10
-1.25151027034e-10
-1.53338663821e-08
-1.43209426162e-10
-1.19310762968e-10
-1.59418349067e-08
-1.58887856353e-10
-9.85837818749e-11
-1.64302940654e-08
-1.70994269186e-10
-6.80691868717e-11
-1.67888404122e-08
-1.7970434327e-10
-3.18654615282e-11
-1.70137165755e-08
-1.85075620763e-10
6.29804568577e-12
-1.70971287891e-08
-1.87030169304e-10
4.30402609027e-11
-1.70139352261e-08
-1.85234003199e-10
7.46616114299e-11
-1.67892645976e-08
-1.80039305198e-10
9.7057932007e-11
-1.64308666576e-08
-1.71523425698e-10
1.05059684517e-10
-1.59424570949e-08
-1.59639345317e-10
9.17337983641e-11
-1.53344990003e-08
-1.44227488908e-10
4.74964913089e-11
-1.4623641164e-08
-1.24988471008e-10
-1.38714724776e-08
-1.01309031337e-10
-1.20762029406e-11
-1.27365633164e-10
-1.93328770687e-08
-8.34952880994e-10
2.45915362815e-13
-2.06396160091e-10
-2.03574076617e-08
-9.75840764182e-10
-2.35972097454e-10
-2.13125049392e-08
-1.10757865244e-09
-2.26931235228e-10
-2.2121652234e-08
-1.22486605816e-09
-1.88227544224e-10
-2.27672223882e-08
-1.32260877272e-09
-1.28202372925e-10
-2.3238569672e-08
-1.39635924469e-09
-5.52338527283e-11
-2.35333482091e-08
-1.44281284961e-09
2.20406641263e-11
-2.36426978192e-08
-1.45934131389e-09
9.55520889545e-11
-2.35337260473e-08
-1.44307328126e-09
1.56695540198e-10
-2.32393066382e-08
-1.39690238988e-09
1.97102121012e-10
-2.27682458271e-08
-1.32345562584e-09
2.08414195822e-10
-2.21228498286e-08
-1.22605011375e-09
1.81640823717e-10
-2.13138087021e-08
-1.10915537611e-09
1.06033261759e-10
-2.03590163858e-08
-9.77898633628e-10
-1.93350879273e-08
-8.37569217415e-10
-1.70498644476e-11
-2.00050955112e-10
-2.34444268056e-08
-1.77785929911e-09
4.79205694974e-13
-3.1512955924e-10
-2.46409757326e-08
-2.05369105561e-09
-3.61789431476e-10
-2.57305996775e-08
-2.31192252228e-09
-3.50521893862e-10
-2.66455812854e-08
-2.54151057465e-09
-2.9176959585e-10
-2.73708942833e-08
-2.73223621568e-09
-1.97134037703e-10
-2.78982069303e-08
-2.87558852807e-09
-8.01830967184e-11
-2.82273825429e-08
-2.9655613704e-09
4.41716445643e-11
-2.83496644841e-08
-2.99744657542e-09
1.61611076376e-10
-2.82278316614e-08
-2.96585922731e-09
2.57261459271e-10
-2.78990914077e-08
-2.87621019063e-09
3.17585650228e-10
-2.73721356879e-08
-2.73320891925e-09
3.31009258097e-10
-2.66470729006e-08
-2.54287661681e-09
2.87106546331e-10
-2.5732286624e-08
-2.31374979348e-09
1.75501259515e-10
-2.4643155046e-08
-2.05608976428e-09
-2.34474516132e-08
-1.78093927891e-09
-1.98053172505e-11
-2.7252815651e-10
-2.61912183175e-08
-2.73435829534e-09
4.13596649326e-13
-4.27395782411e-10
-2.74707212773e-08
-3.13053965678e-09
-4.92962424885e-10
-2.86047969215e-08
-3.49763960278e-09
-4.79740123562e-10
-2.95501036626e-08
-3.82127932894e-09
-3.99860516655e-10
-3.02960118e-08
-4.08815861146e-09
-2.68534911997e-10
-3.08370609039e-08
-4.28753629923e-09
-1.04910280289e-10
-3.11746274446e-08
-4.41214161484e-09
6.94267748577e-11
-3.13002559859e-08
-4.45619467532e-09
2.33464920489e-10
-3.11750993439e-08
-4.4124403615e-09
3.65657777426e-10
-3.08379960588e-08
-4.28816070168e-09
4.46901641854e-10
-3.02973454197e-08
-4.08913978449e-09
4.62035289575e-10
-2.95517523719e-08
-3.82266485121e-09
3.98973863443e-10
-2.86067338245e-08
-3.49950381526e-09
2.47307669684e-10
-2.74732651137e-08
-3.13300525775e-09
-2.61948007886e-08
-2.73756179174e-09
-2.07291283996e-11
-3.39539323831e-10
-2.76971630866e-08
-3.57231799069e-09
2.37020044694e-13
-5.36034386768e-10
-2.89908870242e-08
-4.061414209e-09
-6.20900446973e-10
-3.01084845427e-08
-4.50972158229e-09
-6.05747394185e-10
-3.10345089613e-08
-4.90184194572e-09
-5.04889947158e-10
-3.17634202652e-08
-5.22316538683e-09
-3.37511118262e-10
-3.22919703284e-08
-5.4620607342e-09
-1.28306989808e-10
-3.26218875578e-08
-5.61087251839e-09
9.47595554961e-11
-3.27448081245e-08
-5.6633861848e-09
3.04322488934e-10
-3.26223416767e-08
-5.61116227442e-09
4.72454316188e-10
-3.22928797695e-08
-5.46266514396e-09
5.74505071773e-10
-3.17647333299e-08
-5.22411471278e-09
5.91344168284e-10
-3.10361662139e-08
-4.90318200934e-09
5.08714391976e-10
-3.01104848658e-08
-4.51152373236e-09
3.15077266723e-10
-2.89935626615e-08
-4.06379998371e-09
-2.77010669482e-08
-3.57543868805e-09
-2.05121483116e-11
-3.99379762652e-10
-2.81483256747e-08
-4.23138761182e-09
5.91885355562e-14
-6.37264427466e-10
-2.9406044663e-08
-4.78789974646e-09
-7.40980351499e-10
-3.04699290543e-08
-5.29389971528e-09
-7.24011753724e-10
-3.13469177758e-08
-5.73410488938e-09
-6.03195498254e-10
-3.20368218082e-08
-6.09340393363e-09
-4.01872901749e-10
-3.25376272337e-08
-6.35975049181e-09
-1.50036271258e-10
-3.28504900701e-08
-6.52530044302e-09
1.18521068996e-10
-3.29670347084e-08
-6.58360290451e-09
3.70691556849e-10
-3.28509331588e-08
-6.52557721737e-09
5.72712326158e-10
-3.2538519413e-08
-6.36033112422e-09
6.94630028222e-10
-3.20381249328e-08
-6.09431517359e-09
7.13147014511e-10
-3.13485932541e-08
-5.73538513464e-09
6.11474226272e-10
-3.04719927039e-08
-5.295609338e-09
3.7617520007e-10
-2.94087947674e-08
-4.79015437401e-09
-2.81523948307e-08
-4.23433840542e-09
-1.97916718466e-11
-4.53012810644e-10
-2.77393467937e-08
-4.70206971111e-09
-6.0363022978e-14
-7.30725790637e-10
-2.89244166826e-08
-5.30777354693e-09
-8.5264191621e-10
-2.99120779918e-08
-5.85584822411e-09
-8.3412841291e-10
-3.07221940391e-08
-6.33129159728e-09
-6.94641527388e-10
-3.13600198223e-08
-6.71859180611e-09
-4.61707352848e-10
-3.18238973852e-08
-7.00527402777e-09
-1.70338586609e-10
-3.21138894408e-08
-7.18319569236e-09
1.40341477689e-10
-3.22217124637e-08
-7.24569388203e-09
4.32044013137e-10
-3.21143286731e-08
-7.18347311336e-09
6.65671933286e-10
-3.18247839504e-08
-7.00585646733e-09
8.06239712595e-10
-3.1361329293e-08
-6.71949688623e-09
8.26253327823e-10
-3.07239020305e-08
-6.33254493485e-09
7.06287114852e-10
-2.99142140791e-08
-5.85749371119e-09
4.31005775102e-10
-2.89272405945e-08
-5.30991179438e-09
-2.77435348378e-08
-4.70484079328e-09
-1.89938666584e-11
-5.02564670852e-10
-2.66472444011e-08
-4.99991518658e-09
-1.13334821202e-13
-8.18177027843e-10
-2.77323196558e-08
-5.64324201568e-09
-9.57852442443e-10
-2.86291796452e-08
-6.22396560966e-09
-9.38113138842e-10
-2.93613538059e-08
-6.72711754373e-09
-7.81015391245e-10
-2.99390588294e-08
-7.13665912611e-09
-5.18264637291e-10
-3.03601823266e-08
-7.43958841104e-09
-1.89707263813e-10
-3.06234707146e-08
-7.62735051357e-09
1.60561407634e-10
-3.07209964505e-08
-7.69308852918e-09
4.89469143243e-10
-3.06239248538e-08
-7.62763877913e-09
7.52942053517e-10
-3.03611017435e-08
-7.44018751068e-09
9.11150020328e-10
-2.99404334197e-08
-7.13757800548e-09
9.32405427487e-10
-2.93631710785e-08
-6.72836793704e-09
7.94666588002e-10
-2.86314717771e-08
-6.22557277685e-09
4.8143004146e-10
-2.77353064517e-08
-5.64528938025e-09
-2.66515599453e-08
-5.00252592446e-09
-1.83394424044e-11
-5.50199228176e-10
-2.50241634146e-08
-5.14756898645e-09
-9.92916186263e-14
-9.02252985413e-10
-2.59888235928e-08
-5.82111521191e-09
-1.05966018394e-09
-2.67848709598e-08
-6.42849513602e-09
-1.03889744912e-09
-2.74326706353e-08
-6.95449312596e-09
-8.6470347537e-10
-2.79457237632e-08
-7.382447811e-09
-5.73086033687e-10
-2.83206211027e-08
-7.69882297221e-09
-2.08659089888e-10
-2.85547937948e-08
-7.8946391909e-09
1.79751645031e-10
-2.8641007119e-08
-7.96291801393e-09
5.44555440262e-10
-2.85552816688e-08
-7.89494269184e-09
8.36942320176e-10
-2.83216140531e-08
-7.69944753145e-09
1.01230674217e-09
-2.79472213769e-08
-7.38339370055e-09
1.03464426174e-09
-2.74346760045e-08
-6.95575804144e-09
8.79214433446e-10
-2.67874164364e-08
-6.4300854605e-09
5.2955504507e-10
-2.59920948169e-08
-5.82309743757e-09
-2.50287147169e-08
-5.15004640953e-09
-1.79109952223e-11
-5.97650472777e-10
-2.29996160966e-08
-5.16597202104e-09
-3.97549822502e-14
-9.85831563083e-10
-2.38288806977e-08
-5.864357356e-09
-1.16139349701e-09
-2.45178695182e-08
-6.49388590949e-09
-1.13945773959e-09
-2.5079294779e-08
-7.03886927555e-09
-9.47942717982e-10
-2.55264417381e-08
-7.48202811054e-09
-6.27534532465e-10
-2.58537969988e-08
-7.80940442946e-09
-2.27613484747e-10
-2.60577252991e-08
-8.01167869864e-09
1.98449961672e-10
-2.61321379733e-08
-8.08187021214e-09
5.98779614125e-10
-2.6058271536e-08
-8.01199899473e-09
9.20018072766e-10
-2.58549105053e-08
-7.81005800661e-09
1.11278164161e-09
-2.55281375435e-08
-7.48300734122e-09
1.13637860131e-09
-2.5081582784e-08
-7.0401586153e-09
9.62870041249e-10
-2.45207841898e-08
-6.49547340379e-09
5.77144279572e-10
-2.38325748673e-08
-5.86629337115e-09
-2.30045242994e-08
-5.16833966194e-09
-1.77150359897e-11
-6.46195678605e-10
-2.06853088928e-08
-5.07159260428e-09
5.48169118824e-14
-1.07208699056e-09
-2.13682355466e-08
-5.79027225281e-09
-1.26637056038e-09
-2.19488655344e-08
-6.43802688901e-09
-1.24229571502e-09
-2.2427013774e-08
-6.99842861256e-09
-1.03236022179e-09
-2.28102418251e-08
-7.45369113949e-09
-6.82501070504e-10
-2.30906882242e-08
-7.78965102162e-09
-2.46824323453e-10
-2.32644557776e-08
-7.99679529335e-09
2.17027145323e-10
-2.33270476543e-08
-8.068281479e-09
6.53149558372e-10
-2.32650900808e-08
-7.99713165803e-09
1.00390749633e-09
-2.3091982986e-08
-7.79033292981e-09
1.21518732196e-09
-2.28122141453e-08
-7.45470448527e-09
1.2410295475e-09
-2.24296901796e-08
-6.99974616363e-09
1.04890373908e-09
-2.19522792369e-08
-6.43961888372e-09
6.2556118763e-10
-2.13725125683e-08
-5.79217218266e-09
-2.06907400386e-08
-5.07386489704e-09
-1.77125459521e-11
-6.98364340939e-10
-1.81783574841e-08
-4.87652193317e-09
1.65465849226e-13
-1.16593992928e-09
-1.87076031069e-08
-5.6115115905e-09
-1.37779597789e-09
-1.91872278052e-08
-6.27396083151e-09
-1.34876266247e-09
-1.95903287567e-08
-6.84631241276e-09
-1.1183608002e-09
-1.99139407106e-08
-7.31056987419e-09
-7.38068835509e-10
-2.01495320124e-08
-7.65267525124e-09
-2.6625933915e-10
-2.02941556476e-08
-7.86309558925e-09
2.35549643809e-10
-2.03453618439e-08
-7.93526480891e-09
7.07845706698e-10
-2.02949143808e-08
-7.86344524538e-09
1.08911904293e-09
-2.01510719212e-08
-7.65338100729e-09
1.32097155886e-09
-1.99162926226e-08
-7.3116132281e-09
1.35189836026e-09
-1.95935139147e-08
-6.84765703991e-09
1.14232762616e-09
-1.91912791226e-08
-6.27555977141e-09
6.77421320923e-10
-1.87126370808e-08
-5.61337662589e-09
-1.81845156092e-08
-4.8786968743e-09
-1.78032928472e-11
-7.65169436797e-10
-1.55561115428e-08
-4.58946827654e-09
3.04513458974e-13
-1.27655698328e-09
-1.59396211431e-08
-5.33798551918e-09
-1.49845544928e-09
-1.63383924345e-08
-6.01198147957e-09
-1.45884039647e-09
-1.66762720749e-08
-6.59280113562e-09
-1.20537848747e-09
-1.69446969279e-08
-7.0629232101e-09
-7.93792427287e-10
-1.71381079698e-08
-7.40875044221e-09
-2.85763843121e-10
-1.72554793867e-08
-7.62088158272e-09
2.53943378483e-10
-1.7296097019e-08
-7.69314087934e-09
7.625075301e-10
-1.72564028369e-08
-7.6212393866e-09
1.17515953937e-09
-1.71399779676e-08
-7.40947104096e-09
1.43019931452e-09
-1.69475320684e-08
-7.06398634539e-09
1.47185174529e-09
-1.66800979917e-08
-6.59416579145e-09
1.25237763008e-09
-1.63432391569e-08
-6.01358621011e-09
7.43792971425e-10
-1.59456006857e-08
-5.33981196693e-09
-1.55632226868e-08
-4.5915238843e-09
-1.80185780326e-11
-8.79780588098e-10
-4.21558209203e-09
4.34933072084e-13
-1.28576038927e-08
-1.4185443546e-09
-4.97802763221e-09
-1.31671632719e-08
-1.63820210828e-09
-5.66016797724e-09
-1.35045072734e-08
-1.5825341519e-09
-6.24608145065e-09
-1.3783515581e-08
-1.30273393764e-09
-6.71929622703e-09
-1.40017496414e-08
-8.56277997736e-10
-7.06680765824e-09
-1.41580600248e-08
-3.07659368692e-10
-7.27936305575e-09
-1.4252065624e-08
2.74596887969e-10
-7.35122427734e-09
-1.42837424247e-08
8.23796461068e-10
-7.27971994911e-09
-1.42531982029e-08
1.27141154541e-09
-7.06752595406e-09
-1.41603480421e-08
1.5529168585e-09
-6.72035603745e-09
-1.40052075239e-08
1.61077751676e-09
-6.24744280171e-09
-1.37881556473e-08
1.39372608976e-09
-5.66176164326e-09
-1.35103363484e-08
8.57914963606e-10
-4.97982726417e-09
-1.31742782806e-08
-4.21744438187e-09
-1.82757106773e-11
-1.28659758798e-08
-2.30138421859e-11
7.85191771859e-10
-5.71059547834e-10
-3.99062590939e-13
-3.81877387548e-11
8.67345039311e-10
-6.33798734639e-10
-4.47716959259e-11
9.46590180588e-10
-6.92283423521e-10
-4.4195237823e-11
1.0198886487e-09
-7.44319133153e-10
-3.68888085657e-11
1.08150256782e-09
-7.87561857736e-10
-2.41907725717e-11
1.1282370181e-09
-8.20066949983e-10
-7.96765247192e-12
1.15779329029e-09
-8.40559803328e-10
9.48692946698e-12
1.1684189671e-09
-8.47941218672e-10
2.56893931978e-11
1.15789207569e-09
-8.40585008149e-10
3.83659643877e-11
1.12845397818e-09
-8.20116146221e-10
4.56855144278e-11
1.08184053583e-09
-7.87632364123e-10
4.63220884786e-11
1.02031943605e-09
-7.44408572835e-10
3.9802588112e-11
9.47023494231e-10
-6.92392108474e-10
2.459165497e-11
8.67699233207e-10
-6.33936607404e-10
7.85435429809e-10
-5.71263027456e-10
8.92537227402e-13
-4.2558024038e-11
2.18521320642e-09
-1.45813654699e-09
2.5466024943e-13
-7.01567548469e-11
2.38346647533e-09
-1.61348407042e-09
-8.27774470956e-11
2.57168670195e-09
-1.75716293779e-09
-8.13827193265e-11
2.74237526515e-09
-1.8840854868e-09
-6.74356805641e-11
2.88455409276e-09
-1.98897432111e-09
-4.35391040964e-11
2.99147556719e-09
-2.06750367965e-09
-1.321283734e-11
3.05884436829e-09
-2.11689505234e-09
1.93445335826e-11
3.08318059835e-09
-2.13467213995e-09
4.95195139102e-11
3.05921053552e-09
-2.11698336737e-09
7.31220745738e-11
2.99226249674e-09
-2.06767360429e-09
8.66564057627e-11
2.88579472411e-09
-1.98921534445e-09
8.75773540295e-11
2.74395210125e-09
-1.8843861683e-09
7.43962332967e-11
2.5733101885e-09
-1.75751765063e-09
4.60955283905e-11
2.38475055639e-09
-1.61391328259e-09
2.18593247859e-09
-1.4587173605e-09
2.843150907e-12
-4.25843216541e-11
3.58958475179e-09
-2.19674780101e-09
-7.8420270726e-13
-7.07517961127e-11
3.86627461775e-09
-2.43157005946e-09
-8.46714870113e-11
4.12483964361e-09
-2.64799410576e-09
-8.37613635323e-11
4.35412403108e-09
-2.83857280688e-09
-6.95888415149e-11
4.5426291687e-09
-2.99566008786e-09
-4.48511123648e-11
4.68284554422e-09
-3.11303013694e-09
-1.32780963069e-11
4.77076755561e-09
-3.18669394079e-09
2.0728365648e-11
4.80266541362e-09
-3.21311141837e-09
5.22257328882e-11
4.77120952265e-09
-3.18678929332e-09
7.68345366571e-11
4.68377863826e-09
-3.11321772359e-09
9.08612815427e-11
4.54407070583e-09
-2.99593249986e-09
9.16072571536e-11
4.35591452516e-09
-2.83892478128e-09
7.73895589437e-11
4.12664429765e-09
-2.64843019345e-09
4.85607022418e-11
3.86765947992e-09
-2.43212976149e-09
3.59031459594e-09
-2.19754078332e-09
4.01446297987e-12
-3.19399676712e-11
4.68048073506e-09
-2.8361651133e-09
-1.38067705493e-12
-5.35892397668e-11
4.97688662376e-09
-3.14368798077e-09
-6.55000888669e-11
5.2501359511e-09
-3.42643367464e-09
-6.55875160755e-11
5.48658686523e-09
-3.67487554983e-09
-5.47069160089e-11
5.67804104412e-09
-3.8792847851e-09
-3.49443746133e-11
5.81874967332e-09
-4.03178451411e-09
-9.36359841963e-12
5.90657812315e-09
-4.12732316461e-09
1.83537742612e-11
5.93869681286e-09
-4.16146591594e-09
4.38996553121e-11
5.90701399399e-09
-4.12742724501e-09
6.36113968871e-11
5.81966175572e-09
-4.03199149613e-09
7.44523419777e-11
5.67943751064e-09
-3.87958896579e-09
7.42982915919e-11
5.48830433796e-09
-3.67527509069e-09
6.21354723809e-11
5.25184057419e-09
-3.42693848139e-09
3.97594716948e-11
4.97814948392e-09
-3.14434625746e-09
4.68103353838e-09
-2.83710049299e-09
5.06723541491e-12
-1.57144094938e-11
5.33923173633e-09
-3.3762955693e-09
-1.76489766196e-12
-2.83876839532e-11
5.60790130711e-09
-3.74972066007e-09
-3.71988887079e-11
5.8528142926e-09
-4.09237789257e-09
-3.87864512717e-11
6.05908105828e-09
-4.39295581683e-09
-3.28723836636e-11
6.22328682734e-09
-4.63991544975e-09
-2.05836967384e-11
6.34243050482e-09
-4.82394514903e-09
-3.96959522173e-12
6.41656086222e-09
-4.93904993038e-09
1.4312677561e-11
6.44402856182e-09
-4.98004215979e-09
3.09215548259e-11
6.41694644422e-09
-4.93916560098e-09
4.320849433e-11
6.34323008054e-09
-4.82417599153e-09
4.91287693504e-11
6.22448638213e-09
-4.64025556524e-09
4.7493578786e-11
6.0605382903e-09
-4.39340336695e-09
3.84016916533e-11
5.85423970831e-09
-4.09294280107e-09
2.49224075522e-11
5.60895139614e-09
-3.75045226898e-09
5.33965186385e-09
-3.37731905441e-09
5.95364168396e-12
2.46093280085e-12
5.58476400179e-09
-3.81890088933e-09
-2.00655147805e-12
-1.17811508223e-12
5.80123695184e-09
-4.25187054649e-09
-6.78199053592e-12
5.99643664627e-09
-4.64854205375e-09
-1.0061928374e-11
6.1558709706e-09
-4.99605724741e-09
-9.54868828387e-12
6.28034454446e-09
-5.28129034634e-09
-5.32708340479e-12
6.36939624335e-09
-5.49365459042e-09
1.63196090922e-12
6.4247187429e-09
-5.62628591872e-09
9.75254870152e-12
6.44564829964e-09
-5.6733512248e-09
1.67282979723e-11
6.42504585014e-09
-5.62641670669e-09
2.09766928189e-11
6.37007582481e-09
-5.49391528997e-09
2.15131541303e-11
6.28136471435e-09
-5.28167294521e-09
1.81725648499e-11
6.15711742352e-09
-4.99655658534e-09
1.22459380919e-11
5.99767766895e-09
-4.64916336104e-09
7.74895096035e-12
5.80219509583e-09
-4.25266164044e-09
5.58517075256e-09
-3.81997879674e-09
6.65576136268e-12
2.02134719201e-11
5.50192360649e-09
-4.16714918564e-09
-2.14816409084e-12
2.48457864826e-11
5.66195236476e-09
-4.65385894823e-09
2.2300903037e-11
5.80366928488e-09
-5.09920910296e-09
1.7444700829e-11
5.91506905561e-09
-5.48899017296e-09
1.27984794404e-11
5.99981764022e-09
-5.80866924266e-09
9.25962170384e-12
6.05936491965e-09
-6.04651404005e-09
6.90008963452e-12
6.09637266572e-09
-6.19484871576e-09
5.19762627978e-12
6.11084578428e-09
-6.24729206822e-09
2.87116041276e-12
6.09664234656e-09
-6.19500570911e-09
-6.24847816299e-13
6.05992462088e-09
-6.04682020223e-09
-5.24913561235e-12
6.00065866386e-09
-5.8091113927e-09
-1.01929760733e-11
5.91611322223e-09
-5.48955638719e-09
-1.31015884646e-11
5.80476261036e-09
-5.09989609239e-09
-9.35257481355e-12
5.66289369767e-09
-4.65470599113e-09
5.50248050297e-09
-4.16826080422e-09
7.17200854088e-12
3.6200683976e-11
5.18990277077e-09
-4.42449252847e-09
-2.21221211991e-12
4.82752553558e-11
5.3010741999e-09
-4.95949590176e-09
4.86413735766e-11
5.3953898482e-09
-5.44847265941e-09
4.25006968357e-11
5.46549162287e-09
-5.87605425211e-09
3.32240123955e-11
5.5166049291e-09
-6.22649206889e-09
2.25910006523e-11
5.55147237205e-09
-6.48705147584e-09
1.16508843139e-11
5.57320181414e-09
-6.64931832197e-09
8.77505714883e-13
5.582204427e-09
-6.70646130942e-09
-1.0021884267e-11
5.57341848679e-09
-6.64949888606e-09
-2.06103376894e-11
5.55192510267e-09
-6.48739804411e-09
-2.98805672777e-11
5.51729943868e-09
-6.2269879792e-09
-3.61398341977e-11
5.46639445264e-09
-5.87668011685e-09
-3.61710866526e-11
5.39640904256e-09
-5.4492146132e-09
-2.49755746723e-11
5.30207881361e-09
-4.9603854126e-09
5.19068040008e-09
-4.42562435713e-09
7.51205963183e-12
4.97722639454e-11
4.73583653217e-09
-4.59380446668e-09
-2.22863107578e-12
6.8604682646e-11
4.81025570059e-09
-5.17167976545e-09
7.17864301666e-11
4.86702011526e-09
-5.6991978501e-09
6.47280831051e-11
4.90510935712e-09
-6.16004947774e-09
5.14421293173e-11
4.9303917259e-09
-6.537470295e-09
3.44989820476e-11
4.94646266093e-09
-6.81788710289e-09
1.5849588293e-11
4.95654656094e-09
-6.9922454606e-09
-3.10313898244e-12
4.96129017034e-09
-7.05338358263e-09
-2.17135083094e-11
4.95670612801e-09
-6.9924483011e-09
-3.86228429904e-11
4.94680523823e-09
-6.81827601492e-09
-5.19284818991e-11
4.93094149987e-09
-6.53802291194e-09
-5.91437018339e-11
4.90587720064e-09
-6.16073720818e-09
-5.63870801754e-11
4.86798230017e-09
-5.6999950359e-09
-3.84200510123e-11
4.81134463103e-09
-5.17260967456e-09
4.73690861445e-09
-4.59495129535e-09
7.70412231646e-12
6.0781610146e-11
4.2064910074e-09
-4.67713328898e-09
-2.20892289774e-12
8.57801050211e-11
4.25607040663e-09
-5.29227078534e-09
9.17102800916e-11
4.28531525618e-09
-5.85306395375e-09
8.41062258837e-11
4.30039658559e-09
-6.34248684896e-09
6.74391379218e-11
4.30730463911e-09
-6.74295892585e-09
4.49840041682e-11
4.31012552973e-09
-7.04024696517e-09
1.9515851273e-11
4.31196973231e-09
-7.22477282205e-09
-6.69789173038e-12
4.31361949445e-09
-7.28917680348e-09
-3.21364694117e-11
4.31207911605e-09
-7.22499856326e-09
-5.45800379902e-11
4.31037388138e-09
-7.04067934173e-09
-7.13021574523e-11
4.30773970537e-09
-6.74356968148e-09
-7.91043028887e-11
4.30106558697e-09
-6.34323782638e-09
-7.36252057588e-11
4.28624853938e-09
-5.85391735045e-09
-4.94669342087e-11
4.25725610472e-09
-5.29324208159e-09
4.20784018232e-09
-4.67829459994e-09
7.77141449179e-12
6.93850425344e-11
3.64888797765e-09
-4.67588083679e-09
-2.17747035665e-12
9.9989497612e-11
3.68327003976e-09
-5.32243937861e-09
1.0862258505e-10
3.69364459771e-09
-5.911119085e-09
1.00830694544e-10
3.69340466057e-09
-6.42433122766e-09
8.13763455926e-11
3.68836841241e-09
-6.84384740425e-09
5.4155008659e-11
3.68271691585e-09
-7.15495739682e-09
2.27065000446e-11
3.67927641129e-09
-7.34768736249e-09
-9.90624154761e-12
3.67885103363e-09
-7.41461687826e-09
-4.13415227307e-11
3.67934422869e-09
-7.34793592331e-09
-6.85816939013e-11
3.68289114417e-09
-7.15543332197e-09
-8.81357195875e-11
3.68871263905e-09
-6.84451694241e-09
-9.61709468082e-11
3.69400437823e-09
-6.42514695133e-09
-8.80146799899e-11
3.69457372705e-09
-5.91203112297e-09
-5.82288020604e-11
3.68456055942e-09
-5.32345592959e-09
3.65052739529e-09
-4.67706041078e-09
7.74531507057e-12
7.5880439649e-11
3.09443503433e-09
-4.59112860612e-09
-2.13563188829e-12
1.11597166807e-10
3.12023274958e-09
-5.26316787133e-09
1.22963824343e-10
3.11848766009e-09
-5.87444727814e-09
1.15323695642e-10
3.10918996552e-09
-6.40676684968e-09
9.35877901628e-11
3.09762315243e-09
-6.84138002822e-09
6.22332383411e-11
3.08758658226e-09
-7.16329820157e-09
2.55067754317e-11
3.08137620188e-09
-7.3622921198e-09
-1.27741555859e-11
3.07977482857e-09
-7.43101809866e-09
-4.95086512585e-11
3.0814178638e-09
-7.36256276741e-09
-8.09221094855e-11
3.08771388041e-09
-7.16381685786e-09
-1.02806184306e-10
3.09792161807e-09
-6.84210853752e-09
-1.10738130861e-10
3.1097649272e-09
-6.40764950946e-09
-9.98761393271e-11
3.11944589806e-09
-5.87542219138e-09
-6.49560152046e-11
3.12164429283e-09
-5.26423537305e-09
3.09633525638e-09
-4.5923331003e-09
7.64345719681e-12
8.06589100666e-11
2.5630401172e-09
-4.42391343683e-09
-2.1017730761e-12
1.21357355691e-10
2.58362328663e-09
-5.1157787798e-09
1.35665703868e-10
2.5748538552e-09
-5.74480714958e-09
1.28425386504e-10
2.56178589347e-09
-6.29181379015e-09
1.0471320426e-10
2.54837629513e-09
-6.73772860477e-09
6.95986306566e-11
2.53745065016e-09
-7.06754322092e-09
2.80591133344e-11
2.53067329419e-09
-7.27092860769e-09
-1.54210472582e-11
2.52865359964e-09
-7.34074973528e-09
-5.69955773794e-11
2.53071095119e-09
-7.27121963447e-09
-9.22116778485e-11
2.53757641458e-09
-7.06810228117e-09
-1.16128865147e-10
2.54867628579e-09
-6.73851513525e-09
-1.23711157532e-10
2.56238977202e-09
-6.29276592381e-09
-1.09934203882e-10
2.5758986731e-09
-5.74585079027e-09
-7.00234375353e-11
2.58520095166e-09
-5.11690225075e-09
2.56523572561e-09
-4.42514551583e-09
7.47723517953e-12
8.44834101214e-11
2.06635668018e-09
-4.17538483806e-09
-2.0686686291e-12
1.30939625714e-10
2.08173427242e-09
-4.8826903129e-09
1.48561507612e-10
2.07043447221e-09
-5.52530532951e-09
1.41640263898e-10
2.05856350356e-09
-6.08278454122e-09
1.15807755883e-10
2.04749269883e-09
-6.53632003895e-09
7.69065083123e-11
2.03874450496e-09
-6.87121879689e-09
3.0565043796e-11
2.03324495614e-09
-7.07719978341e-09
-1.80383657665e-11
2.03150995193e-09
-7.1474476728e-09
-6.44433606295e-11
2.03331049887e-09
-7.07750761549e-09
-1.03499694458e-10
2.0389252555e-09
-6.8718125646e-09
-1.29590943788e-10
2.04787809936e-09
-6.53715983379e-09
-1.36898765962e-10
2.05927945849e-09
-6.08380669259e-09
-1.19834235799e-10
2.07161793327e-09
-5.52642504488e-09
-7.41539306322e-11
2.08353488284e-09
-4.88387323958e-09
2.06889746865e-09
-4.17663469756e-09
7.24978958033e-12
8.46560846076e-11
-3.84898475467e-09
-2.04111110283e-12
1.61698772559e-09
1.41878533418e-10
-4.5707915896e-09
1.61716367217e-09
1.63394830919e-10
-5.22207140776e-09
1.61070142696e-09
1.56481669019e-10
-5.78513373784e-09
1.60443891563e-09
1.2813904096e-10
-6.24218683189e-09
1.59863350121e-09
8.49810289479e-11
-6.57911419472e-09
1.5941176796e-09
3.33437078351e-11
-6.78577251496e-09
1.591226036e-09
-2.09479413559e-11
-6.85574581483e-09
1.5902520662e-09
-7.26751246966e-11
-6.78608919046e-09
1.5913634627e-09
-1.16035737489e-10
-6.57972812272e-09
1.59442554486e-09
-1.44692051303e-10
-6.24306212322e-09
1.59918962464e-09
-1.52041576341e-10
-5.78621203675e-09
1.60534736984e-09
-1.3108603295e-10
-5.22326301604e-09
1.61211567868e-09
-7.46140360769e-11
-4.57205536101e-09
1.61924492483e-09
-3.85019140368e-09
6.97144738513e-12
1.62001736134e-09
1.3986614969e-11
-1.77087828859e-10
-4.08172037004e-10
-1.92758636151e-13
2.19396739326e-11
-1.97076815151e-10
-4.45203271842e-10
2.54728115207e-11
-2.17807065936e-10
-4.78602090567e-10
2.49546190012e-11
-2.36715018944e-10
-5.07614038093e-10
2.0782583202e-11
-2.52609965254e-10
-5.31276102958e-10
1.37042559785e-11
-2.64590172548e-10
-5.48819518627e-10
4.73939294437e-12
-2.72098891167e-10
-5.59804483341e-10
-4.89420491519e-12
-2.74730796586e-10
-5.63788832583e-10
-1.38310206141e-11
-2.71977626922e-10
-5.59817629621e-10
-2.08556912274e-11
-2.64356280566e-10
-5.48846447508e-10
-2.49696723182e-11
-2.52290697122e-10
-5.31317857044e-10
-2.54482313479e-11
-2.36339003676e-10
-5.07672674664e-10
-2.18693534201e-11
-2.17363603266e-10
-4.78682402996e-10
-1.38888258535e-11
-1.96669152889e-10
-4.45319997811e-10
-1.76812643436e-10
-4.08366584366e-10
-4.0532029676e-14
3.23313537231e-11
-3.88646190669e-10
-1.27833136167e-09
-1.26820940925e-12
5.16636122304e-11
-4.27260825041e-10
-1.40357152222e-09
6.03178323931e-11
-4.66712519168e-10
-1.51793505442e-09
5.90930847076e-11
-5.0241609087e-10
-1.61808999773e-09
4.90683681348e-11
-5.32070543635e-10
-1.70031324277e-09
3.20996018531e-11
-5.54226221822e-10
-1.76156955762e-09
1.06450918397e-11
-5.68057468944e-10
-1.79997072903e-09
-1.23765080626e-11
-5.72932563643e-10
-1.813790927e-09
-3.3706269719e-11
-5.67872529304e-10
-1.7999997483e-09
-5.04074505141e-11
-5.53880968479e-10
-1.76163130226e-09
-6.00357131895e-11
-5.3161690489e-10
-1.70041216288e-09
-6.07791785067e-11
-5.01882288248e-10
-1.6182343202e-09
-5.1562832874e-11
-4.66080571228e-10
-1.51814150716e-09
-3.17103808063e-11
-4.26666592165e-10
-1.40388399083e-09
-3.88232605971e-10
-1.27884537278e-09
-2.68195881511e-13
4.19309576647e-11
-5.50924200371e-10
-2.07589383471e-09
-1.09804818316e-12
6.86135373879e-11
-5.99702858953e-10
-2.28652608687e-09
8.09785586132e-11
-6.48621823764e-10
-2.47920079077e-09
7.97599083406e-11
-6.92473665861e-10
-2.64802589976e-09
6.64761560491e-11
-7.2844690398e-10
-2.78666531083e-09
4.36879771014e-11
-7.5505241239e-10
-2.8899662543e-09
1.47716674886e-11
-7.71565887577e-10
-2.95467756545e-09
-1.62884286261e-11
-7.7738886519e-10
-2.97788481378e-09
-4.50894134792e-11
-7.71323311501e-10
-2.9547456685e-09
-6.76460851209e-11
-7.54598420872e-10
-2.89010409977e-09
-8.06094893397e-11
-7.27845644725e-10
-2.7868743316e-09
-8.14540868981e-11
-6.9177164962e-10
-2.64831148807e-09
-6.86622594504e-11
-6.47833942204e-10
-2.4795801601e-09
-4.15566061572e-11
-5.98951342119e-10
-2.28705466554e-09
-5.50375268258e-10
-2.07669710701e-09
-3.53522629287e-13
4.60968051374e-11
-6.66719465491e-10
-2.76596431731e-09
-1.04075006479e-12
7.6384331039e-11
-7.19791065759e-10
-3.05458318056e-09
9.07315305175e-11
-7.71628025437e-10
-3.31853021874e-09
8.96153945359e-11
-8.17295144626e-10
-3.54965258038e-09
7.47802499598e-11
-8.54190114055e-10
-3.73933218798e-09
4.91723367697e-11
-8.81147917704e-10
-3.88058368325e-09
1.66396422924e-11
-8.97767825298e-10
-3.96896510698e-09
-1.8310591493e-11
-9.03620413516e-10
-4.00055448432e-09
-5.07280375158e-11
-8.97463851541e-10
-3.96906843536e-09
-7.61120279661e-11
-8.80570214667e-10
-3.88078994127e-09
-9.06418683068e-11
-8.53395858088e-10
-3.73963957111e-09
-9.13995107766e-11
-8.16343202799e-10
-3.5500629177e-09
-7.66442598799e-11
-7.70577277465e-10
-3.31905836576e-09
-4.59386821886e-11
-7.18814102855e-10
-3.05528706704e-09
-6.66030243039e-10
-2.76697974616e-09
-4.92270649454e-13
4.64529819982e-11
-7.38124170936e-10
-3.35080457124e-09
-9.95485128814e-13
7.76758627586e-11
-7.90911925276e-10
-3.71032666621e-09
9.27137264184e-11
-8.40750127903e-10
-4.03883246522e-09
9.17649458034e-11
-8.8362127331e-10
-4.3262099512e-09
7.66222861108e-11
-9.17576617151e-10