/*--------------------------------*- C++ -*----------------------------------*\
  =========                 |
  \\      /  F ield         | OpenFOAM: The Open Source CFD Toolbox
   \\    /   O peration     | Website:  https://openfoam.org
    \\  /    A nd           | Version:  7
     \\/     M anipulation  |
\*---------------------------------------------------------------------------*/
FoamFile
{
    version     2.0;
    format      ascii;
    class       volScalarField;
    location    "0.92";
    object      p;
}
// * * * * * * * * * * * * * * * * * * * * * * * * * * * * * * * * * * * * * //

dimensions      [0 2 -2 0 0 0 0];

internalField   nonuniform List<scalar> 
22500
(
7.3946728296e-06
7.39382592122e-06
7.39355842851e-06
7.39314527344e-06
7.39283184278e-06
7.39258879911e-06
7.39243939393e-06
7.39238821454e-06
7.3924434659e-06
7.39259686153e-06
7.39284381267e-06
7.39316086686e-06
7.39357749187e-06
7.39384736505e-06
7.39469868855e-06
7.38436703863e-06
7.38299534354e-06
7.38228841986e-06
7.38149031459e-06
7.38086240203e-06
7.38038714572e-06
7.38009552243e-06
7.37999694363e-06
7.38009972271e-06
7.38039546803e-06
7.38087474336e-06
7.38150641758e-06
7.38230805631e-06
7.38301745179e-06
7.38439350644e-06
7.37456419984e-06
7.37272439285e-06
7.37164951857e-06
7.37051962426e-06
7.3696260711e-06
7.36895454316e-06
7.36854302391e-06
7.36840434771e-06
7.36854716746e-06
7.36896275455e-06
7.3696382354e-06
7.37053550477e-06
7.37166888611e-06
7.37274621748e-06
7.37459049064e-06
7.36588975172e-06
7.36367227151e-06
7.36230437974e-06
7.36091719188e-06
7.35981807503e-06
7.35899601718e-06
7.35849281363e-06
7.35832351171e-06
7.35849684662e-06
7.35900401214e-06
7.35982990665e-06
7.3609326256e-06
7.36232321231e-06
7.36369348319e-06
7.3659155216e-06
7.35785202819e-06
7.35531852379e-06
7.35370192144e-06
7.35210770597e-06
7.35084231819e-06
7.34990002334e-06
7.3493238545e-06
7.34913026805e-06
7.34932778187e-06
7.34990780693e-06
7.35085382826e-06
7.3521227025e-06
7.35372020111e-06
7.35533908617e-06
7.3578771634e-06
7.35032046739e-06
7.3475288081e-06
7.34570394287e-06
7.34394793329e-06
7.34255196445e-06
7.34151674746e-06
7.34088448926e-06
7.34067230918e-06
7.34088831258e-06
7.34152432533e-06
7.34256315871e-06
7.34396250235e-06
7.34572164908e-06
7.34754873773e-06
7.35034499937e-06
7.34330955747e-06
7.34031849334e-06
7.33832590585e-06
7.336451857e-06
7.33496015423e-06
7.33385835153e-06
7.33318624942e-06
7.33296094422e-06
7.33318998015e-06
7.33386574304e-06
7.33497106226e-06
7.33646603557e-06
7.33834308071e-06
7.34033782118e-06
7.34333355709e-06
7.33681897994e-06
7.3336845583e-06
7.33156261291e-06
7.32961080153e-06
7.32805568533e-06
7.32691138061e-06
7.32621426178e-06
7.32598081642e-06
7.32621791562e-06
7.3269186151e-06
7.32806635429e-06
7.32962465169e-06
7.33157933042e-06
7.33370339098e-06
7.33684256629e-06
7.33083013134e-06
7.32760412232e-06
7.32538870735e-06
7.32339554069e-06
7.32180645477e-06
7.32064122201e-06
7.31993233425e-06
7.31969519429e-06
7.31993593327e-06
7.32064834611e-06
7.32181695416e-06
7.32340916333e-06
7.32540509342e-06
7.32762262926e-06
7.33085348573e-06
7.32531937112e-06
7.32204871273e-06
7.31977409052e-06
7.3177726591e-06
7.31617646429e-06
7.31500962984e-06
7.31430078262e-06
7.31406390627e-06
7.31430435514e-06
7.31501670196e-06
7.31618688825e-06
7.31778618306e-06
7.31979032127e-06
7.32206711913e-06
7.32534276343e-06
7.32025931312e-06
7.31698604539e-06
7.31468647345e-06
7.3127074021e-06
7.31112871679e-06
7.30997762976e-06
7.30927937684e-06
7.30904629553e-06
7.30928295485e-06
7.30998471707e-06
7.3111391744e-06
7.31272098951e-06
7.31470276916e-06
7.31700463559e-06
7.32028309795e-06
7.31560864481e-06
7.31237711371e-06
7.31009191108e-06
7.30816464526e-06
7.30662595391e-06
7.30550619625e-06
7.30482799498e-06
7.30460189802e-06
7.3048316096e-06
7.30551337162e-06
7.30663656702e-06
7.30817847966e-06
7.31010853317e-06
7.31239621863e-06
7.31563321242e-06
7.31128925529e-06
7.30817866699e-06
7.30596157445e-06
7.30411345005e-06
7.30263413047e-06
7.30155947579e-06
7.30090995789e-06
7.30069375523e-06
7.30091364038e-06
7.30156679482e-06
7.30264500908e-06
7.30412771526e-06
7.30597880954e-06
7.30819864252e-06
7.31131497005e-06
7.30728300616e-06
7.30440102156e-06
7.30227938907e-06
7.30052362709e-06
7.29911547149e-06
7.29809741319e-06
7.2974845249e-06
7.29728106784e-06
7.29748828491e-06
7.29810491405e-06
7.29912669145e-06
7.30053848496e-06
7.30229752925e-06
7.30442233079e-06
7.30731000068e-06
7.30424449079e-06
7.30097240194e-06
7.29893398973e-06
7.29725103542e-06
7.29592035841e-06
7.29497120604e-06
7.29440414429e-06
7.29421663568e-06
7.29440803064e-06
7.29497897632e-06
7.2959320529e-06
7.29726671092e-06
7.29895355911e-06
7.30099587269e-06
7.30427274939e-06
6.17691818778e-06
6.17709606792e-06
6.17721567684e-06
6.17731151569e-06
6.17738724864e-06
6.17744245801e-06
6.177476469e-06
6.17748781933e-06
6.17747594431e-06
6.1774415216e-06
6.17738617886e-06
6.17731065609e-06
6.17721511789e-06
6.17709576415e-06
6.17691845873e-06
6.17779283469e-06
6.178001745e-06
6.17815515016e-06
6.17828179453e-06
6.17838333761e-06
6.17845769331e-06
6.17850349613e-06
6.17851888472e-06
6.17850303053e-06
6.17845687956e-06
6.17838245119e-06
6.17828118675e-06
6.17815496146e-06
6.17800175305e-06
6.17779342422e-06
6.17864755733e-06
6.17890116835e-06
6.17909490463e-06
6.17926001124e-06
6.17939479273e-06
6.1794944714e-06
6.17955616167e-06
6.17957700515e-06
6.17955575748e-06
6.17949376597e-06
6.17939402165e-06
6.17925947595e-06
6.17909479458e-06
6.17890116399e-06
6.17864825792e-06
6.17957080214e-06
6.1799020871e-06
6.18016035112e-06
6.18038571068e-06
6.18057268179e-06
6.1807124148e-06
6.18079934191e-06
6.18082883753e-06
6.18079899502e-06
6.18071180681e-06
6.18057200318e-06
6.18038520727e-06
6.18016023762e-06
6.17990202956e-06
6.17957159628e-06
6.1806919603e-06
6.18113923651e-06
6.18149049158e-06
6.1818011604e-06
6.18206135105e-06
6.18225703801e-06
6.18237909858e-06
6.18242060047e-06
6.18237880066e-06
6.18225651615e-06
6.18206076074e-06
6.18180070856e-06
6.1814903814e-06
6.18113914593e-06
6.18069286219e-06
6.18204748102e-06
6.18264427697e-06
6.18311191163e-06
6.18352789731e-06
6.1838775665e-06
6.18414121477e-06
6.18430575063e-06
6.18436172842e-06
6.18430550141e-06
6.18414078019e-06
6.18387707362e-06
6.18352751737e-06
6.18311183453e-06
6.1826441544e-06
6.18204854678e-06
6.18363042932e-06
6.18440161768e-06
6.18500153433e-06
6.18553537262e-06
6.1859841679e-06
6.18632258699e-06
6.18653361329e-06
6.1866053872e-06
6.18653340692e-06
6.18632222972e-06
6.18598376737e-06
6.18553507149e-06
6.18500150982e-06
6.18440148987e-06
6.18363167163e-06
6.18541718056e-06
6.18637736706e-06
6.18711739795e-06
6.18777368805e-06
6.18832441953e-06
6.18873914e-06
6.18899733596e-06
6.18908508521e-06
6.18899716867e-06
6.18873885517e-06
6.18832410818e-06
6.18777347239e-06
6.18711742836e-06
6.18637727048e-06
6.18541858738e-06
6.18737421669e-06
6.18852712603e-06
6.18940711987e-06
6.19018294923e-06
6.19083206874e-06
6.19131978601e-06
6.19162279916e-06
6.19172566761e-06
6.1916226613e-06
6.19131955759e-06
6.19083183084e-06
6.19018281469e-06
6.18940721167e-06
6.1885270833e-06
6.18737582818e-06
6.18946201295e-06
6.19080062709e-06
6.19181303672e-06
6.19269897512e-06
6.19343753017e-06
6.19399089126e-06
6.19433385271e-06
6.19445012941e-06
6.19433373416e-06
6.19399070111e-06
6.19343734639e-06
6.19269890588e-06
6.19181318401e-06
6.19080065387e-06
6.18946383185e-06
6.19163813278e-06
6.19314542783e-06
6.1942762902e-06
6.19525792844e-06
6.19607290225e-06
6.19668150256e-06
6.19705765305e-06
6.1971849799e-06
6.19705753798e-06
6.19668132126e-06
6.19607273752e-06
6.1952578977e-06
6.19427648127e-06
6.19314553643e-06
6.19164019487e-06
6.19385652276e-06
6.19550733475e-06
6.19673856173e-06
6.1977990029e-06
6.19867517114e-06
6.19932685713e-06
6.19972831395e-06
6.19986395544e-06
6.19972818006e-06
6.19932664605e-06
6.19867497326e-06
6.19779895857e-06
6.19673875884e-06
6.19550752257e-06
6.19385881435e-06
6.19606601022e-06
6.1978336117e-06
6.199147171e-06
6.20026912712e-06
6.2011902709e-06
6.20187187872e-06
6.20229011024e-06
6.20243108612e-06
6.20228993216e-06
6.20187157716e-06
6.20118996455e-06
6.20026898044e-06
6.19914730423e-06
6.19783382697e-06
6.19606845928e-06
6.1982619429e-06
6.20012510983e-06
6.20148670271e-06
6.20264284282e-06
6.20358366808e-06
6.204275238e-06
6.20469761416e-06
6.20483962254e-06
6.20469736115e-06
6.20427479771e-06
6.2035831679e-06
6.20264250218e-06
6.20148667689e-06
6.20012534483e-06
6.19826438566e-06
6.20072753852e-06
6.20243754864e-06
6.20376925815e-06
6.20490299219e-06
6.20581369718e-06
6.20647791982e-06
6.20688161792e-06
6.20701696767e-06
6.20688131855e-06
6.20647737638e-06
6.20581305294e-06
6.20490249103e-06
6.20376919282e-06
6.20243802667e-06
6.20072984358e-06
6.37457937393e-06
6.37449501989e-06
6.37440796182e-06
6.37431854661e-06
6.37423853121e-06
6.37417572374e-06
6.37413574905e-06
6.3741218761e-06
6.37413543717e-06
6.37417504962e-06
6.37423739485e-06
6.37431688738e-06
6.37440624805e-06
6.37449291379e-06
6.37457743242e-06
6.37454967537e-06
6.37446750338e-06
6.37438116163e-06
6.37429201559e-06
6.37421200622e-06
6.37414902437e-06
6.3741088506e-06
6.37409489661e-06
6.37410860377e-06
6.37414848267e-06
6.37421106693e-06
6.37429061775e-06
6.3743796709e-06
6.37446571229e-06
6.37454802201e-06
6.3746233132e-06
6.37454933371e-06
6.37447078856e-06
6.37438771262e-06
6.37431245733e-06
6.37425278443e-06
6.37421454174e-06
6.37420121936e-06
6.37421431078e-06
6.37425228292e-06
6.37431160274e-06
6.37438645465e-06
6.37446940512e-06
6.37454767753e-06
6.37462184707e-06
6.3746798007e-06
6.37460917034e-06
6.37453495804e-06
6.37445514713e-06
6.37438240679e-06
6.37432443374e-06
6.37428714841e-06
6.37427413305e-06
6.37428691858e-06
6.37432394618e-06
6.37438160834e-06
6.37445399725e-06
6.37453366264e-06
6.37460757695e-06
6.37467854386e-06
6.37469889165e-06
6.37462720712e-06
6.37455397967e-06
6.37447486231e-06
6.37440268429e-06
6.37434507668e-06
6.37430798187e-06
6.37429502799e-06
6.37430775831e-06
6.37434460813e-06
6.37440193342e-06
6.37447380013e-06
6.37455277713e-06
6.37462567707e-06
6.37469784881e-06
6.37469281314e-06
6.37461800427e-06
6.3745444447e-06
6.37446518204e-06
6.37439312743e-06
6.37433571609e-06
6.37429877154e-06
6.37428587847e-06
6.37429855474e-06
6.37433526752e-06
6.37439242458e-06
6.37446420469e-06
6.37454332898e-06
6.37461657262e-06
6.37469196804e-06
6.37467151181e-06
6.37459321701e-06
6.37451923883e-06
6.37444012034e-06
6.3743686878e-06
6.37431200543e-06
6.37427561318e-06
6.37426293124e-06
6.37427540496e-06
6.37431157752e-06
6.37436802782e-06
6.37443921808e-06
6.37451820386e-06
6.37459187943e-06
6.37467088929e-06
6.37464205136e-06
6.37456105891e-06
6.37448736377e-06
6.37440936159e-06
6.37433960529e-06
6.3742845937e-06
6.37424940304e-06
6.37423716539e-06
6.37424920463e-06
6.37428418901e-06
6.37433899181e-06
6.37440853992e-06
6.37448642142e-06
6.37455982522e-06
6.37464167572e-06
6.374610737e-06
6.37452862149e-06
6.37445639251e-06
6.37438083574e-06
6.37431406513e-06
6.37426183558e-06
6.37422859334e-06
6.3742170645e-06
6.37422840571e-06
6.37426145623e-06
6.37431349816e-06
6.37438009364e-06
6.37445554968e-06
6.37452750516e-06
6.37461061323e-06
6.37458299177e-06
6.37450170605e-06
6.37443226135e-06
6.37436051071e-06
6.3742980291e-06
6.37424966712e-06
6.37421908962e-06
6.37420852208e-06
6.37421891512e-06
6.37424931676e-06
6.37429751512e-06
6.37435985618e-06
6.37443152957e-06
6.37450073011e-06
6.37458312752e-06
6.37456285667e-06
6.37448430287e-06
6.37441878304e-06
6.37435198919e-06
6.37429490628e-06
6.37425132924e-06
6.37422402182e-06
6.37421462443e-06
6.37422386092e-06
6.37425100883e-06
6.37429444479e-06
6.37435142301e-06
6.37441816418e-06
6.37448347706e-06
6.3745632577e-06
6.37455253392e-06
6.37447812152e-06
6.3744172955e-06
6.37435633031e-06
6.37430554331e-06
6.37426751351e-06
6.37424396338e-06
6.37423591026e-06
6.37424381487e-06
6.37426722221e-06
6.37430513392e-06
6.37435584803e-06
6.37441678833e-06
6.37447744171e-06
6.37455317535e-06
6.37455358561e-06
6.37448364382e-06
6.37442764425e-06
6.37437292729e-06
6.37432905653e-06
6.37429709477e-06
6.37427764536e-06
6.37427103635e-06
6.37427750763e-06
6.3742968264e-06
6.37432868524e-06
6.37437251478e-06
6.37442723177e-06
6.3744831025e-06
6.37455444502e-06
6.37457310181e-06
6.3745071952e-06
6.37445323831e-06
6.37440331299e-06
6.37436546117e-06
6.37433883087e-06
6.3743229186e-06
6.37431757352e-06
6.37432279139e-06
6.37433857655e-06
6.37436512162e-06
6.37440294799e-06
6.3744528997e-06
6.37450678802e-06
6.37457411429e-06
6.37462952116e-06
6.37454952553e-06
6.37449106977e-06
6.3744428352e-06
6.37440853357e-06
6.37438498536e-06
6.37437107686e-06
6.37436642882e-06
6.37437097944e-06
6.37438479473e-06
6.37440827648e-06
6.37444258602e-06
6.3744909032e-06
6.37454937081e-06
6.37463051701e-06
5.63215495645e-06
5.63220962555e-06
5.63226737378e-06
5.63232457495e-06
5.63237467688e-06
5.6324132987e-06
5.63243749655e-06
5.63244544877e-06
5.63243639879e-06
5.63241117169e-06
5.63237168773e-06
5.63232105842e-06
5.63226354484e-06
5.63220580915e-06
5.63215076762e-06
5.63217328981e-06
5.63222607444e-06
5.63228329219e-06
5.63234047083e-06
5.63239080889e-06
5.63242976867e-06
5.63245424476e-06
5.63246231006e-06
5.63245313328e-06
5.63242761946e-06
5.63238780289e-06
5.63233695494e-06
5.63227955138e-06
5.63222233898e-06
5.63216934263e-06
5.63211134362e-06
5.63215662625e-06
5.63220729035e-06
5.63225926445e-06
5.63230559577e-06
5.63234178895e-06
5.63236465126e-06
5.63237220914e-06
5.63236359501e-06
5.63233974407e-06
5.63230272783e-06
5.63225587183e-06
5.63220367781e-06
5.63215292284e-06
5.6321075306e-06
5.632046248e-06
5.63208549813e-06
5.63213056355e-06
5.63217781272e-06
5.63222046397e-06
5.63225408185e-06
5.6322754322e-06
5.63228251418e-06
5.63227444494e-06
5.63225216864e-06
5.63221777237e-06
5.63217459454e-06
5.63212709651e-06
5.63208188287e-06
5.63204255816e-06
5.6319924225e-06
5.63202731224e-06
5.63206815114e-06
5.63211155104e-06
5.63215112704e-06
5.6321825337e-06
5.63220257267e-06
5.63220923577e-06
5.63220164456e-06
5.63218073438e-06
5.63214858413e-06
5.63210848897e-06
5.63206480635e-06
5.63202379265e-06
5.63198885998e-06
5.63194408709e-06
5.63197542868e-06
5.63201262501e-06
5.63205252804e-06
5.63208919056e-06
5.63211844964e-06
5.63213718665e-06
5.63214343173e-06
5.63213631834e-06
5.63211676462e-06
5.6320868041e-06
5.63204963186e-06
5.6320094337e-06
5.63197199401e-06
5.63194071077e-06
5.63189786747e-06
5.6319260485e-06
5.63195999975e-06
5.6319965893e-06
5.63203039419e-06
5.63205749142e-06
5.63207489505e-06
5.63208070531e-06
5.63207408194e-06
5.63205591078e-06
5.63202814957e-06
5.63199384429e-06
5.63195695405e-06
5.63192270529e-06
5.63189466849e-06
5.63185270222e-06
5.63187801132e-06
5.6319090969e-06
5.6319425625e-06
5.63197361322e-06
5.63199858242e-06
5.63201465854e-06
5.63202003009e-06
5.63201389934e-06
5.63199710532e-06
5.63197150789e-06
5.63193996998e-06
5.63190618671e-06
5.63187477412e-06
5.63184966035e-06
5.63180795366e-06
5.6318307292e-06
5.63185932216e-06
5.63188992604e-06
5.63191839016e-06
5.63194132578e-06
5.63195611695e-06
5.63196105928e-06
5.63195540637e-06
5.63193994171e-06
5.63191640972e-06
5.63188747182e-06
5.63185653736e-06
5.6318275943e-06
5.63180508797e-06
5.63176321099e-06
5.63178381037e-06
5.63181030709e-06
5.63183837378e-06
5.63186448602e-06
5.63188554642e-06
5.63189913584e-06
5.63190367463e-06
5.63189847111e-06
5.63188424884e-06
5.63186262354e-06
5.63183604834e-06
5.63180764029e-06
5.63178077217e-06
5.63176051739e-06
5.63171824911e-06
5.63173711333e-06
5.63176195246e-06
5.63178786172e-06
5.63181191666e-06
5.63183129742e-06
5.63184379728e-06
5.63184796304e-06
5.63184317309e-06
5.63183007767e-06
5.6318101588e-06
5.63178565719e-06
5.63175939992e-06
5.63173418382e-06
5.63171574497e-06
5.63167292091e-06
5.6316905989e-06
5.63171427358e-06
5.63173847999e-06
5.63176082414e-06
5.63177877166e-06
5.63179031099e-06
5.63179414806e-06
5.63178972319e-06
5.63177762067e-06
5.63175916357e-06
5.63173638492e-06
5.63171183245e-06
5.63168778666e-06
5.63167061792e-06
5.63162628666e-06
5.63164348346e-06
5.63166675759e-06
5.63168999112e-06
5.63171122056e-06
5.63172812652e-06
5.63173894634e-06
5.63174251644e-06
5.63173839162e-06
5.631727042e-06
5.63170964443e-06
5.63168800244e-06
5.63166442439e-06
5.63164079758e-06
5.63162419211e-06
5.63157778065e-06
5.63159578574e-06
5.63161936028e-06
5.63164237761e-06
5.63166308032e-06
5.63167936794e-06
5.63168967548e-06
5.63169306927e-06
5.63168915765e-06
5.63167834237e-06
5.63166159566e-06
5.63164048823e-06
5.63161713608e-06
5.63159323118e-06
5.63157592375e-06
5.63155577888e-06
5.63156993306e-06
5.6315880596e-06
5.63160564507e-06
5.63162158579e-06
5.6316340723e-06
5.63164194786e-06
5.63164449886e-06
5.63164146981e-06
5.63163313082e-06
5.63162020519e-06
5.63160388276e-06
5.63158597366e-06
5.63156750805e-06
5.63155394019e-06
5.53860766496e-06
5.53856756851e-06
5.53852476465e-06
5.53848254321e-06
5.5384450396e-06
5.53841572635e-06
5.53839716072e-06
5.53839075067e-06
5.53839705038e-06
5.5384154318e-06
5.53844442113e-06
5.53848165983e-06
5.53852389536e-06
5.53856646219e-06
5.53860677776e-06
5.5385726253e-06
5.5385331037e-06
5.5384900077e-06
5.53844722249e-06
5.5384090636e-06
5.53837917895e-06
5.53836020848e-06
5.5383536485e-06
5.53836011465e-06
5.53837892064e-06
5.53840850839e-06
5.53844640457e-06
5.53848918815e-06
5.53853214106e-06
5.53857184271e-06
5.53859367299e-06
5.53855866594e-06
5.53851942501e-06
5.53847967754e-06
5.53844387158e-06
5.53841564527e-06
5.5383976388e-06
5.53839138741e-06
5.53839753801e-06
5.53841538706e-06
5.5384433472e-06
5.53847890547e-06
5.53851859889e-06
5.53855772837e-06
5.53859286937e-06
5.53862071537e-06
5.5385893791e-06
5.53855346291e-06
5.53851655425e-06
5.53848299226e-06
5.53845637839e-06
5.53843931436e-06
5.53843336628e-06
5.53843920066e-06
5.53845611044e-06
5.5384824921e-06
5.5385158189e-06
5.5385526309e-06
5.53858841585e-06
5.53861989746e-06
5.53864216182e-06
5.53861336823e-06
5.5385798622e-06
5.53854521824e-06
5.53851348921e-06
5.53848820849e-06
5.53847193563e-06
5.53846624527e-06
5.53847181169e-06
5.5384879298e-06
5.53851299555e-06
5.5385444988e-06
5.53857902368e-06
5.53861236486e-06
5.5386413316e-06
5.53866094709e-06
5.5386340447e-06
5.53860253341e-06
5.53856989161e-06
5.53853985071e-06
5.5385158356e-06
5.53850032778e-06
5.53849489035e-06
5.53850019318e-06
5.53851554373e-06
5.53853935844e-06
5.53856918149e-06
5.53860168519e-06
5.53863303887e-06
5.53866008091e-06
5.5386789484e-06
5.53865359971e-06
5.53862380725e-06
5.53859302044e-06
5.53856461201e-06
5.53854185285e-06
5.5385271241e-06
5.53852194886e-06
5.53852697965e-06
5.5385415463e-06
5.53856411142e-06
5.53859230865e-06
5.53862293991e-06
5.53865258224e-06
5.53867806928e-06
5.53869666649e-06
5.53867260295e-06
5.53864430899e-06
5.53861526825e-06
5.53858845941e-06
5.53856696552e-06
5.53855303903e-06
5.53854813769e-06
5.53855288524e-06
5.53856664482e-06
5.53858795051e-06
5.53861455827e-06
5.53864343812e-06
5.53867158264e-06
5.53869580699e-06
5.53871444406e-06
5.53869144323e-06
5.53866448635e-06
5.53863710272e-06
5.53861187061e-06
5.53859165755e-06
5.53857856229e-06
5.53857394847e-06
5.53857840041e-06
5.53859132475e-06
5.53861135205e-06
5.53863639184e-06
5.53866361721e-06
5.53869042617e-06
5.53871361291e-06
5.53873262385e-06
5.53871049794e-06
5.53868476531e-06
5.53865896654e-06
5.53863530534e-06
5.53861640355e-06
5.5386041728e-06
5.53859986393e-06
5.53860400566e-06
5.53861606228e-06
5.53863478352e-06
5.53865826264e-06
5.53868391079e-06
5.53870950356e-06
5.53873183364e-06
5.53875148066e-06
5.53873007674e-06
5.53870547312e-06
5.53868119263e-06
5.53865910748e-06
5.53864154963e-06
5.53863022537e-06
5.53862623671e-06
5.53863005506e-06
5.538641205e-06
5.53865858464e-06
5.53868049958e-06
5.53870463502e-06
5.53872911006e-06
5.53875074089e-06
5.53877138414e-06
5.53875045427e-06
5.53872681438e-06
5.53870395672e-06
5.53868342871e-06
5.53866725114e-06
5.53865686231e-06
5.53865321551e-06
5.53865669216e-06
5.53866690738e-06
5.53868291595e-06
5.53870327784e-06
5.53872599866e-06
5.53874950914e-06
5.5387706866e-06
5.53879336985e-06
5.53877226073e-06
5.53874914477e-06
5.53872743071e-06
5.53870833055e-06
5.5386934455e-06
5.53868398e-06
5.53868065551e-06
5.53868381315e-06
5.53869311564e-06
5.5387078283e-06
5.53872677992e-06
5.53874835248e-06
5.53877134234e-06
5.53879272164e-06
5.53881685119e-06
5.53879448407e-06
5.53877197342e-06
5.53875138443e-06
5.53873365531e-06
5.53872005726e-06
5.53871146283e-06
5.53870847854e-06
5.53871130951e-06
5.53871973976e-06
5.53873318887e-06
5.53875075945e-06
5.53877121612e-06
5.53879358628e-06
5.53881625992e-06
5.5388150767e-06
5.53880216274e-06
5.53878541036e-06
5.53877011636e-06
5.53875694577e-06
5.53874682001e-06
5.53874043825e-06
5.5387382078e-06
5.53874029677e-06
5.53874653755e-06
5.53875651247e-06
5.53876954432e-06
5.53878469119e-06
5.53880128153e-06
5.53881445422e-06
4.98668898921e-06
4.98671683412e-06
4.98674666907e-06
4.98677640924e-06
4.98680261561e-06
4.98682292769e-06
4.98683569038e-06
4.98683991273e-06
4.98683520419e-06
4.98682201025e-06
4.98680138851e-06
4.98677505781e-06
4.98674532179e-06
4.98671575721e-06
4.98668773971e-06
4.98670237861e-06
4.98672943913e-06
4.98675903407e-06
4.9867887584e-06
4.98681505836e-06
4.98683550053e-06
4.98684836796e-06
4.9868526265e-06
4.9868478515e-06
4.98683452748e-06
4.98681376371e-06
4.98678734705e-06
4.9867576713e-06
4.98672833385e-06
4.98670123225e-06
4.98667658036e-06
4.98670007078e-06
4.98672642094e-06
4.9867535754e-06
4.98677787931e-06
4.98679693982e-06
4.98680900253e-06
4.98681301002e-06
4.98680851731e-06
4.98679602341e-06
4.98677665248e-06
4.98675221197e-06
4.98672509327e-06
4.98669890577e-06
4.98667543323e-06
4.98664831052e-06
4.98666890201e-06
4.98669248981e-06
4.98671731879e-06
4.98673981204e-06
4.9867576057e-06
4.98676892866e-06
4.98677270744e-06
4.98676848525e-06
4.98675676572e-06
4.9867386808e-06
4.98671604341e-06
4.98669121758e-06
4.98666774191e-06
4.98664714159e-06
4.98662505397e-06
4.98664360209e-06
4.98666512601e-06
4.9866880918e-06
4.98670910505e-06
4.98672583978e-06
4.98673654097e-06
4.98674012472e-06
4.98673613329e-06
4.98672506597e-06
4.98670805302e-06
4.98668688957e-06
4.986663888e-06
4.98664245174e-06
4.98662386645e-06
4.98660426249e-06
4.98662123181e-06
4.98664097554e-06
4.98666229618e-06
4.9866819414e-06
4.98669766913e-06
4.98670776312e-06
4.98671115436e-06
4.98670738821e-06
4.98669695562e-06
4.98668096619e-06
4.98666116982e-06
4.98663979779e-06
4.98662008248e-06
4.98660310339e-06
4.98658438995e-06
4.9865999817e-06
4.986618128e-06
4.98663789228e-06
4.98665618784e-06
4.98667089158e-06
4.98668035429e-06
4.98668354127e-06
4.9866800095e-06
4.98667023232e-06
4.98665527996e-06
4.9866368279e-06
4.98661699887e-06
4.98659883449e-06
4.98658324521e-06
4.98656487721e-06
4.98657919119e-06
4.98659587652e-06
4.98661413542e-06
4.98663108609e-06
4.98664473778e-06
4.98665353893e-06
4.98665650664e-06
4.98665322112e-06
4.98664412811e-06
4.98663023996e-06
4.9866131307e-06
4.98659478967e-06
4.98657805987e-06
4.98656372481e-06
4.98654527822e-06
4.98655841763e-06
4.98657373116e-06
4.98659052389e-06
4.98660612047e-06
4.98661868426e-06
4.98662678901e-06
4.98662952138e-06
4.98662649412e-06
4.98661811675e-06
4.98660532452e-06
4.98658956537e-06
4.98657267315e-06
4.98655729266e-06
4.98654413429e-06
4.98652524145e-06
4.9865372588e-06
4.98655127548e-06
4.98656664489e-06
4.98658088147e-06
4.98659233087e-06
4.98659970662e-06
4.98660219086e-06
4.98659943231e-06
4.98659179935e-06
4.98658013098e-06
4.98656572577e-06
4.98655024156e-06
4.98653613513e-06
4.98652410007e-06
4.98650448766e-06
4.98651545775e-06
4.98652828031e-06
4.98654228313e-06
4.98655517016e-06
4.98656547859e-06
4.98657210105e-06
4.98657432232e-06
4.98657184303e-06
4.9865649775e-06
4.98655445424e-06
4.98654139742e-06
4.98652726562e-06
4.98651434073e-06
4.9865033653e-06
4.98648286035e-06
4.98649293385e-06
4.98650471774e-06
4.9865174498e-06
4.98652900119e-06
4.98653816436e-06
4.98654400725e-06
4.98654596026e-06
4.9865437641e-06
4.98653768697e-06
4.98652832039e-06
4.98651659105e-06
4.98650372362e-06
4.98649183021e-06
4.98648176908e-06
4.98645984431e-06
4.98646943287e-06
4.98648052903e-06
4.98649219115e-06
4.98650253078e-06
4.98651057867e-06
4.98651567882e-06
4.98651735579e-06
4.98651544707e-06
4.98651013233e-06
4.98650187477e-06
4.98649136956e-06
4.98647955799e-06
4.98646835301e-06
4.9864587965e-06
4.98643480593e-06
4.98644464139e-06
4.98645551392e-06
4.98646645312e-06
4.98647577074e-06
4.98648290309e-06
4.98648734264e-06
4.98648880231e-06
4.98648713005e-06
4.98648247537e-06
4.98647515886e-06
4.98646566017e-06
4.9864545797e-06
4.98644359161e-06
4.98643384456e-06
4.98641823347e-06
4.98642605837e-06
4.98643517614e-06
4.98644375132e-06
4.98645083153e-06
4.98645617062e-06
4.98645948701e-06
4.98646055037e-06
4.98645928227e-06
4.98645577063e-06
4.98645023922e-06
4.98644299142e-06
4.98643425698e-06
4.98642501469e-06
4.98641727835e-06
4.75387591609e-06
4.75385685948e-06
4.7538362299e-06
4.75381582924e-06
4.75379792527e-06
4.75378405174e-06
4.75377527689e-06
4.7537722996e-06
4.7537754124e-06
4.75378431888e-06
4.75379831592e-06
4.75381626372e-06
4.75383661677e-06
4.75385707334e-06
4.75387652437e-06
4.75386265817e-06
4.75384399918e-06
4.7538233635e-06
4.75380280226e-06
4.75378467152e-06
4.75377057637e-06
4.75376164407e-06
4.75375860775e-06
4.75376178584e-06
4.75377085627e-06
4.75378507437e-06
4.75380324746e-06
4.75382375132e-06
4.75384425811e-06
4.75386326773e-06
4.75387682034e-06
4.75386046231e-06
4.75384187996e-06
4.75382292485e-06
4.75380601402e-06
4.75379275944e-06
4.75378432058e-06
4.75378144352e-06
4.75378445496e-06
4.75379302196e-06
4.75380638606e-06
4.75382333566e-06
4.75384223175e-06
4.75386074235e-06
4.75387738686e-06
4.75389338083e-06
4.75387892577e-06
4.75386210636e-06
4.75384465033e-06
4.75382888467e-06
4.75381642896e-06
4.75380846356e-06
4.75380574027e-06
4.75380858693e-06
4.75381666555e-06
4.75382921047e-06
4.75384500395e-06
4.75386241394e-06
4.75387917735e-06
4.75389392036e-06
4.75390694873e-06
4.75389385134e-06
4.75387834682e-06
4.75386210415e-06
4.75384729048e-06
4.75383551495e-06
4.75382795578e-06
4.75382536469e-06
4.75382806709e-06
4.75383572555e-06
4.75384757424e-06
4.75386240571e-06
4.75387861497e-06
4.75389406136e-06
4.75390744688e-06
4.75391914574e-06
4.75390708929e-06
4.75389272849e-06
4.75387758177e-06
4.75386366416e-06
4.75385254761e-06
4.75384538939e-06
4.75384292975e-06
4.75384548733e-06
4.75385273009e-06
4.75386390294e-06
4.75387782816e-06
4.75389295033e-06
4.75390728304e-06
4.75391957461e-06
4.7539309515e-06
4.75391980996e-06
4.75390647567e-06
4.75389236395e-06
4.75387933517e-06
4.75386889251e-06
4.75386215218e-06
4.75385983071e-06
4.75386223685e-06
4.75386904804e-06
4.75387953418e-06
4.75389256432e-06
4.75390665254e-06
4.7539199836e-06
4.75393132729e-06
4.75394266315e-06
4.75393235117e-06
4.7539199479e-06
4.75390683521e-06
4.75389469314e-06
4.75388493913e-06
4.75387863264e-06
4.75387645657e-06
4.75387870417e-06
4.75388506847e-06
4.75389485543e-06
4.75390699721e-06
4.75392009471e-06
4.75393251014e-06
4.75394301382e-06
4.75395450156e-06
4.75394493527e-06
4.75393338828e-06
4.75392123524e-06
4.75390997318e-06
4.75390092063e-06
4.75389506317e-06
4.75389304031e-06
4.75389512341e-06
4.75390102856e-06
4.7539101074e-06
4.75392136982e-06
4.75393351729e-06
4.75394508734e-06
4.75395482966e-06
4.75396664376e-06
4.75395774954e-06
4.7539469976e-06
4.75393576144e-06
4.75392536955e-06
4.75391702392e-06
4.75391162688e-06
4.75390976221e-06
4.75391167782e-06
4.75391711495e-06
4.75392548268e-06
4.75393588012e-06
4.75394712212e-06
4.75395791039e-06
4.75396696071e-06
4.75397922306e-06
4.75397093034e-06
4.75396089906e-06
4.75395052359e-06
4.75394097914e-06
4.75393334081e-06
4.75392841118e-06
4.75392671008e-06
4.75392845627e-06
4.75393342054e-06
4.75394108079e-06
4.75395063577e-06
4.75396102552e-06
4.7539711031e-06
4.75397953202e-06
4.75399237828e-06
4.75398456002e-06
4.7539751315e-06
4.75396553442e-06
4.75395680001e-06
4.75394985566e-06
4.75394539549e-06
4.75394386053e-06
4.75394543693e-06
4.75394993228e-06
4.75395689698e-06
4.75396564867e-06
4.75397526742e-06
4.75398473988e-06
4.75399267124e-06
4.75400653964e-06
4.75399889887e-06
4.75398982276e-06
4.75398082577e-06
4.75397278634e-06
4.75396647598e-06
4.75396244993e-06
4.75396107388e-06
4.75396249324e-06
4.753966551e-06
4.75397288884e-06
4.75398094766e-06
4.75398996933e-06
4.75399908719e-06
4.75400681594e-06
4.75402174673e-06
4.75401376013e-06
4.75400487659e-06
4.7539963264e-06
4.7539888763e-06
4.75398311203e-06
4.75397947645e-06
4.75397824291e-06
4.75397952235e-06
4.75398319547e-06
4.75398898757e-06
4.75399646475e-06
4.75400504013e-06
4.75401395914e-06
4.75402201405e-06
4.75402714725e-06
4.75402223258e-06
4.75401549867e-06
4.75400912387e-06
4.75400360416e-06
4.75399934942e-06
4.7539966728e-06
4.7539957747e-06
4.75399672386e-06
4.75399944271e-06
4.75400373214e-06
4.75400928398e-06
4.7540156818e-06
4.75402244479e-06
4.75402741541e-06
4.29805162627e-06
4.29806526863e-06
4.29807985626e-06
4.29809419662e-06
4.29810677136e-06
4.2981165125e-06
4.29812267027e-06
4.2981247409e-06
4.29812251368e-06
4.29811619428e-06
4.29810628592e-06
4.29809360581e-06
4.2980792646e-06
4.2980649353e-06
4.29805137999e-06
4.29805983681e-06
4.29807323493e-06
4.298087762e-06
4.29810214746e-06
4.29811481153e-06
4.29812465151e-06
4.29813088319e-06
4.29813297809e-06
4.29813070953e-06
4.29812430038e-06
4.29811427997e-06
4.29810150106e-06
4.29808712246e-06
4.29807283043e-06
4.2980596465e-06
4.29804938618e-06
4.29806114594e-06
4.2980741715e-06
4.2980873991e-06
4.29809917756e-06
4.2981084112e-06
4.29811428454e-06
4.29811626425e-06
4.29811411653e-06
4.29810807282e-06
4.29809867116e-06
4.29808677633e-06
4.29807355302e-06
4.29806068943e-06
4.29804917441e-06
4.29803751598e-06
4.29804790705e-06
4.29805965784e-06
4.29807181253e-06
4.29808277281e-06
4.29809143974e-06
4.29809697759e-06
4.29809884982e-06
4.29809682016e-06
4.29809112379e-06
4.29808230339e-06
4.29807122798e-06
4.29805905422e-06
4.29804742594e-06
4.29803723976e-06
4.29802783604e-06
4.29803725234e-06
4.29804805025e-06