/*--------------------------------*- C++ -*----------------------------------*\
  =========                 |
  \\      /  F ield         | OpenFOAM: The Open Source CFD Toolbox
   \\    /   O peration     | Website:  https://openfoam.org
    \\  /    A nd           | Version:  7
     \\/     M anipulation  |
\*---------------------------------------------------------------------------*/
FoamFile
{
    version     2.0;
    format      ascii;
    class       volScalarField;
    location    "1.72";
    object      p;
}
// * * * * * * * * * * * * * * * * * * * * * * * * * * * * * * * * * * * * * //

dimensions      [0 2 -2 0 0 0 0];

internalField   nonuniform List<scalar> 
22500
(
1.18835515276e-05
1.18810514635e-05
1.18807417567e-05
1.18800243401e-05
1.18795741594e-05
1.18792238603e-05
1.18790120171e-05
1.18789328533e-05
1.1879004654e-05
1.18792093334e-05
1.18795526418e-05
1.18799965322e-05
1.18807082191e-05
1.1881015044e-05
1.18835110851e-05
1.18464608494e-05
1.18420505066e-05
1.18401388541e-05
1.18380256157e-05
1.18364459925e-05
1.18352665645e-05
1.18345488712e-05
1.18343008153e-05
1.18345411948e-05
1.18352514011e-05
1.18364235833e-05
1.18379966036e-05
1.18401040446e-05
1.18420126472e-05
1.18464188575e-05
1.18105380837e-05
1.18043464585e-05
1.18010562872e-05
1.17977031148e-05
1.17951386129e-05
1.17932359666e-05
1.17920784009e-05
1.17916834502e-05
1.17920709965e-05
1.1793221339e-05
1.17951170417e-05
1.17976751779e-05
1.18010227874e-05
1.18043098517e-05
1.18104967708e-05
1.17784384847e-05
1.17707590255e-05
1.17663742275e-05
1.17620531974e-05
1.17587228656e-05
1.17562625272e-05
1.17547669093e-05
1.1754259388e-05
1.17547599412e-05
1.17562487542e-05
1.17587025896e-05
1.17620269701e-05
1.1766342721e-05
1.17707244776e-05
1.17783986916e-05
1.17484091712e-05
1.17394421118e-05
1.17341321528e-05
1.17290271844e-05
1.1725074583e-05
1.17221662566e-05
1.17204000844e-05
1.17198028253e-05
1.17203935318e-05
1.17221533095e-05
1.17250555379e-05
1.17290025782e-05
1.17341025768e-05
1.1739409628e-05
1.17483712262e-05
1.17200771357e-05
1.1710025965e-05
1.170394619e-05
1.16982252402e-05
1.16937816544e-05
1.16905248017e-05
1.16885489788e-05
1.16878824647e-05
1.1688542837e-05
1.16905126586e-05
1.16937638079e-05
1.16982021949e-05
1.17039185423e-05
1.17099954543e-05
1.17200409854e-05
1.16935849992e-05
1.16826677192e-05
1.16759711263e-05
1.16697957882e-05
1.16649874419e-05
1.16614762745e-05
1.16593482367e-05
1.16586316776e-05
1.16593424676e-05
1.1661464869e-05
1.16649706889e-05
1.16697741671e-05
1.16759452331e-05
1.16826390741e-05
1.16935504828e-05
1.16689619679e-05
1.16573896879e-05
1.1650213145e-05
1.16437269695e-05
1.1638665438e-05
1.16349818521e-05
1.16327513349e-05
1.16320013082e-05
1.16327458949e-05
1.16349711034e-05
1.16386496495e-05
1.16437066054e-05
1.16501888058e-05
1.16573626506e-05
1.16689288352e-05
1.16461387316e-05
1.16341076317e-05
1.16265715409e-05
1.16198984351e-05
1.16146797204e-05
1.16108927689e-05
1.16086015083e-05
1.16078318757e-05
1.1608596343e-05
1.16108825636e-05
1.16146647343e-05
1.16198790968e-05
1.16265484771e-05
1.16340818527e-05
1.16461066575e-05
1.16250203463e-05
1.16127113299e-05
1.16049259698e-05
1.15981737243e-05
1.15928811154e-05
1.15890492153e-05
1.15867323588e-05
1.15859547551e-05
1.15867274078e-05
1.15890394321e-05
1.15928667436e-05
1.15981551695e-05
1.16049038565e-05
1.16126864197e-05
1.16249888757e-05
1.16055036455e-05
1.15930852721e-05
1.15851590539e-05
1.15784230631e-05
1.15731291872e-05
1.15693018975e-05
1.15669891253e-05
1.15662133814e-05
1.15669843265e-05
1.15692924115e-05
1.15731152363e-05
1.15784050178e-05
1.15851375378e-05
1.15930607974e-05
1.16054722722e-05
1.15874645977e-05
1.1575115758e-05
1.15671696575e-05
1.15605347694e-05
1.15553009464e-05
1.1551519089e-05
1.15492349953e-05
1.15484692712e-05
1.1549230292e-05
1.15515097668e-05
1.15552872094e-05
1.15605169422e-05
1.15671483444e-05
1.15750912429e-05
1.1587432839e-05
1.1570712384e-05
1.155870979e-05
1.15508975181e-05
1.15444310192e-05
1.15393022324e-05
1.15355969753e-05
1.15333611694e-05
1.15326122443e-05
1.15333564912e-05
1.15355877082e-05
1.1539288503e-05
1.15444131016e-05
1.15508759662e-05
1.15586847017e-05
1.15706796582e-05
1.15551973456e-05
1.15438937447e-05
1.15363062586e-05
1.15300350542e-05
1.15250380353e-05
1.15214377646e-05
1.1519270932e-05
1.15185460207e-05
1.15192662416e-05
1.15214284314e-05
1.15250241119e-05
1.15300166958e-05
1.15362839778e-05
1.15438674423e-05
1.15551632651e-05
1.15423410925e-05
1.15303995477e-05
1.15230760453e-05
1.15169704129e-05
1.15121539034e-05
1.1508717579e-05
1.15066603286e-05
1.1505973706e-05
1.15066555577e-05
1.15087080675e-05
1.15121396128e-05
1.15169513243e-05
1.15230523409e-05
1.15303711474e-05
1.15423060065e-05
7.68367491844e-06
7.68474702884e-06
7.68555531003e-06
7.68630117728e-06
7.68693101285e-06
7.68740913013e-06
7.68770999267e-06
7.68781360334e-06
7.6877133792e-06
7.68741549891e-06
7.68693941786e-06
7.68631045443e-06
7.68556513266e-06
7.68475700074e-06
7.6836849711e-06
7.68804118516e-06
7.68928169629e-06
7.69025871995e-06
7.69115805942e-06
7.69191905697e-06
7.69249633798e-06
7.69285923597e-06
7.69298413129e-06
7.6928625664e-06
7.69250257509e-06
7.6919272445e-06
7.69116697437e-06
7.69026785673e-06
7.6892911126e-06
7.68805068757e-06
7.69322791048e-06
7.69482717692e-06
7.69610539964e-06
7.69728864184e-06
7.69829320378e-06
7.69905585892e-06
7.69953501563e-06
7.69969960092e-06
7.69953828073e-06
7.69906200631e-06
7.69830138457e-06
7.69729774912e-06
7.69611475666e-06
7.69483701651e-06
7.69323762678e-06
7.69961417599e-06
7.70183932284e-06
7.70361387252e-06
7.70525467122e-06
7.70664788274e-06
7.70770489077e-06
7.70836782747e-06
7.7085949301e-06
7.70837100847e-06
7.70771092304e-06
7.70665604599e-06
7.70526400303e-06
7.70362359569e-06
7.70184961016e-06
7.69962415162e-06
7.7077253478e-06
7.71082612667e-06
7.71327052121e-06
7.71551657486e-06
7.71741704167e-06
7.71885498812e-06
7.71975427109e-06
7.72006150411e-06
7.71975735571e-06
7.71886085971e-06
7.71742508045e-06
7.71552592617e-06
7.71328042418e-06
7.71083664275e-06
7.7077354453e-06
7.71757297642e-06
7.72173146954e-06
7.72495807334e-06
7.72789797652e-06
7.7303722642e-06
7.73223708593e-06
7.73339939375e-06
7.73379546643e-06
7.73340232841e-06
7.73224269262e-06
7.73038001346e-06
7.7279071229e-06
7.72496788616e-06
7.72174203316e-06
7.71758287169e-06
7.72891889523e-06
7.73423705477e-06
7.73829372471e-06
7.74195497805e-06
7.74501773942e-06
7.74731587635e-06
7.74874316166e-06
7.74922837598e-06
7.74874591207e-06
7.74732114812e-06
7.7450250723e-06
7.74196372795e-06
7.73830319567e-06
7.73424740063e-06
7.7289283827e-06
7.74144638864e-06
7.74794674718e-06
7.75282422059e-06
7.75718127199e-06
7.76080338919e-06
7.76350870158e-06
7.76518282635e-06
7.76575069384e-06
7.76518535654e-06
7.76351356246e-06
7.76081018918e-06
7.75718945753e-06
7.75283317625e-06
7.74795661041e-06
7.74145533776e-06
7.75481885738e-06
7.76245238087e-06
7.76809493283e-06
7.77308061768e-06
7.77719981571e-06
7.78026211957e-06
7.78215040138e-06
7.78278956927e-06
7.78215269742e-06
7.78026653531e-06
7.77720601652e-06
7.77308811871e-06
7.76810321018e-06
7.76246156982e-06
7.75482701667e-06
7.76870818055e-06
7.77736635273e-06
7.78368271268e-06
7.78920066926e-06
7.79373235868e-06
7.79708580799e-06
7.79914631627e-06
7.7998423727e-06
7.79914837293e-06
7.79708976588e-06
7.79373792875e-06
7.78920743355e-06
7.78369022682e-06
7.77737474478e-06
7.76871543942e-06
7.78281297978e-06
7.79234010044e-06
7.7992133206e-06
7.80515005358e-06
7.8099972335e-06
7.8135676531e-06
7.81575370006e-06
7.81649070147e-06
7.81575553493e-06
7.81357118571e-06
7.810002205e-06
7.80515608552e-06
7.7992200399e-06
7.79234762637e-06
7.78281919067e-06
7.7968564714e-06
7.80706367008e-06
7.81436365136e-06
7.82060185139e-06
7.82566473903e-06
7.82937607149e-06
7.83164003134e-06
7.83240173514e-06
7.83164168535e-06
7.82937924615e-06
7.82566920738e-06
7.82060724635e-06
7.81436964561e-06
7.80707032997e-06
7.79686163924e-06
7.8105767368e-06
7.82127521938e-06
7.82887683889e-06
7.83530377199e-06
7.84048371146e-06
7.84426010948e-06
7.84655456335e-06
7.84732489485e-06
7.84655608531e-06
7.84426305384e-06
7.84048782756e-06
7.83530871792e-06
7.82888226825e-06
7.82128115204e-06
7.81058096395e-06
7.82392885363e-06
7.8349616557e-06
7.84267592495e-06
7.8491444143e-06
7.85431039541e-06
7.85805291977e-06
7.86031747234e-06
7.86107609868e-06
7.8603189335e-06
7.85805573386e-06
7.85431434394e-06
7.84914909899e-06
7.84268102886e-06
7.83496697912e-06
7.82393237284e-06
7.83792340659e-06
7.8481762197e-06
7.8556938229e-06
7.86199578269e-06
7.8669595191e-06
7.87053063183e-06
7.87268300797e-06
7.87340266979e-06
7.87268441085e-06
7.87053337491e-06
7.86696337928e-06
7.86200039156e-06
7.85569869871e-06
7.84818101378e-06
7.83792662872e-06
8.68578833155e-06
8.68552994964e-06
8.68519512265e-06
8.6848169912e-06
8.68446147172e-06
8.68417384087e-06
8.68398704937e-06
8.68392159264e-06
8.68398549293e-06
8.68417094493e-06
8.68445766674e-06
8.68481260533e-06
8.68518898148e-06
8.68552299172e-06
8.68577950883e-06
8.68630354874e-06
8.68607178278e-06
8.68575901661e-06
8.68540041627e-06
8.68505961411e-06
8.68478203963e-06
8.68460090277e-06
8.6845371992e-06
8.68459925216e-06
8.68477894763e-06
8.685055516e-06
8.68539562957e-06
8.68575264593e-06
8.68606435122e-06
8.6862944165e-06
8.68708786867e-06
8.68689491102e-06
8.68661859315e-06
8.68629058491e-06
8.68597356667e-06
8.68571286548e-06
8.68554172758e-06
8.68548134704e-06
8.6855401318e-06
8.68570985384e-06
8.68596950797e-06
8.68628575205e-06
8.68661234162e-06
8.68688753615e-06
8.68707881338e-06
8.68765908829e-06
8.68748468299e-06
8.68722862337e-06
8.68691779333e-06
8.68661436334e-06
8.68636353723e-06
8.68619839805e-06
8.68614007501e-06
8.68619689937e-06
8.68636068085e-06
8.68661042423e-06
8.68691300603e-06
8.68722255211e-06
8.68747757993e-06
8.68765009521e-06
8.68803202103e-06
8.68786987498e-06
8.68762917047e-06
8.68733377916e-06
8.68704422081e-06
8.68680444074e-06
8.68664640311e-06
8.68659056485e-06
8.68664498274e-06
8.68680171995e-06
8.68704041923e-06
8.68732908944e-06
8.68762325655e-06
8.68786303925e-06
8.68802311901e-06
8.68831381818e-06
8.68817443592e-06
8.68795751311e-06
8.68768815714e-06
8.68742300831e-06
8.68720307378e-06
8.68705797194e-06
8.68700665728e-06
8.68705662938e-06
8.68720048579e-06
8.68741934251e-06
8.68768357494e-06
8.68795177758e-06
8.68816777156e-06
8.68830509653e-06
8.68858477466e-06
8.68848861487e-06
8.68831121547e-06
8.68808432611e-06
8.68785868531e-06
8.68767058102e-06
8.68754611542e-06
8.68750197866e-06
8.68754483996e-06
8.68766811313e-06
8.68785515536e-06
8.68807986261e-06
8.68830565459e-06
8.68848212131e-06
8.68857617712e-06
8.68890423812e-06
8.68887653388e-06
8.68875690544e-06
8.68858993941e-06
8.68841918943e-06
8.68827474825e-06
8.68817838259e-06
8.6881439725e-06
8.68817716327e-06
8.68827237986e-06
8.68841576715e-06
8.6885855596e-06
8.68875146166e-06
8.68887016924e-06
8.68889568958e-06
8.68931638739e-06
8.68938216025e-06
8.68933730296e-06
8.68924514388e-06
8.6891419191e-06
8.68905057053e-06
8.68898812544e-06
8.68896541044e-06
8.68898695207e-06
8.68904828085e-06
8.68913858453e-06
8.6892408275e-06
8.68933192725e-06
8.68937586725e-06
8.68930785939e-06
8.68984946198e-06
8.69002891306e-06
8.6900716492e-06
8.69006416194e-06
8.69003637253e-06
8.69000375504e-06
8.68997860325e-06
8.68996870449e-06
8.68997746219e-06
8.69000152022e-06
8.69003308951e-06
8.69005986573e-06
8.69006628409e-06
8.69002261205e-06
8.68984090485e-06
8.69051563528e-06
8.69082065571e-06
8.69095771296e-06
8.69103865177e-06
8.69108877954e-06
8.69111637306e-06
8.6911292473e-06
8.69113239208e-06
8.6911281314e-06
8.69111417982e-06
8.69108553521e-06
8.69103435809e-06
8.690952335e-06
8.69081431233e-06
8.69050700845e-06
8.6913090625e-06
8.69174221455e-06
8.69197439397e-06
8.69214216373e-06
8.69226801209e-06
8.69235377962e-06
8.69240326592e-06
8.69241893272e-06
8.6924021748e-06
8.69235162278e-06
8.69226479811e-06
8.69213787372e-06
8.69196899525e-06
8.691735837e-06
8.69130040387e-06
8.69220908347e-06
8.69276825681e-06
8.69309176214e-06
8.69333940292e-06
8.69353440736e-06
8.69367333877e-06
8.69375621136e-06
8.69378333077e-06
8.69375514656e-06
8.69367122918e-06
8.69353125114e-06
8.69333514153e-06
8.69308637693e-06
8.69276186218e-06
8.69220041727e-06
8.69326114798e-06
8.69393786479e-06
8.69431379223e-06
8.69461430542e-06
8.69485741373e-06
8.69503445375e-06
8.69514165722e-06
8.69517711829e-06
8.69514062333e-06
8.69503242108e-06
8.69485433713e-06
8.6946101301e-06
8.69430847458e-06
8.69393147427e-06
8.69325261233e-06
8.69484419866e-06
8.69527055684e-06
8.69560460283e-06
8.69590321724e-06
8.69615391868e-06
8.69634055711e-06
8.69645476834e-06
8.69649279617e-06
8.69645376664e-06
8.69633857004e-06
8.69615092986e-06
8.69589911961e-06
8.69559930776e-06
8.69526402835e-06
8.69483579895e-06
7.00666906878e-06
7.00688283611e-06
7.00715018418e-06
7.00742285112e-06
7.00766983549e-06
7.00786440286e-06
7.00798881965e-06
7.00803201622e-06
7.00798976436e-06
7.00786608548e-06
7.00767177287e-06
7.00742413629e-06
7.00715038473e-06
7.00688120213e-06
7.00666712633e-06
7.00693865656e-06
7.00715504002e-06
7.00742800626e-06
7.00770634609e-06
7.00795972575e-06
7.0081599929e-06
7.00828839346e-06
7.0083330757e-06
7.00828943041e-06
7.00816184552e-06
7.00796187039e-06
7.00770783619e-06
7.00742819745e-06
7.00715345158e-06
7.00693631481e-06
7.00703977676e-06
7.00724671761e-06
7.00751338878e-06
7.00778604735e-06
7.00803633909e-06
7.00823497079e-06
7.00836269487e-06
7.00840717899e-06
7.00836362142e-06
7.00823661997e-06
7.00803823003e-06
7.00778736955e-06
7.0075134341e-06
7.00724529543e-06
7.00703736217e-06
7.0071153393e-06
7.00731489555e-06
7.00757694624e-06
7.00784365658e-06
7.00808993728e-06
7.00828591396e-06
7.00841217497e-06
7.0084561458e-06
7.00841294459e-06
7.00828726939e-06
7.00809145248e-06
7.00784465413e-06
7.00757678999e-06
7.00731346383e-06
7.00711288892e-06
7.0071984923e-06
7.00739217807e-06
7.00765158302e-06
7.00791247831e-06
7.00815426952e-06
7.00834700197e-06
7.00847131464e-06
7.00851460162e-06
7.00847195045e-06
7.00834810609e-06
7.00815547829e-06
7.00791319489e-06
7.00765128633e-06
7.00739070469e-06
7.00719601129e-06
7.00727739025e-06
7.00746517846e-06
7.00772306589e-06
7.00797779782e-06
7.00821449068e-06
7.00840333481e-06
7.00852523738e-06
7.00856766153e-06
7.00852573116e-06
7.0084041761e-06
7.00821536095e-06
7.00797820122e-06
7.00772254222e-06
7.0074637046e-06
7.00727473779e-06
7.00734774239e-06
7.00753103307e-06
7.00778915019e-06
7.00803860791e-06
7.00827071559e-06
7.00845598753e-06
7.00857563134e-06
7.00861723824e-06
7.0085759934e-06
7.00845658893e-06
7.00827128265e-06
7.00803873524e-06
7.00778841996e-06
7.00752954116e-06
7.00734497719e-06
7.00741474062e-06
7.00759730039e-06
7.00785872404e-06
7.00810543458e-06
7.00833479157e-06
7.0085178288e-06
7.00863599702e-06
7.00867705014e-06
7.0086362321e-06
7.00851819348e-06
7.00833506477e-06
7.00810528784e-06
7.00785782806e-06
7.00759576362e-06
7.00741195686e-06
7.00748713998e-06
7.00767488968e-06
7.00794369621e-06
7.00819116134e-06
7.00842037675e-06
7.00860305946e-06
7.00872086935e-06
7.00876173978e-06
7.00872099333e-06
7.00860322026e-06
7.00842040083e-06
7.00819078553e-06
7.00794266887e-06
7.00767333019e-06
7.00748431368e-06
7.00757433465e-06
7.00777500521e-06
7.00805537458e-06
7.00830714749e-06
7.00853873272e-06
7.0087227774e-06
7.00884121639e-06
7.0088822211e-06
7.00884124346e-06
7.00872276441e-06
7.00853854269e-06
7.00830658615e-06
7.00805425234e-06
7.00777345798e-06
7.00757150262e-06
7.00768531945e-06
7.00790744397e-06
7.00820260248e-06
7.0084612508e-06
7.00869677313e-06
7.00888314303e-06
7.00900268866e-06
7.00904398058e-06
7.00900264382e-06
7.00888299883e-06
7.00869642787e-06
7.00846054694e-06
7.00820141133e-06
7.00790589158e-06
7.00768245355e-06
7.00782524876e-06
7.00807754967e-06
7.00838947341e-06
7.00865627456e-06
7.00889624287e-06
7.00908501932e-06
7.00920560894e-06
7.00924713193e-06
7.00920551734e-06
7.00908479312e-06
7.00889579334e-06
7.00865548804e-06
7.00838824229e-06
7.00807598305e-06
7.00782232645e-06
7.00799451014e-06
7.0082861874e-06
7.00861583341e-06
7.0088907659e-06
7.00913493348e-06
7.00932573628e-06
7.00944693791e-06
7.00948855749e-06
7.00944682495e-06
7.00932546548e-06
7.00913445077e-06
7.00888994142e-06
7.00861459811e-06
7.00828460436e-06
7.00799154736e-06
7.00823731151e-06
7.00857543314e-06
7.00890373139e-06
7.00917533552e-06
7.00941574455e-06
7.00960257036e-06
7.00972064631e-06
7.00976101577e-06
7.00972052388e-06
7.00960231406e-06
7.00941526297e-06
7.00917454124e-06
7.00890252283e-06
7.00857381606e-06
7.00823428856e-06
7.00888608122e-06
7.00908780661e-06
7.00932973571e-06
7.00954131399e-06
7.00973579034e-06
7.00988799877e-06
7.00998420031e-06
7.01001708384e-06
7.00998408784e-06
7.00988774323e-06
7.00973534532e-06
7.00954054938e-06
7.00932853001e-06
7.00908607075e-06
7.00888312484e-06
6.8931363788e-06
6.89303881259e-06
6.89292668109e-06
6.89279923348e-06
6.89268189743e-06
6.89258701751e-06
6.89252521047e-06
6.89250328241e-06
6.89252404431e-06
6.89258497897e-06
6.89267954104e-06
6.89279656493e-06
6.89292305301e-06
6.89303510639e-06
6.89313112968e-06
6.8932884821e-06
6.89319977427e-06
6.8930940487e-06
6.89297167841e-06
6.89285792064e-06
6.89276523304e-06
6.8927045837e-06
6.89268299555e-06
6.89270338894e-06
6.89276312939e-06
6.89285544218e-06
6.89296890532e-06
6.89309038104e-06
6.89319576658e-06
6.89328304698e-06
6.89353721838e-06
6.89346147632e-06
6.89336808343e-06
6.89325504616e-06
6.89314829089e-06
6.89306026163e-06
6.89300231645e-06
6.89298162392e-06
6.89300115306e-06
6.893058179e-06
6.89314575196e-06
6.89325217451e-06
6.89336447358e-06
6.89345744998e-06
6.89353191042e-06
6.89374122462e-06
6.89367165599e-06
6.89358620316e-06
6.89347838567e-06
6.89337537466e-06
6.89328961706e-06
6.89323294154e-06
6.89321267918e-06
6.893231829e-06
6.89328758706e-06
6.89337279755e-06
6.89347544663e-06
6.89358265698e-06
6.89366776544e-06
6.89373602958e-06
6.89389269008e-06
6.89382418205e-06
6.89374304189e-06
6.89363729444e-06
6.89353566741e-06
6.89345059875e-06
6.89339424417e-06
6.89337409615e-06
6.8933931811e-06
6.89344863635e-06
6.89353311886e-06
6.89363436374e-06
6.89373957447e-06
6.89382047724e-06
6.89388760992e-06
6.89400807361e-06
6.89393834746e-06
6.89385982188e-06
6.89375494384e-06
6.89365394984e-06
6.8935691903e-06
6.89351299093e-06
6.89349291573e-06
6.89351198627e-06
6.89356731674e-06
6.89365146354e-06
6.89375206202e-06
6.89385646536e-06
6.89393473665e-06
6.89400319987e-06
6.89409752492e-06
6.89402585531e-06
6.89394980374e-06
6.89384596635e-06
6.89374602629e-06
6.89366213162e-06
6.8936065102e-06
6.8935866678e-06
6.8936055677e-06
6.89366036265e-06
6.89374364524e-06
6.89384317957e-06
6.89394659751e-06
6.89402237106e-06
6.89409280954e-06
6.89416863688e-06
6.89409602649e-06
6.89402360482e-06
6.89392218018e-06
6.89382475293e-06
6.89374307488e-06
6.89368896916e-06
6.89366969646e-06
6.89368809161e-06
6.89374141797e-06
6.89382248924e-06
6.89391949182e-06
6.89402051676e-06
6.89409265504e-06
6.89416400619e-06
6.89422953772e-06
6.89415870543e-06
6.89409217748e-06
6.89399560423e-06
6.89390305592e-06
6.89382564443e-06
6.89377442859e-06
6.89375621197e-06
6.89377361697e-06
6.89382410169e-06
6.89390092313e-06
6.89399303189e-06
6.89408920032e-06
6.89415543531e-06
6.8942249898e-06
6.89428883803e-06
6.89422392706e-06
6.89416625917e-06
6.89407763415e-06
6.89399287548e-06
6.89392219256e-06
6.89387551351e-06
6.89385892532e-06
6.89387476248e-06
6.89392075773e-06
6.89399086128e-06
6.89407516071e-06
6.89416336163e-06
6.89422070717e-06
6.89428435753e-06
6.89435467418e-06
6.89430065289e-06
6.89425492303e-06
6.89417743545e-06
6.8941034954e-06
6.8940421217e-06
6.89400168295e-06
6.89398732579e-06
6.89400098743e-06
6.89404078234e-06
6.89410159532e-06
6.89417505282e-06
6.8942521011e-06
6.89429747085e-06
6.89435025101e-06
6.89443295064e-06
6.89439501098e-06
6.89436385221e-06
6.89430035538e-06
6.89424016732e-06
6.89419060138e-06
6.89415809719e-06
6.89414654148e-06
6.89415744875e-06
6.89418934717e-06
6.89423835349e-06
6.89429805567e-06
6.89436109001e-06
6.8943918841e-06
6.89442862007e-06
6.89452891636e-06
6.8945112092e-06
6.89449572758e-06
6.89444807848e-06
6.89440412804e-06
6.89436871693e-06
6.8943456515e-06
6.89433746826e-06
6.89434504451e-06
6.89436751825e-06
6.8944024059e-06
6.89444583313e-06
6.89449302664e-06
6.89450812761e-06
6.89452469096e-06
6.8946716235e-06
6.89467478671e-06
6.89466407932e-06
6.89462741794e-06
6.89459783531e-06
6.89457545441e-06
6.89456129236e-06
6.89455621531e-06
6.89456070498e-06
6.894574326e-06
6.89459615524e-06
6.89462524967e-06
6.89466141589e-06
6.89467174334e-06
6.89466755261e-06
6.89499312021e-06
6.8949290281e-06
6.89488524439e-06
6.89483892225e-06
6.89480927192e-06
6.89478935129e-06
6.89477740133e-06
6.89477322757e-06
6.89477683257e-06
6.89478822306e-06
6.89480762399e-06
6.89483673294e-06
6.89488254975e-06
6.89492584971e-06
6.89498914411e-06
5.96713097271e-06
5.96719898566e-06
5.96728276614e-06
5.96736909128e-06
5.96744776885e-06
5.96751009897e-06
5.96755028585e-06
5.96756460473e-06
5.96755160666e-06
5.96751255247e-06
5.96745096532e-06
5.96737249668e-06
5.96728602163e-06
5.9672013649e-06
5.96713355906e-06
5.96724635307e-06
5.96731622439e-06
5.96740284848e-06
5.96749171992e-06
5.96757299733e-06
5.96763755464e-06
5.96767927015e-06
5.96769416399e-06
5.96768066843e-06
5.96764015111e-06
5.96757636796e-06
5.96749527989e-06
5.96740613557e-06
5.96731868188e-06
5.96724863189e-06
5.96731345465e-06
5.96738195455e-06
5.96746814869e-06
5.96755642137e-06
5.9676376792e-06
5.96770237526e-06
5.96774425014e-06
5.96775917884e-06
5.9677455466e-06
5.96770478474e-06
5.96764081731e-06
5.96755978991e-06
5.96747126278e-06
5.96738451701e-06
5.9673156552e-06
5.96736828559e-06
5.96743628291e-06
5.96752248731e-06
5.9676102234e-06
5.96769130158e-06
5.96775594441e-06
5.96779781612e-06
5.96781270382e-06
5.96779897746e-06
5.96775810549e-06
5.96769412416e-06
5.96761328336e-06
5.96752536852e-06
5.96743876465e-06
5.96737045371e-06
5.96742377606e-06
5.96749202648e-06
5.96757896128e-06
5.9676664334e-06
5.96774738501e-06
5.96781195241e-06
5.96785376914e-06
5.96786860225e-06
5.96785481134e-06
5.9678138928e-06
5.96774993726e-06
5.96766922637e-06
5.9675816709e-06
5.96749441075e-06
5.96742589342e-06
5.96747805372e-06
5.96754660446e-06
5.96763465294e-06
5.96772168509e-06
5.96780225909e-06
5.96786648737e-06
5.9679080643e-06
5.96792277318e-06
5.96790899237e-06
5.96786821829e-06
5.96780454339e-06
5.96772420208e-06
5.96763712028e-06
5.96754892071e-06
5.96747998516e-06
5.96752917774e-06
5.96759819055e-06
5.96768741303e-06
5.96777379191e-06
5.96785368555e-06
5.9679172841e-06
5.96795841175e-06
5.96797292278e-06
5.96795923303e-06
5.96791882179e-06
5.96785572725e-06
5.96777607061e-06
5.96768967069e-06
5.96760043214e-06
5.96753096453e-06
5.96757707709e-06
5.96764692068e-06
5.96773734668e-06
5.96782291724e-06
5.96790183958e-06
5.96796454616e-06
5.96800503493e-06
5.96801928496e-06
5.96800575803e-06
5.96796590386e-06
5.96790365572e-06
5.96782496786e-06
5.96773942078e-06
5.9676490547e-06
5.96757879072e-06
5.96762248297e-06
5.96769363506e-06
5.96778536724e-06
5.96787001717e-06
5.96794773866e-06
5.96800934736e-06
5.9680490504e-06
5.96806299117e-06
5.96804968879e-06
5.96801055004e-06
5.96794936618e-06
5.96787188284e-06
5.96778730262e-06
5.96769569164e-06
5.96762409067e-06
5.96766640998e-06
5.96773977509e-06
5.96783293958e-06
5.96791655938e-06
5.96799286725e-06
5.96805318574e-06
5.96809198156e-06
5.96810556885e-06
5.96809254629e-06
5.96805425819e-06
5.96799433003e-06
5.96791827067e-06
5.9678347622e-06
5.96774177725e-06
5.96766794243e-06
5.96771051072e-06
5.96778737619e-06
5.96788198236e-06
5.96796437681e-06
5.96803899875e-06
5.96809783886e-06
5.96813559582e-06
5.9681487956e-06
5.96813610436e-06
5.96809880713e-06
5.96804033916e-06
5.96796596378e-06
5.96788371712e-06
5.96778931551e-06
5.96771193733e-06
5.96775609311e-06
5.96783821859e-06
5.96793421293e-06
5.96801514069e-06
5.96808789017e-06
5.96814509827e-06
5.96818175062e-06
5.96819452686e-06
5.96818221478e-06
5.96814599459e-06
5.96808912611e-06
5.96801663882e-06
5.96793587153e-06
5.96784008406e-06
5.96775739382e-06
5.96780438556e-06
5.96789387352e-06
5.96799107426e-06
5.96807034311e-06
5.96814122947e-06
5.96819695918e-06
5.96823253288e-06
5.96824493891e-06
5.96823297179e-06
5.96819778413e-06
5.96814241148e-06
5.96807175284e-06
5.96799267128e-06
5.96789565335e-06
5.96780556424e-06
5.96787479175e-06
5.96797310196e-06
5.96806416118e-06
5.96813761492e-06
5.9682041768e-06
5.96825652256e-06
5.9682899218e-06
5.968301508e-06
5.96829032645e-06
5.96825732751e-06
5.96820528493e-06
5.96813898845e-06
5.96806568434e-06
5.96797477763e-06
5.96787579325e-06
5.96809335945e-06
5.96813766888e-06
5.96818979253e-06
5.96823588962e-06
5.96828171875e-06
5.96831860476e-06
5.96834224878e-06
5.96835051506e-06
5.96834264129e-06
5.96831935315e-06
5.96828279229e-06
5.96823718391e-06
5.96819123977e-06
5.96813918592e-06
5.96809433973e-06
5.50386393057e-06
5.50384138463e-06
5.50381676392e-06
5.50378678421e-06
5.50375837536e-06
5.50373486269e-06
5.50371948284e-06
5.5037140204e-06
5.50371920254e-06
5.50373434967e-06
5.50375771809e-06
5.50378628248e-06
5.5038167195e-06
5.50384211811e-06
5.50386357697e-06
5.50394131289e-06
5.50392238183e-06
5.50390050854e-06
5.50387278244e-06
5.50384605083e-06
5.50382366232e-06
5.50380890056e-06
5.5038036262e-06
5.50380859729e-06
5.50382310362e-06
5.50384534646e-06
5.50387223571e-06
5.50390044111e-06
5.50392296486e-06
5.50394092666e-06
5.50404147416e-06
5.50402676448e-06
5.50400871065e-06
5.50398385766e-06
5.5039593529e-06
5.50393849391e-06
5.50392461432e-06
5.503919629e-06
5.50392432174e-06
5.50393796347e-06
5.50395870253e-06
5.50398336112e-06
5.50400868031e-06
5.50402721879e-06
5.50404112863e-06
5.50412217547e-06
5.50410920732e-06
5.50409347791e-06
5.50406993843e-06
5.50404644875e-06
5.50402623476e-06
5.50401269815e-06
5.5040078272e-06
5.50401243237e-06
5.50402576741e-06
5.50404590989e-06
5.50406957075e-06
5.50409352061e-06
5.50410968704e-06
5.50412183275e-06
5.50418384574e-06
5.50417092989e-06
5.50415637198e-06
5.50413309047e-06
5.50410977943e-06
5.50408961044e-06
5.50407606202e-06
5.50407119147e-06
5.50407583279e-06
5.50408921881e-06
5.5041093571e-06
5.50413285702e-06
5.50415649566e-06
5.50417148834e-06
5.50418354558e-06
5.5042321235e-06
5.50421854608e-06
5.50420449162e-06
5.50418100186e-06
5.50415752373e-06
5.50413718834e-06
5.50412351566e-06
5.50411861473e-06
5.50412333342e-06
5.504136891e-06
5.50415724154e-06
5.50418092698e-06
5.50420472927e-06
5.50421912443e-06
5.50423194811e-06
5.50427031742e-06
5.5042557029e-06
5.50424198136e-06
5.50421822167e-06
5.50419454949e-06
5.50417407854e-06
5.50416032254e-06
5.5041554125e-06
5.50416019099e-06
5.50417387941e-06
5.50419440203e-06
5.50421828878e-06
5.50424233858e-06
5.50425631525e-06
5.50427021831e-06
5.50430086306e-06
5.50428533772e-06
5.5042721356e-06
5.50424833123e-06
5.50422471128e-06
5.50420435355e-06
5.50419069597e-06
5.50418584365e-06
5.50419061712e-06
5.50420425418e-06
5.50422469347e-06
5.50424852006e-06
5.50427257035e-06
5.50428596819e-06
5.5043007564e-06
5.50432619423e-06
5.50431043962e-06
5.50429821606e-06
5.50427488091e-06
5.50425180037e-06
5.50423198279e-06
5.50421871709e-06
5.50421402408e-06
5.50421868499e-06
5.50423196803e-06
5.50425188492e-06
5.50427515665e-06
5.50429868888e-06
5.50431105927e-06
5.50432606657e-06
5.50434887753e-06
5.50433399618e-06
5.50432337819e-06
5.50430119227e-06
5.50427928269e-06
5.50426056223e-06
5.5042480647e-06
5.50424366441e-06
5.50424807032e-06
5.50426061275e-06
5.50427944015e-06
5.50430151006e-06
5.50432383968e-06
5.50433454761e-06
5.50434869086e-06
5.5043713039e-06
5.50435866842e-06
5.50435033934e-06
5.50433002455e-06
5.50430999713e-06
5.50429299681e-06
5.50428169427e-06
5.50427773206e-06
5.50428172264e-06
5.50429308673e-06
5.50431018738e-06
5.50433034317e-06
5.50435075687e-06
5.50435912719e-06
5.50437103983e-06
5.50439513394e-06
5.50438631854e-06
5.5043809113e-06
5.50436316612e-06
5.504345792e-06
5.5043312245e-06
5.50432159976e-06
5.50431824379e-06
5.50432163808e-06
5.50433131948e-06
5.50434597979e-06
5.50436344414e-06
5.50438124741e-06
5.50438668184e-06
5.50439480553e-06
5.50442189596e-06
5.5044183994e-06
5.50441619335e-06
5.50440152468e-06
5.50438764702e-06
5.50437630932e-06
5.50436892824e-06
5.50436636664e-06
5.50436895545e-06
5.50437639232e-06
5.50438779029e-06
5.50440173146e-06
5.50441642941e-06
5.50441864938e-06
5.50442150563e-06
5.50446371652e-06
5.50446601e-06
5.50446248558e-06
5.50444886278e-06
5.50443767867e-06
5.50442920675e-06
5.50442385442e-06
5.50442202215e-06
5.50442386115e-06
5.50442924004e-06
5.50443775391e-06
5.50444896093e-06
5.50446258951e-06
5.50446611829e-06
5.50446326444e-06
5.50458310585e-06
5.50455244384e-06
5.50453087391e-06
5.50450872202e-06
5.50449356244e-06
5.50448303838e-06
5.5044766915e-06
5.5044745456e-06
5.50447665566e-06
5.50448298729e-06
5.50449350754e-06
5.50450864803e-06
5.50453077338e-06
5.50455231705e-06
5.50458257108e-06
4.85513251289e-06
4.85514620719e-06
4.85516513966e-06
4.85518498404e-06
4.8552035529e-06
4.85521841198e-06
4.85522806158e-06
4.85523163858e-06
4.85522885073e-06
4.8552199825e-06
4.85520587725e-06
4.85518783158e-06
4.8551681535e-06
4.8551486291e-06
4.85513471991e-06
4.85518302741e-06
4.85519801139e-06
4.85521855473e-06
4.85523972177e-06
4.85525951533e-06
4.85527535263e-06
4.8552856442e-06
4.8552894592e-06
4.85528647199e-06
4.85527699786e-06
4.85526194451e-06
4.85524269697e-06
4.85522167366e-06
4.85520060833e-06
4.85518505956e-06
4.85523079703e-06
4.85524694902e-06
4.85526895461e-06
4.85529106812e-06
4.85531174402e-06
4.85532823779e-06
4.85533895974e-06
4.8553429151e-06
4.85533976e-06
4.85532982401e-06
4.85531406789e-06
4.85529393016e-06
4.85527195456e-06
4.8552496304e-06
4.85523282632e-06
4.8552716792e-06
4.85528886251e-06
4.85531207652e-06
4.85533489716e-06
4.8553561727e-06
4.85537309235e-06
4.85538408599e-06
4.8553881217e-06
4.85538484451e-06
4.85537459152e-06
4.85535835684e-06
4.85533760475e-06
4.85531497597e-06
4.85529155589e-06
4.85527381896e-06
4.85530850406e-06
4.85532652068e-06
4.85535084122e-06