/*--------------------------------*- C++ -*----------------------------------*\
  =========                 |
  \\      /  F ield         | OpenFOAM: The Open Source CFD Toolbox
   \\    /   O peration     | Website:  https://openfoam.org
    \\  /    A nd           | Version:  7
     \\/     M anipulation  |
\*---------------------------------------------------------------------------*/
FoamFile
{
    version     2.0;
    format      ascii;
    class       surfaceScalarField;
    location    "1.72";
    object      phi;
}
// * * * * * * * * * * * * * * * * * * * * * * * * * * * * * * * * * * * * * //

dimensions      [0 3 -1 0 0 0 0];

internalField   nonuniform List<scalar> 
65775
(
2.13851169742e-11
3.91393518148e-09
6.13889361149e-10
8.0575686732e-14
3.1086845745e-11
4.09633430517e-09
6.78872546845e-10
3.64345993959e-11
4.25111749922e-09
7.40353241065e-10
3.54965217935e-11
4.38472536306e-09
7.95461068133e-10
2.9513802958e-11
4.49098101385e-09
8.41480704657e-10
1.94678566751e-11
4.56863826967e-09
8.76170559754e-10
6.85680863758e-12
4.6174117138e-09
8.98059606829e-10
-6.66795369285e-12
4.63589734605e-09
9.0592846558e-10
-1.92871261965e-11
4.61737302237e-09
8.9805960556e-10
-2.93484784099e-11
4.56856294119e-09
8.76170618093e-10
-3.53555066116e-11
4.49087043516e-09
8.41480904678e-10
-3.63248588547e-11
4.38458871708e-09
7.95461489856e-10
-3.10161584467e-11
4.25096357944e-09
7.40354297065e-10
-2.13426928182e-11
4.09619337477e-09
6.78877257508e-10
3.91385122678e-09
6.1391125971e-10
9.22963183527e-14
5.68870537712e-11
6.658530706e-09
1.5325263523e-09
1.83925767252e-13
9.28873174252e-11
6.94186452651e-09
1.68740753782e-09
1.09187114342e-10
7.18180970789e-09
1.8325368134e-09
1.07333869059e-10
7.38539917499e-09
1.96162866413e-09
8.94361605059e-11
7.54637785885e-09
2.06875255235e-09
5.90518712819e-11
7.66326137606e-09
2.14912786847e-09
2.07379989655e-11
7.73659123612e-09
2.19970345642e-09
-2.02769413877e-11
7.76456033955e-09
2.21787053769e-09
-5.86102543906e-11
7.73650248829e-09
2.19970392283e-09
-8.90324045268e-11
7.66308788266e-09
2.1491288529e-09
-1.06987511689e-10
7.54612464147e-09
2.0687541293e-09
-1.08915896297e-10
7.38508270497e-09
1.9616308658e-09
-9.27028464065e-11
7.18145373927e-09
1.8325406405e-09
-5.67752323889e-11
6.94152581233e-09
1.68742117378e-09
6.65829730593e-09
1.53257910578e-09
2.21987934293e-13
8.69468391983e-11
8.4784198642e-09
2.21188168943e-09
2.59049061411e-13
1.44801130819e-10
8.80536430624e-09
2.43146346567e-09
1.6995308132e-10
9.08297505847e-09
2.63576240637e-09
1.66878952379e-10
9.3134820012e-09
2.81649196618e-09
1.38828830352e-10
9.49452722375e-09
2.96579706058e-09
9.15455525203e-11
9.6249617241e-09
3.07744646224e-09
3.21058526207e-11
9.70668902598e-09
3.14753263371e-09
-3.14334822981e-11
9.73810444798e-09
3.1726612475e-09
-9.09016741883e-11
9.70656645841e-09
3.14753304122e-09
-1.38240923228e-10
9.62472229204e-09
3.07744732891e-09
-1.66374469558e-10
9.49417916543e-09
2.96579837942e-09
-1.69557021855e-10
9.31304548892e-09
2.81649364544e-09
-1.44526568454e-10
9.082483608e-09
2.6357656192e-09
-8.67801089752e-11
8.80488674477e-09
2.43147899731e-09
8.47806672749e-09
2.21194855919e-09
3.21369949168e-13
1.13172707499e-10
9.55971174943e-09
2.70899404267e-09
3.06619529832e-13
1.88511688138e-10
9.8910700721e-09
2.97564892253e-09
2.21022521048e-10
1.01730462378e-08
3.22204606533e-09
2.16508643521e-10
1.04016938813e-08
3.43884872402e-09
1.79772260221e-10
1.05796282813e-08
3.61717478059e-09
1.18364575954e-10
1.07066435044e-08
3.75008546411e-09
4.14603399537e-11
1.07860963692e-08
3.83330922574e-09
-4.06400162777e-11
1.08169379428e-08
3.86308133048e-09
-1.17579090401e-10
1.07859557283e-08
3.83330890032e-09
-1.79055348634e-10
1.07063685158e-08
3.75008481845e-09
-2.15892688219e-10
1.05792298859e-08
3.61717363544e-09
-2.20535436382e-10
1.04011940187e-08
3.43884673311e-09
-1.88167185632e-10
1.0172480396e-08
3.22204410889e-09
-1.12956965705e-10
9.89051049661e-09
2.9756581395e-09
9.55927026539e-09
2.70905667315e-09
3.98416392743e-13
1.35392220925e-10
1.00582858113e-08
3.05424799301e-09
3.34424694678e-13
2.24900235072e-10
1.03680785346e-08
3.35405557163e-09
2.63460316103e-10
1.06325213064e-08
3.62914527701e-09
2.57544204929e-10
1.084136633e-08
3.86984066201e-09
2.13487667656e-10
1.10019459299e-08
4.06692436096e-09
1.40375530856e-10
1.1115303852e-08
4.21330863966e-09
4.91177956681e-11
1.11860670741e-08
4.30472199942e-09
-4.81963350633e-11
1.12138758847e-08
4.33733896077e-09
-1.39493188304e-10
1.11859209857e-08
4.30472058519e-09
-2.12682060598e-10
1.11150185201e-08
4.21330555382e-09
-2.56850409425e-10
1.10015333211e-08
4.0669191488e-09
-2.62906754629e-10
1.08408486751e-08
3.86983254641e-09
-2.2450001261e-10
1.06319312847e-08
3.62913442617e-09
-1.35131679679e-10
1.03674880199e-08
3.35405236314e-09
1.00577983108e-08
3.05429449906e-09
4.60313698745e-13
1.54060213432e-10
1.01054646359e-08
3.27174601103e-09
3.4785270748e-13
2.54873763782e-10
1.03780526008e-08
3.59366577137e-09
2.9821562481e-10
1.06119903622e-08
3.88692080062e-09
2.90951118677e-10
1.07912678111e-08
4.14201207243e-09
2.40808644532e-10
1.09270186649e-08
4.3499023006e-09
1.58149701779e-10
1.10215611207e-08
4.50375740877e-09
5.5285595157e-11
1.1080432241e-08
4.59955787126e-09
-5.42969891383e-11
1.11039342868e-08
4.63363707323e-09
-1.57202690204e-10
1.10802923411e-08
4.59955497396e-09
-2.39943037412e-10
1.10212878679e-08
4.50375116944e-09
-2.90202808218e-10
1.09266241951e-08
4.34989190596e-09
-2.97612306894e-10
1.07907726387e-08
4.14199617043e-09
-2.5442635437e-10
1.06114229928e-08
3.88689859949e-09
-1.53756198711e-10
1.03774763408e-08
3.5936466191e-09
1.01049724549e-08
3.27177122277e-09
5.1119350687e-13
1.6975733636e-10
9.81163304105e-09
3.38184102917e-09
3.51067134005e-13
2.79386648235e-10
1.00394801148e-08
3.71727803634e-09
3.26320864951e-10
1.02367185972e-08
4.02062617528e-09
3.1774150696e-10
1.03826323517e-08
4.28291910472e-09
2.62588955162e-10
1.04909984201e-08
4.49565497461e-09
1.7226152602e-10
1.05652271832e-08
4.65251749764e-09
6.01694976624e-11
1.06113175448e-08
4.74989049894e-09
-5.91372116283e-11
1.06300971223e-08
4.7844070438e-09
-1.7127189708e-10
1.06111928955e-08
4.74988607799e-09
-2.6168243942e-10
1.05649837866e-08
4.65250799712e-09
-3.16953587062e-10
1.04906475769e-08
4.49563916185e-09
-3.25677430187e-10
1.03821915129e-08
4.28289495535e-09
-2.788965859e-10
1.02362104223e-08
4.02059186614e-09
-1.69408928523e-10
1.00389587057e-08
3.7172421534e-09
9.81117537947e-09
3.38184427831e-09
5.55620105958e-13
1.82887350641e-10
9.26901082518e-09
3.40229253514e-09
3.46496940209e-13
2.99238566699e-10
9.45057541288e-09
3.74477399249e-09
3.48741373521e-10
9.60979530311e-09
4.05226946278e-09
3.38902402649e-10
9.7226718438e-09
4.31656222727e-09
2.79675642089e-10
9.80445828111e-09
4.52990145978e-09
1.83282938998e-10
9.85934408782e-09
4.68663425497e-09
6.39736694113e-11
9.89332265342e-09
4.78361456661e-09
-6.29125034522e-11
9.90754778371e-09
4.81785025463e-09
-1.82264294821e-10
9.8932203185e-09
4.78360879309e-09
-2.78739349605e-10
9.85914452242e-09
4.68662183062e-09
-3.38082685329e-10
9.80417085565e-09
4.52988071534e-09
-3.48061828246e-10
9.72231042971e-09
4.31653044999e-09
-2.98706154295e-10
9.60937574567e-09
4.05222389685e-09
-1.82492137854e-10
9.45014155238e-09
3.74472298626e-09
9.26862188512e-09
3.40227627957e-09
5.96069147956e-13
1.93735714921e-10
8.5538727265e-09
3.34875752892e-09
3.36510545833e-13
3.15111469152e-10
8.69168348442e-09
3.69362617961e-09
3.66387498161e-10
8.81480555031e-09
4.00112680809e-09
3.55401983228e-10
8.89758649869e-09
4.26389557907e-09
2.92911453012e-10
8.95570404296e-09
4.47503371961e-09
1.91784010765e-10
8.99373141942e-09
4.62960270878e-09
6.69011079459e-11
9.01721509982e-09
4.72492839429e-09
-6.58183862329e-11
9.02741554122e-09
4.75841845231e-09
-1.90742609439e-10
9.01713990734e-09
4.72492163005e-09
-2.91949719803e-10
8.99358509663e-09
4.62958810855e-09
-3.54552104927e-10
8.95549375976e-09
4.4750092164e-09
-3.65670959888e-10
8.89732161406e-09
4.26385784157e-09
-3.1453375886e-10
8.81449554591e-09
4.00107236372e-09
-1.93289975574e-10
8.69136150858e-09
3.69356371179e-09
8.55358072979e-09
3.34872648173e-09
6.34977623139e-13
2.02530878579e-10
7.72852198346e-09
3.23497938496e-09
3.22840911908e-13
3.27630285496e-10
7.82750806656e-09
3.57907892286e-09
3.80165495795e-10
7.91833709207e-09
3.88391471872e-09
3.68229131621e-10
7.97542243896e-09
4.14299012607e-09
3.03159923722e-10
8.01394773649e-09
4.35027177554e-09
1.98345414279e-10
8.03839750316e-09
4.50151700912e-09
6.91574685398e-11
8.05348966153e-09
4.59448034277e-09
-6.80539992664e-11
8.06038704959e-09
4.62695949701e-09
-1.97281207015e-10
8.05344419396e-09
4.59447313982e-09
-3.02171125352e-10
8.03830952002e-09
4.50150139576e-09
-3.67345674154e-10
8.01382207721e-09
4.35024538693e-09
-3.79406924999e-10
7.97526423253e-09
4.14294915415e-09
-3.27001773081e-10
7.91814943844e-09
3.88385523089e-09
-2.0202944422e-10
7.82731429688e-09
3.57901040863e-09
7.72834674215e-09
3.2349399571e-09
6.7436249598e-13
2.09452028379e-10
6.84317439864e-09
3.0728635168e-09
3.07077097405e-13
3.37416881483e-10
6.90921774163e-09
3.41422348931e-09
3.91043676641e-10
6.97239200486e-09
3.71487100351e-09
3.78437179953e-10
7.00886273937e-09
3.96912358667e-09
3.11321636726e-10
7.03240459912e-09
4.17176409173e-09
2.03561093046e-10
7.04685348115e-09
4.31918101865e-09
7.09505140383e-11
7.05580984814e-09
4.40948711668e-09
-6.98215218951e-11
7.06019362482e-09
4.44083875687e-09
-2.02468647257e-10
7.05579446636e-09
4.40948023489e-09
-3.10299228399e-10
7.04682482393e-09
4.31916600971e-09
-3.77512444045e-10
7.03236531921e-09
4.17173845656e-09
-3.9023497989e-10
7.00881421697e-09
3.96908322687e-09
-3.36730139018e-10
6.97233199593e-09
3.71481172714e-09
-2.08888920469e-10
6.90916054233e-09
3.41415583277e-09
6.84312734968e-09
3.0728234767e-09
7.1615317997e-13
2.14632884855e-10
5.93778613648e-09
2.87253147078e-09
2.89471478981e-13
3.45242897007e-10
5.97633239694e-09
3.21007078142e-09
4.00199637949e-10
6.01670665621e-09
3.50585482359e-09
3.87205386093e-10
6.03797486184e-09
3.75490949841e-09
3.18336248211e-10
6.05129556808e-09
3.9527447984e-09
2.08022401267e-10
6.05926205207e-09
4.09628984625e-09
7.24826610685e-11
6.06424510107e-09
4.18393213186e-09
-7.131886073e-11
6.06687754011e-09
4.21414372619e-09
-2.06891935254e-10
6.0642583408e-09
4.18392655512e-09
-3.17269916847e-10
6.05928950258e-09
4.09627755109e-09
-3.8622874147e-10
6.05133877103e-09
3.95272338465e-09
-3.99330752985e-10
6.03803242807e-09
3.75487479104e-09
-3.44489659054e-10
6.01677241507e-09
3.50580239429e-09
-2.14002245359e-10
5.97641254618e-09
3.21001200542e-09
5.9378718513e-09
2.8724995256e-09
7.62290214804e-13
2.18452149718e-10
5.04352910793e-09
2.64239154953e-09
2.70905904133e-13
3.52530104516e-10
5.05828085468e-09
2.97566808235e-09
4.0924087044e-10
5.08118857377e-09
3.26650921968e-09
3.95811869915e-10
5.09300290752e-09
3.51049979734e-09
3.25072707461e-10
5.10069028455e-09
3.7037733616e-09
2.12229638528e-10
5.10529979733e-09
3.84370076131e-09
7.39176056046e-11
5.10815716465e-09
3.92885756958e-09
-7.27064592254e-11
5.10969929421e-09
3.95798378872e-09
-2.11048773366e-10
5.10819539978e-09
3.92885447104e-09
-3.23949873973e-10
5.10537706075e-09
3.84369371247e-09
-3.94771384466e-10
5.1008070838e-09
3.70376038471e-09
-4.08301405898e-10
5.09315697431e-09
3.51047692952e-09
-3.51702811152e-10
5.08137137874e-09
3.26647156651e-09
-2.1774944181e-10
5.05849213084e-09
2.9756267043e-09
5.04374403262e-09
2.64237588636e-09
8.10425743462e-13
2.2284034406e-10
4.18285088135e-09
2.38923924153e-09
2.51657040625e-13
3.62029153591e-10
4.17639021871e-09
2.71829684358e-09
4.19907173888e-10
4.1890852036e-09
3.00450426918e-09
4.05040760389e-10
4.19718142226e-09
3.24386136932e-09
3.31842854738e-10
4.20293584772e-09
3.43304630977e-09
2.16302270313e-10
4.20647078344e-09
3.56977517692e-09
7.52894289138e-11
4.20853487576e-09
3.65272666793e-09
-7.40173044607e-11
4.20948046606e-09
3.68085984963e-09
-2.15057572153e-10
4.20859349462e-09
3.65272723756e-09
-3.30651130434e-10
4.20658826534e-09
3.56977596405e-09
-4.03925428248e-10
4.20311242329e-09
3.43304619315e-09
-4.18888813424e-10
4.1974151687e-09
3.2438571755e-09
-3.61122487568e-10
4.18936895255e-09
3.00449049631e-09
-2.22063994363e-10
4.17671974654e-09
2.71828148186e-09
4.18318009116e-09
2.38924563952e-09
8.61878876307e-13
2.37327001475e-10
2.11882973862e-09
2.3154357859e-13
3.36291101491e-09
3.79428290174e-10
2.44419986129e-09
3.34958790776e-09
4.34279661058e-10
2.7261121112e-09
3.36098173273e-09
4.1544428151e-10
2.96126630553e-09
3.36899952103e-09
3.38754459617e-10
3.14682237003e-09
3.37456355249e-09
2.20251919626e-10
3.28075256052e-09
3.37814047512e-09
7.65946919888e-11
3.3617644729e-09
3.38015118589e-09
-7.52490703525e-11
3.38899372117e-09
3.38082148311e-09
-2.18932187065e-10
3.36176930537e-09
3.38022493813e-09
-3.3748479379e-10
3.28076250156e-09
3.37828821842e-09
-4.14247955258e-10
3.14683752556e-09
3.3747849902e-09
-4.33178865896e-10
2.96128526606e-09
3.36929377914e-09
-3.7844364102e-10
2.72612925651e-09
3.36134453715e-09
-2.36483347844e-10
2.44422272419e-09
3.35001412437e-09
2.11885270239e-09
9.13668067289e-13
3.36333964032e-09
-7.55608245165e-12
2.59294596396e-10
3.6221472592e-10
1.5797335014e-14
-1.00910682948e-11
2.83458714636e-10
3.98080166162e-10
-1.09193091924e-11
3.09794104848e-10
4.31514911018e-10
-1.03703630323e-11
3.33785525655e-10
4.61240207734e-10
-8.51949540096e-12
3.53801151779e-10
4.85909470938e-10
-5.59714148993e-12
3.68883508468e-10
5.04424987455e-10
-1.9515835853e-12
3.7838246513e-10
5.16086755613e-10
1.95245149631e-12
3.81788022219e-10
5.20292374416e-10
5.60472664089e-12
3.78376540209e-10
5.16087399511e-10
8.53902713986e-12
3.68866595487e-10
5.0442625581e-10
1.04008571342e-11
3.53763284083e-10
4.85911323534e-10
1.09516614552e-11
3.33722608966e-10
4.61242753447e-10
1.01190136029e-11
3.09721500491e-10
4.31518941209e-10
7.57330706866e-12
2.83385746501e-10
3.98089109722e-10
2.59269902175e-10
3.62240945789e-10
2.31368807133e-14
-1.28084148208e-11
7.51305815993e-10
1.05342591366e-09
4.65382695032e-14
-1.77242976506e-11
8.15256366026e-10
1.16072748611e-09
-1.91413897896e-11
8.8301930282e-10
1.26093111765e-09
-1.80430000742e-11
9.44415567406e-10
1.35006997285e-09
-1.47276844115e-11
9.95272541503e-10
1.42409046232e-09
-9.62578545687e-12
1.03333393413e-09
1.47967449461e-09
-3.33376974354e-12
1.05722159621e-09
1.51466430367e-09
3.39346895004e-12
1.06579326731e-09
1.52723019721e-09
9.69821864024e-12
1.05720247881e-09
1.51466567171e-09
1.48214232961e-11
1.03328651585e-09
1.4796772128e-09
1.81541230862e-11
9.95179994882e-10
1.42409450493e-09
1.92504658749e-11
9.44269221575e-10
1.350075743e-09
1.78132603671e-11
8.82844000895e-10
1.2609408588e-09
1.28649552047e-11
8.15086109177e-10
1.1607509017e-09
7.51228653486e-10
1.05349076937e-09
7.09104119443e-14
-1.13822407214e-11
1.31524548901e-09
1.65938954294e-09
7.60133492169e-14
-1.57826704624e-11
1.41962902552e-09
1.83167215409e-09
-1.67835568545e-11
1.52766258948e-09
1.99230416603e-09
-1.55572632179e-11
1.62487562808e-09
2.13495717669e-09
-1.25384387113e-11
1.70491427e-09
2.25325054611e-09
-8.11957884759e-12
1.76447018168e-09
2.34198406225e-09
-2.77441724456e-12
1.80173057853e-09
2.39776512169e-09
2.92765239168e-12
1.81510373258e-09
2.41773506513e-09
8.28617405584e-12
1.80169675409e-09
2.39776649803e-09
1.27260347834e-11
1.76439242547e-09
2.34198678472e-09
1.57585275124e-11
1.70477481692e-09
2.25325459698e-09
1.6973584018e-11
1.62466631541e-09
2.13496316241e-09
1.59355638564e-11
1.52741167242e-09
1.99231524252e-09
1.14825548558e-11
1.41939176952e-09
1.83170194596e-09
1.31512896479e-09
1.65947603357e-09
1.2487498245e-13
-5.31424405194e-12
1.86184113875e-09
2.1677422641e-09
1.0429031258e-13
-6.80769483257e-12
2.00068548507e-09
2.39625045697e-09
-6.58321911709e-12
2.14102209735e-09
2.60862579629e-09
-5.60092764333e-12
2.26618434098e-09
2.79669231182e-09
-4.22690644717e-12
2.3685476374e-09
2.95227277653e-09
-2.60695453681e-12
2.44426766589e-09
3.06875656098e-09
-8.15656177023e-13
2.49148552047e-09
3.14184599153e-09
1.08267546025e-12
2.508435037e-09
3.16793351969e-09
2.88411333886e-12
2.49143878978e-09
3.1418464429e-09
4.51821408165e-12
2.44416544948e-09
3.06875740511e-09
5.89574823596e-12
2.36837501636e-09
2.95227396334e-09
6.85427316978e-12
2.26593622798e-09
2.79669449147e-09
7.02596634511e-12
2.14072540524e-09
2.60863245113e-09
5.46265502858e-12
2.00040592558e-09
2.39627695607e-09
1.86169371148e-09
2.16783162147e-09
1.86984756699e-13
4.00829496733e-12
2.33367462259e-09
2.57839800352e-09
1.30408567481e-13
7.08660799107e-12
2.49795202279e-09
2.85385926564e-09
9.14369772113e-12
2.65951280216e-09
3.10874051459e-09
9.58343055604e-12
2.8021208661e-09
3.33358442745e-09
8.32891710424e-12
2.91782735714e-09
3.51899531336e-09
5.66049285082e-12
3.00286537924e-09
3.65746208429e-09
2.09869124611e-12
3.05570177396e-09
3.74414532481e-09
-1.71200859762e-12
3.07467190646e-09
3.77498916124e-09
-5.26868468091e-12
3.05564737012e-09
3.74414390271e-09
-7.93274364957e-12
3.00274962234e-09
3.65745929845e-09
-9.19638784288e-12
2.91763900338e-09
3.51899100982e-09
-8.79380820744e-12
2.80185741611e-09
3.33357910789e-09
-6.80273259123e-12
2.65919903316e-09
3.1087374671e-09
-3.80798148121e-12
2.49765308212e-09
2.85387438048e-09
2.33350943349e-09
2.57847652668e-09
2.53505181703e-13
1.53333195077e-11
2.69758733552e-09
2.89246187962e-09
1.53636342884e-13
2.41303650059e-11
2.87744392671e-09
3.20550649382e-09
2.84536412842e-11
3.04863980688e-09
3.49359697741e-09
2.81477695324e-11
3.19798758186e-09
3.74655936336e-09
2.36062432382e-11
3.3180076861e-09
3.9543530448e-09
1.56795894133e-11
3.40556640827e-09
4.10906179561e-09
5.61575286564e-12
3.45974361055e-09
4.20565403875e-09
-5.11261609735e-12
3.47919867133e-09
4.23991083684e-09
-1.51768792643e-11
3.459686881e-09
4.20565041637e-09
-2.3109502781e-11
3.40544792797e-09
4.10905455546e-09
-2.76728336899e-11
3.31781991164e-09
3.95434182855e-09
-2.80279140815e-11
3.19772998277e-09
3.74654431212e-09
-2.37815508231e-11
3.04833342224e-09
3.49358078483e-09
-1.50773950425e-11
2.87714925928e-09
3.20550505547e-09
2.69741522892e-09
2.89252184853e-09
3.21056769895e-13
2.75831484984e-11
2.93877973304e-09
3.11299836677e-09
1.72999819533e-13
4.28338277361e-11
3.12491946902e-09
3.45466486855e-09
4.97062236311e-11
3.29534248233e-09
3.76716301463e-09
4.85484443452e-11
3.44204385458e-09
4.04011730952e-09
4.0348854696e-11
3.55858662906e-09
4.26335793358e-09
2.66315292421e-11
3.64287914158e-09
4.42899561918e-09
9.44981780982e-12
3.69478263205e-09
4.53210270169e-09
-8.83851285463e-12
3.71342273578e-09
4.56853877901e-09
-2.6025823569e-11
3.69472924557e-09
4.53209682019e-09
-3.97584295252e-11
3.64276899565e-09
4.42898375649e-09
-4.79908891707e-11
3.55841471756e-09
4.2633394357e-09
-4.92076090587e-11
3.44181053663e-09
4.04009179286e-09
-4.24203248672e-11
3.29506345205e-09
3.76713235784e-09
-2.72692921682e-11
3.12464952889e-09
3.45464491456e-09
2.93861478891e-09
3.11303680086e-09
3.88543063292e-13
3.99071270812e-11
3.05597358301e-09
3.24509751738e-09
1.87985594538e-13
6.19948659425e-11
3.24043550315e-09
3.60726893665e-09
7.15740222764e-11
3.4018041603e-09
3.93632631382e-09
6.95482103267e-11
3.53859842089e-09
4.22212032501e-09
5.7563409579e-11
3.64577698737e-09
4.45477204284e-09
3.7876482143e-11
3.72251355002e-09
4.62675601088e-09
1.33797655857e-11
3.76949244814e-09
4.73346706724e-09
-1.26702540883e-11
3.78636066693e-09
4.77102577075e-09
-3.71768525963e-11
3.76944693229e-09
4.73345928831e-09
-5.6886651187e-11
3.72242040305e-09
4.62674021015e-09
-6.89130011109e-11
3.64563300878e-09
4.45474720618e-09
-7.10050444248e-11
3.53840405216e-09
4.22208543659e-09
-6.15163436863e-11
3.40156988673e-09
3.93628235316e-09
-3.95337876593e-11
3.24020767191e-09
3.6072318465e-09
3.05583385132e-09
3.24511547423e-09
4.54571087382e-13
5.1678189183e-11
3.05738648096e-09
3.29555180526e-09
1.99100934058e-13
8.06821111403e-11
3.23389012823e-09
3.67125294851e-09
9.30292468309e-11
3.38039873522e-09
4.0102699965e-09
9.02018991191e-11
3.50240098722e-09
4.3029977993e-09
7.45050911172e-11
3.5964242485e-09
4.54015269554e-09
4.89421758965e-11
3.66294220151e-09
4.71480122312e-09
1.72442599723e-11
3.70338567547e-09
4.8227942592e-09
-1.64461312674e-11
3.71789625851e-09
4.86063236586e-09
-4.81571222123e-11
3.70335154757e-09
4.82278536223e-09
-7.37484780383e-11
3.66287264216e-09
4.71478302893e-09
-8.9492965775e-11
3.5963171504e-09
4.54012380639e-09
-9.23914583681e-11
3.50225605526e-09
4.30295651759e-09
-8.01382994573e-11
3.38022185114e-09
4.01021639709e-09
-5.12436826324e-11
3.23371917684e-09
3.67120325363e-09
3.05728667477e-09
3.29555377741e-09
5.18321709818e-13
6.24775930138e-11
2.95740682314e-09
3.27234999632e-09
2.06280033482e-13
9.82201254452e-11
3.12140696616e-09
3.65589218662e-09
1.13328889091e-10
3.24963240925e-09
3.99964550065e-09
1.09841080684e-10
3.35419917606e-09
4.29474825585e-09
9.06615247105e-11
3.43324182347e-09
4.53269706992e-09
5.95109342739e-11
3.48839605274e-09
4.70727319649e-09
2.09364726152e-11
3.52165954291e-09
4.81483798169e-09
-2.0057786547e-11
3.53357228973e-09
4.85233275402e-09
-5.86475053571e-11
3.52163868716e-09
4.81482914186e-09
-8.98302502111e-11
3.4883535882e-09
4.70725497764e-09
-1.09061493389e-10
3.43317642295e-09
4.53266771731e-09
-1.12623439762e-10
3.35411003708e-09
4.29470538443e-09
-9.761091961e-11
3.24952157409e-09
3.99958827973e-09
-6.19812676323e-11
3.12130433682e-09
3.65583719119e-09
2.9573616764e-09
3.27234334153e-09
5.79484774153e-13
7.20712799391e-11
2.77393984816e-09
3.1841159952e-09
2.10593021009e-13
1.14175051719e-10
2.92248095058e-09
3.57110754047e-09
1.32008495201e-10
3.03099698623e-09
3.91573612272e-09
1.28068626639e-10
3.11736118583e-09
4.20996185762e-09
1.05742713264e-10
3.18125158382e-09
4.44613731271e-09
6.94092793303e-11
3.22517308564e-09
4.61879208847e-09
2.43993082673e-11
3.25142072999e-09
4.72478847611e-09
-2.34465235285e-11
3.260786068e-09
4.76152194666e-09
-6.84731589155e-11
3.2514136262e-09
4.7247812202e-09
-1.04841051404e-10
3.22515868036e-09
4.61877695597e-09
-1.27221041767e-10
3.18122905524e-09
4.44611227408e-09
-1.31236863377e-10
3.11732957036e-09
4.20992385823e-09
-1.13501335357e-10
3.03095581015e-09
3.9156833385e-09
-7.15133942881e-11
2.92245361875e-09
3.57105674688e-09
2.7739589638e-09
3.18411031549e-09
6.375494353e-13
8.03730757876e-11
2.5263714918e-09
3.03957481899e-09
2.12247126865e-13
1.28351697032e-10
2.65778742018e-09
3.4268387126e-09
1.48905822391e-10
2.74661736074e-09
3.76973448173e-09
1.44777986423e-10
2.81545345042e-09
4.06099806365e-09
1.19684818154e-10
2.86531168501e-09
4.29382886576e-09
7.8602741573e-11
2.89911799083e-09
4.4634761807e-09
2.7622277873e-11
2.91913175774e-09
4.56724965667e-09
-2.66008499901e-11
2.92622119549e-09
4.60297800364e-09
-7.75989133332e-11
2.91913789818e-09
4.56724577308e-09
-1.1871710844e-10
2.89913015431e-09
4.46346781409e-09
-1.43865939187e-10
2.86533017743e-09
4.29381386581e-09
-1.48071077975e-10
2.81547732854e-09
4.06097274936e-09
-1.27616282645e-10
2.74664530405e-09
3.76969575107e-09
-7.97563684201e-11
2.65783712098e-09
3.42680292227e-09
2.52646085117e-09
3.03958100126e-09
6.92265188147e-13
8.74676602221e-11
2.23404234963e-09
2.84709536506e-09
2.11794284284e-13
1.4092517048e-10
2.34748098019e-09
3.23256273152e-09
1.64308310399e-10
2.41757921369e-09
3.5722111372e-09
1.60248024869e-10
2.47067229582e-09
3.85938700744e-09
1.32690520795e-10
2.50859280828e-09
4.08809499423e-09
8.72074121925e-11
2.53409941865e-09
4.25424680535e-09
3.06422328096e-11
2.54907638665e-09
4.35552089983e-09
-2.95575399364e-11
2.55431112786e-09
4.3901359824e-09
-8.61414891868e-11
2.54909435557e-09
4.35552225176e-09
-1.31662179948e-10
2.5341359255e-09
4.25424908225e-09
-1.59277274016e-10
2.50864835828e-09
4.08809618984e-09
-1.63416294538e-10
2.47074734885e-09
3.85938297974e-09
-1.40134238234e-10
2.4176720371e-09
3.57219698914e-09
-8.67978649165e-11
2.34760611747e-09
3.23255274518e-09
2.23420391255e-09
2.84712323829e-09
7.40092765074e-13
9.34914009232e-11
1.91529179698e-09
2.61433996566e-09
2.09824673723e-13
1.52402253602e-10
2.00985933181e-09
2.99704756584e-09
1.78935008506e-10
2.06277138016e-09
3.332819442e-09
1.75097253297e-10
2.10294286491e-09
3.61546950901e-09
1.45184408659e-10
2.13175986128e-09
3.83983219601e-09
9.54626999022e-11
2.15121841388e-09
4.00241720007e-09
3.35364128363e-11
2.1625899742e-09
4.10117835697e-09
-3.23949504141e-11
2.16647264286e-09
4.13466694339e-09
-9.43414129442e-11
2.16261873762e-09
4.10118652104e-09
-1.44103410319e-10
2.15127629404e-09
4.00243345151e-09
-1.74076483639e-10
2.13184814275e-09
3.83985509295e-09
-1.77995787825e-10
2.10306244861e-09
3.61549503242e-09
-1.51565380053e-10
2.0629226817e-09
3.33284064259e-09
-9.27776618423e-11
2.01005458338e-09
2.99707323782e-09
1.91551973852e-09
2.61439549736e-09
7.82153700363e-13
9.26129144054e-11
2.34787703492e-09
2.07079881294e-13
1.59347274014e-09
1.61174447622e-10
2.72833250029e-09
1.65720113862e-09
1.92426722937e-10
3.06000668481e-09
1.69766106036e-09
1.89413853297e-10
3.33810679806e-09
1.72915097877e-09
1.57433882374e-10
3.55828881045e-09
1.75230968097e-09
1.03622483002e-10
3.71754112181e-09
1.76827708379e-09
3.6404847687e-11
3.81397121314e-09
1.77763534894e-09
-3.52147479054e-11
3.84639078394e-09
1.78072902093e-09
-1.02455197018e-10
3.81398664755e-09
1.77767415268e-09
-1.56311037315e-10
3.71757234599e-09
1.76835527419e-09
-1.88356515045e-10
3.55833533313e-09
1.75242805634e-09
-1.91454880477e-10
3.33816588511e-09
1.72931111439e-09
-1.60308561947e-10
3.06007005137e-09
1.69786425541e-09
-9.18700956289e-11
2.72840668629e-09
1.65745879246e-09
2.34795175807e-09
8.09548820701e-13
1.59376569685e-09
2.66697452242e-12
1.30899512261e-13
3.59479335504e-10
4.51311672363e-16
4.47654986314e-12
-7.65673279207e-13
3.97101091763e-10
5.4951723371e-12
-1.78308846888e-12
4.32354573636e-10
5.57736011672e-12
-2.61511669452e-12
4.63829745079e-10
4.76139159434e-12
-3.2494890702e-12
4.90039809664e-10
3.20267364729e-12
-3.70983089007e-12
5.09762679658e-10
1.14811471562e-12
-3.99515680073e-12
5.22200366554e-10
-1.0872775077e-12
-4.09599675267e-12
5.26678621388e-10
-3.14545331339e-12
-4.00769881862e-12
5.22200967632e-10
-4.70977357564e-12
-3.73064262375e-12
5.09763924855e-10
-5.52889283282e-12
-3.27219611887e-12
4.90041835668e-10
-5.44425176252e-12
-2.63797186007e-12
4.63832956988e-10
-4.43141694669e-12
-1.81888854875e-12
4.32359993018e-10
-2.62698034848e-12
-7.94224149025e-13
3.9711213723e-10
1.09592419325e-13
3.59506904407e-10
2.88034600825e-14
6.45696180033e-12
5.47622661513e-11
9.92436067834e-10
2.30985641544e-16
1.10737516602e-11
5.92812115087e-11
1.09617265579e-09
1.3613937264e-11
6.36007829281e-11
1.19311569447e-09
1.38131159942e-11
6.79446266996e-11
1.27940887985e-09
1.17798090477e-11
7.18822549788e-11
1.35109776145e-09
7.91602502916e-12
7.49866618721e-11
1.40494967604e-09
2.84173521912e-12
7.69859307893e-11
1.43885638026e-09
-2.66789140531e-12
7.77002060148e-11
1.45103000283e-09
-7.74980620869e-12
7.69580249976e-11
1.43885786529e-09
-1.16255281993e-11
7.49379417482e-11
1.40495276128e-09
-1.36670945143e-11
7.18241368435e-11
1.35110285203e-09
-1.34695925119e-11
6.78823593423e-11
1.27941714777e-09
-1.09429287622e-11
6.35212187135e-11
1.19313013539e-09
-6.34629708834e-12
5.92098149207e-11
1.0962028196e-09
5.47146401173e-11
9.92506338108e-10
8.15447054788e-14
9.24163224464e-12
1.67246130834e-10
1.53775299099e-09
-8.89718342077e-16
1.59857857531e-11
1.83813596241e-10
1.70049549441e-09
1.9628073004e-11
2.00088138006e-10
1.85227024141e-09
1.9868926722e-11
2.15641806407e-10
1.98710982315e-09
1.69071672747e-11
2.29232995105e-10
2.09895809312e-09
1.13432710374e-11
2.39753923561e-10
2.18287896156e-09
4.07407730135e-12
2.46467691276e-10
2.23564310327e-09
-3.8010622229e-12
2.48860583993e-10
2.25452963175e-09
-1.10798279425e-11
2.46429181841e-10
2.23564483928e-09
-1.66588655718e-11
2.39685108088e-10
2.18288263876e-09
-1.96328929119e-11
2.29147548843e-10
2.09896436337e-09
-1.93999429778e-11
2.15547687512e-10
1.9871204607e-09
-1.57779517479e-11
1.99977314847e-10
1.85228963827e-09
-9.0665529648e-12
1.83712279598e-10
1.70053714919e-09
1.67187208516e-10
1.53785020034e-09
1.31813321569e-13
1.16915649265e-11
3.20022300242e-10
2.00335491659e-09
4.02640031448e-16
2.02781247495e-11
3.52690017229e-10
2.21887247122e-09
2.48420621279e-11
3.84839953549e-10
2.41939447279e-09
2.50779177373e-11
4.15007557966e-10
2.59717452242e-09
2.12904478898e-11
4.4098416532e-10
2.74439637721e-09
1.42604117031e-11
4.60914206246e-10
2.85471327679e-09
5.12245189752e-12
4.73566264014e-10
2.92396604407e-09
-4.7559581817e-12
4.7806653284e-10
2.94867839239e-09
-1.39044128796e-11
4.73521922064e-10
2.92396721138e-09
-2.09516042366e-11
4.60833240413e-10
2.85471590658e-09
-2.47558346418e-11
4.40879721292e-10
2.74440132375e-09
-2.45356107654e-11
4.14890119118e-10
2.59718394255e-09
-1.99999891511e-11
3.847098169e-10
2.41941348517e-09
-1.14557049696e-11
3.52574028345e-10
2.21891654604e-09
3.19959254569e-10
2.00346183413e-09
1.83308317708e-13
1.43224684044e-11
4.94190584665e-10
2.38997575889e-09
4.3483496214e-15
2.47698923115e-11
5.44316023189e-10
2.65185608307e-09
3.02297972592e-11
5.93390787074e-10
2.89480389084e-09
3.04198076046e-11
6.3881435908e-10
3.10966126497e-09
2.57639701429e-11
6.77487878841e-10
3.28722424661e-09
1.72281861195e-11
7.06930215956e-10
3.42005877535e-09
6.18573848856e-12
7.25528678926e-10
3.50329755348e-09
-5.72845211773e-12
7.32129598947e-10
3.53290604839e-09
-1.67821756229e-11
7.25481820365e-10
3.50329751447e-09
-2.53372342809e-11
7.06843636442e-10
3.42005905354e-09
-3.00148712638e-11
6.77374068156e-10
3.28722579935e-09
-2.98487192531e-11
6.38685292349e-10
3.1096663619e-09
-2.44258232788e-11
5.93252346486e-10
2.89481775468e-09
-1.40288909794e-11
5.44198801977e-10
2.65189500978e-09
4.94130182874e-10
2.39007978405e-09
2.35834398815e-13
1.74853469128e-11
6.70849080806e-10
2.69836852153e-09
1.02027379842e-14
3.00461800371e-11
7.37328270608e-10
2.99999437957e-09
3.6503568414e-11
8.01783560349e-10
3.27880980095e-09
3.66168960963e-11
8.6068858366e-10
3.52463640938e-09