/*--------------------------------*- C++ -*----------------------------------*\
  =========                 |
  \\      /  F ield         | OpenFOAM: The Open Source CFD Toolbox
   \\    /   O peration     | Website:  https://openfoam.org
    \\  /    A nd           | Version:  7
     \\/     M anipulation  |
\*---------------------------------------------------------------------------*/
FoamFile
{
    version     2.0;
    format      ascii;
    class       volVectorField;
    location    "1.72";
    object      U;
}
// * * * * * * * * * * * * * * * * * * * * * * * * * * * * * * * * * * * * * //

dimensions      [0 1 -1 0 0 0 0];

internalField   nonuniform List<vector> 
22500
(
(1.71088121612e-05 1.92146618137e-05 0.000292199526045)
(1.58932621369e-05 2.16624362256e-05 0.00030658286373)
(1.387253953e-05 2.41204322809e-05 0.000319640965352)
(1.16415177008e-05 2.61917900128e-05 0.000330892030766)
(9.03521350142e-06 2.78978060119e-05 0.000340000016774)
(6.17992080225e-06 2.91607418386e-05 0.000346696537403)
(3.13935389575e-06 2.99376746333e-05 0.000350794355759)
(2.80256961205e-09 3.02002722753e-05 0.000352180753644)
(-3.1338529225e-06 2.99379633994e-05 0.000350794435741)
(-6.1747088673e-06 2.9161277201e-05 0.000346696713067)
(-9.03049495133e-06 2.78984728221e-05 0.000340000284992)
(-1.1637489483e-05 2.61924639374e-05 0.000330892365032)
(-1.38694859406e-05 2.41208718114e-05 0.000319641430598)
(-1.58911051532e-05 2.16627268082e-05 0.000306584421937)
(-1.71078045473e-05 1.9214772074e-05 0.000292207960775)
(4.96660202698e-05 5.58243986245e-05 0.000751612016821)
(4.60561298349e-05 6.27679949011e-05 0.000782565542648)
(4.03353274277e-05 6.96682132005e-05 0.000810268231751)
(3.38120939278e-05 7.55424534185e-05 0.000833867886272)
(2.62540201299e-05 8.03830370173e-05 0.000852792917647)
(1.79551637769e-05 8.39703117061e-05 0.000866608572028)
(9.12002325552e-06 8.61791903545e-05 0.00087502143273)
(6.84395984754e-09 8.69255326321e-05 0.000877857122246)
(-9.10656273262e-06 8.61796943144e-05 0.000875021760282)
(-1.79423554507e-05 8.39712288763e-05 0.000866609248404)
(-2.62423076664e-05 8.03841306519e-05 0.000852793893471)
(-3.38019342063e-05 7.55434723422e-05 0.000833869038091)
(-4.03272821502e-05 6.96687142418e-05 0.000810269691482)
(-4.60501216133e-05 6.27682340191e-05 0.000782570040155)
(-4.96628715254e-05 5.5824310848e-05 0.000751632335687)
(7.43034808029e-05 8.34033835277e-05 0.00111307095504)
(6.85560510002e-05 9.32240250909e-05 0.00115273894614)
(5.99048678507e-05 0.000102908365321 0.00118777540667)
(5.00534567851e-05 0.000111127599967 0.00121733182828)
(3.87774684472e-05 0.000117871173325 0.00124084226358)
(2.64729671381e-05 0.000122853941512 0.00125790066718)
(1.34318531762e-05 0.000125916059046 0.00126824378391)
(9.9784934021e-09 0.000126949485438 0.00127171939535)
(-1.34121960748e-05 0.000125916452375 0.00126824420079)
(-2.64541854569e-05 0.00012285461479 0.00125790151957)
(-3.87601532051e-05 0.000117871847458 0.0012408434376)
(-5.00382160789e-05 0.000111127966999 0.00121733308141)
(-5.98924241514e-05 0.000102907995149 0.00118777677162)
(-6.85463792094e-05 9.32233410906e-05 0.00115274395856)
(-7.42979322123e-05 8.34024392391e-05 0.00111309700168)
(9.27672665197e-05 0.000103967063193 0.00139854264936)
(8.51616255572e-05 0.000115455546061 0.00144172558294)
(7.41898723074e-05 0.000126736968482 0.00147933097018)
(6.1776472246e-05 0.000136248308942 0.00151072987853)
(4.7737908956e-05 0.000144015181664 0.00153549695969)
(3.25267399252e-05 0.000149732457122 0.00155335337653)
(1.64837134891e-05 0.000153237396727 0.00156413232969)
(1.21717382263e-08 0.0001544186249 0.00156774367066)
(-1.64597143561e-05 0.000153237647236 0.00156413260228)
(-3.25037575934e-05 0.000149732836751 0.00155335391928)
(-4.77166246922e-05 0.000144015410455 0.00153549756861)
(-6.1757558572e-05 0.000136248065535 0.00151073014062)
(-7.41740957345e-05 0.000126735873661 0.00147933061325)
(-8.51489671888e-05 0.000115454126499 0.00144172798182)
(-9.27593877169e-05 0.000103965413517 0.00139856668582)
(0.000106414396559 0.000119110008117 0.00162400699168)
(9.72229805821e-05 0.00013138422445 0.00166723423236)
(8.44216021124e-05 0.000143416094425 0.00170429001258)
(7.00590755625e-05 0.000153481468224 0.00173487636664)
(5.4000815776e-05 0.000161659820013 0.0017587805289)
(3.67231102105e-05 0.000167656385469 0.0017758946438)
(1.85883781375e-05 0.000171323128047 0.00178617526153)
(1.36701850132e-08 0.00017255714617 0.00178960916377)
(-1.85614102775e-05 0.000171323266583 0.00178617521279)
(-3.66972472487e-05 0.000167656542723 0.00177589449848)
(-5.39767891111e-05 0.000161659733055 0.00175877995546)
(-7.00375760728e-05 0.000153480831063 0.0017348747002)
(-8.44033547798e-05 0.000143414561986 0.00170428646711)
(-9.72079510518e-05 0.000131382398852 0.0016672314735)
(-0.000106404365865 0.00011910794915 0.00162402366976)
(0.000115981006827 0.00012966445041 0.00180153299669)
(0.000105465236287 0.000142024165227 0.00184252595073)
(9.12625184891e-05 0.000154142943601 0.00187704248662)
(7.54805143913e-05 0.000164196423882 0.00190515777767)
(5.80312076946e-05 0.00017232128896 0.00192690021206)
(3.93882118205e-05 0.000178254732134 0.00194234293301)
(1.99140987357e-05 0.000181873295996 0.00195156839403)
(1.46641179769e-08 0.000183089417304 0.00195463975939)
(-1.98851581344e-05 0.000181873375808 0.00195156791758)
(-3.93604245236e-05 0.000178254779092 0.00194234186197)
(-5.80053247821e-05 0.00017232106467 0.00192689804232)
(-7.54572165412e-05 0.000164195648566 0.00190515350081)
(-9.12424367224e-05 0.000154141310075 0.00187703463713)
(-0.000105448296131 0.000142022305685 0.00184251631643)
(-0.000115969061577 0.000129662372944 0.00180153975875)
(0.000122061092285 0.000136285657176 0.00194054831878)
(0.000110472170952 0.000148182519938 0.00197788831562)
(9.52502375872e-05 0.000159870841518 0.00200868469458)
(7.8510286979e-05 0.000169482541659 0.00203338163313)
(6.02058359235e-05 0.000177205852768 0.00205224581928)
(4.07861515684e-05 0.000182823349998 0.00206551955197)
(2.05970601601e-05 0.000186240124386 0.00207339834118)
(1.53092562556e-08 0.000187386909973 0.00207601171521)
(-2.05668367757e-05 0.000186240225056 0.00207339738535)
(-4.07571025773e-05 0.000182823445941 0.00206551742918)
(-6.01787116926e-05 0.000177205733793 0.00205224180713)
(-7.84857385368e-05 0.000169481951816 0.00203337429783)
(-9.52287879301e-05 0.000159869509312 0.00200867179675)
(-0.000110453683006 0.000148181058527 0.00197787088111)
(-0.000122047467453 0.00013628400239 0.00194054435714)
(0.000125214052996 0.000139597483099 0.00204860395485)
(0.000112790904929 0.000150623425238 0.00208150770715)
(9.68887292725e-05 0.000161494299472 0.00210799320402)
(7.95869759146e-05 0.000170353342822 0.00212883958672)
(6.08755528197e-05 0.000177429239547 0.00214452718773)
(4.11622042557e-05 0.000182555954907 0.00215544190826)
(2.07634860856e-05 0.000185666296911 0.00216187046973)
(1.57337715689e-08 0.000186708984149 0.00216399359467)
(-2.07324157316e-05 0.000185666510656 0.00216186902155)
(-4.11323099233e-05 0.000182556286674 0.00215543868998)
(-6.08475706801e-05 0.000177429502392 0.00214452122189)
(-7.95615195381e-05 0.000170353300999 0.00212882895907)
(-9.68662106667e-05 0.000161493701174 0.00210797488946)
(-0.000112771142211 0.000150622836958 0.00208148227669)
(-0.000125198975986 0.000139596712996 0.00204858964417)
(0.000125942972221 0.000140165878292 0.00213184871943)
(0.000112908715825 0.000150031312748 0.00216000298248)
(9.66248139137e-05 0.000159805369763 0.00218201486235)
(7.90981101194e-05 0.00016769705858 0.0021989467258)
(6.03492475027e-05 0.000173962240609 0.00221145450107)
(4.07316017339e-05 0.000178486003714 0.00222003470139)
(2.05238837133e-05 0.000181224473116 0.0022250393596)
(1.60480527808e-08 0.000182141614528 0.00222668337357)
(-2.04921817104e-05 0.00018122489657 0.00222503743654)
(-4.07010631997e-05 0.0001784867655 0.00222003041428)
(-6.03205857076e-05 0.000173963171689 0.00221144660046)
(-7.90719011236e-05 0.000167697933636 0.00219893280221)
(-9.66013739061e-05 0.000159805940533 0.00218199117218)
(-0.000112887849929 0.000150032060505 0.00215997006739)
(-0.000125926645133 0.000140166450178 0.00213182534527)
(0.00012468689056 0.000138487254214 0.00219533269902)
(0.000111245538016 0.00014699601264 0.00221876405967)
(9.48415057792e-05 0.00015547761258 0.00223644062495)
(7.73753268646e-05 0.000162260933131 0.00224964745992)
(5.88904785767e-05 0.000167615808109 0.00225917141089)
(3.96773382487e-05 0.000171472455202 0.00226558390151)
(1.99719521514e-05 0.000173803400439 0.00226927595187)
(1.63482013218e-08 0.000174583606513 0.00227048013779)
(-1.99396418458e-05 0.000173804121547 0.00226927361029)
(-3.96461653611e-05 0.000171473822504 0.00226557866637)
(-5.88611312872e-05 0.000167617667953 0.00225916177619)
(-7.73483488212e-05 0.00016226306063 0.00224963055638)
(-9.48171454953e-05 0.000155479745166 0.00223641212312)
(-0.000111223629174 0.000146998515228 0.00221872496018)
(-0.000124669451367 0.000138489587768 0.00219530243802)
(0.000121825664451 0.000134995090757 0.00224320521889)
(0.00010815947824 0.000142018199951 0.00226217305036)
(9.1864634568e-05 0.00014907330443 0.0022758527974)
(7.47010285769e-05 0.000154662794681 0.00228568825138)
(5.67229121164e-05 0.000159056654122 0.0022925501042)
(3.81538418209e-05 0.000162218167284 0.00229704922975)
(1.91864202329e-05 0.000164127856882 0.00229959112264)
(1.67166400489e-08 0.000164767038509 0.00230041149065)
(-1.91533596359e-05 0.000164128942154 0.00229958848947)
(-3.81218788054e-05 0.000162220275129 0.00229704333483)
(-5.66927092435e-05 0.000159059645112 0.00229253924975)
(-7.46731116872e-05 0.000154666440611 0.00228566920279)
(-9.18392223901e-05 0.000149077310909 0.00227582081057)
(-0.000108136478604 0.000142022795689 0.00226213008079)
(-0.000121807160206 0.000134999518993 0.00224317138544)
(0.000117683523912 0.000130066587345 0.00227884255077)
(0.000103954661008 0.000135513094437 0.00229374993325)
(8.79737495818e-05 0.000141051398212 0.00230389439329)
(7.13176940882e-05 0.00014540596483 0.00231081107057)
(5.40365260183e-05 0.000148826547059 0.00231540605527)
(3.62905419588e-05 0.000151291360977 0.00231829551054)
(1.82326708091e-05 0.000152781074445 0.00231987758573)
(1.72202444647e-08 0.000153279950349 0.00232037908669)
(-1.81985826718e-05 0.000152782557496 0.00231987491509)
(-3.62574958702e-05 0.0001512942749 0.00231828953955)
(-5.400516192e-05 0.000148830774926 0.00231539503463)
(-7.12885386391e-05 0.000145411277994 0.00231079157194)
(-8.79470395801e-05 0.000141057465778 0.00230386141765)
(-0.000103930427579 0.000135519994409 0.00229370676301)
(-0.000117663891953 0.000130073346086 0.00227881002481)
(0.000112528199156 0.000124005688379 0.00230491983383)
(9.89000787292e-05 0.000127802972268 0.00231624427089)
(8.34214224332e-05 0.000131780428564 0.00232338713398)
(6.74384118589e-05 0.000134902088706 0.00232789629728)
(5.0991708564e-05 0.000137368034584 0.00233066211038)
(3.41932174052e-05 0.00013915126944 0.00233227291712)
(1.7163141905e-05 0.000140230003894 0.00233310027578)
(1.79074010812e-08 0.00014059151624 0.00233335247393)
(-1.71276560958e-05 0.000140231866626 0.00233309801702)
(-3.41587022826e-05 0.000139154958857 0.00233226790382)
(-5.09587804778e-05 0.000137373463668 0.00233065280172)
(-6.74076237864e-05 0.000134909048814 0.00232787938258)
(-8.33930828234e-05 0.000131788561039 0.00232335746196)
(-9.88743906025e-05 0.00012781220809 0.00231620630677)
(-0.000112507311869 0.000124014806847 0.00230489494528)
(0.000106624917205 0.000117026043913 0.00232342514226)
(9.32969339917e-05 0.000119166802968 0.00233168992907)
(7.84570694496e-05 0.000121574941389 0.00233641857766)
(6.32437371726e-05 0.000123514725987 0.00233907350535)
(4.77114585175e-05 0.000125061517066 0.00234047823657)
(3.19382433464e-05 0.000126181374394 0.00234116068898)
(1.60146804707e-05 0.000126857487143 0.0023414486709)
(1.87955859045e-08 0.000127084046956 0.00234152431216)
(-1.59773875407e-05 0.000126859650501 0.00234144749704)
(-3.19018362745e-05 0.000126185684422 0.00234115818476)
(-4.76765280339e-05 0.000125067921954 0.00234047350569)
(-6.32108819431e-05 0.000123523070576 0.00233906399834)
(-7.84267280587e-05 0.000121584901865 0.0023363992639)
(-9.32695349782e-05 0.000119178168272 0.00233166508209)
(-0.0001066025449 0.000117037351628 0.00232341505886)
(0.000100355076147 0.000109620144497 0.00233561086643)
(8.75192560658e-05 0.000109422490951 0.00234149195099)
(7.32287820569e-05 0.000110500536402 0.00234443331241)
(5.88202401106e-05 0.000111360220198 0.00234582504419)
(4.42461771815e-05 0.00011204518772 0.0023463651493)
(2.9556657971e-05 0.000112533241197 0.00234648785532)
(1.48027819727e-05 0.000112824471814 0.00234646175742)
(1.98699439223e-08 0.000112921926219 0.0023464366506)
(-1.47633104547e-05 0.000112826763839 0.00234646229958)
(-2.95179849314e-05 0.000112537825928 0.00234648933939)
(-4.42088550124e-05 0.000112052050696 0.00234636784014)
(-5.87848948801e-05 0.000111369292923 0.00234582827276)
(-7.31960330756e-05 0.000110511584904 0.00234443300855)
(-8.74899734271e-05 0.000109435393647 0.0023414953902)
(-0.000100330802435 0.000109633113608 0.00233561467205)
(4.3508629917e-07 7.1888857431e-07 0.000193075433344)
(2.51583055882e-07 9.4067282905e-07 0.000202463265921)
(1.6900553168e-07 1.06470420359e-06 0.000210870546537)
(9.5382036968e-08 1.15477471922e-06 0.000218082327014)
(4.41148450924e-08 1.21312817344e-06 0.000223910246447)
(1.46849372349e-08 1.24762998876e-06 0.000228192112695)
(2.38497364169e-09 1.26516989642e-06 0.000230812876082)
(-7.71665991422e-12 1.27051075945e-06 0.000231701301488)
(-2.2986307614e-09 1.26517667905e-06 0.000230812884895)
(-1.42969307051e-08 1.24766395288e-06 0.000228192162118)
(-4.33096780765e-08 1.21319575986e-06 0.000223910380031)
(-9.42912953576e-08 1.15485040359e-06 0.000218082608398)
(-1.67910700933e-07 1.0648093443e-06 0.000210871226844)
(-2.50645051116e-07 9.40754067023e-07 0.000202465797335)
(-4.34711775245e-07 7.19024887701e-07 0.000193085675292)
(4.01494869908e-06 4.94691812024e-06 0.000554958261888)
(3.42956716259e-06 6.04976061391e-06 0.000580511175014)
(2.96596545338e-06 6.9582330397e-06 0.00060331589986)
(2.44079882541e-06 7.73348515538e-06 0.000622815860078)
(1.86796604341e-06 8.34742390463e-06 0.000638534122797)
(1.26278307819e-06 8.79101890354e-06 0.000650063573785)
(6.36468133069e-07 9.05912159275e-06 0.00065711115734)
(8.33052586054e-10 9.14898846911e-06 0.000659493316196)
(-6.34593226491e-07 9.05915379853e-06 0.000657111193854)
(-1.2603043602e-06 8.79110170832e-06 0.000650063726251)
(-1.8646756882e-06 8.34754256227e-06 0.000638534499607)
(-2.43697015468e-06 7.73358280887e-06 0.000622816620732)
(-2.96228788193e-06 6.95835094836e-06 0.000603317754631)
(-3.42649171802e-06 6.04988403357e-06 0.00058051833159)
(-4.01355320781e-06 4.94722271852e-06 0.000554984635029)
(9.48745633164e-06 1.10911834887e-05 0.000893298281111)
(8.41973813835e-06 1.33011230833e-05 0.000932642831993)
(7.40494223681e-06 1.5248812787e-05 0.000967579357754)
(6.19504964922e-06 1.69446714517e-05 0.00099732956458)
(4.80898503403e-06 1.83162783469e-05 0.00102122764941)
(3.28643406239e-06 1.93233843142e-05 0.0010387128028)
(1.66826505836e-06 1.99390035945e-05 0.00104938065688)
(2.20231789654e-09 2.01464475853e-05 0.00105297830125)
(-1.66362011271e-06 1.99390856719e-05 0.00104938055276)
(-3.28110414706e-06 1.93235345038e-05 0.00103871268855)
(-4.80275405956e-06 1.8316421053e-05 0.00102122763894)
(-6.18824577391e-06 1.69446941361e-05 0.000997329837723)
(-7.39847103636e-06 1.52487514037e-05 0.000967580891179)
(-8.41432577061e-06 1.33011690207e-05 0.000932651656393)
(-9.48470656892e-06 1.10916245769e-05 0.00089333437648)
(1.59333983033e-05 1.81525851535e-05 0.00120683774773)
(1.43024843047e-05 2.14997254661e-05 0.00125722529648)
(1.26299467602e-05 2.45022438715e-05 0.00130163623029)
(1.06017948982e-05 2.71335336654e-05 0.00133922845323)
(8.25324837704e-06 2.9273386676e-05 0.00136927476667)
(5.65217996982e-06 3.08502392634e-05 0.00139117487661)
(2.87327168059e-06 3.1816457254e-05 0.0014044997426)
(3.88340722029e-09 3.21423129049e-05 0.00140898316973)
(-2.8652881101e-06 3.1816599753e-05 0.00140449921027)
(-5.64359130812e-06 3.08504868781e-05 0.00139117387475)
(-8.24389975959e-06 2.92736259229e-05 0.00136927332989)
(-1.05920495608e-05 2.71336269893e-05 0.00133922665903)
(-1.26207797328e-05 2.45021920579e-05 0.00130163505153)
(-1.42947909219e-05 2.14999008343e-05 0.00125723159537)
(-1.59290951643e-05 1.81533486807e-05 0.00120687510097)
(2.26304765631e-05 2.53535391223e-05 0.00149337524597)
(2.03803654847e-05 2.97395734897e-05 0.00155174347267)
(1.80031603293e-05 3.36670294092e-05 0.00160268247117)
(1.5108167556e-05 3.71139568603e-05 0.00164546025646)
(1.17587452339e-05 3.99179284404e-05 0.00167942618708)
(8.0513380847e-06 4.19836360169e-05 0.00170405849297)
(4.09264556881e-06 4.32490711179e-05 0.00171899235931)
(5.65885943298e-09 4.36756652243e-05 0.00172400482457)
(-4.08116429889e-06 4.3249298134e-05 0.00171899110151)
(-8.03941593772e-06 4.19840378439e-05 0.00170405596732)
(-1.17463212269e-05 3.99183737967e-05 0.00167942225657)
(-1.5095633568e-05 3.71142946964e-05 0.0016454547493)
(-1.79914742283e-05 3.36672180247e-05 0.00160267606534)
(-2.03704607905e-05 2.97400693493e-05 0.00155174323455)
(-2.26244666886e-05 2.53547806143e-05 0.00149340682538)
(2.90977136756e-05 3.21977770126e-05 0.00175111831292)
(2.61998560491e-05 3.74485949004e-05 0.00181433248972)
(2.31127610651e-05 4.2093179252e-05 0.00186882879639)
(1.93615061604e-05 4.61643689935e-05 0.00191414720241)
(1.5046334518e-05 4.94681492426e-05 0.00194983891734)
(1.02904444235e-05 5.18967978413e-05 0.00197556171741)
(5.22730325537e-06 5.33822758242e-05 0.00199108892537)
(7.38965796464e-09 5.38825754806e-05 0.00199628645595)
(-5.21242641561e-06 5.33826164048e-05 0.00199108671816)
(-1.02753228996e-05 5.18974154439e-05 0.00197555717455)
(-1.50310069508e-05 4.94689043207e-05 0.00194983164243)
(-1.93463797013e-05 4.61650983875e-05 0.00191413662594)
(-2.30987362352e-05 4.2093803069e-05 0.00186881504586)
(-2.6187808325e-05 3.74495918611e-05 0.00181432252014)
(-2.90898823564e-05 3.21996091302e-05 0.00175113940716)
(3.49908947961e-05 3.83438925914e-05 0.00197923526086)
(3.1444721477e-05 4.4238838905e-05 0.00204434160982)
(2.76754797013e-05 4.93541492124e-05 0.00209965526366)
(2.3123718638e-05 5.38236269639e-05 0.00214511938913)
(1.79306252624e-05 5.74351403857e-05 0.00218058152237)
(1.22426633098e-05 6.00809005311e-05 0.00220594960052)
(6.21281949293e-06 6.16953692892e-05 0.00222118396351)
(8.99805379364e-09 6.22384245908e-05 0.0022262681073)
(-6.19479171791e-06 6.16958501399e-05 0.00222118068549)
(-1.22245818142e-05 6.00817930234e-05 0.00220594276221)
(-1.79126184606e-05 5.7436301389e-05 0.00218057039544)
(-2.31061986846e-05 5.38248832836e-05 0.00214510288122)
(-2.76592662222e-05 4.93553753321e-05 0.00209963277282)
(-3.14306089626e-05 4.42405154461e-05 0.00204431992782)
(-3.49811573806e-05 3.83464101649e-05 0.00197924321036)
(4.0071512818e-05 4.35639455246e-05 0.00217795427313)
(3.59033730011e-05 4.98590244428e-05 0.0022423715139)
(3.15068450929e-05 5.51897156654e-05 0.00229617690967)
(2.62448117682e-05 5.98246351084e-05 0.00233980423519)
(2.0298344556e-05 6.35482896331e-05 0.00237345204462)
(1.38324143904e-05 6.62641716562e-05 0.00239731351709)
(7.01142801767e-06 6.79165611159e-05 0.00241155704386)
(1.04574415342e-08 6.8471555783e-05 0.00241629436414)
(-6.99053936675e-06 6.79172086248e-05 0.00241155270743)
(-1.38116383285e-05 6.62653964721e-05 0.00239730438677)
(-2.02778825398e-05 6.35499474355e-05 0.00237343701486)
(-2.62250757986e-05 5.98265433207e-05 0.00233978160862)
(-3.14885617257e-05 5.51917018537e-05 0.00229614526598)
(-3.58872653103e-05 4.98615402589e-05 0.00224233761952)
(-4.00598536964e-05 4.35672768152e-05 0.0021779484133)
(4.41925969927e-05 4.77254926565e-05 0.00234843703096)
(3.94523639563e-05 5.41720976457e-05 0.00241006978042)
(3.45047042155e-05 5.94755012784e-05 0.00246055545335)
(2.86471320659e-05 6.40560931662e-05 0.00250085653321)
(2.20948039677e-05 6.77099549707e-05 0.0025315355998)
(1.50254169673e-05 7.03609552428e-05 0.00255307179204)
(7.60673019281e-06 7.19684162378e-05 0.0025658370701)
(1.17723736764e-08 7.25074617687e-05 0.00257006622334)
(-7.58325736648e-06 7.19692503418e-05 0.00256583185013)
(-1.50021871914e-05 7.03625557813e-05 0.00255306071995)
(-2.2072073505e-05 6.77121818639e-05 0.00253151718683)
(-2.86253112556e-05 6.40587545958e-05 0.0025008284517)
(-3.44844381128e-05 5.94783845495e-05 0.00246051546127)
(-3.94343161016e-05 5.41755944511e-05 0.00241002487775)
(-4.41790402332e-05 4.77297683946e-05 0.00234841875445)
(4.72832831966e-05 5.07735920839e-05 0.00249255429854)
(4.20395661464e-05 5.71323497371e-05 0.00254983416392)
(3.66323350397e-05 6.21918688169e-05 0.00259573056881)
(3.03093597299e-05 6.65237940881e-05 0.0026317227637)
(2.33102683844e-05 6.99500666509e-05 0.00265871138049)
(1.58187188257e-05 7.24211017897e-05 0.00267743294706)
(7.99841506266e-06 7.39139089208e-05 0.00268843819715)
(1.29652816547e-08 7.44136889922e-05 0.00269206777012)
(-7.97258930439e-06 7.39149371421e-05 0.002688432471)
(-1.57932292388e-05 7.24230961803e-05 0.00267742071841)
(-2.32854103848e-05 6.99528970127e-05 0.00265869082387)
(-3.02855433395e-05 6.65272651592e-05 0.00263169095964)
(-3.6610143645e-05 6.21957367375e-05 0.0025956845139)
(-4.20196328168e-05 5.71369333512e-05 0.00254978140906)
(-4.72678680188e-05 5.0778920498e-05 0.00249252724304)
(4.93327763595e-05 5.2713518248e-05 0.00261262961548)
(4.3667671178e-05 5.87630902282e-05 0.00266450058995)
(3.79024186e-05 6.33939904801e-05 0.0027050571192)
(3.12518438489e-05 6.73142665413e-05 0.00273623267627)
(2.39676692352e-05 7.03844545141e-05 0.00275920621141)
(1.6231767239e-05 7.25842558437e-05 0.00277492109734)
(8.19753880373e-06 7.39081180969e-05 0.00278406809634)
(1.40602807916e-08 7.43506401252e-05 0.00278706873775)
(-8.16954417758e-06 7.39093260253e-05 0.00278406249878)
(-1.62041679302e-05 7.25866202444e-05 0.00277490905267)
(-2.39407854109e-05 7.03878619706e-05 0.00275918567285)
(-3.12260906672e-05 6.73185313719e-05 0.00273620023828)
(-3.78783436915e-05 6.33988521064e-05 0.00270500909599)
(-4.36459064083e-05 5.87688014608e-05 0.00266444538409)
(-4.93155591664e-05 5.27199531836e-05 0.00261259999934)
(5.03729010106e-05 5.35929425037e-05 0.00271118080624)
(4.43776379814e-05 5.91336472613e-05 0.00275705333296)
(3.83627942596e-05 6.31830999344e-05 0.00279199001922)
(3.15245773128e-05 6.65622753027e-05 0.00281825939257)
(2.41127680277e-05 6.91795252716e-05 0.00283723391789)
(1.62992712294e-05 7.10422849627e-05 0.00285000067514)
(8.22274066249e-06 7.21591377311e-05 0.00285734422509)
(1.5073276361e-08 7.25319365897e-05 0.00285973805337)
(-8.19273184947e-06 7.21604869461e-05 0.00285733970785)
(-1.62696916454e-05 7.10449429811e-05 0.00284999084358)
(-2.4083953009e-05 6.91834080486e-05 0.00283721671544)
(-3.14969494952e-05 6.65672193967e-05 0.00281823111788)
(-3.83368878222e-05 6.3188854803e-05 0.00279194632639)
(-4.43541137945e-05 5.91404125145e-05 0.0027570035662)
(-5.0353942042e-05 5.36004509458e-05 0.00271115773756)
(5.04579887369e-05 5.3476344601e-05 0.00279066431724)
(4.42356359394e-05 5.8332360522e-05 0.00283038061858)
(3.80890255547e-05 6.16815399759e-05 0.00285984047292)
(3.12013014511e-05 6.44253573773e-05 0.00288146432277)
(2.38086849366e-05 6.65265337267e-05 0.00289673041286)
(1.6066832329e-05 6.8012727839e-05 0.00290680583286)
(8.09780721536e-06 6.89007348268e-05 0.00291252060938)
(1.60066152622e-08 6.91967903653e-05 0.00291436989008)
(-8.06594190374e-06 6.89021598432e-05 0.00291251846647)
(-1.60354169023e-05 6.80155544511e-05 0.00290680099795)
(-2.37780632789e-05 6.6530710051e-05 0.00289672117679)
(-3.11719070968e-05 6.44307664811e-05 0.00288144705007)
(-3.80613925454e-05 6.16879651729e-05 0.00285981007615)
(-4.42104724381e-05 5.83399846181e-05 0.00283034671972)
(-5.0437403708e-05 5.34847602995e-05 0.00279065903592)
(4.96757688153e-05 5.24365723877e-05 0.00285320983189)
(4.33511462321e-05 5.6523449408e-05 0.00288712541785)
(3.71990441473e-05 5.90585366604e-05 0.00291163033012)
(3.03834786442e-05 6.1100164128e-05 0.00292913251634)
(2.31352241425e-05 6.26471524365e-05 0.00294118078764)
(1.55888386287e-05 6.37349599427e-05 0.00294896544666)
(7.85017291535e-06 6.43824909019e-05 0.00295331279608)
(1.68455587025e-08 6.45980762175e-05 0.00295470873804)
(-7.81663784227e-06 6.43839085477e-05 0.00295331456716)
(-1.55557778723e-05 6.37377873737e-05 0.00294896895091)
(-2.310298749e-05 6.26513733296e-05 0.00294118522825)
(-3.03525094046e-05 6.11057221615e-05 0.00292913512796)
(-3.71698779468e-05 5.90652998278e-05 0.00291162547678)
(-4.3324531871e-05 5.65316113442e-05 0.00288712069857)
(-4.96536690989e-05 5.24456588783e-05 0.00285323397683)
(4.80899790168e-05 5.1266594153e-05 0.00290044439008)
(4.18684534508e-05 5.40241356302e-05 0.00292987561277)
(3.58059557805e-05 5.55810415295e-05 0.00295007127741)
(2.91607488478e-05 5.68321362434e-05 0.00296409488382)
(2.21602175595e-05 5.77601611587e-05 0.00297352895289)
(1.49102752504e-05 5.84049401621e-05 0.00297951061593)
(7.50223179292e-06 5.87852850183e-05 0.00298280521197)
(1.75667900404e-08 5.8911435305e-05 0.00298385668504)
(-7.46727057395e-06 5.87865686332e-05 0.00298281214897)
(-1.48758263329e-05 5.84075155151e-05 0.00297952519178)
(-2.21266417176e-05 5.77640469944e-05 0.00297355191049)
(-2.91284850501e-05 5.68373475136e-05 0.00296412577047)
(-3.57755258972e-05 5.55875435667e-05 0.00295010503014)
(-4.18407551582e-05 5.40322662956e-05 0.00292992171319)
(-4.80664063181e-05 5.12757007432e-05 0.00290049765022)
(-8.25868364063e-08 -1.72835418656e-07 0.000134255658475)
(-1.48274098095e-08 -2.49649513722e-07 0.000140740306996)
(3.44627487051e-08 -2.9564869158e-07 0.000146485605209)
(6.63836946947e-08 -3.1911900461e-07 0.000151397050389)
(7.58203286612e-08 -3.25933640468e-07 0.000155356025979)
(6.4530266783e-08 -3.24042956725e-07 0.000158260914784)
(3.71910070653e-08 -3.1997958548e-07 0.000160038116264)
(9.05354825129e-10 -3.18074035669e-07 0.0001606412697)
(-3.5431652161e-08 -3.1988836566e-07 0.000160038460939)
(-6.29118978296e-08 -3.23852395729e-07 0.000158261579303)
(-7.43580033213e-08 -3.25613311245e-07 0.00015535698483)
(-6.49002666816e-08 -3.18605427326e-07 0.000151398382328)
(-3.29824641132e-08 -2.95068435855e-07 0.000146487711762)
(1.61473597583e-08 -2.48934146879e-07 0.000140744616389)
(8.35769003412e-08 -1.72173962263e-07 0.000134267079762)
(2.28092127896e-07 6.70125217828e-08 0.000404791215578)
(3.73286211337e-07 -1.15178606324e-08 0.000424126846528)
(4.61323991436e-07 -2.07451251472e-08 0.000441297072384)
(4.88124576882e-07 1.89926946463e-08 0.000455971822345)
(4.45101486551e-07 8.59672425496e-08 0.00046779949556)
(3.38546982096e-07 1.54909565774e-07 0.000476478839615)
(1.83777770625e-07 2.05353199253e-07 0.000481787491529)
(2.58094714176e-09 2.23876612294e-07 0.00048358364763)
(-1.78718399698e-07 2.05586219e-07 0.000481788347113)
(-3.33767649837e-07 1.55402274667e-07 0.000476480488343)
(-4.40635643026e-07 8.67892857562e-08 0.000467801887765)
(-4.83709478752e-07 2.026031982e-08 0.000455975219005)
(-4.56993728387e-07 -1.92622688616e-08 0.000441302679468)
(-3.69430313431e-07 -9.67756987221e-09 0.000424138901608)
(-2.25243472302e-07 6.8795479903e-08 0.000404821487006)
(1.06343285732e-06 9.34853049973e-07 0.000674133392162)
(1.23262542826e-06 1.0052647735e-06 0.000706007923129)
(1.29615635197e-06 1.16741130509e-06 0.000734302852339)
(1.24456098331e-06 1.38618266911e-06 0.000758459996326)
(1.06942358095e-06 1.61922653192e-06 0.00077791226261)
(7.84044373248e-07 1.8220603293e-06 0.00079217717884)
(4.16317343614e-07 1.95919603453e-06 0.000800896108306)
(4.04564770093e-09 2.00775959001e-06 0.000803840416912)
(-4.08341827106e-07 1.95949288521e-06 0.00080089715714)
(-7.76382897204e-07 1.82270686983e-06 0.000792179197173)
(-1.06212309119e-06 1.62034372364e-06 0.000777915201076)
(-1.23738925522e-06 1.38791556731e-06 0.000758464275906)
(-1.28919076022e-06 1.16953860373e-06 0.000734310290842)
(-1.2263500636e-06 1.00791327672e-06 0.000706024875928)
(-1.05876987245e-06 9.37620702989e-07 0.000674176927275)
(2.51169161971e-06 2.5121897155e-06 0.000940083479947)
(2.65690077869e-06 2.882296489e-06 0.000983800485462)
(2.63077541688e-06 3.35632192077e-06 0.00102251116392)
(2.41963896349e-06 3.8757743025e-06 0.00105548229946)
(2.01846525552e-06 4.37288605329e-06 0.00108197640978)
(1.45100528959e-06 4.78120426546e-06 0.0011013736812)
(7.61004269787e-07 5.04856142554e-06 0.00111321396024)
(5.42242855304e-09 5.14176550072e-06 0.00111720549)
(-7.50273741277e-07 5.04893940929e-06 0.0011132147564)
(-1.44058508536e-06 4.78202383665e-06 0.0011013751935)
(-2.00842646731e-06 4.37428423878e-06 0.00108197860083)
(-2.40984138169e-06 3.87790216945e-06 0.00105548569023)
(-2.62137555704e-06 3.35901942589e-06 0.00102251792158)
(-2.64840126488e-06 2.88568778279e-06 0.000983818313464)
(-2.50529117651e-06 2.51592496029e-06 0.00094013297157)
(4.47399269207e-06 4.66845743589e-06 0.00119981363275)
(4.5509020714e-06 5.43915863505e-06 0.00125419578496)
(4.37729473189e-06 6.31602939159e-06 0.00130212061972)
(3.93659962486e-06 7.21154110933e-06 0.00134277583081)
(3.23048136627e-06 8.0307733713e-06 0.00137533081014)
(2.29616869174e-06 8.68532643514e-06 0.00139909996569)
(1.1955870671e-06 9.10695846946e-06 0.00141357906775)
(6.75879589658e-09 9.25273918091e-06 0.00141845152237)
(-1.1821816242e-06 9.10743913093e-06 0.00141357919325)
(-2.2830711488e-06 8.68635005688e-06 0.00139910013681)
(-3.21779555075e-06 8.03246965285e-06 0.00137533098114)
(-3.92428987754e-06 7.21405691037e-06 0.00134277652239)
(-4.36560428882e-06 6.31926955303e-06 0.00130212406914)
(-4.54034690474e-06 5.4432852848e-06 0.0012542105208)
(-4.46590067002e-06 4.67310204731e-06 0.00119986283656)
(6.8215898746e-06 7.24450654372e-06 0.00145016053631)
(6.78955919435e-06 8.46398103099e-06 0.00151354787071)
(6.41948292853e-06 9.78000766276e-06 0.00156901331679)
(5.69344621647e-06 1.10761184217e-05 0.00161579440845)