/*--------------------------------*- C++ -*----------------------------------*\
  =========                 |
  \\      /  F ield         | OpenFOAM: The Open Source CFD Toolbox
   \\    /   O peration     | Website:  https://openfoam.org
    \\  /    A nd           | Version:  7
     \\/     M anipulation  |
\*---------------------------------------------------------------------------*/
FoamFile
{
    version     2.0;
    format      ascii;
    class       volScalarField;
    location    "0.7";
    object      p;
}
// * * * * * * * * * * * * * * * * * * * * * * * * * * * * * * * * * * * * * //

dimensions      [0 2 -2 0 0 0 0];

internalField   nonuniform List<scalar> 
22500
(
-2.14169464239e-05
-2.14153259846e-05
-2.14135371534e-05
-2.14116805843e-05
-2.14100656053e-05
-2.14088285891e-05
-2.14080581818e-05
-2.14078025391e-05
-2.140808144e-05
-2.14088749055e-05
-2.14101352807e-05
-2.14117738174e-05
-2.1413656793e-05
-2.14154703469e-05
-2.14171499045e-05
-2.14087483172e-05
-2.14067687285e-05
-2.14046138336e-05
-2.14023979303e-05
-2.14004584231e-05
-2.13989646891e-05
-2.13980302348e-05
-2.13977187456e-05
-2.1398054495e-05
-2.13990130347e-05
-2.14005311113e-05
-2.14024953241e-05
-2.14047386348e-05
-2.14069192894e-05
-2.14089568561e-05
-2.14014072896e-05
-2.13991542587e-05
-2.13967263535e-05
-2.13942347034e-05
-2.13920426218e-05
-2.1390346147e-05
-2.13892808259e-05
-2.13889243508e-05
-2.13893054052e-05
-2.13903951456e-05
-2.13921162628e-05
-2.13943334135e-05
-2.13968528643e-05
-2.13993063216e-05
-2.14016171072e-05
-2.13953585225e-05
-2.13929260684e-05
-2.13903099077e-05
-2.13876292035e-05
-2.13852597186e-05
-2.13834189326e-05
-2.13822595125e-05
-2.13818705147e-05
-2.13822842333e-05
-2.13834682205e-05
-2.13853337306e-05
-2.13877282899e-05
-2.13904367223e-05
-2.13930776898e-05
-2.13955674539e-05
-2.13902210547e-05
-2.13876830642e-05
-2.13849417157e-05
-2.13821379568e-05
-2.13796488994e-05
-2.13777094075e-05
-2.13764849991e-05
-2.13760735176e-05
-2.1376509906e-05
-2.13777590468e-05
-2.13797233491e-05
-2.13822374275e-05
-2.13850685237e-05
-2.13878338963e-05
-2.13904285749e-05
-2.1385857624e-05
-2.13832836209e-05
-2.13804785221e-05
-2.13776145795e-05
-2.13750622169e-05
-2.13730689004e-05
-2.13718084756e-05
-2.13713845136e-05
-2.13718335892e-05
-2.13731189417e-05
-2.13751371411e-05
-2.13777144489e-05
-2.13806050752e-05
-2.13834336334e-05
-2.13860639062e-05
-2.13822464316e-05
-2.13797022269e-05
-2.13768940762e-05
-2.13740314792e-05
-2.13714720227e-05
-2.13694702629e-05
-2.13682033607e-05
-2.1367777172e-05
-2.13682287361e-05
-2.13695208007e-05
-2.13715475486e-05
-2.13741318684e-05
-2.13770204212e-05
-2.13798515053e-05
-2.13824517968e-05
-2.13793598784e-05
-2.13769012088e-05
-2.13741450788e-05
-2.13713397436e-05
-2.13688258539e-05
-2.13668587882e-05
-2.13656137382e-05
-2.13651952142e-05
-2.13656394582e-05
-2.1366909982e-05
-2.13689022295e-05
-2.1371440962e-05
-2.13742715468e-05
-2.13770503294e-05
-2.13795649658e-05
-2.13771461191e-05
-2.13748129275e-05
-2.13721543652e-05
-2.13694542642e-05
-2.1367033202e-05
-2.13651402597e-05
-2.13639432395e-05
-2.13635415646e-05
-2.13639694318e-05
-2.13651923839e-05
-2.13671108463e-05
-2.13695569145e-05
-2.13722817171e-05
-2.13749629917e-05
-2.13773521852e-05
-2.13755294122e-05
-2.13733419719e-05
-2.13708157522e-05
-2.13682615033e-05
-2.13659755881e-05
-2.13641928334e-05
-2.13630679294e-05
-2.13626915971e-05
-2.13630947773e-05
-2.13642462764e-05
-2.13660551474e-05
-2.13683665038e-05
-2.13709452661e-05
-2.13734947071e-05
-2.13757385307e-05
-2.13744083503e-05
-2.13723642731e-05
-2.13699952272e-05
-2.13676227463e-05
-2.13655115722e-05
-2.1363873007e-05
-2.13628429103e-05
-2.13624998908e-05
-2.13628706385e-05
-2.13639282556e-05
-2.13655938765e-05
-2.13677313746e-05
-2.13701287139e-05
-2.13725221156e-05
-2.13746237024e-05
-2.13736518557e-05
-2.13717226219e-05
-2.13695288731e-05
-2.13673746185e-05
-2.13654786659e-05
-2.13640183513e-05
-2.13631052328e-05
-2.13628033051e-05
-2.13631340659e-05
-2.13640759444e-05
-2.13655646837e-05
-2.13674884163e-05
-2.13696686148e-05
-2.13718885791e-05
-2.13738773116e-05
-2.137307001e-05
-2.13712020353e-05
-2.1369210554e-05
-2.13673256124e-05
-2.13656940474e-05
-2.1364449856e-05
-2.13636773415e-05
-2.13634243707e-05
-2.1363707456e-05
-2.13645101911e-05
-2.13657846585e-05
-2.13674461849e-05
-2.13693591604e-05
-2.13713793762e-05
-2.13733088889e-05
-2.13722267714e-05
-2.13703969792e-05
-2.1368733886e-05
-2.13672276543e-05
-2.13659432959e-05
-2.13649722352e-05
-2.13643733235e-05
-2.13641803885e-05
-2.13644047505e-05
-2.13650355808e-05
-2.13660392042e-05
-2.13673566224e-05
-2.13688944488e-05
-2.13705905756e-05
-2.13724801777e-05
-2.13699698664e-05
-2.13687936127e-05
-2.13677636336e-05
-2.13668283153e-05
-2.13660233819e-05
-2.13654134095e-05
-2.13650391647e-05
-2.13649229455e-05
-2.1365072737e-05
-2.13654814268e-05
-2.13661272329e-05
-2.13669698239e-05
-2.13679436058e-05
-2.13690142677e-05
-2.13702402407e-05
-1.9574776233e-05
-1.95748364738e-05
-1.9574874936e-05
-1.95749080709e-05
-1.95749325079e-05
-1.95749495679e-05
-1.95749595271e-05
-1.95749629871e-05
-1.95749597179e-05
-1.95749502786e-05
-1.95749345384e-05
-1.95749120516e-05
-1.95748802166e-05
-1.95748411422e-05
-1.95747791488e-05
-1.95746994369e-05
-1.95747579793e-05
-1.9574801486e-05
-1.9574841917e-05
-1.9574872875e-05
-1.95748948738e-05
-1.95749079592e-05
-1.95749126311e-05
-1.95749085529e-05
-1.95748964142e-05
-1.95748761418e-05
-1.95748475961e-05
-1.95748090075e-05
-1.95747646414e-05
-1.95747045285e-05
-1.95744123484e-05
-1.95744531475e-05
-1.95744838602e-05
-1.95745156447e-05
-1.95745394697e-05
-1.95745562289e-05
-1.95745661376e-05
-1.95745698547e-05
-1.95745670407e-05
-1.95745583176e-05
-1.95745433228e-05
-1.95745217456e-05
-1.9574491832e-05
-1.95744599674e-05
-1.95744184572e-05
-1.95741079334e-05
-1.9574129183e-05
-1.95741424316e-05
-1.95741602403e-05
-1.95741721e-05
-1.95741798652e-05
-1.95741842271e-05
-1.95741861661e-05
-1.95741854154e-05
-1.9574182446e-05
-1.95741764414e-05
-1.95741666003e-05
-1.95741505779e-05
-1.95741361239e-05
-1.95741151547e-05
-1.95738140088e-05
-1.9573816328e-05
-1.95738106605e-05
-1.95738125028e-05
-1.95738106289e-05
-1.95738079777e-05
-1.95738058984e-05
-1.95738057386e-05
-1.95738073522e-05
-1.95738110425e-05
-1.95738155146e-05
-1.95738193112e-05
-1.95738191487e-05
-1.95738236164e-05
-1.95738224902e-05
-1.95735243819e-05
-1.95735091366e-05
-1.9573484009e-05
-1.95734694637e-05
-1.95734535811e-05
-1.95734404135e-05
-1.95734318909e-05
-1.95734296442e-05
-1.95734336124e-05
-1.95734439785e-05
-1.95734590678e-05
-1.95734768386e-05
-1.95734929986e-05
-1.95735168255e-05
-1.95735344252e-05
-1.95732418036e-05
-1.95732107331e-05
-1.95731668732e-05
-1.95731369363e-05
-1.95731082146e-05
-1.95730856561e-05
-1.95730714983e-05
-1.95730674393e-05
-1.95730734563e-05
-1.95730896661e-05
-1.9573114268e-05
-1.9573144888e-05
-1.9573176429e-05
-1.9573218871e-05
-1.95732534514e-05
-1.95729710569e-05
-1.9572925692e-05
-1.95728645143e-05
-1.95728209346e-05
-1.95727814955e-05
-1.9572751484e-05
-1.95727330534e-05
-1.95727276571e-05
-1.95727352254e-05
-1.95727559041e-05
-1.95727880831e-05
-1.95728294647e-05
-1.95728746083e-05
-1.95729343913e-05
-1.95729842259e-05
-1.95727132992e-05
-1.9572654282e-05
-1.95725771778e-05
-1.95725221419e-05
-1.95724746516e-05
-1.95724395843e-05
-1.95724185261e-05
-1.95724123581e-05
-1.95724208618e-05
-1.95724443281e-05
-1.95724816841e-05
-1.95725312105e-05
-1.95725878011e-05
-1.9572663587e-05
-1.95727281449e-05
-1.95724657965e-05
-1.95723918116e-05
-1.95722998734e-05
-1.95722357676e-05
-1.95721831317e-05
-1.95721456068e-05
-1.95721236592e-05
-1.95721173162e-05
-1.95721261147e-05
-1.9572150592e-05
-1.95721905231e-05
-1.95722452996e-05
-1.95723109899e-05
-1.95724017679e-05
-1.95724823521e-05
-1.9572221394e-05
-1.95721284348e-05
-1.95720225262e-05
-1.95719520353e-05
-1.95718974005e-05
-1.95718600222e-05
-1.95718388661e-05
-1.95718328827e-05
-1.95718413755e-05
-1.95718651251e-05
-1.95719050069e-05
-1.95719619341e-05
-1.95720341029e-05
-1.95721391056e-05
-1.95722398649e-05
-1.95719682004e-05
-1.95718490575e-05
-1.9571730667e-05
-1.95716575688e-05
-1.95716046221e-05
-1.95715701305e-05
-1.95715513186e-05
-1.95715462094e-05
-1.95715537852e-05
-1.95715751909e-05
-1.95716122278e-05
-1.95716676308e-05
-1.95717425729e-05
-1.9571860464e-05
-1.95719885273e-05
-1.95716832775e-05
-1.95715288896e-05
-1.95714038955e-05
-1.95713357667e-05
-1.95712900076e-05
-1.95712617633e-05
-1.95712471013e-05
-1.95712432811e-05
-1.95712494152e-05
-1.95712664926e-05
-1.9571297263e-05
-1.957134559e-05
-1.95714158336e-05
-1.95715408251e-05
-1.95717051369e-05
-1.95712965692e-05
-1.95711126218e-05
-1.95710092753e-05
-1.95709645558e-05
-1.95709370949e-05
-1.95709214671e-05
-1.95709140194e-05
-1.95709125415e-05
-1.95709160051e-05
-1.95709255687e-05
-1.95709434913e-05
-1.95709735971e-05
-1.95710206826e-05
-1.9571124997e-05
-1.95713191136e-05
-1.95706976e-05
-1.95706048129e-05
-1.95705703531e-05
-1.95705660332e-05
-1.9570563388e-05
-1.95705628659e-05
-1.95705635833e-05
-1.95705644948e-05
-1.95705652725e-05
-1.95705662379e-05
-1.95705687222e-05
-1.9570573883e-05
-1.95705812422e-05
-1.95706181441e-05
-1.9570719541e-05
-1.91277003958e-05
-1.91275879102e-05
-1.9127456549e-05
-1.91273277481e-05
-1.91272113446e-05
-1.91271211769e-05
-1.91270645539e-05
-1.91270457725e-05
-1.91270663399e-05
-1.91271244695e-05
-1.91272155646e-05
-1.91273321768e-05
-1.91274626691e-05
-1.91275931596e-05
-1.91277062681e-05
-1.91275211449e-05
-1.91274083077e-05
-1.91272762505e-05
-1.91271464847e-05
-1.91270293222e-05
-1.91269383736e-05
-1.91268812098e-05
-1.91268623178e-05
-1.91268833726e-05
-1.91269424293e-05
-1.91270346573e-05
-1.91271523815e-05
-1.91272837026e-05
-1.91274153145e-05
-1.91275285912e-05
-1.91274781142e-05
-1.91273759156e-05
-1.91272536839e-05
-1.91271326049e-05
-1.91270226119e-05
-1.91269367981e-05
-1.91268826626e-05
-1.91268647733e-05
-1.91268848795e-05
-1.91269409845e-05
-1.91270282157e-05
-1.9127138955e-05
-1.91272613762e-05
-1.91273833193e-05
-1.91274862153e-05
-1.9127471373e-05
-1.91273798701e-05
-1.91272670182e-05
-1.91271552268e-05
-1.91270530834e-05
-1.9126973064e-05
-1.91269223938e-05
-1.91269056396e-05
-1.91269245788e-05
-1.91269772207e-05
-1.91270587647e-05
-1.91271618085e-05
-1.91272747858e-05
-1.91273872524e-05
-1.91274801634e-05
-1.91274685705e-05
-1.91273865416e-05
-1.91272817439e-05
-1.91271788457e-05
-1.91270843794e-05
-1.91270101806e-05
-1.91269631074e-05
-1.91269475663e-05
-1.91269652899e-05
-1.91270143427e-05
-1.91270901169e-05
-1.91271855857e-05
-1.91272896376e-05
-1.91273939219e-05
-1.91274780103e-05
-1.91274749881e-05
-1.91274020936e-05
-1.91273052605e-05
-1.91272114086e-05
-1.91271250463e-05
-1.91270571659e-05
-1.91270140758e-05
-1.91269998946e-05
-1.91270162528e-05
-1.91270613307e-05
-1.91271308335e-05
-1.91272182865e-05
-1.91273132358e-05
-1.91274096343e-05
-1.91274849554e-05
-1.91274951642e-05
-1.91274317063e-05
-1.91273427904e-05
-1.91272582527e-05
-1.91271804565e-05
-1.91271193877e-05
-1.91270806753e-05
-1.9127068003e-05
-1.91270828471e-05
-1.91271235438e-05
-1.91271862544e-05
-1.91272652049e-05
-1.91273507993e-05
-1.91274393362e-05
-1.91275057369e-05
-1.91275295791e-05
-1.91274753663e-05
-1.91273941004e-05
-1.91273188812e-05
-1.91272499277e-05
-1.91271960281e-05
-1.91271619847e-05
-1.9127150933e-05
-1.91271641465e-05
-1.91272001688e-05
-1.91272557339e-05
-1.91273259135e-05
-1.91274021755e-05
-1.91274831011e-05
-1.91275408437e-05
-1.91275771006e-05
-1.9127531099e-05
-1.91274568876e-05
-1.91273906505e-05
-1.91273305265e-05
-1.91272839198e-05
-1.91272546916e-05
-1.91272453196e-05
-1.9127256831e-05
-1.91272880266e-05
-1.91273363092e-05
-1.91273977307e-05
-1.9127465035e-05
-1.91275389646e-05
-1.91275890624e-05
-1.91276352654e-05
-1.91275954502e-05
-1.91275273066e-05
-1.91274694085e-05
-1.91274178794e-05
-1.91273785225e-05
-1.91273541203e-05
-1.91273464432e-05
-1.91273562326e-05
-1.91273825831e-05
-1.91274236362e-05
-1.91274765389e-05
-1.91275355507e-05
-1.91276035168e-05
-1.91276479637e-05
-1.91277002493e-05
-1.91276634834e-05
-1.91276001077e-05
-1.91275497972e-05
-1.91275065347e-05
-1.91274742393e-05
-1.91274545853e-05
-1.91274485593e-05
-1.91274566542e-05
-1.91274782284e-05
-1.91275122279e-05
-1.91275569512e-05
-1.91276084282e-05
-1.91276717594e-05
-1.912771372e-05
-1.9127767557e-05
-1.91277291754e-05
-1.91276690844e-05
-1.91276257463e-05
-1.91275904055e-05
-1.91275649405e-05
-1.91275498102e-05
-1.91275453817e-05
-1.91275518043e-05
-1.91275688125e-05
-1.91275959815e-05
-1.91276328475e-05
-1.91276774329e-05
-1.91277376012e-05
-1.91277816628e-05
-1.91278317757e-05
-1.91277854312e-05
-1.91277276602e-05
-1.91276912427e-05
-1.91276635376e-05
-1.91276443376e-05
-1.91276333656e-05
-1.9127630279e-05
-1.9127635248e-05
-1.91276480011e-05
-1.91276688512e-05
-1.91276981464e-05
-1.91277358853e-05
-1.91277939238e-05
-1.91278464293e-05
-1.91278669579e-05
-1.91278102451e-05
-1.91277632385e-05
-1.91277381172e-05
-1.91277197431e-05
-1.91277073628e-05
-1.91277003989e-05
-1.9127698713e-05
-1.91277021151e-05
-1.91277106758e-05
-1.91277246366e-05
-1.91277445674e-05
-1.91277710842e-05
-1.91278186475e-05
-1.91278818397e-05
-1.91277421428e-05
-1.91277519123e-05
-1.9127749243e-05
-1.91277548148e-05
-1.91277576809e-05
-1.91277594431e-05
-1.91277607336e-05
-1.9127761636e-05
-1.91277622466e-05
-1.91277623927e-05
-1.91277620204e-05
-1.91277606709e-05
-1.91277566605e-05
-1.91277602481e-05
-1.91277560916e-05
-1.75897495247e-05
-1.7589801543e-05
-1.75898488731e-05
-1.75898925999e-05
-1.75899293805e-05
-1.75899567269e-05
-1.7589973338e-05
-1.7589978246e-05
-1.75899710094e-05
-1.75899522815e-05
-1.75899233898e-05
-1.75898862178e-05
-1.75898425322e-05
-1.7589795877e-05
-1.75897418728e-05
-1.75897666163e-05
-1.7589818069e-05
-1.75898669139e-05
-1.75899131366e-05
-1.75899520278e-05
-1.75899809973e-05
-1.75899985985e-05
-1.75900038339e-05
-1.75899962008e-05
-1.75899764472e-05
-1.75899459764e-05
-1.75899068475e-05
-1.75898611548e-05
-1.75898129774e-05
-1.75897603172e-05
-1.75896677557e-05
-1.75897099002e-05
-1.75897506758e-05
-1.75897911293e-05
-1.75898254568e-05
-1.75898513759e-05
-1.75898672385e-05
-1.75898719987e-05
-1.75898650818e-05
-1.75898472674e-05
-1.75898199501e-05
-1.75897852414e-05
-1.7589745295e-05
-1.7589704674e-05
-1.75896619104e-05
-1.75895586839e-05
-1.75895919887e-05
-1.75896246861e-05
-1.75896586526e-05
-1.75896879286e-05
-1.75897104124e-05
-1.75897243122e-05
-1.75897285342e-05
-1.75897224539e-05
-1.75897068584e-05
-1.75896831248e-05
-1.75896533811e-05
-1.75896197183e-05
-1.75895868981e-05
-1.75895532202e-05
-1.75894603517e-05
-1.75894864502e-05
-1.75895121732e-05
-1.75895401406e-05
-1.75895647054e-05
-1.75895838591e-05
-1.7589595846e-05
-1.75895995092e-05
-1.75895942289e-05
-1.75895807591e-05
-1.75895604585e-05
-1.75895354014e-05
-1.75895075203e-05
-1.75894815688e-05
-1.75894552824e-05
-1.75893671187e-05
-1.7589387206e-05
-1.75894060733e-05
-1.758942828e-05
-1.75894481377e-05
-1.75894639467e-05
-1.75894739637e-05
-1.75894770569e-05
-1.75894725891e-05
-1.75894613009e-05
-1.75894444898e-05
-1.75894241317e-05
-1.75894019104e-05
-1.75893824825e-05
-1.75893627639e-05
-1.75892765302e-05
-1.75892910311e-05
-1.75893032853e-05
-1.75893198466e-05
-1.75893349874e-05
-1.75893473881e-05
-1.75893553733e-05
-1.75893578618e-05
-1.75893542138e-05
-1.75893451367e-05
-1.75893318569e-05
-1.7589316208e-05
-1.75892995742e-05
-1.75892864886e-05
-1.75892728083e-05
-1.75891882448e-05
-1.75891973085e-05
-1.75892032807e-05
-1.75892143177e-05
-1.75892249065e-05
-1.75892339849e-05
-1.75892399989e-05
-1.75892418897e-05
-1.75892390465e-05
-1.75892321212e-05
-1.75892222781e-05
-1.75892111947e-05
-1.75891999634e-05
-1.75891930282e-05
-1.75891850223e-05
-1.75891015177e-05
-1.75891053676e-05
-1.75891052947e-05
-1.75891111619e-05
-1.7589117539e-05
-1.75891235385e-05
-1.75891277237e-05
-1.75891290557e-05
-1.75891269502e-05
-1.75891220086e-05
-1.758911534e-05
-1.75891084899e-05
-1.7589102329e-05
-1.75891013346e-05
-1.75890988952e-05
-1.75890153171e-05
-1.75890136639e-05
-1.75890078019e-05
-1.75890090653e-05
-1.75890118067e-05
-1.75890152043e-05
-1.75890178399e-05
-1.75890187092e-05
-1.7589017229e-05
-1.75890139723e-05
-1.75890100061e-05
-1.75890068043e-05
-1.75890051672e-05
-1.75890098599e-05
-1.75890132916e-05
-1.75889276612e-05
-1.75889197518e-05
-1.75889086039e-05
-1.75889062034e-05
-1.75889062665e-05
-1.75889077539e-05
-1.75889092788e-05
-1.75889098011e-05
-1.75889087898e-05
-1.75889067518e-05
-1.75889047693e-05
-1.75889043006e-05
-1.75889062831e-05
-1.75889162515e-05
-1.75889263566e-05
-1.75888357369e-05
-1.75888203098e-05
-1.75888048533e-05
-1.7588800338e-05
-1.7588799059e-05
-1.75887996576e-05
-1.7588800615e-05
-1.7588800991e-05
-1.75888002065e-05
-1.75887988067e-05
-1.75887977959e-05
-1.75887987088e-05
-1.75888028263e-05
-1.7588817164e-05
-1.75888352271e-05
-1.75887330932e-05
-1.75887091321e-05
-1.75886919554e-05
-1.75886881456e-05
-1.75886877281e-05
-1.75886887988e-05
-1.75886900798e-05
-1.75886904861e-05
-1.75886897105e-05
-1.75886880405e-05
-1.75886865725e-05
-1.75886867239e-05
-1.75886901759e-05
-1.75887063841e-05
-1.75887333943e-05
-1.75886015138e-05
-1.75885722433e-05
-1.75885613598e-05
-1.75885640078e-05
-1.75885681606e-05
-1.75885723194e-05
-1.75885752177e-05
-1.75885762312e-05
-1.75885748581e-05
-1.75885715216e-05
-1.75885670296e-05
-1.75885626204e-05
-1.75885597246e-05
-1.75885699136e-05
-1.75886026926e-05
-1.75884343465e-05
-1.75884205365e-05
-1.75884254753e-05
-1.75884367566e-05
-1.75884460283e-05
-1.75884532465e-05
-1.75884579021e-05
-1.75884593831e-05
-1.75884574771e-05
-1.75884523655e-05
-1.75884447136e-05
-1.75884352087e-05
-1.75884238181e-05
-1.75884185065e-05
-1.75884353678e-05
-1.69041556209e-05
-1.69040966993e-05
-1.6904030764e-05
-1.69039680757e-05
-1.69039114583e-05
-1.69038671069e-05
-1.69038393723e-05
-1.69038300325e-05
-1.69038396408e-05
-1.69038672569e-05
-1.69039107359e-05
-1.69039667036e-05
-1.69040301526e-05
-1.69040949522e-05
-1.69041550315e-05
-1.69040713713e-05
-1.69040125515e-05
-1.69039462868e-05
-1.69038827636e-05
-1.69038253503e-05
-1.69037804347e-05
-1.69037523083e-05
-1.6903742854e-05
-1.69037527259e-05
-1.69037808959e-05
-1.69038251266e-05
-1.69038819464e-05
-1.69039461896e-05
-1.69040118586e-05
-1.69040716584e-05
-1.69040791288e-05
-1.69040274482e-05
-1.69039677318e-05
-1.69039095289e-05
-1.69038566639e-05
-1.69038151685e-05
-1.69037890608e-05
-1.69037802509e-05
-1.690378946e-05
-1.69038156627e-05
-1.69038566442e-05
-1.69039089968e-05
-1.69039676198e-05
-1.6904026932e-05
-1.69040794188e-05
-1.69041075178e-05
-1.6904063144e-05
-1.69040098149e-05
-1.69039574658e-05
-1.69039096462e-05
-1.69038720358e-05
-1.69038482309e-05
-1.69038401537e-05
-1.69038485723e-05
-1.69038724937e-05
-1.69039097729e-05
-1.69039571384e-05
-1.690400966e-05
-1.69040624854e-05
-1.69041078504e-05
-1.69041364903e-05
-1.69040986557e-05
-1.69040509125e-05
-1.69040042275e-05
-1.69039613352e-05
-1.69039275138e-05
-1.69039060226e-05
-1.69038987045e-05
-1.69039063276e-05
-1.69039279418e-05
-1.69039615233e-05
-1.69040040077e-05
-1.69040507408e-05
-1.69040977982e-05
-1.69041368785e-05
-1.69041693063e-05
-1.69041374228e-05
-1.69040953267e-05
-1.69040543654e-05
-1.69040165751e-05
-1.69039867432e-05
-1.69039677179e-05
-1.6903961222e-05
-1.69039679867e-05
-1.69039871343e-05
-1.69040168072e-05
-1.69040542298e-05
-1.69040951253e-05
-1.6904136595e-05
-1.6904169604e-05
-1.69042080818e-05
-1.69041822527e-05
-1.69041457373e-05
-1.69041105694e-05
-1.69040780455e-05
-1.69040523504e-05
-1.6904035929e-05
-1.69040303139e-05
-1.69040361681e-05
-1.69040527003e-05
-1.6904078274e-05
-1.69041104638e-05
-1.69041454572e-05
-1.69041813906e-05
-1.69042083982e-05
-1.69042528576e-05
-1.69042329657e-05
-1.6904201822e-05
-1.69041724041e-05
-1.69041451784e-05
-1.69041236812e-05
-1.69041099287e-05
-1.69041052227e-05
-1.69041101404e-05
-1.69041239936e-05
-1.69041454062e-05
-1.69041723504e-05
-1.6904201548e-05
-1.69042321085e-05
-1.69042533514e-05
-1.69043032454e-05
-1.69042888318e-05
-1.69042627327e-05
-1.69042388098e-05
-1.69042167075e-05
-1.69041993039e-05
-1.69041881894e-05
-1.69041843865e-05
-1.69041883772e-05
-1.69041995852e-05
-1.6904216921e-05
-1.69042387872e-05
-1.69042624863e-05
-1.69042880008e-05
-1.69043039289e-05
-1.69043584842e-05
-1.69043487441e-05
-1.69043272291e-05
-1.69043083523e-05
-1.69042910505e-05
-1.69042775341e-05
-1.69042689277e-05
-1.69042659996e-05
-1.69042691003e-05
-1.69042777919e-05
-1.69042912727e-05
-1.69043083917e-05
-1.69043270706e-05
-1.69043480354e-05
-1.69043594046e-05
-1.69044175167e-05
-1.69044114194e-05
-1.69043938382e-05
-1.6904379385e-05
-1.69043664267e-05
-1.69043564324e-05
-1.69043501435e-05
-1.69043480076e-05
-1.69043503005e-05
-1.69043566742e-05
-1.69043666431e-05
-1.69043794843e-05
-1.69043937583e-05
-1.69044108463e-05
-1.69044187029e-05
-1.69044794858e-05
-1.69044754675e-05
-1.69044608882e-05
-1.69044501299e-05
-1.69044408691e-05
-1.69044339799e-05
-1.6904429676e-05
-1.69044282657e-05
-1.69044298184e-05
-1.69044341986e-05
-1.69044411073e-05
-1.69044502715e-05
-1.69044608967e-05
-1.69044749788e-05
-1.69044808588e-05
-1.69045442254e-05
-1.69045399086e-05
-1.69045271469e-05
-1.69045190934e-05
-1.69045127593e-05
-1.69045081516e-05
-1.69045054591e-05
-1.69045045164e-05
-1.69045055801e-05
-1.69045083758e-05
-1.69045129586e-05
-1.69045192989e-05
-1.6904527205e-05
-1.69045395155e-05
-1.69045457982e-05
-1.69046061796e-05
-1.69045995673e-05
-1.69045897097e-05
-1.69045845432e-05
-1.69045805074e-05
-1.69045777597e-05
-1.69045760446e-05
-1.69045755572e-05
-1.69045761669e-05
-1.6904577907e-05
-1.6904580723e-05
-1.6904584692e-05
-1.69045898008e-05
-1.6904599206e-05
-1.69046079398e-05
-1.69046112333e-05
-1.69046287152e-05
-1.69046334142e-05
-1.69046386531e-05
-1.69046420513e-05
-1.69046441694e-05
-1.69046453985e-05
-1.69046457892e-05
-1.69046454646e-05
-1.69046442852e-05
-1.69046421349e-05
-1.6904638756e-05
-1.69046334304e-05
-1.69046283607e-05
-1.69046126567e-05
-1.55232736475e-05
-1.55233128999e-05
-1.55233522854e-05
-1.55233890825e-05
-1.55234204709e-05
-1.55234440249e-05
-1.55234583476e-05
-1.55234625822e-05
-1.55234564107e-05
-1.55234403685e-05
-1.5523415644e-05
-1.55233840207e-05
-1.55233476041e-05
-1.55233096577e-05
-1.55232694553e-05
-1.55232988815e-05
-1.55233381696e-05
-1.55233784597e-05
-1.55234167248e-05
-1.55234493691e-05
-1.55234738591e-05
-1.55234887274e-05
-1.55234931077e-05
-1.55234866432e-05
-1.55234699406e-05
-1.5523444252e-05
-1.55234114686e-05
-1.55233738933e-05
-1.55233350198e-05
-1.55232955554e-05
-1.55232468454e-05
-1.55232799957e-05
-1.55233145408e-05
-1.55233486252e-05
-1.55233779653e-05
-1.55234002486e-05
-1.55234138774e-05
-1.55234179352e-05
-1.55234120046e-05
-1.55233967193e-05
-1.55233733292e-05
-1.5523343747e-05
-1.55233102926e-05
-1.552327661e-05
-1.55232437158e-05
-1.55231852237e-05
-1.55232121502e-05
-1.55232410197e-05
-1.55232703777e-05
-1.55232960572e-05
-1.55233158311e-05
-1.55233280374e-05
-1.55233317242e-05
-1.55233264289e-05
-1.5523312791e-05
-1.55232920447e-05
-1.55232660864e-05
-1.55232371688e-05
-1.55232088768e-05
-1.55231821631e-05
-1.5523128477e-05
-1.55231501172e-05
-1.55231740174e-05
-1.5523198865e-05
-1.55232209992e-05
-1.55232382535e-05
-1.55232490177e-05
-1.5523252297e-05
-1.55232476289e-05
-1.55232356268e-05
-1.55232174947e-05
-1.55231950583e-05
-1.55231704265e-05
-1.55231469772e-05
-1.55231255093e-05
-1.55230728995e-05
-1.55230899788e-05
-1.55231088344e-05
-1.55231292927e-05
-1.55231478066e-05
-1.55231624414e-05
-1.55231716542e-05
-1.55231744853e-05
-1.55231704647e-05
-1.5523160188e-05
-1.55231447894e-05
-1.55231259796e-05
-1.55231056504e-05
-1.55230869058e-05
-1.55230703092e-05
-1.55230168834e-05
-1.55230295037e-05
-1.5523043424e-05
-1.55230594685e-05
-1.55230742381e-05
-1.55230861209e-05
-1.55230936808e-05
-1.5523096019e-05
-1.55230926704e-05
-1.55230841958e-05
-1.55230716396e-05
-1.55230565549e-05
-1.55230405695e-05
-1.55230264951e-05
-1.55230145733e-05
-1.55229602598e-05
-1.55229683837e-05
-1.552297758e-05
-1.55229892615e-05
-1.55230003398e-05
-1.5523009467e-05
-1.552301536e-05
-1.55230171844e-05
-1.55230145065e-05
-1.55230078349e-05
-1.55229981162e-05
-1.55229867239e-05
-1.55229750057e-05
-1.5522965518e-05
-1.55229580848e-05
-1.552290271e-05
-1.55229066174e-05
-1.55229112772e-05
-1.55229188164e-05
-1.55229263856e-05
-1.55229328686e-05
-1.55229371551e-05
-1.5522938473e-05
-1.55229364309e-05
-1.5522931478e-05
-1.55229244585e-05
-1.55229165692e-05
-1.55229089013e-05
-1.55229038394e-05
-1.55229007649e-05
-1.55228440679e-05
-1.55228437954e-05
-1.55228441759e-05
-1.55228479916e-05
-1.55228524242e-05
-1.55228565677e-05
-1.55228594077e-05
-1.55228602765e-05
-1.55228587974e-05
-1.55228553789e-05
-1.55228507628e-05
-1.55228459936e-05
-1.55228419745e-05
-1.55228410841e-05
-1.55228423189e-05
-1.55227836515e-05
-1.55227791648e-05
-1.55227757582e-05
-1.55227765108e-05
-1.55227784545e-05
-1.55227806981e-05
-1.55227823845e-05
-1.5522782874e-05
-1.55227818591e-05
-1.55227796732e-05
-1.55227769897e-05
-1.552277473e-05
-1.55227737134e-05
-1.55227765714e-05
-1.55227822134e-05
-1.55227204578e-05
-1.55227115996e-05
-1.5522705189e-05
-1.55227039379e-05
-1.55227042433e-05
-1.5522705297e-05
-1.55227061819e-05
-1.55227064436e-05
-1.55227057254e-05
-1.5522704382e-05
-1.55227029642e-05
-1.55227023262e-05
-1.55227033117e-05
-1.55227091814e-05
-1.55227194148e-05
-1.55226514447e-05
-1.55226383685e-05
-1.55226306759e-05
-1.55226291153e-05
-1.55226292722e-05
-1.55226299789e-05
-1.55226307324e-05
-1.5522630867e-05
-1.55226303121e-05
-1.55226291958e-05
-1.55226280875e-05
-1.55226277092e-05
-1.55226289722e-05
-1.55226361959e-05
-1.55226508489e-05
-1.55225685168e-05
-1.55225535556e-05
-1.55225485408e-05
-1.55225498405e-05
-1.5522551829e-05
-1.55225538969e-05
-1.55225552512e-05
-1.55225556888e-05
-1.55225548933e-05
-1.55225531288e-05
-1.55225507975e-05
-1.55225485203e-05
-1.5522547047e-05
-1.55225516916e-05
-1.55225685707e-05
-1.55224792769e-05
-1.55224676742e-05
-1.55224681589e-05
-1.55224719779e-05
-1.5522475448e-05
-1.55224782716e-05
-1.55224801499e-05
-1.552248068e-05
-1.55224797693e-05
-1.55224775411e-05
-1.55224743642e-05
-1.55224706963e-05
-1.55224667077e-05
-1.55224660528e-05
-1.55224793493e-05
-1.47150383158e-05
-1.47149977146e-05
-1.4714951132e-05
-1.47149064908e-05
-1.47148675337e-05
-1.47148375835e-05
-1.47148186254e-05
-1.47148121949e-05
-1.47148189404e-05
-1.47148382475e-05
-1.47148685994e-05
-1.4714907575e-05
-1.4714951731e-05
-1.47149967673e-05
-1.47150389121e-05
-1.47149849199e-05
-1.47149443702e-05
-1.47148974205e-05
-1.47148521158e-05
-1.47148125223e-05
-1.471478204e-05
-1.47147627517e-05
-1.47147562221e-05
-1.47147631477e-05
-1.4714782868e-05
-1.47148137922e-05
-1.47148534301e-05
-1.47148982079e-05
-1.47149438737e-05
-1.47149857599e-05
-1.47149977941e-05
-1.47149622832e-05
-1.47149202599e-05
-1.47148789146e-05
-1.47148424476e-05
-1.4714814178e-05
-1.47147962291e-05
-1.47147901457e-05
-1.47147966231e-05
-1.47148149835e-05
-1.47148436471e-05
-1.4714880157e-05
-1.47149209728e-05
-1.47149620634e-05
-1.47149986028e-05
-1.47150244176e-05
-1.47149942064e-05
-1.47149569887e-05
-1.47149200658e-05
-1.47148870748e-05
-1.47148613132e-05
-1.47148449038e-05
-1.4714839335e-05
-1.47148452759e-05
-1.47148620462e-05
-1.47148881098e-05
-1.47149210942e-05
-1.47149575728e-05
-1.47149939543e-05
-1.47150253146e-05
-1.47150508545e-05
-1.47150253849e-05
-1.47149924027e-05
-1.47149597244e-05
-1.47149301834e-05
-1.47149069905e-05
-1.47148921726e-05
-1.47148871395e-05
-1.47148925204e-05
-1.47149076584e-05
-1.47149310889e-05
-1.47149605806e-05
-1.47149928979e-05
-1.47150250294e-05
-1.47150517697e-05
-1.4715079664e-05
-1.4715058472e-05
-1.47150298396e-05
-1.47150014569e-05
-1.47149755303e-05
-1.4714955078e-05
-1.47149419791e-05
-1.47149375268e-05
-1.47149422964e-05
-1.47149556693e-05
-1.47149762875e-05
-1.47150021195e-05
-1.47150301992e-05
-1.47150581677e-05
-1.47150804358e-05
-1.47151122872e-05
-1.47150954751e-05
-1.47150711627e-05
-1.47150471089e-05
-1.47150249697e-05
-1.47150074379e-05
-1.47149961873e-05
-1.47149923587e-05
-1.47149964727e-05
-1.4715007955e-05
-1.47150256018e-05
-1.47150476214e-05
-1.47150713794e-05
-1.47150951804e-05
-1.47151130104e-05
-1.47151487123e-05
-1.47151362784e-05
-1.47151161466e-05
-1.47150964185e-05
-1.47150781218e-05
-1.47150635802e-05
-1.47150542306e-05
-1.47150510464e-05
-1.47150544794e-05
-1.47150640161e-05
-1.47150786298e-05
-1.47150968052e-05
-1.47151162864e-05
-1.47151360028e-05
-1.47151495432e-05
-1.4715188743e-05
-1.47151803834e-05
-1.4715164207e-05
-1.47151486151e-05
-1.47151340559e-05
-1.47151224643e-05
-1.47151150016e-05
-1.47151124637e-05
-1.47151152161e-05
-1.47151228314e-05
-1.47151344681e-05
-1.47151489133e-05
-1.47151643123e-05
-1.47151801464e-05
-1.47151896712e-05
-1.47152318882e-05
-1.47152271243e-05
-1.47152145903e-05
-1.47152027952e-05
-1.47151917387e-05
-1.47151829271e-05
-1.47151772571e-05
-1.47151753296e-05
-1.47151774385e-05
-1.47151832317e-05
-1.47151920697e-05
-1.47152030428e-05
-1.4715214709e-05
-1.47152269938e-05
-1.47152329607e-05
-1.47152776164e-05
-1.4715275846e-05
-1.471526646e-05
-1.47152579591e-05
-1.47152500067e-05
-1.47152436969e-05
-1.47152396468e-05
-1.47152382764e-05
-1.47152398032e-05
-1.47152439493e-05
-1.47152502835e-05
-1.47152581801e-05
-1.47152665987e-05
-1.47152758162e-05
-1.47152788276e-05
-1.47153255855e-05
-1.47153258888e-05
-1.47153189326e-05
-1.47153130828e-05
-1.47153077149e-05
-1.47153035015e-05
-1.47153008294e-05
-1.47152999327e-05
-1.471530096e-05
-1.47153037263e-05
-1.47153079475e-05
-1.47153132961e-05
-1.47153191087e-05
-1.47153259085e-05
-1.47153268588e-05
-1.4715376218e-05
-1.47153771133e-05
-1.4715371561e-05
-1.47153674819e-05
-1.47153639175e-05
-1.47153612288e-05
-1.47153595344e-05
-1.47153589848e-05
-1.47153596591e-05
-1.47153614096e-05
-1.47153641336e-05
-1.47153676866e-05
-1.47153717518e-05
-1.47153771738e-05
-1.47153775312e-05
-1.47154275244e-05
-1.47154274369e-05
-1.4715423241e-05
-1.47154204364e-05
-1.47154180467e-05
-1.47154162197e-05
-1.47154150957e-05