/*--------------------------------*- C++ -*----------------------------------*\
  =========                 |
  \\      /  F ield         | OpenFOAM: The Open Source CFD Toolbox
   \\    /   O peration     | Website:  https://openfoam.org
    \\  /    A nd           | Version:  7
     \\/     M anipulation  |
\*---------------------------------------------------------------------------*/
FoamFile
{
    version     2.0;
    format      ascii;
    class       volVectorField;
    location    "0.7";
    object      U;
}
// * * * * * * * * * * * * * * * * * * * * * * * * * * * * * * * * * * * * * //

dimensions      [0 1 -1 0 0 0 0];

internalField   nonuniform List<vector> 
22500
(
(-3.5299864231e-06 -3.45385416234e-06 -5.89866123181e-05)
(-3.77670065708e-06 -3.60275880863e-06 -6.30294987694e-05)
(-3.7304506002e-06 -3.96980107976e-06 -6.74180920603e-05)
(-3.42695460026e-06 -4.43005595167e-06 -7.16105248564e-05)
(-2.84640076005e-06 -4.90561558698e-06 -7.52201583908e-05)
(-2.03314157171e-06 -5.31144035546e-06 -7.79764067461e-05)
(-1.04980021638e-06 -5.58202977377e-06 -7.97007345072e-05)
(2.37323809748e-08 -5.67557637111e-06 -8.02889244489e-05)
(1.09681422687e-06 -5.57749860823e-06 -7.9699145907e-05)
(2.07893007435e-06 -5.30251562203e-06 -7.79732695346e-05)
(2.89028651502e-06 -4.89258228972e-06 -7.5215284699e-05)
(3.46852656303e-06 -4.41320448156e-06 -7.16029785615e-05)
(3.76891771573e-06 -3.9496374924e-06 -6.74049270496e-05)
(3.81373199832e-06 -3.57842445498e-06 -6.30011814452e-05)
(3.5589490792e-06 -3.42890739487e-06 -5.8914792677e-05)
(-9.37751548932e-06 -9.24950054518e-06 -0.000159267923514)
(-9.98716964562e-06 -9.64247233615e-06 -0.00016948825433)
(-9.90806704171e-06 -1.059694159e-05 -0.000180898798626)
(-9.13394173827e-06 -1.1806792964e-05 -0.000191971169388)
(-7.61337793523e-06 -1.30666692928e-05 -0.000201592760188)
(-5.45086120476e-06 -1.41483064995e-05 -0.000208981319534)
(-2.81637285301e-06 -1.48725636426e-05 -0.000213618764595)
(6.87321601171e-08 -1.51232616551e-05 -0.000215201308096)
(2.95261809533e-06 -1.48597796938e-05 -0.000213614270774)
(5.58371699777e-06 -1.4123187661e-05 -0.000208972512342)
(7.74094131275e-06 -1.30300710162e-05 -0.000201578946653)
(9.25481459461e-06 -1.1759688637e-05 -0.000191949319609)
(1.00202782894e-05 -1.05409468691e-05 -0.000180859837533)
(1.00922656044e-05 -9.57622830233e-06 -0.000169404007612)
(9.45950158923e-06 -9.18061142662e-06 -0.000159068819938)
(-1.25067037918e-05 -1.21873649637e-05 -0.000240550500452)
(-1.33863459598e-05 -1.24509706644e-05 -0.000255019479894)
(-1.33974749235e-05 -1.35165992893e-05 -0.000271617016533)
(-1.24357831453e-05 -1.49825329917e-05 -0.000287953343399)
(-1.04181826001e-05 -1.65648827259e-05 -0.00030226648989)
(-7.48104523593e-06 -1.79485337644e-05 -0.000313312155233)
(-3.86597014225e-06 -1.88837811208e-05 -0.000320264515962)
(1.09112502876e-07 -1.92079620302e-05 -0.000322638778844)
(4.08238675709e-06 -1.88641197083e-05 -0.000320257867724)
(7.69238782526e-06 -1.7909942375e-05 -0.000313299248278)
(1.06215318125e-05 -1.65086976745e-05 -0.000302246066882)
(1.26288140792e-05 -1.49104175388e-05 -0.000287920349636)
(1.35770860197e-05 -1.34311258402e-05 -0.000271557172838)
(1.35527615218e-05 -1.23509365105e-05 -0.000254890179802)
(1.26372572472e-05 -1.20818030887e-05 -0.000240250536883)
(-1.36177775788e-05 -1.30212527963e-05 -0.000304147854762)
(-1.47050371399e-05 -1.29186492787e-05 -0.000321128634036)
(-1.48822114349e-05 -1.37910375171e-05 -0.000341217110921)
(-1.39343421281e-05 -1.51880393718e-05 -0.000361303129271)
(-1.17459765141e-05 -1.67831761371e-05 -0.00037906050985)
(-8.46439558645e-06 -1.82145587883e-05 -0.000392837581579)
(-4.37437100363e-06 -1.91942069266e-05 -0.000401535688881)
(1.45102538693e-07 -1.95341678617e-05 -0.000404509510049)
(4.66229242359e-06 -1.9168649888e-05 -0.000401528240563)
(8.74586211268e-06 -1.81644385037e-05 -0.000392823358477)
(1.20171672747e-05 -1.67102528482e-05 -0.000379037679243)
(1.41920309594e-05 -1.50946278008e-05 -0.00036126488281)
(1.51222762285e-05 -1.3680608733e-05 -0.000341145385326)
(1.49261168955e-05 -1.27902750707e-05 -0.000320971261711)
(1.37932938027e-05 -1.28845991601e-05 -0.000303783094961)
(-1.31952153768e-05 -1.22807245788e-05 -0.000351477721725)
(-1.44484816135e-05 -1.16645105583e-05 -0.000369444239046)
(-1.48395405109e-05 -1.2145706265e-05 -0.000391507912946)
(-1.40514235632e-05 -1.32576040759e-05 -0.000413974685604)
(-1.19372852518e-05 -1.46547675099e-05 -0.000434040360264)
(-8.64002035111e-06 -1.59582438702e-05 -0.00044970206649)
(-4.46469212736e-06 -1.68661106469e-05 -0.000459623983855)
(1.77355233511e-07 -1.71814557731e-05 -0.000463021178968)
(4.81671893583e-06 -1.68354294923e-05 -0.000459616909196)
(8.98441158131e-06 -1.58981081056e-05 -0.000449688978196)
(1.22693978089e-05 -1.45673044813e-05 -0.000434018995327)
(1.43671532027e-05 -1.31457053617e-05 -0.000413937040772)
(1.51339239e-05 -1.2013635486e-05 -0.000391433842236)
(1.47187223459e-05 -1.15116021692e-05 -0.000369275680963)
(1.34127527053e-05 -1.21169098768e-05 -0.000351079628968)
(-1.15900095214e-05 -1.03364200166e-05 -0.000384020777194)
(-1.29839650067e-05 -9.12360641834e-06 -0.00040167027576)
(-1.36215257632e-05 -9.09150399548e-06 -0.000424397020143)
(-1.31003019262e-05 -9.77900929492e-06 -0.00044804419124)
(-1.12457399675e-05 -1.08377206325e-05 -0.000469412723493)
(-8.18610315099e-06 -1.18936723359e-05 -0.00048620478692)
(-4.22855109082e-06 -1.26496116489e-05 -0.000496883678262)
(2.06658389577e-07 -1.29123319892e-05 -0.0005005463304)
(4.6388333073e-06 -1.26144084622e-05 -0.000496877688234)
(8.58769229764e-06 -1.1824690526e-05 -0.000486194375356)
(1.16332261422e-05 -1.07373953466e-05 -0.000469395489452)
(1.3468745904e-05 -9.65073644719e-06 -0.000448011708063)
(1.39653253805e-05 -8.94018788459e-06 -0.000424328759759)
(1.32991959628e-05 -8.94889162945e-06 -0.000401504666615)
(1.18471362537e-05 -1.0148341627e-05 -0.000383612502246)
(-9.10735851886e-06 -7.50868906566e-06 -0.000403254205356)
(-1.0628435235e-05 -5.6758967975e-06 -0.000419506927082)
(-1.15327173224e-05 -5.07559892054e-06 -0.000441792792044)
(-1.13520971021e-05 -5.26553447454e-06 -0.000465593140567)
(-9.89076072026e-06 -5.9051439508e-06 -0.000487391820916)
(-7.25663899541e-06 -6.64144576471e-06 -0.000504652607557)
(-3.74503729073e-06 -7.19584199119e-06 -0.000515676045128)
(2.33745041022e-07 -7.3884090261e-06 -0.000519463996835)
(4.2091699919e-06 -7.15656419927e-06 -0.000515671191358)
(7.71109214378e-06 -6.56447501519e-06 -0.000504645101856)
(1.0329395543e-05 -5.79315880745e-06 -0.000487379518571)
(1.17691969326e-05 -5.1223674709e-06 -0.000465568070929)
(1.19222109894e-05 -4.90667036311e-06 -0.000441735585236)
(1.09855489752e-05 -5.4812441503e-06 -0.000419353806986)
(9.4021706642e-06 -7.29847486772e-06 -0.000402851143585)
(-6.02824098523e-06 -4.09713544683e-06 -0.000410615989882)
(-7.66912570641e-06 -1.6781890158e-06 -0.000424610793629)
(-8.84653467523e-06 -5.15966018707e-07 -0.000445555975746)
(-9.0485444484e-06 -1.93052180389e-07 -0.000468649691222)
(-8.06703198353e-06 -3.84323885449e-07 -0.000490130910232)
(-5.98779319875e-06 -7.69342700503e-07 -0.000507283603194)
(-3.08394495379e-06 -1.09854425942e-06 -0.00051828776537)
(2.59236536957e-07 -1.21235398305e-06 -0.000522076401444)
(3.59875844706e-06 -1.05554215199e-06 -0.000518283223122)
(6.49199177914e-06 -6.85031347462e-07 -0.000507277466808)
(8.55378036172e-06 -2.61559241302e-07 -0.000490121726392)
(9.51140149982e-06 -3.6024575152e-08 -0.000468630846706)
(9.27908977192e-06 -3.30526054373e-07 -0.00044551058757)
(8.06588756671e-06 -1.46483328606e-06 -0.000424473332416)
(6.3592551197e-06 -3.86629478965e-06 -0.000410225069927)
(-2.6071939934e-06 -3.77922187246e-07 -0.00040751311144)
(-4.36105518522e-06 2.5413725105e-06 -0.000418610055883)
(-5.80237247509e-06 4.20571017485e-06 -0.00043752305586)
(-6.39933156288e-06 5.0082852446e-06 -0.000459215647399)
(-5.94252752926e-06 5.25236091859e-06 -0.000479750549643)
(-4.4966954285e-06 5.21713909765e-06 -0.000496296074166)
(-2.30523030681e-06 5.11549816174e-06 -0.000506960523906)
(2.83641101258e-07 5.08170142817e-06 -0.000510638786693)
(2.86857413751e-06 5.16190438209e-06 -0.000506954297142)
(5.04854502255e-06 5.30821262327e-06 -0.000496287388509)
(6.47538559939e-06 5.38515185723e-06 -0.000479739059631)
(6.90607570511e-06 5.17833542432e-06 -0.000459196954711)
(6.27630939021e-06 4.40682034159e-06 -0.000437483893263)
(4.79600262949e-06 2.7725261024e-06 -0.00041848315854)
(2.97334760064e-06 -1.27556678777e-07 -0.000407131407623)
(9.27038442216e-07 3.39624097654e-06 -0.000395394964858)
(-9.28369679639e-07 6.68388638658e-06 -0.000403201921534)
(-2.60637078526e-06 8.74693969767e-06 -0.000419603496715)
(-3.58289508993e-06 9.95855006834e-06 -0.000439355929003)
(-3.65949606061e-06 1.05927187085e-05 -0.000458418694119)
(-2.88238947602e-06 1.08802525052e-05 -0.000473920827582)
(-1.45959651404e-06 1.0991913975e-05 -0.000483958347707)
(3.07355887343e-07 1.10335786743e-05 -0.000487425097)
(2.0701238227e-06 1.10413418284e-05 -0.000483946997584)
(3.48062946179e-06 1.09773969218e-05 -0.000473902697115)
(4.23733044484e-06 1.0734647414e-05 -0.000458394847921)
(4.13255100867e-06 1.01406622341e-05 -0.000439324942682)
(3.12086030533e-06 8.96278324331e-06 -0.000419556759336)
(1.4007525801e-06 6.93192396651e-06 -0.000403070086518)
(-5.26289899739e-07 3.66514364605e-06 -0.000395007744827)
(4.37028178821e-06 6.99488909637e-06 -0.00037586226288)
(2.43556167028e-06 1.04817583364e-05 -0.000380263395178)
(5.68071691723e-07 1.2809872252e-05 -0.00039387262214)
(-7.47850159436e-07 1.43350630585e-05 -0.000411265587078)
(-1.33650232859e-06 1.52917548319e-05 -0.000428394438275)
(-1.22776966105e-06 1.58563106087e-05 -0.000442447713923)
(-5.89650160903e-07 1.61543750053e-05 -0.000451583813865)
(3.30655806482e-07 1.62624248736e-05 -0.000454740743948)
(1.24657844986e-06 1.62062793434e-05 -0.000451562109388)
(1.87174644353e-06 1.59585267767e-05 -0.00044240949578)
(1.95884891582e-06 1.54415110702e-05 -0.000428342248905)
(1.34015618791e-06 1.45277985431e-05 -0.000411201563522)
(-1.31654129301e-08 1.30390225867e-05 -0.000393793928542)
(-1.92584375573e-06 1.07453247663e-05 -0.000380098548362)
(-3.93484375968e-06 7.28100139546e-06 -0.000375440467496)
(7.54397820854e-06 1.02085959661e-05 -0.000350790930608)
(5.56993596451e-06 1.37029294671e-05 -0.000351973853106)
(3.57975289796e-06 1.61503130132e-05 -0.000362675379012)
(1.9838303128e-06 1.78823013905e-05 -0.000377351705493)
(9.27266386561e-07 1.90800579884e-05 -0.00039209464012)
(3.96604594356e-07 1.98620527052e-05 -0.000404284578158)
(2.67907852757e-07 2.03095000496e-05 -0.000412234158584)
(3.53676869704e-07 2.0471068779e-05 -0.00041497818267)
(4.34929333527e-07 2.03630678917e-05 -0.000412195019794)
(2.92797475405e-07 1.99678114458e-05 -0.000404211609569)
(-2.60457701629e-07 1.92355825984e-05 -0.000391991427565)
(-1.34865816187e-06 1.8083331313e-05 -0.000377224118659)
(-2.98409536473e-06 1.63904097395e-05 -0.000362527820761)
(-5.02255732848e-06 1.39797224627e-05 -0.000351733661327)
(-7.07315460757e-06 1.05096931965e-05 -0.000350288755337)
(1.03002415559e-05 1.28461065088e-05 -0.000322569439893)
(8.34956365908e-06 1.61608441432e-05 -0.000321047141059)
(6.31670879063e-06 1.85951796866e-05 -0.00032879895124)
(4.50979113946e-06 2.04276083096e-05 -0.000340357769167)
(3.04439971848e-06 2.17759071049e-05 -0.000352192438407)
(1.92663599134e-06 2.27038300473e-05 -0.000362044934317)
(1.0791586983e-06 2.32542982511e-05 -0.000368485419012)
(3.76418599683e-07 2.34529733311e-05 -0.000370700484698)
(-3.30897946566e-07 2.3308365249e-05 -0.000368420308362)
(-1.19207383079e-06 2.28109092223e-05 -0.000361919068838)
(-2.33305548431e-06 2.1934115436e-05 -0.000352009051182)
(-3.83133484631e-06 2.0633348616e-05 -0.000340125499651)
(-5.67977216196e-06 1.88425339457e-05 -0.000328531281758)
(-7.76413269391e-06 1.64473075416e-05 -0.000320675318989)
(-9.79364001497e-06 1.3158097943e-05 -0.000321929252105)
(1.25546505708e-05 1.47549723781e-05 -0.000294509171238)
(1.06929229154e-05 1.77883054371e-05 -0.000291004602258)
(8.68805528469e-06 2.00958662551e-05 -0.000295605928056)
(6.73310417616e-06 2.19167959037e-05 -0.000303434951298)
(4.9268703299e-06 2.33074411436e-05 -0.000311673250874)
(3.29615022026e-06 2.42914495027e-05 -0.000318606662044)
(1.80870914851e-06 2.48856856078e-05 -0.000323156835555)
(3.98756321879e-07 2.51003437722e-05 -0.000324708509107)
(-1.0157435849e-06 2.49387552447e-05 -0.000323057129233)
(-2.51691223414e-06 2.43969300453e-05 -0.000318408641663)
(-4.17108749314e-06 2.34641502984e-05 -0.000311376858983)
(-6.01100794246e-06 2.2122221138e-05 -0.000303047692435)
(-8.00924314992e-06 2.0345342806e-05 -0.000295150127847)
(-1.00689585733e-05 1.807954635e-05 -0.000290429379796)
(-1.20107825789e-05 1.50739430681e-05 -0.000293671413724)
(1.42521869127e-05 1.63124048433e-05 -0.000271525587953)
(1.24860295957e-05 1.88419454926e-05 -0.000266269351648)
(1.05482133615e-05 2.08537567488e-05 -0.000266939766168)
(8.51188047119e-06 2.2480154964e-05 -0.000270045030286)
(6.45516853729e-06 2.37397262375e-05 -0.000273779826132)
(4.41936897385e-06 2.46400782644e-05 -0.000277098508249)
(2.4117289842e-06 2.51877271229e-05 -0.000279324326443)
(4.20509975223e-07 2.53863637106e-05 -0.000280064694499)
(-1.57512564351e-06 2.52372322014e-05 -0.000279185729123)
(-3.59627992439e-06 2.47389094656e-05 -0.000276816216115)
(-5.65528795028e-06 2.38874493974e-05 -0.000273346692683)
(-7.74573446044e-06 2.26756322191e-05 -0.000269459258319)
(-9.82637930646e-06 2.10941171367e-05 -0.000266226213914)
(-1.1824083701e-05 1.91278803854e-05 -0.000265371270251)
(-1.36659828183e-05 1.66274066565e-05 -0.000270500997035)
(-6.62076673558e-08 -8.7857128123e-08 -7.77738005962e-05)
(-5.93452157967e-08 -1.11159777401e-07 -8.27116401922e-05)
(-5.87190015994e-08 -1.29955312336e-07 -8.78820963019e-05)
(-5.41383849074e-08 -1.4862755456e-07 -9.2733332019e-05)
(-4.53284174886e-08 -1.65827114709e-07 -9.68698371786e-05)
(-3.15593550029e-08 -1.79767448382e-07 -0.00010001052082)
(-1.38816272895e-08 -1.88677147868e-07 -0.000101968334609)
(5.87932923139e-09 -1.91392083576e-07 -0.000102634435412)
(2.56029484481e-08 -1.87529843462e-07 -0.000101964238702)
(4.31521526121e-08 -1.77537571278e-07 -0.000100002107286)
(5.65582351054e-08 -1.62703178772e-07 -9.68565423515e-05)
(6.44584208986e-08 -1.44924591532e-07 -9.2713832937e-05)
(6.73590587384e-08 -1.2604707952e-07 -8.78532761597e-05)
(6.60142650091e-08 -1.07460051194e-07 -8.26646275634e-05)
(7.03342408594e-08 -8.45945343116e-08 -7.7682343355e-05)
(-8.50802863049e-08 -1.28833614752e-07 -0.000208911426703)
(-7.07918899592e-08 -1.71390309646e-07 -0.000221129930293)
(-7.62265005893e-08 -2.10881446313e-07 -0.000234237359629)
(-7.68719676645e-08 -2.53423672349e-07 -0.000246709094481)
(-6.83996132139e-08 -2.94438942703e-07 -0.000257432765819)
(-4.78825234021e-08 -3.2855599128e-07 -0.000265616654737)
(-1.74558371312e-08 -3.50589432518e-07 -0.000270732668525)
(1.82911823197e-08 -3.57204829948e-07 -0.000272472808041)
(5.38572850882e-08 -3.4734892429e-07 -0.000270719870767)
(8.36698977871e-08 -3.22287671005e-07 -0.000265590377683)
(1.02810216429e-07 -2.85671074604e-07 -0.00025739126456)
(1.08504213451e-07 -2.4296336488e-07 -0.000246648358108)
(1.03099312491e-07 -1.99688780986e-07 -0.000234148100604)
(9.19733792658e-08 -1.6039460479e-07 -0.000220986162127)
(9.89113704945e-08 -1.18805994442e-07 -0.00020864990933)
(1.31158896058e-09 -4.66546088162e-08 -0.000315473198392)
(1.54033527088e-08 -8.56967283865e-08 -0.000332573765886)
(-5.40914444218e-09 -1.32166022598e-07 -0.000351357435592)
(-2.4714025495e-08 -1.89116399727e-07 -0.000369468911387)
(-3.27690627383e-08 -2.47273064714e-07 -0.000385165602841)
(-2.38109356404e-08 -2.97007788779e-07 -0.000397202462651)
(-3.80796087768e-10 -3.29537402982e-07 -0.000404746975042)
(3.08865194045e-08 -3.39296786517e-07 -0.000407313619007)
(6.17825641065e-08 -3.24514059398e-07 -0.000404725238619)
(8.39817121363e-08 -2.87312805083e-07 -0.000397157840218)
(9.04208049925e-08 -2.33717715103e-07 -0.000385095216628)
(7.78092387497e-08 -1.72883530974e-07 -0.000369366364263)
(5.11078977104e-08 -1.14616906156e-07 -0.00035120843622)
(2.13012009907e-08 -6.78819268915e-08 -0.000332339405453)
(2.37027066287e-08 -2.98797541669e-08 -0.0003150622063)
(2.43664067936e-07 2.11922606877e-07 -0.000399603167228)
(2.50419945856e-07 2.07383059616e-07 -0.000419486265185)
(2.02417402765e-07 1.79495090176e-07 -0.000441936987835)
(1.46460859194e-07 1.29508275696e-07 -0.000463914451123)
(9.81808171247e-08 7.17745342022e-08 -0.000483132632062)
(6.68923159132e-08 1.96599048563e-08 -0.000497949517644)
(5.10043218512e-08 -1.51313038623e-08 -0.000507264197602)
(4.35501603819e-08 -2.53197592751e-08 -0.000510434848663)
(3.54944704506e-08 -8.58138705566e-09 -0.000507233587409)
(1.76471238529e-08 3.23218036068e-08 -0.000497886692433)
(-1.74314455093e-08 8.95674580395e-08 -0.000483033727798)
(-7.20700455731e-08 1.51023437321e-07 -0.00046377126376)
(-1.37802422242e-07 2.03056743899e-07 -0.000441731910103)
(-1.9771799587e-07 2.31907577652e-07 -0.0004191722113)
(-2.06426799114e-07 2.35524990255e-07 -0.000399071244076)
(6.22494924998e-07 6.22200303571e-07 -0.000463203550958)
(6.15315492396e-07 6.75500695832e-07 -0.000484033691654)
(5.29671776083e-07 6.86373731023e-07 -0.000508380876835)
(4.21795941087e-07 6.60696671389e-07 -0.000532649863034)
(3.12935541501e-07 6.17880478836e-07 -0.0005540941917)
(2.16391431482e-07 5.74464061665e-07 -0.000570730211695)
(1.32716281774e-07 5.44357356741e-07 -0.000581224353655)
(5.62278086069e-08 5.3603319256e-07 -0.000584799526861)
(-2.11123434065e-08 5.52196365945e-07 -0.000581184786682)
(-1.07524642386e-07 5.89666031894e-07 -0.000570649058522)
(-2.09170181413e-07 6.39390441803e-07 -0.000553966857781)
(-3.26163298621e-07 6.86989832744e-07 -0.000532467131395)
(-4.45980629109e-07 7.15550475319e-07 -0.000508123759679)
(-5.46068531129e-07 7.0642310026e-07 -0.000483650380197)
(-5.72044397114e-07 6.52444196863e-07 -0.000462573908418)
(1.11544116506e-06 1.15686522854e-06 -0.000508051761545)
(1.08851648061e-06 1.28354425825e-06 -0.00052824693034)
(9.56465698987e-07 1.34713614813e-06 -0.000552957622596)
(7.84250397341e-07 1.35813379835e-06 -0.000578143829659)
(5.98084969759e-07 1.34085485163e-06 -0.000600675136043)
(4.15457642494e-07 1.31442967376e-06 -0.000618280208196)
(2.40043848891e-07 1.29426529969e-06 -0.000629429263597)
(6.8895189291e-08 1.28953167557e-06 -0.000633231551187)
(-1.03358239151e-07 1.30315393905e-06 -0.000629380310113)
(-2.82283849782e-07 1.33172887716e-06 -0.000618179905597)
(-4.71288104018e-07 1.36550841867e-06 -0.000600518527382)
(-6.67259007471e-07 1.38858147266e-06 -0.000577921725415)
(-8.53370664485e-07 1.38135416771e-06 -0.00055265152713)
(-1.00205181273e-06 1.32035821792e-06 -0.000527802402211)
(-1.05075566569e-06 1.19331701782e-06 -0.000507339593679)
(1.70052078321e-06 1.79018918094e-06 -0.000535832270302)
(1.64882195608e-06 1.99829969952e-06 -0.000554057881448)
(1.46348603394e-06 2.12233721221e-06 -0.00057783430194)
(1.21731763234e-06 2.17738119864e-06 -0.000602761477048)
(9.40663564366e-07 2.19243662519e-06 -0.000625393654062)
(6.55165120014e-07 2.18854802583e-06 -0.000643225092155)
(3.68423923473e-07 2.18191579999e-06 -0.0006545678802)
(8.1522903704e-08 2.18193547041e-06 -0.00065844070688)
(-2.06723715532e-07 2.19160629056e-06 -0.000654508528983)
(-4.9770358135e-07 2.20748244713e-06 -0.000643103699979)
(-7.90756937003e-07 2.21961470061e-06 -0.000625205461421)
(-1.07873400156e-06 2.21127799088e-06 -0.000602498435557)
(-1.34051839389e-06 2.16088233799e-06 -0.000577480056676)
(-1.54439348559e-06 2.04035756571e-06 -0.000553556350235)
(-1.62050866775e-06 1.83224240231e-06 -0.000535045983234)
(2.3535044635e-06 2.49420463605e-06 -0.000548165410703)
(2.27288012664e-06 2.78402383386e-06 -0.000563333795919)
(2.02966149146e-06 2.96960375856e-06 -0.000585112442516)
(1.70312145492e-06 3.07091397361e-06 -0.000608798613709)
(1.32667405705e-06 3.12118816008e-06 -0.00063069240869)
(9.25877474558e-07 3.14258477546e-06 -0.000648108293785)
(5.12921174673e-07 3.15137278197e-06 -0.000659241999713)
(9.40609091719e-08 3.15673468886e-06 -0.000663047643992)
(-3.26360253278e-07 3.16160673043e-06 -0.000659170415865)
(-7.44200073088e-07 3.16266719186e-06 -0.00064796232033)
(-1.1535834631e-06 3.15022279548e-06 -0.000630468137539)
(-1.54267259489e-06 3.10747696559e-06 -0.000608490235408)
(-1.88628148262e-06 3.01165972462e-06 -0.000584707165661)
(-2.14968811276e-06 2.83053765841e-06 -0.000562774088636)
(-2.25708032098e-06 2.54117301139e-06 -0.000547306281517)
(3.04804971975e-06 3.23847884484e-06 -0.000546655250068)
(2.93544022219e-06 3.60234512967e-06 -0.000557935007304)
(2.63245257497e-06 3.84397875777e-06 -0.00057688819374)
(2.22264628272e-06 3.98885956469e-06 -0.000598538922264)
(1.74120697209e-06 4.07355117893e-06 -0.000618990747957)
(1.21728986414e-06 4.12034488029e-06 -0.000635438707929)
(6.68225249788e-07 4.1448234814e-06 -0.000646010858162)
(1.0641683173e-07 4.15556384985e-06 -0.000649627461021)
(-4.57130613463e-07 4.15532279081e-06 -0.000645924153516)
(-1.01160819574e-06 4.14104402209e-06 -0.000635262581457)
(-1.54494996788e-06 4.10370628733e-06 -0.000618722795621)
(-2.04009840835e-06 4.02720964298e-06 -0.000598176638262)
(-2.46813378506e-06 3.88861721601e-06 -0.000576423600972)
(-2.7926723366e-06 3.65239614077e-06 -0.000557308770622)
(-2.93413206957e-06 3.28957744024e-06 -0.000545716155535)
(3.75660655178e-06 3.99100037487e-06 -0.000532964793236)
(3.61027368766e-06 4.41357954473e-06 -0.00053980421841)
(3.24853547596e-06 4.69983471824e-06 -0.000555342219742)
(2.75607149521e-06 4.88130777083e-06 -0.000574336243822)
(2.16852377598e-06 4.99637617984e-06 -0.000592757450622)
(1.51838681673e-06 5.06627117098e-06 -0.000607755570545)
(8.28596085815e-07 5.10519444586e-06 -0.000617451125789)
(1.18449229657e-07 5.12082011924e-06 -0.000620768071416)
(-5.93569714203e-07 5.11565572606e-06 -0.000617345052099)
(-1.28916265039e-06 5.08700123679e-06 -0.000607541008141)
(-1.94933023088e-06 5.02682675717e-06 -0.000592434048301)
(-2.55135373877e-06 4.9204489161e-06 -0.000573905784525)
(-3.06286761958e-06 4.74598601095e-06 -0.000554802729021)
(-3.44720963936e-06 4.46611037033e-06 -0.000539093873272)
(-3.62414920303e-06 4.0453273441e-06 -0.000531928134542)
(4.45084180178e-06 4.71857483491e-06 -0.000508933960142)
(4.27060737334e-06 5.17770547312e-06 -0.000511101492358)
(3.8538900172e-06 5.49267539207e-06 -0.000522867515706)
(3.2825058374e-06 5.7006450958e-06 -0.000538724883215)
(2.59160630735e-06 5.83946544702e-06 -0.000554604001912)
(1.81701323245e-06 5.92805923907e-06 -0.0005677093894)
(9.87607942379e-07 5.97877238167e-06 -0.000576230760137)
(1.29955186164e-07 5.99829170427e-06 -0.000579141778196)
(-7.29652111879e-07 5.98885970177e-06 -0.000576099431796)
(-1.56509110324e-06 5.94816433985e-06 -0.00056744482277)
(-2.3500556504e-06 5.86927400916e-06 -0.000554208162555)
(-3.05585221976e-06 5.73943212878e-06 -0.000538204650916)
(-3.64672111784e-06 5.53909136026e-06 -0.000522228251567)
(-4.08673254035e-06 5.23148236215e-06 -0.000510278229134)
(-4.29892803893e-06 4.77506598152e-06 -0.000507769043557)
(5.10210881245e-06 5.38675345708e-06 -0.000476768831346)
(4.88940925144e-06 5.85586004432e-06 -0.000474405245832)
(4.42345227737e-06 6.18184123865e-06 -0.000482241707442)
(3.77915320434e-06 6.40463901317e-06 -0.000494556649396)
(2.99123955551e-06 6.55861373074e-06 -0.000507394996758)
(2.09916319677e-06 6.65958282671e-06 -0.000518156037306)
(1.13777558216e-06 6.71808243083e-06 -0.000525194797179)
(1.40671350486e-07 6.74000818831e-06 -0.000527588765072)
(-8.58419833577e-07 6.72743937496e-06 -0.000525030738288)
(-1.82591623496e-06 6.67834697086e-06 -0.000517826394144)
(-2.72843597199e-06 6.5867387499e-06 -0.000506903799536)
(-3.53129786427e-06 6.44176700024e-06 -0.000493916229006)
(-4.19508928491e-06 6.2270723418e-06 -0.000481466578296)
(-4.6846179891e-06 5.90941068269e-06 -0.000473427933108)
(-4.93008571955e-06 5.44414228937e-06 -0.000475430252684)
(5.68283537226e-06 5.96037844656e-06 -0.000439352474131)
(5.43943731176e-06 6.41431064675e-06 -0.000432995772147)
(4.9295708578e-06 6.73535623373e-06 -0.000436832309859)
(4.21919612536e-06 6.96036319789e-06 -0.000445146485135)
(3.34415841903e-06 7.11861017291e-06 -0.000454361118332)
(2.34773329772e-06 7.22330972151e-06 -0.000462254834376)
(1.26994533359e-06 7.28398619663e-06 -0.000467457682246)
(1.50287172757e-07 7.3062915725e-06 -0.000469208033953)
(-9.71357887737e-07 7.29226066155e-06 -0.000467252236299)
(-2.05520307547e-06 7.24002053675e-06 -0.000461842169332)
(-3.06190707168e-06 7.1439719844e-06 -0.000453746029304)
(-3.95160157171e-06 6.99443874496e-06 -0.000444345783728)
(-4.68104829998e-06 6.77779072638e-06 -0.000435872009772)
(-5.21430294022e-06 6.46596945733e-06 -0.000431811534782)
(-5.49069583042e-06 6.01705863124e-06 -0.000437786587639)
(6.1713922587e-06 6.4153134946e-06 -0.000400756377514)
(5.89084459558e-06 6.84245854691e-06 -0.000391182461533)
(5.33702900228e-06 7.14146187002e-06 -0.000390760415603)
(4.56719910354e-06 7.35099269767e-06 -0.000394367325617)
(3.61996416349e-06 7.49701979505e-06 -0.000399176842612)
(2.54074359572e-06 7.59241618834e-06 -0.000403548673302)
(1.37252729674e-06 7.64701035046e-06 -0.000406489114163)
(1.58469676553e-07 7.66679392855e-06 -0.000407445972469)
(-1.05755503055e-06 7.6539235912e-06 -0.000406233740145)
(-2.23171738157e-06 7.60647839536e-06 -0.000403034683715)
(-3.32091422434e-06 7.51866206732e-06 -0.000398406787695)
(-4.28227715691e-06 7.38068525272e-06 -0.000393358013387)
(-5.07039479502e-06 7.17949253075e-06 -0.000389549273752)
(-5.64688783192e-06 6.89044627007e-06 -0.000389724831891)
(-5.95953285155e-06 6.4698285758e-06 -0.000398913794541)
(6.52843223677e-06 6.79756850284e-06 -0.00036704945528)
(6.18279662214e-06 7.15671469452e-06 -0.000354374576833)
(5.58162431268e-06 7.39881912652e-06 -0.000348805397401)
(4.76681714888e-06 7.56146743896e-06 -0.000346568747338)
(3.77467948945e-06 7.66969519304e-06 -0.000345933463994)
(2.64825732687e-06 7.73725379288e-06 -0.000345986554658)
(1.43026174707e-06 7.77462737534e-06 -0.000346167944507)
(1.64919915265e-07 7.78810784592e-06 -0.000346161653392)
(-1.10238291147e-06 7.7799196375e-06 -0.000345858415265)
(-2.32622206055e-06 7.7481052593e-06 -0.000345361580189)
(-3.46230138455e-06 7.68665235528e-06 -0.000344989340901)
(-4.46794575484e-06 7.58528083814e-06 -0.000345312691819)
(-5.30003888179e-06 7.43021667347e-06 -0.000347278961865)
(-5.92331826522e-06 7.19845316284e-06 -0.000352524052899)
(-6.29743109907e-06 6.8467143613e-06 -0.000364972902878)
(4.84034436995e-08 9.32015752222e-08 -6.92563424783e-05)
(1.71692141887e-08 1.29391405179e-07 -7.36916790552e-05)
(-3.6595737214e-09 1.50242079502e-07 -7.83659341815e-05)
(-1.64066271159e-08 1.61146761252e-07 -8.27772658396e-05)
(-2.0908666837e-08 1.65745265385e-07 -8.65554647328e-05)
(-1.75160698368e-08 1.66621575838e-07 -8.94333082215e-05)
(-8.44883519812e-09 1.6620735937e-07 -9.12304460185e-05)
(3.60980664173e-09 1.66069883802e-07 -9.18409901169e-05)
(1.55054977584e-08 1.66739675576e-07 -9.12219789077e-05)
(2.40977166091e-08 1.67645163996e-07 -8.94162634839e-05)
(2.67828931465e-08 1.6719071249e-07 -8.65295112906e-05)
(2.16513214403e-08 1.62952503819e-07 -8.27415402225e-05)
(8.05511300694e-09 1.52003508282e-07 -7.83181501979e-05)
(-1.38255877762e-08 1.31110987302e-07 -7.36245305233e-05)
(-4.62795232008e-08 9.45535372029e-08 -6.91472691746e-05)
(2.19031171694e-07 3.3833807768e-07 -0.000186747289126)
(1.34911434824e-07 4.42558555158e-07 -0.000197802155059)
(7.04423078315e-08 5.09855396232e-07 -0.000209741811094)
(2.50586248369e-08 5.50230493826e-07 -0.000221173077142)
(-9.03637064534e-10 5.7192609289e-07 -0.000231050484334)
(-8.39870971508e-09 5.81486308889e-07 -0.000238615675521)
(-2.33477569734e-09 5.84905595477e-07 -0.000243354390484)
(1.08851324227e-08 5.86081990223e-07 -0.000244963489966)
(2.36832437314e-08 5.86346850665e-07 -0.000243328252903)
(2.85174613918e-08 5.8426577362e-07 -0.000238563097608)
(1.91705490805e-08 5.75850443152e-07 -0.000230970484424)
(-8.75173515077e-09 5.55063325349e-07 -0.000221063090818)
(-5.65666522517e-08 5.14717743482e-07 -0.000209595080417)
(-1.23980267788e-07 4.47370286279e-07 -0.000197597389776)
(-2.11699936531e-07 3.42295732549e-07 -0.000186430544691)
(4.71723703371e-07 6.54790783656e-07 -0.000282726291006)
(3.43137038767e-07 8.26833112982e-07 -0.000298274334997)
(2.33993664872e-07 9.46668972113e-07 -0.000315475694652)
(1.48361596841e-07 1.02520718148e-06 -0.000332170387488)
(8.71233204081e-08 1.07314743854e-06 -0.000346715688789)
(4.93769178176e-08 1.09943250935e-06 -0.000357913118467)
(2.90918922971e-08 1.1121152414e-06 -0.000364946705286)
(1.80294432098e-08 1.11645433305e-06 -0.000367334891736)
(6.35216454033e-09 1.11422392401e-06 -0.000364902425723)
(-1.57261192107e-08 1.10350679107e-06 -0.000357824139364)
(-5.62209881233e-08 1.0789235718e-06 -0.000346580519191)
(-1.20617076676e-07 1.03230052198e-06 -0.000331985100047)
(-2.10125112706e-07 9.53993628844e-07 -0.000315230114379)
(-3.2379868657e-07 8.34145409354e-07 -0.000297936909707)
(-4.58183486906e-07 6.61140768669e-07 -0.000282219586183)
(7.63144444018e-07 9.98314807741e-07 -0.000358676543857)
(5.97212676971e-07 1.23064515034e-06 -0.000376798071243)
(4.44910664436e-07 1.39932307416e-06 -0.000397422938762)
(3.16174544812e-07 1.51487739543e-06 -0.000417754556302)
(2.12755852846e-07 1.58953773596e-06 -0.000435633835504)
(1.34333254163e-07 1.63375708715e-06 -0.000449475759134)
(7.47292301248e-08 1.65681472431e-06 -0.000458197386331)
(2.50708554129e-08 1.66473125465e-06 -0.000461159326405)
(-2.53572661904e-08 1.65951551433e-06 -0.000458134727169)
(-8.72077818994e-08 1.63897685996e-06 -0.000449350023866)
(-1.69128618594e-07 1.59693679421e-06 -0.00043544328136)
(-2.76797115316e-07 1.5239482632e-06 -0.000417494496733)
(-4.10756967591e-07 1.40891638778e-06 -0.000397081312041)
(-5.68969104185e-07 1.24038636765e-06 -0.000376337230357)
(-7.42570551811e-07 1.00710395637e-06 -0.000358004655723)