/*--------------------------------*- C++ -*----------------------------------*\
  =========                 |
  \\      /  F ield         | OpenFOAM: The Open Source CFD Toolbox
   \\    /   O peration     | Website:  https://openfoam.org
    \\  /    A nd           | Version:  7
     \\/     M anipulation  |
\*---------------------------------------------------------------------------*/
FoamFile
{
    version     2.0;
    format      ascii;
    class       surfaceScalarField;
    location    "2.28";
    object      phi;
}
// * * * * * * * * * * * * * * * * * * * * * * * * * * * * * * * * * * * * * //

dimensions      [0 3 -1 0 0 0 0];

internalField   nonuniform List<scalar> 
65775
(
1.07718593203e-11
2.52924096784e-09
3.35572212216e-10
1.05334790208e-13
1.54827196435e-11
2.64933000055e-09
3.70636944012e-10
1.81467300752e-11
2.75244419742e-09
4.03539694019e-10
1.764882892e-11
2.84154252632e-09
4.32902912405e-10
1.46804538638e-11
2.91260079077e-09
4.57360428628e-10
9.71263424935e-12
2.96461329661e-09
4.75768853749e-10
3.48637901659e-12
2.99728455714e-09
4.87378537312e-10
-3.19348622144e-12
3.00962225472e-09
4.91556313047e-10
-9.43051917286e-12
2.9972323497e-09
4.87378272125e-10
-1.44187417036e-11
2.96451177049e-09
4.75768443399e-10
-1.7419120367e-11
2.91245170882e-09
4.5736006635e-10
-1.79578448305e-11
2.8413578961e-09
4.32902972918e-10
-1.53445249407e-11
2.75223525194e-09
4.03541322659e-10
-1.06703495339e-11
2.64913738994e-09
3.70645360325e-10
2.52913311743e-09
3.3560739019e-10
1.55254999646e-13
3.02355333596e-11
4.37829021271e-09
8.60268978367e-10
2.49121313796e-13
4.93744268878e-11
4.57149489674e-09
9.46948908996e-10
5.78444167517e-11
4.73786161338e-09
1.02750517249e-09
5.67622995046e-11
4.8795150363e-09
1.09884421216e-09
4.72814653218e-11
4.99205087975e-09
1.15789499941e-09
3.12831357551e-11
5.0740084564e-09
1.20213899514e-09
1.11491110262e-11
5.12543557146e-09
1.22996431177e-09
-1.03930048664e-11
5.14492181422e-09
1.23996532589e-09
-3.05540949203e-11
5.12531644933e-09
1.22996390692e-09
-4.66051388998e-11
5.07377579579e-09
1.2021384283e-09
-5.61656766493e-11
4.99171126972e-09
1.1578946883e-09
-5.73518697939e-11
4.87908967583e-09
1.09884505417e-09
-4.9002325979e-11
4.73738083555e-09
1.02751029303e-09
-2.99694167497e-11
4.57103619129e-09
9.46972636602e-10
4.37799084997e-09
8.60355195318e-10
3.89649795924e-13
4.82847558182e-11
5.6680144117e-09
1.26539985175e-09
3.44420147675e-13
8.00486945402e-11
5.89978171875e-09
1.39157151977e-09
9.34556754691e-11
6.10034052174e-09
1.50803232298e-09
9.15034469024e-11
6.26816540332e-09
1.61061771283e-09
7.60384239718e-11
6.40090734702e-09
1.69516719438e-09
5.02094890009e-11
6.49703263574e-09
1.75831382798e-09
1.78394324088e-11
6.55727711697e-09
1.79793309391e-09
-1.67295775966e-11
6.580197698e-09
1.81214237777e-09
-4.9138865793e-11
6.55711323923e-09
1.79793212172e-09
-7.50448403206e-11
6.49671268593e-09
1.7583122159e-09
-9.06244375255e-11
6.40044188351e-09
1.69516546172e-09
-9.27256017521e-11
6.26757985071e-09
1.61061704847e-09
-7.94869093728e-11
6.09967736831e-09
1.50803697187e-09
-4.78814788579e-11
5.89913745113e-09
1.39160093038e-09
5.66756386606e-09
1.26551281906e-09
5.72164183991e-13
6.53114855749e-11
6.49445503714e-09
1.57555115189e-09
4.06105232686e-13
1.07858781984e-10
6.73983734545e-09
1.73238350319e-09
1.25651307416e-10
6.95274982394e-09
1.87623766638e-09
1.22627780695e-10
7.12776243838e-09
2.00231535549e-09
1.01649929436e-10
7.26533139741e-09
2.1058040042e-09
6.69845734223e-11
7.36432014963e-09
2.18285832898e-09
2.37415798348e-11
7.42626102519e-09
2.2310863495e-09
-2.23650576537e-11
7.44994148121e-09
2.24833950406e-09
-6.5656142347e-11
7.42607441449e-09
2.23108394662e-09
-1.00416212387e-10
7.36395537385e-09
2.18285388849e-09
-1.21533417978e-10
7.26480211959e-09
2.10579802891e-09
-1.24735383348e-10
7.12709567347e-09
2.0023090559e-09
-1.07143012392e-10
6.9519897874e-09
1.8762354929e-09
-6.47881752797e-11
6.73908760008e-09
1.7324064698e-09
6.49389639061e-09
1.57566368097e-09
7.21150519328e-13
8.08368751625e-11
6.94110363125e-09
1.80372907703e-09
4.43668141398e-13
1.32805307783e-10
7.18225318141e-09
1.98396878865e-09
1.54474650608e-10
7.39178258331e-09
2.14826340306e-09
1.50355934334e-10
7.56082962658e-09
2.29151847961e-09
1.24374668801e-10
7.69263939184e-09
2.40861836504e-09
8.1818020209e-11
7.78679945008e-09
2.4955304978e-09
2.8940920504e-11
7.84560195714e-09
2.54978714078e-09
-2.73637121277e-11
7.86820854466e-09
2.56914111757e-09
-8.0295220152e-11
7.84541096803e-09
2.54978263633e-09
-1.22958798223e-10
7.78642626695e-09
2.49552182551e-09
-1.49096074956e-10
7.69209839799e-09
2.40860585718e-09
-1.53411599829e-10
7.56014737018e-09
2.29150303367e-09
-1.31961367536e-10
7.39099851872e-09
2.14824885498e-09
-8.02056422265e-11
7.18147179323e-09
1.98397578599e-09
6.94049591061e-09
1.8038227372e-09
8.47417713308e-13
9.4841156425e-11
7.08085166473e-09
1.96055538789e-09
4.63290829099e-13
1.55008636944e-10
7.30563266304e-09
2.15817650914e-09
1.80021252621e-10
7.50108181619e-09
2.33717797236e-09
1.74818625564e-10
7.65565054768e-09
2.4924289066e-09
1.44346449261e-10
7.77496596187e-09
2.61878681193e-09
9.48147846729e-11
7.85950068254e-09
2.71225822232e-09
3.34821683102e-11
7.91216497926e-09
2.77044592722e-09
-3.17534246531e-11
7.93254276753e-09
2.79113416867e-09
-9.31444894857e-11
7.91198641649e-09
2.77043921659e-09
-1.42790849574e-10
7.8591516617e-09
2.71224480364e-09
-1.73428848827e-10
7.77446041763e-09
2.61876667629e-09
-1.78838185605e-10
7.65501178343e-09
2.49240230458e-09
-1.54052759608e-10
7.50034259484e-09
2.33714754897e-09
-9.41080716374e-11
7.30488613768e-09
2.1581618949e-09
7.0802540036e-09
1.96062112609e-09
9.56775395694e-13
1.07450275045e-10
6.97729343094e-09
2.05519647005e-09
4.69869505478e-13
1.74698783946e-10
7.17825324988e-09
2.26522479301e-09
2.02527489004e-10
7.3530241218e-09
2.45425056066e-09
1.9626267265e-10
7.48824626207e-09
2.61730070125e-09
1.61786498712e-10
7.59136749222e-09
2.74941524225e-09
1.0613213481e-10
7.6637525218e-09
2.84680688802e-09
3.7426649707e-11
7.7087207939e-09
2.90725245928e-09
-3.55809113892e-11
7.72624962395e-09
2.92866288053e-09
-1.04347009184e-10
7.70856811984e-09
2.90724339537e-09
-1.60119921084e-10
7.66345408921e-09
2.84678856432e-09
-1.94766192357e-10
7.59093545878e-09
2.749387168e-09
-2.01240587618e-10
7.4876988459e-09
2.61726223931e-09
-1.73640127116e-10
7.35238502693e-09
2.45420288796e-09
-1.0661677322e-10
7.17760253556e-09
2.26518663074e-09
6.97676342226e-09
2.05523176753e-09
1.05583427859e-12
1.18745786106e-10
6.68575052334e-09
2.09584162472e-09
4.66210311564e-13
1.92087314193e-10
6.85913637248e-09
2.31424530407e-09
2.22268621932e-10
7.00984331515e-09
2.50955749266e-09
2.14995692246e-10
7.12363981925e-09
2.67709974704e-09
1.76975510205e-10
7.20919008091e-09
2.81224134736e-09
1.15968096996e-10
7.26863081913e-09
2.91151267812e-09
4.08493475199e-11
7.3054434545e-09
2.97292777116e-09
-3.89083999947e-11
7.319912525e-09
2.99458815746e-09
-1.1408829667e-10
7.30532719484e-09
2.97291679331e-09
-1.75214756291e-10
7.26840385859e-09
2.91149027181e-09
-2.13404798743e-10
7.20886141887e-09
2.81220643915e-09
-2.20884971209e-10
7.12322197422e-09
2.67705067103e-09
-1.90927800604e-10
7.00934962003e-09
2.50949392376e-09
-1.17809995169e-10
6.85863178859e-09
2.31418556581e-09
6.68533991685e-09
2.09584893663e-09
1.1484366033e-12
1.28786001076e-10
6.2540504317e-09
2.08992348502e-09
4.55213910739e-13
2.07383189946e-10
6.39887203966e-09
2.31351838581e-09
2.39565215452e-10
6.52453139145e-09
2.51222941756e-09
2.31390167172e-10
6.6168701367e-09
2.68175865756e-09
1.90255230589e-10
6.68518057798e-09
2.81789409283e-09
1.2456182438e-10
6.73214492632e-09
2.91754454949e-09
4.38391291215e-11
6.76114009209e-09
2.97898786856e-09
-4.18132524044e-11
6.77263806082e-09
3.00055183991e-09
-1.22596167144e-10
6.76106737503e-09
2.97897579895e-09
-1.88406483232e-10
6.73200345787e-09
2.91751968696e-09
-2.29707343547e-10
6.68497603722e-09
2.81785475143e-09
-2.38083850635e-10
6.61660829962e-09
2.68170211403e-09
-2.06119028319e-10
6.52421601104e-09
2.51215397585e-09
-1.27743199861e-10
6.39855214361e-09
2.31344257352e-09
6.25380310791e-09
2.08990918839e-09
1.23837210976e-12
1.37633420839e-10
5.72320579315e-09
2.04419504012e-09
4.39012939125e-13
2.20829063318e-10
5.84036956817e-09
2.27054402115e-09
2.54817721681e-10
5.94167322219e-09
2.47051642816e-09
2.45911042871e-10
6.01395321365e-09
2.64023524435e-09
2.02045707571e-10
6.06656037158e-09
2.77594513139e-09
1.32201497654e-10
6.10238934653e-09
2.87494929079e-09
4.65010652786e-11
6.1244502141e-09
2.93578432331e-09
-4.43902389816e-11
6.13327139573e-09
2.95701583227e-09
-1.30148807106e-10
6.12442463455e-09
2.93577237794e-09
-2.00105669381e-10
6.10234061754e-09
2.87492443691e-09
-2.44130592412e-10
6.06649097631e-09
2.77590512242e-09
-2.53230829099e-10
6.0138629697e-09
2.64017636208e-09
-2.19451963354e-10
5.94155665731e-09
2.47043578396e-09
-1.36476094823e-10
5.84026098929e-09
2.27046081441e-09
5.72315381186e-09
2.04416872356e-09
1.32882332983e-12
1.45355164049e-10
5.12808185307e-09
1.96473293459e-09
4.19592465302e-13
2.32737779293e-10
5.21957955323e-09
2.19203357349e-09
2.68551779021e-10
5.2982855339e-09
2.39177193613e-09
2.59144782364e-10
5.35288416356e-09
2.56048914272e-09
2.12853631399e-10
5.39214507879e-09
2.69487853119e-09
1.39223656275e-10
5.41874004862e-09
2.79261564789e-09
4.89548762805e-11
5.43508141718e-09
2.8524648454e-09
-4.67502268152e-11
5.44164704506e-09
2.87322150093e-09
-1.37074236901e-10
5.43510302286e-09
2.85245463663e-09
-2.10811230636e-10
5.41878469856e-09
2.79259412023e-09
-2.57254253966e-10
5.39221263215e-09
2.69484302089e-09
-2.66846638507e-10
5.35296969426e-09
2.56043505666e-09
-2.31236274806e-10
5.29837634075e-09
2.39169527711e-09
-1.44074205322e-10
5.21969646477e-09
2.19195435105e-09
5.12824457808e-09
1.96470682042e-09
1.42277035487e-12
1.52025517829e-10
4.49809217907e-09
1.85690884735e-09
3.97094278318e-13
2.43592861081e-10
4.56615439397e-09
2.08387618208e-09
2.81509624941e-10
4.62470225812e-09
2.28241923268e-09
2.7182804331e-10
4.6647368772e-09
2.44944660554e-09
2.23260695149e-10
4.69354725616e-09
2.58205263371e-09
1.45992460922e-10
4.71309828824e-09
2.67823362798e-09
5.1326384884e-11
4.72507859431e-09
2.7369310432e-09
-4.90121363567e-11
4.72986359897e-09
2.75714695104e-09
-1.43730043141e-10
4.72514449151e-09
2.73692453469e-09
-2.21099265754e-10
4.71323030196e-09
2.67821951805e-09
-2.6981075729e-10
4.69374448565e-09
2.58202809835e-09
-2.79670826078e-10
4.66499164797e-09
2.44940634871e-09
-2.41954551235e-10
4.62499737271e-09
2.28235796803e-09
-1.50612239874e-10
4.56649871626e-09
2.08381419206e-09
4.49847740644e-09
1.85689688062e-09
1.52288987009e-12
1.57941781724e-10
3.85772675817e-09
1.72535322839e-09
3.72319414196e-13
2.54389221521e-10
3.90399978614e-09
1.95111997566e-09
2.94778447029e-10
3.94567793045e-09
2.14794532871e-09
2.84798677319e-10
3.97494526046e-09
2.31299584567e-09
2.33820065726e-10
3.99643624901e-09
2.44369397618e-09
1.52820694152e-10
4.01112518348e-09
2.53828716971e-09
5.37172223269e-11
4.02004735436e-09
2.59583046459e-09
-5.12731991962e-11
4.02351653577e-09
2.61549891026e-09
-1.50425664876e-10
4.02015147813e-09
2.5958298056e-09
-2.31520314174e-10
4.01133384801e-09
2.53828501921e-09
-2.82636940248e-10
3.99674814801e-09
2.44368777326e-09
-2.92791122522e-10
3.97535319704e-09
2.31297992887e-09
-2.52603838408e-10
3.94616333021e-09
2.14791259846e-09
-1.56390798217e-10
3.9045624735e-09
1.95108898186e-09
3.85833018817e-09
1.72536833762e-09
1.62315006599e-12
1.64507248814e-10
3.22621171492e-09
1.57392962659e-09
3.44801901404e-13
2.66982536213e-10
3.25231024462e-09
1.79802357158e-09
3.09466321823e-10
3.28209886672e-09
1.992964865e-09
2.98496586738e-10
3.30470873099e-09
2.15604182436e-09
2.44661763392e-10
3.32165062426e-09
2.28494551029e-09
1.59734809206e-10
3.33325849689e-09
2.37809846833e-09
5.61326299118e-11
3.34018548128e-09
2.43459888922e-09
-5.35381989892e-11
3.3427274098e-09
2.45375439156e-09
-1.57187341349e-10
3.34032065288e-09
2.43460601566e-09
-2.42206238793e-10
3.33352886793e-09
2.37811244439e-09
-2.96175891118e-10
3.32205549569e-09
2.28496468151e-09
-3.0732052169e-10
3.30524324699e-09
2.15606105163e-09
-2.65044541135e-10
3.28274886429e-09
1.99297497713e-09
-1.6281848873e-10
3.25307193675e-09
1.79803689288e-09
3.2270105573e-09
1.57398035222e-09
1.72648829988e-12
1.7645928542e-10
1.4059960539e-09
3.15203036553e-13
2.61467286287e-09
2.84025102945e-10
1.62851059924e-09
2.62844440919e-09
3.2616375534e-10
1.8215198218e-09
2.65287512598e-09
3.12775922984e-10
1.9827173509e-09
2.67182727142e-09
2.55561830693e-10
2.11001327499e-09
2.68589902447e-09
1.66598649742e-10
2.20192639955e-09
2.69559574886e-09
5.8525909341e-11
2.25752826701e-09
2.70130132283e-09
-5.5764054103e-11
2.27621807924e-09
2.70323207548e-09
-1.63884355657e-10
2.25754382971e-09
2.7014604496e-09
-2.52940554807e-10
2.2019579851e-09
2.69591418253e-09
-3.10292068756e-10
2.11006073258e-09
2.68637581271e-09
-3.23860342572e-10
1.98277769126e-09
2.67246018802e-09
-2.81943403182e-10
1.82158272164e-09
2.65365702541e-09
-1.74647856492e-10
1.62858668781e-09
2.6293714524e-09
1.40607186927e-09
1.82498018278e-12
2.61564513486e-09
-4.67335543432e-12
1.3835581438e-10
2.01969998354e-10
2.37676418267e-14
-6.67227550285e-12
1.51315158417e-10
2.21491883387e-10
-7.40918148107e-12
1.6509948838e-10
2.3934219283e-10
-7.10168624031e-12
1.77737371368e-10
2.55004848485e-10
-5.84786742868e-12
1.88325038133e-10
2.67885461286e-10
-3.83281281388e-12
1.96336988974e-10
2.77494617223e-10
-1.31439121601e-12
2.01401731442e-10
2.8353022678e-10
1.38297286173e-12
2.03220690282e-10
2.85711681371e-10
3.90821735095e-12
2.01396230245e-10
2.8353138369e-10
5.93525585683e-12
1.96319091789e-10
2.77496975142e-10
7.19846998831e-12
1.88281144938e-10
2.67889140177e-10
7.50235780597e-12
1.77661116803e-10
2.55010310611e-10
6.75269925483e-12
1.65010768782e-10
2.39351007838e-10
4.73207845475e-12
1.5122525053e-10
2.21509401495e-10
1.3832994015e-10
2.02013565499e-10
6.13508297763e-14
-8.78901056422e-12
4.12350762191e-10
5.9519234479e-10
6.56652355828e-14
-1.32168443501e-11
4.48115414485e-10
6.54839641142e-10
-1.49438764627e-11
4.85015359768e-10
7.0957924474e-10
-1.4427396534e-11
5.1859727601e-10
7.57687598224e-10
-1.19156209348e-11
5.46569164707e-10
7.97300121206e-10
-7.80434975953e-12
5.67614193985e-10
8.26879014404e-10
-2.64207975206e-12
5.80875709789e-10
8.45448509509e-10
2.89842578358e-12
5.8563990763e-10
8.52127028004e-10
8.0736381246e-12
5.80855855283e-10
8.45451343508e-10
1.22057164978e-11
5.67561845214e-10
8.26884858373e-10
1.47299993775e-11
5.46461232275e-10
7.97309447428e-10
1.52299697195e-11
5.18420911453e-10
7.57701864641e-10
1.34592478332e-11
4.84802354499e-10
7.09602916118e-10
8.96809241326e-12
4.47909737441e-10
6.54887811469e-10
4.12269495871e-10
5.95303984998e-10
1.81037511669e-13
-9.11616987968e-12
7.39699186674e-10
9.47252825082e-10
1.00331254509e-13
-1.41637437634e-11
8.00355302482e-10
1.04461579053e-09
-1.62652275738e-11
8.61442245782e-10
1.13394695065e-09
-1.58171003931e-11
9.16576789353e-10
1.21238694059e-09
-1.31052952872e-11
9.62253766964e-10
1.27691882556e-09
-8.57426194161e-12
9.96448455228e-10
1.32506954227e-09
-2.84589330189e-12
1.01793518857e-09
1.35525923425e-09
3.32070827177e-12
1.02565213236e-09
1.36607786268e-09
9.06173460992e-12
1.01789871531e-09
1.35526282185e-09
1.36108484399e-11
9.9636134355e-10
1.32507703264e-09
1.63265368732e-11
9.62091232222e-10
1.27693103512e-09
1.67407449535e-11
9.16326391878e-10
1.21240614647e-09
1.45658117632e-11
8.61140199423e-10
1.1339796218e-09
9.41891998056e-12
8.00074866668e-10
1.04468330365e-09
7.39582569278e-10
9.47408415904e-10
3.03489086414e-13
-6.56767341256e-12
1.07137915222e-09
1.25048319032e-09
1.31930051038e-13
-1.06006482622e-11
1.15511466785e-09
1.38187292902e-09
-1.24663776437e-11
1.23754097445e-09
1.50221871133e-09
-1.22920353818e-11
1.31119952558e-09
1.60769380399e-09
-1.02563583716e-11
1.37183938667e-09
1.69432028969e-09
-6.6987090738e-12
1.41699927746e-09
1.75886608424e-09
-2.1246838886e-12
1.44529086225e-09
1.79926639646e-09
2.83376669136e-12
1.4554474398e-09
1.81369450758e-09
7.4157546892e-12
1.44523916464e-09
1.79926953779e-09
1.098129337e-11
1.41688335117e-09
1.75887280517e-09
1.30051419351e-11
1.37163806015e-09
1.69433167615e-09
1.31251375303e-11
1.31090462353e-09
1.60771265082e-09
1.11593846606e-11
1.23718746779e-09
1.50225250019e-09
6.99631227974e-12
1.15479129411e-09
1.38194607918e-09
1.07123899087e-09
1.25065597158e-09
4.32985514182e-13
-1.76857052886e-12
1.37293139903e-09
1.50394590815e-09
1.6063944993e-13
-3.47483545155e-12
1.47567971243e-09
1.66530535994e-09
-4.54485338581e-12
1.57436146066e-09
1.81270038401e-09
-4.7809550568e-12
1.66156932084e-09
1.94154187779e-09
-4.12569234852e-12
1.73281564633e-09
2.04711291267e-09
-2.67472093994e-12
1.7855645008e-09
2.12562340439e-09
-6.55730115237e-13
1.81849799384e-09
2.1746642432e-09
1.60186729869e-12
1.83031509196e-09
2.19211771811e-09
3.62180241992e-12
1.81843653807e-09
2.17466593706e-09
5.06676733455e-12
1.78543182475e-09
2.12562731966e-09
5.69141675543e-12
1.73259577471e-09
2.04712025725e-09
5.37964074647e-12
1.66125809185e-09
1.94155557242e-09
4.18665440053e-12
1.57399202801e-09
1.81272798473e-09
2.32495383825e-12
1.47534189646e-09
1.66537239172e-09
1.37278407638e-09
1.50411572887e-09
5.66030109389e-13
4.68202605383e-12
1.62167290435e-09
1.70709800358e-09
1.86551579954e-13
6.36467273056e-12
1.73822281344e-09
1.89412159619e-09
6.59313180733e-12
1.84712130829e-09
2.06435590178e-09
5.88083063812e-12
1.94217968927e-09
2.21267291849e-09
4.61581793185e-12
2.01913133426e-09
2.3338540852e-09
3.06240442295e-12
2.0757189532e-09
2.42376146814e-09
1.40744831627e-12
2.11090851159e-09
2.47978911225e-09
-2.30264828474e-13
2.12352634445e-09
2.49965710259e-09
-1.89210734736e-12
2.11084385453e-09
2.47978849735e-09
-3.46655475407e-12
2.07558268887e-09
2.42376109202e-09
-4.78151099428e-12
2.01891295163e-09
2.33385509403e-09
-5.58949224915e-12
1.94187852433e-09
2.21267795369e-09
-5.50402428696e-12
1.8467666804e-09
2.06437185199e-09
-3.99597703436e-12
1.73790027977e-09
1.89417421328e-09
1.62153104492e-09
1.70725242467e-09
6.99209917813e-13
1.22257731198e-11
1.8044218777e-09
1.86015293577e-09
2.08931826026e-13
1.81358236435e-11
1.92921495531e-09
2.06847179429e-09
2.00950911176e-11
2.04226327769e-09
2.25729678838e-09
1.89040022459e-11
2.13961440639e-09
2.42118448661e-09
1.5335711075e-11
2.21757629016e-09
2.55464735145e-09
1.01045710952e-11
2.27445480293e-09
2.65339981625e-09
3.9223399958e-12
2.30965873538e-09
2.71477722507e-09
-2.5252897985e-12
2.32226912335e-09
2.7364580928e-09
-8.72217073035e-12
2.30959790212e-09
2.71477455292e-09
-1.39886884706e-11
2.27432879392e-09
2.653395291e-09
-1.76249184837e-11
2.21737871505e-09
2.55464182514e-09
-1.89293131132e-11
2.13934678658e-09
2.4211799163e-09
-1.7129842879e-11
2.04194887727e-09
2.25729885184e-09
-1.14099736057e-11
1.92893339596e-09
2.06850617068e-09
1.80430219043e-09
1.86028599335e-09
8.3153530185e-13
2.03817316171e-11
1.91557393333e-09
1.96420495949e-09
2.27303289794e-13
3.11405564405e-11
2.04325267178e-09
2.18957922947e-09
3.51834588875e-11
2.15499250756e-09
2.39291434348e-09
3.35619749105e-11
2.24979174737e-09
2.5686586618e-09
2.74512138508e-11
2.32476438868e-09
2.711264918e-09
1.80769499318e-11
2.37896067391e-09
2.8164732209e-09
6.75912953782e-12
2.41231662131e-09
2.88167537518e-09
-5.15572562621e-12
2.42424696426e-09
2.90461020194e-09
-1.64951854235e-11
2.41226557894e-09
2.88167130138e-09
-2.59175793221e-11
2.37885639353e-09
2.81646573411e-09
-3.21118905254e-11
2.32460370713e-09
2.71125435666e-09
-3.38617280516e-11
2.24957726057e-09
2.56864595447e-09
-2.9991941023e-11
2.15474142095e-09
2.39290360102e-09
-1.94371078049e-11
2.04303456266e-09
2.18959608064e-09
1.91549901107e-09
1.9643162295e-09
9.61274721009e-13
2.87535628364e-11
1.95541998945e-09
2.02119352841e-09
2.42266672815e-13
4.47712284936e-11
2.08118977949e-09
2.25967648197e-09
5.11685210689e-11
2.18715351001e-09
2.47378340003e-09
4.92032685403e-11
2.2755876499e-09
2.65803054182e-09
4.04382440233e-11
2.34453442326e-09
2.8069812755e-09
2.66424630425e-11
2.39385160113e-09
2.91653504272e-09
9.801619312e-12
2.42400412995e-09
2.98422303297e-09
-8.00587238099e-12
2.43476387009e-09
3.00792170736e-09
-2.48742311705e-11
2.42396792e-09
2.98421887571e-09
-3.87287653846e-11
2.39377853294e-09
2.91652712422e-09
-4.75901555789e-11
2.3444235796e-09
2.80696923128e-09
-4.96960692903e-11
2.27544147711e-09
2.65801398335e-09
-4.34828914365e-11
2.18698365241e-09
2.47376461419e-09
-2.76808993329e-11
2.08105530519e-09
2.25968112681e-09
1.9554090452e-09
2.02128758626e-09
1.08713036129e-12
3.70305516512e-11
1.92866200386e-09
2.03376811879e-09
2.53480638448e-13
5.85182231885e-11
2.04851800388e-09
2.28182425491e-09
6.74587495304e-11
2.14539433137e-09
2.50343202725e-09
6.52621868252e-11
2.22480305071e-09
2.69330726319e-09
5.38389093235e-11
2.28574285881e-09
2.84624417003e-09
3.55056233797e-11
2.32882494857e-09
2.95838854072e-09
1.29480832548e-11
2.35496479553e-09
3.02745752751e-09
-1.09734853878e-11
2.36425963356e-09
3.05151543262e-09
-3.35633007365e-11
2.35494661953e-09
3.02745524197e-09
-5.19638484011e-11
2.3287890864e-09
2.95838403175e-09
-6.34937918402e-11
2.28569010954e-09
2.84623623561e-09
-6.58408731566e-11
2.2247358277e-09
2.69329395551e-09
-5.70936194767e-11
2.1453194504e-09
2.50341355307e-09
-3.58321822939e-11
2.04848422457e-09
2.28182624868e-09
1.92873582382e-09
2.03385394272e-09
1.20826050847e-12
4.49861349279e-11
1.84314007277e-09
2.00509592683e-09
2.6200738556e-13
7.19752925421e-11
1.95397431618e-09
2.25966992869e-09
8.35718117871e-11
2.03960284196e-09
2.48605057446e-09
8.12700039862e-11
2.10844967454e-09
2.67922452604e-09
6.72679202654e-11
2.16041887331e-09
2.83428055238e-09
4.44149356759e-11
2.19671546897e-09
2.94765107681e-09
1.61112889917e-11
2.21855291441e-09
3.01725071372e-09
-1.39710250957e-11
2.22627642878e-09
3.04135556262e-09
-4.23107905146e-11
2.21855437323e-09
3.01725279625e-09
-6.52378029079e-11
2.19671991718e-09
2.94765495827e-09
-7.93547043388e-11
2.16042828851e-09
2.83428414201e-09
-8.18150892701e-11
2.10846668951e-09
2.67922411491e-09
-7.04197489037e-11
2.03963097964e-09
2.48604391537e-09
-4.36659558364e-11
1.95405362058e-09
2.25968227155e-09
1.8433141401e-09
2.00518608705e-09
1.32339865239e-12
5.24707761516e-11
1.70874718618e-09
1.93864306313e-09
2.67686279866e-13
8.48481934618e-11
1.80835111192e-09
2.19719215602e-09
9.91538472064e-11
1.88159025138e-09
2.42619796236e-09
9.68703735294e-11
1.93934542601e-09
2.62090471776e-09
8.04199216173e-11
1.98228346745e-09
2.7767063958e-09
5.31639441033e-11
2.01194629428e-09
2.89032439758e-09
1.9218367408e-11
2.02964031342e-09
2.95985353188e-09
-1.69262595465e-11
2.03584693121e-09
2.9837830629e-09
-5.09111778398e-11
2.02966191917e-09
2.95986281167e-09
-7.82470197268e-11
2.01199129382e-09
2.89034239911e-09
-9.48191017536e-11
1.98235561972e-09
2.7767302272e-09
-9.72680648772e-11
1.93944762278e-09
2.62092878914e-09
-8.31704454662e-11
1.88172482857e-09
2.42621693961e-09
-5.10366618262e-11
1.80855012163e-09
2.19722985418e-09
1.70903348642e-09
1.93875222038e-09
1.43142503322e-12
5.94538619302e-11
1.53649384069e-09
1.83795354572e-09
2.70713069108e-13
9.70386572314e-11
1.62346243415e-09
2.09848435874e-09
1.14057407164e-10
1.68401629253e-09
2.32856272861e-09
1.11867518593e-10
1.73102234976e-09
2.52356961311e-09
9.30910486438e-11
1.7656222737e-09
2.67919189107e-09
6.15994359598e-11
1.78936107351e-09
2.79242318518e-09
2.22115943654e-11
1.80341422889e-09
2.86150157049e-09
-1.97833127949e-11
1.80828421751e-09
2.88511319746e-09
-5.92139483148e-11
1.80345550224e-09
2.86152082478e-09
-9.07907662987e-11
1.78944627725e-09
2.79246103903e-09
-1.09695655396e-10
1.76575540907e-09
2.67924497505e-09
-1.12057294549e-10
1.7312081783e-09
2.52363061884e-09
-9.52529637227e-11
1.68425653833e-09
2.3286223252e-09
-5.79187183615e-11
1.62378455746e-09
2.09856227165e-09
1.53690078934e-09
1.83809462021e-09
1.52555705544e-12
6.59906989728e-11
1.33777866201e-09
1.70645074248e-09
2.71220366339e-13
1.08563088767e-10
1.41129635009e-09
1.96767007457e-09
1.28268446862e-10
1.45949048455e-09
2.19783845247e-09
1.26168318552e-10
1.49687453538e-09
2.39234415951e-09
1.05144867172e-10
1.52443017145e-09
2.54721442084e-09
6.96058101597e-11
1.54335654193e-09
2.6596944733e-09
2.50464884018e-11
1.5545098394e-09
2.72811464773e-09
-2.25008772975e-11
1.55830745712e-09
2.75132830407e-09
-6.71066010218e-11
1.55457103077e-09
2.7281459536e-09
-1.02737514933e-10
1.54348101542e-09
2.65975659845e-09
-1.23896524928e-10
1.52462254813e-09
2.54730417827e-09
-1.26175583756e-10
1.4971397925e-09
2.39245347953e-09
-1.06689027999e-10
1.45983298147e-09
2.19795364435e-09
-6.43723893919e-11
1.41174071025e-09
1.96780136846e-09
1.33830438289e-09
1.70663041972e-09
1.60792203761e-12
6.80470894883e-11
1.54726288498e-09
2.70662493759e-13
1.12825780034e-09
1.17538687589e-10
1.80909301643e-09
1.1812699765e-09
1.40760251247e-10
2.03862414507e-09
1.21921304818e-09
1.39204775559e-10
2.23208478719e-09
1.24911006278e-09
1.16305759149e-10
2.38588171567e-09
1.27150904028e-09
7.70747262596e-11
2.49745048353e-09
1.28711123042e-09
2.7694753602e-11
2.56513840431e-09
1.29632566535e-09
-2.5053911894e-11
2.58792240639e-09
1.29939696366e-09
-7.4485366676e-11
2.56518178407e-09
1.29640769072e-09
-1.13816571633e-10
2.49753708746e-09
1.28727717667e-09
-1.36861507414e-10
2.38600924605e-09
1.27176205091e-09
-1.38604193562e-10
2.23224642398e-09
1.24945504568e-09
-1.1560857311e-10
2.03880316707e-09
1.21965521395e-09
-6.63730862729e-11
1.80929574041e-09
1.18183170681e-09
1.54746441246e-09
1.66366634127e-12
1.12890795735e-09
1.1540311543e-12
-2.23353344919e-12
2.03129563593e-10
4.32728729291e-15
1.74280145027e-12
-2.9567769811e-12
2.23947290558e-10
2.04624774506e-12
-3.96751479303e-12
2.43107691851e-10
2.01997176842e-12
-4.89468551041e-12
2.60002351769e-10
1.70870038689e-12
-5.66337325991e-12
2.73947504873e-10
1.15942302446e-12
-6.2422448194e-12
2.84378897403e-10
4.47144969142e-13
-6.61067435644e-12
2.90938706735e-10
-3.27824479788e-13
-6.74507005631e-12
2.93305074463e-10
-1.04564034311e-12
-6.62806735615e-12
2.90941003564e-10
-1.60406914732e-12
-6.27113397813e-12
2.84383595534e-10
-1.92258079273e-12
-5.69486054568e-12
2.73954871012e-10
-1.95001546188e-12
-4.9260349572e-12
2.6001303527e-10
-1.65961416998e-12
-4.01587274495e-12
2.43123224614e-10
-1.08286338302e-12
-2.99555109117e-12
2.23972598844e-10
-2.26262252617e-12
2.031797904e-10
5.53820691998e-14
2.81717815382e-12
2.34497026719e-11
5.66815198123e-10
9.417507336e-15
4.47043592588e-12
2.52467550152e-11
6.25129790163e-10
5.2630591395e-12
2.63056223274e-11
6.78660392358e-10
5.2027640922e-12
2.72867304539e-11
7.25698835276e-10
4.39261170425e-12
2.81747072598e-11
7.64414751754e-10
2.97908685e-12
2.88823282244e-11
7.93312955617e-10
1.16157720842e-12
2.93377489725e-11
8.11450221292e-10
-8.07421781342e-13
2.94950573299e-11
8.17971658117e-10
-2.63826236538e-12
2.92991844232e-11
8.11456723271e-10
-4.07424967686e-12
2.8815051125e-11
7.93326252966e-10
-4.90543124684e-12
2.80946209982e-11
7.64435626471e-10
-4.98105302197e-12
2.72015762199e-11
7.25729150707e-10
-4.22173201059e-12
2.61981252085e-11
6.78704584102e-10
-2.61067195204e-12
2.515001494e-11
6.25201524653e-10
2.3384198254e-11
5.6694818156e-10
1.63099854606e-13
4.1046953134e-12
7.99470547008e-11
8.86758955569e-10
1.04058151563e-14
6.68830922268e-12
8.78226167593e-11
9.79591364948e-10
7.8984679334e-12
9.44783586174e-11
1.06469376363e-09
7.80528363908e-12
1.00542115414e-10
1.13934761078e-09
6.5760088051e-12
1.05751282102e-10
1.20070192144e-09
4.45419903415e-12
1.09763320256e-10
1.2464427116e-09
1.74795748332e-12
1.12319048165e-10
1.2751059317e-09
-1.17260753295e-12
1.13224252109e-10
1.2853764499e-09
-3.89727024168e-12
1.12265857106e-10
1.2751157901e-09
-6.05077782808e-12
1.09668566685e-10
1.24646290792e-09
-7.31372161323e-12
1.05634290476e-10
1.20073368056e-09
-7.4397662206e-12
1.00414586188e-10
1.13939373016e-09
-6.28215974669e-12
9.43298215125e-11
1.06476068674e-09
-3.76800430733e-12
8.76866202404e-11
9.79698297135e-10
7.98656297623e-11
8.86951588923e-10
2.67806152093e-13
5.30815850721e-12
1.58935758595e-10
1.16628331375e-09
1.20573222266e-14
8.81515675645e-12
1.75272304783e-10
1.29103147436e-09
1.04622175543e-11
1.89919406404e-10
1.40524529103e-09
1.03479357577e-11
2.03176048883e-10
1.50528791225e-09
8.71006743293e-12
2.14428679031e-10
1.58739891863e-09
5.89266426976e-12
2.23018920898e-10
1.64854529772e-09
2.31755543211e-12
2.28466683386e-10
1.68680262492e-09
-1.52936986404e-12
2.30399755898e-10
1.70046347403e-09
-5.12659114352e-12
2.28405498072e-10
1.68681470515e-09
-7.98313425379e-12
2.22907803728e-10
1.64857010459e-09
-9.66739209044e-12
2.1428659423e-10
1.58743801948e-09
-9.83312843721e-12
2.03018349514e-10
1.50534467629e-09
-8.25858028373e-12
1.89746686347e-10
1.40532713158e-09
-4.84346905083e-12
1.75118637495e-10
1.29116019784e-09
1.58849003568e-10
1.16651023984e-09
3.7424986674e-13
6.66345764091e-12
2.51593626313e-10
1.40470807328e-09
1.50145424801e-14
1.12071813114e-11
2.7755378885e-10
1.55857563619e-09
1.33644115309e-11
3.01333805969e-10
1.69922959788e-09
1.32408587325e-11
3.22708210564e-10
1.82223339174e-09
1.11447651834e-11
3.40697083437e-10
1.92304474342e-09
7.53123339144e-12
3.54336060367e-10
1.99802385355e-09
2.95480089116e-12
3.62947185386e-10
2.04485771641e-09
-1.96067473848e-12
3.65999659331e-10
2.06152207716e-09
-6.56242815518e-12
3.62882746003e-10
2.04487111667e-09
-1.02221010236e-11
3.54217695902e-10
1.99805140635e-09
-1.23771637349e-11
3.40543164964e-10
1.92308817241e-09
-1.25703517062e-11
3.2253637467e-10
1.82229618002e-09
-1.05054535348e-11
3.01152174051e-10
1.69931913174e-09
-6.07347680679e-12
2.77401428981e-10
1.55871455487e-09
2.515120467e-10
1.40495002746e-09
4.81464793875e-13
8.35687624904e-12
3.48871921829e-10
1.60152611464e-09
1.89913578176e-14
1.41601560153e-11
3.84434663983e-10
1.78152048551e-09
1.69563230845e-11
4.17244569261e-10
1.94573486519e-09
1.68398524909e-11
4.46512580784e-10
2.08907298815e-09
1.4185513198e-11