/*--------------------------------*- C++ -*----------------------------------*\
  =========                 |
  \\      /  F ield         | OpenFOAM: The Open Source CFD Toolbox
   \\    /   O peration     | Website:  https://openfoam.org
    \\  /    A nd           | Version:  7
     \\/     M anipulation  |
\*---------------------------------------------------------------------------*/
FoamFile
{
    version     2.0;
    format      ascii;
    class       volScalarField;
    location    "2.34";
    object      p;
}
// * * * * * * * * * * * * * * * * * * * * * * * * * * * * * * * * * * * * * //

dimensions      [0 2 -2 0 0 0 0];

internalField   nonuniform List<scalar> 
22500
(
1.04751342838e-05
1.04733997305e-05
1.0473110752e-05
1.04725270581e-05
1.04721333973e-05
1.04718268032e-05
1.0471640068e-05
1.04715728324e-05
1.04716392059e-05
1.04718250966e-05
1.04721308632e-05
1.04725237463e-05
1.04731066925e-05
1.04733951352e-05
1.04751287173e-05
1.04506657629e-05
1.04476751445e-05
1.04463343189e-05
1.04448339679e-05
1.0443697257e-05
1.04428447373e-05
1.04423247538e-05
1.04421463723e-05
1.04423238688e-05
1.04428429839e-05
1.04436946567e-05
1.04448305666e-05
1.04463301604e-05
1.04476704275e-05
1.04506600654e-05
1.04271183789e-05
1.04229734715e-05
1.04207353246e-05
1.04184283498e-05
1.04166502153e-05
1.04153262411e-05
1.04145193128e-05
1.04142450811e-05
1.04145184453e-05
1.04153245216e-05
1.04166476679e-05
1.04184250179e-05
1.0420731253e-05
1.04229688469e-05
1.04271127456e-05
1.04061330336e-05
1.04010325386e-05
1.03980792864e-05
1.03951424188e-05
1.03928649429e-05
1.03911770698e-05
1.03901493635e-05
1.03898015416e-05
1.0390148525e-05
1.03911754076e-05
1.03928624831e-05
1.03951392062e-05
1.03980753628e-05
1.04010280878e-05
1.04061275698e-05
1.03865475239e-05
1.03806266914e-05
1.03770668683e-05
1.03736199169e-05
1.03709365357e-05
1.03689563757e-05
1.03677519973e-05
1.03673455121e-05
1.03677511876e-05
1.03689547709e-05
1.0370934163e-05
1.03736168242e-05
1.03770630997e-05
1.03806224278e-05
1.03865422714e-05
1.03680955245e-05
1.03614889374e-05
1.0357422929e-05
1.03535758234e-05
1.03505727584e-05
1.03483658786e-05
1.03470251065e-05
1.03465735179e-05
1.03470243247e-05
1.03483643293e-05
1.03505704709e-05
1.03535728473e-05
1.03574193182e-05
1.03614848563e-05
1.03680904772e-05
1.0350854006e-05
1.03437044836e-05
1.03392327208e-05
1.03350923425e-05
1.03318536744e-05
1.03294831026e-05
1.03280445186e-05
1.03275607619e-05
1.03280437616e-05
1.03294816032e-05
1.03318514638e-05
1.03350894729e-05
1.03392292557e-05
1.03437005735e-05
1.03508491417e-05
1.03348408105e-05
1.03272872161e-05
1.03225021355e-05
1.03181652586e-05
1.03147670217e-05
1.0312288816e-05
1.03107866081e-05
1.03102821113e-05
1.03107858717e-05
1.03122873588e-05
1.0314764876e-05
1.03181624798e-05
1.03224987968e-05
1.03272834488e-05
1.03348360967e-05
1.0320016517e-05
1.0312188643e-05
1.03071738166e-05
1.03027255572e-05
1.02992345509e-05
1.02966969573e-05
1.02951604027e-05
1.0294644918e-05
1.02951596817e-05
1.02966955315e-05
1.02992324541e-05
1.03027228461e-05
1.0307170575e-05
1.03121849779e-05
1.0320011907e-05
1.03063256729e-05
1.02983432512e-05
1.02931763807e-05
1.02886916688e-05
1.02851664732e-05
1.02826107451e-05
1.02810647177e-05
1.02805465013e-05
1.02810640059e-05
1.02826093378e-05
1.02851644046e-05
1.02886889972e-05
1.02931731969e-05
1.02983396371e-05
1.03063211053e-05
1.02937054334e-05
1.02856790826e-05
1.02804365893e-05
1.02759820808e-05
1.02724738831e-05
1.02699350285e-05
1.02684004927e-05
1.02678864924e-05
1.0268399783e-05
1.02699336252e-05
1.02724718192e-05
1.02759794139e-05
1.02804334155e-05
1.02856754572e-05
1.0293700829e-05
1.02820723715e-05
1.02741193225e-05
1.0268886497e-05
1.02645220444e-05
1.02610741419e-05
1.02585809641e-05
1.02570751769e-05
1.02565711334e-05
1.02570744625e-05
1.02585795485e-05
1.02610720558e-05
1.02645193419e-05
1.02688832758e-05
1.02741156124e-05
1.02820676433e-05
1.02712848492e-05
1.02635942017e-05
1.02584810661e-05
1.02542552351e-05
1.02508996409e-05
1.02484741152e-05
1.0247010826e-05
1.024652143e-05
1.02470100989e-05
1.02484726729e-05
1.02508975048e-05
1.0254252452e-05
1.02584777298e-05
1.02635903238e-05
1.0271279905e-05
1.02613165822e-05
1.02541332503e-05
1.02491972654e-05
1.02451267639e-05
1.02418795876e-05
1.0239539651e-05
1.02381320381e-05
1.02376619923e-05
1.02381312935e-05
1.02395381678e-05
1.02418773755e-05
1.02451238518e-05
1.02491937374e-05
1.02541290984e-05
1.02613113659e-05
1.02533347932e-05
1.02455571139e-05
1.02408000024e-05
1.02368516415e-05
1.02337364399e-05
1.02315161281e-05
1.02301884695e-05
1.02297462975e-05
1.0230187697e-05
1.02315145843e-05
1.02337341198e-05
1.02368485451e-05
1.02407961639e-05
1.02455525176e-05
1.02533292999e-05
7.67593817697e-06
7.67656176117e-06
7.67702389453e-06
7.67743714267e-06
7.67778100234e-06
7.67803963604e-06
7.67820131502e-06
7.67825631746e-06
7.67820139888e-06
7.67803977628e-06
7.67778113393e-06
7.67743720205e-06
7.6770238819e-06
7.67656172118e-06
7.67593805682e-06
7.67863235557e-06
7.67935435075e-06
7.67991737171e-06
7.68042227926e-06
7.68084396322e-06
7.68116109526e-06
7.68135919113e-06
7.68142666816e-06
7.68135926329e-06
7.68116121078e-06
7.68084405732e-06
7.68042228349e-06
7.67991727864e-06
7.67935424514e-06
7.67863218568e-06
7.68162545345e-06
7.6825350091e-06
7.68325778043e-06
7.6839136258e-06
7.68446507295e-06
7.68488103717e-06
7.68514113554e-06
7.6852298036e-06
7.68514120407e-06
7.68488114927e-06
7.6844651734e-06
7.68391365408e-06
7.68325771631e-06
7.68253495218e-06
7.6816253164e-06
7.68514213489e-06
7.68638021104e-06
7.68736624154e-06
7.68826555479e-06
7.68902493589e-06
7.68959899952e-06
7.68995807325e-06
7.69008047995e-06
7.68995814051e-06
7.68959911288e-06
7.68902505067e-06
7.6882656205e-06
7.68736622806e-06
7.68638021398e-06
7.68514203557e-06
7.6895446011e-06
7.69125386826e-06
7.69260508239e-06
7.6938358216e-06
7.69487493322e-06
7.69566016817e-06
7.69615073228e-06
7.69631782225e-06
7.69615079705e-06
7.69566027967e-06
7.69487505492e-06
7.6938359105e-06
7.69260510783e-06
7.69125391632e-06
7.68954452842e-06
7.69489392979e-06
7.69718724199e-06
7.69897741119e-06
7.70059991388e-06
7.70196574473e-06
7.70299558913e-06
7.70363753865e-06
7.70385590408e-06
7.70363759827e-06
7.70299569303e-06
7.70196586339e-06
7.700600011e-06
7.69897745717e-06
7.69718731968e-06
7.6948938561e-06
7.70110058492e-06
7.70405065563e-06
7.70632030217e-06
7.70836281775e-06
7.71007470982e-06
7.71136133567e-06
7.71216115642e-06
7.71243280882e-06
7.7121612095e-06
7.71136142879e-06
7.7100748182e-06
7.70836291077e-06
7.70632035095e-06
7.70405074352e-06
7.701100492e-06
7.70802157966e-06
7.71165855544e-06
7.71441644515e-06
7.71687707542e-06
7.71892907237e-06
7.72046556291e-06
7.7214178604e-06
7.72174077746e-06
7.72141790521e-06
7.7204656412e-06
7.71892916342e-06
7.71687715291e-06
7.71441648371e-06
7.71165863089e-06
7.70802145461e-06
7.71549159713e-06
7.71980471245e-06
7.72303160048e-06
7.72588279686e-06
7.72824797959e-06
7.73001192023e-06
7.73110178839e-06
7.73147073994e-06
7.73110182505e-06
7.73001198306e-06
7.72824805043e-06
7.72588285108e-06
7.72303161692e-06
7.71980475899e-06
7.71549141822e-06
7.72333894469e-06
7.72828094469e-06
7.73193419356e-06
7.73512850242e-06
7.73776414817e-06
7.73972170135e-06
7.74092733196e-06
7.74133477664e-06
7.74092736131e-06
7.73972174991e-06
7.73776419879e-06
7.73512853156e-06
7.73193418239e-06
7.72828095186e-06
7.72333870113e-06
7.73139698381e-06
7.73688950825e-06
7.7409079089e-06
7.74438437154e-06
7.74723733997e-06
7.74934727354e-06
7.75064245305e-06
7.7510793863e-06
7.7506424781e-06
7.74934731346e-06
7.74723737678e-06
7.74438437967e-06
7.74090787075e-06
7.7368894723e-06
7.73139666368e-06
7.73950329694e-06
7.74544444348e-06
7.74975569516e-06
7.75344792291e-06
7.75646060716e-06
7.75867837447e-06
7.76003491573e-06
7.76049167771e-06
7.760034942e-06
7.75867841505e-06
7.75646064324e-06
7.75344792393e-06
7.7497556416e-06
7.74544436959e-06
7.73950290646e-06
7.74749545482e-06
7.75378053422e-06
7.75831290645e-06
7.76215460576e-06
7.76526781281e-06
7.76754724728e-06
7.76893600523e-06
7.76940263921e-06
7.76893603899e-06
7.76754730435e-06
7.76526786804e-06
7.76215462426e-06
7.75831285986e-06
7.75378044262e-06
7.74749501442e-06
7.75535386577e-06
7.76189397298e-06
7.76652881813e-06
7.77042702428e-06
7.77355756382e-06
7.77583522987e-06
7.77721712339e-06
7.777680433e-06
7.77721717306e-06
7.77583531652e-06
7.77355766099e-06
7.77042708552e-06
7.76652880872e-06
7.7618938792e-06
7.75535341591e-06
7.76380043263e-06
7.76985333305e-06
7.77437520081e-06
7.77818222335e-06
7.78119910785e-06
7.78337879273e-06
7.78469587597e-06
7.78513654837e-06
7.78469593977e-06
7.7833789108e-06
7.78119925096e-06
7.7781823411e-06
7.77437523033e-06
7.76985322764e-06
7.76380001158e-06
8.32699008815e-06
8.32681046066e-06
8.32660333923e-06
8.32637441517e-06
8.32616290056e-06
8.32599319695e-06
8.32588379541e-06
8.32584580738e-06
8.32588366108e-06
8.3259929404e-06
8.32616254524e-06
8.32637398049e-06
8.32660272013e-06
8.32680976414e-06
8.32698923071e-06
8.32722493464e-06
8.32705998572e-06
8.32686414465e-06
8.32664467022e-06
8.32644018293e-06
8.32627516168e-06
8.32616832942e-06
8.32613112155e-06
8.32616818079e-06
8.32627487541e-06
8.32643978301e-06
8.32664417492e-06
8.3268634763e-06
8.32705922039e-06
8.32722402351e-06
8.32766369848e-06
8.32752301098e-06
8.32735051388e-06
8.32714969193e-06
8.3269597936e-06
8.32680502103e-06
8.3267042232e-06
8.32666899902e-06
8.32670407809e-06
8.32680474005e-06
8.32695939664e-06
8.32714919418e-06
8.3273498584e-06
8.32752225304e-06
8.32766278587e-06
8.32798781946e-06
8.32785701345e-06
8.32769707888e-06
8.32750570204e-06
8.32732317073e-06
8.3271735359e-06
8.32707574983e-06
8.32704152418e-06
8.32707561267e-06
8.32717326879e-06
8.32732278714e-06
8.32750521424e-06
8.3276964463e-06
8.32785628507e-06
8.32798690346e-06
8.32818460794e-06
8.3280553473e-06
8.32790180091e-06
8.3277156198e-06
8.32753776647e-06
8.32739176458e-06
8.3272962628e-06
8.32726282507e-06
8.32729613226e-06
8.3273915096e-06
8.32753739706e-06
8.32771514512e-06
8.32790118775e-06
8.32805464668e-06
8.3281836908e-06
8.32830897487e-06
8.32818213003e-06
8.32803628238e-06
8.32785795403e-06
8.32768795291e-06
8.32754851502e-06
8.32745734217e-06
8.32742542556e-06
8.32745721804e-06
8.32754827155e-06
8.32768759703e-06
8.32785749244e-06
8.32803568966e-06
8.3281814479e-06
8.32830806299e-06
8.32840320026e-06
8.32828586477e-06
8.32815361543e-06
8.32798977663e-06
8.32783402737e-06
8.3277064321e-06
8.32762306003e-06
8.32759387741e-06
8.32762294147e-06
8.32770619919e-06
8.32783368489e-06
8.3279893289e-06
8.32815304259e-06
8.32828520175e-06
8.32840228943e-06
8.32849972232e-06
8.3284028704e-06
8.32829247415e-06
8.32815146614e-06
8.3280175516e-06
8.3279078196e-06
8.32783611972e-06
8.32781100875e-06
8.32783600594e-06
8.32790759566e-06
8.32801722012e-06
8.32815102912e-06
8.32829191625e-06
8.32840222209e-06
8.328498807e-06
8.32862524737e-06
8.3285614405e-06
8.32848164885e-06
8.32837165301e-06
8.32826671834e-06
8.32818037268e-06
8.32812383438e-06
8.3281039905e-06
8.32812372452e-06
8.32818015595e-06
8.32826639606e-06
8.32837122438e-06
8.32848110118e-06
8.32856080116e-06
8.3286243255e-06
8.32879978649e-06
8.32878083092e-06
8.32873918213e-06
8.32866668049e-06
8.3285961707e-06
8.32853731708e-06
8.32849849044e-06
8.32848478014e-06
8.32849838359e-06
8.32853710587e-06
8.32859585458e-06
8.3286662564e-06
8.32873863911e-06
8.32878019256e-06
8.32879885384e-06
8.32903561771e-06
8.32907049035e-06
8.32907197727e-06
8.32904079928e-06
8.32900776946e-06
8.32897864465e-06
8.32895888131e-06
8.32895175884e-06
8.32895877715e-06
8.32897843818e-06
8.32900745871e-06
8.32904037795e-06
8.32907143635e-06
8.32906984905e-06
8.32903467056e-06
8.32933527588e-06
8.32942907872e-06
8.32947585892e-06
8.3294872416e-06
8.32949252413e-06
8.32949368676e-06
8.32949328789e-06
8.32949284487e-06
8.32949318672e-06
8.32949348501e-06
8.32949221841e-06
8.32948682349e-06
8.32947531924e-06
8.32942843468e-06
8.32933431953e-06
8.32969422856e-06
8.32984928086e-06
8.32994070656e-06
8.32999289966e-06
8.33003509378e-06
8.33006553983e-06
8.33008384995e-06
8.33008986058e-06
8.33008375209e-06
8.33006534459e-06
8.33003479658e-06
8.32999248791e-06
8.32994017194e-06
8.32984863604e-06
8.32969326831e-06
8.33014903375e-06
8.33036306565e-06
8.33047727415e-06
8.33055620323e-06
8.33062500756e-06
8.33067731651e-06
8.33070975273e-06
8.33072064797e-06
8.33070965883e-06
8.3306771307e-06
8.33062472105e-06
8.33055580342e-06
8.33047674974e-06
8.33036242051e-06
8.33014808648e-06
8.33092617517e-06
8.33100101139e-06
8.33107883005e-06
8.33115043699e-06
8.33122089382e-06
8.33127688123e-06
8.33131220887e-06
8.33132418139e-06
8.33131211713e-06
8.33127669846e-06
8.33122061432e-06
8.3311500428e-06
8.33107830287e-06
8.33100034216e-06
8.33092524745e-06
7.02956975069e-06
7.02970658458e-06
7.02986938395e-06
7.03003376851e-06
7.03018145867e-06
7.03029717547e-06
7.03037089466e-06
7.03039632185e-06
7.03037101785e-06
7.03029739909e-06
7.03018172859e-06
7.03003399172e-06
7.0298695085e-06
7.02970655871e-06
7.02956972696e-06
7.02970995647e-06
7.029846721e-06
7.03001179613e-06
7.0301788252e-06
7.03032960196e-06
7.03044812823e-06
7.03052382387e-06
7.03054998487e-06
7.03052395034e-06
7.03044835683e-06
7.03032987497e-06
7.03017904527e-06
7.03001189475e-06
7.02984667382e-06
7.02970986957e-06
7.02971121821e-06
7.02983794667e-06
7.02999514987e-06
7.0301555903e-06
7.03030183336e-06
7.03041742582e-06
7.0304915213e-06
7.03051718118e-06
7.03049163573e-06
7.03041763267e-06
7.03030208064e-06
7.03015579423e-06
7.02999523661e-06
7.02983791655e-06
7.02971111762e-06
7.02969733095e-06
7.02981593172e-06
7.02996667684e-06
7.03012067915e-06
7.03026215931e-06
7.03037446011e-06
7.03044665532e-06
7.03047169112e-06
7.0304467544e-06
7.03037463888e-06
7.03026237231e-06
7.03012085604e-06
7.02996675038e-06
7.02981590553e-06
7.02969722126e-06
7.02969451394e-06
7.02980675713e-06
7.02995284304e-06
7.03010095567e-06
7.03023775885e-06
7.03034664925e-06
7.03041679537e-06
7.0304411446e-06
7.03041688143e-06
7.03034680395e-06
7.03023794351e-06
7.0301011083e-06
7.02995290723e-06
7.02980673035e-06
7.02969439574e-06
7.0296923723e-06
7.02979848824e-06
7.0299405328e-06
7.03008250739e-06
7.03021415279e-06
7.03031913529e-06
7.03038686798e-06
7.03041039642e-06
7.03038694061e-06
7.03031926529e-06
7.03021430639e-06
7.03008263233e-06
7.02994057888e-06
7.02979846332e-06
7.02969223074e-06
7.02968538815e-06
7.02978566899e-06
7.02992428251e-06
7.03006013995e-06
7.03018644763e-06
7.03028730787e-06
7.03035245513e-06
7.03037509729e-06
7.03035251558e-06
7.03028741584e-06
7.03018657385e-06
7.03006024085e-06
7.02992431193e-06
7.02978564454e-06
7.02968522866e-06
7.02967403246e-06
7.0297696098e-06
7.02990592252e-06
7.03003637754e-06
7.03015778668e-06
7.03025481447e-06
7.03031752913e-06
7.0303393315e-06
7.0303175779e-06
7.03025490091e-06
7.03015788655e-06
7.03003645462e-06
7.02990593888e-06
7.02976958238e-06
7.02967386376e-06
7.02966093366e-06
7.02975396604e-06
7.02988960877e-06
7.03001597087e-06
7.0301334328e-06
7.0302273202e-06
7.03028801263e-06
7.03030911018e-06
7.03028805188e-06
7.03022738892e-06
7.03013351124e-06
7.03001602868e-06
7.02988961543e-06
7.02975393737e-06
7.02966075346e-06
7.02964964782e-06
7.02974329594e-06
7.02988013453e-06
7.03000399275e-06
7.03011868182e-06
7.03021028298e-06
7.03026946147e-06
7.03029002023e-06
7.0302694922e-06
7.03021033644e-06
7.0301187416e-06
7.03000403496e-06
7.02988013429e-06
7.02974326872e-06
7.02964945936e-06
7.02964421897e-06
7.02974240365e-06
7.02988213973e-06
7.03000493557e-06
7.03011789733e-06
7.03020795942e-06
7.03026605585e-06
7.03028621519e-06
7.0302660802e-06
7.03020800127e-06
7.0301179436e-06
7.03000496557e-06
7.02988213447e-06
7.02974237563e-06
7.02964401948e-06
7.02964743756e-06
7.02975462008e-06
7.02989863535e-06
7.03002154848e-06
7.03013366279e-06
7.03022279316e-06
7.03028014418e-06
7.03030000548e-06
7.03028016426e-06
7.0302228275e-06
7.03013369961e-06
7.03002157133e-06
7.02989862719e-06
7.02975459008e-06
7.02964722665e-06
7.02966006038e-06
7.02978096847e-06
7.02993042742e-06
7.03005451798e-06
7.0301668263e-06
7.03025576661e-06
7.0303127636e-06
7.03033244883e-06
7.03031278126e-06
7.03025579627e-06
7.03016685966e-06
7.03005453703e-06
7.02993041915e-06
7.02978093583e-06
7.02965984067e-06
7.02970589877e-06
7.02984455951e-06
7.02999069548e-06
7.03011148279e-06
7.03022126647e-06
7.03030794511e-06
7.0303632245e-06
7.03038224356e-06
7.03036324018e-06
7.03030797443e-06
7.03022129758e-06
7.03011150256e-06
7.02999068861e-06
7.02984452157e-06
7.02970566919e-06
7.02997449301e-06
7.03004211899e-06
7.03013671797e-06
7.03022119769e-06
7.03030348306e-06
7.03036944078e-06
7.03041164279e-06
7.03042617242e-06
7.03041165688e-06
7.03036946561e-06
7.03030351207e-06
7.03022121429e-06
7.0301367051e-06
7.03004206517e-06
7.02997427761e-06
6.95016647414e-06
6.95009054461e-06
6.95000473688e-06
6.94991228417e-06
6.94982812019e-06
6.9497609249e-06
6.94971770792e-06
6.94970271637e-06
6.94971765026e-06
6.94976083341e-06
6.94982803897e-06
6.94991219901e-06
6.95000456504e-06
6.95009038089e-06
6.95016618533e-06
6.95020775143e-06
6.95013643636e-06
6.95005358798e-06
6.94996325896e-06
6.94988042637e-06
6.94981394644e-06
6.94977103724e-06
6.94975611357e-06
6.9497709733e-06
6.94981384129e-06
6.9498803219e-06
6.9499631483e-06
6.95005339533e-06
6.95013622429e-06
6.95020742703e-06
6.95033463823e-06
6.95027270413e-06
6.95019854041e-06
6.95011492807e-06
6.95003721861e-06
6.9499742339e-06
6.94993335218e-06
6.94991908864e-06
6.94993329102e-06
6.94997413033e-06
6.950037108e-06
6.95011480863e-06
6.9501983568e-06
6.95027249307e-06
6.9503343253e-06
6.95044593306e-06
6.95038961587e-06
6.95032164119e-06
6.95024265889e-06
6.95016845014e-06
6.95010780077e-06
6.95006825285e-06
6.95005442445e-06
6.95006819698e-06
6.95010770318e-06
6.95016833748e-06
6.95024253626e-06
6.95032147009e-06
6.95038942419e-06
6.95044563093e-06
6.95052931822e-06
6.95047539497e-06
6.95041119686e-06
6.95033492772e-06
6.95026278433e-06
6.95020349583e-06
6.95016470964e-06
6.95015112921e-06
6.95016465848e-06
6.95020340484e-06
6.95026267503e-06
6.9503348078e-06
6.9504110375e-06
6.95047522599e-06
6.950529027e-06
6.95059436216e-06
6.95054119085e-06
6.9504795887e-06
6.95040519466e-06
6.95033457906e-06
6.95027635872e-06
6.95023819471e-06
6.95022482341e-06
6.95023814869e-06
6.95027627555e-06
6.95033447527e-06
6.95040507997e-06
6.95047944274e-06
6.95054103351e-06
6.95059408962e-06
6.95064682175e-06
6.95059364258e-06
6.95053418609e-06
6.95046146613e-06
6.95039237782e-06
6.95033535071e-06
6.95029793605e-06
6.95028482717e-06
6.95029789518e-06
6.95033527622e-06
6.9503922828e-06
6.95046136009e-06
6.95053405591e-06
6.95059349937e-06
6.95064656226e-06
6.95069011753e-06
6.95063690137e-06
6.95057968201e-06
6.95050892846e-06
6.95044178882e-06
6.95038640887e-06
6.95035008319e-06
6.95033736328e-06
6.95035004745e-06
6.95038634317e-06
6.95044170284e-06
6.95050883027e-06
6.95057956315e-06
6.95063676943e-06
6.95068986259e-06
6.95072769426e-06
6.95067511484e-06
6.95062070563e-06
6.9505526488e-06
6.95048825574e-06
6.950435271e-06
6.95040056123e-06
6.95038842074e-06
6.95040053018e-06
6.95043521347e-06
6.95048817915e-06
6.9505525589e-06
6.9506205959e-06
6.9506749916e-06
6.95072744265e-06
6.95076317697e-06
6.9507124991e-06
6.95066180859e-06
6.95059747311e-06
6.95053688745e-06
6.950487255e-06
6.95045482479e-06
6.95044350051e-06
6.95045479776e-06
6.95048720471e-06
6.9505368184e-06
6.95059738909e-06
6.95066170381e-06
6.95071237835e-06
6.95076292561e-06
6.95079994515e-06
6.95075281808e-06
6.95070684891e-06
6.95064735322e-06
6.95059176008e-06
6.95054655176e-06
6.95051713928e-06
6.95050689513e-06
6.95051711571e-06
6.95054650727e-06
6.9505916979e-06
6.95064727368e-06
6.95070674798e-06
6.9507526977e-06
6.95079969243e-06
6.95084053508e-06
6.95079867078e-06
6.95075825526e-06
6.95070466206e-06
6.95065531207e-06
6.95061567539e-06
6.95059007536e-06
6.95058119086e-06
6.95059005434e-06
6.9506156355e-06
6.95065525356e-06
6.950704586e-06
6.95075815614e-06
6.95079855221e-06
6.95084028516e-06
6.95088790766e-06
6.95085220628e-06
6.95081740254e-06
6.95077037752e-06
6.9507284293e-06
6.95069549558e-06
6.95067447845e-06
6.95066723147e-06
6.95067445922e-06
6.95069545695e-06
6.95072837486e-06
6.95077030143e-06
6.95081730516e-06
6.95085208822e-06
6.95088766186e-06
6.9509545128e-06
6.95092417696e-06
6.95089036248e-06
6.9508479717e-06
6.95081282193e-06
6.95078629117e-06
6.95076969578e-06
6.95076402003e-06
6.95076967571e-06
6.9507862549e-06
6.95081276518e-06
6.95084789709e-06
6.95089026361e-06
6.95092405887e-06
6.9509542751e-06
6.95107960405e-06
6.95102603458e-06
6.95098001161e-06
6.95093588851e-06
6.95090315718e-06
6.95087960831e-06
6.95086520842e-06
6.95086034178e-06
6.95086518729e-06
6.95087956644e-06
6.95090309708e-06
6.9509358048e-06
6.95097990456e-06
6.95102590263e-06
6.9510793796e-06
6.15544987118e-06
6.15549963856e-06
6.1555578698e-06
6.15561773707e-06
6.15567186447e-06
6.15571457652e-06
6.15574190671e-06
6.15575138764e-06
6.15574206426e-06
6.15571487062e-06
6.15567224948e-06
6.15561814571e-06
6.15555825404e-06
6.15549992764e-06
6.15545020126e-06
6.15549635835e-06
6.15554593756e-06
6.15560483136e-06
6.15566549034e-06
6.15572056618e-06
6.15576415934e-06
6.15579211949e-06
6.15580183826e-06
6.15579228413e-06
6.15576446606e-06
6.15572096532e-06
6.15566590898e-06
6.15560521085e-06
6.1555462259e-06
6.15549664632e-06
6.15549310528e-06
6.1555391486e-06
6.15559513742e-06
6.1556534533e-06
6.15570689654e-06
6.15574943393e-06
6.15577681663e-06
6.1557863519e-06
6.15577697009e-06
6.15574972026e-06
6.15570727097e-06
6.15565385353e-06
6.15559550323e-06
6.15553945344e-06
6.15549338768e-06
6.15548550419e-06
6.15552907096e-06
6.15558284397e-06
6.15563916412e-06
6.15569116633e-06
6.15573274381e-06
6.15575958734e-06
6.1557689448e-06
6.15575972639e-06
6.15573300381e-06
6.15569150803e-06
6.15563953474e-06
6.15558319165e-06
6.15552937417e-06
6.15548578746e-06
6.15548379537e-06
6.15552594118e-06
6.15557837948e-06
6.15563321361e-06
6.15568408551e-06
6.15572487831e-06
6.15575126739e-06
6.15576047242e-06
6.15575139391e-06
6.15572511522e-06
6.15568439953e-06
6.15563355875e-06
6.15557871457e-06
6.15552624013e-06
6.15548407803e-06
6.15548467028e-06
6.15552579648e-06
6.15557726645e-06
6.15563070245e-06
6.15568041681e-06
6.15572034677e-06
6.1557462103e-06
6.15575523434e-06
6.15574632499e-06
6.15572056202e-06
6.15568070358e-06
6.15563102102e-06
6.15557758097e-06
6.15552609377e-06
6.15548493734e-06
6.15548587652e-06
6.15552616641e-06
6.15557679527e-06
6.1556287678e-06
6.15567717283e-06
6.15571607305e-06
6.15574128397e-06
6.15575007977e-06
6.15574138771e-06
6.15571626862e-06
6.1556774353e-06
6.15562906389e-06
6.15557709221e-06
6.15552646121e-06
6.1554861324e-06
6.15548670313e-06
6.15552628722e-06
6.15557611517e-06
6.15562651404e-06
6.15567342025e-06
6.15571110163e-06
6.15573552022e-06
6.15574403674e-06
6.15573561397e-06
6.15571127899e-06
6.15567366027e-06
6.15562678862e-06
6.15557639696e-06
6.15552657536e-06
6.1554869552e-06
6.15548680857e-06
6.15552580334e-06
6.15557482344e-06
6.155623512e-06
6.15566871541e-06
6.15570498442e-06
6.15572847091e-06
6.15573665745e-06
6.15572855613e-06
6.15570514622e-06
6.15566893691e-06
6.15562376937e-06
6.15557509425e-06
6.15552608751e-06
6.15548705255e-06
6.15548600983e-06
6.15552460446e-06
6.15557277706e-06
6.1556195994e-06
6.15566288812e-06
6.15569755067e-06
6.15571996923e-06
6.15572777619e-06
6.15572004697e-06
6.15569769932e-06
6.15566309324e-06
6.1556198424e-06
6.15557303897e-06
6.15552488644e-06
6.15548624817e-06
6.15548441027e-06
6.15552291652e-06
6.15557016749e-06
6.15561494499e-06
6.15565609831e-06
6.15568896458e-06
6.1557101823e-06
6.15571756286e-06
6.15571025419e-06
6.15568910246e-06
6.15565629112e-06
6.1556151761e-06
6.15557042235e-06
6.15552319469e-06
6.15548463871e-06
6.15548209832e-06
6.15552103776e-06
6.15556732119e-06
6.15560991406e-06
6.15564877323e-06
6.15567970039e-06
6.15569961936e-06
6.15570653544e-06
6.15569968638e-06
6.15567983041e-06
6.15564895478e-06
6.15561013632e-06
6.15556756938e-06
6.15552131027e-06
6.15548231434e-06
6.15547890463e-06
6.15551906521e-06
6.15556448775e-06
6.15560493605e-06
6.15564155701e-06
6.15567058593e-06
6.1556892081e-06
6.15569566225e-06
6.15568927181e-06
6.15567070718e-06
6.15564173182e-06
6.15560514811e-06
6.15556472974e-06
6.15551932986e-06
6.15547910744e-06
6.15548083158e-06
6.15552319301e-06
6.1555656528e-06
6.15560281797e-06
6.15563648945e-06
6.15566305629e-06
6.15568002056e-06
6.1556858756e-06
6.15568007936e-06
6.15566317348e-06
6.15563665351e-06
6.15560302391e-06
6.15556588583e-06
6.15552344736e-06
6.15548101285e-06
6.15554074799e-06
6.15556319617e-06
6.15558982049e-06
6.15561449425e-06
6.15563805279e-06
6.15565682782e-06
6.15566882372e-06
6.15567296812e-06
6.15566888028e-06
6.15565693709e-06
6.15563821144e-06
6.1556146905e-06
6.15559004647e-06
6.15556343955e-06
6.15554093124e-06
5.79431645738e-06
5.79429127341e-06
5.79426235284e-06
5.79423104106e-06
5.79420240609e-06
5.79417950754e-06
5.79416478261e-06
5.7941596769e-06
5.79416475961e-06
5.79417946363e-06
5.79420234503e-06
5.79423098856e-06
5.79426233576e-06
5.79429133294e-06
5.79431640328e-06
5.7943323323e-06
5.79430873785e-06
5.79428086524e-06
5.79425031392e-06
5.79422215351e-06
5.7941995094e-06
5.79418489108e-06
5.79417980825e-06
5.79418486489e-06
5.79419945901e-06
5.79422208487e-06
5.79425025297e-06
5.7942808417e-06
5.79430877599e-06
5.79433227093e-06
5.79437536248e-06
5.7943548328e-06
5.79432977243e-06
5.7943013982e-06
5.79427488888e-06
5.79425336587e-06
5.79423939149e-06
5.79423451715e-06
5.79423936699e-06
5.79425331975e-06
5.79427482836e-06
5.79430134644e-06
5.79432975872e-06
5.79435486247e-06
5.7943753107e-06
5.79441256341e-06
5.79439381846e-06
5.79437071126e-06
5.79434379133e-06
5.79431837848e-06
5.79429758424e-06
5.79428402014e-06
5.79427927883e-06
5.79428399913e-06
5.7942975464e-06
5.79431833282e-06
5.7943437582e-06
5.79437071237e-06
5.79439385766e-06
5.7944125174e-06
5.79444035288e-06
5.79442235309e-06
5.79440040905e-06
5.79437432808e-06
5.79434955332e-06
5.79432917779e-06
5.79431584461e-06
5.7943111784e-06
5.79431582792e-06
5.79432914912e-06
5.79434952227e-06
5.79437431298e-06
5.79440042418e-06
5.79442240644e-06
5.7944403172e-06
5.79446208809e-06
5.7944443401e-06
5.79442317358e-06
5.79439768219e-06
5.79437339057e-06
5.79435335484e-06
5.79434021794e-06
5.79433561821e-06
5.79434020643e-06
5.79435333683e-06
5.79437337603e-06
5.79439768696e-06
5.79442320548e-06
5.7944444e-06
5.79446207142e-06
5.79447976878e-06
5.79446204514e-06
5.79444150358e-06
5.7944165507e-06
5.79439274926e-06
5.79437309702e-06
5.79436019944e-06
5.79435568429e-06
5.79436019334e-06
5.79437308972e-06
5.79439275006e-06
5.79441657279e-06
5.79444155189e-06
5.79446211266e-06
5.79447976561e-06
5.79449453115e-06
5.79447680995e-06
5.79445688782e-06
5.7944325499e-06
5.79440935527e-06
5.79439021457e-06
5.79437765331e-06
5.79437325898e-06
5.79437765265e-06
5.79439021784e-06
5.79440937041e-06
5.79443258658e-06
5.79445694732e-06
5.79447688268e-06
5.79449453186e-06
5.7945074082e-06
5.7944898501e-06
5.79447065758e-06
5.79444711693e-06
5.79442473462e-06
5.79440630084e-06
5.79439421554e-06
5.79438999252e-06
5.7943942196e-06
5.79440631285e-06
5.79442476087e-06
5.794447164e-06
5.79447072345e-06
5.79448992445e-06
5.79450741105e-06
5.79451939973e-06
5.7945022939e-06
5.7944840145e-06
5.79446151819e-06
5.79444021244e-06
5.79442272923e-06
5.79441129071e-06
5.79440730056e-06
5.79441129847e-06
5.79442274783e-06
5.79444024651e-06
5.79446157068e-06
5.79448408109e-06
5.79450236344e-06
5.79451939989e-06
5.79453135069e-06
5.7945150484e-06
5.79449788904e-06
5.79447670623e-06
5.79445677457e-06
5.7944405156e-06
5.79442991575e-06
5.79442622687e-06
5.79442992565e-06
5.79444053812e-06
5.79445681224e-06
5.79447675972e-06
5.79449795282e-06
5.79451511061e-06
5.79453134596e-06
5.79454380431e-06
5.79452865643e-06
5.79451279667e-06
5.79449319074e-06
5.79447495552e-06
5.79446022558e-06
5.79445067787e-06
5.79444736639e-06
5.79445068865e-06
5.79446024839e-06
5.79447499311e-06
5.79449324094e-06
5.79451285371e-06
5.7945287114e-06
5.79454379652e-06
5.79455734878e-06
5.79454356368e-06
5.79452901731e-06
5.79451115069e-06
5.79449491704e-06
5.79448202226e-06
5.79447374503e-06
5.79447088836e-06
5.79447375433e-06
5.79448204361e-06
5.79449495e-06
5.79451119422e-06
5.79452906575e-06
5.79454360964e-06
5.79455733787e-06
5.79457500048e-06
5.79456238227e-06
5.79454796292e-06
5.79453135367e-06
5.79451700226e-06
5.79450592757e-06
5.79449892431e-06
5.79449652517e-06
5.79449893112e-06
5.79450594323e-06
5.79451702774e-06
5.79453138613e-06
5.79454799911e-06
5.7945624167e-06
5.79457498498e-06
5.79460560873e-06
5.79458580899e-06
5.79456870281e-06
5.7945522305e-06
5.79453912996e-06
5.79452939491e-06
5.79452335513e-06
5.79452130424e-06
5.7945233577e-06
5.79452940226e-06
5.79453914308e-06
5.79455224723e-06
5.79456872202e-06
5.79458582683e-06
5.79460558857e-06
5.20508350176e-06
5.20509682128e-06
5.20511309518e-06
5.20513018191e-06
5.20514583114e-06
5.20515827349e-06
5.2051662655e-06
5.20516904877e-06
5.2051663398e-06
5.20515842156e-06
5.20514605037e-06
5.20513044547e-06
5.20511336113e-06
5.20509700391e-06
5.20508365609e-06
5.20509587526e-06
5.20510919247e-06
5.20512568604e-06
5.20514301974e-06
5.20515896091e-06
5.20517167357e-06
5.20517985886e-06
5.20518271547e-06
5.20517993773e-06
5.2051718304e-06
5.20515919221e-06
5.20514329775e-06
5.20512596377e-06
5.20510939483e-06
5.20509600891e-06
5.20509715346e-06
5.20510977897e-06
5.20512572878e-06
5.20514262443e-06
5.20515829042e-06
5.2051708442e-06
5.20517895575e-06
5.20518179139e-06
5.20517903223e-06
5.20517099582e-06
5.20515851211e-06
5.20514289316e-06
5.20512599831e-06
5.20510999693e-06
5.20509729256e-06
5.20509773171e-06
5.20510997215e-06
5.20512557238e-06
5.20514214385e-06
5.20515759978e-06
5.20517003023e-06
5.20517808366e-06
5.20518090156e-06
5.20517815622e-06
5.20517017366e-06
5.20515780829e-06
5.20514239912e-06
5.20512583657e-06
5.20511019807e-06
5.20509789041e-06
5.20509994143e-06
5.20511206717e-06
5.205127542e-06
5.20514391822e-06
5.20515924123e-06