/*--------------------------------*- C++ -*----------------------------------*\
  =========                 |
  \\      /  F ield         | OpenFOAM: The Open Source CFD Toolbox
   \\    /   O peration     | Website:  https://openfoam.org
    \\  /    A nd           | Version:  7
     \\/     M anipulation  |
\*---------------------------------------------------------------------------*/
FoamFile
{
    version     2.0;
    format      ascii;
    class       volVectorField;
    location    "2.34";
    object      U;
}
// * * * * * * * * * * * * * * * * * * * * * * * * * * * * * * * * * * * * * //

dimensions      [0 1 -1 0 0 0 0];

internalField   nonuniform List<vector> 
22500
(
(1.25482028746e-05 1.4071138046e-05 0.000192475197802)
(1.1679546888e-05 1.58636889102e-05 0.000202031624157)
(1.02268936469e-05 1.76702058193e-05 0.000210725284225)
(8.59945625208e-06 1.92048705998e-05 0.000218225878317)
(6.68542105423e-06 2.04743493798e-05 0.000224301153602)
(4.57748289768e-06 2.14172758519e-05 0.000228769308672)
(2.32610472231e-06 2.19985206677e-05 0.000231504170572)
(3.2496859055e-10 2.21951286942e-05 0.000232429765327)
(-2.32546426327e-06 2.19985675024e-05 0.000231504162053)
(-4.57686852482e-06 2.14173663289e-05 0.000228769294363)
(-6.68484886528e-06 2.04744748536e-05 0.000224301135398)
(-8.5989391663e-06 1.92050215865e-05 0.000218225860692)
(-1.02264520388e-05 1.76703656243e-05 0.000210725295078)
(-1.16791510298e-05 1.58638770209e-05 0.000202031846866)
(-1.25479292824e-05 1.40713224485e-05 0.000192476549304)
(3.65388989371e-05 4.09978035706e-05 0.00050511392635)
(3.39406145893e-05 4.61118054583e-05 0.000526579725642)
(2.98094338778e-05 5.12133462857e-05 0.000545880710662)
(2.50387094731e-05 5.55871557076e-05 0.000562374369805)
(1.94735877485e-05 5.92059234759e-05 0.000575625678621)
(1.33321128044e-05 6.18962619327e-05 0.000585311587305)
(6.77445959041e-06 6.35560971746e-05 0.000591214746314)
(8.35625046659e-10 6.41174235741e-05 0.000593205541827)
(-6.77281007243e-06 6.35562040359e-05 0.000591214720313)
(-1.33305248754e-05 6.18964679459e-05 0.000585311541027)
(-1.94720984999e-05 5.92062088236e-05 0.000575625614952)
(-2.50373503174e-05 5.55874982665e-05 0.000562374298845)
(-2.98082428144e-05 5.12137099018e-05 0.000545880710412)
(-3.39395487598e-05 4.61122324698e-05 0.000526580324115)
(-3.65381522823e-05 4.09982302398e-05 0.000505117191362)
(5.50983805841e-05 6.17168301982e-05 0.000758397607938)
(5.09242745879e-05 6.90411985257e-05 0.00078683256885)
(4.46346079075e-05 7.62879306606e-05 0.00081212816621)
(3.73784930148e-05 8.24862440233e-05 0.000833568635031)
(2.90113813609e-05 8.75940704821e-05 0.000850676117333)
(1.98299219275e-05 9.13815943032e-05 0.000863115292793)
(1.006622955e-05 9.37143403924e-05 0.000870668504125)
(1.22597518545e-09 9.45024860917e-05 0.000873208593203)
(-1.00638061913e-05 9.37144746543e-05 0.000870668446279)
(-1.98275806382e-05 9.13818525164e-05 0.000863115184011)
(-2.90091712366e-05 8.75944276388e-05 0.000850675957711)
(-3.73764548553e-05 8.24866700531e-05 0.000833568432387)
(-4.46327877208e-05 7.62883838786e-05 0.000812128016305)
(-5.09226311413e-05 6.90417336423e-05 0.000786833186048)
(-5.50971953987e-05 6.17173834493e-05 0.000758401834945)
(6.9384683173e-05 7.75726523359e-05 0.000964190501568)
(6.38160218674e-05 8.62652247354e-05 0.000996146161854)
(5.57828495875e-05 9.48217068124e-05 0.00102425540843)
(4.6568263767e-05 0.000102101350127 0.00104788144567)
(3.60617484167e-05 0.000108075008528 0.00106660161242)
(2.46059836903e-05 0.000112490288381 0.00108014097385)
(1.2477342833e-05 0.00011520399411 0.00108833140305)
(1.51982460409e-09 0.000116119796748 0.00109107858985)
(-1.24743362478e-05 0.000115204147331 0.0010883312903)
(-2.46030728098e-05 0.000112490582567 0.00108014075289)
(-3.60589903014e-05 0.000108075415642 0.00106660127441)
(-4.65657037314e-05 0.000102101834376 0.00104788098243)
(-5.57805344827e-05 9.48222224324e-05 0.00102425489144)
(-6.38139131755e-05 8.62658312516e-05 0.0009961463293)
(-6.938310721e-05 7.75732893954e-05 0.000964194498258)
(8.02614406149e-05 8.95885566472e-05 0.00113142081543)
(7.34823013214e-05 9.9014339417e-05 0.00116446426286)
(6.40445443663e-05 0.000108263063321 0.00119317722057)
(5.33008734746e-05 0.000116083010428 0.00121709211198)
(4.11811733505e-05 0.000122471650224 0.00123590012271)
(2.80504567969e-05 0.000127177902457 0.00124942536209)
(1.42089474187e-05 0.000130064094858 0.00125757448142)
(1.74057708114e-09 0.000131036958099 0.00126030077236)
(-1.42055024859e-05 0.000130064265575 0.00125757429957)
(-2.80471171373e-05 0.00012717823016 0.00124942499589)
(-4.11780013703e-05 0.000122472104696 0.00123589954549)
(-5.32979167354e-05 0.000116083551896 0.00121709128091)
(-6.40418451073e-05 0.000108263641302 0.00119317613993)
(-7.34798228184e-05 9.9015015577e-05 0.00116446359666)
(-8.02595219625e-05 8.95892734283e-05 0.00113142374087)
(8.81945093214e-05 9.82954426477e-05 0.00126702532137)
(8.03856949954e-05 0.000107934308553 0.00129945017587)
(6.98428551646e-05 0.000117375387679 0.0013272492144)
(5.79470939021e-05 0.00012530524732 0.00135017057155)
(4.46675342579e-05 0.000131752754255 0.00136804959553)
(3.03723578286e-05 0.000136486113444 0.00138082582347)
(1.53688642289e-05 0.000139382307279 0.00138848981889)
(1.90937406731e-09 0.000140357393451 0.00139104700215)
(-1.53650840405e-05 0.000139382498032 0.00138848956202)
(-3.03686900791e-05 0.00013648647998 0.0013808252953)
(-4.46640449991e-05 0.000131753264625 0.00136804874156)
(-5.79438316859e-05 0.000125305858446 0.00135016929497)
(-6.98398540812e-05 0.000117376045573 0.00132724741806)
(-8.0382917548e-05 0.000107935073463 0.00129944841162)
(-8.81922951249e-05 9.82962604001e-05 0.00126702674691)
(9.35632861224e-05 0.000104113906844 0.00137654786279)
(8.49011578143e-05 0.000113543568931 0.0014071888141)
(7.35240479792e-05 0.000122773184645 0.00143306985503)
(6.08102705458e-05 0.000130471919443 0.0014541701109)
(4.67647046538e-05 0.000136699392717 0.0014704779025)
(3.1742864238e-05 0.000141255359641 0.00148204903695)
(1.60453930172e-05 0.000144036530626 0.001488956047)
(2.04459783732e-09 0.000144971808466 0.00149125411928)
(-1.60413444285e-05 0.000144036747543 0.00148895571474)
(-3.17389341045e-05 0.000141255777328 0.00148204834168)
(-4.67609618592e-05 0.000136699977943 0.00147047675255)
(-6.08067639292e-05 0.000130472625784 0.00145416833908)
(-7.35208025719e-05 0.000122773955239 0.00143306724205)
(-8.48981333131e-05 0.000113544458506 0.00140718580732)
(-9.35608172487e-05 0.000104114861775 0.00137654762737)
(9.67296062293e-05 0.000107448549852 0.00146451553565)
(8.73838160803e-05 0.000116339189666 0.00149262042132)
(7.54163919844e-05 0.000125041342462 0.00151596896103)
(6.21772183632e-05 0.000132248137688 0.00153476428021)
(4.77027839408e-05 0.000138046054002 0.00154914029563)
(3.2323164076e-05 0.000142273313885 0.00155925896395)
(1.63215594705e-05 0.00014484795605 0.00156526533934)
(2.16196650281e-09 0.000145712832691 0.00156725753381)
(-1.63172780685e-05 0.000144848207352 0.00156526493568)
(-3.2319006612e-05 0.000142273799623 0.0015592581064)
(-4.76988218777e-05 0.00013804673971 0.00154913884838)
(-6.21735010558e-05 0.000132248973749 0.00153476199508)
(-7.54129357307e-05 0.000125042268447 0.00151596549053)
(-8.73805798136e-05 0.000116340251544 0.00149261614724)
(-9.67269177393e-05 0.000107449687616 0.00146451367273)
(9.80243683284e-05 0.000108672241434 0.00153468273417)
(8.81551662695e-05 0.000116774579801 0.001559817998)
(7.58160110953e-05 0.000124708316171 0.00158031682462)
(6.23060455128e-05 0.000131229701246 0.00159658361761)
(4.76883376851e-05 0.000136446862943 0.00160887894128)
(3.22576117334e-05 0.000140238665937 0.00161745344814)
(1.62715884492e-05 0.000142543288688 0.00162251062563)
(2.27527009098e-09 0.000143316712829 0.00162418210676)
(-1.62670821691e-05 0.000142543583455 0.00162251015985)
(-3.2253234504e-05 0.000140239238391 0.00161745244565)
(-4.76841636271e-05 0.000136447677721 0.00160887721945)
(-6.23021254488e-05 0.00013123070546 0.00159658084408)
(-7.58123550146e-05 0.000124709444968 0.00158031253111)
(-8.81517365448e-05 0.000116775866178 0.001559812559)
(-9.80214876707e-05 0.000108673612477 0.00153467944256)
(9.77428814541e-05 0.000108119460009 0.00159019328004)
(8.74987512634e-05 0.000115250390754 0.00161216996364)
(7.49829328542e-05 0.000122235812375 0.00162972682192)
(6.14232079068e-05 0.000127932631868 0.00164343572308)
(4.69022522465e-05 0.000132465293708 0.00165365735664)
(3.16722632041e-05 0.000135750991362 0.00166070941868)
(1.59601522652e-05 0.000137744652612 0.00166483751696)
(2.39665006887e-09 0.000138413217679 0.00166619639171)
(-1.5955404619e-05 0.000137744998949 0.00166483700722)
(-3.16676489457e-05 0.000135751667336 0.00166070830952)
(-4.68978486265e-05 0.000132466263932 0.00165365542179)
(-6.14190687995e-05 0.000127933840522 0.00164343255153)
(-7.49790661683e-05 0.000122237189226 0.00162972184251)
(-8.74951289005e-05 0.000115251952202 0.00161216361186)
(-9.7739824454e-05 0.000108121114261 0.00159018893164)
(9.61476756647e-05 0.000106090635179 0.00163368958864)
(8.56633004747e-05 0.000112117236884 0.0016525034542)
(7.3144875808e-05 0.000118021815943 0.00166719314291)
(5.97272543871e-05 0.00012279841098 0.00167845570116)
(4.55026606026e-05 0.000126581505621 0.00168672128624)
(3.06767513367e-05 0.00012931947359 0.00169235165192)
(1.54432716856e-05 0.000130979026117 0.00169561803382)
(2.53642207973e-09 0.000131535292649 0.00169668807509)
(-1.54382452959e-05 0.000130979429057 0.00169561751394)
(-3.06718612728e-05 0.000129320264117 0.00169235051017)
(-4.54979876045e-05 0.000126582649694 0.00168671926432)
(-5.97228578819e-05 0.000122799851232 0.00167845232442)
(-7.31407674071e-05 0.000118023476245 0.00166718776068)
(-8.56594683675e-05 0.000112119114852 0.00165249663224)
(-9.61444423922e-05 0.000106092614084 0.00163368477313)
(9.34695514954e-05 0.000102855535722 0.00166738628866)
(8.28667248896e-05 0.000107675924564 0.00168317048796)
(7.05035032995e-05 0.000112402939471 0.00169518965215)
(5.73940837958e-05 0.00011620050396 0.00170421546168)
(4.36281833018e-05 0.000119201363832 0.001710716451)
(2.93659587377e-05 0.000121372981068 0.00171507701266)
(1.47690108507e-05 0.000122688686041 0.00171757900133)
(2.70255653607e-09 0.00012312959369 0.00171839380947)
(-1.47636520664e-05 0.000122689145381 0.00171757853011)
(-2.93607370169e-05 0.000121373886517 0.00171507596902)
(-4.36231832147e-05 0.000119202685205 0.00171071456834)
(-5.73893731856e-05 0.000116202185074 0.0017042122288)
(-7.04991046807e-05 0.00011240489967 0.00169518435929)
(-8.28626499303e-05 0.000107678141236 0.00168316387941)
(-9.34661227743e-05 0.000102857864313 0.0016673818772)
(8.99046967614e-05 9.86376614376e-05 0.00169311792626)
(7.93079026831e-05 0.000102167944136 0.00170611312234)
(6.72468668408e-05 0.000105659423869 0.00171574759161)
(5.45833028287e-05 0.000108455996999 0.00172280938314)
(4.13998986858e-05 0.000110669825191 0.00172778084321)
(2.78202996866e-05 0.000112273147534 0.00173105223611)
(1.39774131549e-05 0.000113243880286 0.00173290347544)
(2.89987890836e-09 0.00011356902777 0.00173350191465)
(-1.39716588662e-05 0.000113244387794 0.00173290314552)
(-2.78146805381e-05 0.00011227415277 0.00173105149819)
(-4.13945025887e-05 0.000110671304454 0.00172777946495)
(-5.45782092411e-05 0.00010845790049 0.00172280686607)
(-6.72421175579e-05 0.000105661670575 0.00171574317754)
(-7.93035407382e-05 0.000102170492864 0.00170610769719)
(-8.99010441619e-05 9.86403296715e-05 0.00169311503132)
(8.56555719267e-05 9.35985967057e-05 0.00171236405817)
(7.52165860086e-05 9.58150979258e-05 0.0017229274042)
(6.35670559719e-05 9.80406375576e-05 0.00173052650072)
(5.14357281178e-05 9.98547929125e-05 0.00173592644799)
(3.89154334443e-05 0.000101294277379 0.00173962095436)
(2.61013571692e-05 0.00010233409489 0.00174199466377)
(1.30984710072e-05 0.000102961235909 0.00174331467027)
(3.12839013873e-09 0.000103170892795 0.0017437374317)
(-1.30922578024e-05 0.000102961773974 0.00174331460781)
(-2.60952747244e-05 0.00010233516553 0.00174199451659)
(-3.89095718755e-05 0.00010129586556 0.00173962059436)
(-5.14301802117e-05 9.98568622342e-05 0.00173592549255)
(-6.35618910271e-05 9.80431187424e-05 0.00173052418319)
(-7.52118882817e-05 9.58179352828e-05 0.00172292451696)
(-8.56516492935e-05 9.36015725359e-05 0.00171236390078)
(8.10107804347e-05 8.81990933144e-05 0.00172628437417)
(7.08789690719e-05 8.85263040449e-05 0.00173500265437)
(5.9582351138e-05 8.96257335465e-05 0.00174089066518)
(4.80250606838e-05 9.05100108979e-05 0.00174491554505)
(3.62214186692e-05 9.12027308873e-05 0.00174757898176)
(2.42392341908e-05 9.16936345713e-05 0.00174924319887)
(1.21474833961e-05 9.19857039289e-05 0.00175014956759)
(3.3826800486e-09 9.20827972072e-05 0.00175043663523)
(-1.21407595122e-05 9.19862385426e-05 0.00175014988241)
(-2.42326354289e-05 9.16947023895e-05 0.00174924389492)
(-3.62150346978e-05 9.12043263811e-05 0.0017475801166)
(-4.80189939216e-05 9.05121169802e-05 0.001744917032)
(-5.95767029879e-05 8.96283042918e-05 0.0017408918657)
(-7.08739021489e-05 8.85293112434e-05 0.0017350047923)
(-8.10065017933e-05 8.82022664871e-05 0.00172628679174)
(2.85648495057e-07 4.5388439142e-07 0.00013432654147)
(1.82807163095e-07 5.88580055295e-07 0.00014095596603)
(1.39194191878e-07 6.66861108172e-07 0.000146948401979)
(9.77993841299e-08 7.27299046899e-07 0.000152114537401)
(6.38803878776e-08 7.70449119285e-07 0.000156300097948)
(3.74466346579e-08 7.98852028e-07 0.000159379395864)
(1.69952245741e-08 8.14809788542e-07 0.000161265354584)
(1.3604422378e-10 8.19976922359e-07 0.00016190478262)
(-1.67194987366e-08 8.14834255636e-07 0.000161265355761)
(-3.71603501446e-08 7.98900108618e-07 0.000159379400998)
(-6.35842468542e-08 7.70516353832e-07 0.000156300112219)
(-9.75117374602e-08 7.27377597975e-07 0.000152114575245)
(-1.38945150358e-07 6.66944119111e-07 0.000146948518345)
(-1.82604447772e-07 5.88662578963e-07 0.000140956403335)
(-2.85539009195e-07 4.53961883714e-07 0.00013432820493)
(2.52581671526e-06 3.08803037495e-06 0.000386409136512)
(2.19228318429e-06 3.7663352853e-06 0.000404472460802)
(1.92665593248e-06 4.33447572239e-06 0.000420758695977)
(1.61325230864e-06 4.82978341611e-06 0.000434765056671)
(1.25367401867e-06 5.23134929234e-06 0.000446089415816)
(8.57444285418e-07 5.52700754772e-06 0.000454409165633)
(4.35339578643e-07 5.70804065236e-06 0.000459498876313)
(4.42437949314e-10 5.76913960933e-06 0.000461219729667)
(-4.34448978654e-07 5.7081084784e-06 0.000459498868371)
(-8.56538541458e-07 5.5271386138e-06 0.000454409157452)
(-1.25275995485e-06 5.23153027698e-06 0.000446089422944)
(-1.61237231738e-06 4.82999510984e-06 0.000434765122859)
(-1.92588443601e-06 4.33470121811e-06 0.000420758984997)
(-2.19165308186e-06 3.76656991605e-06 0.000404473684708)
(-2.52545625512e-06 3.08826416143e-06 0.000386413456063)
(6.0098668941e-06 6.99619131191e-06 0.000622283649739)
(5.39438891811e-06 8.38014355452e-06 0.000650182280503)
(4.7956901075e-06 9.61950693959e-06 0.000675243436626)
(4.05710724218e-06 1.07176097171e-05 0.00069673277278)
(3.17989849694e-06 1.16213099432e-05 0.000714063519608)
(2.18874130934e-06 1.22938578258e-05 0.000726772352819)
(1.11575991813e-06 1.27086883111e-05 0.000734535809515)
(7.6094656331e-10 1.28491216771e-05 0.000737155366358)
(-1.11423429207e-06 1.27087922447e-05 0.000734535763031)
(-2.18720771785e-06 1.22940563099e-05 0.000726772270703)
(-3.17837221094e-06 1.16215805749e-05 0.000714063424027)
(-4.05564408879e-06 1.07179234201e-05 0.000696732729145)
(-4.79439148316e-06 9.61984073733e-06 0.000675243686733)
(-5.39331747538e-06 8.38050855501e-06 0.00065018386629)
(-6.00921990347e-06 6.99658182981e-06 0.000622289678548)
(1.01843515785e-05 1.15753118519e-05 0.00084192476143)
(9.23486906312e-06 1.37057214357e-05 0.00087794656709)
(8.22954492342e-06 1.5650431399e-05 0.000910130082223)
(6.97220864817e-06 1.73825692954e-05 0.000937611479782)
(5.47096817539e-06 1.88133044627e-05 0.000959696065075)
(3.76873078652e-06 1.98803325218e-05 0.000975846970264)
(1.92220869641e-06 2.05393452e-05 0.000985693164509)
(1.07412029347e-09 2.07624935988e-05 0.000989009201103)
(-1.92006136261e-06 2.05394819324e-05 0.000985693032487)
(-3.76659028083e-06 1.98805933848e-05 0.000975846717013)
(-5.46886037999e-06 1.8813661658e-05 0.000959695712427)
(-6.97019844599e-06 1.73829882218e-05 0.00093761109987)
(-8.22774712382e-06 1.56508827522e-05 0.000910129951267)
(-9.23336928214e-06 1.3706230756e-05 0.000877947904104)
(-1.0183394662e-05 1.15758769394e-05 0.000841931244945)
(1.46084171896e-05 1.63478026121e-05 0.00104457246428)
(1.32859635717e-05 1.91833148134e-05 0.00108686283752)
(1.18356703177e-05 2.17739422926e-05 0.00112437697239)
(1.00172020003e-05 2.40839753947e-05 0.00115623415282)
(7.85321839819e-06 2.59917630383e-05 0.00118171659789)
(5.40592368847e-06 2.74137040638e-05 0.00120028562931)
(2.75608182154e-06 2.82914489208e-05 0.001211576679)
(1.37139077884e-09 2.85884924859e-05 0.00121537198801)
(-2.75334580252e-06 2.82916168173e-05 0.00121157642133)
(-5.40321243161e-06 2.74140253733e-05 0.00120028511966)
(-7.8505685804e-06 2.59922074103e-05 0.00118171584699)
(-1.00146850838e-05 2.40845051715e-05 0.00115623321772)
(-1.18334055802e-05 2.17745224082e-05 0.0011243761144)
(-1.32840488794e-05 1.91839783544e-05 0.00108686335119)
(-1.4607130924e-05 1.63485510254e-05 0.00104457836614)
(1.89793937774e-05 2.09978491791e-05 0.00122943807877)
(1.72596797615e-05 2.44456263586e-05 0.00127608310974)
(1.53510885367e-05 2.75683402695e-05 0.00131709569478)
(1.29656102323e-05 3.034952715e-05 0.00135168872869)
(1.01465473385e-05 3.26413463576e-05 0.00137920322149)
(6.97506361907e-06 3.43460864429e-05 0.00139916501687)
(3.55312333879e-06 3.5396868276e-05 0.0014112650714)
(1.64732186656e-09 3.57521351737e-05 0.00141532403405)
(-3.54984144751e-06 3.53970661543e-05 0.00141126466281)
(-6.97182439394e-06 3.43464668158e-05 0.0013991641945)
(-1.01433971289e-05 3.26418780714e-05 0.00137920197204)
(-1.29626246416e-05 3.03501707039e-05 0.00135168706935)
(-1.5348386312e-05 2.75690562304e-05 0.00131709382697)
(-1.72573621318e-05 2.44464500714e-05 0.00127608234693)
(-1.89777640149e-05 2.09987813445e-05 0.00122944270675)
(2.30699478877e-05 2.52957084426e-05 0.00139604422924)
(2.09439221274e-05 2.922765995e-05 0.00144518204027)
(1.85839018427e-05 3.27365114584e-05 0.00148793915831)
(1.56544037399e-05 3.5852624736e-05 0.00152371905252)
(1.22228618036e-05 3.84109935603e-05 0.00155199022636)
(8.38790642805e-06 4.03083133035e-05 0.0015723959058)
(4.26833491775e-06 4.14753702147e-05 0.00158472037161)
(1.90048586247e-09 4.18694830101e-05 0.00158884560308)
(-4.26455211059e-06 4.14755973605e-05 0.00158471980641)
(-8.38418210459e-06 4.0308752115e-05 0.00157239475353)
(-1.22192502202e-05 3.84116131068e-05 0.00155198843684)
(-1.56509827941e-05 3.58533844934e-05 0.00152371657962)
(-1.85807865044e-05 3.27373676832e-05 0.00148793610848)
(-2.09412135487e-05 2.92286479868e-05 0.0014451797285)
(-2.30679643948e-05 2.5296820687e-05 0.00139604719139)
(2.67112135015e-05 2.90749875406e-05 0.00154434793098)
(2.41849192264e-05 3.33409241804e-05 0.00159426806308)
(2.13974919631e-05 3.70752335466e-05 0.00163719474409)
(1.79700540081e-05 4.03770125938e-05 0.00167279636533)
(1.39947577943e-05 4.3074528647e-05 0.00170071748879)
(9.5852193121e-06 4.5067444333e-05 0.0017207534562)
(4.87182903875e-06 4.62901641547e-05 0.0017328053168)
(2.13263499698e-09 4.67025126715e-05 0.00173682983879)
(-4.86758636385e-06 4.62904200217e-05 0.00173280461301)
(-9.58104795877e-06 4.50679411457e-05 0.00172075200561)
(-1.39907179957e-05 4.30752363348e-05 0.00170071519396)
(-1.79662248643e-05 4.03778902176e-05 0.00167279309823)
(-2.13939825928e-05 3.70762332545e-05 0.0016371904936)
(-2.41818305838e-05 3.33420784786e-05 0.00159426415615)
(-2.67088734145e-05 2.90762773976e-05 0.00154434913501)
(2.97867774918e-05 3.22246540673e-05 0.00167474290258)
(2.68800684169e-05 3.66637232579e-05 0.00172395876242)
(2.37033956543e-05 4.04617613892e-05 0.00176572859811)
(1.98416689649e-05 4.37997968711e-05 0.00180003141402)
(1.54095948306e-05 4.65104186418e-05 0.00182671262891)
(1.05324046493e-05 4.85039454048e-05 0.00184573502365)
(5.34650041288e-06 4.97234152738e-05 0.00185712531117)
(2.34696212992e-09 5.01340515992e-05 0.00186091927244)
(-5.34183232614e-06 4.97236985851e-05 0.00185712451553)
(-1.05278172574e-05 4.85044981924e-05 0.00184573336639)
(-1.54051525423e-05 4.651121257e-05 0.00182670995992)
(-1.98374515613e-05 4.38007910793e-05 0.00180002751212)
(-2.36995066155e-05 4.04629048441e-05 0.00176572332376)
(-2.68766088996e-05 3.66650429207e-05 0.00172395348265)
(-2.97840826951e-05 3.22261182472e-05 0.0016747425761)
(3.22257703107e-05 3.46807430917e-05 0.00178799733925)
(2.89702740339e-05 3.91306505647e-05 0.00183528921275)
(2.5453578339e-05 4.28391845259e-05 0.0018748628788)
(2.12336116449e-05 4.60729932348e-05 0.00190702056341)
(1.64431655132e-05 4.8679956101e-05 0.00193180883814)
(1.12148442412e-05 5.05872558418e-05 0.00194935552735)
(5.68555351409e-06 5.17501346988e-05 0.00195980944048)
(2.5469495396e-09 5.21410889895e-05 0.00196328193309)
(-5.6804875612e-06 5.17504425328e-05 0.00195980863493)
(-1.12098650366e-05 5.05878592569e-05 0.00194935382966)
(-1.64383402086e-05 4.8680829446e-05 0.00193180604746)
(-2.1229020555e-05 4.60740968877e-05 0.00190701636293)
(-2.5449320502e-05 4.28404656887e-05 0.00187485699828)
(-2.89664528485e-05 3.9132129814e-05 0.00183528309646)
(-3.2222725051e-05 3.46823752884e-05 0.00178799606955)
(3.399529841e-05 3.64180779284e-05 0.00188515953824)
(3.04320451855e-05 4.07217167474e-05 0.00192959356867)
(2.66327467852e-05 4.42014180083e-05 0.00196623328865)
(2.21384326037e-05 4.72050171294e-05 0.00199567824887)
(1.70937423744e-05 4.96058631436e-05 0.00201815428078)
(1.16335508132e-05 5.13521917958e-05 0.00203393880756)
(5.89019679401e-06 5.2413169607e-05 0.00204329050593)
(2.73489570153e-09 5.27692767955e-05 0.00204638755012)
(-5.88475607748e-06 5.24134962067e-05 0.00204328981537)
(-1.16282000344e-05 5.13528350382e-05 0.00203393732757)
(-1.708855011e-05 4.96068012116e-05 0.00201815177193)
(-2.21334799787e-05 4.72062137033e-05 0.00199567430609)
(-2.66281303113e-05 4.42028208111e-05 0.00196622751106)
(-3.0427872504e-05 4.07233413781e-05 0.00192958751322)
(-3.39919092781e-05 3.64198649853e-05 0.00188515833001)
(3.50914429046e-05 3.74408265678e-05 0.00196744834871)
(3.12690307586e-05 4.14499727842e-05 0.00200838519727)
(2.72511934669e-05 4.45775470543e-05 0.00204165637185)
(2.25708922299e-05 4.72429086572e-05 0.00206808557708)
(1.7377185304e-05 4.93529188599e-05 0.00208804259925)
(1.18015985288e-05 5.08782897412e-05 0.00210193443876)
(5.96774238577e-06 5.18016652036e-05 0.00211011358147)
(2.91110438017e-09 5.21110752787e-05 0.00211281337789)
(-5.96194965848e-06 5.18020017185e-05 0.00211011318031)
(-1.17958969508e-05 5.08789553219e-05 0.0021019335421)
(-1.73716439831e-05 4.9353897326e-05 0.00208804095619)
(-2.2565593001e-05 4.72441693162e-05 0.00206808271519)
(-2.72462320124e-05 4.45790421103e-05 0.00204165175113)
(-3.12645211127e-05 4.14517151513e-05 0.00200838049097)
(-3.50877186236e-05 3.74427451294e-05 0.00196744866714)
(3.55284041046e-05 3.77669676691e-05 0.00203613390771)
(3.15055131304e-05 4.13452488928e-05 0.00207325942324)
(2.73414693968e-05 4.40171891107e-05 0.00210302997631)
(2.25653626703e-05 4.62573799011e-05 0.00212637204907)
(1.73244042659e-05 4.8012850681e-05 0.0021437780253)
(1.17420215001e-05 4.92742070114e-05 0.00215577212961)
(5.93041333967e-06 5.00349927351e-05 0.00216278467045)
(3.07368349152e-09 5.02894988039e-05 0.00216509105701)
(-5.92429596745e-06 5.00353270735e-05 0.00216278478186)
(-1.17359957646e-05 4.92748714494e-05 0.00215577229038)
(-1.73185390424e-05 4.80138355115e-05 0.00214377802388)
(-2.2559740352e-05 4.62586636404e-05 0.00212637139538)
(-2.73361856541e-05 4.40187326951e-05 0.00210302796856)
(-3.15006896905e-05 4.13470676967e-05 0.00207325773598)
(-3.55243641113e-05 3.77689776041e-05 0.00203613753733)
(3.53501264532e-05 3.74215901377e-05 0.00209240478715)
(3.12003568135e-05 4.04933273218e-05 0.00212587181743)
(2.69689512364e-05 4.26086913785e-05 0.00215229108287)
(2.21792224961e-05 4.43543494748e-05 0.00217263570134)
(1.69816117801e-05 4.57085256482e-05 0.00218757647873)
(1.14869393251e-05 4.66755511575e-05 0.00219775468672)
(5.79461528056e-06 4.72564620802e-05 0.00220366037587)
(3.21865341434e-09 4.74504170173e-05 0.00220559538477)
(-5.78820855684e-06 4.72567804345e-05 0.00220366125067)
(-1.1480625714e-05 4.66761867644e-05 0.00219775644544)
(-1.69754596105e-05 4.57094757141e-05 0.00218757903446)
(-2.21733139266e-05 4.43556042935e-05 0.00217263867013)
(-2.69633811212e-05 4.2610228019e-05 0.00215229362715)
(-3.11952530574e-05 4.04951683838e-05 0.00212587523845)
(-3.53457892614e-05 3.74236493295e-05 0.00209241353121)
(3.45986379575e-05 3.69409735567e-05 0.00213735581897)
(3.04379797849e-05 3.91093556765e-05 0.00216823411772)
(2.61979995005e-05 4.05264009058e-05 0.00219143844595)
(2.1466046125e-05 4.16870564736e-05 0.00220888786723)
(1.63912126784e-05 4.25723536101e-05 0.0022214928604)
(1.10654545326e-05 4.3198172303e-05 0.00222998300921)
(5.57514518913e-06 4.35713419256e-05 0.00223487336922)
(3.34155377449e-09 4.36954735185e-05 0.00223647009889)
(-5.56849423777e-06 4.3571624417e-05 0.0022348751951)
(-1.10589000995e-05 4.31987391889e-05 0.00222998677546)
(-1.63848229487e-05 4.25732086575e-05 0.00222149870274)
(-2.14599007638e-05 4.16882028465e-05 0.00220889573808)
(-2.61921891091e-05 4.05278336899e-05 0.00219144755179)
(-3.04326549217e-05 3.91111258798e-05 0.00216824604433)
(-3.45940045974e-05 3.69429746795e-05 0.00213736945924)
(-6.5806747959e-08 -1.33063415996e-07 9.62152559105e-05)
(-1.69395234768e-08 -1.8914485728e-07 0.000100963336144)
(1.65151197331e-08 -2.22436956843e-07 0.000105239061739)
(3.91743627788e-08 -2.40520127226e-07 0.000108931947041)
(4.66873487749e-08 -2.47039291451e-07 0.000111928292882)
(4.03704383687e-08 -2.47192427095e-07 0.000114135810701)
(2.32535750103e-08 -2.45316500983e-07 0.000115489385544)
(1.57000842379e-10 -2.44333530627e-07 0.000115948942573)
(-2.29450532717e-08 -2.45295369763e-07 0.000115489445853)
(-4.00776676815e-08 -2.47150492034e-07 0.000114135931916)
(-4.64165968906e-08 -2.46976520485e-07 0.00011192847862)
(-3.89178251596e-08 -2.40434863938e-07 0.000108932216033)
(-1.62841457163e-08 -2.22345898034e-07 0.00010523947813)
(1.71281225818e-08 -1.89045834762e-07 0.000100964122528)
(6.59369136338e-08 -1.32975172366e-07 9.62171559314e-05)
(5.00294323518e-08 -8.58175269031e-08 0.000287966037503)
(1.64708583756e-07 -1.68422639725e-07 0.000301916591571)
(2.35577156369e-07 -1.99155739909e-07 0.000314500979145)
(2.67957821065e-07 -1.94222099862e-07 0.00032536805463)
(2.53782991042e-07 -1.66664622589e-07 0.000334185383217)
(1.9711362573e-07 -1.32902399137e-07 0.000340682511466)
(1.07751453846e-07 -1.06510813613e-07 0.000344665660281)
(4.6208743276e-10 -9.65908901314e-08 0.000346014276969)
(-1.06840513314e-07 -1.06453981042e-07 0.000344665823487)
(-1.96241002094e-07 -1.32789384512e-07 0.00034068284075)
(-2.52965769127e-07 -1.66496009161e-07 0.000334185892296)
(-2.67192237815e-07 -1.9399731239e-07 0.000325368802985)
(-2.34888176347e-07 -1.98908590629e-07 0.000314502160844)
(-1.64138873573e-07 -1.68149535448e-07 0.000301918865227)
(-4.96321443161e-08 -8.55632644779e-08 0.00028797118536)
(4.39408409071e-07 2.9688065317e-07 0.000477065327995)
(5.89986327409e-07 2.72319605115e-07 0.000499850000806)
(6.65526290893e-07 3.17706410602e-07 0.000520395675451)
(6.69721363504e-07 4.08836955966e-07 0.000538124884384)
(5.92819333003e-07 5.20886271894e-07 0.000552501869975)
(4.42685605479e-07 6.25187943662e-07 0.000563091826246)
(2.36860043666e-07 6.98245327664e-07 0.000569581110142)
(7.51066113457e-10 7.24498969347e-07 0.000571774579202)
(-2.3537620488e-07 6.98328081227e-07 0.000569581339142)
(-4.4125494619e-07 6.25352877012e-07 0.000563092291066)
(-5.91468704617e-07 5.21133518101e-07 0.000552502596405)
(-6.68458867356e-07 4.09165086729e-07 0.000538125969623)
(-6.64390244176e-07 3.18078029599e-07 0.000520397417661)
(-5.89032922e-07 2.72734671649e-07 0.000499853387286)
(-4.38732138348e-07 2.97290156533e-07 0.000477072938226)
(1.17444949342e-06 1.08571218308e-06 0.000662605292991)
(1.33375558588e-06 1.20982410889e-06 0.000693698364916)
(1.37824612115e-06 1.41593599333e-06 0.000721682338123)
(1.3093853724e-06 1.66696953258e-06 0.000745793228117)
(1.11720493357e-06 1.92347498849e-06 0.000765320284755)
(8.1512837307e-07 2.14249298242e-06 0.000779689878949)
(4.30384303855e-07 2.28923795854e-06 0.000788487869259)
(1.02514575297e-09 2.34091563384e-06 0.000791457662232)
(-4.28356216824e-07 2.28934659368e-06 0.000788488108716)
(-8.13165095766e-07 2.14270920627e-06 0.000779690369683)
(-1.11534284794e-06 1.92379792722e-06 0.000765321064897)
(-1.30764745548e-06 1.66739523743e-06 0.000745794424193)
(-1.37668404049e-06 1.41642906294e-06 0.000721684315875)
(-1.33243137356e-06 1.21038225338e-06 0.000693702322622)
(-1.17348962013e-06 1.08628382968e-06 0.000662614331153)
(2.21203889268e-06 2.22075189815e-06 0.000843369012947)
(2.35454410323e-06 2.55936089945e-06 0.000882034071846)
(2.33500198889e-06 2.98721742568e-06 0.000916712086506)
(2.15284146994e-06 3.44994429855e-06 0.000946514205387)
(1.79927493175e-06 3.89186168711e-06 0.000970598785476)
(1.29492340353e-06 4.25501714515e-06 0.000988292606058)
(6.78229305238e-07 4.49310879291e-06 0.000999111910833)
(1.28565049407e-09 4.57608750991e-06 0.00100275924679)
(-6.75683576227e-07 4.49324350511e-06 0.00099911211078)
(-1.29245273445e-06 4.25528468817e-06 0.000988293021917)
(-1.79692462818e-06 3.89225916783e-06 0.00097059946364)
(-2.1506487175e-06 3.45046551852e-06 0.000946515286642)
(-2.33303048335e-06 2.98783020708e-06 0.000916713962931)
(-2.35286076539e-06 2.56006443334e-06 0.000882038073056)
(-2.2107899174e-06 2.221484842e-06 0.000843378608485)
(3.4925399256e-06 3.62568600721e-06 0.00101793554075)
(3.59433252847e-06 4.21779279903e-06 0.00106320856069)