/*--------------------------------*- C++ -*----------------------------------*\
  =========                 |
  \\      /  F ield         | OpenFOAM: The Open Source CFD Toolbox
   \\    /   O peration     | Website:  https://openfoam.org
    \\  /    A nd           | Version:  7
     \\/     M anipulation  |
\*---------------------------------------------------------------------------*/
FoamFile
{
    version     2.0;
    format      ascii;
    class       surfaceScalarField;
    location    "2.46";
    object      phi;
}
// * * * * * * * * * * * * * * * * * * * * * * * * * * * * * * * * * * * * * //

dimensions      [0 3 -1 0 0 0 0];

internalField   nonuniform List<scalar> 
65775
(
-1.57463331367e-11
-7.35764862475e-09
1.95123607247e-10
3.39747938997e-13
-3.16671954052e-11
-7.75727583174e-09
2.23509947362e-10
-3.63661029545e-11
-8.13264300781e-09
2.53332227632e-10
-3.3984136908e-11
-8.45623611067e-09
2.81990126075e-10
-2.76360896751e-11
-8.71761155334e-09
3.07139657282e-10
-1.90404309461e-11
-8.9102940721e-09
3.26744943855e-10
-9.24496950654e-12
-9.03147183527e-09
3.39301062458e-10
1.00494396005e-12
-9.07650334927e-09
3.43740468856e-10
1.09388943374e-11
-9.03146696727e-09
3.39238246906e-10
1.98184738187e-11
-8.91027438999e-09
3.26614722654e-10
2.65791951877e-11
-8.71755471851e-09
3.06937303164e-10
2.94874847582e-11
-8.45612234671e-09
2.81707781573e-10
2.54045548282e-11
-8.1325033935e-09
2.52956837631e-10
1.02340277117e-11
-7.75717501127e-09
2.23021084047e-10
-7.35785728919e-09
1.9450360846e-10
-4.09333468938e-12
-6.40225595879e-11
-1.40311298833e-08
-1.00528247374e-10
-5.69510881863e-13
-1.12391242761e-10
-1.47926027534e-08
-1.25325391694e-10
-1.28648537425e-10
-1.55118859054e-08
-1.45796063144e-10
-1.22553713333e-10
-1.61266378348e-08
-1.62417799338e-10
-1.01117578008e-10
-1.66203603977e-08
-1.75394726227e-10
-6.95841497698e-11
-1.69826824081e-08
-1.84804276187e-10
-3.21810565655e-11
-1.72099028901e-08
-1.90627997683e-10
7.23474741139e-12
-1.72941934567e-08
-1.927368502e-10
4.51543817407e-11
-1.72101411076e-08
-1.90770667998e-10
7.77514418345e-11
-1.69831449781e-08
-1.85109587703e-10
1.0079488607e-10
-1.6620988423e-08
-1.75882507105e-10
1.08975362532e-10
-1.61273233411e-08
-1.63119584009e-10
9.51805857973e-11
-1.55125817633e-08
-1.46760317694e-10
4.96248135325e-11
-1.47934078482e-08
-1.26621071294e-10
-1.40323485118e-08
-1.02208748685e-10
-1.18434361104e-11
-1.30488429944e-10
-1.95510592561e-08
-8.48923968574e-10
3.53502553525e-13
-2.11389064059e-10
-2.05868723258e-08
-9.92729459369e-10
-2.41690495886e-10
-2.15520918055e-08
-1.12755484492e-09
-2.32362023021e-10
-2.23693041459e-08
-1.24781646827e-09
-1.92563633966e-10
-2.30209609948e-08
-1.34816498554e-09
-1.30843836882e-10
-2.34965891662e-08
-1.42394204817e-09
-5.58136576285e-11
-2.37940014098e-08
-1.47168779106e-09
2.36339397958e-11
-2.39043453988e-08
-1.48866661105e-09
9.91694790661e-11
-2.37943988502e-08
-1.47193117406e-09
1.6193278803e-10
-2.34973637734e-08
-1.42445252362e-09
2.03324365337e-10
-2.30220380692e-08
-1.34896544701e-09
2.14788341558e-10
-2.23705633164e-08
-1.24894343626e-09
1.87143520811e-10
-2.15534571333e-08
-1.12906769064e-09
1.09530503044e-10
-2.05885277837e-08
-9.94720663836e-10
-1.95532922277e-08
-8.51474089512e-10
-1.66714495404e-11
-2.04188486159e-10
-2.36996227492e-08
-1.80725400824e-09
5.92455758799e-13
-3.2171185083e-10
-2.4908270882e-08
-2.08802920683e-09
-3.69464167448e-10
-2.60081358719e-08
-2.35123649821e-09
-3.57962412097e-10
-2.6931093003e-08
-2.58545645262e-09
-2.97828141918e-10
-2.7662275182e-08
-2.78014141206e-09
-2.00914368456e-10
-2.81936463534e-08
-2.92652001888e-09
-8.11212521202e-11
-2.85253044715e-08
-3.01840400011e-09
4.62544696037e-11
-2.86485360351e-08
-3.0509571639e-09
1.66497707644e-10
-2.85257701797e-08
-3.01868407046e-09
2.64349743344e-10
-2.81945616997e-08
-2.92710722923e-09
3.25943047932e-10
-2.76635590853e-08
-2.78106460596e-09
3.3945993034e-10
-2.69326323432e-08
-2.58676058873e-09
2.94310071381e-10
-2.60098694525e-08
-2.35299297791e-09
1.80112180307e-10
-2.49104831382e-08
-2.09035190678e-09
-2.37026630924e-08
-1.81025591187e-09
-1.93382415079e-11
-2.77411153443e-10
-2.64652529017e-08
-2.77729298286e-09
5.18513408129e-13
-4.35235579653e-10
-2.77566172177e-08
-3.17970471585e-09
-5.02215685904e-10
-2.89001352117e-08
-3.55286914104e-09
-4.88822567803e-10
-2.98526713997e-08
-3.88202860214e-09
-4.07341451065e-10
-3.06038032018e-08
-4.15355043416e-09
-2.73274616248e-10
-3.1148425575e-08
-4.35643668034e-09
-1.06183932358e-10
-3.14881743317e-08
-4.48324391083e-09
7.1853932058e-11
-3.16146500692e-08
-4.52806745734e-09
2.3932320135e-10
-3.14886588596e-08
-4.4835250828e-09
3.74187634199e-10
-3.11493830696e-08
-4.35702682178e-09
4.56930250847e-10
-3.06051659701e-08
-4.15448197698e-09
4.7210546944e-10
-2.98543515002e-08
-3.88335137444e-09
4.07486366298e-10
-2.89021020577e-08
-3.55466048781e-09
2.52722045637e-10
-2.77591802004e-08
-3.1820904634e-09
-2.64688443828e-08
-2.780412242e-09
-2.02145143543e-11
-3.44919418477e-10
-2.79759369197e-08
-3.62496801564e-09
3.35102957384e-13
-5.44811848814e-10
-2.92807368176e-08
-4.12089331425e-09
-6.31345322066e-10
-3.04067018571e-08
-4.57570606504e-09
-6.16071252168e-10
-3.13390604704e-08
-4.97367127383e-09
-5.13447090605e-10
-3.20725045525e-08
-5.29987005598e-09
-3.42983882839e-10
-3.26041414062e-08
-5.54242983176e-09
-1.298554512e-10
-3.29359461473e-08
-5.6935350938e-09
9.74101680161e-11
-3.30596083988e-08
-5.74685211285e-09
3.10866524135e-10
-3.29364097002e-08
-5.6938080917e-09
4.82021317112e-10
-3.26050664234e-08
-5.54300147159e-09
5.85748440657e-10
-3.20738363902e-08
-5.30077169822e-09
6.0259457788e-10
-3.13407364703e-08
-4.97495063014e-09
5.18168946278e-10
-3.04087195842e-08
-4.57743640123e-09
3.21006334295e-10
-2.92834227419e-08
-4.12319899744e-09
-2.79798457306e-08
-3.62800306046e-09
-1.99815489327e-11
-4.05079989473e-10
-2.84217735458e-08
-4.28989838992e-09
1.54046857899e-13
-6.46728222653e-10
-2.9689514305e-08
-4.85345362409e-09
-7.52306724838e-10
-3.07607086461e-08
-5.36609151843e-09
-7.35252716434e-10
-3.16431795998e-08
-5.81223048683e-09
-6.12546247074e-10
-3.23369960377e-08
-6.1764662592e-09
-4.07889645707e-10
-3.28404634731e-08
-6.44651866956e-09
-1.51799497509e-10
-3.31549561347e-08
-6.61438655054e-09
1.2131355928e-10
-3.32721453568e-08
-6.67350114151e-09
3.77710106155e-10
-3.31554048724e-08
-6.61464770749e-09
5.83010498262e-10
-3.28413632247e-08
-6.44706902143e-09
7.0673891079e-10
-3.23383063218e-08
-6.17733350971e-09
7.25241033292e-10
-3.16448605326e-08
-5.81345397675e-09
6.21592308359e-10
-3.07627771364e-08
-5.36773381557e-09
3.82415255453e-10
-2.96922671092e-08
-4.85563251477e-09
-2.84258440576e-08
-4.29276660095e-09
-1.92655070023e-11
-4.58938702996e-10
-2.8000544819e-08
-4.76339666026e-09
3.38434669902e-14
-7.40712483089e-10
-2.91944188321e-08
-5.3762235226e-09
-8.64643148619e-10
-3.01884047801e-08
-5.93098604553e-09
-8.4606838112e-10
-3.10032116731e-08
-6.4124025861e-09
-7.04594698441e-10
-3.16443899079e-08
-6.80467319244e-09
-4.68137604463e-10
-3.21105476962e-08
-7.0950878224e-09
-1.72269708876e-10
-3.24019350863e-08
-7.27534379405e-09
1.43231145963e-10
-3.2510309726e-08
-7.33865934809e-09
4.39408144119e-10
-3.24023749217e-08
-7.27560765948e-09
6.76509879686e-10
-3.21114329382e-08
-7.09564237279e-09
8.18993085895e-10
-3.16456945946e-08
-6.80553689931e-09
8.3897824939e-10
-3.10049119935e-08
-6.41360258236e-09
7.16896121765e-10
-3.01905333147e-08
-5.93256826319e-09
4.37450696633e-10
-2.91972376844e-08
-5.37829040587e-09
-2.80047305704e-08
-4.76608952408e-09
-1.84819496432e-11
-5.08682371047e-10
-2.68914688764e-08
-5.06189260884e-09
-1.8550453771e-14
-8.2859371376e-10
-2.79840078621e-08
-5.71240459331e-09
-9.70404444161e-10
-2.88862525555e-08
-6.29986546172e-09
-9.5061641252e-10
-2.96223653577e-08
-6.80903255129e-09
-7.91448764974e-10
-3.02028971101e-08
-7.22357888683e-09
-5.25022268208e-10
-3.06259421579e-08
-7.53026554273e-09
-1.91771195044e-10
-3.08904019188e-08
-7.72037541801e-09
1.63526599089e-10
-3.09883885432e-08
-7.78693316423e-09
4.97105310527e-10
-3.08908511995e-08
-7.72065078263e-09
7.6420880602e-10
-3.06268501733e-08
-7.53083816747e-09
9.24421132526e-10
-3.02042538097e-08
-7.22445858974e-09
9.456433406e-10
-2.96241600231e-08
-6.81023259773e-09
8.05676464097e-10
-2.8888523122e-08
-6.30141311461e-09
4.88045224683e-10
-2.79869798131e-08
-5.71438494176e-09
-2.68957753317e-08
-5.0644299097e-09
-1.78433151494e-11
-5.56505406883e-10
-2.52482108602e-08
-5.20867987432e-09
-3.68598333739e-15
-9.13048695403e-10
-2.62189092019e-08
-5.88947927122e-09
-1.07268723087e-09
-2.70194225221e-08
-6.50364678737e-09
-1.05187367425e-09
-2.76704452242e-08
-7.03569339619e-09
-8.75531075826e-10
-2.81858316614e-08
-7.46867180644e-09
-5.80107365663e-10
-2.85623126449e-08
-7.78881256199e-09
-2.10827839972e-10
-2.87974449049e-08
-7.98697685243e-09
1.82780411374e-10
-2.88840308507e-08
-8.05607210233e-09
5.52415589606e-10
-2.87979220371e-08
-7.98726793544e-09
8.48566450919e-10
-2.85632836307e-08
-7.78941174178e-09
1.02601851691e-09
-2.81872967674e-08
-7.46958028128e-09
1.04833040478e-09
-2.76724118231e-08
-7.03691044953e-09
8.90582658536e-10
-2.70219300438e-08
-6.5051808383e-09
5.3634284137e-10
-2.62221521753e-08
-5.89139839488e-09
-2.52527425334e-08
-5.21108843983e-09
-1.74271861165e-11
-6.04149415539e-10
-2.32013919962e-08
-5.2251023562e-09
5.64287842987e-14
-9.96975739753e-10
-2.40352291689e-08
-5.9308030627e-09
-1.17484221099e-09
-2.47277918663e-08
-6.56715094668e-09
-1.15283504732e-09
-2.52917881106e-08
-7.11818689084e-09
-9.59090482146e-10
-2.5740822403e-08
-7.56635464149e-09
-6.34763344297e-10
-2.60694573706e-08
-7.89747435364e-09
-2.2986161412e-10
-2.62741516438e-08
-8.10207568456e-09
2.01531259125e-10
-2.63488562956e-08
-8.17307211833e-09
6.06821498488e-10
-2.62746813015e-08
-8.10238393434e-09
9.31939256477e-10
-2.60705376041e-08
-7.8981034293e-09
1.12687464758e-09
-2.57424709118e-08
-7.56729789973e-09
1.15047108558e-09
-2.52940192416e-08
-7.11943044907e-09
9.74575663529e-10
-2.47306501964e-08
-6.56868495682e-09
5.84116729756e-10
-2.40388776707e-08
-5.93267943253e-09
-2.32062647543e-08
-5.22740534263e-09
-1.72372629931e-11
-6.52886879207e-10
-2.08635958497e-08
-5.12786532188e-09
1.50550681294e-13
-1.08356260564e-09
-2.15496233245e-08
-5.85390380765e-09
-1.2801988247e-09
-2.21330033341e-08
-6.50847794989e-09
-1.25600529141e-09
-2.26131734006e-08
-7.07489559161e-09
-1.04375414774e-09
-2.29979144689e-08
-7.53511068375e-09
-6.89879686272e-10
-2.32793803662e-08
-7.874756819e-09
-2.49127532637e-10
-2.34537488393e-08
-8.0841837594e-09
2.20147653865e-10
-2.35165606443e-08
-8.15645470211e-09
6.61326540622e-10
-2.34543605474e-08
-8.08450840278e-09
1.01606196919e-09
-2.3280630846e-08
-7.87541500166e-09
1.2296031439e-09
-2.2999823481e-08
-7.53608933189e-09
1.25549534668e-09
-2.26157747154e-08
-7.07616920427e-09
1.06093838244e-09
-2.2136340001e-08
-6.51001896753e-09
6.32725768909e-10
-2.15538336657e-08
-5.85574726022e-09
-2.08689711297e-08
-5.13007688224e-09
-1.72339519049e-11
-7.0525925601e-10
-1.83326503589e-08
-4.92920964235e-09
2.58938107941e-13
-1.17776589574e-09
-1.88635471723e-08
-5.67158115742e-09
-1.39197396126e-09
-1.93452530213e-08
-6.34081699947e-09
-1.36273401979e-09
-1.9749966868e-08
-6.91910674694e-09
-1.12991956783e-09
-2.00747940196e-08
-7.38822050072e-09
-7.45535817489e-10
-2.03111949568e-08
-7.73392274724e-09
-2.68592071574e-10
-2.04562834977e-08
-7.94656037336e-09
2.38691282655e-10
-2.05076508473e-08
-8.01948656974e-09
7.16103466366e-10
-2.04570137749e-08
-7.94689864838e-09
1.101432906e-09
-2.03126791558e-08
-7.73460556857e-09
1.33564590597e-09
-2.00770673567e-08
-7.38923041807e-09
1.36671456143e-09
-1.97530573719e-08
-6.92040921321e-09
1.15471649694e-09
-1.93492061985e-08
-6.34236736716e-09
6.84796381463e-10
-1.88684909461e-08
-5.67339283976e-09
-1.83387294259e-08
-4.93132780388e-09
-1.73180074113e-11
-7.72438787811e-10
-1.5686348242e-08
-4.63795571015e-09
3.92043221341e-13
-1.28888194791e-09
-1.60702840774e-08
-5.39386832302e-09
-1.51300998895e-09
-1.6470753934e-08
-6.0745894455e-09
-1.47302657982e-09
-1.68099603969e-08
-6.66123342779e-09
-1.21703606373e-09
-1.7079363449e-08
-7.13608235541e-09
-8.01294427652e-10
-1.72734134833e-08
-7.48539144684e-09
-2.88105909655e-10
-1.7391143507e-08
-7.69965825657e-09
2.57089644661e-10
-1.74318739683e-08
-7.77264094384e-09
7.70796667332e-10
-1.73920327486e-08
-7.70000510002e-09
1.18757025144e-09
-1.72752169558e-08
-7.48609003997e-09
1.44508991949e-09
-1.7082104427e-08
-7.13711347614e-09
1.48704888376e-09
-1.68136733014e-08
-6.66255782008e-09
1.26527435407e-09
-1.64754804138e-08
-6.0761480677e-09
7.51554935095e-10
-1.60761487313e-08
-5.39564470623e-09
-1.56933576419e-08
-4.63995894976e-09
-1.7519214411e-11
-8.88197733945e-10
-4.25933238413e-09
5.15062132025e-13
-1.29634830046e-08
-1.43183611712e-09
-5.02919954464e-09
-1.32735385722e-08
-1.6534073601e-09
-5.71797899387e-09
-1.36123936441e-08
-1.59711712776e-09
-6.30957899131e-09
-1.38924933681e-08
-1.31461320666e-09
-6.78737289894e-09
-1.41115094641e-08
-8.63888337476e-10
-7.13823865378e-09
-1.42683344397e-08
-3.10033674589e-10
-7.35284065957e-09
-1.43626264699e-08
2.77773078711e-10
-7.42538906344e-09
-1.43943831852e-08
8.32192220373e-10
-7.35318717999e-09
-1.43637188581e-08
1.28404396821e-09
-7.1389361908e-09
-1.4270544855e-08
1.56820641166e-09
-6.78840254197e-09
-1.41148579132e-08
1.62663149135e-09
-6.31090241124e-09
-1.3897001133e-08
1.40759958965e-09
-5.71952935537e-09
-1.36180810681e-08
8.66841326561e-10
-5.03095231758e-09
-1.32805149905e-08
-4.26114804684e-09
-1.77540538514e-11
-1.29717363472e-08
-2.31340560022e-11
7.98124584798e-10
-5.79863604238e-10
-5.27552800981e-13
-3.84772843301e-11
8.81609112318e-10
-6.4360907121e-10
-4.51730624979e-11
9.62125310191e-10
-7.03066715326e-10
-4.4652077504e-11
1.03656844535e-09
-7.55990296347e-10
-3.73338750461e-11
1.09912502002e-09
-7.99984209542e-10
-2.45613296135e-11
1.14656753838e-09
-8.33060978869e-10
-8.21867208661e-12
1.17657062605e-09
-8.53916647261e-10
9.37677549915e-12
1.18735857932e-09
-8.61428821237e-10
2.57169347452e-11
1.17667501571e-09
-8.53943263725e-10
3.85073913619e-11
1.1467940757e-09
-8.33112568047e-10
4.59031423244e-11
1.09947244232e-09
-8.00057669179e-10
4.65696173054e-11
1.03700273219e-09
-7.56082663539e-10
4.00320249606e-11
9.62557731319e-10
-7.03177633231e-10
2.47274218456e-11
8.81962458861e-10
-6.43747848475e-10
7.98377054468e-10
-5.80066096632e-10
8.1676528426e-13
-4.28152031887e-11
2.21927868512e-09
-1.48005086539e-09
2.75552585091e-13
-7.04875585025e-11
2.42034067972e-09
-1.63781618234e-09
-8.31268697842e-11
2.6111863925e-09
-1.78382893466e-09
-8.17256793127e-11
2.78418253185e-09
-1.91287856573e-09
-6.77515941798e-11
2.92823336864e-09
-2.01956602138e-09
-4.38077972161e-11
3.03654140714e-09
-2.09946438053e-09
-1.34155396707e-11
3.10478100255e-09
-2.14972565151e-09
1.92208142104e-11
3.12944594949e-09
-2.16781874131e-09
4.94766656139e-11
3.10519421316e-09
-2.14982511947e-09
7.31522911596e-11
3.03742314998e-09
-2.09965387673e-09
8.67465952771e-11
2.9296128847e-09
-2.01983268436e-09
8.77110854463e-11
2.78592354838e-09
-1.91320748377e-09
7.45491897547e-11
2.61297742235e-09
-1.78421025128e-09
4.62070037173e-11
2.4217693462e-09
-1.63826614983e-09
2.22010971866e-09
-1.48064371712e-09
2.74067207401e-12
-4.25253156614e-11
3.64173753517e-09
-2.22880741898e-09
-9.04599088442e-13
-7.06543676617e-11
3.92169755129e-09
-2.46714290755e-09
-8.45853414075e-11
4.18321503077e-09
-2.68695052549e-09
-8.37359181584e-11
4.41496335592e-09
-2.88060677946e-09
-6.96583751784e-11
4.60538620707e-09
-3.04029171932e-09
-4.50291731209e-11
4.74697435389e-09
-3.15963549476e-09
-1.35632565556e-11
4.83574601552e-09
-3.23455020135e-09
2.03492797503e-11
4.86797465552e-09
-3.26141823144e-09
5.17731995046e-11
4.83625188325e-09
-3.23465398592e-09
7.63407381616e-11
4.7480350225e-09
-3.15983762674e-09
9.03725801324e-11
4.607013108e-09
-3.04058285755e-09
9.11810942786e-11
4.41697545188e-09
-2.88097880996e-09
7.70791754448e-11
4.18525093393e-09
-2.68740448251e-09
4.83907339254e-11
3.923295128e-09
-2.46771461737e-09
3.64265064382e-09
-2.22960382972e-09
3.83940473056e-12
-3.15829147871e-11
4.74315532806e-09
-2.87634212216e-09
-1.53606072358e-12
-5.30200611326e-11
5.04225628093e-09
-3.18827285944e-09
-6.48767932008e-11
5.31785651781e-09
-3.47525091832e-09
-6.50518240758e-11
5.556127862e-09
-3.72753419425e-09
-5.43692996205e-11
5.74890611663e-09
-3.93518049804e-09
-3.48749939726e-11
5.89050799101e-09
-4.09013635969e-09
-9.59541410383e-12
5.97887939276e-09
-4.18722871012e-09
1.78241910566e-11
6.01122733451e-09
-4.22192813733e-09
4.31071751628e-11
5.97938652027e-09
-4.1873389151e-09
6.26274721521e-11
5.89156083373e-09
-4.09035361438e-09
7.33850553085e-11
5.75050564879e-09
-3.93549752323e-09
7.32849855631e-11
5.55809080883e-09
-3.72794681422e-09
6.13228937052e-11
5.31982434344e-09
-3.47576613692e-09
3.92785645763e-11
5.04377552934e-09
-3.1889357187e-09
4.7439506018e-09
-2.87727372673e-09
4.85768619548e-12
-1.51010238421e-11
5.40488459964e-09
-3.4227150271e-09
-1.92565859797e-12
-2.7428009926e-11
5.67522935905e-09
-3.80126629255e-09
-3.6132475419e-11
5.92156329302e-09
-4.14883038929e-09
-3.78276348958e-11
6.12879537209e-09
-4.45385335433e-09
-3.21910718893e-11
6.29360855038e-09
-4.70455381703e-09
-2.02954643445e-11
6.41310506982e-09
-4.89141895863e-09
-4.13511181931e-12
6.48744291589e-09
-5.00831469749e-09
1.36877069931e-11
6.51502457455e-09
-5.04994593613e-09
2.98816167576e-11
6.48790065924e-09
-5.00843448306e-09
4.18528198605e-11
6.41404638246e-09
-4.89165632524e-09
4.76101598036e-11
6.29501179033e-09
-4.70490160185e-09
4.60083763681e-11
6.13050186917e-09
-4.45430783714e-09
3.71698342458e-11
5.92326396276e-09
-4.14939915214e-09
2.41590817384e-11
5.67656289155e-09
-3.80199605797e-09
5.40559454468e-09
-3.42372865008e-09
5.72033503364e-12
3.26964592615e-12
5.64804296274e-09
-3.86987494084e-09
-2.16645743604e-12
5.05971995389e-14
5.86527375202e-09
-4.30854552901e-09
-5.41868905569e-12
6.06110824693e-09
-4.71065974941e-09
-8.82185546265e-12
6.22084845568e-09
-5.06309721289e-09
-8.63810123238e-12
6.34541086494e-09
-5.35246778059e-09
-4.89040051629e-12
6.43444330384e-09
-5.56796550006e-09
1.5158913543e-12
6.48974720587e-09
-5.70257333706e-09
9.07172907526e-12
6.51071078237e-09
-5.75034111183e-09
1.553267306e-11
6.49014292227e-09
-5.70270642827e-09
1.93822395872e-11
6.4352570252e-09
-5.56822933956e-09
1.96993061726e-11
6.34662397974e-09
-5.35285338221e-09
1.63705372549e-11
6.22233476119e-09
-5.06359795744e-09
1.07198434433e-11
6.06262395488e-09
-4.7112796621e-09
6.76406433659e-12
5.8665305706e-09
-4.30933021791e-09
5.64877275485e-09
-3.8709381644e-09
6.40282789665e-12
2.11512493573e-11
5.55990519063e-09
-4.22118629296e-09
-2.30696601192e-12
2.62320212139e-11
5.72012805383e-09
-4.71405716599e-09
2.38314928932e-11
5.86200447775e-09
-5.16527177721e-09
1.88417709698e-11
5.97335275169e-09
-5.56034664401e-09
1.38381046934e-11
6.05793286562e-09
-5.88447067484e-09
9.78192531236e-12
6.11728952388e-09
-6.12567876932e-09
6.81612783053e-12
6.15417778251e-09
-6.27613205311e-09
4.4914815249e-12
6.16864609629e-09
-6.32932538728e-09
1.59507347e-12
6.15450858168e-09
-6.27628958612e-09
-2.34682483344e-12
6.11796762273e-09
-6.12598447117e-09
-7.22484442694e-12
6.05894445212e-09
-5.88491067849e-09
-1.21748718937e-11
5.97461376173e-09
-5.56090866769e-09
-1.48049915115e-11
5.86335606835e-09
-5.16595126251e-09
-1.04892598734e-11
5.72136626039e-09
-4.71489173039e-09
5.56080229949e-09
-4.22227856368e-09
6.90228220084e-12
3.72073042845e-11
5.24144703814e-09
-4.48027082255e-09
-2.3707144841e-12
4.97327130214e-11
5.35260019047e-09
-5.02179606343e-09
5.02422154997e-11
5.44687755322e-09
-5.51695938788e-09
4.39627570756e-11
5.51681198345e-09
-5.95011179561e-09
3.43183792826e-11
5.56769274909e-09
-6.30521869473e-09
2.31525025307e-11
5.60233941939e-09
-6.56930586153e-09
1.15867462257e-11
5.62393334531e-09
-6.73379076865e-09
1.69645914342e-13
5.63291970182e-09
-6.79171517978e-09
-1.13217275865e-11
5.62419980669e-09
-6.73396930308e-09
-2.23762790748e-11
5.60288933178e-09
-6.56964859175e-09
-3.19176609857e-11
5.56852945673e-09
-6.30570860004e-09
-3.81974717109e-11
5.51790060499e-09
-5.95072890847e-09
-3.79596023008e-11
5.44812862584e-09
-5.51768908423e-09
-2.61989971453e-11
5.35388732967e-09
-5.02266860022e-09
5.24256566079e-09
-4.48137955486e-09
7.22852974378e-12
5.07996433745e-11
4.78082923613e-09
-4.65013566151e-09
-2.38770733444e-12
7.00722118075e-11
4.85525888766e-09
-5.23480120348e-09
7.33899501739e-11
4.91196380424e-09
-5.76873321473e-09
6.61905070591e-11
4.94990812496e-09
-6.23534164424e-09
5.25386194512e-11
4.97499801059e-09
-6.61757527533e-09
3.50665741074e-11
4.99088915812e-09
-6.90162107443e-09
1.57968803231e-11
5.00086418237e-09
-7.07825584545e-09
-3.79492576867e-12
5.00559342501e-09
-7.14019234347e-09
-2.29946783803e-11
5.00106093618e-09
-7.07845536848e-09
-4.03714689609e-11
4.99130529334e-09
-6.90200362406e-09
-5.39548483373e-11
4.97565727756e-09
-6.61811836504e-09
-6.12029285654e-11
4.95082541314e-09
-6.2360164921e-09
-5.81939409677e-11
4.91312383785e-09
-5.76951388394e-09
-3.96776083295e-11
4.8566057243e-09
-5.23571018173e-09
4.78222959342e-09
-4.65125617816e-09
7.40961566028e-12
6.17964311298e-11
4.2452869869e-09
-4.73293615964e-09
-2.36895375288e-12
8.72176181638e-11
4.29502654751e-09
-5.35504563088e-09
9.32721749218e-11
4.32427398446e-09
-5.92239127326e-09
8.5526314177e-11
4.33928934409e-09
-6.41767153529e-09
6.8502222601e-11
4.34608171813e-09
-6.82302458056e-09
4.55356741289e-11
4.3487888237e-09
-7.12398335103e-09
1.94691380924e-11
4.35056308039e-09
-7.31080534473e-09
-7.36054209368e-12
4.35220593273e-09
-7.37601060052e-09
-3.3369423102e-11
4.35069706684e-09
-7.31102659775e-09
-5.62691189574e-11
4.34908620187e-09
-7.1244070861e-09
-7.32686993127e-11
4.34659328179e-09
-6.8236226519e-09
-8.1115266439e-11
4.34006902087e-09
-6.41840595351e-09
-7.54053683392e-11
4.32536731297e-09
-5.92322440573e-09
-5.07212128319e-11
4.29643819782e-09
-5.35599256566e-09
4.24693970213e-09
-4.73406846289e-09
7.46801319037e-12
7.03681319895e-11
3.68199029435e-09
-4.73017057935e-09
-2.33881686729e-12
1.01374103109e-10
3.71671468528e-09
-5.38380507745e-09
1.1011811898e-10
3.72717643722e-09
-5.97909713472e-09
1.02184173233e-10
3.72695519564e-09
-6.49819160996e-09
8.23868435079e-11
3.72188307332e-09
-6.92258990886e-09
5.46785699682e-11
3.71618065293e-09
-7.23735960149e-09
2.26638883297e-11
3.71270929431e-09
-7.43237120002e-09
-1.05318734145e-11
3.71228272996e-09
-7.50009247764e-09
-4.25086000644e-11
3.712789131e-09
-7.43261423978e-09
-7.01864785041e-11
3.71638054373e-09
-7.2378248801e-09
-9.00135844529e-11
3.72227035753e-09
-6.92324399493e-09
-9.81040718798e-11
3.72762755154e-09
-6.49898757255e-09
-8.97411577177e-11
3.72822559326e-09
-5.97998568621e-09
-5.94573137454e-11
3.71819467582e-09
-5.38479436863e-09
3.68390071068e-09
-4.73131896709e-09
7.4344002108e-12
7.68237708816e-11
3.12234561061e-09
-4.64301851453e-09
-2.2977345785e-12
1.12920968022e-10
3.14864694009e-09
-5.32217357849e-09
1.24385755193e-10
3.14705992071e-09
-5.94006113328e-09
1.16606137381e-10
3.13785161606e-09
-6.47822560877e-09
9.4542233923e-11
3.12631322624e-09
-6.91766614753e-09
6.27285543797e-11
3.1162813072e-09
-7.24318875736e-09
2.54690478951e-11
3.11006990596e-09
-7.444421106e-09
-1.33591665411e-11
3.10847382433e-09
-7.51391895356e-09
-5.06051397089e-11
3.11011211013e-09
-7.44468535481e-09
-8.24356098467e-11
3.116411531e-09
-7.24369505938e-09
-1.04586447611e-10
3.12662485372e-09
-6.91837684713e-09
-1.12582726063e-10
3.13846180945e-09
-6.4790857904e-09
-1.01537236452e-10
3.14809909203e-09
-5.94100987126e-09
-6.61479338893e-11
3.15020843542e-09
-5.32321147884e-09
3.12447814951e-09
-4.6441901826e-09
7.3254508976e-12
8.15638023391e-11
2.5862045286e-09
-4.47262257593e-09
-2.26421487237e-12
1.22628104652e-10
2.60740053599e-09
-5.17159794008e-09
1.37030180605e-10
2.59883414138e-09
-5.80718341222e-09
1.29655138718e-10
2.58590493753e-09
-6.35994908557e-09
1.0563100988e-10
2.57257867046e-09
-6.81059190019e-09
7.00779168476e-11
2.56169964099e-09
-7.14392017488e-09
2.803328096e-11
2.55494940428e-09
-7.34947776601e-09
-1.59687265367e-11
2.55293620434e-09
-7.4200425749e-09
-5.80305684073e-11
2.55497709023e-09
-7.34976169061e-09
-9.36488531344e-11
2.56180952527e-09
-7.14446550176e-09
-1.17827276065e-10
2.57286344735e-09
-6.81135870248e-09
-1.25479267714e-10
2.58651148966e-09
-6.36087652275e-09
-1.1153462472e-10
2.59992203826e-09
-5.80819872399e-09
-7.1177463058e-11
2.60908857949e-09
-5.17269007456e-09
2.58859227669e-09
-4.47382084121e-09
7.15299711001e-12
8.53633953362e-11
2.08515518433e-09
-4.22024628611e-09
-2.23100921095e-12
1.32193214502e-10
2.10118406116e-09
-4.93463486305e-09
1.49920000656e-10
2.09010566765e-09
-5.58372515877e-09
1.42874393685e-10
2.07841743097e-09
-6.14684028766e-09
1.16735543251e-10
2.06747794131e-09
-6.60496941747e-09
7.74043723512e-11
2.05881929571e-09
-6.94326341469e-09
3.05620931615e-11
2.05336824432e-09
-7.1513326567e-09
-1.855646965e-11
2.05164520213e-09
-7.22228972083e-09
-6.54473227875e-11
2.05341582393e-09
-7.15163288798e-09
-1.04905043734e-10
2.05896768208e-09
-6.94384245314e-09
-1.31259750465e-10
2.06782636251e-09
-6.60578806701e-09
-1.3863858053e-10
2.07910668969e-09
-6.14783605548e-09
-1.21404694542e-10
2.09129797862e-09
-5.58481490853e-09
-7.52788959046e-11
2.10305520676e-09
-4.93578535621e-09
2.08785065495e-09
-4.22146220372e-09
6.91968607313e-12
8.54442309559e-11
-3.88947604753e-09
-2.21218403275e-12
1.63189103314e-09
1.43149854069e-10
-4.61834829844e-09
1.63250083125e-09
1.64825800498e-10
-5.27598854697e-09
1.62630647338e-09
1.57807669307e-10
-5.84452656623e-09
1.62028093773e-09
1.29157542616e-10
-6.30600669046e-09
1.61465995938e-09
8.55501153101e-11
-6.64618672176e-09
1.61027388559e-09
3.33850336672e-11
-6.85483435141e-09
1.60745537272e-09
-2.14561353238e-11
-6.92547711206e-09
1.60649692993e-09
-7.36999201097e-11
-6.85514319372e-09
1.60756911414e-09
-1.17487449035e-10
-6.6467854347e-09
1.6105383446e-09
-1.46418863672e-10
-6.30686011701e-09
1.61516183496e-09
-1.53830361516e-10
-5.84557756222e-09
1.62114029009e-09
-1.32662595714e-10
-5.27714928258e-09
1.62770047084e-09
-7.56441104969e-11
-4.61957894738e-09
1.63461620425e-09
-3.89065041317e-09
6.63147129917e-12
1.63503506325e-09
1.41355057356e-11
-1.79291673292e-10
-4.15007101872e-10
-1.2196560808e-13
2.22442621643e-11
-1.99536442526e-10
-4.52727819937e-10
2.58730648356e-11
-2.20515158592e-10
-4.86792286266e-10
2.53810235627e-11
-2.39631539069e-10
-5.16410085087e-10
2.11655738145e-11
-2.55693795944e-10
-5.40582875684e-10
1.39850817494e-11
-2.67796671454e-10
-5.58513392216e-10
4.87824076302e-12
-2.75381001188e-10
-5.69742931977e-10
-4.91395995055e-12
-2.78038099473e-10
-5.73814551416e-10
-1.40003175516e-11
-2.75253258555e-10
-5.69754100564e-10
-2.11428419828e-11
-2.67547843757e-10
-5.58536642924e-10
-2.53255847239e-11
-2.55348400613e-10
-5.40619623323e-10
-2.58126088767e-11
-2.39217243067e-10
-5.16462867134e-10
-2.21770685935e-11
-2.20024256969e-10
-4.86866411554e-10
-1.40743077059e-11
-1.99086554093e-10
-4.52838395315e-10
-1.78994905106e-10
-4.151954592e-10
-1.98299458395e-14
3.28349622302e-11
-3.93167314856e-10
-1.29836722821e-09
-1.35986106922e-12
5.24075603224e-11
-4.32207586733e-10
-1.42568747386e-09
6.11555537563e-11
-4.72087909774e-10
-1.54205859494e-09
5.98958443469e-11
-5.0816649604e-10
-1.64404021179e-09
4.97219979657e-11
-5.38126288417e-10
-1.72780338964e-09
3.25126714233e-11
-5.60508878261e-10
-1.79022679385e-09
1.07553435701e-11
-5.74482431682e-10
-1.82936433631e-09
-1.25937905257e-11
-5.79411104163e-10
-1.84344515155e-09
-3.42282016971e-11
-5.74306315647e-10
-1.82938416012e-09
-5.11655322892e-11
-5.60181601879e-10
-1.79027160214e-09
-6.09245468837e-11
-5.37699265654e-10
-1.72787930054e-09
-6.16680144132e-11
-5.07663480931e-10
-1.64415775783e-09
-5.2308459403e-11
-4.71486211508e-10
-1.54223712774e-09
-3.21656324862e-11
-4.31642320374e-10
-1.42597314912e-09
-3.92784578409e-10
-1.29885651458e-09
-2.73131980682e-13
4.24703462991e-11
-5.56907069197e-10
-2.10706345135e-09
-1.08878229261e-12
6.95208626899e-11
-6.06177017174e-10
-2.32096444411e-09
8.20697114007e-11
-6.55576447414e-10
-2.51678670761e-09
8.08553788853e-11
-6.99836866741e-10
-2.68847198439e-09
6.74095698472e-11
-7.36132009556e-10
-2.82952121515e-09
4.43226265534e-11
-7.62971124555e-10
-2.93464841664e-09
1.50151389943e-11
-7.79629379704e-10
-3.00051221293e-09
-1.64735147902e-11
-7.85508424208e-10
-3.02412814525e-09
-4.56762947479e-11
-7.79400022352e-10
-3.00057075152e-09
-6.8548549616e-11
-7.62543683055e-10
-2.9347684703e-09
-8.16931578777e-11
-7.35569932767e-10
-2.82970577908e-09
-8.25499498788e-11
-6.99181426932e-10
-2.68872859307e-09
-6.95823409253e-11
-6.54838152058e-10
-2.51713499929e-09
-4.21058813852e-11
-6.05478635574e-10
-2.32146186994e-09
-5.56420499875e-10
-2.10783622246e-09
-3.35638167492e-13
4.66455893327e-11
-6.73452799725e-10
-2.8059987438e-09
-1.00324798504e-12
7.73360364373e-11
-7.27005953623e-10
-3.09885368013e-09
9.18889575733e-11
-7.79291218042e-10
-3.366867776e-09
9.07838049975e-11
-8.25320550672e-10
-3.6016794983e-09
7.57807064339e-11
-8.62485514861e-10
-3.79446447667e-09
4.98587450559e-11
-8.89630331323e-10
-3.93806806649e-09
1.69138631166e-11
-9.06364069599e-10
-4.02793300123e-09
-1.84881886838e-11
-9.12262147536e-10
-4.06004815121e-09
-5.13304670724e-11
-9.06074064205e-10
-4.02802658569e-09
-7.70505322969e-11
-8.89079823478e-10
-3.93825606185e-09
-9.17767198924e-11
-8.61729770492e-10
-3.79474652445e-09
-9.25524041822e-11
-8.24414330486e-10
-3.60205940835e-09
-7.76136132962e-11
-7.78292296165e-10
-3.36736264463e-09
-4.65138933419e-11
-7.26092130416e-10
-3.09952326119e-09
-6.72851722782e-10
-2.80697947598e-09
-4.68465503276e-13
4.69753294168e-11
-7.45001069174e-10
-3.39766793684e-09
-9.49036145291e-13
7.85921851268e-11
-7.98206002652e-10
-3.76220476057e-09
9.38301563931e-11
-8.48407021821e-10
-4.09550906271e-09
9.28911792411e-11
-8.91548270627e-10
-4.3872307304e-09
7.7585955226e-11