/*--------------------------------*- C++ -*----------------------------------*\
  =========                 |
  \\      /  F ield         | OpenFOAM: The Open Source CFD Toolbox
   \\    /   O peration     | Website:  https://openfoam.org
    \\  /    A nd           | Version:  7
     \\/     M anipulation  |
\*---------------------------------------------------------------------------*/
FoamFile
{
    version     2.0;
    format      ascii;
    class       volScalarField;
    location    "2.16";
    object      p;
}
// * * * * * * * * * * * * * * * * * * * * * * * * * * * * * * * * * * * * * //

dimensions      [0 2 -2 0 0 0 0];

internalField   nonuniform List<scalar> 
22500
(
-5.93100890534e-06
-5.93072383972e-06
-5.93105200044e-06
-5.93114298969e-06
-5.93126735089e-06
-5.93135061552e-06
-5.93140179309e-06
-5.93141288412e-06
-5.93139069122e-06
-5.93132885751e-06
-5.93123578117e-06
-5.93110273371e-06
-5.93100428586e-06
-5.93067089056e-06
-5.93094741999e-06
-5.92643309635e-06
-5.92585528565e-06
-5.92599237619e-06
-5.92591937548e-06
-5.92591382939e-06
-5.92590318319e-06
-5.92589778296e-06
-5.92589063446e-06
-5.92588654295e-06
-5.92588109474e-06
-5.92588163615e-06
-5.92587810698e-06
-5.9259431034e-06
-5.92580023071e-06
-5.92636918486e-06
-5.9216693841e-06
-5.92079060365e-06
-5.92071071239e-06
-5.92044441565e-06
-5.92028988282e-06
-5.92016978582e-06
-5.92009814295e-06
-5.92006911784e-06
-5.92008666703e-06
-5.92014718569e-06
-5.92025684433e-06
-5.92040193792e-06
-5.92065979003e-06
-5.92073359464e-06
-5.92160314356e-06
-5.91683716427e-06
-5.91565262481e-06
-5.91530697519e-06
-5.9148140664e-06
-5.91447919208e-06
-5.91422637654e-06
-5.91407355551e-06
-5.91401740985e-06
-5.91406183744e-06
-5.9142032621e-06
-5.9144453214e-06
-5.9147704207e-06
-5.91525454174e-06
-5.91559388583e-06
-5.91676894865e-06
-5.91163126399e-06
-5.91010362975e-06
-5.90942536713e-06
-5.90865809638e-06
-5.90809839485e-06
-5.90767980798e-06
-5.90742484961e-06
-5.90733439026e-06
-5.90741286361e-06
-5.90765613577e-06
-5.90806366152e-06
-5.90861329083e-06
-5.90937152037e-06
-5.91004325954e-06
-5.91156120852e-06
-5.90593711722e-06
-5.90401357463e-06
-5.90293674842e-06
-5.90184539337e-06
-5.90101553423e-06
-5.90039720039e-06
-5.90001866476e-06
-5.89988652774e-06
-5.90000635209e-06
-5.90037287103e-06
-5.90097982193e-06
-5.90179931783e-06
-5.90288142375e-06
-5.90395153255e-06
-5.90586532978e-06
-5.89973243608e-06
-5.89735368257e-06
-5.8958194981e-06
-5.89435857484e-06
-5.89321768204e-06
-5.89236871955e-06
-5.89184717915e-06
-5.89166669471e-06
-5.89183449065e-06
-5.8923436486e-06
-5.89318089984e-06
-5.89431115752e-06
-5.89576268155e-06
-5.8972899457e-06
-5.89965897955e-06
-5.89301761028e-06
-5.8901240948e-06
-5.88808423719e-06
-5.8862163837e-06
-5.88473131598e-06
-5.8836264787e-06
-5.88294613099e-06
-5.88271187053e-06
-5.88293300375e-06
-5.88360055384e-06
-5.88469332178e-06
-5.88616747317e-06
-5.88802579846e-06
-5.89005854088e-06
-5.89294250009e-06
-5.88581070958e-06
-5.88235004572e-06
-5.87977012283e-06
-5.87746985929e-06
-5.87561826698e-06
-5.87424030265e-06
-5.87339045017e-06
-5.87309874247e-06
-5.87337682651e-06
-5.87421341731e-06
-5.87557891949e-06
-5.87741929702e-06
-5.87970989871e-06
-5.8822824996e-06
-5.88573375502e-06
-5.8781506004e-06
-5.87408519113e-06
-5.87094797827e-06
-5.86820469915e-06
-5.86597722751e-06
-5.86431860693e-06
-5.86329476051e-06
-5.8629440669e-06
-5.86328058027e-06
-5.86429064677e-06
-5.86593635958e-06
-5.86815227556e-06
-5.8708857226e-06
-5.87401537131e-06
-5.87807153915e-06
-5.87009564173e-06
-5.86540920117e-06
-5.86171854016e-06
-5.85853871995e-06
-5.85594017423e-06
-5.85400406873e-06
-5.85280857598e-06
-5.85239974615e-06
-5.85279379151e-06
-5.85397493307e-06
-5.8558976343e-06
-5.85848421464e-06
-5.8616539561e-06
-5.86533673654e-06
-5.87001392056e-06
-5.86169372926e-06
-5.85641532632e-06
-5.85220979614e-06
-5.84861981739e-06
-5.84566963002e-06
-5.84347046515e-06
-5.84211305081e-06
-5.84164950148e-06
-5.84209762942e-06
-5.84344008343e-06
-5.84562528126e-06
-5.84856301743e-06
-5.8521425586e-06
-5.85633979011e-06
-5.86160873413e-06
-5.85292990144e-06
-5.84722244637e-06
-5.84259213948e-06
-5.83863297591e-06
-5.8353623685e-06
-5.83292615875e-06
-5.83142476824e-06
-5.83091293271e-06
-5.83140871304e-06
-5.83289452527e-06
-5.83531616967e-06
-5.83857375019e-06
-5.8425219664e-06
-5.84714344392e-06
-5.85284113963e-06
-5.84411588982e-06
-5.8381714254e-06
-5.83311954701e-06
-5.8287933845e-06
-5.8252226521e-06
-5.82257823106e-06
-5.82095550042e-06
-5.82040368669e-06
-5.82093888155e-06
-5.82254546157e-06
-5.82517472408e-06
-5.82873177619e-06
-5.83304630211e-06
-5.8380884548e-06
-5.8440232637e-06
-5.83752069016e-06
-5.82968233477e-06
-5.82399866331e-06
-5.81917999326e-06
-5.81528107871e-06
-5.81243402189e-06
-5.81070022062e-06
-5.810112882e-06
-5.81068310914e-06
-5.81240025875e-06
-5.81523157701e-06
-5.81911607465e-06
-5.8239219929e-06
-5.82959446028e-06
-5.83742402831e-06
-6.40924142562e-06
-6.40906162858e-06
-6.40882239454e-06
-6.40861213978e-06
-6.40842737733e-06
-6.40828810908e-06
-6.40820196793e-06
-6.40817443924e-06
-6.40820702322e-06
-6.40829777122e-06
-6.4084406527e-06
-6.40862789864e-06
-6.40883947573e-06
-6.40907914245e-06
-6.40925972928e-06
-6.40820079132e-06
-6.4080188971e-06
-6.40777307603e-06
-6.40755902985e-06
-6.40737083905e-06
-6.40722898441e-06
-6.40714114474e-06
-6.40711287026e-06
-6.40714577278e-06
-6.40723780244e-06
-6.40738293209e-06
-6.40757334684e-06
-6.40778874383e-06
-6.40803530112e-06
-6.40821831685e-06
-6.4075847038e-06
-6.40744818185e-06
-6.40723567817e-06
-6.40705563588e-06
-6.40689510042e-06
-6.40677412191e-06
-6.40669912722e-06
-6.40667513628e-06
-6.40670364511e-06
-6.40678277881e-06
-6.40690709997e-06
-6.40706999123e-06
-6.40725153555e-06
-6.40746482844e-06
-6.4076023459e-06
-6.40751092942e-06
-6.40745150064e-06
-6.40729781632e-06
-6.40717409575e-06
-6.4070592383e-06
-6.40697211339e-06
-6.40691781287e-06
-6.40690073353e-06
-6.40692224029e-06
-6.40698064758e-06
-6.40707118395e-06
-6.40718851558e-06
-6.40731382375e-06
-6.40746826412e-06
-6.4075285847e-06
-6.40775528636e-06
-6.40777321807e-06
-6.40767714286e-06
-6.40760613281e-06
-6.40753299872e-06
-6.40747591826e-06
-6.40743964299e-06
-6.40742851587e-06
-6.40744396393e-06
-6.40748428786e-06
-6.40754480127e-06
-6.407620475e-06
-6.40769311036e-06
-6.40778984957e-06
-6.40777274774e-06
-6.40814603788e-06
-6.40821842449e-06
-6.40816047068e-06
-6.40812125173e-06
-6.40807151678e-06
-6.40802996591e-06
-6.40800245738e-06
-6.40799408683e-06
-6.40800664791e-06
-6.40803810755e-06
-6.40808304652e-06
-6.40813530863e-06
-6.40817612538e-06
-6.40823463015e-06
-6.40816304187e-06
-6.40856037361e-06
-6.40864911731e-06
-6.40859931752e-06
-6.40856188332e-06
-6.40851019828e-06
-6.40846476562e-06
-6.40843388449e-06
-6.40842413951e-06
-6.40843794103e-06
-6.40847266002e-06
-6.40852140295e-06
-6.40857556169e-06
-6.40861451068e-06
-6.40866474916e-06
-6.40857670358e-06
-6.40890200041e-06
-6.40896172845e-06
-6.40888637498e-06
-6.40881857619e-06
-6.40873849909e-06
-6.40866944712e-06
-6.40862304284e-06
-6.40860782994e-06
-6.40862695575e-06
-6.40867706439e-06
-6.40874931521e-06
-6.40883177107e-06
-6.40890097235e-06
-6.40897661644e-06
-6.40891752852e-06
-6.40910157314e-06
-6.40908690959e-06
-6.40895413739e-06
-6.40882704768e-06
-6.40869548526e-06
-6.4085860534e-06
-6.40851400461e-06
-6.40848995285e-06
-6.40851778788e-06
-6.40859341419e-06
-6.40870592686e-06
-6.40883975531e-06
-6.40896811318e-06
-6.40910101566e-06
-6.40911618336e-06
-6.40911750188e-06
-6.40898914809e-06
-6.40877268926e-06
-6.40856389318e-06
-6.40836363985e-06
-6.40820181491e-06
-6.40809707171e-06
-6.40806186581e-06
-6.40810074023e-06
-6.4082089453e-06
-6.40837373452e-06
-6.40857614496e-06
-6.40878607553e-06
-6.40900251507e-06
-6.40913120874e-06
-6.40893255241e-06
-6.40866125422e-06
-6.40834223897e-06
-6.40803709634e-06
-6.40775772922e-06
-6.40753684359e-06
-6.40739573451e-06
-6.40734823477e-06
-6.40739931982e-06
-6.40754380226e-06
-6.4077675645e-06
-6.40804899239e-06
-6.40835515398e-06
-6.40867403099e-06
-6.40894544664e-06
-6.40855141954e-06
-6.40811875322e-06
-6.40768514099e-06
-6.40727627709e-06
-6.40691390491e-06
-6.40663236194e-06
-6.40645444997e-06
-6.4063945915e-06
-6.40645799064e-06
-6.40663922232e-06
-6.40692358623e-06
-6.40728796661e-06
-6.40769778003e-06
-6.40813118261e-06
-6.40856383008e-06
-6.40800239881e-06
-6.40739260579e-06
-6.40683589754e-06
-6.40632244545e-06
-6.40587948313e-06
-6.40554062873e-06
-6.40532841398e-06
-6.40525721635e-06
-6.40533193934e-06
-6.40554746505e-06
-6.40588913851e-06
-6.40633410753e-06
-6.40684849617e-06
-6.40740499977e-06
-6.40801461913e-06
-6.40729383109e-06
-6.40649131895e-06
-6.40582010853e-06
-6.40521384823e-06
-6.40470351856e-06
-6.40431807739e-06
-6.40407860404e-06
-6.40399834686e-06
-6.40408212812e-06
-6.40432491574e-06
-6.40471317355e-06
-6.40522555579e-06
-6.40583289593e-06
-6.40650405276e-06
-6.40730622125e-06
-6.40619778494e-06
-6.40542285356e-06
-6.40467470605e-06
-6.4040086186e-06
-6.40345903757e-06
-6.4030476409e-06
-6.40279331151e-06
-6.40270832454e-06
-6.40279677076e-06
-6.40305439358e-06
-6.40346862913e-06
-6.40402037636e-06
-6.40468774238e-06
-6.40543640146e-06
-6.40621099551e-06
-5.42135458155e-06
-5.42145948186e-06
-5.42156695066e-06
-5.42166646684e-06
-5.42175139244e-06
-5.42181516466e-06
-5.42185396401e-06
-5.42186552841e-06
-5.42184897788e-06
-5.42180560121e-06
-5.42173819518e-06
-5.42165105197e-06
-5.42155099779e-06
-5.42144564747e-06
-5.42134460181e-06
-5.42151613e-06
-5.4216201709e-06
-5.421729405e-06
-5.42183105946e-06
-5.42191827277e-06
-5.42198405869e-06
-5.42202430362e-06
-5.42203652438e-06
-5.42201968446e-06
-5.4219752054e-06
-5.42190606049e-06
-5.42181679378e-06
-5.42171464809e-06
-5.42160725215e-06
-5.42150682289e-06
-5.42152368111e-06
-5.42161498369e-06
-5.42171410295e-06
-5.42180733463e-06
-5.42188810872e-06
-5.42194938247e-06
-5.42198702939e-06
-5.42199849954e-06
-5.42198269436e-06
-5.42194105919e-06
-5.42187658758e-06
-5.42179383544e-06
-5.4217001722e-06
-5.42160276841e-06
-5.42151495441e-06
-5.42148438317e-06
-5.42156315809e-06
-5.42165193021e-06
-5.42173595181e-06
-5.42180953497e-06
-5.42186569834e-06
-5.42190036638e-06
-5.42191095011e-06
-5.42189631802e-06
-5.421857907e-06
-5.42179870244e-06
-5.42172322207e-06
-5.42163882843e-06
-5.42155175735e-06
-5.42147635636e-06
-5.42143756112e-06
-5.42150589519e-06
-5.42158614827e-06
-5.42166224637e-06
-5.42172959334e-06
-5.42178131511e-06
-5.42181338568e-06
-5.42182320321e-06
-5.42180961809e-06
-5.42177405725e-06
-5.4217194931e-06
-5.42165038849e-06
-5.42157401494e-06
-5.42149548821e-06
-5.42143034879e-06
-5.42138413497e-06
-5.42144373218e-06
-5.42151678181e-06
-5.42158602978e-06
-5.42164790502e-06
-5.42169569932e-06
-5.42172546463e-06
-5.42173460084e-06
-5.42172195701e-06
-5.42168894496e-06
-5.42163851067e-06
-5.42157503985e-06
-5.42150563879e-06
-5.42143434185e-06
-5.42137784132e-06
-5.42132435228e-06
-5.42137677273e-06
-5.42144380207e-06
-5.42150729333e-06
-5.42156447678e-06
-5.42160887296e-06
-5.42163662031e-06
-5.42164515722e-06
-5.42163335176e-06
-5.42160259328e-06
-5.42155577637e-06
-5.42149718824e-06
-5.42143370326e-06
-5.42136845116e-06
-5.42131897702e-06
-5.4212606762e-06
-5.42130764774e-06
-5.42136986645e-06
-5.42142870769e-06
-5.4214819809e-06
-5.42152349689e-06
-5.42154950606e-06
-5.42155751933e-06
-5.42154644639e-06
-5.42151763817e-06
-5.42147390827e-06
-5.42141941595e-06
-5.42136073704e-06
-5.42130035183e-06
-5.42125618058e-06
-5.42119519351e-06
-5.42123840584e-06
-5.42129689829e-06
-5.42135213247e-06
-5.42140222546e-06
-5.42144132539e-06
-5.42146583503e-06
-5.42147338495e-06
-5.42146294938e-06
-5.42143582384e-06
-5.42139470208e-06
-5.42134357262e-06
-5.42128864672e-06
-5.42123204091e-06
-5.42119146302e-06
-5.42112908418e-06
-5.42117015721e-06
-5.42122585936e-06
-5.42127839351e-06
-5.42132589264e-06
-5.42136291876e-06
-5.42138609298e-06
-5.42139320901e-06
-5.42138333669e-06
-5.42135768987e-06
-5.42131879706e-06
-5.42127041452e-06
-5.42121831459e-06
-5.4211645349e-06
-5.42112599046e-06
-5.42106308611e-06
-5.42110338367e-06
-5.42115709712e-06
-5.42120767501e-06
-5.42125300887e-06
-5.42128817411e-06
-5.42131008358e-06
-5.42131676775e-06
-5.42130740769e-06
-5.42128312031e-06
-5.42124620393e-06
-5.42120010014e-06
-5.42115004951e-06
-5.42109825993e-06
-5.4210603699e-06
-5.42099688384e-06
-5.42103788863e-06
-5.42109057567e-06
-5.42113988053e-06
-5.42118336154e-06
-5.42121675075e-06
-5.42123739882e-06
-5.42124361798e-06
-5.42123474838e-06
-5.42121176389e-06
-5.42117667935e-06
-5.42113249549e-06
-5.42108375935e-06
-5.42103296576e-06
-5.42099423567e-06
-5.42092719415e-06
-5.42097205251e-06
-5.42102556787e-06
-5.42107451938e-06
-5.42111656362e-06
-5.4211483716e-06
-5.42116781553e-06
-5.42117357161e-06
-5.42116513544e-06
-5.42114333448e-06
-5.4211098371e-06
-5.42106708862e-06
-5.4210186894e-06
-5.42096697256e-06
-5.42092421217e-06
-5.42085628466e-06
-5.42090963911e-06
-5.42096353467e-06
-5.42101188539e-06
-5.42105226379e-06
-5.42108238388e-06
-5.4211006028e-06
-5.42110587115e-06
-5.42109784762e-06
-5.42107721795e-06
-5.42104535133e-06
-5.42100422228e-06
-5.42095632766e-06
-5.42090405165e-06
-5.42085260803e-06
-5.42086836437e-06
-5.42088610502e-06
-5.42092633456e-06
-5.42096259413e-06
-5.42099295802e-06
-5.42101572504e-06
-5.42102940175e-06
-5.42103310184e-06
-5.42102660273e-06
-5.42101046018e-06
-5.42098589699e-06
-5.42095467441e-06
-5.42091868071e-06
-5.42087973656e-06
-5.42086359589e-06
-5.65958868518e-06
-5.65951519692e-06
-5.65944113615e-06
-5.65936984172e-06
-5.65930855714e-06
-5.65926174956e-06
-5.65923253639e-06
-5.65922276784e-06
-5.65923319913e-06
-5.65926285092e-06
-5.65930964851e-06
-5.65937028808e-06
-5.65944019703e-06
-5.6595121689e-06
-5.6595838894e-06
-5.6595285086e-06
-5.65945689238e-06
-5.65938273872e-06
-5.65931084718e-06
-5.65924870143e-06
-5.6592010614e-06
-5.65917121518e-06
-5.6591611496e-06
-5.65917172174e-06
-5.65920186257e-06
-5.65924937904e-06
-5.65931078855e-06
-5.65938124205e-06
-5.65945341546e-06
-5.65952328328e-06
-5.65957879557e-06
-5.65951684838e-06
-5.65945104445e-06
-5.65938589072e-06
-5.6593289467e-06
-5.65928494547e-06
-5.65925722295e-06
-5.65924780288e-06
-5.65925759603e-06
-5.65928551637e-06
-5.65932936135e-06
-5.65938561827e-06
-5.65944941249e-06
-5.65951340561e-06
-5.65957353992e-06
-5.65964175593e-06
-5.65958777019e-06
-5.65952929264e-06
-5.65947037305e-06
-5.65941827584e-06
-5.65937769852e-06
-5.6593519919e-06
-5.65934319444e-06
-5.6593522402e-06
-5.6593780494e-06
-5.65941842142e-06
-5.65946984559e-06
-5.65952749175e-06
-5.65958428423e-06
-5.65963650011e-06
-5.65969420877e-06
-5.65964575133e-06
-5.65959262475e-06
-5.65953854013e-06
-5.65949024924e-06
-5.65945238993e-06
-5.65942827596e-06
-5.65941996914e-06
-5.65942840974e-06
-5.65945253714e-06
-5.65949015522e-06
-5.65953778868e-06
-5.65959069514e-06
-5.65964223448e-06
-5.65968898727e-06
-5.65974130185e-06
-5.65969692331e-06
-5.65964801258e-06
-5.65959786149e-06
-5.65955274269e-06
-5.65951717673e-06
-5.65949442886e-06
-5.6594865434e-06
-5.65949446145e-06
-5.65951713897e-06
-5.6595524073e-06
-5.65959686045e-06
-5.65964588801e-06
-5.65969334769e-06
-5.65973608166e-06
-5.65978605862e-06
-5.65974464952e-06
-5.65969904009e-06
-5.65965212579e-06
-5.65960970096e-06
-5.65957612268e-06
-5.65955457397e-06
-5.65954706291e-06
-5.65955452082e-06
-5.659575931e-06
-5.65960917231e-06
-5.65965094062e-06
-5.65969679047e-06
-5.65974107861e-06
-5.65978091078e-06
-5.65982888396e-06
-5.65978950495e-06
-5.65974632888e-06
-5.65970197051e-06
-5.65966173782e-06
-5.6596298251e-06
-5.6596092998e-06
-5.65960211837e-06
-5.65960917832e-06
-5.659629506e-06
-5.65966104546e-06
-5.65970062253e-06
-5.65974398098e-06
-5.65978594485e-06
-5.65982387516e-06
-5.65986999401e-06
-5.65983169577e-06
-5.65979016187e-06
-5.65974771277e-06
-5.65970922181e-06
-5.65967868997e-06
-5.65965903889e-06
-5.65965214975e-06
-5.65965887356e-06
-5.65967829072e-06
-5.6597084363e-06
-5.65974629143e-06
-5.65978780983e-06
-5.6598282285e-06
-5.65986517067e-06
-5.65990968701e-06
-5.6598716729e-06
-5.65983107468e-06
-5.65978993893e-06
-5.65975277946e-06
-5.65972336816e-06
-5.6597044659e-06
-5.65969783691e-06
-5.65970427827e-06
-5.65972293265e-06
-5.65975195559e-06
-5.65978851312e-06
-5.65982879091e-06
-5.65986837684e-06
-5.65990511341e-06
-5.65994830048e-06
-5.65990982539e-06
-5.65986949901e-06
-5.65982914714e-06
-5.659792975e-06
-5.65976450481e-06
-5.65974626642e-06
-5.65973988945e-06
-5.65974608687e-06
-5.65976408909e-06
-5.65979220021e-06
-5.65982781492e-06
-5.65986738788e-06
-5.65990678124e-06
-5.65994403047e-06
-5.65998626199e-06
-5.65994658434e-06
-5.65990584462e-06
-5.65986576521e-06
-5.65983031541e-06
-5.65980264316e-06
-5.65978504245e-06
-5.65977891168e-06
-5.65978490006e-06
-5.6598023091e-06
-5.65982966199e-06
-5.65986462941e-06
-5.65990400953e-06
-5.65994389844e-06
-5.65998239379e-06
-5.66002565024e-06
-5.65998336071e-06
-5.65994105059e-06
-5.65990051494e-06
-5.65986534637e-06
-5.65983830835e-06
-5.65982121423e-06
-5.65981534889e-06
-5.65982114009e-06
-5.65983809435e-06
-5.65986491419e-06
-5.65989966256e-06
-5.65993959688e-06
-5.65998111361e-06
-5.66002224696e-06
-5.66006741358e-06
-5.66002020983e-06
-5.65997562679e-06
-5.65993405649e-06
-5.6598989119e-06
-5.65987221948e-06
-5.65985558376e-06
-5.65984988699e-06
-5.65985558588e-06
-5.65987219929e-06
-5.65989872825e-06
-5.65993358116e-06
-5.65997463627e-06
-5.66001850403e-06
-5.66006452399e-06
-5.66006995101e-06
-5.66003258314e-06
-5.65999290089e-06
-5.6599568368e-06
-5.6599267889e-06
-5.65990414528e-06
-5.65989004444e-06
-5.65988529463e-06
-5.65989014824e-06
-5.65990430254e-06
-5.65992691679e-06
-5.65995675931e-06
-5.65999241522e-06
-5.66003148225e-06
-5.66006777435e-06
-4.9818172899e-06
-4.98187102115e-06
-4.98192464777e-06
-4.98197599428e-06
-4.98202015536e-06
-4.98205390286e-06
-4.98207476227e-06
-4.98208143901e-06
-4.98207340682e-06
-4.98205138828e-06
-4.98201686848e-06
-4.98197223615e-06
-4.9819207299e-06
-4.98186764538e-06
-4.98181423472e-06
-4.98185729913e-06
-4.98190957003e-06
-4.98196315337e-06
-4.9820148864e-06
-4.98205967346e-06
-4.98209402877e-06
-4.98211537061e-06
-4.98212229101e-06
-4.98211417718e-06
-4.98209181966e-06
-4.98205679473e-06
-4.98201162092e-06
-4.98195974579e-06
-4.98190656119e-06
-4.98185457932e-06
-4.98181573136e-06
-4.98186088635e-06
-4.9819083987e-06
-4.98195532045e-06
-4.9819963643e-06
-4.9820280612e-06
-4.98204785953e-06
-4.98205432026e-06
-4.98204678947e-06
-4.9820260644e-06
-4.98199373185e-06
-4.98195233578e-06
-4.98190534454e-06
-4.98185819141e-06
-4.98181338382e-06
-4.98176631968e-06
-4.98180580988e-06
-4.98184813036e-06
-4.981890655e-06
-4.98192822976e-06
-4.98195744431e-06
-4.9819757955e-06
-4.98198181712e-06
-4.98197483315e-06
-4.9819556323e-06
-4.98192580331e-06
-4.98188789144e-06
-4.98184533697e-06
-4.9818034166e-06
-4.98176434887e-06
-4.98172563994e-06
-4.98176121906e-06
-4.98179981548e-06
-4.98183899396e-06
-4.98187387779e-06
-4.98190114255e-06
-4.981918343e-06
-4.98192401272e-06
-4.98191746428e-06
-4.98189947722e-06
-4.9818716327e-06
-4.98183645148e-06
-4.9817973097e-06
-4.98175919651e-06
-4.98172407833e-06
-4.98168932804e-06
-4.98172205255e-06
-4.98175768431e-06
-4.98179405222e-06
-4.98182661132e-06
-4.98185215458e-06
-4.98186832558e-06
-4.9818736697e-06
-4.98186750631e-06
-4.98185059752e-06
-4.98182450287e-06
-4.98179168231e-06
-4.98175540991e-06
-4.98172032858e-06
-4.9816881975e-06
-4.98165464717e-06
-4.98168509934e-06
-4.98171828669e-06
-4.98175224086e-06
-4.98178272579e-06
-4.98180669186e-06
-4.98182189383e-06
-4.98182691896e-06
-4.98182110974e-06
-4.98180520387e-06
-4.98178071842e-06
-4.98175002179e-06
-4.98171625243e-06
-4.98168368706e-06
-4.98165391823e-06
-4.98162085695e-06
-4.98164952972e-06
-4.98168071658e-06
-4.98171255991e-06
-4.98174116481e-06
-4.98176366432e-06
-4.98177794325e-06
-4.98178265289e-06
-4.98177717156e-06
-4.98176220505e-06
-4.98173920769e-06
-4.98171042862e-06
-4.98167884316e-06
-4.98164836863e-06
-4.98162046975e-06
-4.98158744867e-06
-4.98161469137e-06
-4.98164423605e-06
-4.98167424586e-06
-4.98170115325e-06
-4.98172228421e-06
-4.98173567379e-06
-4.98174006742e-06
-4.98173488981e-06
-4.98172080839e-06
-4.98169919354e-06
-4.98167214967e-06
-4.98164246744e-06
-4.98161372618e-06
-4.98158732506e-06
-4.98155385159e-06
-4.98157999622e-06
-4.98160819189e-06
-4.98163660795e-06
-4.98166196499e-06
-4.98168179803e-06
-4.98169432481e-06
-4.98169839509e-06
-4.98169350224e-06
-4.98168025849e-06
-4.98165993309e-06
-4.98163446055e-06
-4.98160642426e-06
-4.98157910808e-06
-4.98155390796e-06
-4.9815196932e-06
-4.98154497264e-06
-4.98157208743e-06
-4.98159914035e-06
-4.98162307223e-06
-4.98164166861e-06
-4.98165333757e-06
-4.98165707864e-06
-4.98165244835e-06
-4.98164000837e-06
-4.98162089461e-06
-4.98159684633e-06
-4.98157021265e-06
-4.98154402846e-06
-4.98151977764e-06
-4.98148453669e-06
-4.98150928324e-06
-4.98153566508e-06
-4.98156159545e-06
-4.98158423296e-06
-4.98160161945e-06
-4.98161243822e-06
-4.98161582544e-06
-4.98161145013e-06
-4.98159977903e-06
-4.98158181039e-06
-4.98155904146e-06
-4.9815335367e-06
-4.98150812473e-06
-4.98148447109e-06
-4.98144699474e-06
-4.98147203723e-06
-4.9814983859e-06
-4.98152367542e-06
-4.98154525341e-06
-4.98156159751e-06
-4.98157160268e-06
-4.98157466295e-06
-4.98157048314e-06
-4.98155949663e-06
-4.98154249879e-06
-4.98152071366e-06
-4.98149584308e-06
-4.98147046144e-06
-4.98144655449e-06
-4.98140627819e-06
-4.98143313606e-06
-4.98145999705e-06
-4.98148503904e-06
-4.98150589844e-06
-4.98152137177e-06
-4.98153073676e-06
-4.98153347147e-06
-4.98152944962e-06
-4.98151897706e-06
-4.98150270589e-06
-4.98148158515e-06
-4.9814568746e-06
-4.98143095001e-06
-4.98140523617e-06
-4.98139168895e-06
-4.98141091795e-06
-4.98143313955e-06
-4.98145330101e-06
-4.98146975307e-06
-4.98148186688e-06
-4.98148906019e-06
-4.98149101439e-06
-4.98148763484e-06
-4.98147918235e-06
-4.9814661756e-06
-4.98144932256e-06
-4.98142941083e-06
-4.98140797037e-06
-4.98138979675e-06
-4.97991779931e-06
-4.97987703037e-06
-4.97983703861e-06
-4.97979916428e-06
-4.97976695214e-06
-4.9797425433e-06
-4.97972750162e-06
-4.9797227884e-06
-4.9797288228e-06
-4.97974509175e-06
-4.97977051116e-06
-4.97980332542e-06
-4.97984116354e-06
-4.97988011611e-06
-4.97991931636e-06
-4.97988899759e-06
-4.97984928597e-06
-4.9798092888e-06
-4.97977109625e-06
-4.97973844541e-06
-4.97971363503e-06
-4.97969830445e-06
-4.97969346861e-06
-4.97969958985e-06
-4.97971610955e-06
-4.9797418823e-06
-4.9797750645e-06
-4.97981313762e-06
-4.97985212706e-06
-4.97989025247e-06
-4.97991981486e-06
-4.97988538181e-06
-4.97984998464e-06
-4.97981544621e-06
-4.97978560596e-06
-4.97976274866e-06
-4.97974855182e-06
-4.97974405039e-06
-4.97974973474e-06
-4.97976503623e-06
-4.97978880434e-06
-4.97981917902e-06
-4.97985363145e-06
-4.97988815697e-06
-4.97992099341e-06
-4.97995624409e-06
-4.9799261461e-06
-4.97989469961e-06
-4.97986345523e-06
-4.97983615525e-06
-4.97981508363e-06
-4.97980193273e-06
-4.97979774384e-06
-4.97980301544e-06
-4.97981718152e-06
-4.97983908994e-06
-4.97986688248e-06
-4.97989805398e-06
-4.97992871505e-06
-4.97995733314e-06
-4.97998614215e-06
-4.97995904088e-06
-4.97993047406e-06
-4.97990177807e-06
-4.97987646209e-06
-4.9798567929e-06
-4.97984445388e-06
-4.97984049951e-06
-4.9798454287e-06
-4.97985868275e-06
-4.97987911306e-06
-4.97990488104e-06
-4.97993353134e-06
-4.97996138531e-06
-4.97998711498e-06
-4.98001278042e-06
-4.97998796436e-06
-4.97996172412e-06
-4.9799351265e-06
-4.9799114894e-06
-4.97989303116e-06
-4.97988140933e-06
-4.97987766331e-06
-4.97988228517e-06
-4.979894724e-06
-4.97991384868e-06
-4.97993786539e-06
-4.97996439671e-06
-4.97999001969e-06
-4.98001357033e-06
-4.98003816955e-06
-4.98001518384e-06
-4.97999088628e-06
-4.97996613931e-06
-4.97994402789e-06
-4.97992669069e-06
-4.97991573711e-06
-4.97991218203e-06
-4.97991650604e-06
-4.97992817461e-06
-4.97994608744e-06
-4.97996852022e-06
-4.97999319655e-06
-4.9800169652e-06
-4.98003879572e-06
-4.98006289999e-06
-4.98004145071e-06
-4.98001877605e-06
-4.97999564614e-06
-4.97997490425e-06
-4.97995860161e-06
-4.97994827718e-06
-4.9799449053e-06
-4.97994894284e-06
-4.9799598792e-06
-4.97997666055e-06
-4.97999765198e-06
-4.98002069949e-06
-4.98004292118e-06
-4.98006338014e-06
-4.98008742492e-06
-4.98006720308e-06
-4.980045895e-06
-4.98002419775e-06
-4.98000471828e-06
-4.97998939667e-06
-4.97997967572e-06
-4.97997648156e-06
-4.9799802392e-06
-4.97999047116e-06
-4.98000618685e-06
-4.98002585892e-06
-4.98004747248e-06
-4.98006840058e-06
-4.98008775409e-06
-4.9801121473e-06
-4.98009296301e-06
-4.98007280479e-06
-4.98005236494e-06
-4.98003404442e-06
-4.98001964326e-06
-4.98001050826e-06
-4.98000748624e-06
-4.98001097066e-06
-4.98002052191e-06
-4.98003522891e-06
-4.980053691e-06
-4.98007404819e-06
-4.98009390041e-06
-4.98011234835e-06
-4.98013744926e-06
-4.98011908821e-06
-4.98009985457e-06
-4.98008051125e-06
-4.98006325414e-06
-4.98004974625e-06
-4.98004118391e-06
-4.98003833899e-06
-4.98004155281e-06
-4.9800504408e-06
-4.98006418534e-06
-4.98008153528e-06
-4.98010080491e-06
-4.98011978712e-06
-4.98013751056e-06
-4.98016363595e-06
-4.98014583957e-06
-4.98012727331e-06
-4.98010882758e-06
-4.98009256124e-06
-4.98007989133e-06
-4.98007190932e-06
-4.98006923423e-06
-4.98007218737e-06
-4.98008041956e-06
-4.98009324375e-06
-4.98010958112e-06
-4.98012795665e-06
-4.98014632747e-06
-4.98016356958e-06
-4.98019179211e-06
-4.98017392036e-06
-4.98015545807e-06
-4.98013757221e-06
-4.98012203597e-06
-4.9801101416e-06
-4.98010264023e-06
-4.98010015077e-06
-4.98010284088e-06
-4.98011049042e-06
-4.98012251581e-06
-4.98013805648e-06
-4.98015590208e-06
-4.98017420145e-06
-4.9801915829e-06
-4.9802225479e-06
-4.98020343083e-06
-4.98018464904e-06
-4.98016689676e-06
-4.98015192887e-06
-4.98014053454e-06
-4.98013347096e-06
-4.98013107693e-06
-4.98013358007e-06
-4.98014075526e-06
-4.98015217511e-06
-4.98016717028e-06
-4.98018485458e-06
-4.98020352681e-06
-4.98022216287e-06
-4.98023457366e-06
-4.98022098868e-06
-4.98020546719e-06
-4.98019125921e-06
-4.98017937909e-06
-4.98017040989e-06
-4.98016480348e-06
-4.9801629174e-06
-4.98016485479e-06
-4.98017048557e-06
-4.98017947129e-06
-4.98019131437e-06
-4.9802054803e-06
-4.98022088885e-06
-4.98023410817e-06
-4.48251885712e-06
-4.48254592216e-06
-4.4825739429e-06
-4.48260144835e-06
-4.48262533573e-06
-4.48264379331e-06
-4.48265562915e-06
-4.48266009607e-06
-4.48265685025e-06
-4.48264623475e-06
-4.48262900506e-06
-4.48260640311e-06
-4.48258010375e-06
-4.48255287371e-06
-4.48252532093e-06
-4.48254007207e-06
-4.48256645538e-06
-4.48259448872e-06
-4.48262216621e-06
-4.48264633383e-06
-4.48266507803e-06
-4.48267712892e-06
-4.48268168847e-06
-4.48267837567e-06
-4.48266756598e-06
-4.48265006285e-06
-4.48262717199e-06
-4.48260067756e-06
-4.48257339366e-06
-4.48254659029e-06
-4.48251778551e-06
-4.48254045158e-06
-4.48256522298e-06
-4.4825902707e-06
-4.48261241709e-06
-4.48262975246e-06
-4.48264097142e-06
-4.48264526654e-06
-4.48264224535e-06
-4.48263229331e-06
-4.48261621854e-06
-4.48259533836e-06
-4.48257144451e-06
-4.48254737362e-06
-4.48252438718e-06
-4.48249143873e-06
-4.482511124e-06
-4.48253310643e-06
-4.48255575347e-06
-4.48257602756e-06
-4.48259203754e-06
-4.48260246383e-06
-4.48260649646e-06
-4.48260374075e-06
-4.48259458223e-06
-4.48257982968e-06
-4.48256079848e-06
-4.48253926333e-06
-4.48251797832e-06
-4.48249804155e-06
-4.48246982257e-06
-4.48248748467e-06
-4.48250747262e-06
-4.48252827034e-06
-4.48254706814e-06
-4.48256201313e-06
-4.48257179738e-06
-4.48257560913e-06
-4.48257305739e-06
-4.48256452344e-06
-4.48255081296e-06
-4.48253322576e-06
-4.48251350025e-06
-4.4824942422e-06
-4.48247640818e-06
-4.48245061033e-06
-4.48246681732e-06
-4.48248520272e-06
-4.48250445384e-06
-4.48252196802e-06
-4.48253596013e-06
-4.48254515336e-06
-4.48254875116e-06
-4.48254636984e-06
-4.48253838398e-06
-4.4825255864e-06
-4.48250924278e-06
-4.48249103515e-06
-4.48247338888e-06
-4.48245715132e-06
-4.48243232624e-06
-4.48244737977e-06
-4.48246444555e-06
-4.48248235224e-06
-4.4824987003e-06
-4.48251180076e-06
-4.48252042833e-06
-4.48252381321e-06
-4.48252158411e-06
-4.48251410486e-06
-4.48250214425e-06
-4.48248691714e-06
-4.48247003298e-06
-4.48245372824e-06
-4.48243875771e-06
-4.48241455152e-06
-4.48242868655e-06
-4.4824446581e-06
-4.48246138199e-06
-4.48247666915e-06
-4.48248893233e-06
-4.48249701493e-06
-4.48250018522e-06
-4.48249809262e-06
-4.48249108498e-06
-4.48247989641e-06
-4.48246567694e-06
-4.48244994907e-06
-4.48243476245e-06
-4.48242081141e-06
-4.48239697664e-06
-4.48241037284e-06
-4.4824254352e-06
-4.48244111921e-06
-4.48245543312e-06
-4.48246690181e-06
-4.48247445574e-06
-4.48247740948e-06
-4.4824754416e-06
-4.48246887658e-06
-4.48245840423e-06
-4.48244509635e-06
-4.48243037808e-06
-4.48241612573e-06
-4.48240300245e-06
-4.48237928501e-06
-4.48239209179e-06
-4.48240638776e-06
-4.48242115754e-06
-4.48243457567e-06
-4.48244529377e-06
-4.48245233159e-06
-4.48245506964e-06
-4.48245321554e-06
-4.48244706907e-06
-4.4824372638e-06
-4.48242478105e-06
-4.48241093833e-06
-4.48239745947e-06
-4.48238502155e-06
-4.48236123697e-06
-4.48237357075e-06
-4.48238724964e-06
-4.48240122675e-06
-4.48241382245e-06
-4.48242381663e-06
-4.48243034855e-06
-4.48243286539e-06
-4.48243111716e-06
-4.48242536973e-06
-4.48241618879e-06
-4.48240445147e-06
-4.48239135456e-06
-4.48237849467e-06
-4.48236660963e-06
-4.48234257463e-06
-4.48235461928e-06
-4.48236786767e-06
-4.48238119157e-06
-4.48239302951e-06
-4.48240233687e-06
-4.48240836022e-06
-4.48241065538e-06
-4.48240900234e-06
-4.48240363738e-06
-4.48239504291e-06
-4.48238396986e-06
-4.48237146989e-06
-4.48235903429e-06
-4.48234751859e-06
-4.48232251957e-06
-4.48233474012e-06
-4.48234795522e-06
-4.48236088511e-06
-4.48237213269e-06
-4.48238081486e-06
-4.48238638875e-06
-4.48238845542e-06
-4.48238688508e-06
-4.48238184841e-06
-4.48237374277e-06
-4.48236317108e-06
-4.48235099806e-06
-4.48233858337e-06
-4.48232696868e-06
-4.48230064415e-06
-4.48231385543e-06
-4.48232735415e-06
-4.4823401559e-06
-4.48235096843e-06