/*--------------------------------*- C++ -*----------------------------------*\
  =========                 |
  \\      /  F ield         | OpenFOAM: The Open Source CFD Toolbox
   \\    /   O peration     | Website:  https://openfoam.org
    \\  /    A nd           | Version:  7
     \\/     M anipulation  |
\*---------------------------------------------------------------------------*/
FoamFile
{
    version     2.0;
    format      ascii;
    class       surfaceScalarField;
    location    "0.54";
    object      phi;
}
// * * * * * * * * * * * * * * * * * * * * * * * * * * * * * * * * * * * * * //

dimensions      [0 3 -1 0 0 0 0];

internalField   nonuniform List<scalar> 
65775
(
-9.39218756799e-12
1.00438315348e-09
3.69078723791e-11
2.59238896927e-13
-1.73113182283e-11
1.05563110069e-09
3.81330586907e-11
-2.11112438691e-11
1.10014744938e-09
3.76595932194e-11
-2.11890608461e-11
1.13906034026e-09
3.63301789762e-11
-1.77528792325e-11
1.17043968214e-09
3.47368924336e-11
-1.16036833903e-11
1.19360125469e-09
3.3306074896e-11
-3.71829175103e-12
1.20817239503e-09
3.23416628361e-11
4.7530791897e-12
1.21359145293e-09
3.20162056919e-11
1.26101387218e-11
1.20803092199e-09
3.23423153162e-11
1.87082151862e-11
1.19332529372e-09
3.33073228269e-11
2.20666884075e-11
1.17003333031e-09
3.47391063499e-11
2.18921871139e-11
1.13855219006e-09
3.63350506164e-11
1.79729326269e-11
1.09956545145e-09
3.76726630135e-11
9.9711282583e-12
1.05508150549e-09
3.81751820386e-11
1.00410802032e-09
3.70490887588e-11
6.39232386692e-13
-2.08808804845e-11
1.88017461292e-09
1.28232489619e-10
6.02631556465e-13
-3.84529509353e-11
1.97497044957e-09
1.3553520291e-10
-4.84416970508e-11
2.05751779395e-09
1.37801621536e-10
-4.93624170253e-11
2.12892643484e-09
1.37184613818e-10
-4.17933739462e-11
2.18668498701e-09
1.35232051006e-10
-2.74337715689e-11
2.22934306568e-09
1.33071500797e-10
-8.71131067876e-12
2.25619693743e-09
1.31512082384e-10
1.15145944174e-11
2.26614519766e-09
1.31000355732e-10
3.01637122535e-11
2.25587035183e-09
1.31513993954e-10
4.43854854017e-11
2.22870197718e-09
1.33074873833e-10
5.17524226519e-11
2.18574438207e-09
1.35237921788e-10
5.05721620577e-11
2.12773637651e-09
1.37197810079e-10
4.0285177422e-11
2.05615175231e-09
1.37838035675e-10
2.24262640838e-11
1.97364810546e-09
1.35652784002e-10
1.87939360303e-09
1.28587870629e-10
1.67108444315e-12
-2.59086562044e-11
2.61041461338e-09
2.2968526512e-10
8.64184038856e-13
-4.92957541354e-11
2.74062360084e-09
2.4592301242e-10
-6.38564112848e-11
2.85384810922e-09
2.53979717271e-10
-6.61405660025e-11
2.95064044467e-09
2.56943332986e-10
-5.65610069314e-11
3.0290175375e-09
2.57070103035e-10
-3.72826513656e-11
3.08690486853e-09
2.56028321648e-10
-1.17148396557e-11
3.12336896626e-09
2.55031045546e-10
1.60394296687e-11
3.1368562212e-09
2.5473252483e-10
4.14951459791e-11
3.12292166695e-09
2.55031738608e-10
6.05591921251e-11
3.08602546478e-09
2.5602887938e-10
6.9827037526e-11
3.02772901832e-09
2.57072244842e-10
6.71413256454e-11
2.94900100373e-09
2.56954482533e-10
5.21235504578e-11
2.85195804906e-09
2.54022895629e-10
2.82559658353e-11
2.73877205712e-09
2.46079098683e-10
2.60924418733e-09
2.30166088803e-10
2.53685121473e-12
-2.61407591566e-11
3.18903582782e-09
3.32505729461e-10
1.04383844603e-12
-5.21944183009e-11
3.34647245225e-09
3.59264600493e-10
-6.97283636054e-11
3.48269524288e-09
3.74989757572e-10
-7.36301616313e-11
3.59776431285e-09
3.83371088512e-10
-6.36902645208e-11
3.69081903856e-09
3.87167701306e-10
-4.21871482902e-11
3.75949794509e-09
3.88461386517e-10
-1.30926900825e-11
3.80276703896e-09
3.88787219203e-10
1.86618215117e-11
3.81875904403e-09
3.88959622086e-10
4.76142693729e-11
3.80226459532e-09
3.88783278944e-10
6.88433414345e-11
3.75850725135e-09
3.88452286947e-10
7.83859097399e-11
3.68936854138e-09
3.8715574649e-10
7.39764772731e-11
3.59591348371e-09
3.83365383954e-10
5.58621880295e-11
3.48054427244e-09
3.75016681986e-10
2.91867682876e-11
3.34434429069e-09
3.59414686398e-10
3.18760893647e-09
3.33014377609e-10
3.28028160072e-12
-2.28490331907e-11
3.61637798915e-09
4.31502985868e-10
1.16206289661e-12
-4.89191895694e-11
3.79286962919e-09
4.69607431323e-10
-6.79934061053e-11
3.94448913302e-09
4.94145954356e-10
-7.35428236537e-11
4.07100342071e-09
5.09133491148e-10
-6.45059604307e-11
4.17296445727e-09
5.17659368137e-10
-4.29703892782e-11
4.24809932735e-09
5.22110625763e-10
-1.31086583885e-11
4.29542030333e-09
5.242745662e-10
1.96955875726e-11
4.31289966958e-09
5.25088496553e-10
4.93927648603e-11
4.29491961554e-09
5.2426319542e-10
7.06096836707e-11
4.24711109733e-09
5.22086247194e-10
7.91852995628e-11
4.17151641755e-09
5.17624546842e-10
7.30514050116e-11
4.06915081852e-09
5.0909777558e-10
5.33087026872e-11
3.94231502211e-09
4.94135587834e-10
2.65192395441e-11
3.79070725996e-09
4.69714725348e-10
3.61487967186e-09
4.31969472721e-10
3.93666062881e-12
-1.6906446066e-11
3.89771522194e-09
5.226234307e-10
1.23376369723e-12
-4.08362124536e-11
4.08533587718e-09
5.72283030645e-10
-6.01976858971e-11
4.24510688861e-09
6.06168161403e-10
-6.7289499067e-11
4.37675079006e-09
6.28403543702e-10
-6.01096863871e-11
4.48229276489e-09
6.42269133878e-10
-4.03181831952e-11
4.55988346298e-09
6.50367097248e-10
-1.19805392347e-11
4.60870922911e-09
6.54677213374e-10
1.94077400743e-11
4.62673700727e-09
6.56230500552e-10
4.75651488315e-11
4.60826376905e-09
6.54656734668e-10
6.70062811234e-11
4.55900234996e-09
6.50324074058e-10
7.36803291163e-11
4.4810002554e-09
6.42205937081e-10
6.59512939652e-11
4.37509019905e-09
6.28328863678e-10
4.58655453491e-11
4.24313865682e-09
6.06105492372e-10
2.11530817989e-11
4.08336434145e-09
5.72322957398e-10
3.89633945221e-09
5.23008404606e-10
4.52482592411e-12
-8.93668029718e-12
4.04205974017e-09
6.02741074687e-10
1.27097081294e-12
-2.89722292978e-11
4.23339563131e-09
6.63679533026e-10
-4.75114110394e-11
4.39469696253e-09
7.06950792945e-10
-5.5946656389e-11
4.52585940172e-09
7.3663125022e-10
-5.13388124317e-11
4.63032240596e-09
7.56082965078e-10
-3.47488068414e-11
4.7068874049e-09
7.68048270176e-10
-9.86930877385e-12
4.75500335931e-09
7.74646672743e-10
1.80052226084e-11
4.77276204624e-09
7.769791946e-10
4.26945906837e-11
4.75465710498e-09
7.74616697589e-10
5.89142077566e-11
4.70620120428e-09
7.67985908398e-10
6.29882074145e-11
4.62931398212e-09
7.55989950563e-10
5.3884172879e-11
4.52455503292e-09
7.36514292265e-10
3.45877260349e-11
4.39312750623e-09
7.06829027008e-10
1.37321279841e-11
4.23182615941e-09
6.63641222162e-10
4.04100179913e-09
6.03027868783e-10
5.06620654628e-12
5.87373058949e-13
4.06123012957e-09
6.69518187073e-10
1.28019559877e-12
-1.40970642065e-11
4.24959199513e-09
7.41091540743e-10
-3.08065787636e-11
4.40658933815e-09
7.93409061406e-10
-4.03087670942e-11
4.53253143553e-09
8.30392348599e-10
-3.88052213558e-11
4.63209001728e-09
8.55402820667e-10
-2.66365598845e-11
4.70481014308e-09
8.71257541974e-10
-6.88774197641e-12
4.75043295986e-09
8.80165226267e-10
1.56429911594e-11
4.76726259597e-09
8.83275044305e-10
3.51970073581e-11
4.75022121874e-09
8.80126796661e-10
4.69855535809e-11
4.70439025619e-09
8.71178223518e-10
4.79410426569e-11
4.63146994982e-09
8.5528339048e-10
3.77549032316e-11
4.53171885973e-09
8.30236691362e-10
2.02724804907e-11
4.40558162392e-09
7.93231161854e-10
4.74403756404e-12
4.24860574662e-09
7.40978284413e-10
4.06067379699e-09
6.69708593646e-10
5.57364096003e-12
1.1325681742e-11
3.96906251275e-09
7.21270464108e-10
1.26864744614e-12
3.25363738448e-12
4.14861419272e-09
8.0256678076e-10
-1.06693109229e-11
4.29639027698e-09
8.63317414058e-10
-2.08978829204e-11
4.41336645122e-09
9.0722580037e-10
-2.29039042643e-11
4.50514335813e-09
9.37587295133e-10
-1.62179722519e-11
4.571957676e-09
9.57228854186e-10
-3.1025842804e-12
4.61379433256e-09
9.68393488823e-10
1.24273882301e-11
4.62921413061e-09
9.7225387766e-10
2.53481656695e-11
4.61374214287e-09
9.68349071602e-10
3.1652481417e-11
4.57185460738e-09
9.57138313058e-10
2.90957130943e-11
4.50498770753e-09
9.37450283312e-10
1.81794355091e-11
4.41314479929e-09
9.07042794212e-10
3.47760617656e-12
4.2960697715e-09
8.63096744501e-10
-5.45884207939e-12
4.14835747742e-09
8.02395944e-10
3.96916871627e-09
7.21382352588e-10
6.0593968646e-12
2.30601634599e-11
3.78078736293e-09
7.56822558683e-10
1.24157746147e-12
2.27767056798e-11
3.94660628983e-09
8.46734437248e-10
1.26040545291e-11
4.08125302636e-09
9.15124826579e-10
2.03889493698e-12
4.18659835524e-09
9.65446989676e-10
-3.81393166336e-12
4.26873757294e-09
1.00086507213e-09
-3.59651006805e-12
4.32838190224e-09
1.02414113113e-09
1.46367211955e-12
4.36565159348e-09
1.03748531187e-09
8.41809942842e-12
4.3793656709e-09
1.04206183012e-09
1.32876053591e-11
4.36577307114e-09
1.03743886862e-09
1.31284658923e-11
4.32862448183e-09
1.02404848848e-09
6.7293247876e-12
4.26909107348e-09
1.00072485764e-09
-4.52129047848e-12
4.18703110374e-09
9.6525644806e-10
-1.54771934965e-11
4.0817029726e-09
9.14887722301e-10
-1.66475998124e-11
3.94718411993e-09
8.46538400716e-10
3.78168023299e-09
7.56888800878e-10
6.53436050917e-12
3.5685920947e-11
3.51255160591e-09
7.75354611784e-10
1.20430484012e-12
4.44100867918e-11
3.66064293108e-09
8.7261687903e-10
3.90083710104e-11
3.77935368614e-09
9.47746260175e-10
2.85171069474e-11
3.87156445277e-09
1.00393059884e-09
1.84775675518e-11
3.9432445264e-09
1.04411776185e-09
1.12383817851e-11
3.99523024706e-09
1.07090143203e-09
6.82481182784e-12
4.02763258378e-09
1.08637068962e-09
3.63535796089e-12
4.03952025487e-09
1.09163893181e-09
-9.63497322087e-13
4.02792979734e-09
1.086329788e-09
-8.57130868655e-12
3.99582375729e-09
1.07082212771e-09
-1.91501051426e-11
3.94411796758e-09
1.04399850376e-09
-3.03251732105e-11
3.87267255938e-09
1.00376472204e-09
-3.65184726717e-11
3.78061216557e-09
9.47530890818e-10
-2.87105797029e-11
3.66211409148e-09
8.72439346491e-10
3.51430927465e-09
7.75419634534e-10
7.00881309941e-12
4.92233149449e-11
3.18109907685e-09
7.76233579323e-10
1.15703745313e-12
6.83731087314e-11
3.30837987658e-09
8.79434519539e-10
6.88258387797e-11
3.40961812386e-09
9.60367060167e-10
5.8750557885e-11
3.48843424903e-09
1.02191144008e-09
4.4094533611e-11
3.54980432107e-09
1.06666826573e-09
2.83468231299e-11
3.59429470487e-09
1.09692255173e-09
1.30076094439e-11
3.62192161909e-09
1.11452832182e-09
-1.9210806561e-12
3.6319960713e-09
1.12048957937e-09
-1.74410638737e-11
3.62238481012e-09
1.11450432604e-09
-3.35511269822e-11
3.59521865088e-09
1.0968780607e-09
-4.87414757621e-11
3.55117275663e-09
1.06660060623e-09
-5.95041807856e-11
3.49019655458e-09
1.02180954014e-09
-5.98617282434e-11
3.41167812989e-09
9.60220009791e-10
-4.16694009257e-11
3.31075593712e-09
8.79326798535e-10
3.18375306973e-09
7.76349409853e-10
7.49187885551e-12
6.39905867492e-11
2.80349058952e-09
7.58836402068e-10
1.10154587854e-12
9.53035210217e-11
2.90790609619e-09
8.66432142373e-10
1.02544234627e-10
2.9918188629e-09
9.52290379008e-10
9.29437021428e-11
3.05821180551e-09
1.01883528573e-09
7.30560911932e-11
3.11013629424e-09
1.06811870632e-09
4.76935536836e-11
3.14769700713e-09
1.10193907587e-09
1.99947476745e-11
3.1708539318e-09
1.12178105331e-09
-8.21806613131e-12
3.17922009101e-09
1.1284681727e-09
-3.60967283382e-11
3.17146158113e-09
1.12178490867e-09
-6.18190098308e-11
3.14891203761e-09
1.10195067623e-09
-8.22435469399e-11
3.11194469607e-09
1.06813488581e-09
-9.25462946172e-11
3.06056965839e-09
1.018840952e-09
-8.61514173829e-11
2.99463120926e-09
9.52263937622e-10
-5.58553803519e-11
2.9111582713e-09
8.66447169237e-10
2.80703026584e-09
7.59051301203e-10
7.95667047533e-12
8.10419159423e-11
2.39651563528e-09
7.22389623284e-10
1.03468499452e-12
1.25979624461e-10
2.47836352946e-09
8.32832078639e-10
1.40118370199e-10
2.5471245973e-09
9.22940093423e-10
1.30549035704e-10
2.60277467977e-09
9.94337563263e-10
1.04735862085e-10
2.64623483071e-09
1.0482795406e-09
6.88227423288e-11
2.67743704277e-09
1.08588892951e-09
2.76302949643e-11
2.69646775776e-09
1.10814512871e-09
-1.50966641825e-11
2.70324212354e-09
1.11561741685e-09
-5.64722009412e-11
2.69719386286e-09
1.10818555657e-09
-9.27524026429e-11
2.67888903373e-09
1.08597444659e-09
-1.19117062921e-10
2.64840417788e-09
1.04840825753e-09
-1.29419894851e-10
2.60563147235e-09
9.94493230013e-10
-1.16178032862e-10
2.55059596239e-09
9.2308914998e-10
-7.23376197559e-11
2.48242683122e-09
8.33019944879e-10
2.40086431134e-09
7.22734531407e-10
8.42186024704e-12
9.90655575474e-11
6.6586961845e-10
9.63122157398e-13
1.97928208187e-09
1.57967917526e-10
7.78179586726e-10
2.04047881379e-09
1.78517757295e-10
8.72163690717e-10
2.09746533933e-09
1.68879654387e-10
9.48439423446e-10
2.1436274686e-09
1.37198697406e-10
1.00726124121e-09
2.17922675166e-09
9.06087298687e-11
1.0489245523e-09
2.20457098577e-09
3.55361559478e-11
1.07379191788e-09
2.21985989575e-09
-2.21891110821e-11
1.08211326508e-09
2.22521484893e-09
-7.7458416295e-11
1.07387136551e-09
2.22068102892e-09
-1.24440713605e-10
1.04908922797e-09
2.20621391521e-09
-1.56710819864e-10
1.00751255287e-09
2.1816847184e-09
-1.67134230357e-10
9.48766099753e-10
2.14688430213e-09
-1.4756308524e-10
8.72523962453e-10
2.10148285984e-09
-8.98604605342e-11
7.78608560472e-10
2.04523634007e-09
6.66301668784e-10
8.85858583471e-12
1.9843681041e-09
-4.30031295257e-12
4.74978882928e-11
-6.06351152653e-12
8.6203899215e-14
-7.64118307055e-12
5.13946716787e-11
-9.40851609765e-12
-9.49234851523e-12
5.45289837826e-11
-1.45136836575e-11
-9.67637396403e-12
5.72320482298e-11
-2.02649180445e-11
-8.23970273336e-12
5.93726186454e-11
-2.57415977229e-11
-5.46053390302e-12
6.09847982471e-11
-3.02063965639e-11
-1.79062846041e-12
6.20225570466e-11
-3.31228605314e-11
2.19484145022e-12
6.2405744568e-11
-3.41483148725e-11
5.87684334145e-12
6.2003707595e-11
-3.3117457093e-11
8.67581992001e-12
6.092724179e-11
-3.01954158375e-11
1.01190576427e-11
5.92382613306e-11
-2.57242954243e-11
9.90126617258e-12
5.7005605594e-11
-2.02389569992e-11
7.98700333651e-12
5.42678073234e-11
-1.44724524236e-11
4.55935733461e-12
5.11364386138e-11
-9.33190913939e-12
4.74254492851e-11
-5.89118770206e-12
2.65901079159e-13
-1.01487143052e-11
1.64694956681e-10
2.15506396754e-11
2.17928727003e-13
-1.85748291888e-11
1.78058058513e-10
1.80914860115e-11
-2.35905139557e-11
1.88752738551e-10
9.39887598135e-12
-2.43910578431e-11
1.97666668901e-10
-1.76449833763e-12
-2.0951053143e-11
2.04722940865e-10
-1.30436809602e-11
-1.39233801186e-11
2.09972640961e-10
-2.2530758722e-11
-4.49917956732e-12
2.13309385686e-10
-2.88185349885e-11
5.77694454706e-12
2.1452964639e-10
-3.10248716365e-11
1.52219796397e-11
2.13247628041e-10
-2.88038764821e-11
2.22770082094e-11
2.09811879388e-10
-2.25008448719e-11
2.57068302629e-11
2.04397254593e-10
-1.29959799303e-11
2.4804140166e-11
1.97143499397e-10
-1.69187400783e-12
1.9601081917e-11
1.88128716735e-10
9.51525968615e-12
1.09331701831e-11
1.77468517127e-10
1.83080767016e-11
1.64471350307e-10
2.2003144753e-11
7.69509783543e-13
-1.36143982037e-11
3.27841301785e-10
8.03895971582e-11
3.20663724625e-13
-2.53859328472e-11
3.54175509403e-10
8.22934798919e-11
-3.27700346849e-11
3.7516983952e-10
7.56835556599e-11
-3.42633038447e-11
3.92292918282e-10
6.44269396865e-11
-2.96334766618e-11
4.05743299248e-10
5.18935960035e-11
-1.97304749722e-11
4.15631099887e-10
4.08556779183e-11
-6.27624768105e-12
4.21858246013e-10
3.33879569164e-11
8.44413208989e-12
4.2412413356e-10
3.07711513746e-11
2.19159761264e-11
4.21746997193e-10
3.34092967288e-11
3.18325717314e-11
4.15366405356e-10
4.08993338375e-11
3.64162313978e-11
4.05254642268e-10
5.1963802195e-11
3.47520540086e-11
3.91550838422e-10
6.4534840215e-11
2.70702023059e-11
3.7428937229e-10
7.5856751331e-11
1.49232503484e-11
3.5337946489e-10
8.26121882869e-11
3.27532695968e-10
8.10387921329e-11
1.26396720518e-12
-1.48944865315e-11
5.13924822104e-10
1.61443034347e-10
4.04115721491e-13
-2.83292382589e-11
5.54635193193e-10
1.7289514089e-10
-3.72038161244e-11
5.8687429554e-10
1.72819927981e-10
-3.93699701669e-11
6.12671344981e-10
1.65710644668e-10
-3.42956221704e-11
6.32693685729e-10
1.55582322871e-10
-2.28655602857e-11
6.47233329117e-10
1.45800433778e-10
-7.11243678473e-12
6.56312602259e-10
1.38925193258e-10
1.01865134544e-11
6.59604186868e-10
1.3651700401e-10
2.59432416255e-11
6.56153482537e-10
1.38949595305e-10
3.73552485227e-11
6.46877685388e-10
1.45850530656e-10
4.23319197221e-11
6.3208283543e-10
1.55663757496e-10
3.99234220887e-11
6.11791105471e-10
1.65837367661e-10
3.06556422937e-11
5.85842150627e-10
1.73024366197e-10
1.67318909821e-11
5.53723756214e-10
1.73269353628e-10
5.13567942854e-10
1.62195868732e-10
1.76718730773e-12
-1.41438839719e-11
7.03222632411e-10
2.56360558285e-10
4.74996303847e-13
-2.76605425719e-11
7.57993203147e-10
2.80359514766e-10
-3.71226083821e-11
8.00947322765e-10
2.9011480123e-10
-3.9868222223e-11
8.34687255353e-10
2.90356990527e-10
-3.50278680689e-11
8.60479129829e-10
2.85435055874e-10
-2.33722455138e-11
8.78959444902e-10
2.7907585108e-10
-7.02411154978e-12
8.90397306924e-10
2.7416571804e-10
1.10085027487e-11
8.9453279008e-10
2.72442092609e-10
2.73392873047e-11
8.90203000069e-10
2.74190027596e-10
3.89342281837e-11
8.78542269284e-10
2.79126007488e-10
4.36164978223e-11
8.59798302392e-10
2.85517583323e-10
4.05553255451e-11
8.33744715531e-10
2.90487054183e-10
3.0616216832e-11
7.99861015452e-10
2.90325864324e-10
1.65140776209e-11
7.57046247318e-10
2.80748041564e-10
7.0286493726e-10
2.5714514954e-10
2.27564824228e-12
-1.15225977584e-11
8.79519722236e-10
3.57771889143e-10
5.37832261711e-13
-2.36285646791e-11
9.46648525923e-10
3.96255211504e-10
-3.27587288568e-11
9.98674400003e-10
4.18085884615e-10
-3.59278895898e-11
1.03877121813e-09
4.27934789299e-10
-3.19317156415e-11
1.06889237486e-09
4.30233318421e-10
-2.13014400231e-11
1.09015066417e-09
4.28875103963e-10
-6.02982218926e-12
1.10317726425e-09
4.26934262702e-10
1.0917001746e-11
1.10787431042e-09
4.26239949401e-10
2.61463453982e-11
1.10296344084e-09
4.26956329862e-10
3.66675715368e-11
1.08970499269e-09
4.28920964475e-10
4.04409199103e-11
1.06819405467e-09
4.30309709417e-10
3.68845198532e-11
1.03783750356e-09
4.28056395618e-10
2.72007534337e-11
9.97618015446e-10
4.18284092392e-10
1.44300251223e-11
9.45746850503e-10
3.96627125103e-10
8.79195584305e-10
3.58541128838e-10
2.78429602382e-12
-7.22570136906e-12
1.03010861621e-09
4.59207946635e-10
5.93492760527e-13
-1.65207807314e-11
1.10690320151e-09
5.13175797175e-10
-2.44104142182e-11
1.16557942869e-09
5.48391211068e-10
-2.77960246016e-11
1.20993284145e-09
5.69254017138e-10
-2.51806084652e-11
1.24261884598e-09
5.8008367243e-10
-1.67539128888e-11
1.26529856366e-09
5.84780372359e-10
-4.16600018744e-12
1.27903902355e-09
5.86485700288e-10
9.93694182628e-12
1.2839793638e-09
5.87049479971e-10
2.24561985025e-11
1.27882568836e-09
5.86504748801e-10
3.07241767015e-11
1.26486407337e-09
5.8482036034e-10
3.30520164635e-11
1.24195890239e-09
5.80150914524e-10
2.92110355702e-11
1.20907621025e-09
5.69361093682e-10
2.06983433646e-11
1.16462644548e-09
5.48565123698e-10
1.06692516723e-11
1.10612001145e-09
5.13512936416e-10
1.02986372621e-09
4.59934544956e-10
3.29298504466e-12
-1.46564451652e-12
1.14576644645e-09
5.55061697356e-10
6.41992327083e-13
-6.6697327102e-12
1.22889452328e-09
6.2470355393e-10
-1.24539965254e-11
1.29136878646e-09
6.7380266698e-10
-1.58174766011e-11
1.33769219068e-09
7.06354466503e-10
-1.50426263014e-11
1.37114040549e-09
7.26422399709e-10
-9.89784118947e-12
1.39391814629e-09
7.37780885119e-10
-1.49266234818e-12
1.40753883204e-09
7.43531909419e-10
8.11872444939e-12
1.4124192455e-09
7.45485009019e-10
1.64293247811e-11
1.40734489841e-09
7.43549204142e-10
2.13671577954e-11
1.39353127479e-09
7.37817599689e-10
2.17929047995e-11
1.3705697932e-09
7.26483690483e-10
1.79103183273e-11
1.33697407808e-09
7.06449270366e-10
1.14418019985e-11
1.29058953769e-09
6.73951829492e-10
5.43961837956e-12
1.22829615367e-09
6.25002458851e-10
1.14566433853e-09
5.55736369713e-10
3.79680721234e-12
5.52985003239e-12
1.22062636173e-09
6.4053573582e-10
6.85561995986e-13
5.54315249753e-12
1.30644183322e-09
7.25351945369e-10
2.65095090906e-12
1.36977061304e-09
7.88154328552e-10
-4.47554238167e-13
1.41586825807e-09
8.32466752492e-10
-1.89605399804e-12
1.44847229775e-09
8.61990967407e-10
-9.82290740625e-13
1.4702382864e-09
8.80260821163e-10
1.9008709359e-12
1.48306397915e-09
8.90237609482e-10
5.54291440471e-12
1.48763934842e-09
8.93634589687e-10
8.30724226294e-12
1.48290739771e-09
8.9025675646e-10
8.9694193027e-12
1.46993292791e-09
8.80301655085e-10
7.11569052976e-12
1.44803713274e-09
8.62056542787e-10
3.44027314818e-12
1.41534201394e-09
8.325608736e-10
-1.91374067712e-13
1.36922511731e-09
7.8829026546e-10
-1.03309709794e-12
1.30609201828e-09
7.25624342221e-10
1.22072504884e-09
6.411658096e-10
4.29058326977e-12
1.35164464499e-11
1.25194501537e-09
7.11567463924e-10
7.23023482809e-13
1.968941088e-11
1.336820642e-09
8.10477935929e-10
2.03538956665e-11
1.39827355877e-09
8.86256431152e-10
1.77356631498e-11
1.44227746703e-09
9.41937279681e-10
1.37562580436e-11
1.47280461244e-09
9.8077294573e-10
9.65140375575e-12
1.49278394077e-09
1.00594522899e-09
5.89157972248e-12
1.5043722882e-09
1.02017127987e-09
2.32437515e-12
1.50848117321e-09
1.02501253781e-09
-1.57659827451e-12
1.50426703536e-09
1.02019813155e-09
-5.97313965591e-12
1.49258647958e-09
1.00600190638e-09
-1.04079278415e-11
1.47254062087e-09
9.80860019796e-10
-1.36542541998e-11
1.44198689784e-09
9.42052483835e-10
-1.37782195712e-11
1.39801441559e-09
8.86404179321e-10
-8.51181230916e-12
1.33677918697e-09
8.10751077208e-10
1.25231203251e-09
7.12176459263e-10
4.76932685517e-12
2.224114131e-11
1.23984402256e-09
7.64731420617e-10
7.56713211414e-13
3.52920943926e-11
1.3204728314e-09
8.76165327803e-10
4.00022724081e-11
1.37778848383e-09
9.63778828322e-10
3.80138492093e-11
1.41832644067e-09
1.03011737069e-09
3.12673550442e-11
1.44601386785e-09
1.07788906039e-09
2.15554769417e-11
1.46382160958e-09
1.10979982813e-09
1.03166388295e-11
1.47398827941e-09
1.12820866883e-09
-1.38381324442e-12
1.47756439865e-09
1.13446479027e-09
-1.27842169789e-11
1.47394460201e-09
1.1282530472e-09
-2.28234895297e-11
1.46375193847e-09
1.10989109968e-09
-3.00689666666e-11
1.44594812128e-09
1.07802414953e-09
-3.27299596258e-11
1.41830463653e-09
1.03028641446e-09
-2.8851210559e-11
1.37785694299e-09
9.63975423011e-10
-1.67512607933e-11
1.32079150267e-09
8.76479210778e-10
1.2405374138e-09
7.65356201578e-10
5.22627728399e-12
3.14478071503e-11
1.18697329104e-09
7.97116132243e-10
7.84870973033e-13
5.18138021765e-11
1.26066485973e-09
9.19092130147e-10
6.08140330267e-11
1.31224215018e-09
1.01713380808e-09
5.94939453216e-11
1.34851800899e-09
1.09325622652e-09
4.98169526097e-11
1.37307888588e-09
1.14948856786e-09
3.41542064107e-11
1.38869306159e-09
1.18791440579e-09
1.49662637506e-11
1.39749258222e-09
1.21040788969e-09
-5.3849893605e-12
1.40055384122e-09
1.21803929039e-09
-2.47525299951e-11
1.39751975035e-09
1.2104808435e-09
-4.07743038826e-11
1.38876599134e-09
1.18806159643e-09
-5.09878487941e-11
1.37323166695e-09
1.14970288553e-09
-5.30187715022e-11
1.34878890177e-09
1.09351908435e-09
-4.48866778266e-11
1.31267020134e-09
1.01742517818e-09
-2.55103757479e-11
1.26138400798e-09
9.19494769029e-10
1.18804688728e-09
7.97802045075e-10
5.65449017014e-12
4.09125169552e-11
1.09812801868e-09
8.06181310821e-10
8.06790933195e-13
6.86455296936e-11
1.16312518252e-09
9.36424227217e-10
8.18315296259e-11
1.20812895085e-09
1.04340809937e-09
8.1059248727e-11
1.23987846372e-09
1.12843321614e-09
6.83745714429e-11
1.26140525791e-09
1.19266089685e-09
4.67268703929e-11
1.27507083772e-09
1.23738936003e-09
1.95763065658e-11
1.28272076708e-09
1.26387669711e-09
-9.42900969149e-12
1.2853529329e-09
1.27284592464e-09
-3.67762647146e-11
1.28282564742e-09
1.26398865861e-09
-5.88104194207e-11
1.27530039245e-09
1.23761336687e-09
-7.20655713348e-11
1.2617913612e-09
1.19298644655e-09
-7.35810666669e-11
1.24046051862e-09
1.1288331366e-09
-6.12946999113e-11
1.20893918313e-09
1.04384506888e-09
-3.45832178174e-11
1.16428029154e-09
9.36964183421e-10
1.09963122359e-09
8.06968490733e-10
6.02761495118e-12
5.03224599692e-11
9.79957918446e-10
7.89622477113e-10
8.21233019514e-13
8.47989706289e-11
1.03577166108e-09
9.25870138475e-10
1.01648564453e-10
1.07391638373e-09
1.04046517442e-09
1.0120443116e-10
1.10121161439e-09
1.13361436877e-09
8.56240758207e-11
1.11999961857e-09
1.20542804433e-09
5.83773861847e-11
1.13209390903e-09
1.25627142977e-09
2.3828582072e-11
1.13890166452e-09
1.28667073066e-09
-1.32120002642e-11
1.14121893578e-09
1.29694193277e-09
-4.79728010125e-11
1.13909275188e-09
1.28682906848e-09
-7.56334971957e-11
1.1324915767e-09
1.25658768243e-09
-9.18148054059e-11
1.12063297558e-09
1.2058904971e-09
-9.30324976792e-11
1.10211508064e-09
1.13419066797e-09
-7.71034104374e-11
1.07512401527e-09
1.0410992979e-09
-4.36720063922e-11
1.03738834309e-09
9.26591194766e-10
9.81910907614e-10
7.90529805153e-10
6.35379244205e-12
5.6191440131e-11
7.45423937286e-10
8.34200079797e-13
8.43571113998e-10
9.70866240374e-11
8.86334697931e-10
8.86866251368e-10
1.17515616667e-10
1.00739120589e-09
9.18407354501e-10
1.17695763415e-10
1.10792166712e-09
9.41693585063e-10
9.99149795269e-11
1.18687538844e-09
9.58312808802e-10
6.80895619751e-11
1.24358456913e-09
9.69404015853e-10
2.73721369815e-11
1.2777641109e-09
9.75785678971e-10
-1.63932524644e-11
1.28928154147e-09
9.77952218343e-10
-5.7339823448e-11
1.27796807182e-09
9.76072022004e-10
-8.96076847578e-11
1.2439921418e-09
9.69988600993e-10
-1.08024819228e-10
1.18747635963e-09
9.5921504601e-10
-1.08647666422e-10
1.10868617827e-09
9.42941040745e-10
-8.91659768877e-11
1.00824972369e-09
9.20030580989e-10
-4.9320326886e-11
8.87300863988e-10
8.8895605019e-10
7.46384775241e-10
6.58374745207e-12
8.46021377765e-10
-7.64303949493e-13
1.24979849585e-11
-1.7562765196e-11
2.8204206225e-14
-1.44210145681e-12
1.35875307874e-11
-2.20327711546e-11
-1.80530340604e-12
1.43684331129e-11
-2.81874112121e-11
-1.87035446974e-12
1.49516265774e-11
-3.48929383051e-11
-1.57624183522e-12
1.54332430893e-11
-4.11861976711e-11
-9.89352483599e-13
1.57775050447e-11
-4.62811910193e-11
-2.20129896215e-13
1.59721977082e-11
-4.96013658721e-11
6.05565358696e-13
1.60215834426e-11
-5.07711987519e-11
1.35847630135e-12
1.59143464125e-11
-4.95901379933e-11
1.9165154677e-12
1.56790677733e-11
-4.62584649272e-11
2.18250635272e-12
1.53204196104e-11
-4.11511182753e-11
2.10174290143e-12
1.48351606347e-11
-3.48432604663e-11
1.68598751494e-12
1.42031489618e-11
-2.81175045324e-11
9.6093348983e-13
1.34528603865e-11
-2.19245559313e-11
1.23971556002e-11
-1.73621555287e-11
1.62074570407e-13
-1.71313965318e-12
4.66705110321e-11
-1.05498630761e-11
5.99463481625e-14
-3.24332532837e-12
5.08053106891e-11
-1.71174634301e-11
-4.16955738607e-12
5.38577511553e-11
-2.86773773683e-11
-4.35087284769e-12
5.62349094997e-11
-4.24255369936e-11
-3.68273242351e-12
5.80853152174e-11
-5.59051046197e-11
-2.28808399075e-12
5.93914573419e-11
-6.70857443952e-11
-4.27496825564e-13
6.01591958018e-11
-7.44567166196e-11
1.58078165954e-12
6.03931506761e-11
-7.70492776202e-11
3.39988851525e-12
6.00273339549e-11
-7.44241659084e-11
4.72006779633e-12
5.91581479958e-11
-6.70198941118e-11
5.3061567721e-12
5.779999905e-11
-5.58034552056e-11
5.04678953359e-12
5.5926418329e-11
-4.22816664518e-11
3.98599570793e-12
5.34831409761e-11
-2.84751275933e-11
2.30154559492e-12
5.04666811611e-11
-1.68068405962e-11
4.64288077344e-11
-1.00102299355e-11
4.80588532949e-13
-2.07057874103e-12
9.64203922778e-11
3.30130511293e-11
7.3870637651e-14
-3.97512088358e-12
1.04983970081e-10
3.04594634225e-11
-5.21658663239e-12
1.11412765597e-10
1.98020919973e-11
-5.49419994199e-12
1.1641460644e-10
4.93331573002e-12
-4.65941408071e-12
1.20222226464e-10
-1.06579594675e-11
-2.8443260574e-12
1.22889660492e-10
-2.40423942316e-11
-3.8564000187e-13
1.24474097056e-10
-3.30086015953e-11
2.27907868889e-12
1.24987671089e-10
-3.61578624887e-11
4.6761660936e-12
1.24288928368e-10
-3.29576179355e-11
6.37946803346e-12
1.22556855623e-10
-2.39392400502e-11
7.08102985618e-12
1.19804103853e-10
-1.04987047252e-11
6.6575786728e-12
1.15954548065e-10
5.15831947964e-12
5.20731038444e-12
1.10889071098e-10
2.01162064157e-11
3.05332470636e-12
1.04500821806e-10
3.09328366938e-11
9.60969309203e-11
3.38087094363e-11
7.99636898966e-13
-1.8892546406e-12
1.56932455459e-10
1.03088345923e-10
8.01418413576e-14
-3.7260886874e-12
1.70844447393e-10
1.09250796531e-10
-5.01823091448e-12
1.81444644486e-10
1.04463647152e-10
-5.35841883915e-12
1.89637557643e-10
9.32044946521e-11
-4.54415015789e-12
1.95779585757e-10
7.95912942494e-11
-2.67581557708e-12
2.00044370435e-10
6.71471443259e-11
-9.79591101844e-14
2.02583570712e-10
5.85762271118e-11
2.7081939838e-12
2.03432255806e-10
5.5567942333e-11
5.20833623317e-12
2.02366457876e-10
5.8641956914e-11
6.93328630953e-12
1.99648365456e-10
6.72801659976e-11
7.56471355733e-12
1.95268377318e-10
7.97965615208e-11
7.01094377167e-12
1.89067024033e-10
9.34935326473e-11
5.43762985297e-12
1.80825940748e-10
1.04863104881e-10
3.27249905731e-12
1.70282724098e-10
1.09839885348e-10
1.5655867656e-10
1.04049067748e-10
1.12658695536e-12
-1.18447791433e-12
2.23346714782e-10
1.91362935707e-10
8.33183365474e-14
-2.52193024482e-12
2.43063067879e-10
2.09795876377e-10
-3.59810530304e-12
2.58251342151e-10
2.14721538941e-10
-3.9558351205e-12
2.69892718491e-10
2.10791094406e-10
-3.33717074134e-12
2.78524710432e-10
2.02407148416e-10
-1.77572944281e-12
2.84466541943e-10
1.93420678141e-10
4.40408600125e-13
2.8799439901e-10
1.8684298498e-10
2.8663995827e-12
2.89191308293e-10
1.84532282833e-10
4.9907169775e-12
2.87761069638e-10
1.86920301179e-10
6.37966790429e-12
2.84037247911e-10
1.93577189847e-10
6.76807359503e-12
2.77962978489e-10
2.02648156248e-10
6.13247648838e-12
2.69262444549e-10
2.11128255628e-10
4.70572665796e-12
2.575863054e-10
2.15180949473e-10
2.96993397202e-12
2.42481955096e-10
2.10458901598e-10
2.22957597949e-10
1.92417740012e-10
1.45828309722e-12
3.94193244648e-14
2.90851995667e-10
2.9040912725e-10
8.47994959955e-14
-3.61164262032e-13
3.16365973444e-10
3.23630036534e-10
-9.46346671602e-13
3.36132901351e-10
3.41077918921e-10
-1.2616787126e-12