/*--------------------------------*- C++ -*----------------------------------*\
  =========                 |
  \\      /  F ield         | OpenFOAM: The Open Source CFD Toolbox
   \\    /   O peration     | Website:  https://openfoam.org
    \\  /    A nd           | Version:  7
     \\/     M anipulation  |
\*---------------------------------------------------------------------------*/
FoamFile
{
    version     2.0;
    format      ascii;
    class       surfaceScalarField;
    location    "2.42";
    object      phi;
}
// * * * * * * * * * * * * * * * * * * * * * * * * * * * * * * * * * * * * * //

dimensions      [0 3 -1 0 0 0 0];

internalField   nonuniform List<scalar> 
65775
(
1.01361135754e-12
6.00605623874e-10
5.08884972937e-11
1.87606767699e-14
1.25067272472e-12
6.30124318396e-10
5.59644598836e-11
1.43593307339e-12
6.55963379673e-10
6.05735920991e-11
1.35845445143e-12
6.78368944076e-10
6.4596122929e-11
1.12761435087e-12
6.96339714072e-10
6.78950499611e-11
7.66223839507e-13
7.09543005392e-10
7.03524221962e-11
3.2483918438e-13
7.17846499191e-10
7.18950439661e-11
-1.48669744165e-13
7.20968799587e-10
7.2452564395e-11
-5.93492545711e-13
7.17839658122e-10
7.18961049411e-11
-9.61401042072e-13
7.09529716358e-10
7.03545804632e-11
-1.2017231951e-12
6.96319870252e-10
6.78983874089e-11
-1.2906763717e-12
6.78343146694e-10
6.46008555358e-11
-1.11842058277e-12
6.5593213633e-10
6.0580338315e-11
-8.92209767761e-13
6.30091871535e-10
5.59754256887e-11
6.00598499128e-10
5.09108753212e-11
1.06489026375e-13
3.73416681776e-12
1.07894809752e-09
1.3956479659e-10
4.14966021085e-14
5.88340434616e-12
1.12992686569e-09
1.53406503324e-10
6.64007043868e-12
1.17488413004e-09
1.65888620337e-10
6.36922305278e-12
1.21344330127e-09
1.76711148033e-10
5.25506022944e-12
1.24434229604e-09
1.85536938402e-10
3.51399392273e-12
1.26698731934e-09
1.92083682511e-10
1.38230103041e-12
1.2812209565e-09
1.9618093172e-10
-8.79527766896e-13
1.28657298508e-09
1.97657625521e-10
-3.02079918998e-12
1.28120635252e-09
1.96184163314e-10
-4.78036431968e-12
1.26695861989e-09
1.92090234773e-10
-5.92119422666e-12
1.24429919463e-09
1.85547025333e-10
-6.22544029296e-12
1.21338601677e-09
1.7672535705e-10
-5.50653059596e-12
1.1748132625e-09
1.65908674005e-10
-3.4006225895e-12
1.1298538897e-09
1.53438483267e-10
1.07892738651e-09
1.39624626211e-10
2.93753892801e-13
7.18027202431e-12
1.44718054303e-09
2.15344894872e-10
5.53527477085e-14
1.14090524723e-11
1.51311190383e-09
2.36944081459e-10
1.27939966982e-11
1.57152895832e-09
2.56345075695e-10
1.22124581534e-11
1.62103136731e-09
2.73102274141e-10
1.00176543637e-11
1.66063386674e-09
2.86721167518e-10
6.64906335796e-12
1.68957474082e-09
2.96796253254e-10
2.55973303048e-12
1.70775019451e-09
3.03086509372e-10
-1.76268733462e-12
1.71458416603e-09
3.05346083068e-10
-5.86696129584e-12
1.70773249873e-09
3.03091731258e-10
-9.26465881328e-12
1.68953971246e-09
2.96806820772e-10
-1.15015324381e-11
1.66058061108e-09
2.86737377475e-10
-1.21365186133e-11
1.62095890113e-09
2.73124952017e-10
-1.08133643794e-11
1.57143690121e-09
2.56376616548e-10
-6.65991321913e-12
1.51301845328e-09
2.36992875917e-10
1.44715620118e-09
2.15432294375e-10
4.59292451937e-13
1.1194994267e-11
1.71636496709e-09
2.79500599018e-10
6.37761066441e-14
1.76471568736e-11
1.79199711366e-09
3.08019452585e-10
1.97923072333e-11
1.85900841868e-09
3.33558609418e-10
1.88318052475e-11
1.91514422926e-09
3.55549541151e-10
1.5396365589e-11
1.95990793408e-09
3.73371535667e-10
1.01708249577e-11
1.99251751618e-09
3.86525724724e-10
3.86005364588e-12
2.01297035874e-09
3.94719645384e-10
-2.79826042631e-12
2.02065958165e-09
3.97652715953e-10
-9.12870651396e-12
2.01295424507e-09
3.94726548403e-10
-1.43927983061e-11
1.99248521656e-09
3.86539665382e-10
-1.78842371058e-11
1.95985780177e-09
3.73392828647e-10
-1.89163362746e-11
1.91507385339e-09
3.55579073281e-10
-1.68555404767e-11
1.85891545197e-09
3.33598957435e-10
-1.05060157868e-11
1.79190451223e-09
3.0807985212e-10
1.71634855844e-09
2.79604550483e-10
6.09593125869e-13
1.55263860461e-11
1.89728622707e-09
3.32557391784e-10
6.83796818085e-14
2.4385793284e-11
1.97827553053e-09
3.67217950844e-10
2.74204524037e-11
2.04978930377e-09
3.98176282201e-10
2.60720286562e-11
2.10902703758e-09
4.24760906703e-10
2.12870535302e-11
2.1560440341e-09
4.46251351694e-10
1.40228600209e-11
2.19017274825e-09
4.62079699506e-10
5.26697765167e-12
2.21154063995e-09
4.71917209247e-10
-3.96516042028e-12
2.21957077605e-09
4.75425517346e-10
-1.27449558322e-11
2.21153035404e-09
4.71925558436e-10
-2.00561755272e-11
2.19015167516e-09
4.62096507067e-10
-2.49097662856e-11
2.15600958385e-09
4.46276852806e-10
-2.63462111798e-11
2.10897531147e-09
4.24795830527e-10
-2.34161082637e-11
2.04971547368e-09
3.98222918349e-10
-1.46821584606e-11
1.97820508343e-09
3.67285486893e-10
1.89729307404e-09
3.32669675956e-10
7.48938532515e-13
2.00354251357e-11
2.00036977119e-09
3.75013846865e-10
7.0325839455e-14
3.1459649976e-11
2.08312056716e-09
4.15086145348e-10
3.5496850864e-11
2.15575933336e-09
4.5079316661e-10
3.37803802261e-11
2.21525341255e-09
4.81379189296e-10
2.75780650016e-11
2.26219432158e-09
5.06047028729e-10
1.81395601758e-11
2.29613035372e-09
5.24179733e-10
6.76053126905e-12
2.31733000776e-09
5.35424124241e-10
-5.23838357194e-12
2.32529111847e-09
5.39418285444e-10
-1.66451422313e-11
2.31732958178e-09
5.35433800637e-10
-2.61383503315e-11
2.29612851168e-09
5.24199119258e-10
-3.2420688694e-11
2.26218760223e-09
5.06076166655e-10
-3.42399734262e-11
2.21523625468e-09
4.81418423355e-10
-3.03249441345e-11
2.15572439655e-09
4.50844124271e-10
-1.90453285956e-11
2.0830926701e-09
4.15157538054e-10
2.00041676943e-09
3.75129312969e-10
8.79591447089e-13
2.46371285902e-11
2.03564427433e-09
4.07350910033e-10
7.04438458031e-14
3.87480436685e-11
2.11721809698e-09
4.52146455557e-10
4.38866508065e-11
2.18825708482e-09
4.91973434865e-10
4.18406679545e-11
2.24577274629e-09
5.26009896719e-10
3.41843197696e-11
2.29083633856e-09
5.53402139809e-10
2.24710456545e-11
2.32327034916e-09
5.73500353017e-10
8.32580830118e-12
2.3434769895e-09
5.85935631069e-10
-6.59835224615e-12
2.35105595553e-09
5.90334128461e-10
-2.07747899532e-11
2.3434898944e-09
5.85946657038e-10
-3.25497152764e-11
2.32329477311e-09
5.73522307179e-10
-4.02963952139e-11
2.29086805946e-09
5.53434740694e-10
-4.24583946371e-11
2.24580453371e-09
5.26052895972e-10
-3.74574335768e-11
2.18827889399e-09
4.92027531998e-10
-2.35075700857e-11
2.11725254315e-09
4.52219762671e-10
2.03574939001e-09
4.07466636406e-10
1.00381467017e-12
2.92641222334e-11
2.01273549886e-09
4.30038506845e-10
6.91604291671e-14
4.61530016261e-11
2.09077740376e-09
4.78907092456e-10
5.24849905524e-11
2.15808081111e-09
5.22264221608e-10
5.01644402286e-11
2.21193200839e-09
5.59239364771e-10
4.10423749033e-11
2.25380006553e-09
5.88939522407e-10
2.69807013032e-11
2.28379343762e-09
6.10694297344e-10
9.95218300058e-12
2.30242165856e-09
6.24124522681e-10
-8.03022897871e-12
2.3093951081e-09
6.28853433733e-10
-2.50930995845e-11
2.30245075136e-09
6.24137062104e-10
-3.92226917925e-11
2.2838500121e-09
6.10719092857e-10
-4.84443772108e-11
2.25387926873e-09
5.88975858717e-10
-5.08927645204e-11
2.21202516916e-09
5.59286224789e-10
-4.47121573874e-11
2.15817519148e-09
5.22321205611e-10
-2.79992560805e-11
2.09089227176e-09
4.78981746101e-10
2.0129169973e-09
4.3015339443e-10
1.12324108461e-12
3.38652077448e-11
1.94085949147e-09
4.43537258085e-10
6.6904197299e-14
5.36021341541e-11
2.01353204547e-09
4.958647805e-10
6.12203686203e-11
2.07549261632e-09
5.42200678433e-10
5.86942995322e-11
2.12448900114e-09
5.81642585193e-10
4.81123718029e-11
2.16228521376e-09
6.13271661012e-10
3.16459752341e-11
2.18923965717e-09
6.36404852131e-10
1.16334903931e-11
2.20592352793e-09
6.50654730934e-10
-9.52410573488e-12
2.21215039045e-09
6.5564791942e-10
-2.9573785962e-11
2.20597087938e-09
6.50669118259e-10
-4.61137659994e-11
2.18933269227e-09
6.36433110091e-10
-5.68036628845e-11
2.16241882101e-09
6.13312538736e-10
-5.94682919892e-11
2.12465332892e-09
5.81694157525e-10
-5.2014001633e-11
2.07567271003e-09
5.42261338027e-10
-3.24673403892e-11
2.01374326755e-09
4.95941595767e-10
1.94113483864e-09
4.43651769969e-10
1.23931254428e-12
3.84062784447e-11
1.82881806127e-09
4.48295433842e-10
6.39365001915e-14
6.10556523629e-11
1.89473936913e-09
5.03501405271e-10
7.00630199485e-11
1.95022348041e-09
5.52304145076e-10
6.74105547757e-11
1.99362775083e-09
5.93783280642e-10
5.53815767904e-11
2.02688110687e-09
6.27002287737e-10
3.64595636171e-11
2.05050723078e-09
6.51268456098e-10
1.33682303184e-11
2.06507827036e-09
6.66184480828e-10
-1.10753315275e-11
2.07049120242e-09
6.71383964094e-10
-3.42064423472e-11
2.06514501956e-09
6.66201206409e-10
-5.32071729772e-11
2.05063923195e-09
6.5130112344e-10
-6.53517436158e-11
2.02707343026e-09
6.27049044028e-10
-6.81526813233e-11
1.99387007428e-09
5.93841189264e-10
-5.93212262192e-11
1.95049923714e-09
5.52370306743e-10
-3.68763445329e-11
1.89506011101e-09
5.03582479084e-10
1.82920302491e-09
4.48411402457e-10
1.35323113995e-12
4.28682483687e-11
1.6850033297e-09
4.44741520964e-10
6.05398216519e-14
6.85137357047e-11
1.74317809265e-09
5.02276106987e-10
7.90331666517e-11
1.79148248022e-09
5.53076176823e-10
7.6334154102e-11
1.8289834215e-09
5.96209508736e-10
6.28622065741e-11
1.85759428798e-09
6.30722635046e-10
4.14261601029e-11
1.87787600731e-09
6.55911039474e-10
1.51580221976e-11
1.89033566225e-09
6.71362538474e-10
-1.26832102477e-11
1.89493068302e-09
6.76718797061e-10
-3.89935308905e-11
1.89042199553e-09
6.71382216741e-10
-6.05130782689e-11
1.87804762146e-09
6.55949342791e-10
-7.41077596215e-11
1.85784696956e-09
6.3077709055e-10
-7.69647877154e-11
1.82930725919e-09
5.96276101985e-10
-6.66331304553e-11
1.79186038713e-09
5.53150607077e-10
-4.12065486144e-11
1.74361806197e-09
5.02364592679e-10
1.68551048117e-09
4.44861920771e-10
1.46603210596e-12
4.72489817986e-11
1.51741126158e-09
4.3327293953e-10
5.66338808472e-14
7.60373536357e-11
1.56713639175e-09
4.92616356468e-10
8.82126701457e-11
1.60798077287e-09
5.44993704413e-10
8.55202237731e-11
1.63968914529e-09
5.89449964098e-10
7.05767554724e-11
1.66388976564e-09
6.25006987981e-10
4.65497137124e-11
1.68103418759e-09
6.50942380508e-10
1.70028215203e-11
1.69151686692e-09
6.66821652572e-10
-1.43465238694e-11
1.69533904606e-09
6.7229360013e-10
-4.39379764341e-11
1.69162220931e-09
6.66844952014e-10
-6.80532723793e-11
1.68124432803e-09
6.50987698884e-10
-8.31265737852e-11
1.66420185001e-09
6.25071290771e-10
-8.59867013075e-11
1.64009479783e-09
5.89528151746e-10
-7.40114916992e-11
1.6084638289e-09
5.45079879041e-10
-4.54568815363e-11
1.56770155064e-09
4.9271599296e-10
1.5180488141e-09
4.33401389261e-10
1.57821674824e-12
5.16365824905e-11
1.33359847942e-09
4.14241985071e-10
5.20066034081e-14
8.38318715025e-11
1.37439018065e-09
4.74917032918e-10
9.77551806551e-11
1.40802289173e-09
5.28515079437e-10
9.50205206164e-11
1.43446626393e-09
5.74018181115e-10
7.8512531258e-11
1.45473911887e-09
6.10412962355e-10
5.18019007769e-11
1.46909569824e-09
6.36953038496e-10
1.88895352269e-11
1.47781574645e-09
6.53173362386e-10
-1.60524326772e-11
1.48094223979e-09
6.58727575992e-10
-4.90120665927e-11
1.47793901312e-09
6.53200867944e-10
-7.58161173364e-11
1.46934236126e-09
6.37006640539e-10
-9.24616228564e-11
1.45510782048e-09
6.10489245863e-10
-9.53743503107e-11
1.43495133636e-09
5.74111101507e-10
-8.16645535275e-11
1.40861093989e-09
5.28616849004e-10
-4.97191971464e-11
1.37508392886e-09
4.75031397085e-10
1.33437266758e-09
4.14381257059e-10
1.68332989484e-12
5.64493019953e-11
1.14041067175e-09
3.87942624395e-10
4.57067423787e-14
9.22445802913e-11
1.17239183884e-09
4.49572593356e-10
1.07709942347e-10
1.19973882947e-09
5.04112681664e-10
1.04694148891e-10
1.22170857313e-09
5.50432248558e-10
8.64870431762e-11
1.23860491082e-09
5.87491620367e-10
5.70467373387e-11
1.25055193178e-09
6.14518202667e-10
2.07689539507e-11
1.25775004328e-09
6.31008221666e-10
-1.77537011065e-11
1.26027232182e-09
6.36616952692e-10
-5.4082086386e-11
1.25789051574e-09
6.31040196992e-10
-8.36221921922e-11
1.25083325589e-09
6.14580764253e-10
-1.01975835526e-10
1.23902690976e-09
5.87581320208e-10
-1.05181369474e-10
1.22226855278e-09
5.50542605646e-10
-8.99432996659e-11
1.20042791279e-09
5.04233973934e-10
-5.44149951733e-11
1.17321505426e-09
4.49704654009e-10
1.14132010701e-09
3.88092927494e-10
1.78519912584e-12
6.16276412632e-11
3.54668742844e-10
4.0250457861e-14
9.44456090752e-10
1.00822931583e-10
4.17154088653e-10
9.68416292619e-10
1.17395939414e-10
4.72359810991e-10
9.90914514342e-10
1.13946157326e-10
5.19262369427e-10
1.00915313972e-09
9.40991097201e-11
5.56814336185e-10
1.02318423727e-09
6.20651308026e-11
5.84211856291e-10
1.03313936419e-09
2.25709281646e-11
6.00902638242e-10
1.03911076891e-09
-1.93836555777e-11
6.06539326229e-10
1.04114846422e-09
-5.89332426887e-11
6.00938484745e-10
1.03926946278e-09
-9.10760468205e-11
5.84282296425e-10
1.0334569254e-09
-1.11082050823e-10
5.56916279687e-10
1.02366041992e-09
-1.14736287884e-10
5.19389878174e-10
1.00978674953e-09
-9.84082511637e-11
4.72501912178e-10
9.91702411557e-10
-5.94967238002e-11
4.17309387792e-10
9.69363744719e-10
3.54820246265e-10
1.87576559636e-12
9.45501451702e-10
-7.06981042039e-13
1.71864452597e-11
3.44230638063e-11
7.59812329089e-15
-1.1340493589e-12
1.88256763937e-11
3.76007670494e-11
-1.31774823563e-12
2.04255453214e-11
4.0367280937e-11
-1.29021604945e-12
2.18955397648e-11
4.27053656991e-11
-1.06826533879e-12
2.31233435746e-11
4.45744791664e-11
-6.91929028555e-13
2.40540881977e-11
4.59412430737e-11
-2.15275412047e-13
2.46438168115e-11
4.67916379581e-11
2.961071471e-13
2.48558907083e-11
4.71016525372e-11
7.72094297288e-13
2.46411009115e-11
4.67948870683e-11
1.14684400079e-12
2.40475654446e-11
4.59476907227e-11
1.3650591288e-12
2.31110019211e-11
4.45840537644e-11
1.38536754882e-12
2.18769669428e-11
4.27180706756e-11
1.19162343696e-12
2.04046735944e-11
4.03834631532e-11
7.53171960017e-13
1.8805332011e-11
3.7622108929e-11
1.71808291585e-11
3.44553210708e-11
4.07678506649e-14
-1.4663570384e-12
5.4242543185e-11
1.03996216099e-10
1.89520533177e-14
-2.44946475501e-12
5.91419907109e-11
1.14127912855e-10
-2.91941984016e-12
6.37940792823e-11
1.2304672718e-10
-2.89363227667e-12
6.79960566224e-11
1.30634296572e-10
-2.40991608306e-12
7.14857955188e-11
1.3672931528e-10
-1.55620555707e-12
7.41140862178e-11
1.41201277057e-10
-4.61353666845e-13
7.57737368065e-11
1.43984334635e-10
7.17386012902e-13
7.63704324537e-11
1.44991248222e-10
1.80899202488e-12
7.57656919548e-11
1.43993970321e-10
2.65545189565e-12
7.40960567911e-11
1.41220383119e-10
3.12550612347e-12
7.14545383797e-11
1.3675765771e-10
3.12854206744e-12
6.7950877251e-11
1.30671833049e-10
2.62797573811e-12
6.37421823578e-11
1.23094341007e-10
1.60966748068e-12
5.90934391211e-11
1.14190175569e-10
5.42239620982e-11
1.04085604099e-10
1.25527925097e-13
-1.69138190947e-12
1.02037762182e-10
1.69252067744e-10
2.71515528407e-14
-2.90166686385e-12
1.10938723081e-10
1.86407087375e-10
-3.52634805147e-12
1.19233286959e-10
2.0158237514e-10
-3.53216800721e-12
1.26621269892e-10
2.14527554189e-10
-2.95371899912e-12
1.32720202234e-10
2.24943733284e-10
-1.89558709717e-12
1.37287987546e-10
2.32593527541e-10
-5.22432757444e-13
1.40163000935e-10
2.37350637023e-10
9.6083384889e-13
1.41195676733e-10
2.39062893537e-10
2.32716498629e-12
1.40149261085e-10
2.37366258275e-10
3.37061654909e-12
1.37258518025e-10
2.32624472885e-10
3.92375658332e-12
1.32671937413e-10
2.24989557425e-10
3.87913485104e-12
1.26554371766e-10
2.14588034615e-10
3.20367993418e-12
1.19156856819e-10
2.01658519217e-10
1.93531844018e-12
1.10869681992e-10
1.86505005476e-10
1.02009186002e-10
1.69388237376e-10
2.12631589147e-13
-1.45992769675e-12
1.54313562896e-10
2.28687844737e-10
3.327801916e-14
-2.58458610392e-12
1.67404168138e-10
2.52724018802e-10
-3.21885235822e-12
1.79417346544e-10
2.7405546833e-10
-3.26964418504e-12
1.89977691676e-10
2.92284048409e-10
-2.7454303278e-12
1.98634652689e-10
3.0696558493e-10
-1.73785671598e-12
2.05081350006e-10
3.17752502682e-10
-4.08514127772e-13
2.09124732719e-10
3.24453853582e-10
1.03397208525e-12
2.10575106697e-10
3.26854822452e-10
2.35218812126e-12
2.09105730917e-10
3.24474939627e-10
3.33646100362e-12
2.05041897319e-10
3.17794220359e-10
3.82264704021e-12
1.98572784648e-10
3.07027206929e-10
3.71673865772e-12
1.89895018272e-10
2.92364989828e-10
3.01224795016e-12
1.79323721677e-10
2.74156396089e-10
1.80798259507e-12
1.67321052331e-10
2.52851314675e-10
1.54276640235e-10
2.28859360625e-10
3.02676361403e-13
-8.24087034043e-13
2.05992203582e-10
2.81698435535e-10
3.78966509656e-14
-1.58117508832e-12
2.23040816566e-10
3.12379387776e-10
-2.07935983605e-12
2.38459953144e-10
3.39672972602e-10
-2.17522401583e-12
2.51843718515e-10
3.63026614076e-10
-1.83646685031e-12
2.62728603336e-10
3.81848398916e-10
-1.11471419605e-12
2.70784881929e-10
3.95680118847e-10
-1.31053690256e-13
2.75818026287e-10
4.0426383762e-10
9.45766683955e-13
2.77620430082e-10
4.07325798854e-10
1.91358301573e-12
2.75795071102e-10
4.04289898857e-10
2.60277598484e-12
2.70738305908e-10
3.9573159354e-10
2.89030403532e-12
2.62657858893e-10
3.81924177273e-10
2.72301025535e-12
2.51751804532e-10
3.63125529173e-10
2.13597120495e-12
2.38357088454e-10
3.39794905391e-10
1.27903647542e-12
2.22950414373e-10
3.12530207568e-10
2.05950383007e-10
2.81895940934e-10
3.94833482661e-13
1.63197445181e-13
2.53085861881e-10
3.27747227938e-10
4.14136856697e-14
2.91977845348e-14
2.73549142189e-10
3.64748108814e-10
-1.8967917541e-13
2.91787055178e-10
3.9772148184e-10
-3.19440808355e-13
3.07422843155e-10
4.25962177545e-10
-2.79728130685e-13
3.20030029189e-10
4.48733375208e-10
-5.89134283721e-14
3.29299248936e-10
4.65468736711e-10
2.98121054372e-13
3.35064745151e-10
4.75842689427e-10
7.05513237667e-13
3.37125065428e-10
4.79527416927e-10
1.04182693411e-12
3.35039510479e-10
4.75873302087e-10
1.22063470835e-12
3.29248970947e-10
4.65529088252e-10
1.19590038324e-12
3.19955650092e-10
4.48821851354e-10
9.78799317997e-13
3.07328549503e-10
4.2607680312e-10
6.53250830309e-13
2.91682898007e-10
3.97860985765e-10
4.00559693901e-13
2.73459039894e-10
3.64917461082e-10
2.53043135796e-10
3.27963736252e-10
4.88086975307e-13
1.44702981957e-12
2.92604423878e-10
3.66370431715e-10
4.40387143795e-14
2.16442085767e-12
3.1572340713e-10
4.09286567069e-10
2.36045542106e-12
3.36018390766e-10
4.47578360543e-10
2.21610492211e-12
3.5320870281e-10
4.80397198557e-10
1.8609263225e-12
3.66943522599e-10
5.06868843431e-10
1.38891929442e-12
3.76970167303e-10
5.2632378188e-10
8.64320180541e-13
3.83176364781e-10
5.38369376194e-10
3.25348748095e-13
3.85388406321e-10
5.4262947794e-10
-2.24788950954e-13
3.83150966397e-10
5.38404197866e-10
-7.48038945544e-13
3.76920357511e-10
5.26392287262e-10
-1.18046638526e-12
3.6687145815e-10
5.06968808849e-10
-1.42732857164e-12
3.53119406316e-10
4.80525632531e-10
-1.35480072876e-12
3.35921124421e-10
4.47732573332e-10
-7.73786033043e-13
3.15641925436e-10
4.09470511766e-10
2.9256692517e-10
3.66600734985e-10
5.81784920999e-13
2.97394103221e-12
3.22468538714e-10
3.97180731094e-10
4.58916441629e-14
4.74092329186e-12
3.47353222664e-10
4.45538204592e-10
5.4743960129e-12
3.68857551624e-10
4.88719875308e-10
5.3388474117e-12
3.86860494657e-10
5.25748891895e-10
4.50999823098e-12
4.01110401364e-10
5.55624406826e-10
3.17947175568e-12
4.11435614233e-10
5.77580176945e-10
1.54970074515e-12
4.17792416476e-10
5.91157683784e-10
-1.79328671838e-13
4.20050796249e-10
5.9593854349e-10
-1.83922087724e-12
4.17769018448e-10
5.91196545286e-10
-3.22973362431e-12
4.11390477807e-10
5.7765643765e-10
-4.14785303904e-12
4.01046667215e-10
5.55735098994e-10
-4.4001022645e-12
3.86783680221e-10
5.25889826271e-10
-3.80571632028e-12
3.68775883717e-10
4.88886759074e-10
-2.19178567294e-12
3.47289234045e-10
4.45733993715e-10
3.22445005992e-10
3.97421162488e-10
6.74958272265e-13
4.69225389938e-12
3.41423413056e-10
4.19866610122e-10
4.72353620137e-14
7.67384239577e-12
3.67127349611e-10
4.73133306142e-10
9.04932445988e-12
3.88984452766e-10
5.20722867588e-10
8.9456249398e-12
4.07080381385e-10
5.61549229325e-10
7.58026972525e-12
4.21271105474e-10
5.94496994687e-10
5.25440831369e-12
4.31475552746e-10
6.18709874265e-10
2.33305516065e-12
4.37721902452e-10
6.33664579863e-10
-7.89752365909e-13
4.39932114096e-10
6.38906541887e-10
-3.74543475703e-12
4.37702777949e-10
6.33707433651e-10
-6.13927849636e-12
4.31439462148e-10
6.18793735519e-10
-7.60485032299e-12
4.21221891558e-10
5.94618058916e-10
-7.83817927578e-12
4.07023666657e-10
5.61701965781e-10
-6.61603934963e-12
3.88927332527e-10
5.20901258463e-10
-3.80287697728e-12
3.67090713611e-10
4.7333939628e-10
3.41423824661e-10
4.2011487873e-10
7.6662367122e-13
6.55250729154e-12
3.48951993683e-10
4.3418750168e-10
4.81008885698e-14
1.08780392128e-11
3.74540248409e-10
4.91783795414e-10
1.29770606418e-11
3.95949507168e-10
5.43261303733e-10
1.29232037436e-11
4.13494131985e-10
5.87443497838e-10
1.09729618478e-11
4.27131514542e-10
6.23110812832e-10
7.54633234095e-12
4.36865570239e-10
6.4932256493e-10
3.18977115903e-12
4.42788298837e-10
6.65491283628e-10
-1.48373373802e-12
4.44873499299e-10
6.71131943322e-10
-5.87837013982e-12
4.427756503e-10
6.65538197356e-10
-9.38006760097e-12
4.36842760353e-10
6.49414133906e-10
-1.14402220474e-11
4.27102840905e-10
6.23242335388e-10
-1.16351572109e-11
4.13465183554e-10
5.87607998112e-10
-9.70221683731e-12
3.95926213341e-10
5.43450946645e-10
-5.55907994586e-12
3.7454162048e-10
4.91999799941e-10
3.48988391835e-10
4.34442582332e-10
8.55785608268e-13
8.50878133841e-12
3.45190441492e-10
4.39964890708e-10
4.87238561063e-14
1.42691304072e-11
3.69799183366e-10
5.01274630065e-10
1.71444607262e-11
3.90068017611e-10
5.5610063705e-10
1.71482961661e-11
4.06530857617e-10
6.03186580472e-10
1.4577507755e-11
4.19227536222e-10
6.41214098826e-10
9.97862354002e-12
4.28229217428e-10
6.69162222174e-10
4.09173109914e-12
4.336734457e-10
6.86379495184e-10
-2.23564824612e-12
4.35578465394e-10
6.92355867758e-10
-8.16386215535e-12
4.3366945287e-10
6.86430618994e-10
-1.28439182275e-11
4.2822390854e-10
6.69261807523e-10
-1.55329287246e-11
4.19225377995e-10
6.41356543953e-10
-1.56800257344e-11
4.06537268258e-10
6.03363408391e-10
-1.29818432179e-11
3.90087933764e-10
5.56302088106e-10
-7.41609350761e-12
3.69849761313e-10
5.01501106677e-10
3.45275601277e-10
4.40226836654e-10
9.41311172383e-13
1.05215151252e-11
3.30840739475e-10
4.37069369259e-10
4.90189673743e-14
1.77647558936e-11
3.53731998065e-10
5.0145558104e-10
2.14327046247e-11
3.72313922863e-10
5.590955181e-10
2.14859969939e-11
3.87301129804e-10
6.08641777632e-10
1.82704080248e-11
3.98788475999e-10
6.48676447281e-10
1.24647488313e-11
4.0688888878e-10
6.78102563576e-10
5.00720300162e-12
4.11760913209e-10
6.96205546958e-10
-3.01630843183e-12
4.13452975192e-10
7.02455759412e-10
-1.05179291368e-11
4.11767844515e-10
6.96261031787e-10
-1.64099446628e-11
4.06905292813e-10
6.78210528165e-10
-1.97507063685e-11
3.98818871037e-10
6.48830480131e-10
-1.98565622967e-11
3.87350586135e-10
6.08831923708e-10
-1.63750105212e-11
3.7238669555e-10
5.59309910388e-10
-9.33669509016e-12
3.53843271109e-10
5.01693546334e-10
3.30988259703e-10
4.37338803016e-10
1.02191039438e-12
1.25730403705e-11
3.07071905698e-10
4.25404310557e-10
4.89263656048e-14
2.12939792757e-11
3.27696528535e-10
4.92244689671e-10
2.57192233119e-11
3.44215160833e-10
5.52202100301e-10
2.57894957534e-11
3.57472992928e-10
6.03789248591e-10
2.19151029869e-11
3.67597562323e-10
6.45491276491e-10
1.49088463173e-11
3.7471597081e-10
6.76144963677e-10
5.90095084659e-12
3.78978706632e-10
6.94975618064e-10
-3.79291867748e-12
3.80446749185e-10
7.01439693641e-10
-1.2847312445e-11
3.78998928741e-10
6.95035465825e-10
-1.99442597304e-11
3.74758759959e-10
6.76261440369e-10
-2.39496465634e-11
3.67666901026e-10
6.45657399792e-10
-2.4045151845e-11
3.57573633996e-10
6.03993793234e-10
-1.98137406257e-11
3.44350698976e-10
5.5243082671e-10
-1.13060804806e-11
3.27880712458e-10
4.92494852229e-10
3.07296501443e-10
4.25680810922e-10
1.09381696906e-12
1.46707918983e-11
2.75420132901e-10
4.0488984965e-10
4.82341614931e-14
2.47514952862e-11
2.93523387569e-10
4.73676377453e-10
2.98359467723e-11
3.07732343375e-10
5.35522501882e-10
2.98770467858e-11
3.19125570034e-10
5.88750296236e-10
2.53537489367e-11
3.27836984109e-10
6.31786994367e-10
1.72041576127e-11
3.33972929833e-10
6.63422005569e-10
6.73497099243e-12
3.37642019881e-10
6.82825185139e-10
-4.52957776601e-12
3.38894216284e-10
6.89444489566e-10
-1.50473555928e-11
3.37678352888e-10
6.82889000966e-10
-2.32915252336e-11
3.34047255931e-10
6.63546394815e-10
-2.79507131021e-11
3.27952432153e-10
6.31964843746e-10
-2.80808445732e-11
3.19285889337e-10
5.88969753266e-10
-2.31953803471e-11
3.07940746511e-10
5.35766999832e-10
-1.33339501492e-11
2.93792758133e-10
4.73938776986e-10
2.75734359077e-10
4.05170127939e-10
1.15789531731e-12
1.59294128461e-11
3.75503345214e-10
4.79780542336e-14
2.3862163505e-10
2.7433779751e-11
4.46106731849e-10
2.53076569216e-10
3.3281754546e-11
5.09379865139e-10
2.64874722761e-10
3.34164866366e-11
5.63818768992e-10
2.74444635511e-10
2.83830944347e-11
6.07844331022e-10
2.81850718312e-10
1.92427996097e-11
6.4020996751e-10
2.87125313781e-10
7.47494426064e-12
6.60029749202e-10
2.90292487853e-10
-5.19322132587e-12
6.66745903072e-10
2.91365334382e-10
-1.7011800156e-11
6.60096166667e-10
2.90348242316e-10
-2.6250491146e-11
6.40339698115e-10
2.87237719915e-10
-3.14248184282e-11
6.08030639181e-10
2.82021311918e-10
-3.14664416554e-11
5.64050372196e-10
2.74675527715e-10
-2.58228108288e-11
5.09638769411e-10
2.65168115394e-10
-1.45402599624e-11
4.46384522237e-10
2.53442343127e-10
3.75773103547e-10
1.20861751371e-12
2.39039337459e-10
1.39114435857e-13
-1.51902627038e-12
3.58182219674e-11
3.73334663673e-15
1.89956726902e-13
-1.73302145438e-12
3.93048340622e-11
2.06378145817e-13
-2.00404786754e-12
4.23801344104e-11
1.923076691e-13
-2.26760814936e-12
4.50075353442e-11
1.58129873424e-13
-2.49630890595e-12
4.71261297153e-11
1.08201808303e-13
-2.6735378549e-12
4.86854767586e-11
4.74635964213e-14
-2.7879914356e-12
4.9658961635e-11
-1.78718243808e-14
-2.83027603712e-12
5.00131618819e-11
-7.98670767689e-14
-2.79292974007e-12
4.96636572708e-11
-1.32093371451e-13
-2.68239594073e-12
4.86947503041e-11
-1.68893385371e-13
-2.50749740115e-12
4.7139781546e-11
-1.85214213789e-13
-2.28021428517e-12
4.50253779464e-11
-1.73547913955e-13
-2.02021384256e-12
4.24022356527e-11
-1.26873058833e-13
-1.74735673748e-12
3.93325108411e-11
-1.53017692539e-12
3.58566074266e-11
1.11806729994e-14
3.46533274284e-13
-1.23801009517e-12
1.03390402747e-10
9.14035124866e-15
5.19898074969e-13
-1.43531835148e-12
1.13693296893e-10
5.83261877236e-13
-1.781270962e-12
1.22798298622e-10
5.57686773065e-13
-2.14287955437e-12
1.30569441284e-10
4.64878752694e-13
-2.46736299863e-12
1.36827306328e-10
3.21347479298e-13
-2.72353862801e-12
1.41427430088e-10
1.43999460528e-13
-2.89086637627e-12
1.44293654451e-10
-4.70112378296e-14
-2.95408215223e-12
1.45331329071e-10
-2.28030818993e-13
-2.90328362034e-12
1.44307578042e-10
-3.78382673234e-13
-2.74651712518e-12
1.4145490074e-10
-4.79654062667e-13
-2.49774056403e-12
1.36867681754e-10
-5.14521143451e-13
-2.17821040349e-12
1.30622078887e-10
-4.64522952156e-13
-1.82268528905e-12
1.22863259379e-10
-3.05207770875e-13
-1.47511370661e-12
1.13774042204e-10
-1.27005698119e-12
1.03497792514e-10
3.66838762205e-14
5.13975854904e-13
1.6036243014e-12
1.65911647977e-10
1.2784982702e-14
8.13727215508e-13
1.72559239758e-12
1.82979868601e-10
9.36874589971e-13
1.60370428786e-12
1.98107876031e-10
9.12232205375e-13
1.40707602668e-12
2.11033875442e-10
7.68850794363e-13
1.20364680354e-12
2.21447366163e-10
5.35539014784e-13
1.03061693814e-12
2.29102605423e-10
2.4316989944e-13
9.12479931056e-13
2.33866510662e-10
-7.24000290023e-14
8.64928975122e-13
2.35582958077e-10
-3.70811289021e-13
8.93096883997e-13
2.33889110514e-10
-6.15455537228e-13
9.9430322816e-13
2.29147148787e-10
-7.73631897439e-13
1.15471757702e-12
2.21512710712e-10
-8.1565685642e-13
1.34944984994e-12
2.11118783043e-10
-7.14637291825e-13
1.53826688939e-12
1.98212008847e-10
-4.38841070026e-13
1.66098529852e-12
1.83107554314e-10
1.55032637209e-12
1.66076905443e-10
6.53770685597e-14
6.64948400549e-13
6.41169379554e-12
2.23225523903e-10
1.53253062602e-14
1.09639735615e-12
7.06529189715e-12
2.46982090271e-10
1.29409510645e-12
7.39205511134e-12
2.68099428805e-10
1.28168475343e-12
7.56305249564e-12
2.86169548788e-10
1.09204350296e-12
7.64846247859e-12
3.00738780679e-10
7.65754033145e-13
7.68393838498e-12
3.11452292398e-10
3.50234695175e-13
7.6936680602e-12
3.18112447059e-10
-9.96136522512e-14
7.68990753579e-12
3.20501272649e-10
-5.23561958374e-13
7.6682869725e-12
3.18143036788e-10
-8.65800956993e-13
7.63590579569e-12
3.11512509332e-10
-1.07701291245e-12
7.58263942906e-12
3.00826911685e-10
-1.11542135084e-12
7.48471398963e-12
2.86283584331e-10
-9.49055063232e-13
7.30466234366e-12
2.68238190496e-10
-5.51118404173e-13
6.9782572989e-12
2.47149587481e-10
6.33666368926e-12
2.23436467312e-10
9.76076616686e-14
8.16414570871e-13
1.26084437678e-11
2.74691843752e-10
1.70735512166e-14
1.38886757789e-12
1.39287564345e-11
3.04968261805e-10
1.67402933679e-12
1.48562298185e-11
3.31950045645e-10
1.68246754496e-12
1.55345972619e-11
3.55072263884e-10
1.44724812642e-12
1.60263430868e-11
3.73730864236e-10
1.0202857632e-12
1.63583320002e-11
3.87456624615e-10
4.67939540797e-13
1.65506198327e-11
3.95981144334e-10
-1.3194861187e-13
1.6609976664e-11
3.99025376834e-10
-6.9518792802e-13
1.65202621737e-11
3.96019052783e-10
-1.14291303169e-12
1.63005453222e-11
3.87531135532e-10
-1.40677375487e-12
1.59464390989e-11
3.73839598298e-10
-1.43319624822e-12
1.54388983037e-11
3.55212234474e-10
-1.18890038172e-12
1.47500405497e-11
3.32118816803e-10
-6.59597631954e-13
1.38229076202e-11
3.05168806616e-10
1.25133392951e-11
2.74938257043e-10
1.3292507869e-13
9.8374213135e-13
1.96175316088e-11
3.19756610793e-10
1.8141418914e-14
1.71196769872e-12
2.16695742264e-11
3.56300829598e-10
2.0974532706e-12
2.32765313464e-11
3.88938466351e-10
2.13314808769e-12