/*--------------------------------*- C++ -*----------------------------------*\
  =========                 |
  \\      /  F ield         | OpenFOAM: The Open Source CFD Toolbox
   \\    /   O peration     | Website:  https://openfoam.org
    \\  /    A nd           | Version:  7
     \\/     M anipulation  |
\*---------------------------------------------------------------------------*/
FoamFile
{
    version     2.0;
    format      ascii;
    class       volVectorField;
    location    "1.42";
    object      U;
}
// * * * * * * * * * * * * * * * * * * * * * * * * * * * * * * * * * * * * * //

dimensions      [0 1 -1 0 0 0 0];

internalField   nonuniform List<vector> 
22500
(
(2.06024562359e-05 2.30460678632e-05 0.000380280288623)
(1.92146550526e-05 2.59188197384e-05 0.000399159306802)
(1.6819139665e-05 2.88444192156e-05 0.000416377634422)
(1.41497666251e-05 3.13269761752e-05 0.000431225773542)
(1.10033877575e-05 3.33839858965e-05 0.000443245205631)
(7.5358904225e-06 3.49133336435e-05 0.000452079978809)
(3.82986418368e-06 3.58566524253e-05 0.000457484886908)
(8.12027274526e-11 3.6175762748e-05 0.000459312841159)
(-3.82970338465e-06 3.58566136943e-05 0.000457484936972)
(-7.53573569919e-06 3.49132508479e-05 0.000452080077572)
(-1.1003248098e-05 3.33838501845e-05 0.000443245349936)
(-1.41496742098e-05 3.13267686319e-05 0.000431225950099)
(-1.68191467651e-05 2.88441232425e-05 0.000416377796867)
(-1.92148231541e-05 2.5918414229e-05 0.000399159283622)
(-2.06027319266e-05 2.30456089671e-05 0.000380279343336)
(5.95467953726e-05 6.67357457814e-05 0.000962743957266)
(5.54016539743e-05 7.48660713396e-05 0.00100219747757)
(4.86319602134e-05 8.30387029042e-05 0.00103769473888)
(4.08497167806e-05 9.00362379695e-05 0.00106795430351)
(3.17675639722e-05 9.58315626664e-05 0.00109220656652)
(2.17478168055e-05 0.000100141671789 0.00110989721079)
(1.10494718048e-05 0.000102801486697 0.00112066307577)
(-9.12725213619e-10 0.000103700925782 0.00112429033673)
(-1.10512630366e-05 0.00010280141174 0.00112066329378)
(-2.1749497293e-05 0.000100141527905 0.00110989763636)
(-3.17690404608e-05 9.58313567442e-05 0.00109220717847)
(-4.08509170522e-05 9.00359681379e-05 0.00106795504922)
(-4.86328753036e-05 8.30383864916e-05 0.00103769547217)
(-5.5402368842e-05 7.48657266783e-05 0.00100219768867)
(-5.95473014538e-05 6.67354331296e-05 0.000962741987142)
(8.82858870098e-05 9.88672274939e-05 0.0014096777767)
(8.1703818061e-05 0.000110215066559 0.00145907980654)
(7.15327273288e-05 0.000121536097413 0.00150297770365)
(5.98745948416e-05 0.000131191727056 0.0015400313344)
(4.6447497857e-05 0.000139151539813 0.00156947613801)
(3.17364743619e-05 0.000145052249324 0.0015908133677)
(1.61058444114e-05 0.00014868597975 0.0016037385167)
(-3.12888445546e-10 0.000149913359555 0.00160807945428)
(-1.61064706127e-05 0.000148685877753 0.00160373875661)
(-3.17371007832e-05 0.000145052030993 0.0015908138396)
(-4.64481225669e-05 0.000139151180252 0.00156947682949)
(-5.9875238348e-05 0.000131191188025 0.00154003220147)
(-7.15334463056e-05 0.000121535367501 0.00150297859075)
(-8.17047070227e-05 0.00011021414729 0.0014590800653)
(-8.82868436745e-05 9.88661957347e-05 0.0014096751687)
(0.000109235272048 0.000122192247377 0.00175425972131)
(0.000100556228075 0.000135271427158 0.00180687424261)
(8.77421058834e-05 0.000148276743233 0.00185300628441)
(7.31719562199e-05 0.000159283756065 0.00189154739392)
(5.6606747744e-05 0.000168312438164 0.00192190490814)
(3.85970597663e-05 0.000174978374343 0.00194375321763)
(1.95624627997e-05 0.000179072735079 0.00195692423805)
(-1.40992298261e-10 0.000180453748166 0.00196133406722)
(-1.95627595173e-05 0.000179072607698 0.0019569244912)
(-3.85974020049e-05 0.000174978101757 0.00194375372107)
(-5.66071709743e-05 0.000168311990574 0.00192190566403)
(-7.31725174933e-05 0.000159283091608 0.0018915483835)
(-8.77428837534e-05 0.000148275845377 0.00185300739338)
(-0.000100557314259 0.000135270287088 0.00180687484094)
(-0.000109236531927 0.000122190910592 0.0017542573886)
(0.000124235580704 0.000138850500182 0.00201990542877)
(0.000113788603097 0.000152611006316 0.00207143926345)
(9.89348185125e-05 0.000166291858186 0.00211596012673)
(8.2209989707e-05 0.000177767405863 0.0021527344208)
(6.34258700604e-05 0.000187131475902 0.00218142223831)
(4.31578056549e-05 0.000194016075926 0.00220191395038)
(2.18465620906e-05 0.000198233347275 0.00221420190868)
(-1.11668816239e-10 0.000199653746082 0.00221830292695)
(-2.18468041718e-05 0.000198233172816 0.00221420215233)
(-4.31581064757e-05 0.000194015714118 0.00220191444535)
(-6.34262781892e-05 0.00018713090716 0.0021814230121)
(-8.22105767094e-05 0.000177766606181 0.00215273550317)
(-9.89356739157e-05 0.000166290826155 0.00211596149353)
(-0.000113789818497 0.0001526097313 0.00207144040228)
(-0.000124237027823 0.000138848982194 0.00201990396074)
(0.000134301215098 0.000149976722737 0.00222388566157)
(0.000122400035016 0.00016361158661 0.00227168173469)
(0.000106026574477 0.000177204219182 0.00231229443582)
(8.77899057188e-05 0.00018849728172 0.0023454111563)
(6.75485971332e-05 0.000197661712034 0.00237096741544)
(4.58702965193e-05 0.000204371115232 0.00238906789752)
(2.31910669938e-05 0.000208469828155 0.00239985744764)
(-1.5789030121e-10 0.000209848328091 0.00240344602204)
(-2.31913992709e-05 0.000208469597378 0.00239985766845)
(-4.5870681495e-05 0.000204370649157 0.00238906836208)
(-6.75490821106e-05 0.000197661007948 0.00237096818637)
(-8.77905636271e-05 0.000188496341154 0.00234541233106)
(-0.000106027501759 0.000177203063545 0.00231229611397)
(-0.000122401328212 0.000163610208301 0.00227168355872)
(-0.000134302772504 0.000149975072492 0.00222388532697)
(0.000140239530989 0.000156455211722 0.00237940583754)
(0.000127183790026 0.000169355970468 0.0024219524702)
(0.000109748355036 0.000182287180943 0.00245743628734)
(9.05494203539e-05 0.00019292485183 0.00248594819625)
(6.94862694544e-05 0.000201507598259 0.00250768079653)
(4.70926546388e-05 0.000207765120296 0.00252292416358)
(2.37804645805e-05 0.000211577468216 0.00253194886696)
(-2.51453232767e-10 0.000212857909421 0.0025349390634)
(-2.37809778407e-05 0.000211577176763 0.00253194906491)
(-4.70932023186e-05 0.000207764542395 0.00252292460086)
(-6.94868884101e-05 0.000201506750067 0.00250768157791)
(-9.0550176559e-05 0.000192923762134 0.00248594949925)
(-0.000109749348927 0.000182285895253 0.00245743834995)
(-0.000127185127162 0.000169354488561 0.00242195507767)
(-0.000140241142908 0.000156453438884 0.00237940671812)
(0.000142794004551 0.000159110878635 0.00249682225004)
(0.00012886639597 0.000170847791633 0.00253342375601)
(0.000110768300261 0.000182709247208 0.00256331365129)
(9.10684262771e-05 0.00019236918602 0.00258692924823)
(6.97016842874e-05 0.000200116981833 0.00260467500692)
(4.71477557497e-05 0.000205743902542 0.002616982221)
(2.37806460541e-05 0.000209163425685 0.00262421107029)
(-3.79784361337e-10 0.000210310507445 0.00262659591106)
(-2.3781407368e-05 0.000209163072015 0.00262421125609)
(-4.71485257506e-05 0.000205743209646 0.00261698265391)
(-6.9702483706e-05 0.000200115983602 0.00260467583724)
(-9.10693089899e-05 0.000192367936769 0.00258693073809)
(-0.000110769367562 0.000182707814679 0.00256331617405)
(-0.000128867762366 0.00017084618526 0.00253342719404)
(-0.000142795633428 0.000159108969767 0.00249682430486)
(0.000142619268982 0.000158677412333 0.00258438552439)
(0.000128080513861 0.000168967620218 0.00261492218457)
(0.000109664265798 0.000179482581395 0.00263927284006)
(8.98456614519e-05 0.000187959275575 0.00265814235802)
(6.8590665095e-05 0.000194718311895 0.00267208753873)
(4.63104716149e-05 0.00019961092698 0.00268163079904)
(2.33323950582e-05 0.000202577894585 0.00268718368578)
(-5.3840536393e-10 0.000203572152292 0.00268900637512)
(-2.33334636997e-05 0.00020257747847 0.0026871838755)
(-4.63115193053e-05 0.000199610117191 0.0026816312594)
(-6.8591693172e-05 0.000194717157547 0.00267208846502)
(-8.98467078193e-05 0.000187957852282 0.00265814409417)
(-0.000109665429037 0.000179480976678 0.00263927587796)
(-0.0001280819124 0.000168965855031 0.00261492643715)
(-0.000142620892074 0.000158675337176 0.00258438861577)
(0.000140274122848 0.000155784988048 0.00264871893828)
(0.000125358220184 0.000164457960259 0.00267346296993)
(0.000106918172485 0.000173448077134 0.00269266774714)
(8.72952530985e-05 0.000180621066979 0.00270721835315)
(6.64801714854e-05 0.000186310120426 0.00271776073601)
(4.4806697579e-05 0.000190418864703 0.00272485969685)
(2.25509888678e-05 0.00019290693341 0.0027289430052)
(-7.27517971633e-10 0.000193740142813 0.00273027509605)
(-2.25524255271e-05 0.000192906455693 0.00272894321273)
(-4.48080825416e-05 0.000190417937623 0.00272486020989)
(-6.64814854947e-05 0.000186308804351 0.00271776178993)
(-8.72965154887e-05 0.000180619453895 0.0027072203639)
(-0.000106919473851 0.00017344627057 0.00269267129955)
(-0.00012535967557 0.000164455993841 0.00267346793104)
(-0.000140275734355 0.000155782707662 0.00264872282458)
(0.000136230957639 0.000150971876044 0.00269514478952)
(0.000121141284524 0.000157935103038 0.00271461710037)
(0.000102927521351 0.000165290988041 0.00272926855557)
(8.37581101227e-05 0.000171100026815 0.00274007794471)
(6.36378504582e-05 0.000175690083582 0.00274772181236)
(4.28200558396e-05 0.000179003440524 0.00275276532349)
(2.15296440916e-05 0.000181009130819 0.00275562377803)
(-9.50493056384e-10 0.000181680646967 0.00275654894313)
(-2.15315168877e-05 0.000181008593321 0.00275562400551)
(-4.28218473678e-05 0.000179002397533 0.0027527658876)
(-6.36395204477e-05 0.000175688602083 0.00274772297757)
(-8.3759657311e-05 0.000171098209422 0.00274008018287)
(-0.000102929022503 0.00016528895022 0.00272927251619)
(-0.000121142841351 0.000157932892119 0.00271462252898)
(-0.000136232573129 0.000150969348718 0.00269514908278)
(0.000130883807069 0.0001446968392 0.00272792285018)
(0.000115794054751 0.000149899051324 0.00274278415879)
(9.80216961972e-05 0.000155556772343 0.00275356940043)
(7.95162277953e-05 0.000159986368925 0.00276127161001)
(6.02823588459e-05 0.000163486808306 0.00276655052814)
(4.04983978924e-05 0.000166019047554 0.00276994003614)
(2.03426761809e-05 0.000167553208836 0.00277182236312)
(-1.2116212974e-09 0.000168066938605 0.00277242491921)
(-2.03450622487e-05 0.000167552616986 0.00277182258938)
(-4.05006756292e-05 0.00016601789629 0.00276994059779)
(-6.02844681101e-05 0.000163485166755 0.00276655169817)
(-7.95181449205e-05 0.000159984342293 0.00276127389157)
(-9.80234772319e-05 0.000155554482701 0.00275357348522)
(-0.000115795777675 0.000149896558591 0.00274278961697)
(-0.0001308854643 0.000144694028817 0.00272792694803)
(0.00012455050687 0.000137324560626 0.00275043735259)
(0.000109627935645 0.000140729412178 0.00276141219163)
(9.24870933869e-05 0.000144670022431 0.002769037585)
(7.48079088544e-05 0.000147746519909 0.00277425495099)
(5.65909953755e-05 0.000150195912651 0.0027776774999)
(3.79575893574e-05 0.000151975876287 0.00277978854674)
(1.90471746826e-05 0.000153055501033 0.00278092469166)
(-1.51292256257e-09 0.000153417005024 0.00278128208988)
(-1.90501559114e-05 0.000153054865253 0.0027809248618)
(-3.79604382543e-05 0.000151974636096 0.00277978897656)
(-5.6593633549e-05 0.000150194134327 0.00277767843373)
(-7.48102898967e-05 0.000147744303031 0.00277425688033)
(-9.24892453107e-05 0.000144667484003 0.00276904123278)
(-0.000109629900973 0.000140726620773 0.00276141697571)
(-0.000124552256705 0.00013732145342 0.00275044043982)
(0.000117531091382 0.000129107016666 0.00276535267268)
(0.000102977704904 0.000130730046375 0.0027731913594)
(8.65953916812e-05 0.000132969702618 0.00277832657613)
(6.98268513708e-05 0.000134770436438 0.00278161911054)
(5.26936696469e-05 0.000136223232057 0.00278363247101)
(3.52772761172e-05 0.000137281317399 0.00278479080685)
(1.7681262804e-05 0.000137921673999 0.0027853784842)
(-1.852408632e-09 0.000138135655186 0.00278555698928)
(-1.76849145946e-05 0.000137921008536 0.00278537850824)
(-3.52807707348e-05 0.000137280017179 0.00278479089501)
(-5.26969125531e-05 0.000136221357982 0.00278363277598)
(-6.98297771917e-05 0.000134768073581 0.00278162002166)
(-8.65979979889e-05 0.000132966946898 0.00277832881251)
(-0.000102979986174 0.000130726959838 0.00277319438354)
(-0.000117532998311 0.000129103579673 0.00276535377873)
(0.000110256526553 0.000120458438412 0.00277476953239)
(9.62593762009e-05 0.000119598126204 0.00278027332777)
(8.05048915209e-05 0.000120453036832 0.00278346360435)
(6.46630826224e-05 0.000121124486304 0.00278528681655)
(4.86408282103e-05 0.000121671682044 0.00278625451506)
(3.24880179446e-05 0.000122063003632 0.00278672374074)
(1.62601802465e-05 0.00012229623426 0.00278692201928)
(-2.21537162899e-09 0.000122373484408 0.00278697473692)
(-1.62645466523e-05 0.00012229557997 0.00278692181226)
(-3.24921951144e-05 0.000122061721819 0.00278672328575)
(-4.8644707053e-05 0.000121669820702 0.00278625379876)
(-6.46665862927e-05 0.000121122101774 0.00278528596732)
(-8.05079961527e-05 0.000120450182893 0.00278346321987)
(-9.62620006959e-05 0.000119594816282 0.00278027250315)
(-0.000110258684042 0.000120454732789 0.00277476872036)
(5.87062464818e-07 9.28946989986e-07 0.000250149464327)
(3.76013606901e-07 1.20037956177e-06 0.00026257977096)
(2.88846882702e-07 1.35807584627e-06 0.000273857880169)
(1.97989608733e-07 1.48198429215e-06 0.000283595204368)
(1.23999227014e-07 1.56876460022e-06 0.000291489000789)
(6.90779469116e-08 1.62420535353e-06 0.000297297626414)
(2.98713220994e-08 1.65442758558e-06 0.00030085521647)
(2.37761865185e-10 1.66401525131e-06 0.000302061157379)
(-2.93890757181e-08 1.65442203195e-06 0.000300855450429)
(-6.85877402451e-08 1.62417737362e-06 0.0002972980936)
(-1.23545368394e-07 1.56867668232e-06 0.000291489679217)
(-1.97671466714e-07 1.48178672445e-06 0.000283596016343)
(-2.88776254186e-07 1.35771684081e-06 0.000273858659613)
(-3.76250886223e-07 1.19983171106e-06 0.000262580187658)
(-5.874814383e-07 9.28331921689e-07 0.000250148794736)
(5.23246790758e-06 6.35302245834e-06 0.000713177110375)
(4.55795470289e-06 7.72855075562e-06 0.00074655950889)
(4.02479837097e-06 8.89180048118e-06 0.000776776044336)
(3.3699368962e-06 9.91126631659e-06 0.000802801096424)
(2.61411520794e-06 1.07348008009e-05 0.000823853890617)
(1.78448406926e-06 1.1338260256e-05 0.000839322544632)
(9.04448938084e-07 1.17062943372e-05 0.000848785102484)
(4.49755105459e-10 1.18301330401e-05 0.000851984028785)
(-9.0354998206e-07 1.17061770132e-05 0.000848785895091)
(-1.78360997087e-06 1.13379938701e-05 0.0008393241196)
(-2.61337097816e-06 1.07343157642e-05 0.000823856167586)
(-3.36953236261e-06 9.91049405241e-06 0.000802803823715)
(-4.02495191213e-06 8.89066751324e-06 0.000776778701125)
(-4.55874039994e-06 7.72705863288e-06 0.000746561100016)
(-5.23360003799e-06 6.35141160099e-06 0.000713175798294)
(1.21626270615e-05 1.40728029656e-05 0.00114033510792)
(1.09161524261e-05 1.68108409597e-05 0.00119105432215)
(9.72607607523e-06 1.92697002646e-05 0.0012367541574)
(8.22578884967e-06 2.14488990032e-05 0.00127595916501)
(6.43895457004e-06 2.32342840367e-05 0.00130756396158)
(4.42626936893e-06 2.4556975423e-05 0.00133072406044)
(2.25391790301e-06 2.53700822415e-05 0.001344863049)
(9.24651014206e-10 2.56446981592e-05 0.00134963213353)
(-2.25208361775e-06 2.53698691451e-05 0.00134486427527)
(-4.4245121404e-06 2.45564902255e-05 0.00133072649386)
(-6.43743742771e-06 2.32334186668e-05 0.00130756747976)
(-8.22480699014e-06 2.1447542961e-05 0.00127596339565)
(-9.72595559006e-06 1.9267785018e-05 0.00123675833367)
(-1.09170168539e-05 1.68084000478e-05 0.00119105696919)
(-1.21641348081e-05 1.40701190882e-05 0.00114033352171)
(2.01342774954e-05 2.27403885596e-05 0.00153027546057)
(1.82054339901e-05 2.68421632724e-05 0.00159423397085)
(1.62307375466e-05 3.0571016552e-05 0.00165145089363)
(1.37358086251e-05 3.38836196468e-05 0.00170024389727)
(1.07607055068e-05 3.66035427324e-05 0.00173937474764)
(7.40191823959e-06 3.86211070578e-05 0.00176793409255)
(3.77102790609e-06 3.98625283113e-05 0.0017853178496)
(1.19942793334e-09 4.02818544482e-05 0.00179116777325)
(-3.76866298341e-06 3.9862207157e-05 0.00178531942413)
(-7.39968848203e-06 3.86203982562e-05 0.001767937213)
(-1.07588126255e-05 3.66023312097e-05 0.00173937926443)
(-1.37345843315e-05 3.38817910192e-05 0.00170024937471)
(-1.62305469007e-05 3.05685143522e-05 0.00165145644015)
(-1.82064157579e-05 2.68390427403e-05 0.00159423783543)
(-2.01360644207e-05 2.27369088958e-05 0.00153027436749)
(2.82271836103e-05 3.13732397658e-05 0.00188046114743)
(2.55398198797e-05 3.66851611877e-05 0.00195324707274)
(2.27284366167e-05 4.14830112295e-05 0.00201774183281)
(1.91969956824e-05 4.57414875871e-05 0.00207231095169)
(1.5016930615e-05 4.92319458656e-05 0.00211578036592)
(1.03185484569e-05 5.18165670299e-05 0.0021473388415)
(5.25371517778e-06 5.3405005667e-05 0.00216647564918)
(1.30891091164e-09 5.39410770234e-05 0.00217289938993)
(-5.25114822028e-06 5.34045815045e-05 0.00216647744755)
(-1.03161641549e-05 5.18156552506e-05 0.00214734240868)
(-1.50149499276e-05 4.92304413171e-05 0.00211578555474)
(-1.91957538838e-05 4.57392891559e-05 0.00207231733627)
(-2.27282963372e-05 4.14800767935e-05 0.00201774852605)
(-2.55409199292e-05 3.66815540392e-05 0.00195325221905)
(-2.82291675866e-05 3.13691681624e-05 0.0018804611194)
(3.58525506115e-05 3.93728193002e-05 0.00218924010797)
(3.23691098986e-05 4.56566447907e-05 0.0022665281408)
(2.87210287892e-05 5.12376558221e-05 0.00233421574601)
(2.41836651063e-05 5.61775223725e-05 0.0023909441343)
(1.88711457825e-05 6.02105951759e-05 0.0024357692361)
(1.29432289381e-05 6.31871778066e-05 0.00246810537617)
(6.58285169538e-06 6.50123605877e-05 0.00248762563846)
(1.27484790221e-09 6.56274974449e-05 0.00249416029536)
(-6.5803642647e-06 6.50118391115e-05 0.00248762753806)
(-1.29409529379e-05 6.31860810736e-05 0.0024681091578)
(-1.88693036577e-05 6.02088380969e-05 0.00243577478925)
(-2.41825739789e-05 5.61750275823e-05 0.00239095111072)
(-2.87210279688e-05 5.12344010624e-05 0.0023342233721)
(-3.2370329917e-05 4.56526927917e-05 0.00226653458613)
(-3.58546780717e-05 3.93683179751e-05 0.00218924146651)
(4.26119766755e-05 4.63532523056e-05 0.00245649949155)
(3.83341973371e-05 5.33250462037e-05 0.0025344094716)
(3.38899531329e-05 5.93707149878e-05 0.00260171630065)
(2.84305687331e-05 6.4699234807e-05 0.00265750869547)
(2.21182723394e-05 6.90256173763e-05 0.00270118517502)
(1.51364258222e-05 7.22046804449e-05 0.00273246223349)
(7.68784996814e-06 7.4148203117e-05 0.00275124590705)
(1.11761770882e-09 7.48021396765e-05 0.00275751541684)
(-7.68568202286e-06 7.41475921268e-05 0.00275124780686)
(-1.51344781039e-05 7.22034179328e-05 0.00273246604091)
(-2.21167544308e-05 6.9023643066e-05 0.00270119084666)
(-2.84297652804e-05 6.4696500784e-05 0.00265751601212)
(-3.38901695752e-05 5.93672220493e-05 0.00260172467627)
(-3.83355533193e-05 5.33208582681e-05 0.0025344171667)
(-4.26142116001e-05 4.63484507156e-05 0.00245650235864)
(4.82522659806e-05 5.20824416782e-05 0.0026836440169)
(4.32188740593e-05 5.94425052421e-05 0.00275897415442)
(3.80516227981e-05 6.56393593854e-05 0.00282305214703)
(3.17927500534e-05 7.10703338276e-05 0.00287551568636)
(2.46516045909e-05 7.54495585079e-05 0.00291615816906)
(1.68284281733e-05 7.865048055e-05 0.00294502273073)
(8.53437577925e-06 8.06004734111e-05 0.00296225718113)
(8.59130629744e-10 8.12553610447e-05 0.00296799111227)
(-8.53272408758e-06 8.05997842259e-05 0.00296225900595)
(-1.68269887524e-05 7.86490759309e-05 0.00294502642337)
(-2.46505639792e-05 7.54474036551e-05 0.00291616377314)
(-3.17923525301e-05 7.10674117468e-05 0.00287552314213)
(-3.80521321808e-05 6.56356945949e-05 0.00282306109254)
(-4.32203985566e-05 5.9438164942e-05 0.00275898295475)
(-4.82545962458e-05 5.20774447325e-05 0.00268364831268)
(5.26408726644e-05 5.64522720369e-05 0.00287329322876)
(4.69217114539e-05 6.39077501923e-05 0.00294362377685)
(4.11291145089e-05 6.99724958361e-05 0.00300242777575)
(3.42185580646e-05 7.52489681346e-05 0.00304992105597)
(2.64397252746e-05 7.94686212488e-05 0.00308628807578)
(1.8002432864e-05 8.25341513245e-05 0.00311187898242)
(9.11539467413e-06 8.43942960421e-05 0.00312706010814)
(5.18677640303e-10 8.50177495043e-05 0.00313209314259)
(-9.11441856277e-06 8.43935421502e-05 0.00312706180018)
(-1.80016478968e-05 8.25326304509e-05 0.00311188244869)
(-2.64392881742e-05 7.94663222107e-05 0.0030862934541)
(-3.42186683575e-05 7.52459018665e-05 0.00304992845534)
(-4.11299907831e-05 6.99687105413e-05 0.00300243706412)
(-4.69234442901e-05 6.39033148575e-05 0.00294363339906)
(-5.26433024491e-05 5.64471564674e-05 0.00287329865146)
(5.5740634917e-05 5.94499743719e-05 0.00302889543749)
(4.94288304968e-05 6.67298834802e-05 0.00309258892294)
(4.31248889872e-05 7.24225613221e-05 0.00314485059602)
(3.57240397549e-05 7.7328565108e-05 0.00318643723087)
(2.75048764986e-05 8.12139486605e-05 0.00321787561296)
(1.86788391823e-05 8.40173466181e-05 0.00323977224922)
(9.442903617e-06 8.57111993986e-05 0.0032526681626)
(1.14555030846e-10 8.62777276107e-05 0.00325692699068)
(-9.44272731167e-06 8.57103979443e-05 0.00325266966394)
(-1.86788243115e-05 8.40157411552e-05 0.00323977536996)
(-2.75051467621e-05 8.1211546245e-05 0.00321788057889)
(-3.57247480491e-05 7.73253990258e-05 0.00318644431112)
(-4.31262059795e-05 7.24186989958e-05 0.00314485987489)
(-4.94308216459e-05 6.67253939555e-05 0.0030925988783)
(-5.57431795468e-05 5.94447925949e-05 0.00302890141824)
(5.75851391074e-05 6.11319841833e-05 0.00315435434247)
(5.07888547648e-05 6.79950582124e-05 0.00321048776957)
(4.40966827626e-05 7.31218518213e-05 0.00325562522695)
(3.63711683523e-05 7.74856024383e-05 0.0032909699239)
(2.79049694765e-05 8.09025325569e-05 0.00331731259538)
(1.89023319677e-05 8.33496123808e-05 0.00333544975842)
(9.54116223452e-06 8.4821707531e-05 0.00334604465888)
(-3.37340500081e-10 8.53130418919e-05 0.00334952837271)
(-9.54187917262e-06 8.48208782798e-05 0.00334604588942)
(-1.89031754337e-05 8.33479585612e-05 0.00333545236198)
(-2.79060285245e-05 8.09000724006e-05 0.0033173168655)
(-3.63725497759e-05 7.7482383271e-05 0.00329097626796)
(-4.40985089264e-05 7.31179525699e-05 0.00325563392645)
(-5.07911589511e-05 6.79905455963e-05 0.00321049728617)
(-5.75878282874e-05 6.11267662062e-05 0.0031543599746)
(5.82537449886e-05 6.15989644695e-05 0.0032537098312)
(5.10895007681e-05 6.78344422418e-05 0.00330197675725)
(4.4137603602e-05 7.22429510479e-05 0.00333997582891)
(3.62514142674e-05 7.59354998126e-05 0.00336921356402)
(2.77204501973e-05 7.87900391312e-05 0.00339065697704)
(1.87325127037e-05 8.08188982147e-05 0.00340522701703)
(9.44178133183e-06 8.20342995933e-05 0.00341365854331)
(-8.20678183792e-10 8.24391688634e-05 0.00341641709464)
(-9.44345298257e-06 8.20334680775e-05 0.00341365938015)
(-1.87342732834e-05 8.0817241178e-05 0.00340522883634)
(-2.77223553537e-05 7.87875785134e-05 0.00339066010355)
(-3.62535263453e-05 7.59322842185e-05 0.00336921850833)
(-4.4139997327e-05 7.22390609578e-05 0.00333998306168)
(-5.10921740083e-05 6.78299372195e-05 0.00330198470775)
(-5.82566192755e-05 6.15937426424e-05 0.00325371380259)
(5.78442286313e-05 6.0963318667e-05 0.00333088387239)
(5.04395991129e-05 6.63888091246e-05 0.0033715124938)
(4.33663492587e-05 6.99656025639e-05 0.00340280582318)
(3.54787038639e-05 7.28997213134e-05 0.00342640049227)
(2.70480674414e-05 7.5138553235e-05 0.00344337724585)
(1.82389860155e-05 7.67190632058e-05 0.00345473282526)
(9.18099806058e-06 7.76624213101e-05 0.00346123164913)
(-1.31624008842e-09 7.79761227373e-05 0.00346334538778)
(-9.18364926379e-06 7.76616161291e-05 0.00346123191797)
(-1.82416877417e-05 7.67174568085e-05 0.00345473347856)
(-2.70508435834e-05 7.51361629038e-05 0.00344337857908)
(-3.54815767276e-05 7.2896583966e-05 0.00342640305815)
(-4.33693470406e-05 6.99617816756e-05 0.00340281029162)
(-5.04426808672e-05 6.63843501776e-05 0.00337151736221)
(-5.78473227337e-05 6.0958136201e-05 0.00333088455612)
(5.64803949066e-05 5.93371082618e-05 0.00338948512032)
(4.89897430814e-05 6.38717282766e-05 0.00342325745317)
(4.19465873457e-05 6.6505238651e-05 0.00344859197003)
(3.41963915856e-05 6.86252228813e-05 0.00346717751881)
(2.60017440568e-05 7.02246863079e-05 0.00348023086993)
(1.74999148849e-05 7.13475415734e-05 0.00348879684407)
(8.79840010539e-06 7.20153568592e-05 0.0034936342239)
(-1.80273217424e-09 7.2236980796e-05 0.00349519645907)
(-8.8020106673e-06 7.20146064006e-05 0.00349363371777)
(-1.75035347367e-05 7.13460400059e-05 0.00348879587285)
(-2.60053693406e-05 7.02224390342e-05 0.0034802296061)
(-3.42000148184e-05 6.86222437302e-05 0.00346717642688)
(-4.1950196852e-05 6.65015602454e-05 0.00344859188584)
(-4.89932525784e-05 6.38673604137e-05 0.00342325728725)
(-5.64837421595e-05 5.93319668447e-05 0.00338948081518)
(5.42405858447e-05 5.76568322899e-05 0.00343278733485)
(4.69318017727e-05 6.06553740401e-05 0.0034613152629)
(4.00399444908e-05 6.21738335972e-05 0.00348138123948)
(3.25347386141e-05 6.34028022777e-05 0.00349556124333)
(2.468068891e-05 6.43088213589e-05 0.00350523080871)
(1.65813902141e-05 6.49375266578e-05 0.00351143445872)
(8.32700975955e-06 6.53079525329e-05 0.00351488286742)
(-2.25476717033e-09 6.54301821773e-05 0.00351598703266)
(-8.33151036366e-06 6.53072874622e-05 0.00351488143286)
(-1.65858567854e-05 6.49361933675e-05 0.00351143151774)
(-2.46850901588e-05 6.43068106504e-05 0.00350522630847)
(-3.2539042349e-05 6.34001037381e-05 0.00349555533339)
(-4.00441240768e-05 6.21704330465e-05 0.00348137474202)
(-4.69357128478e-05 6.06512152709e-05 0.00346130696398)
(-5.42442613302e-05 5.76518681115e-05 0.00343277806634)
(-9.13391318272e-08 -2.22494947917e-07 0.000174992958566)
(1.62652537666e-08 -3.33141404691e-07 0.000183741251793)
(9.92687546943e-08 -3.96654072917e-07 0.000191684600558)
(1.48346344828e-07 -4.21954820692e-07 0.000198575950187)
(1.5755076292e-07 -4.21353025985e-07 0.000204181135106)
(1.29114462551e-07 -4.08741113905e-07 0.000208316329401)
(7.22328962095e-08 -3.9598544873e-07 0.000210853735621)
(-2.60766180381e-10 -3.9085012701e-07 0.000211715390446)
(-7.27420965258e-08 -3.96109170705e-07 0.000210854031409)
(-1.29589555429e-07 -4.08975803219e-07 0.000208316882981)
(-1.57963782981e-07 -4.21667248118e-07 0.000204181867608)
(-1.486399705e-07 -4.22300135046e-07 0.000198576741916)
(-9.94408504395e-08 -3.97020054694e-07 0.000191685278316)
(-1.63727677045e-08 -3.33477568164e-07 0.000183741511933)
(9.12613957431e-08 -2.22784104175e-07 0.000174992283577)
(3.34186158784e-07 8.8528470273e-08 0.000523659440081)
(5.69605666938e-07 -3.84694392497e-08 0.000549357557961)
(7.32412179799e-07 -5.46953588207e-08 0.000572738367427)
(7.88762557073e-07 1.49782559571e-08 0.000593023474617)
(7.26610839389e-07 1.30312760358e-07 0.000609525130577)
(5.54192211581e-07 2.48968731671e-07 0.000621702298895)
(2.98930004165e-07 3.35566145317e-07 0.00062917356299)
(-1.3289162636e-09 3.67101005687e-07 0.000631703950822)
(-3.01530402647e-07 3.35261865741e-07 0.000629174480785)
(-5.56619938866e-07 2.48395235837e-07 0.000621704016349)
(-7.28729592305e-07 1.29545818847e-07 0.000609527402597)
(-7.90395583989e-07 1.41435221889e-08 0.000593025926116)
(-7.33481907539e-07 -5.55013314382e-08 0.000572740461012)
(-5.7018894929e-07 -3.90811167269e-08 0.000549358388624)
(-3.34406115261e-07 8.81376208031e-08 0.00052365769189)
(1.43046643197e-06 1.21090084106e-06 0.000866809905268)
(1.71519351202e-06 1.26962216265e-06 0.000908646462001)
(1.86941503775e-06 1.48070682391e-06 0.000946685657735)
(1.83666898992e-06 1.79732932453e-06 0.000979653220777)
(1.60264328316e-06 2.14642962585e-06 0.00100644796069)
(1.18433445545e-06 2.45590837646e-06 0.0010262079298)
(6.28586955089e-07 2.6668874089e-06 0.00103832349167)
(-1.223856988e-09 2.74158059211e-06 0.00104241972186)
(-6.30988803207e-07 2.66641637886e-06 0.00103832502898)
(-1.18659994552e-06 2.45500542772e-06 0.00102621081769)
(-1.60466294667e-06 2.14518851023e-06 0.0010064518091)
(-1.83829250187e-06 1.79589590796e-06 0.000979657420577)
(-1.87057678818e-06 1.47919395768e-06 0.000946689329112)
(-1.71597546767e-06 1.26822311584e-06 0.0009086481735)
(-1.43098200259e-06 1.20969560412e-06 0.000866807632307)
(3.30141137748e-06 3.23298922771e-06 0.00120158503291)
(3.56579520924e-06 3.67305501906e-06 0.00125821810444)
(3.62179225446e-06 4.29106405134e-06 0.00130956003556)
(3.39394996072e-06 5.00741256142e-06 0.00135394325208)
(2.86993701501e-06 5.7109484099e-06 0.00138993704265)
(2.07948981222e-06 6.29789089935e-06 0.00141643514174)
(1.09189391706e-06 6.68526350695e-06 0.00143265977434)
(-1.21714443141e-09 6.8204494372e-06 0.00143813646911)
(-1.09429298874e-06 6.6846856111e-06 0.00143266184652)
(-2.08178323312e-06 6.29677445802e-06 0.00141643904875)
(-2.87203698921e-06 5.70938932839e-06 0.00138994228619)
(-3.39573311862e-06 5.00555981267e-06 0.00135394904084)
(-3.62319713311e-06 4.28905161759e-06 0.00130956521848)
(-3.5668693209e-06 3.67108232029e-06 0.00125822084522)
(-3.30223178661e-06 3.23116780456e-06 0.00120158273081)
(5.80147839126e-06 5.96470574535e-06 0.00152417288503)
(5.9814862823e-06 6.90992235901e-06 0.00159360153844)
(5.86018792462e-06 8.04156465979e-06 0.0016562116237)
(5.347038254e-06 9.24234734463e-06 0.00171010475838)
(4.43667911626e-06 1.03623145843e-05 0.00175365101186)
(3.17503162686e-06 1.12681638638e-05 0.00178561601694)
(1.65550403907e-06 1.18554480662e-05 0.00180514573011)
(-1.22972050782e-09 1.20587086938e-05 0.00181172670463)
(-1.65793950472e-06 1.1854792667e-05 0.00180514820637)
(-3.17739329254e-06 1.12668907056e-05 0.00178562070593)
(-4.4388999275e-06 1.03605152596e-05 0.00175365735734)
(-5.34901897212e-06 9.24016724842e-06 0.00171011186361)
(-5.86186850735e-06 8.0391533802e-06 0.00165621816914)
(-5.98287650546e-06 6.90748170433e-06 0.00159360539788)
(-5.80259776762e-06 5.96235056427e-06 0.00152417095787)
(8.74475386609e-06 9.17914989922e-06 0.00183037057135)
(8.78197204853e-06 1.06797009222e-05 0.00190997790588)
(8.41694923614e-06 1.23551351909e-05 0.00198122446483)
(7.54845964809e-06 1.40539481457e-05 0.00204218445292)