/*--------------------------------*- C++ -*----------------------------------*\
  =========                 |
  \\      /  F ield         | OpenFOAM: The Open Source CFD Toolbox
   \\    /   O peration     | Website:  https://openfoam.org
    \\  /    A nd           | Version:  7
     \\/     M anipulation  |
\*---------------------------------------------------------------------------*/
FoamFile
{
    version     2.0;
    format      ascii;
    class       surfaceScalarField;
    location    "0.82";
    object      phi;
}
// * * * * * * * * * * * * * * * * * * * * * * * * * * * * * * * * * * * * * //

dimensions      [0 3 -1 0 0 0 0];

internalField   nonuniform List<scalar> 
65775
(
5.00751363375e-11
7.76529299787e-09
1.57230604261e-09
5.31651628399e-14
7.05702225378e-11
8.11442576669e-09
1.73890917101e-09
8.22464248222e-11
8.4024838889e-09
1.89691760104e-09
7.99536082445e-11
8.65126810008e-09
2.03859604464e-09
6.64165637682e-11
8.8480627383e-09
2.15691377396e-09
4.37528371351e-11
8.99152484445e-09
2.24609012428e-09
1.53121904367e-11
9.08161910863e-09
2.30234869297e-09
-1.51804293059e-11
9.1159986844e-09
2.32256395992e-09
-4.36262219611e-11
9.08160293074e-09
2.30234860876e-09
-6.62994645366e-11
8.99149350291e-09
2.24609003801e-09
-7.98506195027e-11
8.84801639698e-09
2.15691376115e-09
-8.21610020747e-11
8.65120912872e-09
2.03859607031e-09
-7.05047814024e-11
8.40241448255e-09
1.89691778663e-09
-5.00213044016e-11
8.11435647932e-09
1.73891233925e-09
7.7652453002e-09
1.57232920462e-09
8.639914354e-14
1.25601058746e-10
1.28237675606e-08
3.75950199861e-09
1.17747140326e-13
2.01396997711e-10
1.33328475594e-08
4.1337471456e-09
2.35810498247e-10
1.37457573758e-08
4.48479658927e-09
2.31421801735e-10
1.40947168342e-08
4.79681033264e-09
1.92642308455e-10
1.43681819344e-08
5.05548103697e-09
1.27035715853e-10
1.45656870819e-08
5.2493891101e-09
4.43815921832e-11
1.46896218416e-08
5.37134974523e-09
-4.40773730837e-11
1.4737535312e-08
5.41517078645e-09
-1.26742855887e-10
1.46895861124e-08
5.37134973767e-09
-1.92371037016e-10
1.45656172286e-08
5.24938923188e-09
-2.31181922954e-10
1.4368078939e-08
5.055481382e-09
-2.35610073662e-10
1.40945843006e-08
4.79681067487e-09
-2.01238572198e-10
1.37456002665e-08
4.4847971142e-09
-1.25473719482e-10
1.33326825396e-08
4.13375552944e-09
1.28236334453e-08
3.75955397976e-09
1.97839427867e-13
1.83089550641e-10
1.58703044065e-08
5.26982123259e-09
1.53830410834e-13
3.02455287582e-10
1.64164137938e-08
5.77909341463e-09
3.53860722264e-10
1.68554732268e-08
6.25269065549e-09
3.46859528513e-10
1.72149885786e-08
6.67082676222e-09
2.88185556877e-10
1.74934452327e-08
7.01554984263e-09
1.8975689638e-10
1.7692122067e-08
7.2728779772e-09
6.62140725329e-11
1.78167180577e-08
7.43427045429e-09
-6.5801941864e-11
1.78657624856e-08
7.49217738837e-09
-1.89359777543e-10
1.78166700037e-08
7.43427011575e-09
-2.87817264046e-10
1.76920277866e-08
7.27287748751e-09
-3.46532733833e-10
1.74933062629e-08
7.01554920294e-09
-3.53585672663e-10
1.72148085034e-08
6.67082546032e-09
-3.02233834707e-10
1.68552578634e-08
6.25268846072e-09
-1.82911618621e-10
1.64161805662e-08
5.77909954893e-09
1.58700964482e-08
5.26988237439e-09
2.69458883928e-13
2.28113206064e-10
1.74059577069e-08
6.29157078368e-09
1.7307317999e-13
3.79420310138e-10
1.79137143847e-08
6.88747802492e-09
4.43714865527e-10
1.83195141545e-08
7.43680539908e-09
4.33861689334e-10
1.86386713218e-08
7.91849392787e-09
3.59671624315e-10
1.8881731508e-08
8.3133620415e-09
2.36419376027e-10
1.905235229e-08
8.60684645774e-09
8.24057010491e-11
1.91593234915e-08
8.79035835375e-09
-8.19268175533e-11
1.92025431514e-08
8.85608159905e-09
-2.35957719894e-10
1.91592696576e-08
8.79035739156e-09
-3.59243135054e-10
1.90522463728e-08
8.60684432669e-09
-4.33480609319e-10
1.88815754814e-08
8.31335850506e-09
-4.43391961136e-10
1.86384684651e-08
7.91848816251e-09
-3.79157032293e-10
1.83192690198e-08
7.43679624827e-09
-2.27899550404e-10
1.79134433585e-08
6.8874734925e-09
1.7405699279e-08
6.2916195356e-09
3.17286164495e-13
2.61887479182e-10
1.78293567187e-08
6.92594958188e-09
1.81233052736e-13
4.36419922214e-10
1.82566960616e-08
7.57263320904e-09
5.10320298891e-10
1.8598672813e-08
8.16341266767e-09
4.97985363454e-10
1.88538031445e-08
8.677754666e-09
4.12073787516e-10
1.90434878549e-08
9.09693380062e-09
2.70466786418e-10
1.91736226072e-08
9.40710196518e-09
9.41858020797e-11
1.92552512908e-08
9.60043032475e-09
-9.36674653082e-11
1.92895484068e-08
9.66951917858e-09
-2.69966978671e-10
1.92551970059e-08
9.6004284211e-09
-4.11609638512e-10
1.91735157311e-08
9.40709781088e-09
-4.97571864057e-10
1.90433303783e-08
9.0969267923e-09
-5.09967907856e-10
1.88535982052e-08
8.67774315565e-09
-4.36129294172e-10
1.85984230804e-08
8.16339409717e-09
-2.61648190591e-10
1.82564171867e-08
7.57261316713e-09
1.7829080101e-08
6.92597431637e-09
3.50240874959e-13
2.8676320439e-10
1.74582069204e-08
7.25152928586e-09
1.82223562613e-13
4.77316818013e-10
1.7787254286e-08
7.92309903726e-09
5.57897844388e-10
1.80547844999e-08
8.53111013426e-09
5.43447022678e-10
1.82403906724e-08
9.05664417563e-09
4.48990454184e-10
1.83735757829e-08
9.48246827468e-09
2.94329778229e-10
1.84618223624e-08
9.79616802565e-09
1.02416826511e-10
1.85173094331e-08
9.99105981296e-09
-1.01876208631e-10
1.85421320567e-08
1.00605230425e-08
-2.93808387892e-10
1.85172595566e-08
9.99105702992e-09
-4.48506077407e-10
1.84617240421e-08
9.79616185368e-09
-5.430147401e-10
1.83734310741e-08
9.48245760164e-09
-5.575274017e-10
1.82402022615e-08
9.05662646343e-09
-4.77007273864e-10
1.80545538572e-08
8.53108117188e-09
-2.86503461579e-10
1.77869944039e-08
7.92306196774e-09
1.74579429129e-08
7.25152762802e-09
3.73884663744e-13
3.05067994172e-10
1.65427144757e-08
7.33347877813e-09
1.78807436237e-13
5.05757593129e-10
1.6772533245e-08
8.01230597201e-09
5.9045357902e-10
1.69676263979e-08
8.62159841638e-09
5.74137859387e-10
1.70891295906e-08
9.14458815425e-09
4.73674846272e-10
1.71714254028e-08
9.56603506657e-09
3.10175571161e-10
1.7222741541e-08
9.87522966541e-09
1.07861546902e-10
1.72552574334e-08
1.00666993191e-08
-1.07308183707e-10
1.72715378871e-08
1.01347202382e-08
-3.09641796525e-10
1.72552157801e-08
1.00666958661e-08
-4.73178654402e-10
1.72226594744e-08
9.87522186166e-09
-5.7369404766e-10
1.71713049702e-08
9.56602120521e-09
-5.90070709633e-10
1.70889729503e-08
9.14456469172e-09
-5.05432981442e-10
1.6967433893e-08
8.62155950773e-09
-3.04789368189e-10
1.67723158693e-08
8.01225302804e-09
1.6542489727e-08
7.33345343179e-09
3.92678940502e-13
3.18414934463e-10
1.52765490495e-08
7.22671992154e-09
1.72472259178e-13
5.24691276936e-10
1.54167956596e-08
7.90180145433e-09
6.11444905293e-10
1.55484087146e-08
8.50293541762e-09
5.9348335493e-10
1.56167010075e-08
9.01563338416e-09
4.89002719136e-10
1.56578943724e-08
9.42675657679e-09
3.1991602802e-10
1.56801520953e-08
9.72726898312e-09
1.11190615862e-10
1.56946700392e-08
9.91277523224e-09
-1.10628563191e-10
1.57040434629e-08
9.97841321752e-09
-3.19373667291e-10
1.56946397283e-08
9.91277130637e-09
-4.88497904172e-10
1.56800926346e-08
9.72725994417e-09
-5.93030334974e-10
1.56578075499e-08
9.42674011071e-09
-6.11050807272e-10
1.56165885463e-08
9.01560496328e-09
-5.24351542257e-10
1.55482697791e-08
8.50288784479e-09
-3.1811669625e-10
1.54166390833e-08
7.9017354723e-09
1.52763851003e-08
7.22667606498e-09
4.09119815819e-13
3.27915751413e-10
1.38064692506e-08
6.97705105768e-09
1.64465365128e-13
5.36481401936e-10
1.38722543592e-08
7.64238316837e-09
6.23815721401e-10
1.39521882828e-08
8.23069398061e-09
6.04460818948e-10
1.39798928376e-08
8.72963960468e-09
4.97481982291e-10
1.39908941534e-08
9.12804791898e-09
3.25213109622e-10
1.39926011928e-08
9.41835665717e-09
1.12985237484e-10
1.39944691146e-08
9.59702072389e-09
-1.1241448961e-10
1.3998755925e-08
9.65993033868e-09
-3.24661871781e-10
1.39944525468e-08
9.59701645881e-09
-4.96967741043e-10
1.39925691147e-08
9.41834668807e-09
-6.0399696e-10
1.39908481336e-08
9.12802939355e-09
-6.23408007051e-10
1.39798337566e-08
8.72960717343e-09
-5.36123583996e-10
1.39521143771e-08
8.23063956798e-09
-3.27595334529e-10
1.38721719039e-08
7.64230798137e-09
1.38063816718e-08
6.97699486857e-09
4.25236045524e-13
3.34372525158e-10
1.22410919338e-08
6.62181156826e-09
1.55490974879e-13
5.43053049128e-10
1.22491628711e-08
7.27488724137e-09
6.30110235566e-10
1.22893537825e-08
7.84892354736e-09
6.09692706687e-10
1.22885781791e-08
8.33344322877e-09
5.01320871218e-10
1.22796728215e-08
8.71898725195e-09
3.2751987291e-10
1.2268680888e-08
8.99920296595e-09
1.13751064145e-10
1.22628080613e-08
9.17115194013e-09
-1.13168427556e-10
1.2263713809e-08
9.23134850962e-09
-3.26956245213e-10
1.22628068661e-08
9.17114742525e-09
-5.0079307485e-10
1.22686794536e-08
8.99919232086e-09
-6.09213181572e-10
1.22796724224e-08
8.71896723813e-09
-6.29683481403e-10
1.22885788908e-08
8.33340795746e-09
-5.42671862143e-10
1.22893525495e-08
7.84886463276e-09
-3.34025852025e-10
1.22491632457e-08
7.27480735774e-09
1.22410907707e-08
6.62174956293e-09
4.4263653726e-13
3.38318272083e-10
1.06588811647e-08
6.19062051171e-09
1.4621803178e-13
5.46003501123e-10
1.06248661639e-08
6.83115748752e-09
6.32606223199e-10
1.06358328718e-08
7.39140398831e-09
6.11545376522e-10
1.06171652679e-08
7.86242043897e-09
5.02483930813e-10
1.0597278361e-08
8.23617588143e-09
3.28107421942e-10
1.05802191149e-08
8.50726556115e-09
1.13926010862e-10
1.05707003626e-08
8.67314157107e-09
-1.13325623588e-10
1.05696698502e-08
8.73082676146e-09
-3.275251416e-10
1.0570715301e-08
8.67313693192e-09
-5.01935614996e-10
1.05802499579e-08
8.50725461013e-09
-6.11042469464e-10
1.05973260548e-08
8.23615523077e-09
-6.32152492509e-10
1.0617229021e-08
7.86238402723e-09
-5.45591713227e-10
1.06359083322e-08
7.39134366262e-09
-3.37939936094e-10
1.06249537097e-08
6.83107810893e-09
1.06589705713e-08
6.19055949166e-09
4.62772664236e-13
3.4005443118e-10
9.11518738648e-09
5.70628794743e-09
1.36516434062e-13
5.46919671586e-10
9.0513800946e-09
6.33523763653e-09
6.33620535165e-10
9.04179564611e-09
6.88316266941e-09
6.12283051114e-10
9.01434514956e-09
7.34234084088e-09
5.02739548974e-10
8.99096584075e-09
7.70590282402e-09
3.28071076001e-10
8.97309493079e-09
7.96916547122e-09
1.13879585499e-10
8.96307557818e-09
8.12979965515e-09
-1.13253243881e-10
8.9612314869e-09
8.18524600166e-09
-3.27461417281e-10
8.96310649268e-09
8.12979517729e-09
-5.021612446e-10
8.97315750834e-09
7.96915495741e-09
-6.11746637849e-10
8.99106111231e-09
7.70588306414e-09
-6.33129781568e-10
9.01447170384e-09
7.34230601747e-09
-5.46468600636e-10
9.04194789955e-09
6.88310522724e-09
-3.39638307537e-10
9.05155461736e-09
6.33516482033e-09
9.11536677391e-09
5.70623516925e-09
4.87338351137e-13
3.40189725115e-10
7.64773209884e-09
5.18583570911e-09
1.26571276162e-13
5.48294938572e-10
7.56128979386e-09
5.80467343429e-09
6.35921838829e-10
7.53925163957e-09
6.34208489303e-09
6.14046935838e-10
7.511357806e-09
6.79128269952e-09
5.03501226058e-10
7.49055372227e-09
7.14633180814e-09
3.28202940301e-10
7.47562493363e-09
7.40308792772e-09
1.13866821915e-10
7.46721335346e-09
7.55931197447e-09
-1.13204300771e-10
7.46532604315e-09
7.6127962297e-09
-3.2755532724e-10
7.46725861726e-09
7.55930823027e-09
-5.02881490661e-10
7.475716399e-09
7.40307922656e-09
-6.1346512751e-10
7.4906924134e-09
7.14631554814e-09
-6.35382701535e-10
7.51154254203e-09
6.79125378734e-09
-5.47795402044e-10
7.53947613192e-09
6.34203641896e-09
-3.39729766857e-10
7.56154673484e-09
5.80461415195e-09
7.64799533622e-09
5.185798149e-09
5.15420994933e-13
3.42223084039e-10
6.27847395008e-09
4.64152931545e-09
1.16156972072e-13
5.5502691697e-10
6.17343946373e-09
5.25180706623e-09
6.42350716086e-10
6.14997080448e-09
5.78046691526e-09
6.17880139595e-10
6.12906233006e-09
6.22142519398e-09
5.05008799907e-10
6.11462909579e-09
6.56949841649e-09
3.28505457292e-10
6.1044587314e-09
6.82093554542e-09
1.13872503692e-10
6.09860045709e-09
6.97349161132e-09
-1.13162512713e-10
6.09706139461e-09
7.02526277183e-09
-3.27808188523e-10
6.09865714396e-09
6.97348948714e-09
-5.04335566908e-10
6.10457298362e-09
6.8209306997e-09
-6.17240631157e-10
6.11480217165e-09
6.56948939648e-09
-6.41751899385e-10
6.12929402547e-09
6.22140834289e-09
-5.54470089886e-10
6.15025638819e-09
5.78043595507e-09
-3.41714610472e-10
6.17376924542e-09
5.25176951724e-09
6.27880865272e-09
4.64151233793e-09
5.46698262852e-13
3.70635452688e-10
4.08280586641e-09
1.04944876794e-13
4.9954513952e-09
5.80538399972e-10
4.68585410724e-09
4.90851679117e-09
6.57972178785e-10
5.20704994062e-09
4.89534091342e-09
6.25157982457e-10
5.64100399485e-09
4.88377077472e-09
5.07394113505e-10
5.98316661959e-09
4.8752578548e-09
3.28821733701e-10
6.23009281613e-09
4.86915258208e-09
1.13810611087e-10
6.37948029536e-09
4.86550819608e-09
-1.13042207856e-10
6.4297059179e-09
4.86431668674e-09
-3.28064095985e-10
6.37948052751e-09
4.86557227683e-09
-5.06657067406e-10
6.23009350032e-09
4.86928156988e-09
-6.24451046785e-10
5.98316790722e-09
4.87545302936e-09
-6.57304753665e-10
5.64100470191e-09
4.88403333031e-09
-5.79918371779e-10
5.20704482855e-09
4.89566937144e-09
-3.70078556637e-10
4.6858518695e-09
4.90890174384e-09
4.0828044997e-09
5.83339340706e-13
4.99584546688e-09
-2.01376458801e-11
7.15001512589e-10
8.77479219794e-10
3.25775282626e-14
-2.69029070562e-11
7.80483674688e-10
9.65301546287e-10
-2.97040195761e-11
8.52144775321e-10
1.04769012055e-09
-2.88021062019e-11
9.16562723289e-10
1.12123776022e-09
-2.39716261213e-11
9.69714776567e-10
1.18245255609e-09
-1.58734350493e-11
1.00957367105e-09
1.22848444298e-09
-5.54689098064e-12
1.03457964332e-09
1.25750022859e-09
5.57025163166e-12
1.04354559993e-09
1.26795511706e-09
1.58986740263e-11
1.03457028812e-09
1.25750116038e-09
2.39993633948e-11
1.00955229902e-09
1.22848623497e-09
2.88290021581e-11
9.69676234049e-10
1.18245499975e-09
2.97235841911e-11
9.16506587006e-10
1.12124057353e-09
2.69117550872e-11
8.52080332002e-10
1.04769352366e-09
2.01375849588e-11
7.80420047189e-10
9.65309149713e-10
7.14978188627e-10
8.77508684086e-10
2.04915137191e-14
-3.09355997755e-11
1.97843918752e-09
2.5270428176e-09
8.35970492023e-14
-4.21293471808e-11
2.13934605811e-09
2.78625063619e-09
-4.59678888549e-11
2.31125442041e-09
3.02970726497e-09
-4.39687605765e-11
2.46445517176e-09
3.24707998267e-09
-3.62725533595e-11
2.58957819776e-09
3.42805002252e-09
-2.38681266811e-11
2.68249166859e-09
3.56417147106e-09
-8.3054380308e-12
2.74053836894e-09
3.6499210219e-09
8.40517322205e-12
2.76139414244e-09
3.68069811566e-09
2.39696686416e-11
2.74051459774e-09
3.64992310303e-09
3.63748083322e-11
2.68243942598e-09
3.56417540529e-09
4.40634070599e-11
2.58948900932e-09
3.42805525419e-09
4.60405197026e-11
2.46432696586e-09
3.24708575285e-09
4.21713109956e-11
2.31110253867e-09
3.02971417185e-09
3.09481432479e-11
2.1391966137e-09
2.78626884266e-09
1.97836734909e-09
2.5271115118e-09
6.35896111508e-14
-2.37842729769e-11
3.32525856121e-09
3.94678333698e-09
1.21148880793e-13
-3.16608848623e-11
3.56993124071e-09
4.35653900094e-09
-3.34377183169e-11
3.82566571751e-09
4.74021978828e-09
-3.10834303559e-11
4.05130246763e-09
5.08176894871e-09
-2.51651649302e-11
4.23392086646e-09
5.36540490058e-09
-1.63596129962e-11
4.36832731446e-09
5.5783327248e-09
-5.63864894698e-12
4.45195023656e-09
5.71222294922e-09
5.82596064859e-12
4.48204562777e-09
5.76014092673e-09
1.65462113356e-11
4.4519150193e-09
5.7122250361e-09
2.53468704683e-11
4.36825192098e-09
5.57833653295e-09
3.12483627942e-11
4.23379641568e-09
5.36540956448e-09
3.35678488563e-11
4.05112653242e-09
5.08177324322e-09
3.17444581648e-11
3.82545462589e-09
4.74022415687e-09
2.38213897687e-11
3.56972353399e-09
4.3565568823e-09
3.32514874986e-09
3.94686775532e-09
1.11354662917e-13
-5.90942057717e-12
4.52342972214e-09
5.09927177566e-09
1.48657043859e-13
-5.28157604783e-12
4.82591333329e-09
5.63100718628e-09
-3.21768397802e-12
5.13435856048e-09
6.12619366061e-09
-1.35135081751e-12
5.40318267746e-09
6.56487434572e-09
-2.40937123544e-13
5.61859129974e-09
6.92768582867e-09
1.81341408864e-13
5.77565849415e-09
7.19918133439e-09
1.66304077834e-13
5.87294240069e-09
7.36946044382e-09
1.03121223643e-13
5.9080276466e-09
7.43023665426e-09
8.4259408099e-14
5.87290030762e-09
7.36946095196e-09
4.95354286501e-13
5.7755697345e-09
7.19918220827e-09
1.58046336983e-12
5.61844803443e-09
6.92768590648e-09
3.40246288245e-12
5.40298280274e-09
6.56487173108e-09
5.40911742028e-12
5.13411559492e-09
6.12618808283e-09
5.97909739141e-12
4.82567055556e-09
5.63101246288e-09
4.52328842786e-09
5.09934674452e-09
1.63518625072e-13
1.79399454105e-11
5.45032254608e-09
5.98105058633e-09
1.67819345482e-13
2.96778258269e-11
5.78227585381e-09
6.60465701894e-09
3.63901904087e-11
6.10995125513e-09
7.18123438619e-09
3.70194826419e-11
6.39157481059e-09
7.6888453114e-09
3.15538416217e-11
6.61460927922e-09
8.10647525054e-09
2.11105667357e-11
6.77557163828e-09
8.4177125847e-09
7.47447564112e-12
6.87478101104e-09
8.61230049907e-09
-7.1353905818e-12
6.91066404958e-09
8.68156058439e-09
-2.07782760976e-11
6.87473717037e-09
8.61229877558e-09
-3.1238151764e-11
6.77548007799e-09
8.41770877722e-09
-3.67354470319e-11
6.61446331707e-09
8.10646778267e-09
-3.61564590446e-11
6.39137205345e-09
7.68883172541e-09
-2.95068470183e-11
6.10970126336e-09
7.18121320184e-09
-1.78327651254e-11
5.78201983193e-09
6.60464097064e-09
5.45016124489e-09
5.981100102e-09
2.16098713465e-13
4.39841821352e-11
6.0585934279e-09
6.59918893683e-09
1.80112406342e-13
6.78544238789e-11
6.3956081995e-09
7.28600566637e-09
7.93513815409e-11
6.71395169327e-09
7.91572398543e-09
7.8195878405e-11
6.98331092862e-09
8.46616317354e-09
6.53696821659e-11
7.19364568956e-09
8.91634309379e-09
4.32276629784e-11
7.34367121431e-09
9.25028481383e-09
1.51685573623e-11
7.43563534459e-09
9.45833225349e-09
-1.4773701123e-11
7.4690279211e-09
9.53216468625e-09
-4.28418870587e-11
7.43559422897e-09
9.45832808577e-09
-6.50044351283e-11
7.34358574487e-09
9.25027588223e-09
-7.78662027727e-11
7.19351034769e-09
8.91632727898e-09
-7.90744794639e-11
6.98312255533e-09
8.46613710249e-09
-6.76416312665e-11
6.71371532397e-09
7.91568465443e-09
-4.38365428395e-11
6.39535927149e-09
7.28596437732e-09
6.05842395371e-09
6.5992066041e-09
2.65478844913e-13
6.9428937655e-11
6.35089119048e-09
6.97165211329e-09
1.8677092589e-13
1.05455275507e-10
6.67511933855e-09
7.6968636536e-09
1.21458051813e-10
6.96383891175e-09
8.35580603703e-09
1.18204620318e-10
7.20383231604e-09
8.92740820923e-09
9.7969922348e-11
7.38801767816e-09
9.39197437615e-09
6.44277322915e-11
7.51759445314e-09
9.73491657314e-09
2.25197934913e-11
7.59653022889e-09
9.94777475423e-09
-2.20813465518e-11
7.6253417403e-09
1.00230660986e-08
-6.39998412987e-11
7.59649573033e-09
9.94776833331e-09
-9.75647858643e-11
7.51752272756e-09
9.73490282491e-09
-1.17836612316e-10
7.38790377447e-09
9.39195053275e-09
-1.21142342006e-10
7.20367199411e-09
8.92736986027e-09
-1.05202086229e-10
6.96363226232e-09
8.35574862912e-09
-6.9239738599e-11
6.67489570861e-09
7.69679742034e-09
6.35072853296e-09
6.97163813021e-09
3.10953266908e-13
9.24354424007e-11
6.36038429362e-09
7.12468059821e-09
1.88782719936e-13
1.40009683908e-10
6.66080150252e-09
7.8686283232e-09
1.6003681142e-10
6.90840426726e-09
8.53842798771e-09
1.54611736661e-10
7.10996692367e-09
9.11500185006e-09
1.27437931168e-10
7.26131557092e-09
9.58070192017e-09
8.34960344892e-11
7.36602999238e-09
9.92283797551e-09
2.91139071611e-11
7.42935619998e-09
1.01343893575e-08
-2.86407102938e-11
7.45262909496e-09
1.02089350358e-08
-8.30340678972e-11
7.42933099774e-09
1.01343811245e-08
-1.2699943504e-10
7.36597725055e-09
9.92282026835e-09
-1.54209937883e-10
7.26123065358e-09
9.580671305e-09
-1.59684826864e-10
7.10984450837e-09
9.11495290619e-09
-1.39716664151e-10
6.9082401068e-09
8.53835485357e-09
-9.22046332438e-11
6.6606179796e-09
7.86854088331e-09
6.36024553558e-09
7.12463964877e-09
3.52008013393e-13
1.11968921587e-10
6.13611338004e-09
7.08923624844e-09
1.87498850597e-13
1.70088501246e-10
6.40744100577e-09
7.83769643481e-09
1.9361780158e-10
6.61000706142e-09
8.5056356511e-09
1.86178275713e-10
6.77071601707e-09
9.07639890114e-09
1.52872780828e-10
6.88801806839e-09
9.53471328647e-09
9.98973158405e-11
6.96750050494e-09
9.86991887102e-09
3.47753745892e-11
7.01514636345e-09
1.00764059797e-08
-3.4272598975e-11
7.03281380251e-09
1.01488441533e-08
-9.94057300078e-11
7.01513218191e-09
1.00763964974e-08
-1.52404123006e-10
6.96747002477e-09
9.8698983731e-09
-1.85744396656e-10
6.88796682094e-09
9.53467777514e-09
-1.93230124815e-10
6.77063752934e-09
9.07634214341e-09
-1.69755699462e-10
6.60989395257e-09
8.5055509176e-09
-1.116965674e-10
6.40730944202e-09
7.83759405889e-09
6.13601293669e-09
7.08917592078e-09
3.88937854862e-13
1.27635334711e-10
5.73254784008e-09
6.89762193545e-09
1.8361765522e-13
1.95062588801e-10
5.97363487712e-09
7.64132852426e-09
2.21645116626e-10
6.13274288355e-09
8.29966898323e-09
2.12562770121e-10
6.25483291714e-09
8.85846920629e-09
1.741276664e-10
6.34066818078e-09
9.30482842494e-09
1.1359526512e-10
6.39729686753e-09
9.62999134386e-09
3.95027267139e-11
6.43087820491e-09
9.82956207759e-09
-3.89721395128e-11
6.44347506702e-09
9.89920897701e-09
-1.13075295123e-10
6.43087554739e-09
9.82955199214e-09
-1.73629180093e-10
6.39728960918e-09
9.62996946234e-09
-2.12096356646e-10
6.34065208004e-09
9.30479041337e-09
-2.2122096067e-10
6.25480100368e-09
8.85840836102e-09
-1.94689638857e-10
6.13268571036e-09
8.29957823135e-09
-1.27321926844e-10
5.97356343867e-09
7.64121931885e-09
5.73249803502e-09
6.89755167615e-09
4.22418814132e-13
1.39514443124e-10
5.2027334202e-09
6.58080051056e-09
1.78299925225e-13
2.14905561479e-10
5.41491251913e-09
7.31454236606e-09
2.44263511996e-10
5.53537573673e-09
7.95946831277e-09
2.34110433122e-10
5.62377662012e-09
8.50368294325e-09
1.91621530225e-10
5.68293870727e-09
8.93644447554e-09
1.24920051078e-10
5.72067765153e-09
9.25063398815e-09
4.34205016252e-11
5.74276830638e-09
9.44279633825e-09
-4.28612467531e-11
5.75117558599e-09
9.50945145275e-09
-1.24370525954e-10
5.74277666895e-09
9.44278643252e-09
-1.910915764e-10
5.72069275152e-09
9.25061247231e-09
-2.33609618983e-10
5.68295657385e-09
8.93640701613e-09
-2.43801516912e-10
5.62379041514e-09
8.50362278816e-09
-2.14492255028e-10
5.53537534276e-09
7.95937849675e-09
-1.39160726654e-10
5.41490516552e-09
7.31443582738e-09
5.20274134326e-09
6.58073103354e-09
4.53039379128e-13
1.47975966283e-10
4.59434709294e-09
6.16657893636e-09
1.71817535409e-13
2.30058140392e-10
4.77995499368e-09
6.88815929869e-09
2.6223658044e-10
4.86776350237e-09
7.51864388855e-09
2.51772402213e-10
4.92857051857e-09
8.04805759742e-09
2.06246118112e-10
4.96690897891e-09
8.46750352364e-09
1.34491453529e-10
4.99045832474e-09
8.77118217853e-09
4.67497809752e-11
5.00405340325e-09
8.95629761612e-09
-4.61593513171e-11
5.00930596972e-09
9.02006406289e-09
-1.33909769153e-10
5.00407159183e-09
8.95628891736e-09
-2.0568222676e-10
4.99049311513e-09
8.77116332345e-09
-2.51235161538e-10
4.96695736781e-09
8.4674706002e-09
-2.61735831526e-10
4.92862627924e-09
8.04800423806e-09
-2.29605051217e-10
4.86781725654e-09
7.51856341851e-09
-1.47583809063e-10
4.78001102784e-09
6.88806590911e-09
4.59441571497e-09
6.16652169708e-09
4.81482600849e-13
1.53559422186e-10
3.9478980575e-09
5.67860778819e-09
1.64700762564e-13
2.41587548893e-10
4.10875697158e-09
6.38788333797e-09
2.77204957404e-10
4.16959183848e-09
7.00468020031e-09
2.67270048689e-10
4.20931517939e-09
7.52051313514e-09
2.19417876821e-10
4.23312153157e-09
7.92801091415e-09
1.43218047834e-10
4.24739115863e-09
8.2223934966e-09
4.9801664892e-11
4.25554577735e-09
8.4012727197e-09
-4.917687212e-11
4.2587021999e-09
8.46241470892e-09
-1.42601481283e-10
4.25557181965e-09
8.40126657677e-09
-2.18817797537e-10
4.2474422663e-09
8.22238027553e-09
-2.66695400996e-10
4.23319527504e-09
7.92798761185e-09
-2.76665974834e-10
4.20940713977e-09
7.52047421765e-09
-2.41096981573e-10
4.16969393093e-09
7.00461905573e-09
-1.53132085675e-10
4.10887226208e-09
6.38781394205e-09
3.94802585654e-09
5.678573257e-09
5.06177140153e-13
1.56282198411e-10
3.29698723598e-09
5.13604500891e-09
1.57428958104e-13
2.51100949419e-10
3.43155699383e-09
5.83422309453e-09
2.91772299417e-10
3.47036498524e-09
6.43905758684e-09
2.83079441286e-10
3.49627119494e-09
6.9431978287e-09
2.33015943996e-10
3.51215034825e-09
7.34056820747e-09
1.52250472099e-10
3.52197095681e-09
7.6271552894e-09
5.29633153494e-11
3.52758820773e-09
7.80077001801e-09
-5.23014259902e-11
3.52964982741e-09
7.8596116581e-09
-1.51596807524e-10
3.52762025018e-09
7.80076799516e-09
-2.32378995994e-10
3.5220342331e-09
7.62715109205e-09
-2.824682918e-10
3.51224350562e-09
7.3405602817e-09
-2.91198241355e-10
3.49639137689e-09
6.94318215758e-09
-2.5057711653e-10
3.47050736462e-09
6.43902738799e-09
-1.55824740339e-10
3.43172411332e-09
5.83418859668e-09
3.29716625568e-09
5.13604026994e-09
5.28208283138e-13
1.43625499259e-10
4.55309817944e-09
1.50238387881e-13
2.68296062709e-09
2.57245081234e-10
5.24258290728e-09
2.76123984106e-09
3.07074317335e-10
5.8374979545e-09
2.79011954691e-09
3.00757160362e-10
6.33209442136e-09
2.81152928584e-09
2.48517583183e-10
6.72134666066e-09
2.82624154251e-09
1.6265474418e-10
7.00175479464e-09
2.83620301241e-09
5.66224860916e-11
7.17114021104e-09
2.84199031282e-09
-5.59219060754e-11
7.22803058714e-09
2.84389860799e-09
-1.61963698294e-10
7.17114337829e-09
2.84202671309e-09
-2.47845459493e-10
7.00176186261e-09
2.83627551289e-09
-3.00114074458e-10
6.72135789316e-09
2.82634930533e-09
-3.06471610379e-10
6.33210838247e-09
2.81167119125e-09
-2.56696840854e-10
5.83750817671e-09
2.79029326636e-09
-1.43146311875e-10
5.24259860502e-09
2.76144913512e-09
4.55311668881e-09
5.42248401046e-13
2.68318617387e-09
7.29892672451e-12
3.95999795236e-11
8.30634257645e-10
1.19292167368e-14
1.4112424825e-11
4.06686146262e-11
9.17900742759e-10
1.79180982528e-11
4.38577992745e-11
1.00011970808e-09
1.84676915623e-11
4.69843799066e-11
1.07378192537e-09
1.58256655021e-11
4.99092459755e-11
1.13526148669e-09
1.06259644182e-11
5.21614003064e-11
1.18159406528e-09
3.75103171755e-12
5.36050955799e-11
1.21083287806e-09
-3.72296197163e-12
5.41269934255e-11
1.22135582937e-09
-1.0600248256e-11
5.35914726887e-11
1.21083390738e-09
-1.5803816806e-11
5.21360667659e-11
1.18159603134e-09
-1.84492100676e-11
4.98751617712e-11
1.13526418921e-09
-1.79008199455e-11
4.69437457365e-11
1.07378519914e-09
-1.41025226656e-11
4.38062152158e-11
1.0001239535e-09
-7.29465908441e-12
4.06248441016e-11
9.17909686832e-10
3.95730405818e-11
8.30664074086e-10
8.27937180733e-15
1.70509120133e-11
2.54724017888e-10
2.29494425339e-09
3.21984665445e-14
3.22637140244e-11
2.75963391068e-10
2.53587605824e-09
4.09489465835e-11
3.0264862686e-10
2.76237075718e-09
4.20317801154e-11
3.2832759291e-10
2.964780747e-09
3.59278599054e-11
3.50793535008e-10
3.13339013194e-09
2.40697339557e-11
3.68020279292e-10
3.26028167446e-09
8.48921003174e-12
3.78954548619e-10
3.34024966631e-09
-8.40605874582e-12
3.82855865646e-10
3.36894908212e-09
-2.39921686264e-11
3.78923251053e-10
3.34025204384e-09
-3.58598679062e-11
3.67960470675e-10
3.26028614211e-09
-4.19735479077e-11
3.50710388369e-10
3.1333961214e-09
-4.08992315208e-11
3.28226108883e-10
2.96478780138e-09
-3.22317053105e-11
3.02528447305e-10
2.76238008794e-09
-1.70377222289e-11
2.7585388087e-10
2.53589815197e-09
2.54655343248e-10
2.29501494434e-09
2.48129984069e-14
2.37923406091e-11
6.29704888322e-10
3.54805922644e-09
4.93896477463e-14
4.4000357495e-11
6.87930478427e-10
3.92448508632e-09
5.54026574215e-11
7.54042071872e-10
4.27754832862e-09
5.65249946654e-11
8.16699037043e-10
4.59239072477e-09
4.8128554425e-11
8.70488280363e-10
4.85421583737e-09
3.21586596391e-11
9.11419090195e-10
5.05100461036e-09
1.13304098279e-11
9.37253415262e-10
5.17484141815e-09
-1.11942547805e-11
9.46444353695e-10
5.21915486535e-09
-3.20303430886e-11
9.37209447534e-10
5.17484390208e-09
-4.80140590804e-11
9.11334181916e-10
5.0510091356e-09
-5.64263247215e-11
8.70368737071e-10
4.85422151372e-09
-5.53209734258e-11
8.16551898383e-10
4.59239677348e-09
-4.39448127702e-11
7.53871934318e-10
4.27755625536e-09
-2.37664814052e-11
6.87771732246e-10
3.92450919e-09
6.29607375041e-10
3.5481482733e-09
4.56336001818e-14
2.99268583814e-11
1.09724177927e-09
4.60183415242e-09
6.52274925855e-14
5.38229506144e-11
1.19921401705e-09
5.09593329738e-09
6.69273963871e-11
1.30942107776e-09
5.55781987031e-09
6.77914725603e-11
1.41232756544e-09
5.96848585217e-09
5.74757564805e-11
1.49941805601e-09
6.30916950192e-09
3.83076595479e-11
1.56512146681e-09
6.56473660538e-09
1.34838117628e-11
1.60635876333e-09
6.72525872205e-09
-1.32957860839e-11
1.62100055742e-09
6.78253068921e-09
-3.81291881703e-11
1.60630735435e-09
6.72525974553e-09
-5.7314488968e-11
1.56502149399e-09
6.56473807664e-09
-6.76516294268e-11
1.49927547313e-09
6.30917025368e-09
-6.68123214463e-11
1.41215050992e-09
5.96848473681e-09
-5.3741286853e-11
1.30921898011e-09
5.55781816112e-09
-2.98822929865e-11
1.19902340893e-09
5.09594658371e-09
1.09712166827e-09
4.60191748383e-09
7.32669608182e-14
3.70830276357e-11
1.5872132413e-09
5.45399931503e-09
7.94697155704e-14
6.46270670764e-11
1.73023390147e-09
6.04618348303e-09
7.9185675219e-11
1.87903610258e-09
6.59715676168e-09
7.95769306544e-11
2.01584893173e-09
7.0850239341e-09
6.71757889859e-11
2.13001211517e-09
7.48836837366e-09
4.46675310832e-11
2.21530608314e-09
7.79011562816e-09
1.57069082422e-11
2.26850638846e-09
7.97918504083e-09
-1.54691122337e-11
2.28736421415e-09
8.04643705414e-09
-4.44405866722e-11
2.26845213072e-09
7.97918345204e-09
-6.69687424456e-11
2.2152000802e-09
7.79011172513e-09
-7.93959078324e-11
2.12985967402e-09
7.48836067701e-09
-7.90355805738e-11
2.01565828307e-09
7.0850108029e-09
-6.45161290406e-11
1.87881844671e-09
6.59713877626e-09
-3.70144367831e-11
1.73002772279e-09
6.04617627904e-09
1.58707842922e-09
5.45406104487e-09
1.05931714694e-13
4.59391479628e-11
2.03704642916e-09
6.10339711961e-09
9.1371357954e-14
7.78222877973e-11
2.21156898961e-09
6.77286627415e-09
9.40252842108e-11
2.3866667267e-09
7.39197260331e-09
9.37779129781e-11
2.54504068949e-09
7.93729838241e-09
7.88345181822e-11
2.67520541234e-09