/*--------------------------------*- C++ -*----------------------------------*\
  =========                 |
  \\      /  F ield         | OpenFOAM: The Open Source CFD Toolbox
   \\    /   O peration     | Website:  https://openfoam.org
    \\  /    A nd           | Version:  7
     \\/     M anipulation  |
\*---------------------------------------------------------------------------*/
FoamFile
{
    version     2.0;
    format      ascii;
    class       volVectorField;
    location    "0.82";
    object      U;
}
// * * * * * * * * * * * * * * * * * * * * * * * * * * * * * * * * * * * * * //

dimensions      [0 1 -1 0 0 0 0];

internalField   nonuniform List<vector> 
22500
(
(3.39285389e-05 3.79464820451e-05 0.000771897565783)
(3.16171571253e-05 4.26034995276e-05 0.000809748895882)
(2.75839248539e-05 4.73562773241e-05 0.000844260113424)
(2.31703166556e-05 5.13553647489e-05 0.000873959837881)
(1.79938045549e-05 5.46595695074e-05 0.000897972355728)
(1.23133168017e-05 5.71106523026e-05 0.000915605733666)
(6.25549691719e-06 5.86204564974e-05 0.000926385444758)
(1.95242834279e-09 5.91308935154e-05 0.000930027877005)
(-6.25166364532e-06 5.86207279079e-05 0.000926385379675)
(-1.2309682834e-05 5.71111691582e-05 0.00091560564252)
(-1.7990490511e-05 5.46602630664e-05 0.000897972263177)
(-2.31674270699e-05 5.13561497455e-05 0.000873959744828)
(-2.75815891672e-05 4.7357024557e-05 0.000844260056048)
(-3.16152059189e-05 4.26042963694e-05 0.000809749706271)
(-3.39271936975e-05 3.79472343038e-05 0.000771905884497)
(9.72672192067e-05 0.00010912140361 0.00186925196317)
(9.04256561242e-05 0.00012214433641 0.00194142540008)
(7.91209358332e-05 0.000135240882081 0.00200614568739)
(6.63328167375e-05 0.000146369370584 0.00206105179189)
(5.15029503995e-05 0.000155557102857 0.00210490463231)
(3.52220348764e-05 0.000162372295543 0.00213680672026)
(1.78865916677e-05 0.000166571072591 0.00215618407465)
(4.50809193069e-09 0.000167989753657 0.00216270432049)
(-1.78777230821e-05 0.000166571607237 0.00215618394401)
(-3.52135871991e-05 0.000162373308351 0.00213680654363)
(-5.14951760155e-05 0.000155558448703 0.00210490445046)
(-6.632593854e-05 0.000146370872059 0.00206105157358)
(-7.9115171464e-05 0.000135242282183 0.00200614547372)
(-9.04206974674e-05 0.000122145833506 0.00194142754678)
(-9.72636890988e-05 0.00010912279958 0.00186927035311)
(0.000141440710752 0.00015871592736 0.00265653949133)
(0.000130782753639 0.000176334394565 0.00274058404895)
(0.000114057844992 0.000193954407517 0.00281475873747)
(9.52301038956e-05 0.000208840636006 0.00287689941255)
(7.37190035708e-05 0.000221065750176 0.0029259887324)
(5.0299006759e-05 0.00023009732293 0.00296139882403)
(2.5506836939e-05 0.000235647137423 0.00298277948393)
(6.10645805126e-09 0.000237519630034 0.00298994670715)
(-2.5494802815e-05 0.00023564770253 0.00298277921007)
(-5.02874872844e-05 0.000230098381692 0.00296139839176)
(-7.37083052961e-05 0.000221067133687 0.00292598817027)
(-9.5220488542e-05 0.000208842129766 0.00287689861796)
(-0.000114049540563 0.000193955740105 0.00281475756087)
(-0.000130775371434 0.000176335828988 0.00274058515536)
(-0.000141435164827 0.000158717241661 0.00265656118794)
(0.000171357114926 0.000192268962559 0.00322502429275)
(0.000157562983632 0.000211839264262 0.00330838010598)
(0.00013683643635 0.000231420356066 0.00338063942357)
(0.000113750152859 0.000247780976819 0.0034403561666)
(8.7761002112e-05 0.000261138014592 0.00348697648321)
(5.97284393171e-05 0.000270954859184 0.00352029718921)
(3.02415281548e-05 0.000276967666401 0.00354028573004)
(7.09415493767e-09 0.000278992755589 0.00354695984545)
(-3.02275326685e-05 0.000276968202283 0.00354028523955)
(-5.971500168e-05 0.000270955852913 0.00352029631463)
(-8.77484522152e-05 0.000261139292831 0.00348697519324)
(-0.000113738755841 0.000247782311479 0.00344035420335)
(-0.000136826390527 0.000231421479193 0.00338063619628)
(-0.000157553830202 0.000211840462727 0.00330837743115)
(-0.000171349875985 0.000192269988817 0.00322504082107)
(0.000190982484923 0.000214329898395 0.00363478326978)
(0.000174670891107 0.000234144614108 0.00371056750753)
(0.000151035897036 0.000254088673851 0.00377490286112)
(0.000125027453107 0.00027053624885 0.0038272381744)
(9.6149089424e-05 0.000283883962409 0.00386755022274)
(6.52776959871e-05 0.000293642344306 0.00389605975647)
(3.30019204137e-05 0.000299599655985 0.00391303478441)
(7.67755652433e-09 0.000301602473312 0.00391867800984)
(-3.29867643581e-05 0.000299600153776 0.0039130341096)
(-6.52631175946e-05 0.000293643260944 0.00389605846246)
(-9.61354279157e-05 0.000283885127722 0.00386754816033)
(-0.000125014965169 0.000270537436962 0.00382723481577)
(-0.00015102472811 0.00025408962069 0.00377489692206)
(-0.000174660527945 0.000234145624688 0.00371055935963)
(-0.000190973915151 0.000214330698051 0.00363478978554)
(0.000202508692699 0.000227321544451 0.00392773410064)
(0.000184244243959 0.000246185172302 0.00399258091626)
(0.000158613536829 0.00026539878537 0.00404628257372)
(0.000130769280701 0.000281022858408 0.00408915115583)
(0.000100252721663 0.000293625683493 0.00412165357229)
(6.79059838764e-05 0.000302792641811 0.00414435562605)
(3.4282290386e-05 0.0003083712228 0.00415775403326)
(8.00701346137e-09 0.00031024364575 0.00416218599547)
(-3.4266478611e-05 0.000308371700092 0.00415775324543)
(-6.78907609963e-05 0.000302793518113 0.0041443540276)
(-0.000100238429938 0.000293626796158 0.0041216508429)
(-0.000130756165319 0.000281023992 0.00408914638828)
(-0.000158601679304 0.000265399692723 0.0040462736065)
(-0.000184233083693 0.00024618617098 0.00399256657954)
(-0.000202499147298 0.000227322354488 0.00392772952354)
(0.000207618265073 0.000233070675492 0.00413443449526)
(0.000187918897268 0.000250177232664 0.00418723707117)
(0.000161066472821 0.00026792746222 0.00422967878201)
(0.000132271898323 0.000282153181363 0.00426278610691)
(0.000101105611663 0.000293559639248 0.00428741117322)
(6.83341735408e-05 0.000301817597186 0.00430435283007)
(3.44530385117e-05 0.000306828518666 0.00431424463063)
(8.19563217649e-09 0.000308508032245 0.00431749713038)
(-3.44368536223e-05 0.000306829013108 0.00431424378949)
(-6.83185896462e-05 0.000301818509116 0.0043043510316)
(-0.000101090973804 0.000293560817471 0.00428740788288)
(-0.000132258439715 0.000282154423226 0.00426277995221)
(-0.000161054212259 0.000267928547437 0.00422966663762)
(-0.000187907229786 0.000250178481402 0.00418721648561)
(-0.000207608037903 0.000233071803741 0.00413441963581)
(0.000207795613521 0.00023321416416 0.00427775636423)
(0.000187129589995 0.000248084244564 0.00431883853075)
(0.00015969949885 0.000263924052755 0.004350665415)
(0.000130654922343 0.000276435074864 0.00437477892044)
(9.95933377282e-05 0.000286410200372 0.00439228364835)
(6.71759228311e-05 0.000293603714525 0.00440409626806)
(3.38281615624e-05 0.000297958352347 0.00441089874585)
(8.32436123883e-09 0.000299416312999 0.00441311842846)
(-3.38117251886e-05 0.000297958912296 0.0044108978737)
(-6.71601036933e-05 0.000293604761971 0.00440409430651)
(-9.9578485741e-05 0.000286411596175 0.00439227981701)
(-0.000130641261931 0.000276436632063 0.00437477132785)
(-0.000159686989286 0.000263925578049 0.00435064998486)
(-0.000187117602422 0.000248086051232 0.00431881201614)
(-0.000207784938772 0.000233215935044 0.00427773285365)
(0.000204279916319 0.000229133822387 0.00437501555904)
(0.000183058022519 0.000241532595673 0.00440554366406)
(0.000155575287251 0.000255217952383 0.00442809560527)
(0.000126821330611 0.000265874171941 0.00444452705483)
(9.64233483166e-05 0.000274328853666 0.00445606448664)
(6.49177989279e-05 0.000280409944249 0.00446364327608)
(3.26554078926e-05 0.00028408550825 0.00446792293099)
(8.45287766434e-09 0.000285315371128 0.00446930424904)
(-3.26387214575e-05 0.000284086189239 0.00446792200456)
(-6.49017497543e-05 0.000280411240899 0.00446364110126)
(-9.64082933601e-05 0.000274330639912 0.00445606001824)
(-0.000126807490058 0.000265876275443 0.00444451786523)
(-0.000155562572178 0.000255220202869 0.00442807676692)
(-0.000183045807121 0.000241535276618 0.00440551175053)
(-0.000204268967596 0.000229136554089 0.00437498530606)
(0.00019806091088 0.00022194000619 0.00443932199474)
(0.000176630467271 0.000231797792339 0.00446087954269)
(0.00014951612976 0.000243214238831 0.00447578373083)
(0.000121464076722 0.000251982207534 0.00448602935236)
(9.21334963275e-05 0.000258915318666 0.00449285659443)
(6.19267281817e-05 0.00026389926199 0.0044971465265)
(3.11205657703e-05 0.000266911002171 0.0044994886984)
(8.62773987616e-09 0.000267918835093 0.00450023019714)
(-3.11035361795e-05 0.000266911861305 0.00449948765622)
(-6.19103551476e-05 0.000263900924048 0.00449714401686)
(-9.21181466326e-05 0.000258917672944 0.00449285130664)
(-0.000121449971974 0.000251985093635 0.0044860183468)
(-0.000149503151764 0.000243217498965 0.00447576139944)
(-0.000176618028094 0.000231801652125 0.00446084296412)
(-0.000198049790416 0.00022194399516 0.00443928704233)
(0.000189914221109 0.000212511637161 0.00448051704974)
(0.000168556521512 0.000219854858612 0.00449480470814)
(0.000142145411201 0.000228961467497 0.00450370317583)
(0.000115106338144 0.000235866785209 0.0045092130196)
(8.71262812944e-05 0.00024132707991 0.00451251138117)
(5.84746172721e-05 0.000245263077794 0.00451437983706)
(2.93603292994e-05 0.000247645545687 0.00451531315777)
(8.88774421745e-09 0.000248443593048 0.00451559254103)
(-2.93427834231e-05 0.000247646635286 0.00451531192561)
(-5.84577401066e-05 0.000245265213302 0.00451437685873)
(-8.71104499219e-05 0.00024133016821 0.00451250511319)
(-0.000115091785877 0.000235870676225 0.00450920008724)
(-0.000142132017991 0.000228965999533 0.0045036775138)
(-0.000168543775031 0.000219860171213 0.00449476460941)
(-0.00018990294805 0.000212517134518 0.00448047982126)
(0.000180436558791 0.000201540077503 0.00450587110831)
(0.000159373269805 0.000206426602947 0.00451450608991)
(0.000133936179182 0.000213217957075 0.00451889247172)
(0.000108144440684 0.000218320197923 0.00452094555426)
(8.17018715739e-05 0.000222384665851 0.00452173153083)
(5.4760540465e-05 0.000225337054651 0.00452191002067)
(2.74735011476e-05 0.000227131268049 0.0045218738873)
(9.26689989612e-09 0.000227733438997 0.00452183768124)
(-2.74551942318e-05 0.000227132627978 0.00452187243055)
(-5.47428985535e-05 0.000225339744415 0.00452190655013)
(-8.16852816219e-05 0.000222388616732 0.00452172436792)
(-0.000108129160787 0.000218325270456 0.00452093104577)
(-0.000133922125199 0.000213223970744 0.00451886433571)
(-0.000159360046901 0.00020643357843 0.00451446445908)
(-0.000180425047364 0.000201547274016 0.00450583499421)
(0.000170072271715 0.000189532680552 0.00452061396956)
(0.000149505661547 0.000192009369793 0.00452500443367)
(0.000125268930362 0.000196517328309 0.00452614823911)
(0.000100886665584 0.000199908687386 0.00452581284649)
(7.60817748699e-05 0.0002026704901 0.00452492039171)
(5.09248133504e-05 0.000204703171286 0.00452399891057)
(2.55278105571e-05 0.000205945231191 0.00452334300766)
(9.79458672084e-09 0.000206363106428 0.00452310696382)
(-2.55084382415e-05 0.000205946872478 0.00452334141879)
(-5.09060777654e-05 0.00020470644167 0.00452399523793)
(-7.60640663968e-05 0.000202675351431 0.0045249130419)
(-0.00010087028582 0.000199915021581 0.00452579819659)
(-0.000125253880876 0.000196524927886 0.00452612000395)
(-0.000149491711277 0.000192018110224 0.00452496473856)
(-0.000170060349629 0.000189541629511 0.00452058356223)
(0.000159213855467 0.000176801208418 0.00452831533242)
(0.000139393620334 0.000176930350472 0.00452958978499)
(0.000116479891231 0.000179231830355 0.00452853839943)
(9.35567173206e-05 0.000181062681028 0.00452670212305)
(7.04039267253e-05 0.000182618044675 0.00452481875961)
(4.70458897002e-05 0.000183780313522 0.00452327772165)
(2.35591272626e-05 0.000184493140042 0.00452228369044)
(1.04867582548e-08 0.000184733432772 0.00452194048552)
(-2.35383483006e-05 0.00018449502865 0.0045222822889)
(-4.70256878463e-05 0.000183784098703 0.00452327468071)
(-7.03846831184e-05 0.000182623722816 0.00452481299404)
(-9.35387902395e-05 0.000181070177967 0.00452669070446)
(-0.000116463429215 0.000179240947487 0.00452851542412)
(-0.000139378628794 0.000176940800374 0.00452955823507)
(-0.000159201272079 0.000176811813233 0.00452829628501)
(0.000148497283256 0.000163472561576 0.00453107635678)
(0.000129601304686 0.000160441472887 0.0045301083079)
(0.00010772946937 0.000161143144236 0.00452778309866)
(8.6218913525e-05 0.000161684559147 0.00452523805864)
(6.46840916445e-05 0.0001621987637 0.00452297322762)
(4.31275864342e-05 0.000162587168736 0.00452123500362)
(2.1568834132e-05 0.000162825567432 0.0045201488917)
(1.1339229707e-08 0.000162906372742 0.00451977916409)
(-2.15463182873e-05 0.000162827594124 0.0045201480672)
(-4.31055571484e-05 0.000162591243501 0.00452123362673)
(-6.46628944411e-05 0.000162204914749 0.0045229712795)
(-8.61989422339e-05 0.000161692779433 0.00452523449663)
(-0.000107711076302 0.000161153297195 0.0045277732914)
(-0.00012958490776 0.000160453267031 0.00453009963365)
(-0.000148483620951 0.000163484591108 0.00453106649641)
(1.17857214243e-06 1.92230416699e-06 0.000468896917426)
(6.79458118592e-07 2.50982890216e-06 0.00049196306179)
(4.45780216734e-07 2.84271591916e-06 0.000512765435186)
(2.28193082218e-07 3.08303573039e-06 0.000530678366329)
(7.77746482928e-08 3.23184483397e-06 0.000545187302655)
(2.67961458432e-09 3.31293463818e-06 0.000555859892433)
(-1.52697696819e-08 3.35048642862e-06 0.000562395354177)
(3.3894178683e-10 3.36116252201e-06 0.000564610276664)
(1.59812681467e-08 3.35051392079e-06 0.000562395448879)
(-1.87584750016e-09 3.31298445083e-06 0.000555860109662)
(-7.68884920497e-08 3.23188315443e-06 0.00054518765378)
(-2.2735597515e-07 3.08300528225e-06 0.000530678805573)
(-4.45188672448e-07 2.84256656669e-06 0.000512766006567)
(-6.79067299524e-07 2.50959361425e-06 0.000491965167071)
(-1.17868825856e-06 1.92203048815e-06 0.000468908403782)
(1.09665295728e-05 1.33396671906e-05 0.00133046746586)
(9.4359235728e-06 1.6262364593e-05 0.00139201998542)
(8.19413129522e-06 1.87084382253e-05 0.00144736645541)
(6.74729862444e-06 2.07951599704e-05 0.00149488270223)
(5.15265490308e-06 2.24397005201e-05 0.00153327355484)
(3.47872305402e-06 2.36199790823e-05 0.00156146493393)
(1.75093546024e-06 2.43302154744e-05 0.00157870441737)
(1.46163017034e-09 2.45676171512e-05 0.00158453055581)
(-1.74796197284e-06 2.43302971387e-05 0.0015787046315)
(-3.47562207317e-06 2.36201125345e-05 0.00156146542497)
(-5.14948108609e-06 2.24397870425e-05 0.00153327433188)
(-6.74433806745e-06 2.07950596444e-05 0.00149488360427)
(-8.19182995343e-06 1.87080287191e-05 0.00144736757151)
(-9.43426747645e-06 1.62617585363e-05 0.00139202535304)
(-1.0966339288e-05 1.33390063888e-05 0.00133049535982)
(2.48146332903e-05 2.87060907541e-05 0.00211672549848)
(2.20399414266e-05 3.42899199201e-05 0.00220860560098)
(1.94113795242e-05 3.92232871721e-05 0.00229061816818)
(1.62355165887e-05 4.34939407272e-05 0.00236057648823)
(1.25808593154e-05 4.69251623878e-05 0.00241678729196)
(8.58750565077e-06 4.94278358614e-05 0.00245788925757)
(4.35397151084e-06 5.09516455352e-05 0.00248294538495)
(2.75552404523e-09 5.14639023998e-05 0.00249138942964)
(-4.34842743762e-06 5.09517618e-05 0.00248294548106)
(-8.5818911988e-06 4.94280077789e-05 0.00245788951112)
(-1.25752780092e-05 4.69252300917e-05 0.00241678764584)
(-1.62303092416e-05 4.34936964786e-05 0.00236057659654)
(-1.9407098343e-05 3.92225728333e-05 0.00229061792302)
(-2.20366600854e-05 3.42889946549e-05 0.00220861031497)
(-2.48135997227e-05 2.87052610639e-05 0.0021167608968)
(3.99394973422e-05 4.50307687904e-05 0.00281779344223)
(3.57058296903e-05 5.30685665559e-05 0.00292997952985)
(3.15008398257e-05 6.02069795127e-05 0.00302897697913)
(2.63940719952e-05 6.6400415707e-05 0.00311260803563)
(2.04943425034e-05 7.13899863014e-05 0.0031792499374)
(1.40094875545e-05 7.50360061449e-05 0.00322766712174)
(7.11034134361e-06 7.72591746761e-05 0.00325704767757)
(3.97246270412e-09 7.8006814968e-05 0.00326691787419)
(-7.10239351781e-06 7.72593306467e-05 0.00325704729202)
(-1.400156206e-05 7.50362364376e-05 0.00322766636661)
(-2.04865926332e-05 7.13900982104e-05 0.00317924860103)
(-2.6386850093e-05 6.64001693259e-05 0.00311260546205)
(-3.14947070284e-05 6.02061808898e-05 0.00302897254307)
(-3.57009154705e-05 5.30675835087e-05 0.00292997842758)
(-3.99372876296e-05 4.50300414083e-05 0.00281782498995)
(5.44576637049e-05 6.03414123564e-05 0.00342511040929)
(4.86421359541e-05 7.03603068126e-05 0.00354716345515)
(4.28360988403e-05 7.91273245554e-05 0.00365326686873)
(3.5822280256e-05 8.67200651676e-05 0.00374178225836)
(2.77793542643e-05 9.28213500283e-05 0.00381157240005)
(1.8970363731e-05 9.72691474093e-05 0.0038618612015)
(9.62289766446e-06 9.99770759457e-05 0.00389220122209)
(5.00608070672e-09 0.000100886786088 0.00390235766598)
(-9.61291560242e-06 9.99772849949e-05 0.00389220013943)
(-1.89604992664e-05 9.7269471416e-05 0.00386185893594)
(-2.77697972766e-05 9.2821584838e-05 0.00381156847494)
(-3.58133696236e-05 8.67199593484e-05 0.00374177553679)
(-4.28283443184e-05 7.91266521969e-05 0.00365325585675)
(-4.86356641491e-05 7.03594845151e-05 0.00354715239822)
(-5.44540691107e-05 6.03409775781e-05 0.00342512986853)
(6.7288782225e-05 7.35798250385e-05 0.00393612510146)
(5.98683369191e-05 8.49994002032e-05 0.00405870056561)
(5.25436763299e-05 9.47269731458e-05 0.00416333042832)
(4.37864238244e-05 0.000103118995769 0.0042492990624)
(3.38641653055e-05 0.000109826419926 0.00431622398579)
(2.30788166095e-05 0.00011469437598 0.00436397389514)
(1.16929326892e-05 0.000117649432041 0.00439258403507)
(5.8338256043e-09 0.000118640525124 0.00440212342631)
(-1.16813236106e-05 0.000117649709571 0.00439258219348)
(-2.30674053045e-05 0.000114694833418 0.00436396994479)
(-3.38531633009e-05 0.000109826854468 0.00431621707157)
(-4.37761364836e-05 0.000103119152209 0.00424928737834)
(-5.25345308224e-05 9.47266046449e-05 0.00416331131952)
(-5.98604100012e-05 8.49989249801e-05 0.00405867700068)
(-6.72837178725e-05 7.3579811415e-05 0.00393612824672)
(7.78263416254e-05 8.420305168e-05 0.00435433895091)
(6.8874661897e-05 9.6424301343e-05 0.00447011057332)
(6.01908008901e-05 0.000106465869468 0.00456681561603)
(4.99437705581e-05 0.00011508337206 0.00464485953124)
(3.84950653016e-05 0.000121920610297 0.00470471341841)
(2.61682597356e-05 0.000126854147214 0.00474692490018)
(1.32381073306e-05 0.000129837655053 0.00477201312299)
(6.48023905661e-09 0.000130836303433 0.00478034075353)
(-1.32252271167e-05 0.00012983802241 0.00477201057377)
(-2.61556350973e-05 0.000126854785649 0.00474691931932)
(-3.84829146551e-05 0.000121921325212 0.00470470347683)
(-4.99323549473e-05 0.000115083910283 0.0046448426039)
(-6.01804525535e-05 0.000106465964787 0.00456678772787)
(-6.88653999185e-05 9.64243484181e-05 0.00447007352185)
(-7.7819807463e-05 8.42035654505e-05 0.00435432452873)
(8.58074944591e-05 9.20232508944e-05 0.00468773116928)
(7.54822108027e-05 0.000104488458181 0.00479170568244)
(6.56530425263e-05 0.000114288799279 0.00487636949652)
(5.42221457312e-05 0.000122645275925 0.00494326848842)
(4.16364364663e-05 0.000129216399414 0.00499367954882)
(2.82251533045e-05 0.00013392604951 0.00502874726742)
(1.42549795978e-05 0.000136761821183 0.00504939208745)
(6.99435106632e-09 0.000137708985411 0.00505620937496)
(-1.42410855304e-05 0.000136762304577 0.00504938892133)
(-2.82115509858e-05 0.000133926925066 0.00502874020998)
(-4.16233396068e-05 0.000129217482708 0.0049936667417)
(-5.42097694171e-05 0.000122646318435 0.00494324641303)
(-6.56416239577e-05 0.000114289514951 0.00487633286178)
(-7.5471731877e-05 0.000104489193794 0.0047916555368)
(-8.57995776519e-05 9.20244190362e-05 0.00468770010768)
(9.12218384402e-05 9.71038476365e-05 0.00494691477564)
(7.97422729436e-05 0.000109329612516 0.0050363092923)
(6.90139470516e-05 0.000118456298363 0.00510693637831)
(5.67260679844e-05 0.000126177285391 0.00516135810366)
(4.33915848147e-05 0.000132185483646 0.00520150856272)
(2.93316057305e-05 0.000136459534359 0.00522897896494)
(1.47888192512e-05 0.000139021116557 0.00524496528988)
(7.43028406736e-09 0.000139874868513 0.00525021148375)
(-1.47740603184e-05 0.000139021741254 0.0052449615949)
(-2.93171542568e-05 0.000136460699659 0.00522897060729)
(-4.33776424999e-05 0.000132187017873 0.00520149315624)
(-5.67128103126e-05 0.000126178943748 0.00516133126127)
(-6.9001535949e-05 0.000118457777271 0.00510689165864)
(-7.97306783935e-05 0.000109331188586 0.00503624762416)
(-9.12126723049e-05 9.71058040414e-05 0.00494686965185)
(9.42282297341e-05 9.96690305624e-05 0.00514354327305)
(8.18499396285e-05 0.000111257603964 0.00521741187301)
(7.04805070903e-05 0.000119402878123 0.00527369462054)
(5.76595254778e-05 0.000126224680228 0.00531574942519)
(4.39389402893e-05 0.000131468987147 0.00534596720778)
(2.96198185543e-05 0.000135169592969 0.00536621106895)
(1.4909872415e-05 0.000137377173258 0.00537781856641)
(7.83843573821e-09 0.000138111499702 0.00538159747138)
(-1.48942978679e-05 0.000137377957646 0.0053778144305)
(-2.96045498756e-05 0.000135171085879 0.00536620162365)
(-4.39241651273e-05 0.000131471031574 0.00534594961386)
(-5.76453918285e-05 0.000126227036499 0.00531571856253)
(-7.04671309983e-05 0.000119405228498 0.00527364319539)
(-8.18373146561e-05 0.000111260144864 0.00521734143198)
(-9.42179560011e-05 9.96718975189e-05 0.00514348812782)
(9.50845471781e-05 0.000100031134164 0.00528911732034)
(8.20756983619e-05 0.000110666406975 0.00534787738908)
(7.03191406612e-05 0.000117629304396 0.0053906979626)
(5.726992767e-05 0.000123382776333 0.00542146312214)
(4.34871294811e-05 0.000127743721323 0.00544280874889)
(2.92406277642e-05 0.000130795376211 0.0054567027132)
(1.46971459805e-05 0.000132608073736 0.00546450530544)
(8.25788999544e-09 0.00013321013708 0.00546701685192)
(-1.46807280316e-05 0.000132609021143 0.00546450087503)
(-2.92245005942e-05 0.000130797205888 0.00545669255882)
(-4.34714671155e-05 0.000127746292779 0.00544278974606)
(-5.72548687697e-05 0.000123385860989 0.00542142966534)
(-7.03047910684e-05 0.000117632576439 0.00539064227618)
(-8.2062107208e-05 0.000110669986896 0.00534780237641)
(-9.50732985901e-05 0.000100034992642 0.00528905789969)
(9.4087920517e-05 9.85328281151e-05 0.0053941808124)
(8.07114645167e-05 0.000107964764927 0.00543914337673)
(6.8810837803e-05 0.000113622439286 0.00547011244741)
(5.58123861027e-05 0.000118212658262 0.00549121499887)
(4.2247625492e-05 0.000121636696009 0.00550513513813)
(2.83447099642e-05 0.000124014271185 0.00551380378986)
(1.42287896755e-05 0.00012542212924 0.00551851112938)
(8.7137152032e-09 0.00012588940821 0.00551999799284)
(-1.42114517445e-05 0.000125423224727 0.00551850672568)
(-2.83276400968e-05 0.000124016406229 0.0055137937216)
(-4.22309887501e-05 0.000121639753532 0.00550511628512)
(-5.57963286122e-05 0.000118216426971 0.00549118163683)
(-6.87954889145e-05 0.00011362660086 0.00547005665945)
(-8.06969584083e-05 0.000107969372988 0.00543906993915)
(-9.40758005263e-05 9.85376973812e-05 0.00539412510046)
(9.15178020689e-05 9.54873728184e-05 0.00546782802787)
(7.80332837619e-05 0.000103513721351 0.00550080199186)
(6.62325052755e-05 0.000107800884749 0.00552189350026)
(5.3538363817e-05 0.000111192793668 0.00553519487581)
(4.04257521438e-05 0.000113683143234 0.00554327257281)
(2.70758389509e-05 0.000115403679433 0.00554790989619)
(1.35784435798e-05 0.000116421452908 0.00555026081406)
(9.21682434688e-09 0.000116759442777 0.00555097312969)
(-1.35600931683e-05 0.000116422656719 0.00555025708441)
(-2.70577341654e-05 0.000115406043534 0.0055479014471)
(-4.04080544511e-05 0.000113686575531 0.00554325674536)
(-5.35212437756e-05 0.000111197116399 0.00553516637336)
(-6.62161406714e-05 0.00010780580315 0.00552184447535)
(-7.8017912167e-05 0.000103519247823 0.00550073878692)
(-9.15049097769e-05 9.54931681435e-05 0.00546778599234)
(8.76346427199e-05 9.116792666e-05 0.00551742029687)
(7.43355261192e-05 9.77458434329e-05 0.00554046355924)
(6.28976061216e-05 0.000100579608688 0.00555376668408)
(5.0715608517e-05 0.000102773302044 0.00556115385794)
(3.82287267401e-05 0.000104365600649 0.00556495444613)
(2.55730583528e-05 0.000105465111202 0.0055667200667)
(1.28154853805e-05 0.000106116251408 0.00556742334732)
(9.76174018782e-09 0.000106332809288 0.00556759959038)
(-1.2796040136e-05 0.000106117499705 0.00556742135957)
(-2.55538476186e-05 0.000105467577075 0.00556671569512)
(-3.82099148518e-05 0.000104369219262 0.00556494616809)
(-5.06974000827e-05 0.000102777943856 0.00556113776758)
(-6.288024083e-05 0.000100585043399 0.00555373539543)
(-7.43193436483e-05 9.77520651974e-05 0.00554042284461)
(-8.76210321833e-05 9.11744808259e-05 0.00551740270224)
(8.25229820315e-05 8.71846583702e-05 0.00554845302712)
(6.995324513e-05 9.12907990588e-05 0.00556392318171)
(5.91004205985e-05 9.24726123542e-05 0.00557141920176)
(4.75688228085e-05 9.34323786376e-05 0.00557467642923)
(3.5819995506e-05 9.4098342047e-05 0.00557566712376)
(2.39410807966e-05 9.45531884662e-05 0.00557563660776)
(1.19909582239e-05 9.48202934531e-05 0.0055753443579)
(1.03326581203e-08 9.49089271962e-05 0.005575202951)
(-1.19703746618e-05 9.4821468962e-05 0.00557534526157)
(-2.39207397869e-05 9.45555238161e-05 0.00557563891077)
(-3.58000722338e-05 9.41018054991e-05 0.00557567116859)
(-4.75495474156e-05 9.34369084486e-05 0.00557468126439)
(-5.90820886325e-05 9.24780721264e-05 0.00557141911132)
(-6.99363790858e-05 9.1297281763e-05 0.00556392713837)
(-8.25086210422e-05 8.71915219427e-05 0.00554845976064)
(-1.01303226071e-07 -3.1956332162e-07 0.000322201469135)
(1.02348856392e-07 -5.1703430484e-07 0.000338115155498)
(2.84038120988e-07 -6.30312724333e-07 0.000352410130641)
(3.73797376363e-07 -6.57717774433e-07 0.000364732404606)
(3.80079904218e-07 -6.35642173633e-07 0.000374718511729)
(3.04228886912e-07 -5.93640642291e-07 0.000382071702967)
(1.68704647994e-07 -5.57485901552e-07 0.000386579670414)
(4.19284605892e-10 -5.4348790299e-07 0.000388110293871)
(-1.67895384113e-07 -5.57493947925e-07 0.00038658013782)
(-3.0349872513e-07 -5.93658660078e-07 0.00038207258906)
(-3.79444280501e-07 -6.35666679792e-07 0.000374719705354)
(-3.73174492287e-07 -6.57723224783e-07 0.000364733803083)
(-2.83488212335e-07 -6.30388529092e-07 0.000352411896745)
(-1.01971675936e-07 -5.17118835791e-07 0.000338118837637)
(1.0139851064e-07 -3.19723197179e-07 0.000322214369282)
(1.21307314489e-06 8.89772481849e-07 0.000969263915914)
(1.58479080597e-06 7.91288808121e-07 0.00101649247928)
(1.88161546798e-06 8.91412231185e-07 0.00105901436689)
(1.91789052802e-06 1.16411303083e-06 0.00109566326885)
(1.71288083511e-06 1.50067533811e-06 0.00112536507801)
(1.28125755341e-06 1.8145537953e-06 0.00114724042486)
(6.85508029134e-07 2.0332646934e-06 0.00116064934671)
(1.23905361573e-09 2.11162724999e-06 0.00116518923161)
(-6.83091533274e-07 2.03320348498e-06 0.0011606504904)
(-1.27900909955e-06 1.81442693436e-06 0.00114724256699)
(-1.71083939598e-06 1.50048748428e-06 0.00112536789508)
(-1.91595125326e-06 1.16390776968e-06 0.00109566645543)
(-1.87989050192e-06 8.91033661365e-07 0.00105901838718)
(-1.58352970599e-06 7.90909094155e-07 0.00101650190216)
(-1.21265685556e-06 8.89268911334e-07 0.000969295948259)
(4.19232139921e-06 4.06232932976e-06 0.00160872537595)
(4.52739962694e-06 4.54090848421e-06 0.00168574018796)
(4.70200946428e-06 5.28651225519e-06 0.00175497562753)
(4.4388776541e-06 6.2148016532e-06 0.00181451961598)
(3.77222339638e-06 7.13827467862e-06 0.00186268807492)
(2.73834291467e-06 7.9138533626e-06 0.00189811464936)
(1.44048135944e-06 8.42656271737e-06 0.00191980411147)
(2.02503792053e-09 8.60589392987e-06 0.00192713225413)
(-1.43650569625e-06 8.42640673608e-06 0.00191980543305)
(-2.73457034784e-06 7.91353543377e-06 0.00189811706541)
(-3.76871317155e-06 7.1378065481e-06 0.00186269106717)
(-4.4355586754e-06 6.21422964881e-06 0.00181452264471)
(-4.699036487e-06 5.28570990834e-06 0.00175497919296)
(-4.52507929449e-06 4.54011711434e-06 0.00168575077032)
(-4.19135572119e-06 4.06155157293e-06 0.00160876761284)
(8.88849189258e-06 9.18679653476e-06 0.00223009209063)
(9.01265284742e-06 1.0638819439e-05 0.00233341075067)
(8.84558555217e-06 1.23778594903e-05 0.00242580509904)
(8.03795646052e-06 1.42457214355e-05 0.00250487236357)
(6.64843216347e-06 1.59701742363e-05 0.00256856057427)
(4.74327718955e-06 1.73551329833e-05 0.00261524309539)
(2.47011853542e-06 1.82479369956e-05 0.0026437515615)
(2.79235410321e-09 1.85564428228e-05 0.00265336194888)
(-2.46461654574e-06 1.82477290499e-05 0.00264375238084)
(-4.73800115263e-06 1.7354707349e-05 0.00261524442595)
(-6.64346500646e-06 1.59695375492e-05 0.00256856170251)
(-8.03328022718e-06 1.42449122887e-05 0.0025048724481)
(-8.84138920314e-06 1.23768003564e-05 0.00242580435282)
(-9.00924147345e-06 1.06378120029e-05 0.00233341639851)
(-8.88681184905e-06 9.18597332227e-06 0.0022301332884)
(1.47983587601e-05 1.563748156e-05 0.00282028965916)
(1.4560037519e-05 1.82446273533e-05 0.00294431843844)
(1.38745606338e-05 2.11003110154e-05 0.00305422232037)
(1.23352678975e-05 2.39855463687e-05 0.00314752501381)
(1.00380385584e-05 2.65509494709e-05 0.0032221668061)
(7.08433157052e-06 2.85612295933e-05 0.00327658262745)
(3.66568223339e-06 2.98382539004e-05 0.00330968456167)
(3.52765149051e-09 3.02763063303e-05 0.00332081388672)
(-3.65871627402e-06 2.98380400686e-05 0.00330968432185)
(-7.07761103753e-06 2.85607870343e-05 0.00327658173457)
(-1.00316678815e-05 2.6550271675e-05 0.00322216430204)
(-1.23292751163e-05 2.39846608722e-05 0.00314751963223)
(-1.38691551057e-05 2.10991809932e-05 0.00305421365583)
(-1.45555126244e-05 1.82436151067e-05 0.00294431371538)
(-1.47958063231e-05 1.56367793934e-05 0.00282032099717)
(2.13441706905e-05 2.27383254033e-05 0.0033664259116)
(2.06181038208e-05 2.64857234186e-05 0.00350404061458)
(1.92852845754e-05 3.03805873965e-05 0.00362442663119)
(1.68954602495e-05 3.41802646399e-05 0.00372552410047)
(1.35940363125e-05 3.74769230885e-05 0.00380565862336)
(9.51978261873e-06 4.0016956513e-05 0.00386365552768)