/*--------------------------------*- C++ -*----------------------------------*\
  =========                 |
  \\      /  F ield         | OpenFOAM: The Open Source CFD Toolbox
   \\    /   O peration     | Website:  https://openfoam.org
    \\  /    A nd           | Version:  7
     \\/     M anipulation  |
\*---------------------------------------------------------------------------*/
FoamFile
{
    version     2.0;
    format      ascii;
    class       surfaceScalarField;
    location    "0.48";
    object      phi;
}
// * * * * * * * * * * * * * * * * * * * * * * * * * * * * * * * * * * * * * //

dimensions      [0 3 -1 0 0 0 0];

internalField   nonuniform List<scalar> 
65775
(
9.72712807206e-12
1.51891519273e-09
1.94752889551e-10
-3.06848797744e-14
1.53179590582e-11
1.59123623832e-09
2.15741522269e-10
1.8261581859e-11
1.65406646832e-09
2.35814871678e-10
1.79741731114e-11
1.70830371439e-09
2.53936036718e-10
1.49881875504e-11
1.75159944199e-09
2.69136879817e-10
9.86883090882e-12
1.78329158099e-09
2.8062778362e-10
3.40092085282e-12
1.80320259504e-09
2.8788746692e-10
-3.54067225151e-12
1.81072786148e-09
2.90494922678e-10
-1.00045952904e-11
1.80321784967e-09
2.87887187739e-10
-1.5116389278e-11
1.78332135102e-09
2.80627168377e-10
-1.8090785735e-11
1.75164331791e-09
2.6913581486e-10
-1.83637132564e-11
1.70835826231e-09
2.53934292209e-10
-1.54026110253e-11
1.65412860342e-09
2.35811889987e-10
-9.79819166327e-12
1.59129430241e-09
2.15735314579e-10
1.51894250333e-09
1.94736671777e-10
-7.61243878747e-14
2.64108328218e-11
2.63241501238e-09
5.01963594264e-10
-7.73825462007e-14
4.47010204151e-11
2.74919588582e-09
5.54405343645e-10
5.34116929911e-11
2.85148820287e-09
6.04275901425e-10
5.29352466051e-11
2.93865794256e-09
6.49089949372e-10
4.4262161379e-11
3.00797587914e-09
6.86535338141e-10
2.91944882979e-11
3.0584578201e-09
7.14758814168e-10
1.00633353691e-11
3.0901317835e-09
7.32554461759e-10
-1.04518615059e-11
3.10214235276e-09
7.38936509307e-10
-2.9572038008e-11
3.09016555306e-09
7.32553509994e-10
-4.46183551037e-11
3.05852403132e-09
7.14756805992e-10
-5.32596021775e-11
3.00807302045e-09
6.86531995267e-10
-5.36951190489e-11
2.93878045384e-09
6.49084648816e-10
-4.49373788115e-11
2.85162816182e-09
6.04267065572e-10
-2.66012869598e-11
2.74932995348e-09
5.54387489084e-10
2.63248950073e-09
5.01921763181e-10
-2.04488581154e-13
4.09600855851e-11
3.41254667375e-09
7.39287781174e-10
-1.02337015263e-13
6.98518158585e-11
3.55326722924e-09
8.15839930765e-10
8.33833184801e-11
3.67769458852e-09
8.88319460186e-10
8.26442300033e-11
3.78220475659e-09
9.5323730702e-10
6.90903393172e-11
3.86497279499e-09
1.00733728799e-09
4.55620839317e-11
3.92491333299e-09
1.04803201944e-09
1.57051787951e-11
3.96245997534e-09
1.07364782549e-09
-1.62918687343e-11
3.97674425637e-09
1.08281464182e-09
-4.61329049781e-11
3.96250528234e-09
1.07364616003e-09
-6.96301040528e-11
3.92500222659e-09
1.04802857523e-09
-8.31381980731e-11
3.86510308414e-09
1.00733167376e-09
-8.38181998178e-11
3.78237029828e-09
9.53228683461e-10
-7.02190889922e-11
3.67788468495e-09
8.8830568981e-10
-4.12565062438e-11
3.55345106187e-09
8.15813528478e-10
3.41265494029e-09
7.39228730808e-10
-3.09740684541e-13
5.39767845474e-11
3.91632063947e-09
9.21124007982e-10
-1.18905279066e-13
9.16168268983e-11
4.06615723793e-09
1.01642241395e-09
1.09259899696e-10
4.19950629559e-09
1.10625294422e-09
1.08169983145e-10
4.30996535551e-09
1.18645417815e-09
9.03714496454e-11
4.39697164124e-09
1.25312256506e-09
5.9566679075e-11
4.45960430326e-09
1.30317559791e-09
2.05286849757e-11
4.49875587025e-09
1.33462805077e-09
-2.12836268383e-11
4.51370272487e-09
1.34585679988e-09
-6.03017449593e-11
4.49880566968e-09
1.33462592318e-09
-9.10675022346e-11
4.45970225926e-09
1.30317124414e-09
-1.08808834981e-10
4.39711517899e-09
1.25311556686e-09
-1.0982539612e-10
4.31014857524e-09
1.18644362395e-09
-9.20980375795e-11
4.19971873072e-09
1.10623652466e-09
-5.43680251579e-11
4.06636422151e-09
1.01639191146e-09
3.91644871189e-09
9.21057500092e-10
-4.02496025062e-13
6.53890751713e-11
4.19321527558e-09
1.05508195981e-09
-1.28855328726e-13
1.10382474053e-10
4.34152781108e-09
1.16473751743e-09
1.31505798363e-10
4.47411581844e-09
1.26762419298e-09
1.30041437748e-10
4.58245771066e-09
1.3591754758e-09
1.08568381997e-10
4.66722677467e-09
1.43508259727e-09
7.15246156701e-11
4.72785211528e-09
1.49196008825e-09
2.46440911946e-11
4.76565343479e-09
1.52763563813e-09
-2.554273046e-11
4.78013783807e-09
1.54033841699e-09
-7.24001512309e-11
4.76570175523e-09
1.52763322752e-09
-1.0939858119e-10
4.72794724623e-09
1.49195522073e-09
-1.30805403672e-10
4.66736641378e-09
1.43507491662e-09
-1.32185390136e-10
4.58263676414e-09
1.35916417796e-09
-1.10965019847e-10
4.47432593289e-09
1.26760717719e-09
-6.58674493302e-11
4.34173290536e-09
1.16470660443e-09
4.19334432537e-09
1.05501494714e-09
-4.86433128764e-13
7.53198048837e-11
4.28625653029e-09
1.14749027137e-09
-1.33751457549e-13
1.26487328726e-10
4.42572565981e-09
1.26788398764e-09
1.50495660316e-10
4.55081615714e-09
1.38029814769e-09
1.48633243801e-10
4.65162737233e-09
1.47997415667e-09
1.23993626211e-10
4.72987770387e-09
1.56239475937e-09
8.16425671167e-11
4.78544314915e-09
1.62402589205e-09
2.8122029771e-11
4.8199859628e-09
1.66260689269e-09
-2.91456326916e-11
4.83327181673e-09
1.6763034368e-09
-8.26405559215e-11
4.82002731415e-09
1.66260426999e-09
-1.24941331113e-10
4.78552475605e-09
1.62402069431e-09
-1.49507775686e-10
4.72999779589e-09
1.5623867906e-09
-1.51277441886e-10
4.65178240471e-09
1.47996290033e-09
-1.27162887154e-10
4.55100045763e-09
1.38028200294e-09
-7.58807696141e-11
4.42590601672e-09
1.26785513872e-09
4.2863672506e-09
1.1474266539e-09
-5.63657870402e-13
8.39342060986e-11
4.23287667316e-09
1.2037787482e-09
-1.34948266088e-13
1.40244128339e-10
4.35888136091e-09
1.33193175544e-09
1.66579844256e-10
4.47214892864e-09
1.45098606106e-09
1.64288892524e-10
4.56211944859e-09
1.5561570945e-09
1.36931601686e-10
4.63130597478e-09
1.64287561535e-09
9.01073276767e-11
4.68005396007e-09
1.70758058162e-09
3.10258679196e-11
4.71025291779e-09
1.74799935933e-09
-3.21612130738e-11
4.72191159754e-09
1.76230014783e-09
-9.12151345214e-11
4.71028290339e-09
1.7479964722e-09
-1.37985393248e-10
4.68011330229e-09
1.70757498883e-09
-1.65264304846e-10
4.6313936851e-09
1.64286737569e-09
-1.67456391123e-10
4.56223395947e-09
1.55614613463e-09
-1.41007728977e-10
4.47228792451e-09
1.45097146919e-09
-8.45755930936e-11
4.35901558942e-09
1.33190612455e-09
4.2329495256e-09
1.20372024818e-09
-6.36599247004e-13
9.13474762158e-11
4.06563171132e-09
1.22870890304e-09
-1.33216959258e-13
1.51888347099e-10
4.17569309435e-09
1.36219107402e-09
1.80048576918e-10
4.2747388434e-09
1.48555067912e-09
1.77305596092e-10
4.35219428151e-09
1.59410181683e-09
1.47635005372e-10
4.41111896181e-09
1.68334355352e-09
9.70867437099e-11
4.45228907499e-09
1.74978068953e-09
3.34127365853e-11
4.47769141555e-09
1.79118558581e-09
-3.46515793833e-11
4.48753192954e-09
1.80577937842e-09
-9.82966326145e-11
4.47770661636e-09
1.79118224333e-09
-1.48788192901e-10
4.45231925086e-09
1.74977435309e-09
-1.78376628084e-10
4.41116413249e-09
1.68333461663e-09
-1.81016335818e-10
4.35225487616e-09
1.59409076958e-09
-1.52738240417e-10
4.27481619773e-09
1.48553740111e-09
-9.20689096709e-11
4.17576285428e-09
1.36216847259e-09
4.06564823894e-09
1.22865551456e-09
-7.06861384833e-13
9.76365318006e-11
3.81276393085e-09
1.22651842308e-09
-1.29383737236e-13
1.61597016386e-10
3.90604316152e-09
1.3633779141e-09
1.91144640238e-10
3.98994674637e-09
1.48919008495e-09
1.87945139039e-10
4.05444646861e-09
1.59945504584e-09
1.56332481299e-10
4.10292782437e-09
1.68982830181e-09
1.02734199756e-10
4.13650584603e-09
1.75694876333e-09
3.53350679721e-11
4.15713079189e-09
1.79867471734e-09
-3.66736335599e-11
4.16514064322e-09
1.81331779431e-09
-1.04042848445e-10
4.15712891113e-09
1.79867058014e-09
-1.57582565318e-10
4.1365022071e-09
1.7569410259e-09
-1.89110463115e-10
4.10292328931e-09
1.68981774922e-09
-1.92203429259e-10
4.05444352725e-09
1.59944281516e-09
-1.62534015708e-10
3.98994997104e-09
1.48917689361e-09
-9.84391438359e-11
3.90603348974e-09
1.36335685406e-09
3.81270740337e-09
1.22646869223e-09
-7.75981347982e-13
1.02855027441e-10
3.498656577e-09
1.20101248884e-09
-1.24039507692e-13
1.69514052518e-10
3.5754984451e-09
1.3397175306e-09
2.00089868429e-10
3.64440820205e-09
1.46655134645e-09
1.96457018928e-10
3.69640680838e-09
1.57725301435e-09
1.63244413362e-10
3.73500706576e-09
1.66769518498e-09
1.07197572886e-10
3.76151900503e-09
1.7346998592e-09
3.68434448696e-11
3.7777238875e-09
1.77624023719e-09
-3.82818064103e-11
3.78401961488e-09
1.79074614585e-09
-1.08605400685e-10
3.77770382242e-09
1.7762348169e-09
-1.64592458309e-10
3.76147919674e-09
1.7346897479e-09
-1.97718454236e-10
3.73494894572e-09
1.66768158644e-09
-2.01242200527e-10
3.69633436574e-09
1.57723776395e-09
-1.70540874821e-10
3.64432882901e-09
1.46653602891e-09
-1.03741244694e-10
3.57539798343e-09
1.33969532952e-09
3.49851336833e-09
1.2009637243e-09
-8.45235001793e-13
1.07033189741e-10
3.14423178451e-09
1.1556229969e-09
-1.17742836824e-13
1.75774480223e-10
3.20571835253e-09
1.29501311581e-09
2.07119938092e-10
3.26048703762e-09
1.42180615374e-09
2.03106207228e-10
3.30107260697e-09
1.53200008297e-09
1.68599167296e-10
3.33088796289e-09
1.6217245075e-09
1.10626608872e-10
3.35123479247e-09
1.68802107369e-09
3.798875877e-11
3.36360525211e-09
1.72899962479e-09
-3.95299800324e-11
3.36839082584e-09
1.74322905021e-09
-1.12136893526e-10
3.36356706822e-09
1.7289923024e-09
-1.70048816617e-10
3.35115867425e-09
1.68800732998e-09
-2.04467789513e-10
3.33077548968e-09
1.62170595254e-09
-2.08369930236e-10
3.30092853009e-09
1.53197927383e-09
-1.76894873151e-10
3.26032054567e-09
1.42178560074e-09
-1.08006034416e-10
3.20551972811e-09
1.29498610521e-09
3.14399201349e-09
1.15557149013e-09
-9.15753610305e-13
1.10176614437e-10
2.76730849734e-09
1.09344923917e-09
-1.1048235458e-13
1.80568262333e-10
2.81474451942e-09
1.23269802455e-09
2.12555088663e-10
2.85666233613e-09
1.35870919369e-09
2.08215520899e-10
2.88740770662e-09
1.46772729118e-09
1.72650415092e-10
2.9099180293e-09
1.55616906038e-09
1.13178413778e-10
2.92524037916e-09
1.62132874186e-09
3.88231836212e-11
2.93449524552e-09
1.66147181002e-09
-4.04721388424e-11
2.93802705627e-09
1.67532266727e-09
-1.14796077488e-10
2.93443990372e-09
1.66146188814e-09
-1.7420656038e-10
2.92512988072e-09
1.62130991689e-09
-2.09682007743e-10
2.90975338023e-09
1.5561432784e-09
-2.13907032013e-10
2.88719341045e-09
1.46769781414e-09
-1.81785556771e-10
2.85640803075e-09
1.3586796001e-09
-1.11238381047e-10
2.81444435324e-09
1.23266195812e-09
2.76696632523e-09
1.0933906932e-09
-9.8825613781e-13
1.12393991253e-10
2.38279865501e-09
1.01728805762e-09
-1.0235204843e-13
1.84367823661e-10
2.41714116855e-09
1.15588619289e-09
2.16930582143e-10
2.44795974581e-09
1.28065109182e-09
2.12201505728e-10
2.47088990522e-09
1.38803973324e-09
1.7567374411e-10
2.48781605737e-09
1.47479896504e-09
1.15007364715e-10
2.49935189457e-09
1.53851400415e-09
3.9396635817e-11
2.50625208494e-09
1.5776243034e-09
-4.11585188756e-11
2.50880414165e-09
1.59102257616e-09
-1.16737222407e-10
2.50618131738e-09
1.57761111575e-09
-1.77340758301e-10
2.4992101075e-09
1.53848866981e-09
-2.13776468631e-10
2.48760354333e-09
1.47476360451e-09
-2.18386988468e-10
2.47060971582e-09
1.38799819025e-09
-1.85683061657e-10
2.44762040923e-09
1.28060825458e-09
-1.13544174981e-10
2.41673936803e-09
1.15583689693e-09
2.38235140854e-09
1.01721883876e-09
-1.05824856067e-12
1.14463245796e-10
2.00231771287e-09
9.29656828056e-10
-9.27923216159e-14
1.88248621432e-10
2.02431429703e-09
1.06743838534e-09
2.20963819091e-10
2.04669015241e-09
1.19070504827e-09
2.15431342966e-10
2.06413768723e-09
1.29614624204e-09
1.77848732775e-10
2.07717119198e-09
1.38093069031e-09
1.1620063686e-10
2.08607913103e-09
1.44297713915e-09
3.97357239844e-11
2.09133709337e-09
1.48091239275e-09
-4.16140818849e-11
2.09317561424e-09
1.49380485687e-09
-1.18045631861e-10
2.09125247298e-09
1.48089550169e-09
-1.79628256304e-10
2.08590956811e-09
1.4429442908e-09
-2.17114906541e-10
2.07691630225e-09
1.38088389524e-09
-2.22523105111e-10
2.06379863774e-09
1.29608951926e-09
-1.89659221919e-10
2.04627241148e-09
1.19064465758e-09
-1.15698063083e-10
2.02381395687e-09
1.06737219544e-09
2.00177019932e-09
9.29575442544e-10
-1.12785123298e-12
1.19069113484e-10
8.33003025533e-10
-8.31208264373e-14
1.63235130616e-09
1.94054926954e-10
9.70230490361e-10
1.64563361191e-09
2.25511722349e-10
1.09172021107e-09
1.66330136196e-09
2.18364293756e-10
1.19490018305e-09
1.67731473132e-09
1.7949577857e-10
1.27744981037e-09
1.68782657368e-09
1.16968305494e-10
1.33764092347e-09
1.69511733208e-09
3.99168270337e-11
1.37428676229e-09
1.6993972076e-09
-4.19116853145e-11
1.38663179026e-09
1.70077916164e-09
-1.18927105786e-10
1.37426641235e-09
1.69929928579e-09
-1.81384082499e-10
1.33760095616e-09
1.69492123501e-09
-2.20149668397e-10
1.27739182714e-09
1.68753213222e-09
-2.27164432027e-10
1.19482760803e-09
1.67692207398e-09
-1.95547955585e-10
1.09164016992e-09
1.66281205465e-09
-1.20375077385e-10
9.70141748874e-10
1.64504358522e-09
8.32916384373e-10
-1.19052836545e-12
1.63170740839e-09
-1.15853140176e-12
6.03794648892e-11
1.35511775516e-10
-6.53049581061e-15
-1.26533226827e-12
6.63785451203e-11
1.49426311112e-10
-1.10452585998e-12
7.28944959315e-11
1.62719132043e-10
-8.86424812043e-13
7.89480844239e-11
1.74734362228e-10
-6.49762782689e-13
8.40554112177e-11
1.84820682447e-10
-4.08009866563e-13
8.79192735274e-11
1.92448695164e-10
-1.61467060413e-13
9.03535765187e-11
1.97269920066e-10
8.75028650669e-14
9.12235441084e-11
1.99003785423e-10
3.33506109337e-13
9.03540475596e-11
1.97267693527e-10
5.74519646119e-13
8.79221127129e-11
1.92444261824e-10
8.12125511742e-13
8.40645080606e-11
1.84814056484e-10
1.03564993208e-12
7.89658284206e-11
1.74725471672e-10
1.20519595178e-12
7.29156335119e-11
1.62707584278e-10
1.11014941262e-12
6.64012157276e-11
1.49410547794e-10
6.03837716887e-11
1.35486596497e-10
-4.12829397962e-14
-1.56788056635e-12
1.76338076193e-10
3.8753841406e-10
-1.58223339405e-14
-1.4157372724e-12
1.92559165031e-10
4.28006067635e-10
-8.02656324919e-13
2.0982734577e-10
4.66665212714e-10
-2.68177709371e-13
2.25846181991e-10
5.01604494308e-10
3.10723580806e-14
2.39314623836e-10
5.30939141337e-10
8.47022069398e-14
2.49464758032e-10
5.53129274013e-10
-3.17878026573e-14
2.55847407113e-10
5.67147438091e-10
-2.05300603486e-13
2.58130455631e-10
5.72172041108e-10
-3.21642915941e-13
2.5585093748e-10
5.67140914451e-10
-2.66605335322e-13
2.49475366373e-10
5.5311626101e-10
3.92501364794e-14
2.39339011726e-10
5.30919664216e-10
5.91088839049e-13
2.25888804663e-10
5.01578371602e-10
1.23149701933e-12
2.09880128947e-10
4.66631425003e-10
1.41908324047e-12
1.92611333973e-10
4.27960331486e-10
1.76353813216e-10
3.87469392461e-10
-1.26139632524e-13
-6.42370284311e-13
3.12311625177e-10
6.03933028528e-10
-2.44020704117e-14
3.0806543654e-13
3.39483922629e-10
6.67905072521e-10
1.52248506665e-12
3.67960868468e-10
7.28912330467e-10
2.26799106368e-12
3.94309812035e-10
7.83980883243e-10
2.28837414609e-12
4.164187333e-10
8.30177888538e-10
1.61175001901e-12
4.33040866484e-10
8.65103595132e-10
4.53601838835e-13
4.43478499254e-10
8.87146551589e-10
-8.68218979683e-13
4.47211258263e-10
8.950262538e-10
-2.02343382519e-12
4.4348605403e-10
8.87136110312e-10
-2.69255393527e-12
4.33060029815e-10
8.65082771597e-10
-2.65540853578e-12
4.16456820108e-10
8.30146784693e-10
-1.87790488195e-12
3.94371262385e-10
7.83939298696e-10
-6.16407987411e-13
3.68036750916e-10
7.28858926774e-10
3.92408139732e-13
3.39554694376e-10
6.67833993102e-10
3.12333900855e-10
6.03829180671e-10
-2.13504091565e-13
1.22276882841e-12
4.49212190107e-10
7.82986629475e-10
-3.15467612529e-14
3.41756683274e-12
4.86532133521e-10
8.67124776199e-10
5.3464144621e-12
5.25070860406e-10
9.47161150012e-10
6.19898880336e-12
5.60585764965e-10
1.01928319593e-09
5.67234347789e-12
5.90320613514e-10
1.07971434825e-09
3.86927891116e-12
6.12629643814e-10
1.12536155561e-09
1.19056722724e-12
6.2661966284e-10
1.15413795301e-09
-1.78691969381e-12
6.31620235113e-10
1.16439710877e-09
-4.45881358998e-12
6.26631239238e-10
1.15412405924e-09
-6.24641131405e-12
6.1265647368e-10
1.12533388336e-09
-6.74438197831e-12
5.90369076008e-10
1.07967311689e-09
-5.84448780961e-12
5.60659024074e-10
1.0192283425e-09
-3.84983420491e-12
5.25160381232e-10
9.47091428715e-10
-1.57557566646e-12
4.86613133114e-10
8.67033867241e-10
4.49238231661e-10
7.82857972527e-10
-3.0371135011e-13
3.7678361257e-12
5.736476753e-10
9.26874630084e-10
-3.76796916083e-14
7.50825956621e-12
6.19425949086e-10
1.02805370461e-09
1.02207082027e-11
6.65939924715e-10
1.12399634016e-09
1.10840374218e-11
7.08593903091e-10
1.21026579882e-09
9.8080471855e-12
7.4420899546e-10
1.28243967711e-09
6.60533234695e-12
7.708713355e-10
1.33689416716e-09
2.09144284008e-12
7.87567220986e-10
1.37117571814e-09
-2.86988019399e-12
7.93529976869e-10
1.38336341713e-09
-7.37246477914e-12
7.87581532677e-10
1.37115879534e-09
-1.05507987628e-11
7.70902913661e-10
1.33686053295e-09
-1.17854524849e-11
7.44262699527e-10
1.28238975933e-09
-1.08593353369e-11
7.08671606621e-10
1.21019986083e-09
-8.06354031713e-12
6.66033435112e-10
1.12391360273e-09
-4.22448983018e-12
6.19509291773e-10
1.02794804209e-09
5.73673305535e-10
9.26729229579e-10
-3.9546884102e-13
6.74943340085e-12
6.76790240678e-10
1.03760170261e-09
-4.30753103122e-14
1.22292453008e-11
7.28891316274e-10
1.15289544578e-09
1.5755694489e-11
7.80853809573e-10
1.26181638707e-09
1.65476647861e-11
8.28238667445e-10
1.35950244233e-09
1.43815455013e-11
8.67667408493e-10
1.44107338465e-09
9.61134135428e-12
8.97110990115e-10
1.50253026431e-09
3.08406494022e-12
9.15517489593e-10
1.54115849294e-09
-4.04169080244e-12
9.22083433492e-10
1.55485037909e-09
-1.05529595995e-11
9.1553291993e-10
1.54113886489e-09
-1.52896337892e-11
8.97143924608e-10
1.5024913652e-09
-1.74017172327e-11
8.67721017483e-10
1.44101595901e-09
-1.65320412274e-11
8.28313544747e-10
1.35942727741e-09
-1.29057597327e-11
7.8094260878e-10
1.26172348084e-09
-7.31030536425e-12
7.28968237534e-10
1.15277919105e-09
6.76811610923e-10
1.03744537126e-09
-4.87468043235e-13
9.95366085966e-12
7.53472492873e-10
1.11715408519e-09
-4.76885911733e-14
1.72772435088e-11
8.09611177143e-10
1.24385035709e-09
2.161409325e-11
8.64424473264e-10
1.36304158714e-09
2.2267786283e-11
9.1409179729e-10
1.46961863089e-09
1.91269152788e-11
9.55240358347e-10
1.55841638251e-09
1.27123087218e-11
9.85876314062e-10
1.62520506375e-09
4.10818078686e-12
1.00498909206e-09
1.66710780435e-09
-5.23952699046e-12
1.01179576591e-09
1.68191163128e-09
-1.38230381975e-11
1.00500357689e-09
1.66708566165e-09
-2.01952782314e-11
9.85906484457e-10
1.62516133501e-09
-2.32699931302e-11
9.55287971986e-10
1.5583522417e-09
-2.25246300583e-11
9.14156484661e-10
1.46953557415e-09
-1.80727593535e-11
8.64500344913e-10
1.36294062523e-09
-1.06179994978e-11
8.09673223385e-10
1.24372650511e-09
7.53483732914e-10
1.11699083511e-09
-5.79021239985e-13
1.3205465795e-11
8.01421554023e-10
1.16757360389e-09
-5.14912482428e-14
2.24011678193e-11
8.59373262417e-10
1.30319998494e-09
2.75164014756e-11
9.1462134037e-10
1.43020602484e-09
2.79802125603e-11
9.64312177287e-10
1.54338876018e-09
2.38291132261e-11
1.00525832391e-09
1.63745113703e-09
1.5768331894e-11
1.03563252246e-09
1.70806156222e-09
5.11584945702e-12
1.05453430235e-09
1.75226990115e-09
-6.41360349575e-12
1.06125064948e-09
1.76783134248e-09
-1.70411720347e-11
1.05454587212e-09
1.75224527454e-09
-2.50513903849e-11
1.03565608073e-09
1.70801311778e-09
-2.91251962021e-11
1.00529439837e-09
1.63738058643e-09
-2.85568969642e-11
9.64359731376e-10
1.54329847337e-09
-2.33129621461e-11
9.14675894258e-10
1.43009819265e-09
-1.39716210222e-11
8.59411889011e-10
1.30307023236e-09
8.01413832394e-10
1.16740584998e-09
-6.69221237631e-13
1.63683471015e-11
8.20612953754e-10
1.19098434646e-09
-5.47009465855e-14
2.74001415383e-11
8.78356427377e-10
1.33333409433e-09
3.32405139807e-11
9.31960596221e-10
1.46598195407e-09
3.34792236236e-11
9.79747384776e-10
1.58375511011e-09
2.83245705601e-11
1.0188638783e-09
1.6813538118e-09
1.86750134995e-11
1.04775233824e-09
1.75445627093e-09
6.07168490377e-12
1.06567379165e-09
1.80011698296e-09
-7.52710378995e-12
1.07202218353e-09
1.81612387266e-09
-2.01016632126e-11
1.06568050045e-09
1.80008973329e-09
-2.96933334122e-11
1.04776552731e-09
1.75440287617e-09
-3.47607748539e-11
1.01888307683e-09
1.68127661357e-09
-3.44061231588e-11
9.79771208144e-10
1.5836574912e-09
-2.84247074601e-11
9.3198586351e-10
1.46586740914e-09
-1.72341307459e-11
8.78362537459e-10
1.33319880812e-09
8.20577115761e-10
1.19081303894e-09
-7.57231787121e-13
1.93441040188e-11
8.12722624336e-10
1.18959036222e-09
-5.72153632799e-14
3.21234944578e-11
8.68525331999e-10
1.33674465765e-09
3.86240001058e-11
9.18819533353e-10
1.47316715804e-09
3.862044002e-11
9.6317549843e-10
1.5938051913e-09
3.25035147539e-11
9.99193922361e-10
1.69346029977e-09
2.13647999191e-11
1.02565493051e-09
1.76791521753e-09
6.95333932978e-12
1.04200879632e-09
1.8142964434e-09
-8.55644837413e-12
1.04777769792e-09
1.83048063577e-09
-2.2935767187e-11
1.04200896778e-09
1.81426627461e-09
-3.40102226873e-11
1.0256545049e-09
1.76785630656e-09
-4.00312902327e-11
9.99191572287e-10
1.69337568179e-09
-3.9908890497e-11
9.6316945179e-10
1.59369937235e-09
-3.3256387034e-11
9.18807673273e-10
1.47304504485e-09
-2.03062337949e-11
8.68489459096e-10
1.33660296336e-09
8.12647407796e-10
1.18941512802e-09
-8.42329548057e-13
2.20710434511e-11
7.80655268022e-10
1.16565568335e-09
-5.93112845783e-14
3.64738902158e-11
8.33112282171e-10
1.31600236341e-09
4.35712955602e-11
8.78852534735e-10
1.45465428001e-09
4.33291869154e-11
9.1866833345e-10
1.57672866024e-09
3.6316706559e-11
9.50701815525e-10
1.67720931119e-09
2.38109759966e-11
9.74097071664e-10
1.75206542725e-09
7.75292085985e-12
9.88492886097e-10
1.79855484625e-09
-9.49236381102e-12
9.93542127824e-10
1.81469146934e-09
-2.55153623203e-11
9.8848501027e-10
1.79852135025e-09
-3.79513729805e-11
9.74080070803e-10
1.7520001814e-09
-4.4860627912e-11
9.5067368293e-10
1.6771160615e-09
-4.4968167608e-11
9.18626863976e-10
1.57661311095e-09
-3.77092035078e-11
8.78796224784e-10
1.45452287963e-09
-2.31250773211e-11
8.33025017443e-10
1.31585240143e-09
7.80529522713e-10
1.16547506061e-09
-9.23610630324e-13
2.45246967889e-11
7.28146224772e-10
1.12147397661e-09
-6.08955276901e-14
4.04195866828e-11
7.76168934657e-10
1.27372847229e-09
4.8073668426e-11
8.16492599517e-10
1.41339654088e-09
4.76196010615e-11
8.51063681188e-10
1.53576772656e-09
3.97887085852e-11
8.78607007498e-10
1.63607695516e-09
2.60350678915e-11
8.98604438936e-10
1.71055763848e-09
8.47924592892e-12
9.10849735106e-10
1.75665358695e-09
-1.03419496858e-11
9.15111350605e-10
1.77255793971e-09
-2.78601826053e-11
9.10832294655e-10
1.75661633367e-09
-4.15393603991e-11
8.98568114331e-10
1.71048515222e-09
-4.92607643615e-11
8.78549070628e-10
1.63597363324e-09
-4.95729792115e-11
8.5098153201e-10
1.53564048331e-09
-4.17492570765e-11
8.1638472786e-10
1.41325356681e-09
-2.5664043367e-11
7.76021274224e-10
1.27356791931e-09
7.27958571645e-10
1.12128594982e-09
-1.0000644848e-12
2.67494566696e-11
6.59395595421e-10
1.05933270712e-09
-6.19033003831e-14
4.40537221331e-11
7.02157587361e-10
1.21257768859e-09
5.226852748e-11
7.3653180265e-10
1.352380955e-09
5.16387593242e-11
7.65550590295e-10
1.4741667191e-09
4.30452299022e-11
7.88475425527e-10
1.57350820017e-09
2.8120614839e-11
8.05039893944e-10
1.64698743337e-09
9.16225599773e-12
8.1513211519e-10
1.69228495936e-09
-1.11330879852e-11
8.18606128792e-10
1.70780786605e-09
-3.00514564119e-11
8.15103497002e-10
1.69224365036e-09
-4.4897417188e-11
8.04980994352e-10
1.64690700841e-09
-5.33759082044e-11
7.88383428563e-10
1.57339352447e-09
-5.3857742919e-11
7.65422232454e-10
1.47402577358e-09
-4.54666230263e-11
7.36365408952e-10
1.35222394556e-09
-2.79646530307e-11
7.01940173763e-10
1.21240454993e-09
6.59134073138e-10
1.05913621972e-09
-1.06787109384e-12
2.89178708272e-11
5.78704810042e-10
9.81474378233e-10
-6.21515764381e-14
4.76303549713e-11
6.1560805844e-10
1.13526175977e-09
5.64679561208e-11
6.43776243145e-10
1.27460917812e-09
5.56845738243e-11
6.67355329683e-10
1.39511059193e-09
4.63247413803e-11
6.8591257307e-10
1.49283925846e-09
3.02209431296e-11
6.99292994615e-10
1.56481385791e-09
9.85519846147e-12
7.07405736021e-10
1.6089905523e-09
-1.19167600753e-11
7.10155648656e-10
1.62401385563e-09
-3.22402159196e-11
7.07363711639e-10
1.60894526125e-09
-4.82611273682e-11
6.99207654787e-10
1.56472549062e-09
-5.75008303982e-11
6.85781251015e-10
1.49271279571e-09
-5.81308541007e-11
6.67174937445e-10
1.39495456579e-09
-4.91123082286e-11
6.43544334008e-10
1.2744358135e-09
-3.01968645884e-11
6.15311931132e-10
1.13507483133e-09
5.7836029344e-10
9.81271058972e-10
-1.12796324749e-12
2.94599593616e-11
8.90058906296e-10
-6.27350150081e-14
4.92235171964e-10
5.0591191834e-11
1.04465485139e-09
5.20040051333e-10
6.0607581919e-11
1.18297439164e-09
5.42492958144e-10
5.99356310221e-11
1.30157599502e-09
5.61338943785e-10
4.98847933028e-11
1.39717833399e-09
5.762220463e-10
3.25464870093e-11
1.46727430295e-09
5.86985155612e-10
1.06388141704e-11
1.51009929401e-09
5.93488511668e-10
-1.2771807334e-11
1.52453941328e-09
5.95646450266e-10
-3.46345039343e-11
1.51005098066e-09
5.93430140249e-10
-5.18852525618e-11
1.46717979091e-09
5.86867587959e-10
-6.18099863248e-11
1.39704231599e-09
5.76043760668e-10
-6.23229971927e-11
1.30140656488e-09
5.61097726876e-10
-5.2120458266e-11
1.18278506239e-09
5.42186450304e-10
-3.0784618353e-11
1.04445060956e-09
5.19657534958e-10
8.89860197083e-10
-1.17341778257e-12
4.91796321642e-10
1.00451527245e-12
-9.57657520668e-12
1.44063791527e-10
-2.48412854982e-15
1.58100609148e-12
-1.07571764563e-11
1.59584280078e-10
1.86416549496e-12
-1.20492590186e-11
1.7445898237e-10
1.8503178378e-12
-1.32178573052e-11
1.87946529581e-10
1.5537822321e-12
-1.42066213635e-11
1.99300957255e-10
1.02488312941e-12
-1.49549969056e-11
2.07907825842e-10
3.42989933268e-13
-1.5425395784e-11
2.13354173786e-10
-3.93199587173e-13
-1.55900318131e-11
2.15310171635e-10
-1.0730200331e-12
-1.54199411415e-11
2.13350184894e-10
-1.59833053822e-12
-1.49458389076e-11
2.0789992932e-10
-1.89134429296e-12
-1.41964333062e-11
1.99289284882e-10
-1.90298334419e-12
-1.32074724967e-11
1.87931194461e-10
-1.61409209278e-12
-1.20339249803e-11
1.74439903944e-10
-1.03228550674e-12
-1.07436985338e-11
1.59560354828e-10
-9.56573540654e-12
1.44030758832e-10
-2.21106431726e-14
2.40198129895e-12
-1.56255173773e-11
3.91154879344e-10
-4.80673762145e-15
3.94628217639e-12
-1.72870161634e-11
4.32953228156e-10
4.7247657674e-12
-1.91246104542e-11
4.72924089682e-10
4.72482155401e-12
-2.07413155908e-11
5.09093665999e-10
3.98250833673e-12
-2.20603775376e-11
5.39497619736e-10
2.62831052101e-12
-2.30305353205e-11
5.62520193006e-10
8.70255644198e-13
-2.36288860963e-11
5.77073206835e-10
-1.03028723048e-12
-2.38359898899e-11
5.82287192959e-10
-2.78264762439e-12
-2.36156603955e-11
5.77061374013e-10
-4.12680583135e-12
-2.30071022017e-11
5.62496797765e-10
-4.85800693505e-12
-2.20316408792e-11
5.39463100288e-10
-4.84734573102e-12
-2.0709777275e-11
5.0904844081e-10
-4.05264412398e-12
-1.90856581969e-11
4.72868037051e-10
-2.48949518127e-12
-1.7249144835e-11
4.328834648e-10
-1.5595918674e-11
3.91062461602e-10
-7.00405534713e-14
3.33823344159e-12
-1.28249808951e-11
5.97769644421e-10
-6.87354802606e-15
5.61857280977e-12
-1.37502801746e-11
6.62052805271e-10
6.79677610021e-12
-1.48198989096e-11
7.23396016369e-10
6.83127484054e-12
-1.56478938188e-11
7.78821166773e-10
5.77188119963e-12
-1.62209354743e-11
8.25363440449e-10
3.8079389163e-12
-1.6579159167e-11
8.60580712765e-10
1.24598792931e-12
-1.67728069018e-11
8.82819555823e-10
-1.52609333293e-12
-1.68332520307e-11
8.90766534906e-10
-4.07901287351e-12
-1.67528019594e-11
8.82800368841e-10
-6.02664975992e-12
-1.65428762838e-11
8.60542818141e-10
-7.06620102991e-12
-1.6174557788e-11
8.25307639708e-10
-7.0099013244e-12
-1.55954099726e-11
7.78748316011e-10
-5.80328899262e-12
-1.47588203591e-11
7.23306290561e-10
-3.48950745957e-12
-1.36894859616e-11
6.6194261644e-10
-1.27778672832e-11
5.97627483624e-10
-1.22349444376e-13
3.97992942588e-12
-2.89457353142e-12
7.69055561709e-10
-8.2176540302e-15
6.82066147425e-12
-2.20940793078e-12
8.52713097012e-10
8.32836503988e-12
-1.5434363159e-12
9.32347264946e-10
8.41190375807e-12
-6.58496674585e-13
1.0041805477e-09
7.12448434696e-12
3.14663239398e-13
1.06443481118e-09
4.69856264611e-12
1.18522434719e-12
1.10999154699e-09
1.51850342119e-12
1.78781530347e-12
1.1387279561e-09
-1.92564998485e-12
2.01181076127e-12
1.14896969716e-09
-5.09348215873e-12
1.81319410163e-12
1.13870204481e-09
-7.49687279234e-12
1.2321515963e-12
1.10994043614e-09
-8.75508846297e-12
3.76743673834e-13
1.06435972988e-09
-8.63754615808e-12
-5.86685046519e-13
1.00408294605e-09
-7.08818160978e-12
-1.46278598157e-12
9.32227988458e-10
-4.19986373669e-12
-2.12950109074e-12
8.52568830811e-10
-2.83037851656e-12
7.68874252866e-10
-1.78760348079e-13
4.44274964008e-12
1.23590670847e-11
9.07161304363e-10
-9.21533058926e-15
7.71616335184e-12
1.52044853205e-11
1.00734158858e-09
9.49090485446e-12
1.82192734562e-11
1.1024327675e-09
9.62494061258e-12
2.13978318019e-11
1.18804925706e-09
8.16738189351e-12
2.44098304542e-11
1.25977440121e-09
5.38239343684e-12
2.6882133046e-11
1.31395425204e-09
1.7165791669e-12
2.85146838331e-11
1.34808823496e-09
-2.25669421363e-12
2.9104431284e-11
1.36021991043e-09
-5.90706132775e-12
2.85441377266e-11
1.34805621736e-09
-8.66309846643e-12
2.69372321588e-11
1.31389119433e-09
-1.00816780003e-11
2.44840599904e-11
1.2596820441e-09
-9.90097316008e-12
2.14847473254e-11
1.18792982213e-09
-8.07065510012e-12
1.83155377333e-11
1.10228812523e-09
-4.73545924222e-12
1.52984917189e-11
1.00716927622e-09
1.2437979958e-11
9.06949747061e-10
-2.38642166188e-13
4.82195884452e-12
3.09930135131e-11
1.01413390989e-09
-9.91555973816e-15
8.44368540585e-12
3.62378045633e-11
1.1282187296e-09