/*--------------------------------*- C++ -*----------------------------------*\
  =========                 |
  \\      /  F ield         | OpenFOAM: The Open Source CFD Toolbox
   \\    /   O peration     | Website:  https://openfoam.org
    \\  /    A nd           | Version:  7
     \\/     M anipulation  |
\*---------------------------------------------------------------------------*/
FoamFile
{
    version     2.0;
    format      ascii;
    class       volScalarField;
    location    "1.72";
    object      p;
}
// * * * * * * * * * * * * * * * * * * * * * * * * * * * * * * * * * * * * * //

dimensions      [0 2 -2 0 0 0 0];

internalField   nonuniform List<scalar> 
22500
(
3.42113030626e-05
3.42070452538e-05
3.42049694387e-05
3.42024106883e-05
3.42003428922e-05
3.41987472917e-05
3.41977610751e-05
3.41974394703e-05
3.41978230673e-05
3.41988693088e-05
3.42005233722e-05
3.42026404962e-05
3.42052411912e-05
3.4207326707e-05
3.42115804566e-05
3.41638020946e-05
3.41571522418e-05
3.41530285692e-05
3.41486714593e-05
3.41451396721e-05
3.41424625439e-05
3.41408150614e-05
3.41402733629e-05
3.41408803186e-05
3.41425911645e-05
3.41453292451e-05
3.41489138654e-05
3.41533131539e-05
3.41574476604e-05
3.41640939363e-05
3.41183511172e-05
3.41095262283e-05
3.41036930748e-05
3.40977892356e-05
3.4093018542e-05
3.4089426273e-05
3.40872196923e-05
3.40864896451e-05
3.40872816821e-05
3.40895483393e-05
3.40931978278e-05
3.40980188752e-05
3.41039626127e-05
3.41098081847e-05
3.41186364286e-05
3.40780425526e-05
3.40674492602e-05
3.40603087877e-05
3.40532464646e-05
3.40475538408e-05
3.40432880634e-05
3.40406716751e-05
3.40398030025e-05
3.40407284975e-05
3.40433999647e-05
3.40477177141e-05
3.40534562499e-05
3.40605562487e-05
3.40677104796e-05
3.40783162145e-05
3.40407186137e-05
3.40286343936e-05
3.40204291291e-05
3.40124677883e-05
3.40060616312e-05
3.40012827796e-05
3.39983560578e-05
3.39973828209e-05
3.39984081076e-05
3.40013852174e-05
3.40062115146e-05
3.40126596633e-05
3.40206565153e-05
3.40288761784e-05
3.40409786838e-05
3.4005849377e-05
3.39925448987e-05
3.3983485917e-05
3.39748484446e-05
3.39679071627e-05
3.3962750888e-05
3.39595976635e-05
3.39585480746e-05
3.39596449526e-05
3.39628440736e-05
3.39680434288e-05
3.39750230925e-05
3.39836931899e-05
3.39927682064e-05
3.40060963708e-05
3.39735270338e-05
3.39592790657e-05
3.39495596377e-05
3.39404500468e-05
3.39331351417e-05
3.39277226993e-05
3.39244173861e-05
3.39233166182e-05
3.39244603871e-05
3.39278074743e-05
3.39332591578e-05
3.39406092628e-05
3.39497490509e-05
3.39594848144e-05
3.39737615987e-05
3.3943720858e-05
3.39287876949e-05
3.39185741424e-05
3.39091656592e-05
3.3901613601e-05
3.38960459683e-05
3.38926502698e-05
3.38915191738e-05
3.38926893686e-05
3.3896123053e-05
3.39017265623e-05
3.39093109632e-05
3.39187474547e-05
3.39289778614e-05
3.39439447374e-05
3.39162930975e-05
3.39009062924e-05
3.38903394259e-05
3.38807769004e-05
3.38731022903e-05
3.38674626519e-05
3.38640274798e-05
3.38628832709e-05
3.38640632121e-05
3.3867533155e-05
3.38732057604e-05
3.38809105072e-05
3.38904991453e-05
3.39010836613e-05
3.39165077049e-05
3.38910805972e-05
3.38754475474e-05
3.38646528923e-05
3.3855061224e-05
3.38473633863e-05
3.38417229479e-05
3.3838291786e-05
3.38371491271e-05
3.38383246613e-05
3.38417878961e-05
3.38474589019e-05
3.38551850359e-05
3.38648015161e-05
3.38756147365e-05
3.3891289246e-05
3.38679154539e-05
3.38522199063e-05
3.38413195926e-05
3.38318115464e-05
3.38241812347e-05
3.38186042754e-05
3.38152164266e-05
3.38140886312e-05
3.38152469695e-05
3.38186646599e-05
3.38242703229e-05
3.38319275533e-05
3.38414594763e-05
3.38523794735e-05
3.38681203735e-05
3.38466025958e-05
3.38310251512e-05
3.38201561963e-05
3.38108396197e-05
3.38033628374e-05
3.37979102947e-05
3.37946031533e-05
3.37935031009e-05
3.37946317826e-05
3.37979671361e-05
3.38034468834e-05
3.38109497049e-05
3.38202896397e-05
3.38311795155e-05
3.38468055165e-05
3.38268477479e-05
3.38116544725e-05
3.38009971288e-05
3.37919780352e-05
3.37847378717e-05
3.37794706759e-05
3.37762829836e-05
3.37752234466e-05
3.37763102155e-05
3.37795246039e-05
3.37848182049e-05
3.37920838981e-05
3.38011263967e-05
3.38118062793e-05
3.38270510078e-05
3.38083646475e-05
3.37938995765e-05
3.37836274146e-05
3.3775014215e-05
3.37681075374e-05
3.3763106028e-05
3.37600888437e-05
3.37590885173e-05
3.37601148303e-05
3.37631577983e-05
3.37681851517e-05
3.37751176794e-05
3.37837548004e-05
3.37940516295e-05
3.38085702704e-05
3.37919633758e-05
3.37771589152e-05
3.37674942444e-05
3.37593941525e-05
3.37529788147e-05
3.37483798836e-05
3.37456216829e-05
3.3744709386e-05
3.37456466979e-05
3.37484297332e-05
3.37530541254e-05
3.3759495795e-05
3.37676221267e-05
3.3777313651e-05
3.37921654839e-05
2.77768268002e-05
2.77780104741e-05
2.77787976498e-05
2.77795264434e-05
2.77801651132e-05
2.77806566213e-05
2.77809614471e-05
2.77810475646e-05
2.77809050461e-05
2.77805481939e-05
2.77800149522e-05
2.77793515811e-05
2.77786076228e-05
2.77778238445e-05
2.77766471869e-05
2.77819180424e-05
2.77833477185e-05
2.77843838299e-05
2.77853404274e-05
2.77861667042e-05
2.77867974718e-05
2.77871882388e-05
2.778730336e-05
2.7787130691e-05
2.77866868768e-05
2.77860135785e-05
2.77851620469e-05
2.77841930786e-05
2.77831596851e-05
2.77817391265e-05
2.77881792252e-05
2.77901223934e-05
2.77916046151e-05
2.7792985839e-05
2.77941736163e-05
2.77950801093e-05
2.77956442353e-05
2.77958190496e-05
2.77955879344e-05
2.77949718495e-05
2.77940232418e-05
2.7792809068e-05
2.77914157524e-05
2.77899338815e-05
2.77880003048e-05
2.77963633274e-05
2.77991767288e-05
2.78013764987e-05
2.7803427156e-05
2.7805185762e-05
2.78065276029e-05
2.78073652022e-05
2.78076340536e-05
2.78073110774e-05
2.78064233837e-05
2.78050402214e-05
2.78032540646e-05
2.78011901826e-05
2.77989891998e-05
2.77961845796e-05
2.78069596499e-05
2.78109447881e-05
2.78140736601e-05
2.78169747537e-05
2.78194520328e-05
2.78213377438e-05
2.78225149427e-05
2.78229001374e-05
2.78224633901e-05
2.78212384038e-05
2.78193127112e-05
2.7816807707e-05
2.78138920436e-05
2.78107605704e-05
2.78067825339e-05
2.78197953608e-05
2.78251430709e-05
2.78293081024e-05
2.7833141868e-05
2.7836397459e-05
2.78388672686e-05
2.78404069079e-05
2.78409160258e-05
2.78403585724e-05
2.78387740161e-05
2.7836266153e-05
2.78329830796e-05
2.78291338826e-05
2.7824963385e-05
2.78196226204e-05
2.78344321781e-05
2.78412124682e-05
2.78464275852e-05
2.78511863119e-05
2.78552035757e-05
2.78582394851e-05
2.78601279745e-05
2.78607560978e-05
2.78600833316e-05
2.78581532324e-05
2.7855081725e-05
2.78510378408e-05
2.78462633105e-05
2.78410402521e-05
2.78342654976e-05
2.78503688511e-05
2.78585462063e-05
2.78647498052e-05
2.78703554454e-05
2.78750601162e-05
2.78786012295e-05
2.78807985946e-05
2.78815319119e-05
2.78807580162e-05
2.78785227212e-05
2.78749487674e-05
2.7870218753e-05
2.78645968666e-05
2.7858383474e-05
2.78502092044e-05
2.78671117607e-05
2.78765645996e-05
2.7883640072e-05
2.78899673139e-05
2.78952474356e-05
2.78992055911e-05
2.79016552901e-05
2.7902474357e-05
2.79016189242e-05
2.78991351373e-05
2.78951471166e-05
2.78898433067e-05
2.78834997732e-05
2.78764128614e-05
2.7866961198e-05
2.78842108633e-05
2.78947518501e-05
2.790254726e-05
2.79094436975e-05
2.7915167199e-05
2.79194403878e-05
2.79220777562e-05
2.7922960355e-05
2.79220455966e-05
2.79193779741e-05
2.79150779641e-05
2.790933258e-05
2.79024200585e-05
2.78946119366e-05
2.7884070144e-05
2.79012734055e-05
2.79126701359e-05
2.79210149601e-05
2.79283195144e-05
2.79343490514e-05
2.79388319089e-05
2.79415904369e-05
2.79425137211e-05
2.79415622912e-05
2.79387771705e-05
2.79342705022e-05
2.79282210803e-05
2.79209010332e-05
2.79125427856e-05
2.79011438582e-05
2.79179594353e-05
2.79299552512e-05
2.79386778789e-05
2.79462382702e-05
2.79524432942e-05
2.79570350092e-05
2.79598508433e-05
2.79607928116e-05
2.79598263571e-05
2.79569872918e-05
2.79523745472e-05
2.79461516928e-05
2.79385767684e-05
2.79298408712e-05
2.79178422275e-05
2.79339661773e-05
2.79463169342e-05
2.79552691665e-05
2.79629541402e-05
2.79692160245e-05
2.79738226614e-05
2.79766354959e-05
2.79775754649e-05
2.79766141715e-05
2.7973780967e-05
2.79691558883e-05
2.7962878099e-05
2.79551798587e-05
2.79462149065e-05
2.79338611123e-05
2.79491893962e-05
2.7961722329e-05
2.79707313305e-05
2.79783950227e-05
2.79845727442e-05
2.7989081385e-05
2.79918206142e-05
2.79927338041e-05
2.79918019039e-05
2.79890447438e-05
2.79845195933e-05
2.79783278718e-05
2.79706523749e-05
2.79616323795e-05
2.7949095682e-05
2.79645465691e-05
2.79763055481e-05
2.79851001135e-05
2.7992534959e-05
2.79984232053e-05
2.80026782387e-05
2.80052480559e-05
2.80061029084e-05
2.80052315637e-05
2.80026458547e-05
2.7998376112e-05
2.79924752858e-05
2.7985030337e-05
2.79762276985e-05
2.79644638643e-05
2.83749042527e-05
2.83743992616e-05
2.83736698341e-05
2.83728801472e-05
2.8372139358e-05
2.83715555277e-05
2.83711890673e-05
2.83710719794e-05
2.83712144425e-05
2.83716028739e-05
2.83722019824e-05
2.83729520894e-05
2.83737572397e-05
2.83744940381e-05
2.83750142691e-05
2.8375163282e-05
2.83746878315e-05
2.8373990488e-05
2.83732255496e-05
2.83725030185e-05
2.83719297501e-05
2.83715682142e-05
2.83714524577e-05
2.83715937646e-05
2.8371977481e-05
2.83725662386e-05
2.83732983069e-05
2.83740769847e-05
2.83747836947e-05
2.83752733449e-05
2.83757553446e-05
2.837532735e-05
2.8374677656e-05
2.83739535887e-05
2.83732633297e-05
2.83727116588e-05
2.83723618094e-05
2.83722495696e-05
2.83723871003e-05
2.83727591641e-05
2.83733270221e-05
2.8374027874e-05
2.83747646206e-05
2.83754239717e-05
2.837586524e-05
2.83761486283e-05
2.83757506951e-05
2.83751297169e-05
2.83744345421e-05
2.83737690425e-05
2.83732352844e-05
2.83728955764e-05
2.8372786378e-05
2.83729203288e-05
2.83732821203e-05
2.83738328424e-05
2.83745099948e-05
2.83752170195e-05
2.83758466754e-05
2.83762585638e-05
2.83763610637e-05
2.83759937785e-05
2.83754017464e-05
2.83747414706e-05
2.83741082548e-05
2.83735998619e-05
2.83732759467e-05
2.83731719103e-05
2.8373300128e-05
2.83736458458e-05
2.83741715455e-05
2.83748171827e-05
2.83754891738e-05
2.83760889272e-05
2.83764708323e-05
2.83765320245e-05
2.83762145121e-05
2.83756693935e-05
2.83750638746e-05
2.83744825191e-05
2.83740158678e-05
2.83737186115e-05
2.83736234985e-05
2.83737420538e-05
2.83740606724e-05
2.8374544831e-05
2.83751391772e-05
2.83757561762e-05
2.83763090143e-05
2.83766406279e-05
2.8376760006e-05
2.83765214169e-05
2.83760463784e-05
2.8375519567e-05
2.83750122032e-05
2.83746048935e-05
2.83743457659e-05
2.83742635395e-05
2.83743683966e-05
2.83746483115e-05
2.8375073084e-05
2.83755938627e-05
2.83761320719e-05
2.83766150001e-05
2.83768676332e-05
2.83771066395e-05
2.83769759535e-05
2.83765926982e-05
2.83761655001e-05
2.8375751013e-05
2.83754177686e-05
2.83752061427e-05
2.83751400092e-05
2.83752278731e-05
2.83754596301e-05
2.83758101951e-05
2.83762384581e-05
2.83766771097e-05
2.83770683302e-05
2.83772135829e-05
2.83776066902e-05
2.83776051752e-05
2.83773300481e-05
2.83770166288e-05
2.8376707473e-05
2.83764577823e-05
2.83762996229e-05
2.83762516164e-05
2.83763204095e-05
2.83764979885e-05
2.83767647257e-05
2.83770878986e-05
2.83774130239e-05
2.83776962822e-05
2.8377712759e-05
2.83782695913e-05
2.83784070517e-05
2.83782485339e-05
2.83780547695e-05
2.83778562497e-05
2.83776940264e-05
2.83775916866e-05
2.83775625866e-05
2.83776115184e-05
2.83777325354e-05
2.83779114933e-05
2.8378124234e-05
2.83783299751e-05
2.83784969846e-05
2.83783748038e-05
2.83790832842e-05
2.83793554841e-05
2.83793135976e-05
2.8379238121e-05
2.83791491866e-05
2.83790734358e-05
2.83790261709e-05
2.8379015681e-05
2.83790450291e-05
2.83791101926e-05
2.83792022897e-05
2.83793055696e-05
2.8379393284e-05
2.83794440632e-05
2.83791875348e-05
2.83800144464e-05
2.83804033405e-05
2.83804718536e-05
2.83805091492e-05
2.83805248783e-05
2.8380531637e-05
2.83805366823e-05
2.83805438507e-05
2.83805545352e-05
2.83805665837e-05
2.83805757334e-05
2.83805743691e-05
2.83805495576e-05
2.83804902105e-05
2.83801173074e-05
2.83810098206e-05
2.8381489928e-05
2.83816623693e-05
2.83818060575e-05
2.83819198594e-05
2.83820033011e-05
2.83820567559e-05
2.83820800944e-05
2.83820735407e-05
2.83820363076e-05
2.83819681833e-05
2.83818687036e-05
2.8381737669e-05
2.83815747374e-05
2.83811108494e-05
2.83820393233e-05
2.83825957107e-05
2.83828555561e-05
2.83830915638e-05
2.8383287839e-05
2.83834347736e-05
2.83835276031e-05
2.83835640015e-05
2.83835432426e-05
2.83834655028e-05
2.83833332168e-05
2.83831509271e-05
2.83829277879e-05
2.83826781211e-05
2.83821371902e-05
2.8383290042e-05
2.83837119863e-05
2.83840209023e-05
2.83843171278e-05
2.8384563299e-05
2.83847468249e-05
2.83848616294e-05
2.83849049816e-05
2.83848760176e-05
2.8384775294e-05
2.83846054496e-05
2.83843729181e-05
2.83840899785e-05
2.83837930232e-05
2.83833848618e-05
2.54693781404e-05
2.54696194009e-05
2.5469924767e-05
2.54702369525e-05
2.54705231517e-05
2.5470748606e-05
2.54708920094e-05
2.54709384947e-05
2.54708828804e-05
2.54707315001e-05
2.54705007024e-05
2.54702149496e-05
2.54699060114e-05
2.5469611582e-05
2.54693745943e-05
2.54694270444e-05
2.54696707898e-05
2.54699818214e-05
2.54703038266e-05
2.54705990034e-05
2.54708322352e-05
2.54709806583e-05
2.54710286904e-05
2.54709706904e-05
2.54708134981e-05
2.54705743741e-05
2.54702792099e-05
2.54699617122e-05
2.54696611189e-05
2.54694247781e-05
2.54692545918e-05
2.54694833926e-05
2.54697822396e-05
2.54700982136e-05
2.54703901986e-05
2.54706230096e-05
2.54707719283e-05
2.54708205525e-05
2.5470762783e-05
2.54706058846e-05
2.5470367863e-05
2.5470075737e-05
2.54697645979e-05
2.5469474099e-05
2.54692537926e-05
2.54690990072e-05
2.5469314477e-05
2.54696028386e-05
2.54699105851e-05
2.54701976309e-05
2.54704284189e-05
2.54705769066e-05
2.54706259417e-05
2.54705690462e-05
2.54704138034e-05
2.54701787737e-05
2.54698917161e-05
2.54695883994e-05
2.54693069732e-05
2.54690996202e-05
2.54689869595e-05
2.54691912917e-05
2.54694713438e-05
2.5469769984e-05
2.54700509224e-05
2.54702781817e-05
2.54704252291e-05
2.54704742302e-05
2.5470418523e-05
2.54702658142e-05
2.54700350815e-05
2.54697544154e-05
2.5469459665e-05
2.54691858223e-05
2.54689891472e-05
2.54688960252e-05
2.54690912718e-05
2.54693627867e-05
2.54696519424e-05
2.54699257237e-05
2.54701486737e-05
2.54702936774e-05
2.54703425117e-05
2.54702882416e-05
2.54701387217e-05
2.54699131722e-05
2.54696398456e-05
2.54693543191e-05
2.54690873455e-05
2.54689006323e-05
2.5468821212e-05
2.54690085847e-05
2.54692736119e-05
2.54695542476e-05
2.54698214102e-05
2.5470040289e-05
2.54701833344e-05
2.5470231999e-05
2.54701791174e-05
2.5470032639e-05
2.54698119623e-05
2.54695454497e-05
2.5469268283e-05
2.54690064634e-05
2.54688279625e-05
2.54687665931e-05
2.54689487454e-05
2.54692103584e-05
2.54694843121e-05
2.54697465581e-05
2.5469962492e-05
2.54701042816e-05
2.54701529683e-05
2.54701012797e-05
2.54699571515e-05
2.54697401578e-05
2.54694787706e-05
2.54692077968e-05
2.54689484683e-05
2.54687748266e-05
2.54687359961e-05
2.54689172022e-05
2.54691781579e-05
2.54694479661e-05
2.5469707184e-05
2.5469921415e-05
2.54700625595e-05
2.54701114131e-05
2.54700606532e-05
2.54699181409e-05
2.5469703522e-05
2.54694453594e-05
2.54691781196e-05
2.54689186131e-05
2.54687458321e-05
2.54687319989e-05
2.54689158511e-05
2.54691778801e-05
2.54694453769e-05
2.54697028069e-05
2.54699160217e-05
2.54700567454e-05
2.54701057745e-05
2.54700558071e-05
2.54699145654e-05
2.54697015539e-05
2.54694453181e-05
2.54691799891e-05
2.54689186243e-05
2.54687431284e-05
2.54687526243e-05
2.54689410216e-05
2.54692046965e-05
2.54694708448e-05
2.54697269354e-05
2.54699390015e-05
2.54700789689e-05
2.54701279266e-05
2.54700788119e-05
2.54699390294e-05
2.54697276614e-05
2.54694729706e-05
2.54692087248e-05
2.54689452189e-05
2.54687651719e-05
2.54687897046e-05
2.54689826421e-05
2.54692479108e-05
2.54695135185e-05
2.54697683294e-05
2.54699787166e-05
2.54701171959e-05
2.54701657136e-05
2.54701176157e-05
2.54699798391e-05
2.5469770559e-05
2.54695173438e-05
2.54692535726e-05
2.54689883507e-05
2.54688039548e-05
2.54688256106e-05
2.54690216335e-05
2.54692908123e-05
2.54695586859e-05
2.54698136055e-05
2.5470022289e-05
2.54701587604e-05
2.54702064818e-05
2.54701595324e-05
2.54700241004e-05
2.54698167844e-05
2.54695637078e-05
2.54692977635e-05
2.54690287893e-05
2.54688414188e-05
2.54688471601e-05
2.54690552234e-05
2.54693307652e-05
2.54696024696e-05
2.54698563602e-05
2.54700607074e-05
2.54701927217e-05
2.54702386333e-05
2.54701936459e-05
2.5470062732e-05
2.54698598779e-05
2.5469607983e-05
2.54693385324e-05
2.54690639354e-05
2.5468864464e-05
2.546904951e-05
2.54692157545e-05
2.54694591417e-05
2.54696966175e-05
2.54699152729e-05
2.54700878376e-05
2.54701978638e-05
2.54702359527e-05
2.54701988297e-05
2.54700900067e-05
2.54699189439e-05
2.54697024806e-05
2.54694678427e-05
2.54692268184e-05
2.5469067635e-05
2.44307406986e-05
2.44305606772e-05
2.44303070999e-05
2.44300297845e-05
2.44297662632e-05
2.44295531117e-05
2.44294176814e-05
2.44293727857e-05
2.44294221039e-05
2.44295598541e-05
2.44297713267e-05
2.44300325116e-05
2.44303108691e-05
2.44305615671e-05
2.44307506359e-05
2.44307083435e-05
2.44305336411e-05
2.44302874514e-05
2.44300145887e-05
2.4429753961e-05
2.44295426512e-05
2.44294078908e-05
2.44293631033e-05
2.44294123221e-05
2.44295494461e-05
2.44297592592e-05
2.44300172238e-05
2.44302906377e-05
2.44305355168e-05
2.44307186495e-05
2.44307788904e-05
2.44306136631e-05
2.44303798879e-05
2.44301162933e-05
2.44298635493e-05
2.44296577453e-05
2.44295258549e-05
2.44294818877e-05
2.44295302708e-05
2.4429664773e-05
2.44298698035e-05
2.44301204198e-05
2.44303840049e-05
2.44306169919e-05
2.44307895778e-05
2.44308303049e-05
2.44306694674e-05
2.44304423752e-05
2.4430184303e-05
2.44299364838e-05
2.44297343299e-05
2.44296041973e-05
2.44295606491e-05
2.44296085035e-05
2.44297414706e-05
2.44299436771e-05
2.44301898564e-05
2.44304474737e-05
2.44306733545e-05
2.44308414999e-05
2.44308442733e-05
2.44306838188e-05
2.44304596488e-05
2.44302049427e-05
2.44299603373e-05
2.44297605724e-05
2.44296316088e-05
2.44295883234e-05
2.44296357474e-05
2.44297676025e-05
2.44299678947e-05
2.4430211289e-05
2.4430465485e-05
2.44306878728e-05
2.44308561002e-05
2.44308358676e-05
2.44306733178e-05
2.44304519146e-05
2.4430200546e-05
2.44299596553e-05
2.44297630287e-05
2.4429635851e-05
2.44295930397e-05
2.4429639713e-05
2.4429769718e-05
2.44299672315e-05
2.4430207249e-05
2.44304580455e-05
2.44306778107e-05
2.44308476734e-05
2.44308153232e-05
2.4430651599e-05
2.44304341156e-05
2.44301879399e-05
2.44299529969e-05
2.44297614995e-05
2.4429637583e-05
2.44295957732e-05
2.4429641102e-05
2.44297676767e-05
2.44299602281e-05
2.44301946265e-05
2.44304402232e-05
2.44306563426e-05
2.44308274522e-05
2.44307907037e-05
2.44306281764e-05
2.44304169241e-05
2.44301793214e-05
2.44299538652e-05
2.44297706304e-05
2.44296521368e-05
2.44296120916e-05
2.44296552595e-05
2.44297761875e-05
2.44299605879e-05
2.44301858488e-05
2.44304230425e-05
2.44306330794e-05
2.44308035641e-05
2.44307699397e-05
2.44306113474e-05
2.44304097247e-05
2.4430184983e-05
2.44299733129e-05
2.44298020781e-05
2.44296915804e-05
2.44296542106e-05
2.44296942954e-05
2.44298069769e-05
2.44299794144e-05
2.44301911948e-05
2.44304158443e-05
2.44306164448e-05
2.44307835202e-05
2.44307591839e-05
2.44306072588e-05
2.44304190242e-05
2.44302116567e-05
2.44300184403e-05
2.44298632162e-05
2.44297634183e-05
2.4429729696e-05
2.44297657553e-05
2.44298674983e-05
2.44300239672e-05
2.44302176276e-05
2.44304252519e-05
2.44306128024e-05
2.4430773501e-05
2.44307618504e-05
2.44306186438e-05
2.44304470814e-05
2.44302613839e-05
2.44300910952e-05
2.44299556785e-05
2.44298691566e-05
2.44298399868e-05
2.44298711639e-05
2.44299594315e-05
2.44300961088e-05
2.4430267155e-05
2.44304534372e-05
2.4430624696e-05
2.44307769276e-05
2.44307771989e-05
2.44306428215e-05
2.44304902453e-05
2.44303302025e-05
2.44301869698e-05
2.44300749032e-05
2.44300039175e-05
2.44299801408e-05
2.44300056709e-05
2.44300782369e-05
2.4430191644e-05
2.44303358807e-05
2.44304968271e-05
2.44306493294e-05
2.44307928623e-05
2.44307993013e-05
2.44306706665e-05
2.44305391249e-05
2.44304086534e-05
2.44302965392e-05
2.44302107988e-05
2.4430157334e-05
2.44301395686e-05
2.44301588924e-05
2.44302138903e-05
2.44303009534e-05
2.44304143714e-05
2.44305459641e-05
2.44306776896e-05
2.44308154818e-05
2.44308116435e-05
2.44306880297e-05
2.44305821936e-05
2.44304860662e-05
2.44304082555e-05
2.44303508503e-05
2.44303156562e-05
2.44303042495e-05
2.4430317156e-05
2.44303537702e-05
2.44304126525e-05
2.44304918507e-05
2.44305893975e-05
2.44306956563e-05
2.44308278766e-05
2.44307836724e-05
2.44306880713e-05
2.44306160713e-05
2.44305567722e-05
2.44305126096e-05
2.44304810667e-05
2.44304622207e-05
2.44304564309e-05
2.44304638849e-05
2.44304844359e-05
2.4430517626e-05
2.44305635681e-05
2.44306246938e-05
2.443069777e-05
2.44307999193e-05
2.2418713412e-05
2.24187799633e-05
2.24188651565e-05
2.24189511462e-05
2.24190285032e-05
2.24190876373e-05
2.24191224659e-05
2.24191297612e-05
2.24191089114e-05
2.24190616548e-05
2.24189922544e-05
2.24189074011e-05
2.24188160959e-05
2.24187313788e-05
2.24186618309e-05
2.24186860242e-05
2.24187524538e-05
2.24188367698e-05
2.24189238369e-05
2.2419002414e-05
2.24190627767e-05
2.24190984503e-05
2.24191059673e-05
2.24190845321e-05
2.24190360942e-05
2.24189652659e-05
2.24188792198e-05
2.24187874253e-05
2.24187032161e-05
2.24186358561e-05
2.24186002226e-05
2.2418661766e-05
2.24187400254e-05
2.24188242353e-05
2.24189009576e-05
2.24189607073e-05
2.24189963865e-05
2.24190041543e-05
2.24189829889e-05
2.2418935012e-05
2.24188651395e-05
2.24187809696e-05
2.24186922817e-05
2.24186127528e-05
2.24185511582e-05
2.24185289089e-05
2.24185867281e-05
2.24186610512e-05
2.2418742987e-05
2.24188185492e-05
2.24188780315e-05
2.24189139412e-05
2.24189221029e-05
2.24189012752e-05
2.24188537111e-05
2.24187845583e-05
2.24187017419e-05
2.2418615242e-05
2.24185389246e-05
2.24184808035e-05
2.24184781989e-05
2.24185339446e-05
2.24186059159e-05
2.2418686034e-05
2.24187606857e-05
2.24188198335e-05
2.24188558653e-05
2.24188643034e-05
2.2418843811e-05
2.24187966738e-05
2.24187282113e-05
2.24186465162e-05
2.24185616458e-05
2.24184874388e-05
2.2418431229e-05
2.24184390068e-05
2.24184940743e-05
2.24185632575e-05
2.24186416186e-05
2.24187149863e-05
2.24187734265e-05
2.24188092529e-05
2.24188178662e-05
2.24187978148e-05
2.24187514164e-05
2.24186840427e-05
2.24186038391e-05
2.24185207981e-05
2.24184485488e-05
2.24183939139e-05
2.24184071226e-05
2.24184610129e-05
2.24185273628e-05
2.24186034913e-05
2.24186749307e-05
2.24187320792e-05
2.24187672758e-05
2.24187758923e-05
2.2418756402e-05
2.24187111207e-05
2.24186453833e-05
2.24185672674e-05
2.24184865807e-05
2.24184165746e-05
2.24183637941e-05
2.24183798809e-05
2.24184315518e-05
2.24184948811e-05
2.24185679811e-05
2.24186368383e-05
2.2418692102e-05
2.24187262882e-05
2.24187347502e-05
2.2418715959e-05
2.24186721649e-05
2.24186086289e-05
2.24185332551e-05
2.24184555716e-05
2.24183883147e-05
2.24183379829e-05
2.24183543811e-05
2.24184033055e-05
2.24184631087e-05
2.24185324908e-05
2.24185981187e-05
2.24186509658e-05
2.24186837671e-05
2.24186919256e-05
2.24186739344e-05
2.24186319527e-05
2.24185711195e-05
2.24184991063e-05
2.24184250955e-05
2.24183611913e-05
2.24183141154e-05
2.24183289162e-05
2.24183742646e-05
2.24184299398e-05
2.24184950056e-05
2.24185568525e-05
2.24186068532e-05
2.24186379511e-05
2.2418645692e-05
2.24186285803e-05
2.24185886887e-05
2.24185309728e-05
2.24184628332e-05
2.24183930816e-05
2.2418333137e-05
2.24182901808e-05
2.24183016437e-05
2.24183425874e-05
2.24183937925e-05
2.24184541396e-05
2.24185118598e-05
2.24185586508e-05
2.24185877957e-05
2.24185949981e-05
2.24185788456e-05
2.24185412703e-05
2.24184869987e-05
2.24184231081e-05
2.24183580346e-05
2.24183025414e-05
2.24182645679e-05
2.24182710637e-05
2.2418306847e-05
2.24183534475e-05
2.24184089893e-05
2.24184623627e-05
2.24185057371e-05
2.24185326946e-05
2.24185392876e-05
2.2418524149e-05
2.24184890853e-05
2.24184384875e-05
2.24183790291e-05
2.24183187793e-05
2.2418268007e-05
2.24182358049e-05
2.24182349807e-05
2.24182647707e-05
2.24183072003e-05
2.24183583993e-05
2.24184077478e-05
2.24184476379e-05
2.24184723929e-05
2.2418478291e-05
2.24184642468e-05
2.24184317662e-05
2.24183848343e-05
2.24183295731e-05
2.2418273654e-05
2.24182272394e-05
2.24182015349e-05
2.24181865426e-05
2.24182118788e-05
2.24182528471e-05
2.24183014864e-05
2.24183474973e-05
2.24183842699e-05
2.24184067451e-05
2.2418412033e-05
2.24183990956e-05
2.24183692442e-05
2.24183257865e-05
2.24182739428e-05
2.24182206748e-05
2.24181758853e-05
2.24181552808e-05
2.24181332732e-05
2.24181671971e-05
2.2418207191e-05
2.24182504677e-05
2.24182897157e-05
2.24183200669e-05
2.24183382392e-05
2.24183421761e-05
2.24183312828e-05
2.24183064396e-05
2.24182698612e-05
2.24182251626e-05
2.24181773425e-05
2.24181333921e-05
2.24181030209e-05
2.09168228381e-05
2.09167832354e-05
2.09167202451e-05
2.09166523291e-05
2.09165898914e-05
2.09165401754e-05
2.09165076467e-05
2.09164955667e-05
2.09165050059e-05
2.09165346054e-05
2.09165808471e-05
2.0916638262e-05
2.09166996995e-05
2.09167563192e-05
2.09168005853e-05
2.09168001725e-05
2.09167596314e-05
2.09166963857e-05
2.09166272412e-05
2.09165634699e-05
2.09165125512e-05
2.09164792542e-05
2.0916466899e-05
2.09164766312e-05
2.09165070095e-05
2.0916554351e-05
2.09166129827e-05
2.09166755118e-05
2.09167329829e-05
2.09167775214e-05
2.09168062606e-05
2.09167660004e-05
2.09167046056e-05
2.091663607e-05
2.09165724071e-05
2.09165212005e-05
2.09164876057e-05
2.09164751134e-05
2.09164849229e-05
2.09165155215e-05
2.09165630764e-05
2.09166217133e-05
2.09166838247e-05
2.0916740333e-05
2.09167835497e-05
2.09168097193e-05
2.091676954e-05
2.09167087267e-05
2.09166407621e-05
2.09165769569e-05
2.09165252544e-05
2.091649123e-05
2.09164785219e-05
2.09164883825e-05
2.09165192277e-05
2.09165670928e-05
2.09166259239e-05
2.09166879407e-05
2.09167441039e-05
2.0916787086e-05
2.09168053579e-05
2.09167646945e-05
2.09167037555e-05
2.0916636096e-05
2.09165720461e-05
2.09165198942e-05
2.09164854713e-05
2.09164725375e-05
2.09164823974e-05
2.09165134339e-05
2.09165615784e-05
2.09166206659e-05
2.09166828052e-05
2.09167391648e-05
2.09167827259e-05
2.091679652e-05
2.09167543192e-05
2.09166936051e-05
2.09166264213e-05
2.09165624273e-05
2.09165101205e-05
2.09164754781e-05
2.09164623603e-05
2.09164721021e-05
2.09165030839e-05
2.0916551188e-05
2.09166102261e-05
2.09166722962e-05
2.09167289368e-05
2.09167734462e-05
2.09167842062e-05
2.09167407652e-05
2.09166805188e-05
2.0916614105e-05
2.09165507284e-05
2.0916498787e-05
2.09164642862e-05
2.09164511014e-05
2.09164605929e-05
2.09164911588e-05
2.09165387323e-05
2.09165971952e-05
2.0916658755e-05
2.09167154779e-05
2.09167610191e-05
2.09167691468e-05
2.091672497e-05
2.09166654064e-05
2.09166004806e-05
2.09165384914e-05
2.09164875685e-05
2.09164536431e-05
2.09164405448e-05
2.091644963e-05
2.09164793566e-05
2.09165257868e-05
2.09165829984e-05
2.091664344e-05
2.09166998582e-05
2.09167463334e-05
2.09167524916e-05
2.09167078472e-05
2.09166494765e-05
2.0916586787e-05
2.09165269667e-05
2.0916477796e-05
2.0916444959e-05
2.09164321518e-05
2.09164406761e-05
2.09164691082e-05
2.09165137161e-05
2.09165689034e-05
2.09166274972e-05
2.09166830573e-05
2.0916730194e-05
2.09167350293e-05
2.09166902036e-05
2.09166337191e-05
2.09165740482e-05
2.09165172894e-05
2.09164706361e-05
2.09164394266e-05
2.0916427121e-05
2.09164349535e-05
2.09164616251e-05
2.09165037163e-05
2.09165560659e-05
2.091661202e-05
2.091666606e-05
2.09167134346e-05
2.09167175863e-05
2.0916673096e-05
2.09166191571e-05
2.09165632081e-05
2.09165102741e-05
2.09164668466e-05
2.09164377792e-05
2.09164261979e-05
2.09164332238e-05
2.09164577089e-05
2.09164966401e-05
2.09165453826e-05
2.09165979247e-05
2.09166497447e-05
2.09166968305e-05
2.09167011616e-05
2.09166574595e-05
2.0916606442e-05
2.09165547392e-05
2.09165062433e-05
2.09164666336e-05
2.09164401567e-05
2.09164295032e-05
2.09164356382e-05
2.0916457615e-05
2.0916492849e-05
2.09165373785e-05
2.0916585924e-05
2.09166349416e-05
2.09166812291e-05
2.09166868546e-05
2.09166441454e-05
2.09165960912e-05
2.09165487315e-05
2.09165049347e-05
2.09164695047e-05
2.09164459201e-05
2.09164363634e-05
2.09164415946e-05
2.09164608556e-05
2.09164921251e-05
2.0916532151e-05
2.09165764953e-05
2.09166226064e-05
2.09166678735e-05
2.09166733736e-05
2.09166306755e-05
2.09165859498e-05
2.0916543282e-05
2.0916504709e-05
2.09164739955e-05
2.09164537507e-05
2.09164455066e-05
2.09164498047e-05
2.09164660733e-05
2.09164929347e-05
2.09165279665e-05
2.0916567648e-05
2.09166102585e-05
2.09166553315e-05
2.09166305521e-05
2.09165994031e-05
2.0916564112e-05
2.09165310323e-05
2.09165016351e-05
2.09164786456e-05
2.09164636272e-05
2.09164574533e-05
2.09164603428e-05
2.0916472031e-05
2.09164916993e-05
2.09165179185e-05
2.09165480919e-05
2.09165808219e-05
2.09166134066e-05
1.91475602469e-05
1.91475867006e-05
1.91476244628e-05
1.91476623455e-05
1.91476962787e-05
1.91477222494e-05
1.91477380343e-05
1.91477418222e-05
1.91477330277e-05
1.91477123508e-05
1.91476817347e-05
1.91476444215e-05
1.91476048445e-05
1.91475692323e-05
1.91475424975e-05
1.91475515003e-05
1.91475781408e-05
1.9147613959e-05
1.91476505693e-05
1.91476833762e-05
1.91477085817e-05
1.91477239026e-05
1.91477274729e-05
1.91477186969e-05
1.91476982942e-05
1.91476682818e-05
1.91476319457e-05
1.91475937128e-05
1.91475596283e-05
1.91475343404e-05
1.91475316658e-05
1.91475567712e-05
1.9147589554e-05
1.91476244334e-05
1.91476558791e-05
1.91476803281e-05
1.91476952114e-05
1.91476986754e-05
1.91476900871e-05
1.91476702228e-05
1.91476411496e-05
1.91476062021e-05
1.91475697698e-05
1.91475377972e-05
1.91475144146e-05
1.91475169565e-05
1.91475405147e-05
1.91475714484e-05
1.91476048782e-05
1.9147635435e-05
1.91476594629e-05
1.91476741378e-05
1.91476775918e-05
1.91476691665e-05
1.91476496822e-05
1.91476212441e-05
1.91475872202e-05
1.91475519692e-05
1.91475213584e-05
1.9147499029e-05
1.91475077037e-05
1.91475301706e-05
1.91475598902e-05
1.91475921495e-05