/*--------------------------------*- C++ -*----------------------------------*\
  =========                 |
  \\      /  F ield         | OpenFOAM: The Open Source CFD Toolbox
   \\    /   O peration     | Website:  https://openfoam.org
    \\  /    A nd           | Version:  7
     \\/     M anipulation  |
\*---------------------------------------------------------------------------*/
FoamFile
{
    version     2.0;
    format      ascii;
    class       surfaceScalarField;
    location    "1.72";
    object      phi;
}
// * * * * * * * * * * * * * * * * * * * * * * * * * * * * * * * * * * * * * //

dimensions      [0 3 -1 0 0 0 0];

internalField   nonuniform List<scalar> 
65775
(
3.74396268779e-11
4.54308053203e-09
8.07681496881e-10
-7.89949950681e-13
5.67974407985e-11
4.75061967689e-09
8.95593924602e-10
6.66426832196e-11
4.92635335895e-09
9.79990806725e-10
6.50405157955e-11
5.07794798512e-09
1.05617335545e-09
5.38775428032e-11
5.19838018724e-09
1.12002191817e-09
3.51839579352e-11
5.28641826253e-09
1.16824345525e-09
1.17224148461e-11
5.34181223945e-09
1.19868570937e-09
-1.338720789e-11
5.36301437546e-09
1.2096104669e-09
-3.67626991979e-11
5.34225827216e-09
1.19868730622e-09
-5.52892408939e-11
5.28729104759e-09
1.16824629805e-09
-6.61768371884e-11
5.19965782833e-09
1.12002482043e-09
-6.74234489877e-11
5.07948951811e-09
1.05617510398e-09
-5.71201648577e-11
4.92804497958e-09
9.79989637446e-10
-3.7402256162e-11
4.75209106694e-09
8.95576929366e-10
4.5439417933e-09
8.07590867585e-10
-5.3679580253e-13
9.48524488906e-11
7.60582970339e-09
1.97569234655e-09
-1.76838820474e-12
1.56222822802e-10
7.9175909027e-09
2.18007723544e-09
1.84502009101e-10
8.1805921866e-09
2.3749149963e-09
1.81482908673e-10
8.40328690744e-09
2.54971013069e-09
1.50834860529e-10
8.57891923698e-09
2.69540211428e-09
9.87670412661e-11
8.70633685015e-09
2.80496855258e-09
3.31347083116e-11
8.78649571221e-09
2.87396018715e-09
-3.7065509672e-11
8.81757811083e-09
2.89869919352e-09
-1.02494836695e-10
8.78751335488e-09
2.87395633325e-09
-1.54159509273e-10
8.70833239867e-09
2.80496074236e-09
-1.84176901707e-10
8.58181971246e-09
2.6953890083e-09
-1.86357938636e-10
8.40684035406e-09
2.54969141933e-09
-1.5708266688e-10
8.18446685172e-09
2.37488851896e-09
-9.48783236509e-11
7.92110013411e-09
2.18001090009e-09
7.60818090771e-09
1.97546296014e-09
-1.25918210911e-12
1.39270128029e-10
9.54129926139e-09
2.80457997835e-09
-2.53201798429e-12
2.33454378568e-10
9.88794362282e-09
3.0882181706e-09
2.7598539583e-10
1.01811926647e-08
3.35713674925e-09
2.71563607484e-10
1.04234328659e-08
3.59731949669e-09
2.2561523048e-10
1.06127435148e-08
3.79673115482e-09
1.47671024355e-10
1.07487350027e-08
3.94623682228e-09
4.95549688201e-11
1.08342258134e-08
4.04016647165e-09
-5.53050445345e-11
1.08678651651e-08
4.07378933233e-09
-1.53117634306e-10
1.0835636869e-08
4.04016046265e-09
-2.30457234479e-10
1.07514943116e-08
3.94622550736e-09
-2.75484058132e-10
1.06167321486e-08
3.7967137395e-09
-2.7869000809e-10
1.04283393554e-08
3.59729664291e-09
-2.34766718086e-10
1.01865293226e-08
3.35710657694e-09
-1.39383536218e-10
9.89287394115e-09
3.08813875299e-09
9.54480333622e-09
2.80428757082e-09
-1.85360848016e-12
1.74756966136e-10
1.06061905175e-08
3.38535764942e-09
-3.00838996615e-12
2.93705861186e-10
1.09429009799e-08
3.72325841264e-09
3.47489315437e-10
1.12287889356e-08
4.0418013877e-09
3.41707769457e-10
1.14583554581e-08
4.32502318264e-09
2.83705638201e-10
1.16354542413e-08
4.55926229996e-09
1.85603489367e-10
1.17610888042e-08
4.73434391895e-09
6.23375991731e-11
1.18399781082e-08
4.84408414612e-09
-6.9308116633e-11
1.18715987051e-08
4.88328541466e-09
-1.92201065319e-10
1.18416061119e-08
4.84407833272e-09
-2.89561406349e-10
1.17642704487e-08
4.73433447875e-09
-3.46452899889e-10
1.16400297605e-08
4.55925005693e-09
-3.50796720686e-10
1.14639839922e-08
4.32501072942e-09
-2.95395273673e-10
1.12349324856e-08
4.04178879181e-09
-1.75040113006e-10
1.09486812993e-08
3.72320286955e-09
1.0610572207e-08
3.38508179261e-09
-2.31515814395e-12
2.02463238636e-10
1.10080905769e-08
3.76618619048e-09
-3.28537466009e-12
3.40162410457e-10
1.13072927866e-08
4.13943172717e-09
4.02714037499e-10
1.15630843729e-08
4.48916353243e-09
3.9580189563e-10
1.17618219517e-08
4.79864523586e-09
3.28446781509e-10
1.1912486616e-08
5.05359163849e-09
2.14799446927e-10
1.20176454228e-08
5.24355431506e-09
7.22138709868e-11
1.20835705405e-08
5.36232455441e-09
-7.99774256124e-11
1.21106614958e-08
5.40464979767e-09
-2.22143865088e-10
1.20852852673e-08
5.3623215687e-09
-3.34962782735e-10
1.20209892654e-08
5.24355237602e-09
-4.01094820699e-10
1.19172808193e-08
5.05359386739e-09
-4.06453046443e-10
1.1767717575e-08
4.79865691127e-09
-3.42176308606e-10
1.15695610019e-08
4.489187968e-09
-2.02963141682e-10
1.13134680746e-08
4.13942912863e-09
1.10129965727e-08
3.76597902043e-09
-2.68788755504e-12
2.23848695016e-10
1.0915752313e-08
3.98443109282e-09
-3.41654733249e-12
3.75405102531e-10
1.11628754013e-08
4.37872988095e-09
4.44529261409e-10
1.13769830034e-08
4.74586586098e-09
4.36656349855e-10
1.1536762403e-08
5.06917154324e-09
3.62183910029e-10
1.16550830429e-08
5.33444935761e-09
2.36800316286e-10
1.17358675916e-08
5.53148998136e-09
7.96899853955e-11
1.17864094319e-08
5.65436405247e-09
-8.79290195428e-11
1.18079113569e-08
5.69802942963e-09
-2.4459500719e-10
1.17880899046e-08
5.65436587421e-09
-3.69103854303e-10
1.1739142652e-08
5.53149956753e-09
-4.42302375023e-10
1.16597667395e-08
5.33447242074e-09
-4.48580538925e-10
1.15425233286e-08
5.06921653973e-09
-3.77716126249e-10
1.13833420726e-08
4.7459400924e-09
-2.24608000151e-10
1.116905127e-08
4.37879707845e-09
1.09208621963e-08
3.98431539239e-09
-2.99174102739e-12
2.40244606192e-10
1.04660819969e-08
4.07065077909e-09
-3.44351826395e-12
4.01637986391e-10
1.06562318065e-08
4.47545636483e-09
4.75380343503e-10
1.08249231654e-08
4.84999682806e-09
4.66637508502e-10
1.09444879962e-08
5.17823822516e-09
3.86869528513e-10
1.1030150037e-08
5.44653250078e-09
2.52882204245e-10
1.10868068637e-08
5.64521193078e-09
8.51821060404e-11
1.11221653893e-08
5.76877831009e-09
-9.36682970915e-11
1.11380070718e-08
5.81254616634e-09
-2.60915371974e-10
1.11237249832e-08
5.76878595178e-09
-3.94015907284e-10
1.10898445916e-08
5.64523489945e-09
-4.72506709619e-10
1.10344867393e-08
5.44657911463e-09
-4.79673015472e-10
1.09498270245e-08
5.17832029134e-09
-4.04228964765e-10
1.08308508013e-08
4.85012572397e-09
-2.41301178582e-10
1.06620711866e-08
4.4755978106e-09
1.04710868962e-08
4.07062956422e-09
-3.25600744e-12
2.52574747873e-10
9.76943374757e-09
4.05048059931e-09
-3.39145126351e-12
4.20529461322e-10
9.90448031767e-09
4.45830042084e-09
4.97235340049e-10
1.00293411257e-08
4.83331893874e-09
4.87683057634e-10
1.01117425213e-08
5.16047343286e-09
4.0411554548e-10
1.0167856531e-08
5.42692638478e-09
2.6409975355e-10
1.02031136748e-08
5.6236926377e-09
8.90349649855e-11
1.02250479119e-08
5.74574409783e-09
-9.76110346561e-11
1.02357564615e-08
5.78881002722e-09
-2.72228038326e-10
1.02264193741e-08
5.74575745429e-09
-4.11373161131e-10
1.02057830242e-08
5.62372847851e-09
-4.9369728216e-10
1.01716659976e-08
5.42699542863e-09
-5.01733231288e-10
1.01164375482e-08
5.16059069072e-09
-4.23404030099e-10
1.00345881187e-08
4.83349936097e-09
-2.53963935488e-10
9.90971888747e-09
4.45850935125e-09
9.77408316147e-09
4.05054302796e-09
-3.49315820445e-12
2.61456070198e-10
8.91391099394e-09
3.94559869406e-09
-3.28349533617e-12
4.33315365686e-10
8.99998721508e-09
4.35138508618e-09
5.11628529218e-10
9.08580190454e-09
4.72238025498e-09
5.01338191053e-10
9.13646112094e-09
5.04465284893e-09
4.15218775223e-10
9.16795492719e-09
5.30628993461e-09
2.71299975051e-10
9.18578997753e-09
5.49902078429e-09
9.15241752168e-11
9.1968429465e-09
5.61825590666e-09
-1.0009370546e-10
9.20326255213e-09
5.66014089225e-09
-2.79438734356e-10
9.19798372058e-09
5.61827374452e-09
-4.2252419557e-10
9.18800952119e-09
5.49906664461e-09
-5.07463421679e-10
9.17112282502e-09
5.30637653511e-09
-5.1632513048e-10
9.14037620148e-09
5.04479797503e-09
-4.36490777352e-10
9.09020712647e-09
4.72260154139e-09
-2.63207610493e-10
9.0044423611e-09
4.35164510559e-09
8.91798101126e-09
3.94572385572e-09
-3.71871496068e-12
2.67282614861e-10
7.96889112561e-09
3.77430814273e-09
-3.14030043145e-12
4.40882836771e-10
8.01442932316e-09
4.1749184589e-09
5.19731136504e-10
8.06754502948e-09
4.53922729203e-09
5.08814623506e-10
8.09286827978e-09
4.8544640911e-09
4.21197242755e-10
8.10535246499e-09
5.1096627194e-09
2.75145124711e-10
8.11015272555e-09
5.29724176417e-09
9.28632690447e-11
8.11311089583e-09
5.41298883863e-09
-1.01380772917e-10
8.11620197217e-09
5.45344000889e-09
-2.83257869084e-10
8.113998421e-09
5.41300878557e-09
-4.2853017451e-10
8.11188014211e-09
5.29729243292e-09
-5.15049727513e-10
8.10781913181e-09
5.10975824026e-09
-5.24643887638e-10
8.09592746549e-09
4.85462437137e-09
-4.44385101464e-10
8.0710175336e-09
4.5394716923e-09
-2.69431481116e-10
8.01798296623e-09
4.17520494215e-09
7.97224393478e-09
3.77446747658e-09
-3.94311035535e-12
2.70255744841e-10
6.98822834622e-09
3.55198516324e-09
-2.97565265871e-12
4.43831144818e-10
7.00227420817e-09
3.94572751252e-09
5.22433788431e-10
7.02937325911e-09
4.30201919331e-09
5.11046909912e-10
7.0358595233e-09
4.60919249944e-09
4.22825210101e-10
7.03495209595e-09
4.85721375032e-09
2.76127104784e-10
7.03099984356e-09
5.03915793003e-09
9.32067246004e-11
7.0285604493e-09
5.15113355275e-09
-1.01669150655e-10
7.02927353334e-09
5.19003781409e-09
-2.84216780078e-10
7.02919193878e-09
5.15115208091e-09
-4.301996565e-10
7.03222742337e-09
5.03920577857e-09
-5.17417086677e-10
7.03670758262e-09
4.85730566339e-09
-5.27594607048e-10
7.0380451329e-09
4.60934973129e-09
-4.47691905341e-10
7.03187981151e-09
4.30226218704e-09
-2.7283021275e-10
7.00486594621e-09
3.94600886692e-09
6.99076808726e-09
3.55214387472e-09
-4.17835953272e-12
2.70370064886e-10
6.01294804061e-09
3.29150127983e-09
-2.7926710254e-12
4.42637028685e-10
6.00353198961e-09
3.67778483578e-09
5.2053379182e-10
6.01088780295e-09
4.02564528073e-09
5.08814966334e-10
6.00477114371e-09
4.3244189971e-09
4.20690586144e-10
5.99578324077e-09
4.56501331409e-09
2.74592078928e-10
5.98698626246e-09
4.74116296584e-09
9.26563642239e-11
5.9815623287e-09
4.84927323429e-09
-1.01093456524e-10
5.98077109372e-09
4.88658656916e-09
-2.82692865598e-10
5.98194849973e-09
4.84928570273e-09
-4.28144544655e-10
5.98773967655e-09
4.74119799015e-09
-5.15362508635e-10
5.99685689042e-09
4.56508516835e-09
-5.25982551815e-10
6.00611250428e-09
4.3245494096e-09
-4.46887504815e-10
6.01244329055e-09
4.02585595644e-09
-2.73392832875e-10
6.00514735959e-09
3.67802430115e-09
6.01461587916e-09
3.29162025991e-09
-4.4334707413e-12
2.67682570481e-10
5.07319826843e-09
3.00365335943e-09
-2.5980446686e-12
4.38235831123e-10
5.04568669453e-09
3.38274959862e-09
5.15104335785e-10
5.03931991908e-09
3.72234098821e-09
5.02886433196e-10
5.02669274893e-09
4.01270719664e-09
4.15234191691e-10
5.01446908606e-09
4.2457976344e-09
2.70745203303e-10
5.00417088192e-09
4.41607713643e-09
9.12676699224e-11
4.99779034195e-09
4.52026779247e-09
-9.97327618436e-11
4.99622416026e-09
4.55596249948e-09
-2.78908487311e-10
4.99795769439e-09
4.52026877084e-09
-4.22821702849e-10
5.00449327577e-09
4.41608755504e-09
-5.09659464789e-10
5.01492366537e-09
4.24582979487e-09
-5.20880181848e-10
5.02725369038e-09
4.01278202519e-09
-4.42900574356e-10
5.03997868667e-09
3.72248273015e-09
-2.71166340125e-10
5.04635555485e-09
3.38290832457e-09
5.07398076846e-09
3.0036960479e-09
-4.69658622786e-12
2.63816130624e-10
4.18833515679e-09
2.6975870234e-09
-2.40185669608e-12
4.33157106188e-10
4.14545643416e-09
3.07047894218e-09
5.07699324617e-10
4.13277783191e-09
3.40220966757e-09
4.9385563391e-10
4.11953513126e-09
3.6841810556e-09
4.06583467281e-10
4.10802329775e-09
3.90963900233e-09
2.64574722932e-10
4.09876826451e-09
4.07390595205e-09
8.90102329422e-11
4.09294860088e-09
4.17407311283e-09
-9.75653599171e-11
4.09120701877e-09
4.20810696199e-09
-2.72862110361e-10
4.09292788552e-09
4.17405733513e-09
-4.14357037143e-10
4.0987246764e-09
4.07388020699e-09
-5.0089780795e-10
4.10794725247e-09
3.90961154347e-09
-5.13826529927e-10
4.11942097504e-09
3.68416928968e-09
-4.38242363506e-10
4.13263511016e-09
3.40224107358e-09
-2.67753736861e-10
4.14524980697e-09
3.07051808655e-09
4.1883078385e-09
2.69752830322e-09
-4.97428594825e-12
2.71628842867e-10
2.38183635515e-09
-2.19196300431e-12
3.35635757963e-09
4.3580498853e-10
2.74993157009e-09
3.31504101764e-09
5.02475582813e-10
3.07381697662e-09
3.30503452663e-09
4.83747711441e-10
3.34707032589e-09
3.29513002014e-09
3.95772437583e-10
3.56450208648e-09
3.28649227418e-09
2.56566219481e-10
3.72241091329e-09
3.27974936672e-09
8.60423977462e-11
3.81832015511e-09
3.27548047879e-09
-9.47473022574e-11
3.85060887745e-09
3.27397105237e-09
-2.65028841298e-10
3.81828543717e-09
3.27530852335e-09
-4.03771170567e-10
3.72234396329e-09
3.27940615489e-09
-4.91078358163e-10
3.56440530172e-09
3.28598180215e-09
-5.08956199984e-10
3.34695293233e-09
3.29445601266e-09
-4.41281142314e-10
3.07370729891e-09
3.30421528911e-09
-2.75966318353e-10
2.74979643917e-09
3.31407696054e-09
2.38170385982e-09
-5.23662133448e-12
3.3555963757e-09
-4.60717887061e-12
3.07306108666e-10
5.04508068538e-10
2.58286560987e-13
-3.59516460295e-12
3.36901910149e-10
5.57311870002e-10
-2.33805136709e-12
3.70150710754e-10
6.08440991846e-10
-1.47493940604e-12
4.0030014564e-10
6.54957997884e-10
-8.18429904338e-13
4.25373081456e-10
6.94130093759e-10
-2.90233555995e-13
4.44060199206e-10
7.23796639075e-10
1.88264257355e-13
4.55688856623e-10
7.42549884071e-10
6.26733588732e-13
4.5979843724e-10
7.49284632094e-10
1.00026646349e-12
4.5559598419e-10
7.42547170575e-10
1.32302556165e-12
4.43914062987e-10
7.23790828175e-10
1.71486055366e-12
4.2526798272e-10
6.94120435278e-10
2.35366639119e-12
4.0033567815e-10
6.54942611954e-10
3.42084322808e-12
3.70241958764e-10
6.08415247016e-10
4.37398221321e-12
3.37098289553e-10
5.57261242064e-10
3.07299972473e-10
5.04382681875e-10
2.5525976005e-14
-2.93802361368e-12
8.59806423134e-10
1.42520793111e-09
4.75663849692e-13
2.63892132588e-12
9.34699603149e-10
1.5762253796e-09
7.74383123201e-12
1.01727742546e-09
1.72244848869e-09
1.01357323088e-11
1.09214481067e-09
1.85548306963e-09
9.77559111704e-12
1.15380827825e-09
1.96753160292e-09
7.13673704872e-12
1.19942433093e-09
2.05240627633e-09
3.02438537145e-12
1.22772452051e-09
2.10603274149e-09
-1.6450314991e-12
1.23776105069e-09
2.12523353188e-09
-5.97482246811e-12
1.22756383422e-09
2.10602894185e-09
-9.02791216119e-12
1.19917225885e-09
2.0523978246e-09
-9.9053440686e-12
1.15362361582e-09
1.96751543897e-09
-7.95667098411e-12
1.09221130253e-09
1.8554526145e-09
-3.16100865748e-12
1.01752256301e-09
1.7223900559e-09
2.34416849716e-12
9.35091110717e-10
1.57609679159e-09
8.59857897582e-10
1.42489783012e-09
-4.63839207027e-14
5.29264608402e-12
1.46111680676e-09
2.19694153446e-09
5.99295573417e-13
1.76413345514e-11
1.57841298947e-09
2.43174541158e-09
2.73713941341e-11
1.70586017552e-09
2.65859351023e-09
3.10006092588e-11
1.82122818041e-09
2.86462715618e-09
2.80774129319e-11
1.91569437256e-09
3.03792919498e-09
1.95929884797e-11
1.98519656279e-09
3.16906553452e-09
7.4319393012e-12
2.02819873337e-09
3.25182222073e-09
-6.05974604909e-12
2.04348581813e-09
3.2813797702e-09
-1.84860951134e-11
2.02805450139e-09
3.25181840201e-09
-2.74697203209e-11
1.98498759911e-09
3.16905632092e-09
-3.10093354261e-11
1.91559674063e-09
3.03791013825e-09
-2.79153316507e-11
1.82143855246e-09
2.86458898636e-09
-1.8523648955e-11
1.70632820702e-09
2.65851725068e-09
-6.23029056676e-12
1.57897954408e-09
2.43157223918e-09
1.46123494003e-09
2.19651935725e-09
-2.01984863292e-13
1.7225716733e-11
2.01499743929e-09
2.81327461954e-09
5.7201583016e-13
3.75101569261e-11
2.16517755185e-09
3.11584510592e-09
5.19555561667e-11
2.32591000836e-09
3.40712464666e-09
5.63336488653e-11
2.47092259505e-09
3.67097341995e-09
4.99021111824e-11
2.58905744299e-09
3.89243429283e-09
3.42299811105e-11
2.67553527391e-09
4.05972899272e-09
1.24208232109e-11
2.72889170031e-09
4.16513169428e-09
-1.15673006398e-11
2.74789038455e-09
4.20268456281e-09
-3.36338437477e-11
2.72880415713e-09
4.165129497e-09
-4.97836916744e-11
2.67543291097e-09
4.05972289482e-09
-5.67968802553e-11
2.58909656705e-09
3.89241978831e-09
-5.29153837151e-11
2.47126878436e-09
3.67094082028e-09
-3.8752591635e-11
2.32653874099e-09
3.40705339326e-09
-1.84569178174e-11
2.16586439398e-09
3.11566904532e-09
2.01517270524e-09
2.81282128925e-09
-4.67209737117e-13
3.09554477514e-11
2.46588700554e-09
3.2835266134e-09
4.57292157184e-13
5.93179281546e-11
2.63730218761e-09
3.63859461035e-09
7.81314266556e-11
2.81729403082e-09
3.97881357758e-09
8.27511550951e-11
2.97902007358e-09
4.28592066018e-09
7.23665626521e-11
3.11011163309e-09
4.54297478193e-09
4.91477737285e-11
3.20558035446e-09
4.7367302906e-09
1.74035409173e-11
3.26430250739e-09
4.85856205221e-09
-1.73324091447e-11
3.2852298053e-09
4.90185634185e-09
-4.92952754757e-11
3.26426896275e-09
4.85856281573e-09
-7.29133623921e-11
3.20557496389e-09
4.73673069929e-09
-8.37753473938e-11
3.11026009797e-09
4.54297164121e-09
-7.95436516353e-11
2.979456282e-09
4.28590598676e-09
-6.09157990713e-11
2.81799718851e-09
3.97876848272e-09
-3.24576114226e-11
2.6380604099e-09
3.63845093905e-09
2.46608495592e-09
3.28310177628e-09
-7.988219579e-13
4.49248559027e-11
2.78717115694e-09
3.61757354692e-09
2.95499649035e-13
8.09029581323e-11
2.96871105907e-09
4.01106889948e-09
1.03442391415e-10
3.15446154203e-09
4.38601318283e-09
1.07846372256e-10
3.32067781376e-09
4.72307382088e-09
9.34476865752e-11
3.45467443043e-09
5.00428276607e-09
6.30229245172e-11
3.55174507965e-09
5.21570380695e-09
2.19696264473e-11
3.61125330643e-09
5.34834388474e-09
-2.27820640724e-11
3.63246894565e-09
5.39534784931e-09
-6.40013420919e-11
3.61125881496e-09
5.34834833853e-09
-9.47232988652e-11
3.55180453725e-09
5.21571278622e-09
-1.09465598021e-10
3.45488095746e-09
5.00429547637e-09
-1.05316852384e-10
3.32113112753e-09
4.72308561245e-09
-8.28457477205e-11
3.15514983284e-09
4.38600912286e-09
-4.66983062213e-11
2.96943264346e-09
4.010980984e-09
2.78737353754e-09
3.61721175963e-09
-1.16622047809e-12
5.7976606955e-11
2.97264061811e-09
3.82676189346e-09
1.22349928774e-13
1.00706453391e-10
3.15490249022e-09
4.24628995188e-09
1.2616914366e-10
3.33527153193e-09
4.64356724419e-09
1.29970733137e-10
3.4959668352e-09
4.99907903763e-09
1.11786244645e-10
3.62471271061e-09
5.29463039338e-09
7.49753477369e-11
3.7174635425e-09
5.51622150032e-09
2.58456937561e-11
3.77411728477e-09
5.65490196643e-09
-2.75427939155e-11
3.79431046768e-09
5.70389503362e-09
-7.67836566089e-11
3.77413755865e-09
5.65490985034e-09
-1.13787828384e-10
3.71754024386e-09
5.51623892777e-09
-1.32180826956e-10
3.62491455662e-09
5.29465967297e-09
-1.28501411925e-10
3.49636701301e-09
4.99911990674e-09
-1.0299321637e-10
3.33587473497e-09
4.64360998404e-09
-6.00210667035e-11
3.15551885704e-09
4.24626700987e-09
2.97280190649e-09
3.82647708075e-09
-1.55217614904e-12
6.93149421886e-11
3.02974290995e-09
3.92384509648e-09
-4.33687299657e-14
1.176880146e-10
3.20561081549e-09
4.3590076576e-09
1.45197696537e-10
3.37255306742e-09
4.76838023344e-09
1.4809470858e-10
3.52049725608e-09
5.1329521621e-09
1.26558183515e-10
3.63817429603e-09
5.43491731781e-09
8.44810542956e-11
3.72244715706e-09
5.66067400211e-09
2.88680396976e-11
3.77372139861e-09
5.80159667334e-09
-3.13988023769e-11
3.79198052031e-09
5.85120875605e-09
-8.70731774648e-11
3.77373457225e-09
5.80160640499e-09
-1.29249355808e-10
3.7224996528e-09
5.66069686647e-09
-1.50873148788e-10
3.63831514811e-09
5.4349590306e-09
-1.47977128509e-10
3.52078059761e-09
5.13301736871e-09
-1.20322711178e-10
3.37299456262e-09
4.76846491884e-09
-7.16364975441e-11
3.2060501977e-09
4.35904416303e-09
3.0297806054e-09
3.92363346081e-09
-1.94335684577e-12
7.84593221366e-11
2.97433990821e-09
3.92251242778e-09
-1.92851965366e-13
1.31211244034e-10
3.13902788365e-09
4.36503420463e-09
1.59880521045e-10
3.28760654599e-09
4.77851250208e-09
1.61668350485e-10
3.41833317534e-09
5.14491562787e-09
1.37355556089e-10
3.52140664308e-09
5.44726079533e-09
9.12946352949e-11
3.59474015171e-09
5.67265646075e-09
3.0961292031e-11
3.63917041077e-09
5.81297448734e-09
-3.42545383166e-11
3.6549636823e-09
5.86217729926e-09
-9.4607648038e-11
3.63915868487e-09
5.81298293219e-09
-1.40689316959e-10
3.59473538714e-09
5.67267841705e-09
-1.64988690344e-10
3.52144324485e-09
5.44730534306e-09
-1.63100057639e-10
3.41845327291e-09
5.14499243846e-09
-1.34200089553e-10
3.28783407665e-09
4.77862333563e-09
-8.1073026292e-11
3.13922921366e-09
4.36511065506e-09
2.97419493682e-09
3.92235503244e-09
-2.33131283444e-12
8.51982807906e-11
2.82679129153e-09
3.83680352258e-09
-3.18246585552e-13
1.40965227121e-10
2.9775423594e-09
4.28049327246e-09
1.69956759448e-10
3.1054767426e-09
4.69223294227e-09
1.70537342406e-10
3.21685152438e-09
5.05524422433e-09
1.44114408124e-10
3.30371720609e-09
5.3536495966e-09
9.54008596029e-11
3.36508254265e-09
5.57546824497e-09
3.21250832275e-11
3.40209739422e-09
5.71316772107e-09
-3.61090152695e-11
3.41521401602e-09
5.76123094842e-09
-9.9371791044e-11
3.40205067685e-09
5.71317011753e-09
-1.48044752036e-10
3.36500154579e-09
5.57547949162e-09
-1.74374616127e-10
3.30362401459e-09
5.35368179769e-09
-1.73611307115e-10
3.21677724822e-09
5.05531195203e-09
-1.44317068524e-10
3.1054490809e-09
4.69234377214e-09
-8.81175907201e-11
2.97745127822e-09
4.28057788673e-09
2.82639113681e-09
3.83666881002e-09
-2.71246009484e-12
8.95322875388e-11
2.60896309215e-09
3.68056705903e-09
-4.21846413447e-13
1.46928603621e-10
2.74458289747e-09
4.12117153838e-09
1.75530343e-10
2.85152860764e-09
4.52724197011e-09
1.74932316122e-10
2.94316349884e-09
4.88335359673e-09
1.47106667736e-10
3.01370992955e-09
5.17491297992e-09
9.70094547589e-11
3.06319606334e-09
5.39099100701e-09
3.2434910578e-11
3.09291946456e-09
5.52471622311e-09
-3.70453858207e-11
3.10340067714e-09
5.57114432926e-09
-1.01581942189e-10
3.09283464954e-09
5.52470631671e-09
-1.51592282629e-10
3.06303284486e-09
5.39097856826e-09
-1.79264112765e-10
3.01348017533e-09
5.17491252764e-09
-1.79614885037e-10
2.94288648127e-09
4.88338437067e-09
-1.50650255234e-10
2.85122966014e-09
4.52731780091e-09
-9.27695981479e-11
2.74416768672e-09
4.12122300912e-09
2.6082596317e-09
3.68041374895e-09
-3.08301919646e-12
9.16268230773e-11
2.34218053391e-09
3.46704073675e-09
-5.07208874771e-13
1.49397605519e-10
2.4624369651e-09
3.90205543515e-09
1.77160002738e-10
2.54915493389e-09
4.3001419514e-09
1.75568642823e-10
2.62185081864e-09
4.64719943128e-09
1.47013386467e-10
2.67707722771e-09
4.93006611842e-09
9.65979021201e-11
2.71561998994e-09
5.13900213763e-09
3.20587609589e-11
2.73870058888e-09
5.26786530435e-09
-3.72392969313e-11
2.74677522113e-09
5.31232975947e-09
-1.01721033472e-10
2.73857978967e-09
5.26783581529e-09
-1.52013567884e-10
2.71537980858e-09
5.13895078596e-09
-1.80368222679e-10
2.67671731867e-09
4.93000889268e-09
-1.8166095131e-10
2.62137931345e-09
4.6471598748e-09
-1.53485602881e-10
2.54858807566e-09
4.30014147158e-09
-9.51828362998e-11
2.46169419023e-09
3.90202740179e-09
2.34115623136e-09
3.46682248922e-09
-3.44058473663e-12
9.18437260813e-11
2.04587931088e-09
3.20857426251e-09
-5.74799365617e-13
1.49217770975e-10
2.15064962999e-09
3.63706664432e-09
1.76170800314e-10
2.21830015914e-09
4.02613400345e-09
1.73906893977e-10
2.27376323522e-09
4.36293932529e-09
1.45096818831e-10
2.31557869427e-09
4.63597069207e-09
9.50072009123e-11
2.34478784072e-09
4.83685483245e-09
3.12881164367e-11
2.36225909174e-09
4.96026618523e-09
-3.69842261167e-11
2.36829857212e-09
5.00254607229e-09
-1.00628360448e-10
2.36210618591e-09
4.96020982068e-09
-1.50564669314e-10
2.3444780264e-09
4.83674909851e-09
-1.79132993459e-10
2.3151050466e-09
4.63583156631e-09
-1.81054914166e-10
2.273116701e-09
4.36279365332e-09
-1.53644702306e-10
2.21748465596e-09
4.02601307661e-09
-9.56962916934e-11
2.14958708612e-09
3.6369142586e-09
2.0445266922e-09
3.20825115518e-09
-3.76152791171e-12
9.07496404e-11
1.73675335474e-09
2.91647130247e-09
-6.29936289332e-13
1.48080218035e-10
1.82474374424e-09
3.33895825139e-09
1.74987422734e-10
1.87467588165e-09
3.71882200839e-09
1.72368739821e-10
1.91573330616e-09
4.04471433042e-09
1.43331080907e-10
1.94696073026e-09
4.30717083618e-09
9.35055093254e-11
1.96899133357e-09
4.49938724431e-09
3.05659366195e-11
1.98218783233e-09
4.61694053684e-09
-3.67169020181e-11
1.98664836521e-09
4.6568835911e-09
-9.95631724899e-11
1.98200367627e-09
4.61685182643e-09
-1.49201021065e-10
1.96861676573e-09
4.49921518987e-09
-1.77956887465e-10
1.94638146395e-09
4.30692916182e-09
-1.80190244557e-10
1.914932508e-09
4.04443010534e-09
-1.52790483702e-10
1.87364009294e-09
3.71853729578e-09
-9.48510303346e-11
1.82338729765e-09
3.33864310323e-09
1.73510532602e-09
2.91602357092e-09
-4.04895804142e-12
8.3349228397e-11
2.60064543295e-09
-6.81950951787e-13
1.43514848329e-09
1.46560033092e-10
3.01900866088e-09
1.49236003339e-09
1.75847084654e-10
3.3895744191e-09
1.5295309636e-09
1.73520172558e-10
3.70416302989e-09
1.56085719776e-09
1.43996828365e-10
3.95566508173e-09
1.58520118263e-09
9.36710669402e-11
4.13892209066e-09
1.60268109585e-09
3.04513716565e-11
4.25042893255e-09
1.61316448757e-09
-3.69814721429e-11
4.28796471397e-09
1.61659116982e-09
-1.00084241975e-10
4.25030812933e-09
1.61294028428e-09
-1.50179958836e-10
4.13868371711e-09
1.60222893761e-09
-1.79367345564e-10
3.95531853681e-09
1.58450717984e-09
-1.81258262698e-10
3.70372973437e-09
1.55990173943e-09
-1.51436638719e-10
3.38910335992e-09
1.52828567267e-09
-8.76001171905e-11
3.01848012178e-09
1.49073957489e-09
2.60012404339e-09
-4.24266597371e-12
1.4332093763e-09
6.33285309308e-12
-1.56327140422e-11
5.13552908397e-10
1.91732969378e-14
1.13644041209e-11
-1.78550163388e-11
5.7001220225e-10
1.4263143673e-11
-1.95778975315e-11
6.24976065057e-10
1.46744979741e-11
-2.076211989e-11
6.75291003431e-10
1.25224968186e-11
-2.17593284468e-11
7.17899667779e-10
8.28430084916e-12
-2.25271808624e-11
7.5031360659e-10
2.7112331482e-12
-2.29965684611e-11
7.70855451879e-10
-3.31238971288e-12
-2.31492584746e-11
7.7822467521e-10
-8.83888496591e-12
-2.29773829797e-11
7.70847429705e-10
-1.30035015782e-11
-2.25238042036e-11
7.50297143298e-10
-1.51048898921e-11
-2.18194428377e-11
7.17873408782e-10
-1.46999237974e-11
-2.087223784e-11
6.75251948456e-10
-1.17601749268e-11
-1.95944182902e-11
6.24919103603e-10
-6.69273648188e-12
-1.78738540774e-11
5.69924234464e-10
-1.56033565409e-11
5.13394918417e-10
-2.37223581933e-13
1.55762388719e-11
1.24508116313e-11
1.38114847594e-09
8.37555636342e-14
2.84003503509e-11
1.40280046247e-11
1.53129350652e-09
3.60560451608e-11
1.77563983474e-11
1.67731636555e-09
3.73084182009e-11
2.25071897503e-11
1.81086258654e-09
3.20023011665e-11
2.69421874933e-11
1.92387663383e-09
2.12485173449e-11
3.04435558507e-11
2.00980537437e-09
6.95894077984e-12
3.27060495109e-11
2.06422188842e-09
-8.53764303116e-12
3.35198884547e-11
2.08370099348e-09
-2.27350753248e-11
3.27302858855e-11
2.06419865465e-09
-3.33458994411e-11
3.04375959441e-11
2.00975791651e-09
-3.85495946647e-11
2.68302892992e-11
1.9238012413e-09
-3.72785564185e-11
2.23055708119e-11
1.81075100968e-09
-2.95450828744e-11
1.76678489961e-11
1.67715395901e-09
-1.65863512692e-11
1.3993279357e-11
1.53104430436e-09
1.24564748257e-11
1.38072727963e-09
-6.85743268748e-13
2.21418446355e-11
9.53304313004e-11
2.09147187654e-09
1.81111447433e-13
4.07269679691e-11
1.07529433553e-10
2.31944097096e-09
5.20459441526e-11
1.24106429847e-10
2.5408082445e-09
5.40816955644e-11
1.41925894016e-10
2.74306201215e-09
4.65664485404e-11
1.58034340477e-10
2.91411047826e-09
3.10086012881e-11
1.70616462225e-10
3.04410164158e-09
1.01726180083e-11
1.78648594478e-10
3.12635264603e-09
-1.24808199076e-11
1.81494545714e-10
3.1557266119e-09
-3.32150916762e-11
1.7866820775e-10
3.12631678071e-09
-4.86184337456e-11
1.70597909319e-10
3.044028396e-09
-5.60224153599e-11
1.57898251663e-10
2.91399431322e-09
-5.39501088134e-11
1.41693630433e-10
2.74289105433e-09
-4.25320687114e-11
1.23979912188e-10
2.54056159455e-09
-2.37361180816e-11
1.07489256262e-10
2.31906851904e-09
9.5266079038e-11
2.09085858291e-09
-1.07995302024e-12
2.71207987769e-11
2.15876875169e-10
2.66511297657e-09
2.61494794579e-13
5.00877388406e-11
2.42611541178e-10
2.95764535633e-09
6.42461515827e-11
2.75948263399e-10
3.24103279644e-09
6.6964236516e-11
3.104886733e-10
3.49957081322e-09
5.78238265136e-11
3.41384863618e-10
3.71800007976e-09
3.85857472286e-11
3.65411905004e-10
3.8838718659e-09
1.26531078335e-11
3.80683734049e-10
3.98871607274e-09
-1.56017646634e-11
3.86070604982e-10
4.02606890436e-09
-4.14384651488e-11
3.80694513047e-10
3.98867024904e-09
-6.0530735253e-11
3.6538509219e-10
3.88377873758e-09
-6.95562889912e-11
3.41256851256e-10
3.71785316118e-09
-6.67749670081e-11
3.10274833629e-10
3.49935665409e-09
-5.24844435712e-11
2.75804149289e-10
3.24072821759e-09
-2.92531000355e-11
2.4253616687e-10
2.95719402586e-09
2.15735303021e-10
2.66438556586e-09
-1.46598225091e-12
3.12170173257e-11
3.55684234721e-10
3.11197935235e-09
3.15219352966e-13
5.75685864371e-11
3.97920991682e-10
3.45683189225e-09
7.38853136005e-11
4.48519648407e-10
3.78983733256e-09
7.71175738216e-11
5.00048021002e-10
4.09301630891e-09
6.6701190603e-11
5.45792574468e-10
4.34878520643e-09
4.45570802318e-11
5.81229885617e-10
4.54279332387e-09
1.45730533232e-11
6.03690994746e-10
4.6652607568e-09
-1.81446444454e-11
6.11597274162e-10
4.70878123701e-09
-4.80403676915e-11
6.03698692115e-10
4.66520664605e-09
-7.00462590826e-11
5.81206420872e-10
4.54268409527e-09
-8.03370583255e-11
5.4568622388e-10
4.34861492759e-09
-7.7004313151e-11
4.99868231311e-10
4.09277261253e-09
-6.05086417846e-11
4.48382189673e-10
3.78949840923e-09
-3.38439436156e-11
3.97799574728e-10
3.45633974568e-09
3.55474271494e-10
3.11119736266e-09
-1.8473784977e-12
3.48532063135e-11
4.9684262886e-10
3.44107518898e-09
3.40960344054e-13
6.38346029671e-11
5.53036803156e-10
3.82689048471e-09
8.17167577596e-11
6.18626366331e-10
4.19795881787e-09
8.52283629729e-11