/*--------------------------------*- C++ -*----------------------------------*\
  =========                 |
  \\      /  F ield         | OpenFOAM: The Open Source CFD Toolbox
   \\    /   O peration     | Website:  https://openfoam.org
    \\  /    A nd           | Version:  7
     \\/     M anipulation  |
\*---------------------------------------------------------------------------*/
FoamFile
{
    version     2.0;
    format      ascii;
    class       volScalarField;
    location    "0.38";
    object      p;
}
// * * * * * * * * * * * * * * * * * * * * * * * * * * * * * * * * * * * * * //

dimensions      [0 2 -2 0 0 0 0];

internalField   nonuniform List<scalar> 
22500
(
-7.27354354249e-06
-7.27320301364e-06
-7.27352824097e-06
-7.2735966762e-06
-7.2737155957e-06
-7.27380100674e-06
-7.27386079228e-06
-7.27388380913e-06
-7.27387664768e-06
-7.2738317162e-06
-7.27375889145e-06
-7.27364853444e-06
-7.27358280283e-06
-7.27325355379e-06
-7.27357862111e-06
-7.26885089219e-06
-7.2682043316e-06
-7.26833503594e-06
-7.26823402717e-06
-7.2682170333e-06
-7.26820302788e-06
-7.26820234494e-06
-7.26820554503e-06
-7.26821714565e-06
-7.26823163752e-06
-7.26825724181e-06
-7.26828204023e-06
-7.26838521094e-06
-7.26825042782e-06
-7.26888205575e-06
-7.26390273798e-06
-7.26293569969e-06
-7.26283437658e-06
-7.26252505902e-06
-7.26234589501e-06
-7.26221149659e-06
-7.26213733172e-06
-7.26211592349e-06
-7.26215106333e-06
-7.26223799355e-06
-7.26238304098e-06
-7.26256929615e-06
-7.26288031461e-06
-7.26297759319e-06
-7.26392999884e-06
-7.25878715948e-06
-7.2574840802e-06
-7.25708393699e-06
-7.25651898892e-06
-7.25613435952e-06
-7.25584742805e-06
-7.25567924534e-06
-7.25562598836e-06
-7.25569167857e-06
-7.2558713743e-06
-7.25616783053e-06
-7.25655870424e-06
-7.25712489671e-06
-7.25752110827e-06
-7.25881011069e-06
-7.25316566186e-06
-7.25147228963e-06
-7.25068663411e-06
-7.24980208095e-06
-7.24915343038e-06
-7.24867039657e-06
-7.24838062458e-06
-7.24828601789e-06
-7.24839156333e-06
-7.248691411e-06
-7.24918269816e-06
-7.2498366375e-06
-7.25072196322e-06
-7.25150377612e-06
-7.25318375287e-06
-7.24690444493e-06
-7.24474697291e-06
-7.24349061457e-06
-7.2422202452e-06
-7.24124802788e-06
-7.24052426179e-06
-7.24008479186e-06
-7.23993916533e-06
-7.24009406126e-06
-7.24054201364e-06
-7.24127262732e-06
-7.242249068e-06
-7.24351968376e-06
-7.24477227222e-06
-7.24691721538e-06
-7.23997184289e-06
-7.23726775298e-06
-7.23546429096e-06
-7.23374716677e-06
-7.23239733171e-06
-7.23139209869e-06
-7.23077737925e-06
-7.23057196595e-06
-7.23078487186e-06
-7.23140638395e-06
-7.23241698472e-06
-7.23376992093e-06
-7.23548674361e-06
-7.23728644016e-06
-7.23997893335e-06
-7.23236518058e-06
-7.22903150478e-06
-7.22661742282e-06
-7.22440291244e-06
-7.2226312024e-06
-7.22131100905e-06
-7.2205001717e-06
-7.22022783046e-06
-7.22050582168e-06
-7.22132170506e-06
-7.22264573943e-06
-7.2244193862e-06
-7.22663301397e-06
-7.22904328251e-06
-7.23236635628e-06
-7.22410448821e-06
-7.22006758284e-06
-7.2169964714e-06
-7.21424913237e-06
-7.21202510372e-06
-7.2103668113e-06
-7.20934562978e-06
-7.20900152374e-06
-7.20934942446e-06
-7.21037389673e-06
-7.21203449695e-06
-7.2142592887e-06
-7.21700513393e-06
-7.22007231608e-06
-7.22409949219e-06
-7.21523522097e-06
-7.21044065154e-06
-7.2066872789e-06
-7.20339084442e-06
-7.20070089538e-06
-7.19869408922e-06
-7.19745648421e-06
-7.19703859208e-06
-7.19745844862e-06
-7.19869761493e-06
-7.20070521004e-06
-7.20339474904e-06
-7.20668904522e-06
-7.21043829233e-06
-7.21522390235e-06
-7.20582656847e-06
-7.20024748958e-06
-7.19581278985e-06
-7.19197319579e-06
-7.18882231658e-06
-7.18647071131e-06
-7.18501964302e-06
-7.18452910216e-06
-7.18501984719e-06
-7.18647080616e-06
-7.18882172992e-06
-7.19197103105e-06
-7.19580779766e-06
-7.20023807392e-06
-7.20580866679e-06
-7.19593650152e-06
-7.18960241151e-06
-7.18453001205e-06
-7.18017896756e-06
-7.17659144932e-06
-7.17391359867e-06
-7.17226170067e-06
-7.17170302062e-06
-7.17226025499e-06
-7.17391047416e-06
-7.17658623116e-06
-7.18017102843e-06
-7.18451850364e-06
-7.18958607873e-06
-7.19591187008e-06
-7.18554851385e-06
-7.17864950411e-06
-7.17304600374e-06
-7.1682352698e-06
-7.16425163549e-06
-7.16128141477e-06
-7.15945202714e-06
-7.15883360227e-06
-7.1594490975e-06
-7.16127538155e-06
-7.16424220567e-06
-7.16822200867e-06
-7.17302837543e-06
-7.17862657218e-06
-7.18551729563e-06
-7.17501022718e-06
-7.1677735789e-06
-7.16165516731e-06
-7.15639769526e-06
-7.15205106595e-06
-7.14882954964e-06
-7.14685383085e-06
-7.14618705592e-06
-7.14684964975e-06
-7.14882104469e-06
-7.15203801415e-06
-7.15637976352e-06
-7.16163201848e-06
-7.16774440258e-06
-7.17497308701e-06
-7.16687462279e-06
-7.15745951112e-06
-7.15060571713e-06
-7.14477331002e-06
-7.14004677288e-06
-7.1365922849e-06
-7.13448957009e-06
-7.13378214678e-06
-7.13448432903e-06
-7.13658169325e-06
-7.1400306249e-06
-7.14475129583e-06
-7.15057742214e-06
-7.15742415302e-06
-7.16683243168e-06
-7.92518695396e-06
-7.92497569379e-06
-7.92467942176e-06
-7.92441081179e-06
-7.92416714703e-06
-7.92397693931e-06
-7.92385288004e-06
-7.92380397742e-06
-7.92383307816e-06
-7.92393788871e-06
-7.92411055373e-06
-7.92434091328e-06
-7.92460330624e-06
-7.924902932e-06
-7.9251278028e-06
-7.92386222856e-06
-7.92364973739e-06
-7.92334672168e-06
-7.92307568309e-06
-7.92283040197e-06
-7.92263948723e-06
-7.92251519406e-06
-7.92246632755e-06
-7.9224958045e-06
-7.92260128648e-06
-7.92277510644e-06
-7.92300730317e-06
-7.92327216386e-06
-7.92357821319e-06
-7.9238036899e-06
-7.92311073951e-06
-7.9229611512e-06
-7.92270540522e-06
-7.92248251076e-06
-7.92227695909e-06
-7.92211637639e-06
-7.92201101878e-06
-7.92196874081e-06
-7.92199221328e-06
-7.92207938021e-06
-7.92222350204e-06
-7.92241641179e-06
-7.92263323686e-06
-7.92289162262e-06
-7.92305341956e-06
-7.92307763191e-06
-7.92303216978e-06
-7.92285686854e-06
-7.92271077315e-06
-7.9225678851e-06
-7.92245401131e-06
-7.92237745583e-06
-7.92234511358e-06
-7.92235942728e-06
-7.92241859486e-06
-7.92251678075e-06
-7.92264755756e-06
-7.92278765421e-06
-7.92296507445e-06
-7.92302184712e-06
-7.92345999891e-06
-7.92351628202e-06
-7.92341730331e-06
-7.92334060544e-06
-7.92325277059e-06
-7.92317866643e-06
-7.92312617285e-06
-7.92310212656e-06
-7.92310906152e-06
-7.92314509746e-06
-7.92320438407e-06
-7.9232807078e-06
-7.92335148495e-06
-7.92345196951e-06
-7.92340598139e-06
-7.92402187804e-06
-7.92414574075e-06
-7.92409383095e-06
-7.92405561606e-06
-7.92399581593e-06
-7.92394016805e-06
-7.9238981816e-06
-7.92387780611e-06
-7.92388209522e-06
-7.92390864122e-06
-7.92395039688e-06
-7.92399931595e-06
-7.92403168841e-06
-7.92408445755e-06
-7.92396978491e-06
-7.92459484277e-06
-7.92473250049e-06
-7.9246852011e-06
-7.92464344662e-06
-7.9245762947e-06
-7.9245121145e-06
-7.92446380963e-06
-7.92444141701e-06
-7.92444883564e-06
-7.92448279002e-06
-7.92453405751e-06
-7.92459100067e-06
-7.92462700059e-06
-7.92467452448e-06
-7.92454481045e-06
-7.92505074138e-06
-7.92514050567e-06
-7.92505214225e-06
-7.92496378084e-06
-7.92485406009e-06
-7.92475520244e-06
-7.92468455345e-06
-7.92465477137e-06
-7.92467073266e-06
-7.9247281482e-06
-7.92481508549e-06
-7.92491527922e-06
-7.92499799778e-06
-7.92508595747e-06
-7.92500290867e-06
-7.92530164654e-06
-7.92528412385e-06
-7.92511338736e-06
-7.92494142838e-06
-7.92475985882e-06
-7.92460523794e-06
-7.92449958507e-06
-7.92445821304e-06
-7.92448694111e-06
-7.92458049097e-06
-7.92472418568e-06
-7.9248969117e-06
-7.92506335916e-06
-7.92523310706e-06
-7.92525608407e-06
-7.92529911044e-06
-7.92512495294e-06
-7.92483941843e-06
-7.92455671587e-06
-7.92428273877e-06
-7.92405819113e-06
-7.92390930448e-06
-7.92385364917e-06
-7.92389782644e-06
-7.9240357231e-06
-7.92425031232e-06
-7.92451612165e-06
-7.92479347089e-06
-7.9250775136e-06
-7.92525591958e-06
-7.92502769756e-06
-7.92466213702e-06
-7.92423992613e-06
-7.92383008355e-06
-7.92345237347e-06
-7.92315091778e-06
-7.92295507583e-06
-7.92288399014e-06
-7.92294473821e-06
-7.92313066966e-06
-7.92342310566e-06
-7.92379329832e-06
-7.92419797534e-06
-7.92461829555e-06
-7.92498696667e-06
-7.92450005791e-06
-7.92392315175e-06
-7.92335154629e-06
-7.92280759744e-06
-7.92232319571e-06
-7.92194430198e-06
-7.92170186341e-06
-7.92161555342e-06
-7.92169262116e-06
-7.92192617896e-06
-7.92229693864e-06
-7.92277445698e-06
-7.92331346474e-06
-7.92388289626e-06
-7.92446198211e-06
-7.92375776202e-06
-7.92295359583e-06
-7.92222426684e-06
-7.92154716338e-06
-7.92096080368e-06
-7.92050995844e-06
-7.92022488071e-06
-7.92012484577e-06
-7.92021666189e-06
-7.92049382469e-06
-7.92093737828e-06
-7.92151745622e-06
-7.92218987223e-06
-7.92291685123e-06
-7.92372235646e-06
-7.92281834677e-06
-7.92177032637e-06
-7.9208948876e-06
-7.92010055281e-06
-7.91943004267e-06
-7.91892173289e-06
-7.91860345374e-06
-7.91849277519e-06
-7.91859616356e-06
-7.91890740722e-06
-7.91940916396e-06
-7.92007396951e-06
-7.92086396318e-06
-7.92173699571e-06
-7.92278553001e-06
-7.92140962176e-06
-7.92038534298e-06
-7.91940989387e-06
-7.91854006876e-06
-7.91782159692e-06
-7.91728254012e-06
-7.91694721914e-06
-7.91683146078e-06
-7.91694072853e-06
-7.91726979609e-06
-7.91780301223e-06
-7.91851636557e-06
-7.91938219913e-06
-7.92035543206e-06
-7.92137933942e-06
-6.66937371204e-06
-6.66949175857e-06
-6.66962514009e-06
-6.66975974686e-06
-6.66988247529e-06
-6.66998115652e-06
-6.67004760529e-06
-6.67007683448e-06
-6.67006678279e-06
-6.67001904157e-06
-6.6699376713e-06
-6.66982899568e-06
-6.66970273602e-06
-6.66957014e-06
-6.66944403169e-06
-6.66957463761e-06
-6.66969225595e-06
-6.669828074e-06
-6.66996495741e-06
-6.67008985457e-06
-6.6701902102e-06
-6.67025769967e-06
-6.67028717511e-06
-6.67027640096e-06
-6.67022711596e-06
-6.67014356884e-06
-6.67003237331e-06
-6.66990373769e-06
-6.6697688979e-06
-6.6696439149e-06
-6.66957767368e-06
-6.66967959047e-06
-6.66980260438e-06
-6.66992846363e-06
-6.67004464072e-06
-6.67013860886e-06
-6.67020217142e-06
-6.67023019718e-06
-6.67022040755e-06
-6.67017456832e-06
-6.67009693763e-06
-6.66999412948e-06
-6.66987647849e-06
-6.66975465626e-06
-6.66964592193e-06
-6.66952443905e-06
-6.66961155784e-06
-6.66972185935e-06
-6.6698360253e-06
-6.66994275058e-06
-6.67002971161e-06
-6.67008891254e-06
-6.67011527444e-06
-6.67010651537e-06
-6.67006438984e-06
-6.66999313855e-06
-6.66989932463e-06
-6.6697932596e-06
-6.66968447297e-06
-6.66959121771e-06
-6.6694656497e-06
-6.669541285e-06
-6.66964160775e-06
-6.66974601517e-06
-6.66984469134e-06
-6.66992561241e-06
-6.66998098964e-06
-6.67000581623e-06
-6.66999781888e-06
-6.66995874e-06
-6.6698928034e-06
-6.66980650633e-06
-6.66971004571e-06
-6.66961158675e-06
-6.6695305346e-06
-6.66940243159e-06
-6.6694692764e-06
-6.66956164586e-06
-6.66965788911e-06
-6.66974964017e-06
-6.66982527244e-06
-6.66987724003e-06
-6.66990062338e-06
-6.66989317519e-06
-6.66985661889e-06
-6.66979514313e-06
-6.66971515237e-06
-6.66962664258e-06
-6.66953646687e-06
-6.66946507281e-06
-6.66933491227e-06
-6.66939539874e-06
-6.66948157351e-06
-6.66957119954e-06
-6.66965711934e-06
-6.66972819868e-06
-6.66977715295e-06
-6.66979919047e-06
-6.66979211308e-06
-6.66975761326e-06
-6.66969981144e-06
-6.66962498737e-06
-6.66954285235e-06
-6.66945916217e-06
-6.66939497861e-06
-6.66926588438e-06
-6.66932249449e-06
-6.66940416177e-06
-6.66948867104e-06
-6.66956981736e-06
-6.66963704363e-06
-6.66968336327e-06
-6.66970415461e-06
-6.66969729712e-06
-6.6696644305e-06
-6.66960956464e-06
-6.66953880911e-06
-6.66946150238e-06
-6.66938260181e-06
-6.66932314903e-06
-6.66919750746e-06
-6.66925252048e-06
-6.66933112755e-06
-6.66941187256e-06
-6.66948918838e-06
-6.66955316244e-06
-6.66959716105e-06
-6.66961679388e-06
-6.6696100482e-06
-6.66957848779e-06
-6.66952595502e-06
-6.66945832403e-06
-6.66938446741e-06
-6.66930886957e-06
-6.66925180367e-06
-6.66913070716e-06
-6.66918614878e-06
-6.66926287758e-06
-6.66934097912e-06
-6.66941519104e-06
-6.66947633717e-06
-6.6695182237e-06
-6.66953675409e-06
-6.66953006531e-06
-6.66949961041e-06
-6.66944899642e-06
-6.66938376982e-06
-6.6693122308e-06
-6.66923870406e-06
-6.66918199074e-06
-6.66906578879e-06
-6.66912324808e-06
-6.66919904981e-06
-6.66927538236e-06
-6.66934698525e-06
-6.66940554155e-06
-6.66944539847e-06
-6.66946285232e-06
-6.66945621818e-06
-6.66942681236e-06
-6.66937791501e-06
-6.66931462105e-06
-6.66924452323e-06
-6.66917205722e-06
-6.66911400104e-06
-6.66900176395e-06
-6.66906286179e-06
-6.66913884823e-06
-6.66921419046e-06
-6.66928351509e-06
-6.66933954628e-06
-6.66937736243e-06
-6.66939372916e-06
-6.66938720008e-06
-6.66935890051e-06
-6.66931169195e-06
-6.66925003959e-06
-6.66918060119e-06
-6.66910803906e-06
-6.66904691459e-06
-6.66893388092e-06
-6.66900224775e-06
-6.66908068252e-06
-6.66915614546e-06
-6.66922365366e-06
-6.66927734636e-06
-6.66931317553e-06
-6.6693284859e-06
-6.66932209007e-06
-6.66929489322e-06
-6.66924925006e-06
-6.66918880664e-06
-6.66911892715e-06
-6.66904395422e-06
-6.66897602043e-06
-6.66886384409e-06
-6.6689451361e-06
-6.6690257525e-06
-6.66910113724e-06
-6.66916652379e-06
-6.6692177027e-06
-6.66925149023e-06
-6.66926575011e-06
-6.66925954562e-06
-6.66923358169e-06
-6.66918972305e-06
-6.66913084563e-06
-6.66906071724e-06
-6.66898357002e-06
-6.66890315624e-06
-6.66889402508e-06
-6.66893549038e-06
-6.66900149743e-06
-6.66906274018e-06
-6.66911558386e-06
-6.6691571091e-06
-6.6691846726e-06
-6.66919652155e-06
-6.66919194639e-06
-6.6691714489e-06
-6.66913657403e-06
-6.66908968549e-06
-6.66903336962e-06
-6.66897081964e-06
-6.66893076612e-06
-6.98482612881e-06
-6.98473709642e-06
-6.98464434137e-06
-6.98455197113e-06
-6.9844702193e-06
-6.98440562576e-06
-6.98436331235e-06
-6.98434663788e-06
-6.98435719432e-06
-6.98439391999e-06
-6.98445403881e-06
-6.9845329608e-06
-6.98462432182e-06
-6.98471820437e-06
-6.9848109851e-06
-6.98475280566e-06
-6.98466598646e-06
-6.98457300334e-06
-6.98447995099e-06
-6.98439723697e-06
-6.984331839e-06
-6.98428902171e-06
-6.98427223476e-06
-6.98428314899e-06
-6.98432057627e-06
-6.98438159101e-06
-6.98446138946e-06
-6.98455327739e-06
-6.98464722041e-06
-6.98473749813e-06
-6.98481973507e-06
-6.98474499761e-06
-6.98466243088e-06
-6.98457787367e-06
-6.9845017793e-06
-6.98444113779e-06
-6.98440122035e-06
-6.98438546009e-06
-6.98439554663e-06
-6.98443025328e-06
-6.98448663687e-06
-6.98455986127e-06
-6.98464321699e-06
-6.98472666914e-06
-6.98480453972e-06
-6.9849016636e-06
-6.98483658751e-06
-6.98476299163e-06
-6.98468615082e-06
-6.9846161588e-06
-6.98455996254e-06
-6.98452279813e-06
-6.9845080521e-06
-6.98451739257e-06
-6.98454958035e-06
-6.9846016676e-06
-6.98466882463e-06
-6.98474441146e-06
-6.98481873524e-06
-6.98488663373e-06
-6.98496940179e-06
-6.98491072609e-06
-6.984843489e-06
-6.98477251095e-06
-6.98470727124e-06
-6.98465460835e-06
-6.98461966115e-06
-6.9846057731e-06
-6.98461457312e-06
-6.98464482176e-06
-6.984693572e-06
-6.98475604215e-06
-6.98482571646e-06
-6.98489346149e-06
-6.98495458803e-06
-6.98502964146e-06
-6.98497541364e-06
-6.98491299229e-06
-6.98484670699e-06
-6.98478541093e-06
-6.98473575133e-06
-6.98470273783e-06
-6.98468962787e-06
-6.98469800247e-06
-6.98472662335e-06
-6.98477257249e-06
-6.98483116251e-06
-6.98489605849e-06
-6.98495876969e-06
-6.98501502481e-06
-6.98508635269e-06
-6.9850350744e-06
-6.98497625993e-06
-6.98491376755e-06
-6.98485580596e-06
-6.9848087622e-06
-6.98477746877e-06
-6.98476507464e-06
-6.98477310125e-06
-6.9848003268e-06
-6.98484388975e-06
-6.98489924096e-06
-6.9849602699e-06
-6.98501913755e-06
-6.98507198321e-06
-6.98514014064e-06
-6.98509055358e-06
-6.98503423668e-06
-6.98497467589e-06
-6.98491942847e-06
-6.98487460109e-06
-6.98484480606e-06
-6.98483306195e-06
-6.98484080722e-06
-6.98486685648e-06
-6.98490843202e-06
-6.98496116185e-06
-6.98501919393e-06
-6.98507531055e-06
-6.98512604571e-06
-6.98519134595e-06
-6.98514226885e-06
-6.98508746749e-06
-6.98503004944e-06
-6.98497696763e-06
-6.98493400708e-06
-6.9849055188e-06
-6.98489436315e-06
-6.98490188136e-06
-6.98492694214e-06
-6.98496688748e-06
-6.98501755984e-06
-6.98507339644e-06
-6.98512774533e-06
-6.98517753e-06
-6.98524044011e-06
-6.98519091624e-06
-6.98513678951e-06
-6.9850808143e-06
-6.98502941716e-06
-6.98498801663e-06
-6.98496067805e-06
-6.98495005516e-06
-6.98495738267e-06
-6.9849815986e-06
-6.98502020602e-06
-6.98506930549e-06
-6.9851236578e-06
-6.98517711119e-06
-6.98522692414e-06
-6.98528790408e-06
-6.98523709815e-06
-6.98518290326e-06
-6.98512778046e-06
-6.98507768696e-06
-6.98503764568e-06
-6.98501135483e-06
-6.98500123594e-06
-6.98500838437e-06
-6.98503184026e-06
-6.98506931049e-06
-6.98511721466e-06
-6.9851706909e-06
-6.98522400804e-06
-6.98527471444e-06
-6.98533433701e-06
-6.98528144586e-06
-6.98522644467e-06
-6.98517162675e-06
-6.98512256461e-06
-6.98508374247e-06
-6.9850584719e-06
-6.98504883508e-06
-6.98505580402e-06
-6.98507851424e-06
-6.98511496178e-06
-6.9851619579e-06
-6.985215119e-06
-6.98526909083e-06
-6.98532155821e-06
-6.98538233799e-06
-6.98532578649e-06
-6.98526867411e-06
-6.98521334972e-06
-6.98516484389e-06
-6.98512706464e-06
-6.9851026756e-06
-6.9850935187e-06
-6.98510028855e-06
-6.98512235054e-06
-6.98515797646e-06
-6.98520450981e-06
-6.9852582029e-06
-6.98531416252e-06
-6.98537002723e-06
-6.98543314998e-06
-6.98537027273e-06
-6.98531026843e-06
-6.98525380585e-06
-6.98520559509e-06
-6.98516856905e-06
-6.98514499643e-06
-6.98513620422e-06
-6.98514284539e-06
-6.98516434237e-06
-6.98519935729e-06
-6.98524574533e-06
-6.98530060764e-06
-6.98535940976e-06
-6.98542136093e-06
-6.98543512231e-06
-6.98538389782e-06
-6.98533009262e-06
-6.98528080844e-06
-6.98523937885e-06
-6.98520780556e-06
-6.9851877149e-06
-6.98518023808e-06
-6.98518577732e-06
-6.98520396431e-06
-6.98523372506e-06
-6.98527344243e-06
-6.9853212124e-06
-6.98537382164e-06
-6.98542403842e-06
-6.14203862877e-06
-6.14210169129e-06
-6.1421703081e-06
-6.14224081346e-06
-6.14230452984e-06
-6.14235569849e-06
-6.14239013907e-06
-6.14240545162e-06
-6.14240058133e-06
-6.1423764011e-06
-6.14233500102e-06
-6.14227979215e-06
-6.14221540244e-06
-6.14214922101e-06
-6.14208356578e-06
-6.14208734271e-06
-6.14214882878e-06
-6.14221740775e-06
-6.14228808126e-06
-6.14235220384e-06
-6.14240377492e-06
-6.14243848756e-06
-6.14245383744e-06
-6.14244868576e-06
-6.14242399195e-06
-6.14238195338e-06
-6.14232613553e-06
-6.14226140978e-06
-6.14219526351e-06
-6.14213152731e-06
-6.14203389781e-06
-6.14208664225e-06
-6.14214761198e-06
-6.14221204584e-06
-6.14227123351e-06
-6.1423192285e-06
-6.14235176156e-06
-6.14236631907e-06
-6.14236173456e-06
-6.14233898445e-06
-6.14230027883e-06
-6.14224921078e-06
-6.14219066366e-06
-6.1421321621e-06
-6.14207745926e-06
-6.14197174765e-06
-6.14201768445e-06
-6.14207217065e-06
-6.14213092284e-06
-6.14218552545e-06
-6.14223015688e-06
-6.14226061322e-06
-6.14227437846e-06
-6.14227028154e-06
-6.14224929564e-06
-6.14221363231e-06
-6.14216688115e-06
-6.1421138772e-06
-6.14206193745e-06
-6.14201437841e-06
-6.14192141118e-06
-6.14196282351e-06
-6.14201266296e-06
-6.1420670305e-06
-6.14211798008e-06
-6.14215986833e-06
-6.14218858767e-06
-6.14220164723e-06
-6.1421978803e-06
-6.14217825155e-06
-6.14214495966e-06
-6.1421015547e-06
-6.1420527763e-06
-6.14200556631e-06
-6.14196285168e-06
-6.14187720687e-06
-6.14191542634e-06
-6.14196157724e-06
-6.14201219922e-06
-6.1420599072e-06
-6.14209929308e-06
-6.14212639442e-06
-6.14213876306e-06
-6.14213525349e-06
-6.14211680869e-06
-6.14208559188e-06
-6.14204506425e-06
-6.14199981846e-06
-6.14195634015e-06
-6.14191723091e-06
-6.14183552462e-06
-6.14187131646e-06
-6.14191441844e-06
-6.1419617505e-06
-6.14200648389e-06
-6.14204350401e-06
-6.14206903549e-06
-6.1420807093e-06
-6.14207741743e-06
-6.14206006835e-06
-6.14203075986e-06
-6.14199282029e-06
-6.1419506487e-06
-6.14191024083e-06
-6.14187393106e-06
-6.14179528587e-06
-6.14182927054e-06
-6.14186985904e-06
-6.14191425621e-06
-6.14195622667e-06
-6.14199098885e-06
-6.1420149891e-06
-6.1420259668e-06
-6.14202286622e-06
-6.14200654823e-06
-6.14197901574e-06
-6.14194342403e-06
-6.14190393877e-06
-6.14186606291e-06
-6.14183192505e-06
-6.14175571997e-06
-6.14178832394e-06
-6.14182683116e-06
-6.14186861985e-06
-6.14190803026e-06
-6.14194063555e-06
-6.14196313643e-06
-6.14197341932e-06
-6.14197049369e-06
-6.14195516198e-06
-6.14192930141e-06
-6.14189585694e-06
-6.14185872726e-06
-6.14182293876e-06
-6.14179049667e-06
-6.1417160006e-06
-6.14174759938e-06
-6.14178438194e-06
-6.14182385045e-06
-6.14186087488e-06
-6.14189140429e-06
-6.14191243722e-06
-6.14192202628e-06
-6.14191927209e-06
-6.14190489779e-06
-6.14188062842e-06
-6.14184916147e-06
-6.14181409394e-06
-6.14178001489e-06
-6.14174889239e-06
-6.1416755509e-06
-6.14170641058e-06
-6.14174179634e-06
-6.14177922852e-06
-6.14181402381e-06
-6.14184255515e-06
-6.14186213603e-06
-6.14187104022e-06
-6.14186845853e-06
-6.14185503527e-06
-6.14183230185e-06
-6.14180266976e-06
-6.14176939296e-06
-6.14173666996e-06
-6.14170653807e-06
-6.14163375481e-06
-6.14166426567e-06
-6.14169868392e-06
-6.14173438905e-06
-6.14176712835e-06
-6.14179371321e-06
-6.14181186797e-06
-6.14182008533e-06
-6.14181769888e-06
-6.141805228e-06
-6.14178399352e-06
-6.14175605942e-06
-6.14172426689e-06
-6.14169246403e-06
-6.14166287132e-06
-6.14158883704e-06
-6.14162001065e-06
-6.1416543475e-06
-6.14168894657e-06
-6.1417199574e-06
-6.1417448221e-06
-6.14176163274e-06
-6.14176922393e-06
-6.14176700805e-06
-6.14175542881e-06
-6.14173552563e-06
-6.14170896403e-06
-6.14167806839e-06
-6.14164627812e-06
-6.14161616e-06
-6.14153976403e-06
-6.14157349613e-06
-6.14160850566e-06
-6.14164255814e-06
-6.14167228888e-06
-6.14169569434e-06
-6.14171139436e-06
-6.14171841115e-06
-6.14171635245e-06
-6.14170550305e-06
-6.14168667058e-06
-6.14166111328e-06
-6.1416305305e-06
-6.14159801277e-06
-6.14156544441e-06
-6.14152247985e-06
-6.14154769506e-06
-6.14157712903e-06
-6.14160494382e-06
-6.14162886568e-06
-6.1416477178e-06
-6.14166043018e-06
-6.14166631072e-06
-6.14166504016e-06
-6.14165681806e-06
-6.14164223594e-06
-6.14162217942e-06
-6.1415976668e-06
-6.14157064929e-06
-6.14154674795e-06
-6.1429757967e-06
-6.14292968744e-06
-6.14288258376e-06
-6.14283595632e-06
-6.14279497751e-06
-6.1427628703e-06
-6.14274208124e-06
-6.14273426972e-06
-6.1427403227e-06
-6.14275977779e-06
-6.14279128517e-06
-6.14283250671e-06
-6.14288022206e-06
-6.14292918091e-06
-6.14297793823e-06
-6.14294186675e-06
-6.14289696136e-06
-6.14284974603e-06
-6.14280275569e-06
-6.14276128771e-06
-6.14272876917e-06
-6.14270774679e-06
-6.14269992022e-06
-6.1427061935e-06
-6.14272602694e-06
-6.14275798761e-06
-6.14279963034e-06
-6.14284756415e-06
-6.14289647399e-06
-6.14294382367e-06
-6.14298163599e-06
-6.14294310058e-06
-6.14290142406e-06
-6.14285891472e-06
-6.14282093041e-06
-6.1427908884e-06
-6.14277137228e-06
-6.14276408237e-06
-6.14276992555e-06
-6.14278833216e-06
-6.14281785445e-06
-6.14285602708e-06
-6.14289945509e-06
-6.14294279584e-06
-6.14298358062e-06
-6.14302766397e-06
-6.14299415538e-06
-6.14295713969e-06
-6.14291859825e-06
-6.1428837387e-06
-6.14285595732e-06
-6.14283784122e-06
-6.14283107393e-06
-6.14283654198e-06
-6.14285366033e-06
-6.1428809703e-06
-6.14291600755e-06
-6.14295541353e-06
-6.14299399357e-06
-6.1430296089e-06
-6.14306510601e-06
-6.14303487378e-06
-6.14300114094e-06
-6.14296560753e-06
-6.14293317684e-06
-6.14290718708e-06
-6.14289019296e-06
-6.14288386342e-06
-6.14288905817e-06
-6.14290518228e-06
-6.14293077331e-06
-6.14296339115e-06
-6.14299974585e-06
-6.14303491037e-06
-6.14306704199e-06
-6.14309816328e-06
-6.14307027872e-06
-6.14303909687e-06
-6.14300601778e-06
-6.14297565232e-06
-6.14295123631e-06
-6.14293525901e-06
-6.14292934241e-06
-6.14293431098e-06
-6.14294956377e-06
-6.14297365276e-06
-6.14300419511e-06
-6.14303800561e-06
-6.14307048466e-06
-6.14310003093e-06
-6.14312945623e-06
-6.14310332082e-06
-6.14307420124e-06
-6.1430432672e-06
-6.14301478505e-06
-6.14299184396e-06
-6.14297683258e-06
-6.14297131119e-06
-6.14297606397e-06
-6.14299049604e-06
-6.14301319274e-06
-6.14304186101e-06
-6.14307345142e-06
-6.14310371718e-06
-6.14313125289e-06
-6.14315979918e-06
-6.14313502454e-06
-6.14310757582e-06
-6.14307850845e-06
-6.14305173419e-06
-6.14303017566e-06
-6.14301608953e-06
-6.14301095204e-06
-6.1430154949e-06
-6.14302914011e-06
-6.14305052823e-06
-6.1430774835e-06
-6.14310712072e-06
-6.14313554992e-06
-6.14316150435e-06
-6.14318980079e-06
-6.14316603266e-06
-6.14313995132e-06
-6.14311253752e-06
-6.14308735122e-06
-6.1430671184e-06
-6.14305392938e-06
-6.14304916427e-06
-6.14305349291e-06
-6.14306636753e-06
-6.14308650663e-06
-6.14311187727e-06
-6.1431397822e-06
-6.14316667706e-06
-6.1431913696e-06
-6.14322001087e-06
-6.1431970412e-06
-6.14317208446e-06
-6.14314613106e-06
-6.14312242229e-06
-6.14310345331e-06
-6.14309114197e-06
-6.14308673638e-06
-6.14309084393e-06
-6.14310295505e-06
-6.1431218891e-06
-6.14314578238e-06
-6.14317214838e-06
-6.14319776117e-06
-6.1432214268e-06
-6.14325090299e-06
-6.14322851939e-06
-6.14320445221e-06
-6.14317978996e-06
-6.14315746193e-06
-6.14313973186e-06
-6.14312828449e-06
-6.14312423648e-06
-6.1431281099e-06
-6.14313945489e-06
-6.14315721183e-06
-6.14317971714e-06
-6.14320472294e-06
-6.14322928612e-06
-6.14325213352e-06
-6.14328284679e-06
-6.14326078944e-06
-6.14323734567e-06
-6.14321376767e-06
-6.14319274941e-06
-6.14317620804e-06
-6.14316563425e-06
-6.14316193023e-06
-6.14316556357e-06
-6.14317612779e-06
-6.14319272893e-06
-6.1432139361e-06
-6.14323778802e-06
-6.14326159444e-06
-6.14328390796e-06
-6.14331711824e-06
-6.14329468562e-06
-6.14327124126e-06
-6.14324836787e-06
-6.14322837805e-06
-6.14321294974e-06
-6.14320314331e-06
-6.14319978896e-06
-6.14320316846e-06
-6.14321301389e-06
-6.14322857791e-06
-6.14324871991e-06
-6.14327183489e-06
-6.14329551666e-06
-6.14331802503e-06
-6.14335444018e-06
-6.14333031181e-06
-6.14330639781e-06
-6.14328376108e-06
-6.14326460601e-06
-6.14324999511e-06
-6.1432408902e-06
-6.14323778289e-06
-6.1432409754e-06
-6.1432502104e-06
-6.143264942e-06
-6.1432842982e-06
-6.14330710728e-06
-6.14333119682e-06
-6.1433552235e-06
-6.14336885514e-06
-6.14335108766e-06
-6.14333119521e-06
-6.14331302564e-06
-6.14329786548e-06
-6.14328643514e-06
-6.14327930864e-06
-6.14327693163e-06
-6.14327945431e-06
-6.14328672869e-06
-6.14329834215e-06
-6.14331367421e-06
-6.14333203015e-06
-6.14335203822e-06
-6.14336969004e-06
-5.53262154651e-06
-5.53265458375e-06
-5.53269033388e-06
-5.53272687195e-06
-5.53275968038e-06
-5.53278578965e-06
-5.53280315942e-06
-5.53281059971e-06
-5.53280762978e-06
-5.53279476196e-06
-5.53277311049e-06
-5.53274446374e-06
-5.53271121522e-06
-5.53267720946e-06
-5.53264363238e-06
-5.53264670597e-06
-5.5326789478e-06
-5.53271470535e-06
-5.53275131746e-06
-5.53278427093e-06
-5.53281053344e-06
-5.53282801157e-06
-5.53283546162e-06
-5.5328323539e-06
-5.532819234e-06
-5.53279726838e-06
-5.53276831939e-06
-5.53273490686e-06
-5.53270092196e-06
-5.53266832658e-06
-5.53261852253e-06
-5.53264622726e-06
-5.5326779816e-06
-5.53271128593e-06
-5.53274162979e-06
-5.53276602226e-06
-5.53278236075e-06
-5.53278940029e-06
-5.53278659771e-06
-5.53277450651e-06
-5.5327542956e-06
-5.53272783831e-06
-5.53269765712e-06
-5.53266766264e-06
-5.53263976415e-06
-5.53258591361e-06
-5.53261004829e-06
-5.53263838157e-06
-5.53266867844e-06
-5.53269660573e-06
-5.53271923723e-06
-5.53273448658e-06
-5.53274111511e-06
-5.53273857736e-06
-5.53272742172e-06
-5.53270881413e-06
-5.53268462161e-06
-5.53265733878e-06
-5.53263076692e-06
-5.53260657098e-06
-5.53255951016e-06
-5.53258127988e-06
-5.53260715405e-06
-5.53263510795e-06
-5.53266109473e-06
-5.53268227985e-06
-5.5326966209e-06
-5.53270288819e-06
-5.53270053864e-06
-5.53269011038e-06
-5.53267275931e-06
-5.53265032776e-06
-5.53262525662e-06
-5.53260115309e-06
-5.53257946219e-06
-5.5325363189e-06
-5.53255641813e-06
-5.5325803162e-06
-5.53260627607e-06
-5.53263054153e-06
-5.53265040586e-06
-5.53266389615e-06
-5.53266981009e-06
-5.53266761161e-06
-5.53265782334e-06
-5.53264157765e-06
-5.53262066632e-06
-5.53259744889e-06
-5.53257529341e-06
-5.53255546792e-06
-5.53251441066e-06
-5.53253322506e-06
-5.53255548517e-06
-5.53257967918e-06
-5.53260235392e-06
-5.5326209639e-06
-5.53263363041e-06
-5.53263919324e-06
-5.53263712993e-06
-5.53262794112e-06
-5.53261272036e-06
-5.53259318508e-06
-5.53257158953e-06
-5.53255104575e-06
-5.53253266996e-06
-5.53249317534e-06
-5.53251100069e-06
-5.53253189349e-06
-5.53255451032e-06
-5.53257571364e-06
-5.53259312963e-06
-5.53260499557e-06
-5.53261020878e-06
-5.53260827036e-06
-5.53259965226e-06
-5.53258539383e-06
-5.53256711766e-06
-5.5325469512e-06
-5.53252774552e-06
-5.53251051086e-06
-5.53247215897e-06
-5.53248920738e-06
-5.53250895681e-06
-5.53253016663e-06
-5.53255000276e-06
-5.53256627741e-06
-5.53257736466e-06
-5.53258223291e-06
-5.5325804165e-06
-5.53257235097e-06
-5.53255900692e-06
-5.5325418928e-06
-5.53252299179e-06
-5.53250490351e-06
-5.5324885712e-06
-5.53245091134e-06
-5.53246734729e-06
-5.53248613036e-06
-5.53250608766e-06
-5.53252465534e-06
-5.53253984474e-06
-5.53255017548e-06
-5.53255470827e-06
-5.53255301591e-06
-5.53254549298e-06
-5.5325330266e-06
-5.53251699231e-06
-5.53249921209e-06
-5.5324820515e-06
-5.53246644624e-06
-5.53242909854e-06
-5.53244504229e-06
-5.53246303685e-06
-5.53248189442e-06
-5.53249928872e-06
-5.53251343712e-06
-5.53252303307e-06
-5.53252723885e-06
-5.53252567828e-06
-5.53251869732e-06
-5.5325070825e-06
-5.53249205677e-06
-5.53247526036e-06
-5.5324588499e-06
-5.53244380675e-06
-5.532406394e-06
-5.53242203533e-06
-5.53243946054e-06
-5.53245739151e-06
-5.53247370643e-06
-5.53248686858e-06
-5.53249574587e-06
-5.53249963999e-06
-5.53249822236e-06
-5.53249178878e-06
-5.53248100781e-06
-5.53246691969e-06
-5.53245094933e-06
-5.53243506502e-06
-5.53242036365e-06
-5.53238187385e-06
-5.53239772372e-06
-5.53241504426e-06
-5.53243237236e-06
-5.53244781897e-06
-5.53246009869e-06
-5.53246834161e-06
-5.53247194615e-06
-5.53247067897e-06
-5.53246475899e-06
-5.53245472295e-06
-5.53244140156e-06
-5.53242595037e-06
-5.5324101222e-06
-5.53239521156e-06
-5.53235502906e-06
-5.53237201642e-06
-5.53238962008e-06
-5.53240667537e-06
-5.53242147006e-06
-5.5324330785e-06
-5.53244078501e-06