/*--------------------------------*- C++ -*----------------------------------*\
  =========                 |
  \\      /  F ield         | OpenFOAM: The Open Source CFD Toolbox
   \\    /   O peration     | Website:  https://openfoam.org
    \\  /    A nd           | Version:  7
     \\/     M anipulation  |
\*---------------------------------------------------------------------------*/
FoamFile
{
    version     2.0;
    format      ascii;
    class       volScalarField;
    location    "1";
    object      p;
}
// * * * * * * * * * * * * * * * * * * * * * * * * * * * * * * * * * * * * * //

dimensions      [0 2 -2 0 0 0 0];

internalField   nonuniform List<scalar> 
22500
(
1.11905767477e-05
1.11887563599e-05
1.1188417906e-05
1.11877758222e-05
1.11873337085e-05
1.11869893965e-05
1.11867788959e-05
1.11867032359e-05
1.11867773953e-05
1.11869864449e-05
1.11873294371e-05
1.11877704903e-05
1.11884119077e-05
1.11887502226e-05
1.11905708616e-05
1.11651961923e-05
1.11620742473e-05
1.11606444364e-05
1.11590508232e-05
1.11578371185e-05
1.11569257469e-05
1.11563690435e-05
1.11561779092e-05
1.11563675609e-05
1.1156922832e-05
1.11578328988e-05
1.11590455481e-05
1.11606384884e-05
1.11620681455e-05
1.11651903167e-05
1.11407767167e-05
1.11364589327e-05
1.11340989523e-05
1.11316689312e-05
1.11297898458e-05
1.11283893101e-05
1.11275348397e-05
1.11272442354e-05
1.11275334056e-05
1.11283864922e-05
1.11297857697e-05
1.11316638365e-05
1.11340932004e-05
1.1136453008e-05
1.11407709549e-05
1.11190197732e-05
1.11137125956e-05
1.11106127332e-05
1.11075307858e-05
1.11051348095e-05
1.11033575583e-05
1.1102274527e-05
1.11019077409e-05
1.11022731549e-05
1.11033548652e-05
1.11051309167e-05
1.11075259185e-05
1.11106072285e-05
1.11137069079e-05
1.1119014199e-05
1.10987221376e-05
1.10925662254e-05
1.10888399805e-05
1.10852311392e-05
1.10824159494e-05
1.10803368596e-05
1.10790714065e-05
1.10786440644e-05
1.10790701091e-05
1.10803343152e-05
1.10824122756e-05
1.10852265471e-05
1.10888347806e-05
1.10925608316e-05
1.10987168005e-05
1.10796074236e-05
1.10727426856e-05
1.10684947437e-05
1.1064473425e-05
1.1061328854e-05
1.10590162416e-05
1.10576103488e-05
1.10571365868e-05
1.10576091296e-05
1.10590138536e-05
1.10613254091e-05
1.10644691199e-05
1.10684898629e-05
1.10727376065e-05
1.10796023556e-05
1.10617543436e-05
1.10543290162e-05
1.10496637027e-05
1.10453408239e-05
1.10419541636e-05
1.10394734682e-05
1.10379671997e-05
1.10374604544e-05
1.10379660651e-05
1.10394712485e-05
1.10419509658e-05
1.10453368299e-05
1.10496591715e-05
1.1054324281e-05
1.10617495653e-05
1.10451798489e-05
1.10373378023e-05
1.1032350786e-05
1.10278264555e-05
1.10242763681e-05
1.10216855921e-05
1.10201143237e-05
1.10195864238e-05
1.10201132733e-05
1.10216835395e-05
1.10242734152e-05
1.10278227694e-05
1.10323466021e-05
1.10373334137e-05
1.10451753739e-05
1.1029841357e-05
1.10217167724e-05
1.10164942291e-05
1.10118562484e-05
1.10082116537e-05
1.10055605855e-05
1.10039545365e-05
1.10034155508e-05
1.10039535699e-05
1.1005558699e-05
1.10082089437e-05
1.10118528684e-05
1.10164903904e-05
1.10217127276e-05
1.1029837179e-05
1.10156796641e-05
1.10073960798e-05
1.10020179205e-05
1.0997343453e-05
1.09936647159e-05
1.09909958929e-05
1.09893807221e-05
1.09888391689e-05
1.09893798351e-05
1.09909941639e-05
1.09936622348e-05
1.09973403612e-05
1.10020144079e-05
1.10073923609e-05
1.10156757759e-05
1.10026280065e-05
1.09942992985e-05
1.09888440177e-05
1.09842017054e-05
1.09805416415e-05
1.09778912408e-05
1.09762886294e-05
1.09757516981e-05
1.09762878169e-05
1.09778896578e-05
1.0980539373e-05
1.09841988789e-05
1.09888408045e-05
1.09942958757e-05
1.10026243765e-05
1.09905986309e-05
1.09823450647e-05
1.09769002278e-05
1.09723518405e-05
1.09687553453e-05
1.09661533252e-05
1.09645812485e-05
1.09640549221e-05
1.09645805034e-05
1.09661518743e-05
1.0968753265e-05
1.09723492489e-05
1.09768972767e-05
1.09823418996e-05
1.09905952258e-05
1.09794440132e-05
1.09714587293e-05
1.09661373458e-05
1.09617334707e-05
1.09582342451e-05
1.09557038489e-05
1.09541768456e-05
1.09536660863e-05
1.09541761585e-05
1.09557025087e-05
1.09582323265e-05
1.0961731075e-05
1.09661346085e-05
1.09714557672e-05
1.09794407758e-05
1.09691294759e-05
1.09616626905e-05
1.09565262443e-05
1.09522863615e-05
1.09489029373e-05
1.09464639987e-05
1.09449964576e-05
1.09445063695e-05
1.0944995816e-05
1.09464627505e-05
1.0948901142e-05
1.09522841158e-05
1.09565236668e-05
1.09616598709e-05
1.09691263623e-05
1.09608188342e-05
1.09527628119e-05
1.09478201435e-05
1.09437150524e-05
1.09404752662e-05
1.09381652519e-05
1.093678357e-05
1.09363233981e-05
1.09367829646e-05
1.09381640718e-05
1.09404735688e-05
1.09437129151e-05
1.09478176557e-05
1.09527600548e-05
1.09608157984e-05
8.25975092605e-06
8.2603975635e-06
8.26087313897e-06
8.26129893853e-06
8.26165375382e-06
8.26192106137e-06
8.26208833139e-06
8.26214517289e-06
8.26208809549e-06
8.26192055995e-06
8.26165294557e-06
8.2612978019e-06
8.26087175087e-06
8.26039606609e-06
8.25974952339e-06
8.26254296146e-06
8.26329288014e-06
8.26387434375e-06
8.26439635197e-06
8.26483278377e-06
8.26516139613e-06
8.265366818e-06
8.26543672952e-06
8.26536658209e-06
8.26516089582e-06
8.26483197823e-06
8.26439522036e-06
8.26387295439e-06
8.2632913862e-06
8.26254156195e-06
8.26565996462e-06
8.26660825696e-06
8.26735884605e-06
8.26804073781e-06
8.26861456751e-06
8.26904780674e-06
8.26931885845e-06
8.2694111995e-06
8.26931862457e-06
8.26904731676e-06
8.26861379032e-06
8.26803966079e-06
8.26735752417e-06
8.26660683393e-06
8.26565860508e-06
8.26934406686e-06
8.27063958582e-06
8.27166876674e-06
8.27260850291e-06
8.27340252704e-06
8.27400319101e-06
8.27437905895e-06
8.27450713149e-06
8.27437883004e-06
8.27400271579e-06
8.27340178214e-06
8.27260748219e-06
8.27166751884e-06
8.27063824152e-06
8.26934277101e-06
8.27396744216e-06
8.27575944595e-06
8.27717378712e-06
8.278463338e-06
8.27955261938e-06
8.28037618739e-06
8.28089085393e-06
8.28106609635e-06
8.28089063255e-06
8.28037573256e-06
8.27955191727e-06
8.27846238793e-06
8.27717263298e-06
8.27575819809e-06
8.27396621726e-06
8.27958700998e-06
8.28199243712e-06
8.28386805701e-06
8.28556952979e-06
8.28700234846e-06
8.28808312509e-06
8.2887569785e-06
8.28898614268e-06
8.28875676525e-06
8.28808269079e-06
8.2870016846e-06
8.28556864184e-06
8.2838669852e-06
8.28199128265e-06
8.27958586387e-06
8.28610326246e-06
8.2891961996e-06
8.29157379893e-06
8.29371516981e-06
8.29551041794e-06
8.29686011857e-06
8.29769930721e-06
8.29798428139e-06
8.29769910392e-06
8.29685970854e-06
8.29550979918e-06
8.2937143528e-06
8.29157281964e-06
8.28919514678e-06
8.2861021964e-06
8.29336176133e-06
8.29717131007e-06
8.30005810066e-06
8.30263558373e-06
8.30478551987e-06
8.30639577464e-06
8.30739395287e-06
8.30773238474e-06
8.30739375955e-06
8.3063953876e-06
8.30478494211e-06
8.30263482916e-06
8.30005720573e-06
8.29717035163e-06
8.2933607845e-06
8.30118590111e-06
8.30569825998e-06
8.30907218071e-06
8.3120552449e-06
8.31453030448e-06
8.31637662285e-06
8.31751755681e-06
8.31790375955e-06
8.31751737474e-06
8.31637626127e-06
8.31452977064e-06
8.31205455584e-06
8.30907137067e-06
8.30569739538e-06
8.30118500343e-06
8.30939366991e-06
8.31455710036e-06
8.31837191715e-06
8.3217095343e-06
8.32446390875e-06
8.32651007608e-06
8.3277704546e-06
8.32819637108e-06
8.3277702836e-06
8.32650973887e-06
8.32446341538e-06
8.32170890459e-06
8.31837118496e-06
8.31455632265e-06
8.3093928561e-06
8.3178095296e-06
8.32354023124e-06
8.32773076324e-06
8.33135825033e-06
8.33433563947e-06
8.33653801057e-06
8.33789010119e-06
8.3383462072e-06
8.33788994215e-06
8.33653769848e-06
8.33433518739e-06
8.33135767806e-06
8.32773010351e-06
8.32353953253e-06
8.31780878388e-06
8.32626352971e-06
8.33245370005e-06
8.33694372669e-06
8.34079123332e-06
8.34393108556e-06
8.34624285114e-06
8.34765704103e-06
8.34813318765e-06
8.34765689409e-06
8.34624256443e-06
8.34393067221e-06
8.34079071467e-06
8.33694313332e-06
8.33245307153e-06
8.32626285088e-06
8.33458673523e-06
8.34112613057e-06
8.34584059465e-06
8.34983892081e-06
8.35307944098e-06
8.35545238962e-06
8.35689822936e-06
8.35738401133e-06
8.35689809429e-06
8.35545212684e-06
8.35307906575e-06
8.34983845225e-06
8.34584005928e-06
8.3411255616e-06
8.33458610423e-06
8.34275637134e-06
8.34955223456e-06
8.35436918747e-06
8.35842250522e-06
8.36167769221e-06
8.36404613798e-06
8.36548313679e-06
8.36596487284e-06
8.36548301239e-06
8.3640458966e-06
8.36167734778e-06
8.35842207774e-06
8.35436870519e-06
8.34955171527e-06
8.34275578411e-06
8.35150758951e-06
8.35780182952e-06
8.36250163849e-06
8.36645886854e-06
8.36959415313e-06
8.37185914737e-06
8.37322768575e-06
8.37368550609e-06
8.37322756878e-06
8.37185892467e-06
8.36959383798e-06
8.36645848214e-06
8.36250119563e-06
8.35780135142e-06
8.35150704303e-06
8.91924807777e-06
8.9190587034e-06
8.91883722253e-06
8.91859247139e-06
8.91836599931e-06
8.91818429658e-06
8.918067137e-06
8.91802641047e-06
8.91806682897e-06
8.91818371211e-06
8.91836520345e-06
8.91859153677e-06
8.91883616278e-06
8.91905760313e-06
8.91924698565e-06
8.91948886374e-06
8.91931474688e-06
8.91910514999e-06
8.9188703736e-06
8.91865131106e-06
8.91847452469e-06
8.9183600556e-06
8.91832015051e-06
8.91835975318e-06
8.91847394905e-06
8.91865052222e-06
8.91886943895e-06
8.91910409317e-06
8.91931364269e-06
8.91948777427e-06
8.91993994085e-06
8.91979099461e-06
8.91960563777e-06
8.919390314e-06
8.91918644521e-06
8.91902031624e-06
8.91891211334e-06
8.91887427075e-06
8.91891182954e-06
8.91901977449e-06
8.91918569815e-06
8.91938942389e-06
8.91960463827e-06
8.9197899425e-06
8.91993889058e-06
8.9202719982e-06
8.92013348403e-06
8.91996120928e-06
8.91975585858e-06
8.91955978099e-06
8.91939909747e-06
8.91929408964e-06
8.91925731015e-06
8.9192938278e-06
8.91939859596e-06
8.9195590837e-06
8.91975501981e-06
8.91996026633e-06
8.92013249103e-06
8.92027099755e-06
8.92047291249e-06
8.92033653087e-06
8.92017118041e-06
8.91997168538e-06
8.91978088715e-06
8.91962431761e-06
8.91952190466e-06
8.91948602648e-06
8.91952166808e-06
8.91962386329e-06
8.91978025274e-06
8.91997091859e-06
8.92017031812e-06
8.92033561915e-06
8.92047197533e-06
8.92060060276e-06
8.9204677162e-06
8.92031101443e-06
8.92012049795e-06
8.91993861104e-06
8.91978946638e-06
8.91969194575e-06
8.91965779015e-06
8.91969173379e-06
8.91978905856e-06
8.91993803832e-06
8.92011980143e-06
8.92031022821e-06
8.92046688068e-06
8.92059973856e-06
8.92069958975e-06
8.92057799758e-06
8.92043640151e-06
8.92026208654e-06
8.92009605303e-06
8.91996004432e-06
8.91987116774e-06
8.91984004497e-06
8.9198709815e-06
8.91995968564e-06
8.92009554793e-06
8.9202614701e-06
8.92043570448e-06
8.92057724921e-06
8.92069880164e-06
8.920803778e-06
8.92070518548e-06
8.92058750234e-06
8.92043825863e-06
8.92029613827e-06
8.92017965754e-06
8.92010353187e-06
8.92007686047e-06
8.92010336976e-06
8.920179345e-06
8.92029569692e-06
8.92043771713e-06
8.92058688782e-06
8.92070452075e-06
8.92080306903e-06
8.92094072769e-06
8.92087826091e-06
8.92079366828e-06
8.92067805148e-06
8.92056732045e-06
8.92047614009e-06
8.92041640986e-06
8.92039543797e-06
8.92041627077e-06
8.92047587179e-06
8.92056694111e-06
8.92067758469e-06
8.92079313589e-06
8.92087767959e-06
8.92094009392e-06
8.92113069647e-06
8.92111646405e-06
8.92107273475e-06
8.92099739882e-06
8.9209236491e-06
8.92086197985e-06
8.92082125682e-06
8.92080687062e-06
8.92082113823e-06
8.92086175125e-06
8.9209233253e-06
8.92099699919e-06
8.92107227689e-06
8.92111595936e-06
8.92113013953e-06
8.92138569605e-06
8.92142862371e-06
8.92143077279e-06
8.92139952832e-06
8.92136579378e-06
8.92133584625e-06
8.92131546002e-06
8.92130810437e-06
8.92131535951e-06
8.92133565252e-06
8.92136551969e-06
8.92139918907e-06
8.92143038279e-06
8.92142818854e-06
8.9213852075e-06
8.92170748224e-06
8.92181227987e-06
8.92186232571e-06
8.92187626505e-06
8.92188323866e-06
8.92188545279e-06
8.92188562208e-06
8.9218853592e-06
8.92188553692e-06
8.92188528886e-06
8.92188300613e-06
8.92187597748e-06
8.92186199391e-06
8.92181190677e-06
8.92170705824e-06
8.92209026008e-06
8.92225868508e-06
8.92235581088e-06
8.92241298749e-06
8.92245905797e-06
8.92249224961e-06
8.92251219716e-06
8.92251875561e-06
8.92251212402e-06
8.92249210806e-06
8.92245885914e-06
8.92241274049e-06
8.92235552576e-06
8.92225836158e-06
8.92208988726e-06
8.92256967017e-06
8.92279910971e-06
8.92292107845e-06
8.9230070597e-06
8.92308153233e-06
8.92313795287e-06
8.92317287966e-06
8.92318461547e-06
8.92317281387e-06
8.92313782764e-06
8.92308135418e-06
8.92300684069e-06
8.92292082638e-06
8.92279882322e-06
8.92256934e-06
8.92337560519e-06
8.92346310093e-06
8.92355011718e-06
8.92363028477e-06
8.92370760248e-06
8.92376858582e-06
8.92380694601e-06
8.92381994194e-06
8.92380688473e-06
8.9237684683e-06
8.92370743796e-06
8.92363008184e-06
8.92354988388e-06
8.92346283865e-06
8.9233753009e-06
7.56301732423e-06
7.56315882975e-06
7.56332793005e-06
7.56349901539e-06
7.56365295814e-06
7.56377372288e-06
7.56385074864e-06
7.56387738635e-06
7.56385105276e-06
7.56377426964e-06
7.56365362859e-06
7.56349963556e-06
7.56332835565e-06
7.56315895348e-06
7.56301721989e-06
7.56315924686e-06
7.56330071246e-06
7.56347219003e-06
7.56364608156e-06
7.563803285e-06
7.56392701052e-06
7.56400611383e-06
7.56403351854e-06
7.56400640992e-06
7.5639275425e-06
7.56380393679e-06
7.56364668643e-06
7.563472601e-06
7.56330083363e-06
7.563159137e-06
7.56315840629e-06
7.56328959568e-06
7.56345302655e-06
7.56362022856e-06
7.56377285375e-06
7.5638936358e-06
7.56397114109e-06
7.56399804376e-06
7.56397141438e-06
7.56389412757e-06
7.56377345873e-06
7.56362079881e-06
7.56345342205e-06
7.56328972942e-06
7.56315830609e-06
7.56314274064e-06
7.56326563024e-06
7.56342247388e-06
7.56358311e-06
7.56373089027e-06
7.56384833463e-06
7.56392391671e-06
7.56395018558e-06
7.56392416404e-06
7.56384877902e-06
7.56373143588e-06
7.56358362583e-06
7.56342283407e-06
7.56326575327e-06
7.5631426494e-06
7.56313890487e-06
7.56325528902e-06
7.56340738067e-06
7.56356198153e-06
7.56370497428e-06
7.56381892886e-06
7.56389241321e-06
7.56391797372e-06
7.5638926314e-06
7.56381932083e-06
7.56370545723e-06
7.56356244194e-06
7.5634077093e-06
7.56325540548e-06
7.56313882216e-06
7.5631360602e-06
7.56324619283e-06
7.56339414955e-06
7.56354244002e-06
7.56368013021e-06
7.56379006956e-06
7.56386107352e-06
7.56388578602e-06
7.56386126345e-06
7.56379041003e-06
7.56368054776e-06
7.56354283698e-06
7.56339443041e-06
7.56324629001e-06
7.56313597894e-06
7.56312857683e-06
7.56323277089e-06
7.56337723664e-06
7.56351925636e-06
7.56365147397e-06
7.56375718941e-06
7.56382554245e-06
7.56384934091e-06
7.56382570365e-06
7.56375747849e-06
7.56365182867e-06
7.56351959526e-06
7.56337747804e-06
7.56323285482e-06
7.56312850129e-06
7.56311703279e-06
7.56321649586e-06
7.56335866917e-06
7.56349517923e-06
7.56362240234e-06
7.56372421327e-06
7.56379008782e-06
7.56381302566e-06
7.56379022249e-06
7.56372445416e-06
7.5636226965e-06
7.56349545844e-06
7.56335886619e-06
7.56321655952e-06
7.56311696559e-06
7.56310420469e-06
7.56320120439e-06
7.56334279189e-06
7.56347517411e-06
7.56359841326e-06
7.563697055e-06
7.56376088685e-06
7.56378310741e-06
7.56376099736e-06
7.56369725258e-06
7.56359865478e-06
7.56347540372e-06
7.56334295414e-06
7.56320125496e-06
7.56310414475e-06
7.56309377527e-06
7.56319160052e-06
7.56333453206e-06
7.56346443907e-06
7.56358491449e-06
7.56368127256e-06
7.56374358742e-06
7.56376526303e-06
7.56374367654e-06
7.56368143196e-06
7.56358510833e-06
7.56346462295e-06
7.5633346614e-06
7.56319163936e-06
7.56309372818e-06
7.56308985297e-06
7.56319252236e-06
7.5633385316e-06
7.56346744389e-06
7.56358622498e-06
7.56368105724e-06
7.5637422897e-06
7.5637635598e-06
7.56374236102e-06
7.56368118463e-06
7.56358638039e-06
7.56346759096e-06
7.56333863574e-06
7.56319255196e-06
7.56308981597e-06
7.56309514725e-06
7.56320718544e-06
7.56335766448e-06
7.56348678009e-06
7.56360474832e-06
7.56369865003e-06
7.56375912328e-06
7.56378008436e-06
7.56375917942e-06
7.5636987514e-06
7.56360486987e-06
7.56348689673e-06
7.56335774769e-06
7.5632072105e-06
7.56309512388e-06
7.56311014852e-06
7.56323632086e-06
7.56339246155e-06
7.56352286934e-06
7.56364106499e-06
7.5637347619e-06
7.56379484674e-06
7.56381561113e-06
7.56379489113e-06
7.56373483856e-06
7.56364116092e-06
7.56352295857e-06
7.56339252804e-06
7.56323634134e-06
7.56311013536e-06
7.56315871814e-06
7.56330322927e-06
7.56345616273e-06
7.56358330375e-06
7.563698918e-06
7.56379023548e-06
7.56384849397e-06
7.56386854714e-06
7.56384852621e-06
7.56379029535e-06
7.56369898742e-06
7.56358337266e-06
7.56345621464e-06
7.56330325018e-06
7.56315871443e-06
7.56343527589e-06
7.5635072808e-06
7.56360770014e-06
7.56369766549e-06
7.56378495645e-06
7.56385484487e-06
7.56389954606e-06
7.56391493645e-06
7.56389957233e-06
7.56385489017e-06
7.563785013e-06
7.56369772118e-06
7.56360774764e-06
7.56350730597e-06
7.56343528537e-06
7.45812496031e-06
7.45804574469e-06
7.457955375e-06
7.45785784329e-06
7.45776882194e-06
7.45769764633e-06
7.45765182753e-06
7.4576358845e-06
7.45765161115e-06
7.45769723255e-06
7.45776824237e-06
7.45785710981e-06
7.45795447875e-06
7.45804472068e-06
7.45812380609e-06
7.45816758769e-06
7.45809313665e-06
7.45800590721e-06
7.45791062605e-06
7.45782303042e-06
7.45775263408e-06
7.4577071568e-06
7.45769129452e-06
7.45770694478e-06
7.45775222809e-06
7.4578224604e-06
7.45790990285e-06
7.45800502146e-06
7.45809211884e-06
7.4581664444e-06
7.45829745641e-06
7.45823258849e-06
7.45815429556e-06
7.45806592311e-06
7.45798360479e-06
7.45791680567e-06
7.4578734121e-06
7.45785822982e-06
7.45787321055e-06
7.45791641674e-06
7.45798305379e-06
7.45806522588e-06
7.45815345267e-06
7.45823161559e-06
7.45829636193e-06
7.45841093956e-06
7.45835177435e-06
7.45827980648e-06
7.45819615859e-06
7.45811742016e-06
7.45805301216e-06
7.45801098139e-06
7.45799624454e-06
7.458010792e-06
7.45805264493e-06
7.45811689531e-06
7.45819549144e-06
7.45827900201e-06
7.45835084702e-06
7.4584098967e-06
7.45849554012e-06
7.45843876031e-06
7.45837063036e-06
7.45828974676e-06
7.45821311962e-06
7.45815010393e-06
7.45810885148e-06
7.45809437049e-06
7.4581086755e-06
7.45814976098e-06
7.45821262705e-06
7.45828912133e-06
7.45836988122e-06
7.45843789706e-06
7.45849456192e-06
7.45856117397e-06
7.45850509697e-06
7.45843961367e-06
7.45836064477e-06
7.45828559375e-06
7.45822368854e-06
7.45818308556e-06
7.45816882557e-06
7.45818292335e-06
7.45822337163e-06
7.4582851362e-06
7.45836006175e-06
7.45843891475e-06
7.45850428933e-06
7.45856026378e-06
7.45861381966e-06
7.45855769434e-06
7.45849442396e-06
7.45841720252e-06
7.4583437666e-06
7.4582831329e-06
7.45824333294e-06
7.45822935706e-06
7.45824318492e-06
7.45828284319e-06
7.45834334709e-06
7.4584166678e-06
7.45849378468e-06
7.45855695121e-06
7.45861298001e-06
7.45865707943e-06
7.45860092927e-06
7.45854001058e-06
7.45846488939e-06
7.45839355434e-06
7.45833470538e-06
7.45829608937e-06
7.4582825392e-06
7.45829595544e-06
7.45833444283e-06
7.45839317276e-06
7.45846440073e-06
7.45853942483e-06
7.45860024501e-06
7.45865630912e-06
7.45869458805e-06
7.45863915069e-06
7.45858123051e-06
7.45850902843e-06
7.45844068087e-06
7.45838444111e-06
7.45834758801e-06
7.45833467245e-06
7.45834746756e-06
7.45838420445e-06
7.45844033624e-06
7.45850858585e-06
7.45858069867e-06
7.45863852614e-06
7.45869388437e-06
7.45873013055e-06
7.45867675745e-06
7.45862283101e-06
7.45855467241e-06
7.45849047354e-06
7.45843788658e-06
7.45840351838e-06
7.45839149456e-06
7.45840341027e-06
7.45843767403e-06
7.45849016268e-06
7.45855427175e-06
7.45862234729e-06
7.45867618662e-06
7.45872949342e-06
7.45876721648e-06
7.45871763296e-06
7.45866878595e-06
7.45860589144e-06
7.45854712945e-06
7.45849935396e-06
7.45846826669e-06
7.45845741824e-06
7.45846816922e-06
7.45849916198e-06
7.4585468486e-06
7.45860552817e-06
7.45866834678e-06
7.45871711192e-06
7.4587666406e-06
7.45880842218e-06
7.45876439123e-06
7.45872152438e-06
7.4586650538e-06
7.45861307834e-06
7.4585713453e-06
7.45854438715e-06
7.45853501209e-06
7.45854429824e-06
7.45857117017e-06
7.45861282089e-06
7.45866472227e-06
7.45872112295e-06
7.45876391566e-06
7.45880790445e-06
7.45885665063e-06
7.45881906829e-06
7.45878229709e-06
7.45873300958e-06
7.45868907498e-06
7.45865459114e-06
7.45863258041e-06
7.45862497164e-06
7.45863249732e-06
7.4586544259e-06
7.4586888358e-06
7.45873269908e-06
7.45878192543e-06
7.45881862968e-06
7.45885618422e-06
7.4589243396e-06
7.45889242943e-06
7.45885712171e-06
7.45881312586e-06
7.45877667405e-06
7.45874916541e-06
7.45873195125e-06
7.45872604477e-06
7.45873186943e-06
7.45874900678e-06
7.45877644029e-06
7.45881283004e-06
7.45885676635e-06
7.45889201802e-06
7.45892391382e-06
7.45905188122e-06
7.45899645456e-06
7.45894913465e-06
7.45890386462e-06
7.45887032779e-06
7.45884620911e-06
7.45883145438e-06
7.45882644901e-06
7.45883137328e-06
7.4588460493e-06
7.45887009786e-06
7.45890357008e-06
7.4589487902e-06
7.45899605867e-06
7.45905147395e-06
6.62305895135e-06
6.62310972584e-06
6.62316944775e-06
6.62323094582e-06
6.62328661769e-06
6.62333057511e-06
6.62335871668e-06
6.6233684689e-06
6.62335883131e-06
6.62333075351e-06
6.6232867681e-06
6.62323096775e-06
6.62316926115e-06
6.62310926294e-06
6.62305827745e-06
6.62310581036e-06
6.62315645369e-06
6.62321688895e-06
6.62327925404e-06
6.62333594526e-06
6.62338084379e-06
6.62340965126e-06
6.62341965075e-06
6.62340976252e-06
6.62338101714e-06
6.62333609249e-06
6.6232792747e-06
6.62321670195e-06
6.62315599898e-06
6.6231051421e-06
6.62310222737e-06
6.62314933522e-06
6.62320685982e-06
6.62326691222e-06
6.62332200475e-06
6.62336588195e-06
6.62339413412e-06
6.62340395542e-06
6.62339422642e-06
6.62336602256e-06
6.62332211585e-06
6.62326690634e-06
6.62320666374e-06
6.62314889647e-06
6.62310157554e-06
6.62309446994e-06
6.62313912313e-06
6.62319444823e-06
6.62325252674e-06
6.62330620796e-06
6.62334915604e-06
6.62337688972e-06
6.62338653918e-06
6.62337696252e-06
6.62334926246e-06
6.6233062789e-06
6.62325248449e-06
6.62319422871e-06
6.62313868094e-06
6.62309383641e-06
6.62309286123e-06
6.62313612449e-06
6.62319014944e-06
6.6232467657e-06
6.62329934492e-06
6.62334153067e-06
6.6233688228e-06
6.62337832017e-06
6.62336887249e-06
6.62334159656e-06
6.62329936956e-06
6.62324668476e-06
6.62318991027e-06
6.62313568436e-06
6.62309224584e-06
6.62309398083e-06
6.62313627826e-06
6.62318935423e-06
6.62324458181e-06
6.62329601271e-06
6.62333734382e-06
6.62336411447e-06
6.62337342961e-06
6.62336414427e-06
6.62333737447e-06
6.62329599483e-06
6.62324446064e-06
6.62318908579e-06
6.62313583083e-06
6.62309337902e-06
6.62309552729e-06
6.6231370276e-06
6.62318927315e-06
6.62324303456e-06
6.62329314935e-06
6.62333344409e-06
6.62335955512e-06
6.62336863622e-06
6.62335956443e-06
6.62333343924e-06
6.62329309047e-06
6.62324287821e-06
6.62318898484e-06
6.62313658047e-06
6.62309494446e-06
6.62309676306e-06
6.62313758259e-06
6.62318902748e-06
6.62324118681e-06
6.62328977408e-06
6.62332882593e-06
6.62335412814e-06
6.6233629215e-06
6.62335412052e-06
6.62332879141e-06
6.62328967969e-06
6.62324099763e-06
6.62318871712e-06
6.62313713144e-06
6.62309620244e-06
6.62309731366e-06
6.62313755398e-06
6.6231881744e-06
6.62323857642e-06
6.62328541575e-06
6.62332301807e-06
6.62334736269e-06
6.62335581482e-06
6.62334734052e-06
6.62332295833e-06
6.62328529336e-06
6.62323836427e-06
6.62318785266e-06
6.62313710775e-06
6.62309677556e-06
6.62309697426e-06
6.62313681426e-06
6.62318655225e-06
6.62323502262e-06
6.62327988515e-06
6.6233158313e-06
6.62333907507e-06
6.62334713464e-06
6.62333904096e-06
6.62331575158e-06
6.62327973953e-06
6.62323479166e-06
6.62318622171e-06
6.6231363743e-06
6.62309646462e-06
6.62309582927e-06
6.62313556201e-06
6.62318432695e-06
6.62323067436e-06
6.62327332948e-06
6.62330742237e-06
6.62332942769e-06
6.62333704637e-06
6.62332938472e-06
6.6233073276e-06
6.62327316869e-06
6.62323043221e-06
6.62318399527e-06
6.62313513219e-06
6.62309534622e-06
6.62309393226e-06
6.62313406194e-06
6.62318180055e-06
6.62322588181e-06
6.62326616967e-06
6.62329826327e-06
6.62331893019e-06
6.62332606947e-06
6.62331887978e-06
6.62329815789e-06
6.6232659952e-06
6.62322563309e-06
6.6231814705e-06
6.62313364628e-06
6.62309347899e-06
6.62309106546e-06
6.62313235333e-06
6.62317917744e-06
6.62322105038e-06
6.62325903736e-06
6.62328918246e-06
6.62330851484e-06
6.62331517765e-06
6.62330846001e-06
6.62328906472e-06
6.62325885645e-06
6.62322079353e-06
6.62317885172e-06
6.62313195191e-06
6.62309063994e-06
6.62309323483e-06
6.62313669572e-06
6.62318050752e-06
6.62321903755e-06
6.62325401775e-06
6.62328163688e-06
6.62329926469e-06
6.62330531112e-06
6.62329920341e-06
6.62328151509e-06
6.62325382484e-06
6.62321878111e-06
6.62318018437e-06
6.6231363122e-06
6.62309283501e-06
6.62315452282e-06
6.62317775992e-06
6.62320542335e-06
6.62323117725e-06
6.62325577244e-06
6.62327536838e-06
6.62328787052e-06
6.6232921504e-06
6.62328780951e-06
6.62327524271e-06
6.62325558322e-06
6.6232309231e-06
6.62320511543e-06
6.6231773935e-06
6.62315414643e-06
6.22829910788e-06
6.22827328702e-06
6.22824306583e-06
6.22821016768e-06
6.22817996703e-06
6.22815575851e-06
6.22814012708e-06
6.2281346118e-06
6.2281398098e-06
6.22815512186e-06
6.22817901575e-06
6.2282089354e-06
6.22824163231e-06
6.22827179508e-06
6.22829762867e-06
6.22831537593e-06
6.22829116642e-06
6.22826205099e-06
6.22822996273e-06
6.22820027874e-06
6.22817635321e-06
6.22816084689e-06
6.22815536302e-06
6.22816053572e-06
6.22817572961e-06
6.22819934845e-06
6.22822875961e-06
6.22826065221e-06
6.22828969945e-06
6.22831391525e-06
6.22835898758e-06
6.22833785822e-06
6.22831161786e-06
6.22828175931e-06
6.22825377337e-06
6.22823100212e-06
6.22821616052e-06
6.22821089539e-06
6.22821586239e-06
6.22823040636e-06
6.22825288792e-06
6.22828061551e-06
6.2283102858e-06
6.2283364475e-06
6.22835757779e-06
6.22839652178e-06
6.22837716818e-06
6.22835290293e-06
6.22832453077e-06
6.22829766808e-06
6.2282756438e-06
6.22826122499e-06
6.22825610072e-06
6.22826094235e-06
6.22827508042e-06
6.22829683382e-06
6.22832345547e-06
6.2283516484e-06
6.22837582779e-06
6.2283951685e-06
6.22842439386e-06
6.22840575679e-06
6.22838265665e-06
6.22835514293e-06
6.22832893852e-06
6.22830735024e-06
6.22829317601e-06
6.22828813633e-06
6.22829291306e-06
6.22830682765e-06
6.22832816669e-06
6.22835414916e-06
6.22838149281e-06
6.22840450332e-06
6.22842311333e-06
6.22844606699e-06
6.22842763592e-06
6.22840531813e-06
6.22837841428e-06
6.22835271624e-06
6.22833148889e-06
6.22831752729e-06
6.22831256468e-06
6.22831728461e-06
6.22833100769e-06
6.22835200773e-06
6.22837750327e-06
6.22840424835e-06
6.22842646976e-06
6.22844486671e-06
6.22846359112e-06
6.22844514496e-06
6.22842346158e-06
6.22839712126e-06
6.22837194621e-06
6.22835113381e-06
6.22833743591e-06
6.22833257174e-06
6.22833721518e-06
6.22835069672e-06
6.22837130362e-06
6.22839629429e-06
6.22842248651e-06
6.22844406972e-06
6.22846247082e-06
6.2284781466e-06
6.22845968037e-06
6.22843863289e-06
6.22841294772e-06
6.22838842871e-06
6.22836817325e-06
6.22835484519e-06
6.22835011878e-06
6.22835464554e-06
6.22836777843e-06
6.228387849e-06
6.22841220118e-06
6.22843774809e-06
6.22845869175e-06
6.22847710491e-06
6.22849081337e-06
6.22847249974e-06
6.2284522124e-06
6.22842738222e-06
6.22840374271e-06
6.22838425607e-06
6.2283714492e-06
6.22836691513e-06
6.22837126935e-06
6.2283839006e-06
6.22840322024e-06
6.22842670773e-06
6.22845140814e-06
6.2284715902e-06
6.22848984346e-06
6.22850261739e-06
6.22848475833e-06
6.22846543063e-06
6.22844172308e-06
6.2284192501e-06
6.22840079597e-06
6.22838869404e-06
6.22838441816e-06
6.22838853198e-06
6.22840047526e-06
6.22841877866e-06
6.22844111234e-06
6.22846469733e-06
6.22848391754e-06
6.22850171381e-06
6.22851441965e-06
6.2284973756e-06
6.22847923181e-06
6.22845693794e-06
6.22843595286e-06
6.22841882488e-06
6.22840763388e-06
6.22840368854e-06
6.2284074862e-06
6.2284185328e-06
6.2284355223e-06
6.22845637881e-06
6.22847855635e-06
6.22849659351e-06
6.22851357366e-06
6.22852675504e-06
6.22851087816e-06
6.22849411167e-06
6.22847352011e-06
6.22845437136e-06
6.22843889825e-06
6.22842884526e-06
6.22842531183e-06
6.22842870862e-06
6.22843862688e-06
6.22845397265e-06
6.22847300042e-06
6.22849348137e-06
6.22851014322e-06
6.22852596166e-06
6.22854016458e-06
6.2285256539e-06
6.22851030181e-06
6.22849160609e-06
6.22847463117e-06
6.22846114107e-06
6.22845246195e-06
6.22844942019e-06
6.2284523315e-06
6.228460885e-06
6.22847425166e-06
6.22849111315e-06
6.22850970298e-06
6.22852495533e-06
6.22853941754e-06
6.22855758559e-06
6.22854425939e-06
6.22852916794e-06
6.22851192227e-06
6.22849702847e-06
6.22848552868e-06
6.22847823264e-06
6.22847569069e-06
6.22847810591e-06
6.22848527641e-06
6.22849665891e-06
6.22851144068e-06
6.2285285843e-06
6.22854358037e-06
6.22855687021e-06
6.22858801123e-06
6.22856751245e-06
6.22854987061e-06
6.22853293541e-06
6.22851946199e-06
6.22850943647e-06
6.22850319345e-06
6.22850103004e-06
6.2285030642e-06
6.22850918254e-06
6.22851908831e-06
6.22853245089e-06
6.22854928957e-06
6.22856684191e-06
6.22858730556e-06
5.60309082919e-06
5.60310407315e-06
5.60312052093e-06
5.60313790887e-06
5.60315392099e-06
5.60316670575e-06
5.60317496562e-06
5.60317789644e-06
5.60317519665e-06
5.60316715335e-06
5.60315454552e-06
5.60313863008e-06
5.60312120714e-06
5.60310454061e-06
5.60309096165e-06
5.60310312652e-06
5.60311641873e-06
5.60313310372e-06
5.60315076149e-06
5.60316708168e-06
5.60318014884e-06
5.60318860809e-06
5.60319161178e-06
5.6031888363e-06
5.60318059063e-06
5.60316769823e-06
5.60315147292e-06
5.60313378095e-06
5.60311688693e-06
5.60310326205e-06
5.60310426821e-06
5.60311689559e-06
5.60313305037e-06
5.6031502969e-06
5.60316636098e-06
5.6031792844e-06
5.6031876775e-06
5.6031906614e-06
5.60318789835e-06
5.60317971136e-06
5.60316695656e-06
5.6031509879e-06
5.60313371735e-06
5.60311737753e-06
5.60310442758e-06
5.60310479534e-06
5.60311706694e-06
5.60313289166e-06
5.60314982891e-06
5.60316569689e-06
5.6031785095e-06
5.60318685067e-06
5.60318981724e-06
5.60318706194e-06
5.60317891742e-06
5.60316626565e-06
5.60315048958e-06
5.6031335349e-06
5.6031175437e-06
5.60310497917e-06
5.60310701579e-06
5.60311920073e-06
5.6031349255e-06