/*--------------------------------*- C++ -*----------------------------------*\
  =========                 |
  \\      /  F ield         | OpenFOAM: The Open Source CFD Toolbox
   \\    /   O peration     | Website:  https://openfoam.org
    \\  /    A nd           | Version:  7
     \\/     M anipulation  |
\*---------------------------------------------------------------------------*/
FoamFile
{
    version     2.0;
    format      ascii;
    class       surfaceScalarField;
    location    "1";
    object      phi;
}
// * * * * * * * * * * * * * * * * * * * * * * * * * * * * * * * * * * * * * //

dimensions      [0 3 -1 0 0 0 0];

internalField   nonuniform List<scalar> 
65775
(
1.68861894862e-11
2.94053178355e-09
4.28717577601e-10
4.13281931979e-15
2.5294555713e-11
3.07867639788e-09
4.74384420589e-10
2.98065242576e-11
3.19694320094e-09
5.17726398207e-10
2.91321560358e-11
3.29901098513e-09
5.56649567106e-10
2.42362832911e-11
3.38030121029e-09
5.8918877085e-10
1.59707366568e-11
3.43975069487e-09
6.13732520145e-10
5.57762490721e-12
3.47709584181e-09
6.29223093344e-10
-5.56871567247e-12
3.49123698501e-09
6.34790115092e-10
-1.59621757844e-11
3.47709338875e-09
6.29223101187e-10
-2.42285490918e-11
3.4397456684e-09
6.13732538266e-10
-2.91258425473e-11
3.38029371003e-09
5.89188801149e-10
-2.9802133566e-11
3.29900160185e-09
5.56649610133e-10
-2.52922280549e-11
3.19693317757e-09
5.17726465796e-10
-1.68853869481e-11
3.07866731769e-09
4.74384630229e-10
2.94052622785e-09
4.28718489136e-10
3.44479489251e-15
4.52777366192e-11
5.03854173201e-09
1.08265999131e-09
1.55733720246e-14
7.48707630999e-11
5.25635351791e-09
1.1933614445e-09
8.84572938884e-11
5.44315707327e-09
1.29755995315e-09
8.71529115989e-11
5.6018487413e-09
1.39051100361e-09
7.26758896794e-11
5.72759530166e-09
1.46778385836e-09
4.79552653463e-11
5.81900752664e-09
1.52582764272e-09
1.67334620497e-11
5.87636595897e-09
1.56236742972e-09
-1.67011195015e-11
5.89820003969e-09
1.5754851529e-09
-4.79243918143e-11
5.87636058407e-09
1.56236742002e-09
-7.26483465292e-11
5.81899676718e-09
1.52582763183e-09
-8.71309005235e-11
5.72757941764e-09
1.46778385615e-09
-8.84426968885e-11
5.60182879922e-09
1.39051101847e-09
-7.48641312054e-11
5.44313528864e-09
1.29756002848e-09
-4.52777328537e-11
5.25633348968e-09
1.19336191627e-09
5.03852845407e-09
1.08266208212e-09
1.05649794284e-14
6.96360824844e-11
6.46068484946e-09
1.57398506493e-09
1.67171554502e-14
1.16857787109e-10
6.7163225521e-09
1.73259303952e-09
1.37869590329e-10
6.93670356683e-09
1.88096874081e-09
1.3572853161e-10
7.12038071248e-09
2.01270092324e-09
1.13050305674e-10
7.26508478096e-09
2.1217881656e-09
7.45246290275e-11
7.36954807436e-09
2.20348918923e-09
2.59801038491e-11
7.4350030778e-09
2.25480892063e-09
-2.59430783228e-11
7.46007091156e-09
2.27319604495e-09
-7.44892173536e-11
7.43499567768e-09
2.25480897262e-09
-1.13018467994e-10
7.36953332222e-09
2.20348929301e-09
-1.35702540201e-10
7.26506319033e-09
2.12178831218e-09
-1.37851378062e-10
7.12035386811e-09
2.01270109361e-09
-1.16847946993e-10
6.93667424751e-09
1.88096895997e-09
-6.96334409235e-11
6.71629501984e-09
1.73259372869e-09
6.46066489149e-09
1.57398783459e-09
1.35822208572e-14
9.11532773492e-11
7.33525863725e-09
1.93985395533e-09
1.79242803197e-14
1.52679108915e-10
7.59948731402e-09
2.13424758633e-09
1.79943443502e-10
7.8281184977e-09
2.31501752202e-09
1.76803811521e-10
8.01489269119e-09
2.47476942601e-09
1.47045220892e-10
8.16087815433e-09
2.60656485411e-09
9.68229462598e-11
8.26542404592e-09
2.70499185078e-09
3.37280044262e-11
8.33080811775e-09
2.76667826961e-09
-3.36860342711e-11
8.3560310632e-09
2.78872848172e-09
-9.67828368955e-11
8.3307991732e-09
2.76667833472e-09
-1.4700909636e-10
8.26540634704e-09
2.7049919738e-09
-1.76774033949e-10
8.16085237599e-09
2.60656500948e-09
-1.79921997129e-10
8.01486065878e-09
2.47476957017e-09
-1.52666621078e-10
7.82808335794e-09
2.31501765166e-09
-9.1148621663e-11
7.59945401542e-09
2.13424812269e-09
7.33523345579e-09
1.93985662896e-09
1.62215474074e-14
1.09694301642e-10
7.77098719188e-09
2.19997517714e-09
1.85811001164e-14
1.83022244271e-10
8.02377632872e-09
2.42047383124e-09
2.15507883886e-10
8.24323089399e-09
2.62426602555e-09
2.11377656508e-10
8.41871257481e-09
2.80350003318e-09
1.75567754503e-10
8.55448859712e-09
2.95079784033e-09
1.15485701155e-10
8.65081523708e-09
3.06047684278e-09
4.02037775759e-11
8.71091563544e-09
3.12904863281e-09
-4.01581689664e-11
8.73430265776e-09
3.15349517221e-09
-1.15442148066e-10
8.71090608703e-09
3.12904867699e-09
-1.75528506996e-10
8.65079638913e-09
3.06047691503e-09
-2.11345084006e-10
8.55446131777e-09
2.950797899e-09
-2.154839242e-10
8.41867880764e-09
2.80350001036e-09
-1.83007478652e-10
8.24319382461e-09
2.62426588062e-09
-1.09687664041e-10
8.02374067419e-09
2.42047394453e-09
7.77095882637e-09
2.19997726e-09
1.84432125648e-14
1.25553284843e-10
7.86049655946e-09
2.37015303791e-09
1.86556315858e-14
2.08542946305e-10
8.08906837983e-09
2.60896313663e-09
2.452624555e-10
8.28825906418e-09
2.82828584187e-09
2.40159835592e-10
8.44384374808e-09
3.02021085201e-09
1.99225361461e-10
8.56271640691e-09
3.17730520996e-09
1.30924909832e-10
8.64612583812e-09
3.29391725844e-09
4.55535849427e-11
8.69801459881e-09
3.36663334294e-09
-4.55055449135e-11
8.7184188639e-09
3.39247854184e-09
-1.30879065727e-10
8.6980049122e-09
3.36663334246e-09
-1.99184000613e-10
8.64610680809e-09
3.29391723273e-09
-2.40125273836e-10
8.56268897206e-09
3.17730510172e-09
-2.45236512611e-10
8.443809863e-09
3.02021056847e-09
-2.08526178434e-10
8.28822176106e-09
2.82828530108e-09
-1.25544682001e-10
8.08903227896e-09
2.60896267179e-09
7.86046705333e-09
2.37015431235e-09
2.03140292646e-14
1.39112468987e-10
7.68267936918e-09
2.46373862847e-09
1.82881923371e-14
2.29898627826e-10
7.8800351194e-09
2.71464530548e-09
2.69926027548e-10
8.05284200526e-09
2.94359142669e-09
2.63857299597e-10
8.18430105217e-09
3.14289957702e-09
2.18612696049e-10
8.28319460728e-09
3.30536433427e-09
1.43538571604e-10
8.35168917281e-09
3.42557901978e-09
4.99174516209e-11
8.39415013947e-09
3.50033277962e-09
-4.98679768438e-11
8.41106119253e-09
3.52680908713e-09
-1.4349136128e-10
8.39414096553e-09
3.50033272204e-09
-2.18570023702e-10
8.35167121764e-09
3.42557887179e-09
-2.63821362779e-10
8.28316883491e-09
3.30536402374e-09
-2.69898489221e-10
8.18426933685e-09
3.14289898715e-09
-2.29879960102e-10
8.05280704743e-09
2.94359043644e-09
-1.3910176767e-10
7.88000097266e-09
2.71464421447e-09
7.68265054164e-09
2.46373905529e-09
2.19303453361e-14
1.50635322231e-10
7.30452546227e-09
2.49237092871e-09
1.75215419952e-14
2.476192287e-10
7.46807881975e-09
2.7505246835e-09
2.90144596157e-10
7.61212726262e-09
2.98456054044e-09
2.83133736399e-10
7.71841791521e-09
3.18723195185e-09
2.34299885694e-10
7.79687397373e-09
3.35175258947e-09
1.5371081856e-10
7.8503900314e-09
3.47309788859e-09
5.34306709403e-11
7.88343114161e-09
3.54833299751e-09
-5.33804486321e-11
7.89679706183e-09
3.5748719682e-09
-1.53662865385e-10
7.88342283772e-09
3.54833288039e-09
-2.34256412453e-10
7.85037384231e-09
3.47309761471e-09
-2.83096777271e-10
7.79685084757e-09
3.35175207385e-09
-2.90115657294e-10
7.71838953081e-09
3.18723105651e-09
-2.47598711404e-10
7.61209600076e-09
2.98455911279e-09
-1.50622467948e-10
7.46804817242e-09
2.75052301219e-09
7.30449916159e-09
2.49237059003e-09
2.33659795343e-14
1.60303208805e-10
6.78254864258e-09
2.46634510502e-09
1.65310530273e-14
2.6213974461e-10
6.91287035575e-09
2.72807822935e-09
3.06507414492e-10
7.0284455843e-09
2.96385436347e-09
2.98621676672e-10
7.11071543252e-09
3.1669756925e-09
2.46840296232e-10
7.17006461676e-09
3.33118882291e-09
1.61816047699e-10
7.20984090476e-09
3.45192431605e-09
5.62251807292e-11
7.23429030323e-09
3.52655202223e-09
-5.61746602655e-11
7.24437013739e-09
3.55275406625e-09
-1.617677427e-10
7.23428322678e-09
3.52655185243e-09
-2.46796313169e-10
7.20982715839e-09
3.45192393198e-09
-2.9858387967e-10
7.17004510539e-09
3.33118813009e-09
-3.06477131064e-10
7.11069159322e-09
3.16697453703e-09
-2.62117337806e-10
7.02841935014e-09
2.9638525722e-09
-1.60288062765e-10
6.91284459232e-09
2.72807610322e-09
6.78252603219e-09
2.46634416932e-09
2.4657636948e-14
1.68255125391e-10
6.16399540095e-09
2.39478865336e-09
1.53098043018e-14
2.73847376428e-10
6.26370031635e-09
2.65743841273e-09
3.19590026524e-10
6.35280901173e-09
2.89260391769e-09
3.10957365032e-10
6.41359900498e-09
3.09418657936e-09
2.56792888629e-10
6.45631066753e-09
3.25651689943e-09
1.68230569822e-10
6.48439160064e-09
3.37550404389e-09
5.84330964796e-11
6.50157632249e-09
3.44881845857e-09
-5.83824770935e-11
6.50882157333e-09
3.47442208803e-09
-1.68182067505e-10
6.50157064895e-09
3.44881825164e-09
-2.56748463619e-10
6.4843806624e-09
3.37550358369e-09
-3.10918727212e-10
6.45629523666e-09
3.25651608699e-09
-3.19558349983e-10
6.41358031872e-09
3.09418525207e-09
-2.7382299803e-10
6.35278856145e-09
2.89260189368e-09
-1.68237641779e-10
6.26368035994e-09
2.65743602409e-09
6.16397772185e-09
2.39478735358e-09
2.58613584828e-14
1.74592078535e-10
5.48796608421e-09
2.28574734212e-09
1.40257585193e-14
2.83124015563e-10
5.56070004073e-09
2.5474834994e-09
3.3000885125e-10
5.62629931286e-09
2.78050462583e-09
3.20818497569e-10
5.66897188663e-09
2.97930510774e-09
2.64738575146e-10
5.69818616353e-09
3.13880328484e-09
1.73336868999e-10
5.71705081392e-09
3.25537651914e-09
6.01870475717e-11
5.72854901095e-09
3.32697077028e-09
-6.01363287603e-11
5.73351127064e-09
3.35182234256e-09
-1.73288119046e-10
5.72854485148e-09
3.32697055048e-09
-2.64693621165e-10
5.71704285138e-09
3.25537603529e-09
-3.20778869854e-10
5.69817512203e-09
3.13880244032e-09
-3.29975635094e-10
5.66895868941e-09
2.97930373956e-09
-2.83097532909e-10
5.62628508272e-09
2.78050255299e-09
-1.74572150662e-10
5.56068637865e-09
2.54748109541e-09
5.48795387843e-09
2.28574596211e-09
2.70029396157e-14
1.79376545062e-10
4.78648204073e-09
2.14623702509e-09
1.26568138101e-14
2.90461297704e-10
4.83588270517e-09
2.40590233045e-09
3.38536769076e-10
4.88138005333e-09
2.63589353364e-09
3.28977911741e-10
4.90982641891e-09
2.8312422504e-09
2.71288062265e-10
4.92904542026e-09
2.98743008203e-09
1.77516025601e-10
4.94132368314e-09
3.10127461693e-09
6.16159039302e-11
4.94876748992e-09
3.17096200503e-09
-6.15648931916e-11
4.95202380902e-09
3.19498743897e-09
-1.77466819206e-10
4.94876486204e-09
3.17096180554e-09
-2.71242310088e-10
4.94131877166e-09
3.10127418086e-09
-3.28937054273e-10
4.92903872184e-09
2.98742932378e-09
-3.38501791516e-10
4.90981874466e-09
2.83124101535e-09
-2.90432580969e-10
4.88137212969e-09
2.63589164482e-09
-1.7935412295e-10
4.83587556438e-09
2.4059001973e-09
4.78647577307e-09
2.1462358826e-09
2.81442191381e-14
1.82856585373e-10
4.0852852104e-09
1.98228960149e-09
1.13849156308e-14
2.96853343331e-10
4.11393850284e-09
2.23927206584e-09
3.46291586085e-10
4.14331567824e-09
2.46584609405e-09
3.36306376856e-10
4.16191331736e-09
2.65748671847e-09
2.77018528888e-10
4.17471974235e-09
2.81021351006e-09
1.81092783354e-10
4.1829123473e-09
2.92125450089e-09
6.28243465882e-11
4.18780462868e-09
2.98899811455e-09
-6.27726829601e-11
4.18989310807e-09
3.01217782791e-09
-1.81042730664e-10
4.18780347618e-09
2.98899797658e-09
-2.76971661487e-10
4.18291024563e-09
2.92125420114e-09
-3.36263934494e-10
4.17471725013e-09
2.81021298491e-09
-3.4625458851e-10
4.16191088502e-09
2.65748583212e-09
-2.96822246601e-10
4.14331375534e-09
2.4658446672e-09
-1.82831632002e-10
4.11393764485e-09
2.23927050476e-09
4.08528470651e-09
1.98228899389e-09
2.92223766537e-14
1.86468923958e-10
3.40357924644e-09
1.79900596652e-09
1.00133368009e-14
3.04328915593e-10
3.41337452006e-09
2.05318349435e-09
3.54552230734e-10
3.43217596653e-09
2.2763065714e-09
3.43371648661e-10
3.44549658717e-09
2.46423643792e-09
2.82145977206e-10
3.45499804877e-09
2.61354851372e-09
1.84144185084e-10
3.46111740051e-09
2.72185570075e-09
6.38322072704e-11
3.46466131846e-09
2.78770937276e-09
-6.37793848787e-11
3.46602789216e-09
2.81005742758e-09
-1.84092864407e-10
3.46466143556e-09
2.78770934078e-09
-2.82097487433e-10
3.46111784194e-09
2.7218556327e-09
-3.43327299131e-10
3.45499911004e-09
2.61354838157e-09
-3.54512973835e-10
3.44549873225e-09
2.46423614399e-09
-3.04295312087e-10
3.43217951958e-09
2.27630592919e-09
-1.86441525174e-10
3.41337958052e-09
2.05318281069e-09
3.40358439418e-09
1.79900610237e-09
3.02365975096e-14
1.96671155376e-10
1.60096660133e-09
8.64854777377e-15
2.74953022759e-09
3.16898743072e-10
1.85276052935e-09
2.75002098281e-09
3.64852551714e-10
2.07241390114e-09
2.76536910252e-09
3.50667700137e-10
2.25664546117e-09
2.77672579294e-09
2.86856498106e-10
2.40260981889e-09
2.78480146461e-09
1.86759073113e-10
2.50826947892e-09
2.79014664288e-09
6.46676909381e-11
2.57229793182e-09
2.79319562086e-09
-6.46132316881e-11
2.59383410242e-09
2.7941864936e-09
-1.86705977773e-10
2.57229803271e-09
2.79319674321e-09
-2.8680605196e-10
2.50826969948e-09
2.79014906809e-09
-3.5062104566e-10
2.4026101779e-09
2.78480545741e-09
-3.64810662461e-10
2.2566459308e-09
2.77673172023e-09
-3.16862486572e-10
2.07241430278e-09
2.76537712261e-09
-1.96641366576e-10
1.85276117079e-09
2.75003119802e-09
1.60096728185e-09
3.12236730787e-14
2.74954085232e-09
-4.36252704127e-12
1.67849095623e-10
2.65233781563e-10
1.11653174477e-15
-5.59261939012e-12
1.83780950817e-10
2.91839872101e-10
-5.8323946898e-12
2.01104446561e-10
3.16867838371e-10
-5.40618821979e-12
2.16979825447e-10
3.39248495499e-10
-4.37531218206e-12
2.30267484421e-10
3.5789318387e-10
-2.85049527984e-12
2.40288293753e-10
3.71920775813e-10
-9.90399018484e-13
2.4659875694e-10
3.80764985836e-10
9.89561783479e-13
2.48859519401e-10
3.83951328395e-10
2.85000649183e-12
2.46598391261e-10
3.80765059646e-10
4.37536464881e-12
2.40287183848e-10
3.71920911909e-10
5.40668806604e-12
2.30265096984e-10
3.57893360485e-10
5.83283790331e-12
2.16975810072e-10
3.39248690468e-10
5.59267647904e-12
2.01099619028e-10
3.16868056631e-10
4.36197766345e-12
1.83776138605e-10
2.9184023899e-10
1.67846437567e-10
2.65234849487e-10
1.65274618265e-16
-7.04854061516e-12
4.90002670605e-10
7.67556565031e-10
5.21360900293e-15
-9.11580553372e-12
5.32758992595e-10
8.46461195554e-10
-9.23900579377e-12
5.78038912469e-10
9.20759244622e-10
-8.3084524906e-12
6.19352397711e-10
9.87216046044e-10
-6.57187374207e-12
6.53719157807e-10
1.04260036801e-09
-4.21900228821e-12
6.79480715679e-10
1.08428481425e-09
-1.45642772151e-12
6.95653158815e-10
1.1105519119e-09
1.45925959839e-12
7.01451540899e-10
1.11997878815e-09
4.22256352961e-12
6.95651866442e-10
1.11055209406e-09
6.57639603778e-12
6.79477451816e-10
1.08428514649e-09
8.31332716494e-12
6.53712941656e-10
1.04260079078e-09
9.24267962931e-12
6.19342747637e-10
9.87216501044e-10
9.11700354676e-12
5.78027355296e-10
9.20759749862e-10
7.04675580675e-12
5.32747914018e-10
8.46462111844e-10
4.89996384281e-10
7.67559129364e-10
1.40357755921e-15
-5.57185459678e-12
8.64266776124e-10
1.20529371248e-09
5.67730030814e-15
-6.69272920843e-12
9.35051658943e-10
1.33142961345e-09
-6.1067679845e-12
1.00842288767e-09
1.45000691232e-09
-4.9487171109e-12
1.07499246998e-09
1.55590882943e-09
-3.59748969238e-12
1.13009731814e-09
1.64406249738e-09
-2.18370518622e-12
1.17120696784e-09
1.71035128449e-09
-7.3685564666e-13
1.19694449966e-09
1.75207211109e-09
7.39536833561e-13
1.2061718666e-09
1.76700053224e-09
2.18716290959e-12
1.19694212036e-09
1.75207235071e-09
3.601997479e-12
1.17120156758e-09
1.7103517199e-09
4.95365951615e-12
1.13008800808e-09
1.64406304673e-09
6.11062087067e-12
1.07497899423e-09
1.55590940923e-09
6.69403720646e-12
1.00840688701e-09
1.45000753702e-09
5.57006513771e-12
9.35036331747e-10
1.33143077205e-09
8.64256929512e-10
1.20529707236e-09
1.62157938423e-15
-1.16920820734e-12
1.23371320689e-09
1.57157637854e-09
6.41503995176e-15
1.44214370585e-13
1.32935741106e-09
1.73863659685e-09
1.91935595818e-12
1.42644020729e-09
1.89523305984e-09
3.05381904987e-12
1.51387531031e-09
2.03475819609e-09
3.17248387453e-12
1.58586788139e-09
2.15067952064e-09
2.33091916185e-12
1.63932311204e-09
2.23771957494e-09
8.44591304298e-13
1.67269745518e-09
2.29241319464e-09
-8.40224575006e-13
1.68466000722e-09
2.31192646476e-09
-2.3259017122e-12
1.67269403901e-09
2.29241342725e-09
-3.16664756475e-12
1.63931569274e-09
2.23771998748e-09
-3.04784125092e-12
1.58585566802e-09
2.1506800165e-09
-1.91473977341e-12
1.5138582981e-09
2.0347586733e-09
-1.42433658532e-13
1.42642022136e-09
1.89523351949e-09
1.16757357351e-12
1.32933829825e-09
1.73863756929e-09
1.23370045932e-09
1.57157971873e-09
2.32287007414e-15
5.32856925235e-12
1.56029557937e-09
1.86806261498e-09
7.15798070873e-15
1.01192854718e-11
1.67537802338e-09
2.06966899706e-09
1.34386965276e-11
1.78947370021e-09
2.25791898529e-09
1.43393086556e-11
1.89135610291e-09
2.42512312082e-09
1.25961982471e-11
1.97472070695e-09
2.56369109666e-09
8.56342038949e-12
2.03630495066e-09
2.66752977169e-09
3.02019110173e-12
2.07463828057e-09
2.73265243011e-09
-3.01342781361e-12
2.08837327403e-09
2.7558167243e-09
-8.5562390116e-12
2.07463407676e-09
2.73265260185e-09
-1.25886114576e-11
2.0362961269e-09
2.66753005821e-09
-1.43320264777e-11
1.97470684437e-09
2.56369139173e-09
-1.34331366812e-11
1.89133740238e-09
2.42512330695e-09
-1.01167980988e-11
1.78945199541e-09
2.25791904025e-09
-5.32969633895e-12
1.67535692602e-09
2.06966944746e-09
1.56028042022e-09
1.8680653715e-09
3.29575690358e-15
1.31579090989e-11
1.82064366494e-09
2.09664425459e-09
7.79141824149e-15
2.21487403832e-11
1.94887001923e-09
2.32648623852e-09
2.72601500807e-11
2.07255387448e-09
2.54009991167e-09
2.77733185947e-11
2.18194204996e-09
2.72911614671e-09
2.37368246198e-11
2.27078247005e-09
2.88528301867e-09
1.58961422582e-11
2.33603568092e-09
3.00202927534e-09
5.57414163266e-12
2.37651307367e-09
3.0750820525e-09
-5.56478117e-12
2.39100797118e-09
3.10098403254e-09
-1.58866287269e-11
2.37650832435e-09
3.07508212661e-09
-2.37273419656e-11
2.3360259133e-09
3.00202936441e-09
-2.77646315506e-11
2.27076746313e-09
2.88528301017e-09
-2.72535389639e-11
2.18192222858e-09
2.72911590979e-09
-2.21454325339e-11
2.07253103506e-09
2.54009939634e-09
-1.3158347819e-11
1.94884769825e-09
2.32648595457e-09
1.82062699016e-09
2.09664612875e-09
4.43041453854e-15
2.16515853276e-11
2.00277488795e-09
2.25995198791e-09
8.31569226439e-15
3.5304317228e-11
2.13786403741e-09
2.51200320483e-09
4.2360057206e-11
2.26407922469e-09
2.74501458062e-09
4.2389582093e-11
2.37450844632e-09
2.95030694303e-09
3.5805499992e-11
2.46340180099e-09
3.11933151174e-09
2.38138468453e-11
2.52826380045e-09
3.24534431538e-09
8.32735519891e-12
2.56833777686e-09
3.32399594744e-09
-8.31550536711e-12
2.58267527575e-09
3.3517858011e-09
-2.38021048867e-11
2.56833282804e-09
3.32399590396e-09
-3.57942193079e-11
2.52825379665e-09
3.24534416877e-09
-4.23795400129e-11
2.46338675434e-09
3.11933114617e-09
-4.23523780716e-11
2.37448893494e-09
2.95030621669e-09
-3.53000664377e-11
2.26405680055e-09
2.74501341716e-09
-2.16511020795e-11
2.13784187015e-09
2.51200210317e-09
2.00275729029e-09
2.25995287576e-09
5.63340961588e-15
3.02705883188e-11
2.10337362972e-09
2.36149661515e-09
8.67651869582e-15
4.88202263224e-11
2.23962031391e-09
2.63022278301e-09
5.78901689149e-11
2.36235757245e-09
2.87721601705e-09
5.73931079762e-11
2.4684368553e-09
3.09380370224e-09
4.81605964684e-11
2.55293736496e-09
3.2714518753e-09
3.1901539931e-11
2.61412397366e-09
3.40349852763e-09
1.11363843666e-11
2.65175009317e-09
3.48568721902e-09
-1.11223138046e-11
2.66519277615e-09
3.51461432484e-09
-3.18877965205e-11
2.65174519694e-09
3.4856870554e-09
-4.81476725849e-11
2.61411417377e-09
3.40349814191e-09
-5.73817741653e-11
2.55292282142e-09
3.27145115127e-09
-5.78814321883e-11
2.46841819666e-09
3.09380249064e-09
-4.88149696236e-11
2.36233623756e-09
2.87721422118e-09
-3.02691330338e-11
2.23959904392e-09
2.63022090493e-09
2.10335626941e-09
2.36149656599e-09
6.87695309573e-15
3.86042417974e-11
2.1255083875e-09
2.40560046435e-09
8.94911597209e-15
6.20855691132e-11
2.25810095826e-09
2.68611941785e-09
7.31722527752e-11
2.37273332204e-09
2.94239481323e-09
7.21547120688e-11
2.47042284126e-09
3.16600961717e-09
6.03019710515e-11
2.54729129799e-09
3.34868951495e-09
3.98398211987e-11
2.60246328091e-09
3.48404867849e-09
1.38916045671e-11
2.63620482754e-09
3.56804675024e-09
-1.38756841692e-11
2.64823314284e-09
3.5974820789e-09
-3.98244008839e-11
2.63620025616e-09
3.56804648108e-09
-6.02876407103e-11
2.60245421069e-09
3.4840480848e-09
-7.21422268054e-11
2.54727799323e-09
3.34868848363e-09
-7.31624871547e-11
2.47040592472e-09
3.16600799605e-09
-6.20792804357e-11
2.37271398052e-09
2.94239249316e-09
-3.86016848842e-11
2.25808148335e-09
2.68611691843e-09
2.12549173853e-09
2.40559965092e-09
8.05532051218e-15
4.63646573013e-11
2.07671068847e-09
2.397215205e-09
9.06533063764e-15
7.46399563256e-11
2.20187165585e-09
2.68539490117e-09
8.76961175406e-11
2.3052203028e-09
2.94706314523e-09
8.62093717171e-11
2.39186801931e-09
3.1742301913e-09
7.18679883788e-11
2.45909721113e-09
3.35905407429e-09
4.74016930057e-11
2.50687655535e-09
3.49555844777e-09
1.65158408688e-11
2.53591319747e-09
3.57999712729e-09
-1.64984649672e-11
2.54622908162e-09
3.60944145701e-09
-4.73849338273e-11
2.53590911202e-09
3.5799967834e-09
-7.18524923766e-11
2.5068685114e-09
3.49555771015e-09
-8.61958775137e-11
2.45908549221e-09
3.35905283714e-09
-8.76854014411e-11
2.39185324155e-09
3.17422830466e-09
-7.4632663516e-11
2.30520344999e-09
2.9470604948e-09
-4.63610578093e-11
2.20185457245e-09
2.68539203368e-09
2.07669572702e-09
2.39721390041e-09
9.17629700289e-15
5.33766846899e-11
1.96738693278e-09
2.34168756778e-09
9.13482814269e-15
8.61727563297e-11
2.08237562177e-09
2.63418545577e-09
1.01126588171e-10
2.17257655046e-09
2.89819639624e-09
9.92645310863e-11
2.24679282248e-09
3.12624399027e-09
8.26399292856e-11
2.30350344751e-09
3.31102301359e-09
5.44535114144e-11
2.34339302716e-09
3.44704768606e-09
1.8964234603e-11
2.3674676431e-09
3.53090663629e-09
-1.89458039591e-11
2.37597609014e-09
3.55998630482e-09
-5.44357577291e-11
2.3674641827e-09
3.53090626333e-09
-8.26235390811e-11
2.34338623871e-09
3.44704689887e-09
-9.92501963185e-11
2.3034936563e-09
3.31102171867e-09
-1.01115023458e-10
2.24678052552e-09
3.12624204468e-09
-8.61645325743e-11
2.17256253046e-09
2.89819368401e-09
-5.3372048934e-11
2.0823613214e-09
2.63418255143e-09
1.96737391697e-09
2.34168612351e-09
1.01452385818e-14
5.95635085286e-11
1.80953917943e-09
2.24451395593e-09
9.09562600068e-15
9.65347588855e-11
1.91253176147e-09
2.53877645252e-09
1.13334727154e-10
1.98877256864e-09
2.8028989827e-09
1.11229198331e-10
2.05023260455e-09
3.02990928917e-09
9.25589025458e-11
2.09651243953e-09
3.21309252372e-09
6.09617059841e-11
2.1287656673e-09
3.34750004674e-09
2.12258439266e-11
2.14809663364e-09
3.43006974131e-09
-2.12067215e-11
2.15487383095e-09
3.45852294844e-09
-6.09432857535e-11
2.14809386672e-09
3.43006939752e-09
-9.25418588964e-11
2.12876027564e-09
3.34749933017e-09
-1.11214221229e-10
2.09650466629e-09
3.21309135923e-09
-1.13322464085e-10
2.0502229031e-09
3.029907545e-09
-9.65257298829e-11
1.98876153512e-09
2.80289653689e-09
-5.95579981231e-11
1.91252043308e-09
2.53877389107e-09
1.80952861719e-09
2.24451277089e-09
1.09914275687e-14
6.49860107965e-11
1.61572436531e-09
2.11111104273e-09
9.07515469758e-15
1.05850163958e-10
1.70556688794e-09
2.40537405668e-09
1.24517314214e-10
1.76781057242e-09
2.66814213421e-09
1.22297552878e-10
1.81709205353e-09
2.89284800232e-09
1.01770730791e-10
1.85383731385e-09
3.07341623069e-09
6.70125421275e-11
1.87930822333e-09
3.20547094386e-09
2.33288072522e-11
1.89448165412e-09
3.28629734166e-09
-2.33092989342e-11
1.8997358804e-09
3.31395451225e-09
-6.69937226079e-11
1.8944796041e-09
3.2862970935e-09
-1.0175328968e-10
1.87930423348e-09
3.20547043521e-09
-1.22282118221e-10
1.85383162451e-09
3.07341541268e-09
-1.24504508934e-10
1.81708495352e-09
2.89284676022e-09
-1.05840500092e-10
1.76780241795e-09
2.66814032559e-09
-6.49797391978e-11
1.7055584886e-09
2.40537222655e-09
1.61571618698e-09
2.11111048706e-09
1.16214008716e-14
6.98316838374e-11
1.39827034122e-09
1.94662079025e-09
8.89691208495e-15
1.14516455514e-10
1.47406365466e-09
2.24000293169e-09
1.35203105793e-10
1.52283034459e-09
2.50060097282e-09
1.32938711463e-10
1.56137983315e-09
2.72221395489e-09
1.10615198015e-10
1.59017112005e-09
2.89953900133e-09
7.28072109867e-11
1.61016657147e-09
3.02880585471e-09
2.5339735059e-11
1.6220309366e-09
3.10762819786e-09
-2.53200551091e-11
1.62606324686e-09
3.13439025367e-09
-7.27882011261e-11
1.62202957868e-09
3.10762811069e-09
-1.10597512601e-10
1.61016389841e-09
3.02880568896e-09
-1.32922995406e-10
1.59016729486e-09
2.8995387454e-09
-1.35189964566e-10
1.56137506101e-09
2.7222135276e-09
-1.14506299817e-10
1.52282497372e-09
2.50060020162e-09
-6.98248693594e-11
1.47405807677e-09
2.24000220718e-09
1.39826461772e-09
1.94662111669e-09
1.20928956972e-14
7.00060508909e-11
1.75569003058e-09
8.69407777853e-15
1.17353333378e-09
1.2121827322e-10
2.04856369624e-09
1.22704909123e-09
1.45078938214e-10
2.30640477155e-09
1.26497969846e-09
1.43266932136e-10
2.52441609292e-09
1.2954218196e-09
1.19375069377e-10
2.69816927837e-09
1.31850419589e-09
7.86043929371e-11
2.82446715838e-09
1.33474023968e-09
2.73603303645e-11
2.90119312415e-09
1.34438029981e-09
-2.73406056606e-11
2.92702277403e-09
1.34757607303e-09
-7.858533873e-11
2.90119323546e-09
1.34437945487e-09
-1.19357272793e-10
2.8244674114e-09
1.33473866933e-09
-1.43251030092e-10
2.69816970749e-09
1.31850196421e-09
-1.45065415994e-10
2.52441668346e-09
1.29541914093e-09
-1.21207698676e-10
2.30640533816e-09
1.26497664611e-09
-6.99987235059e-11
2.04856458786e-09
1.22704609244e-09
1.75569102354e-09
1.23405110952e-14
1.17353017307e-09
2.07167948671e-12
-6.62711317639e-12
2.69792050047e-10
3.25769791828e-16
3.39192693202e-12
-7.85503256253e-12
2.98378168829e-10
4.11910530447e-12
-9.26785406135e-12
3.25412443209e-10
4.16098248346e-12
-1.04908633859e-11
3.49700847767e-10
3.54081401455e-12
-1.14976497116e-11
3.70014716393e-10
2.37046849311e-12
-1.22504674359e-11
3.85345136087e-10
8.34191470207e-13
-1.27219794749e-11
3.95025981998e-10
-8.34154299748e-13
-1.28870320523e-11
3.98508598848e-10
-2.37057494429e-12
-1.27232246828e-11
3.95025983103e-10
-3.54117447242e-12
-1.22526946451e-11
3.85345136189e-10
-4.16148889574e-12
-1.1500308476e-11
3.70014712311e-10
-4.11945396632e-12
-1.04935400687e-11
3.49700841935e-10
-3.39234272537e-12
-9.27092820631e-12
3.2541246081e-10
-2.07213459345e-12
-7.85776064616e-12
2.9837835147e-10
-6.62935723208e-12
2.69792938608e-10
-3.41106785743e-16
5.05787101915e-12
1.58975538381e-11
7.39977721036e-10
1.52026779825e-15
8.56124812454e-12
1.70418535187e-11
8.18067515595e-10
1.0475175319e-11
1.78599505708e-11
8.91724477105e-10
1.06209325577e-11
1.8863969798e-11
9.57721796329e-10
9.0533924644e-12
1.98714639695e-11
1.0128050954e-09
6.06542772626e-12
2.07153574984e-11
1.05431262481e-09
2.13492798397e-12
2.12775260192e-11
1.08048725476e-09
-2.13263372313e-12
2.14837368498e-11
1.0898786389e-09
-6.06370355448e-12
2.12748356521e-11
1.08048721079e-09
-9.05267224898e-12
2.07104320705e-11
1.05431253632e-09
-1.06210982606e-11
1.98651808928e-11
1.01280496304e-09
-1.04757038833e-11
1.88570047189e-11
9.57721639177e-10
-8.56236643396e-12
1.78520830942e-11
8.91724382534e-10
-5.05965757873e-12
1.70346567695e-11
8.18067889392e-10
1.5892187911e-11
7.39979777654e-10
-1.03100551307e-15
7.24285959349e-12
7.31026681312e-11
1.14084869023e-09
1.27551639733e-15
1.24720709867e-11
8.0764345905e-11
1.26248257264e-09
1.53280596852e-11
8.80472871577e-11
1.37696822543e-09
1.55667072721e-11
9.51757823446e-11
1.47936320513e-09
1.3276796194e-11
1.01519362628e-10
1.56470949353e-09
8.89475589943e-12
1.06496829523e-10
1.62895636656e-09
3.12871081006e-12
1.09700099809e-10
1.66941908205e-09
-3.12856570392e-12
1.10848291707e-10
1.68389575901e-09
-8.89507813139e-12
1.0969644073e-10
1.66941902818e-09
-1.32779116048e-11
1.06490065718e-10
1.62895624709e-09
-1.55684644048e-11
1.01510567697e-10
1.56470929136e-09
-1.53300031286e-11
9.51659796133e-11
1.47936292796e-09
-1.24742854215e-11
8.80367930339e-11
1.37696798351e-09
-7.24552610508e-12
8.07545552719e-11
1.26248292408e-09
7.30951375818e-11
1.14085128436e-09
-1.94332759016e-15
9.05594293527e-12
1.55582729096e-10
1.48004303267e-09
1.14705578597e-15
1.57635050047e-11
1.72483332756e-10
1.64021465776e-09
1.9438913393e-11
1.88998495886e-10
1.79061137091e-09
1.9764877277e-11
2.04741815127e-10
1.92487107826e-09
1.68645618807e-11
2.18486832213e-10
2.03661704418e-09
1.12981601688e-11
2.2914180902e-10
2.12064507234e-09
3.9723997116e-12
2.35948392288e-10
2.17349385681e-09
-3.97378511746e-12
2.38375892424e-10
2.19234737361e-09
-1.12999404872e-11
2.35943973771e-10
2.17349374254e-09
-1.68669917067e-11
2.29133560945e-10
2.12064482506e-09
-1.97678255981e-11
2.18475841927e-10
2.03661663547e-09
-1.9442011776e-11
2.04729264755e-10
1.92487050663e-09
-1.5766777611e-11
1.88985177466e-10
1.79061075175e-09
-9.05950629042e-12
1.72471006356e-10
1.64021461335e-09
1.55573358078e-10
1.48004541159e-09
-2.73842366244e-15
1.08183071862e-11
2.53272459513e-10
1.75955655572e-09
1.09271174652e-15
1.89222071172e-11
2.80654302131e-10
1.95339708583e-09
2.33622871337e-11
3.07588443837e-10
2.13489212774e-09
2.37590909797e-11
3.32911506988e-10
2.29656002923e-09
2.02714475036e-11
3.54776073349e-10
2.43089290615e-09
1.35774790544e-11
3.71595086154e-10
2.53177352422e-09
4.77175761237e-12
3.8228508307e-10
2.59512388315e-09
-4.77441195695e-12
3.86084994041e-10
2.61765562728e-09
-1.35804631122e-11
3.82280322867e-10
2.59512366989e-09
-2.0274973722e-11
3.71586136584e-10
2.53177307471e-09
-2.37630635395e-11
3.54764051101e-10
2.43089218451e-09
-2.33664113272e-11
3.32897716787e-10
2.29655902432e-09
-1.89264230503e-11
3.07574037831e-10
2.13489094428e-09
-1.08226288009e-11
2.80640983663e-10
1.95339636201e-09
2.5326191466e-10
1.75955821378e-09
-3.40470899027e-15
1.27670214828e-11
3.55876365072e-10
1.9812746287e-09
1.06140541333e-15
2.23202083155e-11
3.93580440176e-10
2.20400961672e-09
2.75315459094e-11
4.30614479362e-10
2.41186555562e-09
2.79750829081e-11
4.65049018294e-10