/*--------------------------------*- C++ -*----------------------------------*\
  =========                 |
  \\      /  F ield         | OpenFOAM: The Open Source CFD Toolbox
   \\    /   O peration     | Website:  https://openfoam.org
    \\  /    A nd           | Version:  7
     \\/     M anipulation  |
\*---------------------------------------------------------------------------*/
FoamFile
{
    version     2.0;
    format      ascii;
    class       volVectorField;
    location    "1";
    object      U;
}
// * * * * * * * * * * * * * * * * * * * * * * * * * * * * * * * * * * * * * //

dimensions      [0 1 -1 0 0 0 0];

internalField   nonuniform List<vector> 
22500
(
(1.28826743993e-05 1.44375708729e-05 0.00019963929609)
(1.1998473493e-05 1.62709726693e-05 0.000209567773577)
(1.05113038955e-05 1.81226096117e-05 0.000218607762439)
(8.84233990605e-06 1.96974545865e-05 0.000226409225317)
(6.87652543787e-06 2.10014452018e-05 0.000232728659464)
(4.70939902568e-06 2.19706858266e-05 0.00023737641495)
(2.39338674262e-06 2.25684128256e-05 0.000240221169945)
(1.31044459173e-10 2.27706287057e-05 0.000241183921451)
(-2.39312933241e-06 2.2568430347e-05 0.000240221176779)
(-4.70915720353e-06 2.19707177211e-05 0.000237376429074)
(-6.8763137622e-06 2.10014845212e-05 0.000232728680245)
(-8.84217321504e-06 1.96974911962e-05 0.000226409251027)
(-1.05111937902e-05 1.8122631619e-05 0.000218607794375)
(-1.19984096344e-05 1.62709795747e-05 0.000209567849786)
(-1.28826608342e-05 1.44375600835e-05 0.000199639645873)
(3.74898430875e-05 4.20461067042e-05 0.000522889420997)
(3.48428015776e-05 4.72751967097e-05 0.000545112168432)
(3.06147213488e-05 5.25008052424e-05 0.000565114118788)
(2.57245103865e-05 5.69854715782e-05 0.000582211803993)
(2.00126645644e-05 6.06991045326e-05 0.000595948989891)
(1.37038782612e-05 6.34616351188e-05 0.000605989656292)
(6.96403772984e-06 6.51666520322e-05 0.000612108742378)
(4.75731690341e-10 6.57433377811e-05 0.000614172283648)
(-6.9631025036e-06 6.51666754109e-05 0.000612108757717)
(-1.37029967752e-05 6.34616717678e-05 0.00060598968801)
(-2.00118865905e-05 6.06991350497e-05 0.000595949036091)
(-2.5723890302e-05 5.69854695007e-05 0.000582211859774)
(-3.06143027047e-05 5.25007431139e-05 0.000565114188516)
(-3.48425732128e-05 4.72750750453e-05 0.000545112363277)
(-3.74898052825e-05 4.20459347208e-05 0.000522890253813)
(5.64661324604e-05 6.3225035985e-05 0.000783960899519)
(5.22142841434e-05 7.07018654612e-05 0.000813316014766)
(4.57824534541e-05 7.8112445562e-05 0.000839460827116)
(3.83524325729e-05 8.44565801425e-05 0.000861628611339)
(2.97749200678e-05 8.96887946916e-05 0.000879316953)
(2.03553805582e-05 9.35707503803e-05 0.000892177581379)
(1.03337686635e-05 9.59625090142e-05 0.000899986144058)
(5.44975427404e-10 9.67706938511e-05 0.000902612011566)
(-1.03326946378e-05 9.59625164074e-05 0.000899986175648)
(-2.03543588309e-05 9.35707556169e-05 0.000892177644299)
(-2.97739985153e-05 8.96887794477e-05 0.000879317040635)
(-3.83516642204e-05 8.44565220147e-05 0.000861628710586)
(-4.57818828086e-05 7.81123235264e-05 0.000839460934599)
(-5.22139052587e-05 7.07016956835e-05 0.000813316272134)
(-5.64659736938e-05 6.32248349038e-05 0.000783962004166)
(7.10245957431e-05 7.9380321044e-05 0.000995451116426)
(6.53538784105e-05 8.82376767399e-05 0.00102835389535)
(5.71460961687e-05 9.69722596717e-05 0.00105733517507)
(4.77206798819e-05 0.000104409178715 0.00108170402464)
(3.6962694051e-05 0.00011051660415 0.00110101332363)
(2.52246879742e-05 0.000115033146351 0.00111497743904)
(1.27919085413e-05 0.000117810022113 0.00112342401194)
(6.18406639609e-10 0.000118747245545 0.00112625700754)
(-1.27906886124e-05 0.000117810011087 0.00112342404622)
(-2.52235223888e-05 0.000115033115044 0.00111497750564)
(-3.69616303223e-05 0.000110516535756 0.00110101341109)
(-4.77197708143e-05 0.000104409055111 0.00108170411108)
(-5.7145387076e-05 9.69720664247e-05 0.00105733524327)
(-6.53533665491e-05 8.8237440343e-05 0.00102835408094)
(-7.10243231946e-05 7.93800654871e-05 0.000995452180868)
(8.20674878474e-05 9.15789789943e-05 0.00116680105242)
(7.51666042234e-05 0.000101165462282 0.00120073546999)
(6.55316660494e-05 0.00011059025446 0.00123026827301)
(5.45534416682e-05 0.000118564224682 0.00125487825918)
(4.21577413422e-05 0.000125083501674 0.00127423382143)
(2.87197093103e-05 0.00012988836619 0.0012881512475)
(1.45487467746e-05 0.000132835965053 0.00129653569606)
(6.7253991877e-10 0.000133829619253 0.00129934061113)
(-1.45474196967e-05 0.000132835940025 0.00129653572293)
(-2.8718439242e-05 0.000129888307414 0.00128815129684)
(-4.21565752656e-05 0.000125083394084 0.0012742338761)
(-5.45524300815e-05 0.000118564053134 0.00125487828656)
(-6.55308514136e-05 0.000110590009962 0.00123026823533)
(-7.51659842517e-05 0.000101165177661 0.00120073547669)
(-8.20671118172e-05 9.15786817834e-05 0.00116680186104)
(9.00831877254e-05 0.000100376512681 0.00130532246797)
(8.21373987611e-05 0.000110160575567 0.00133853426357)
(7.13830228093e-05 0.000119764548654 0.00136705941851)
(5.92396517493e-05 0.000127835441436 0.0013905944421)
(4.56725626112e-05 0.000134402269194 0.00140895384351)
(3.10597227507e-05 0.000139225462 0.00142207186769)
(1.57173895782e-05 0.000142177499963 0.00142993989651)
(7.08750902625e-10 0.000143171462832 0.00143256507024)
(-1.57159912731e-05 0.000142177465846 0.00142993990896)
(-3.10583838001e-05 0.00013922538571 0.00142207188513)
(-4.56713287673e-05 0.000134402137633 0.00140895384196)
(-5.92385702138e-05 0.000127835242164 0.00139059437571)
(-7.13821316423e-05 0.000119764275965 0.00136705922382)
(-8.21366945117e-05 0.000110160264975 0.00133853401815)
(-9.00827208692e-05 0.000100376193393 0.00130532291389)
(9.54688442774e-05 0.000106212653179 0.00141684208138)
(8.66588003235e-05 0.000115764600592 0.00144814230627)
(7.506274675e-05 0.000125136734255 0.00147463716463)
(6.20969090589e-05 0.000132957519322 0.00149625614037)
(4.77624639281e-05 0.000139288054853 0.00151296803971)
(3.24239051732e-05 0.000143921446538 0.0015248249597)
(1.63902489924e-05 0.000146750676122 0.00153190171631)
(7.301309462e-10 0.000147702167821 0.00153425622185)
(-1.6388808819e-05 0.000146750637546 0.00153190171001)
(-3.24225260273e-05 0.000143921362342 0.00152482493602)
(-4.7761189713e-05 0.000139287913498 0.00151296796663)
(-6.2095782831e-05 0.000132957310744 0.00149625595659)
(-7.50618002797e-05 0.000125136454903 0.00147463677838)
(-8.66580283246e-05 0.000115764287241 0.00144814176799)
(-9.54682984389e-05 0.00010621233364 0.00141684212615)
(9.86020744415e-05 0.000109509292113 0.00150610488785)
(8.91014525263e-05 0.000118495406446 0.00153473457117)
(7.69134277758e-05 0.000127315786483 0.00155858186151)
(6.34244510344e-05 0.000134622687266 0.00157780118038)
(4.86674410676e-05 0.000140505059413 0.00159250702417)
(3.29803327181e-05 0.000144795681923 0.00160285795442)
(1.66538799843e-05 0.000147409611098 0.00160900173289)
(7.41240245262e-10 0.00014828771106 0.00161103953404)
(-1.6652418263e-05 0.000147409573862 0.0016090017057)
(-3.29789331548e-05 0.000144795601289 0.00160285788497)
(-4.86661454828e-05 0.000140504925343 0.00159250687153)
(-6.34232982612e-05 0.000134622490968 0.00157780086642)
(-7.69124436165e-05 0.000127315525427 0.00155858126637)
(-8.91006293688e-05 0.000118495115047 0.00153473372968)
(-9.86014630513e-05 0.000109508995986 0.00150610454009)
(9.98273246692e-05 0.00011065433885 0.00157703534336)
(8.97999923754e-05 0.000118824260242 0.00160256562112)
(7.72431781373e-05 0.000126850558397 0.0016234558753)
(6.34906783158e-05 0.000133449376394 0.00164006103841)
(4.86021829611e-05 0.00013873191801 0.00165262083387)
(3.28789725885e-05 0.00014257277552 0.0016613815055)
(1.65853693721e-05 0.000144907800551 0.00166654863676)
(7.45598922938e-10 0.000145691425259 0.00166825660657)
(-1.6583899296e-05 0.000144907769883 0.00166654858853)
(-3.28775650273e-05 0.000142572708735 0.00166138138995)
(-4.86008777605e-05 0.000138731806403 0.001652620601)
(-6.34895100319e-05 0.000133449211423 0.00164006059327)
(-7.72421668896e-05 0.00012685033742 0.00162345507283)
(-8.97991290744e-05 0.000118824014299 0.00160256449602)
(-9.98266602381e-05 0.000110654088064 0.00157703464912)
(9.94512128357e-05 0.000109994948537 0.00163291114416)
(8.90487060646e-05 0.000117166600281 0.00165516534897)
(7.6321663337e-05 0.000124219352502 0.00167302049452)
(6.25302215878e-05 0.000129971702485 0.00168699617965)
(4.77539570876e-05 0.000134551433562 0.00169742938589)
(3.22502502544e-05 0.000137872535484 0.00170463126938)
(1.62516046012e-05 0.000139888154747 0.00170884807831)
(7.46903921271e-10 0.000140564051076 0.00171023645173)
(-1.6250132029e-05 0.000139888135782 0.0017088480111)
(-3.22488398464e-05 0.000137872492891 0.00170463111241)
(-4.77526468929e-05 0.000134551359155 0.0016974290811)
(-6.25290429472e-05 0.000129971587676 0.00168699561712)
(-7.63206314396e-05 0.000124219192796 0.00167301950922)
(-8.90478117993e-05 0.000117166421623 0.00165516399287)
(-9.94505061808e-05 0.000109994764264 0.00163291018665)
(9.7745594201e-05 0.000107842153228 0.00167648129535)
(8.71049289995e-05 0.000113885076947 0.00169547237452)
(7.43841545988e-05 0.000119833348716 0.00171038463009)
(6.07479457111e-05 0.000124645242608 0.00172185808325)
(4.6285760965e-05 0.000128458595254 0.00173029539071)
(3.12070922015e-05 0.00013121949639 0.00173604904135)
(1.57102632305e-05 0.000132893313139 0.00173938898481)
(7.48126446815e-10 0.000133454298219 0.00174048359711)
(-1.57087878306e-05 0.00013289330995 0.0017393889038)
(-3.12056779156e-05 0.000131219485906 0.00173604885481)
(-4.62844442015e-05 0.000128458569874 0.00173029503532)
(-6.07467553371e-05 0.000124645192718 0.00172185743815)
(-7.43831026045e-05 0.000119833267712 0.00171038351698)
(-8.71040072595e-05 0.000113884984193 0.0016954708804)
(-9.7744853706e-05 0.000107842053697 0.00167648020389)
(9.49488363316e-05 0.000104474580153 0.00171004785116)
(8.41933014087e-05 0.00010929006227 0.00172592945932)
(7.16380962051e-05 0.000114039292178 0.00173811343871)
(5.83245098088e-05 0.000117854049336 0.00174730854302)
(4.43398170101e-05 0.000120870238526 0.00175395227422)
(2.98467795928e-05 0.000123053747909 0.00175841732409)
(1.50106027939e-05 0.000124376914011 0.00176098239464)
(7.52104527278e-10 0.000124820229355 0.00176181839825)
(-1.50091188094e-05 0.000124376929912 0.00176098230986)
(-2.98453546364e-05 0.000123053776135 0.00175841713092)
(-4.43384863863e-05 0.000120870270902 0.00175395190955)
(-5.8323301167e-05 0.000117854075681 0.00174730788188)
(-7.1637019988e-05 0.000114039303127 0.00173811229609)
(-8.41923519628e-05 0.000109290069534 0.00172592797071)
(-9.49480646737e-05 0.000104474579697 0.00171004681525)
(9.12629994945e-05 0.000100122839558 0.0017355227556)
(8.05179002658e-05 0.000103630135714 0.00174855862322)
(6.82759622264e-05 0.000107124691947 0.00175831576274)
(5.5423063836e-05 0.000109922702165 0.00176551476704)
(4.20397923169e-05 0.000112138988081 0.00177060579681)
(2.82514014987e-05 0.000113744667905 0.00177396645026)
(1.41934865409e-05 0.000114716971728 0.00177587227209)
(7.61391134777e-10 0.000115042526737 0.00177648915079)
(-1.41919828392e-05 0.000114717008617 0.00177587220066)
(-2.8249954678e-05 0.000113744737342 0.00177396628959)
(-4.20384361471e-05 0.0001121390827 0.00177060549348)
(-5.54218249738e-05 0.0001099228102 0.00176551420369)
(-6.82748522675e-05 0.000107124801147 0.00175831475213)
(-8.05169174665e-05 0.000103630250485 0.00174855734434)
(-9.12621960321e-05 0.000100122942571 0.00173552201655)
(8.68949899883e-05 9.49534909514e-05 0.00175446510481)
(7.63129509864e-05 9.71311441486e-05 0.00176503644838)
(6.44933333338e-05 9.93430026185e-05 0.00177272461111)
(5.2186950976e-05 0.000101145642776 0.0017782302242)
(3.94850407731e-05 0.000102576945561 0.00178201883702)
(2.64836148022e-05 0.000103611152661 0.00178446397301)
(1.32894256275e-05 0.000104234916182 0.00178582820785)
(7.78128966747e-10 0.000104443299789 0.00178626596686)
(-1.32878880325e-05 0.000104234972847 0.00178582817525)
(-2.64821308325e-05 0.000103611261384 0.0017844639029)
(-3.94836432879e-05 0.000102577098636 0.00178201870093)
(-5.21856674678e-05 0.000101145828427 0.00177822993554)
(-6.44921769172e-05 9.93432092059e-05 0.00177272399078)
(-7.63119266154e-05 9.7131367165e-05 0.0017650356692)
(-8.68941482955e-05 9.49536999775e-05 0.00175446492645)
(8.21389528531e-05 8.94233816334e-05 0.00176813507339)
(7.18701619355e-05 8.96920474785e-05 0.00177684404285)
(6.04109811899e-05 9.07682857924e-05 0.00178278014162)
(4.86915496738e-05 9.16328159389e-05 0.00178686618234)
(3.67232877924e-05 9.23104507857e-05 0.00178958550581)
(2.4574240065e-05 9.27904875879e-05 0.00179129322998)
(1.23140875869e-05 9.30759178622e-05 0.0017922270954)
(8.02078296376e-10 9.31706395591e-05 0.00179252352327)
(-1.23125010439e-05 9.30759868801e-05 0.00179222712594)
(-2.45727048344e-05 9.27906225258e-05 0.00179129330622)
(-3.67218338497e-05 9.23106446003e-05 0.00178958564207)
(-4.86902022517e-05 9.1633062329e-05 0.00178686636247)
(-6.04097592029e-05 9.07685745854e-05 0.00178278022483)
(-7.18690845234e-05 8.96923740763e-05 0.00177684431914)
(-8.21380611222e-05 8.9423696211e-05 0.00176813540487)
(2.98310969754e-07 4.70452340172e-07 0.000139335158242)
(1.94157081045e-07 6.08673731947e-07 0.000146235596711)
(1.50940445475e-07 6.89509281589e-07 0.000152486770178)
(1.08579685327e-07 7.52854578368e-07 0.000157882413341)
(7.2770070962e-08 7.98695869942e-07 0.000162256754864)
(4.3716372898e-08 8.2923845451e-07 0.000165476081798)
(2.01667729625e-08 8.46555102031e-07 0.000167448151335)
(-1.31995655443e-11 8.52179915844e-07 0.00016811678933)
(-2.01879039184e-08 8.46552555374e-07 0.000167448165876)
(-4.37234708411e-08 8.29234341162e-07 0.000165476110522)
(-7.27597533254e-08 7.9869091716e-07 0.000162256796041)
(-1.08559689157e-07 7.52846812824e-07 0.000157882464395)
(-1.50924372963e-07 6.89497554708e-07 0.000152486835059)
(-1.94152472208e-07 6.08654629853e-07 0.000146235728509)
(-2.98327116668e-07 4.70429045513e-07 0.000139335607017)
(2.62116154333e-06 3.19681725199e-06 0.000400331893734)
(2.2827729559e-06 3.89538571937e-06 0.000419095238071)
(2.01382775035e-06 4.48311815611e-06 0.000436053116894)
(1.69154231102e-06 4.99814717758e-06 0.000450656626254)
(1.31771890408e-06 5.4172883344e-06 0.000462472515384)
(9.02716489316e-07 5.72673552117e-06 0.000471156899083)
(4.58600637663e-07 5.91652958358e-06 0.000476470777597)
(3.97417597634e-11 5.98061259844e-06 0.000478267532115)
(-4.58509069666e-07 5.91652441891e-06 0.000476470809321)
(-9.02594009576e-07 5.72672301712e-06 0.000471156961712)
(-1.31756283958e-06 5.41726374751e-06 0.000462472604687)
(-1.69137729929e-06 4.99809995912e-06 0.000450656736306)
(-2.01369881099e-06 4.48304446712e-06 0.000436053261741)
(-2.28271025325e-06 3.89528086646e-06 0.000419095576453)
(-2.62119079737e-06 3.19669732224e-06 0.000400333016197)
(6.22231097445e-06 7.23141349787e-06 0.000644078614731)
(5.59602409633e-06 8.65630624638e-06 0.000673005063877)
(4.98663921962e-06 9.93662276815e-06 0.000699054697352)
(4.22696243565e-06 1.10749335537e-05 0.000721423301312)
(3.31807906771e-06 1.20140677656e-05 0.000739477333304)
(2.28615664935e-06 1.27142277027e-05 0.000752722208103)
(1.16581375562e-06 1.31465525119e-05 0.000760814880235)
(3.68789951358e-11 1.32929431987e-05 0.000763545747389)
(-1.16572582826e-06 1.31465337034e-05 0.000760814936966)
(-2.28603137643e-06 1.27141870803e-05 0.000752722318505)
(-3.31790961421e-06 1.20139994886e-05 0.000739477487011)
(-4.22677021283e-06 1.10748297221e-05 0.000721423482952)
(-4.9864715416e-06 9.93648455361e-06 0.000699054917653)
(-5.5959202311e-06 8.65614362961e-06 0.000673005541517)
(-6.22231624265e-06 7.2312521283e-06 0.000644080183214)
(1.05240103547e-05 1.19450585652e-05 0.000870592125925)
(9.55530144729e-06 1.4136132705e-05 0.0009078668447)
(8.52978316363e-06 1.61413824127e-05 0.000941256304146)
(7.23730343541e-06 1.79322918862e-05 0.00096980963523)
(5.68558903163e-06 1.94144165622e-05 0.000992774443641)
(3.91960526795e-06 2.05212688658e-05 0.00100957643914)
(1.99965895193e-06 2.12054365811e-05 0.00101982183563)
(6.16661028863e-11 2.14371393378e-05 0.00102327265287)
(-1.99952170162e-06 2.12054057225e-05 0.00101982189756)
(-3.9194313072e-06 2.05212036438e-05 0.00100957655683)
(-5.68537136412e-06 1.94143106499e-05 0.000992774599515)
(-7.2370621446e-06 1.79321395677e-05 0.000969809802924)
(-8.52956481119e-06 1.61411871573e-05 0.000941256483843)
(-9.55515034564e-06 1.41359155933e-05 0.000907867275943)
(-1.05239816949e-05 1.19448534078e-05 0.000870593775173)
(1.50698148357e-05 1.68437177194e-05 0.00107911495392)
(1.37178325463e-05 1.97562691367e-05 0.00112278030626)
(1.22368599919e-05 2.24224609241e-05 0.00116161834634)
(1.03690515283e-05 2.48053474203e-05 0.00119465076618)
(8.13674841454e-06 2.67764092763e-05 0.00122109593045)
(5.60464490603e-06 2.8247134807e-05 0.00124037523947)
(2.85794843405e-06 2.91555971706e-05 0.001252100848)
(9.72946459376e-11 2.94630676992e-05 0.00125604266477)
(-2.85774196808e-06 2.91555566522e-05 0.00125210089723)
(-5.60440743593e-06 2.82470500854e-05 0.00124037532758)
(-8.13647468031e-06 2.67762747528e-05 0.00122109603102)
(-1.03687598134e-05 2.48051590799e-05 0.00119465083903)
(-1.22365930912e-05 2.24222246039e-05 0.00116161837285)
(-1.37176337526e-05 1.97560118635e-05 0.00112278052272)
(-1.50697463468e-05 1.68434787079e-05 0.00107911639343)
(1.95477866269e-05 2.1602464146e-05 0.00126887064758)
(1.77870699641e-05 2.51392082191e-05 0.00131691681356)
(1.583711686e-05 2.83468687223e-05 0.00135927972245)
(1.33890206386e-05 3.12095350022e-05 0.00139507012587)
(1.0486091107e-05 3.35716459608e-05 0.00142356300375)
(7.21226881889e-06 3.533029617e-05 0.00144424461148)
(3.67449472403e-06 3.64149044499e-05 0.00145678402894)
(1.36061136989e-10 3.6781627524e-05 0.00146099091591)
(-3.67421354723e-06 3.64148567462e-05 0.00145678405058)
(-7.21196421956e-06 3.53301975224e-05 0.00144424463939)
(-1.04857606573e-05 3.35714920948e-05 0.0014235630011)
(-1.33886812146e-05 3.12093234622e-05 0.00139507003572)
(-1.58368065556e-05 2.83466064277e-05 0.00135927950074)
(-1.77868276682e-05 2.513892418e-05 0.00131691668358)
(-1.95476755786e-05 2.16022006035e-05 0.00126887168821)
(2.37250209774e-05 2.59865098541e-05 0.00143941913978)
(2.1546108486e-05 3.00145167488e-05 0.00148990208373)
(1.91344430211e-05 3.36119430255e-05 0.00153395930048)
(1.61306931432e-05 3.68126302021e-05 0.00157089207872)
(1.26028225178e-05 3.94434303292e-05 0.00160010346101)
(8.65238757331e-06 4.13959808497e-05 0.00162119909799)
(4.40336206391e-06 4.25975564102e-05 0.00163394376659)
(1.7327741104e-10 4.3003326969e-05 0.0016382103021)
(-4.40300958441e-06 4.25975042086e-05 0.00163394374986)
(-8.65202014711e-06 4.13958737864e-05 0.00162119904364)
(-1.26024403195e-05 3.94432649437e-05 0.00160010332073)
(-1.61303112349e-05 3.68124058346e-05 0.00157089177659)
(-1.91340934636e-05 3.36116665715e-05 0.00153395876331)
(-2.15458248421e-05 3.00142189822e-05 0.00148990152244)
(-2.37248659608e-05 2.59862312162e-05 0.00143941967425)
(2.74299098099e-05 2.98273639875e-05 0.00159078058158)
(2.48391553744e-05 3.41917450263e-05 0.00164192569805)
(2.19906803913e-05 3.80130692573e-05 0.0016860444174)
(1.84794729928e-05 4.13975365722e-05 0.00172270560642)
(1.43988420389e-05 4.41652807892e-05 0.00175149032217)
(9.86535864086e-06 4.62113973424e-05 0.00177215890131)
(5.01447372045e-06 4.746721693e-05 0.00178459535948)
(2.06486465437e-10 4.78907054422e-05 0.00178874909767)
(-5.01405771256e-06 4.74671631498e-05 0.00178459529864)
(-9.86493554798e-06 4.62112877673e-05 0.00177215875324)
(-1.43984144853e-05 4.41651130628e-05 0.00175149002692)
(-1.84790547504e-05 4.13973109062e-05 0.00172270506831)
(-2.19902977758e-05 3.80127920523e-05 0.00168604353365)
(-2.48388364257e-05 3.41914457914e-05 0.001641924675)
(-2.74297136085e-05 2.98270812309e-05 0.00159078057693)
(3.05455790453e-05 3.30141840999e-05 0.00172343264984)
(2.7563754763e-05 3.75499106628e-05 0.00177370888891)
(2.4317862356e-05 4.14291969329e-05 0.00181652465)
(2.03652050927e-05 4.48439744187e-05 0.00185176291842)
(1.58222893289e-05 4.76191251371e-05 0.00187920779586)
(1.08172242575e-05 4.96611616728e-05 0.00189878936769)
(5.49108065364e-06 5.09106547774e-05 0.0019105192892)
(2.34124667925e-10 5.13313529159e-05 0.0019144273093)
(-5.49061190918e-06 5.09106021319e-05 0.00191051918459)
(-1.08167552105e-05 4.96610548273e-05 0.00189878912731)
(-1.58218245926e-05 4.76189625538e-05 0.00187920734923)
(-2.03647568864e-05 4.48437566045e-05 0.0018517621512)
(-2.43174519173e-05 4.14289297379e-05 0.00181652343233)
(-2.75634047893e-05 3.75496215279e-05 0.00177370743454)
(-3.05453461432e-05 3.30139072736e-05 0.00172343214653)
(3.30024111595e-05 3.54848500793e-05 0.00183824192377)
(2.96625058599e-05 4.0026194338e-05 0.00188640452423)
(2.60698637793e-05 4.38071337048e-05 0.00192685844296)
(2.17542164065e-05 4.71087306776e-05 0.00195981266549)
(1.68507316727e-05 4.97719844483e-05 0.00198525419662)
(1.14947081868e-05 5.1721214875e-05 0.00200327989528)
(5.82710734615e-06 5.29098877311e-05 0.0020140248053)
(2.55831769709e-10 5.33094408601e-05 0.00201759502802)
(-5.82659718889e-06 5.29098387696e-05 0.00201402466452)
(-1.14942030671e-05 5.17211159483e-05 0.00200327957945)
(-1.68502378394e-05 4.97718343763e-05 0.00198525362756)
(-2.17537451992e-05 4.71085301007e-05 0.00195981171349)
(-2.60694321126e-05 4.38068870175e-05 0.00192685695589)
(-2.96621323674e-05 4.00259256116e-05 0.0018864027372)
(-3.30021475723e-05 3.5484589136e-05 0.00183824104074)
(3.47699386149e-05 3.72171205124e-05 0.00193636418814)
(3.11146149144e-05 4.16043417327e-05 0.00198147225458)
(2.72341885037e-05 4.51455871387e-05 0.00201882267262)
(2.26417768886e-05 4.82060180086e-05 0.00204892284737)
(1.74848234883e-05 5.06533041482e-05 0.00207194045675)
(1.19005920784e-05 5.24338514952e-05 0.00208812341835)
(6.02470282804e-06 5.35157338652e-05 0.00209771749717)
(2.71522416093e-10 5.3878763478e-05 0.00210089597513)
(-6.02416268047e-06 5.35156905504e-05 0.00209771733672)
(-1.1900060913e-05 5.24337640968e-05 0.00208812306299)
(-1.74843086658e-05 5.06531718906e-05 0.0020719398256)
(-2.26412889623e-05 4.82058410062e-05 0.00204892180088)
(-2.72337414189e-05 4.5145368471e-05 0.00201882104222)
(-3.11142238564e-05 4.16041021012e-05 0.00198147031023)
(-3.47696518194e-05 3.72168834559e-05 0.0019363631335)
(3.58473136477e-05 3.82186790139e-05 0.00201913218386)
(3.19269274467e-05 4.23016015466e-05 0.00206055554362)
(2.78243952803e-05 4.54786431824e-05 0.00209437574607)
(2.30457907598e-05 4.8188732538e-05 0.00212132406955)
(1.77431592853e-05 5.03345616296e-05 0.00214171443347)
(1.20499676197e-05 5.1886006199e-05 0.00215592649495)
(6.09224795986e-06 5.28251937485e-05 0.00216430085461)
(2.81770852538e-10 5.31397948872e-05 0.00216706624881)
(-6.09168831795e-06 5.28251578011e-05 0.00216430070187)
(-1.20494194903e-05 5.18859336705e-05 0.00215592615936)
(-1.7742631044e-05 5.03344513865e-05 0.00214171383936)
(-2.30452926862e-05 4.81885839852e-05 0.00212132307591)
(-2.78239389312e-05 4.54784580185e-05 0.00209437417196)
(-3.19265259908e-05 4.23013963188e-05 0.00206055370062)
(-3.58470102178e-05 3.82184718244e-05 0.00201913126466)
(3.6251878793e-05 3.85110161771e-05 0.00208793754454)
(3.21270374317e-05 4.21517136805e-05 0.0021253853152)
(2.78765810882e-05 4.48603658557e-05 0.00215555756356)
(2.30040881082e-05 4.71327636478e-05 0.00217928967302)
(1.76596431992e-05 4.89134555438e-05 0.00219702392998)
(1.19680595374e-05 5.01929673289e-05 0.00220926150266)
(6.04312009937e-06 5.09646881865e-05 0.00221642274878)
(2.87463407317e-10 5.12227430985e-05 0.00221877903707)
(-6.04254960662e-06 5.09646607795e-05 0.00221642264352)
(-1.19675024653e-05 5.01929116267e-05 0.00220926127288)
(-1.76591084164e-05 4.89133699798e-05 0.00219702351756)
(-2.30035853536e-05 4.71326464494e-05 0.00217928894908)
(-2.78761206722e-05 4.48602163813e-05 0.00215555633521)
(-3.21266308732e-05 4.21515456609e-05 0.00212538391654)
(-3.62515658605e-05 3.85108405309e-05 0.00208793713932)
(3.60306095622e-05 3.81222556322e-05 0.00214410443135)
(3.17774971656e-05 4.124451931e-05 0.00217776261383)
(2.74603309948e-05 4.33830838755e-05 0.00220444878416)
(2.25780200487e-05 4.51486223796e-05 0.00222505618846)
(1.7283811005e-05 4.65181044854e-05 0.00224021820781)
(1.16893521428e-05 4.74960866228e-05 0.00225056051711)
(5.89495049092e-06 4.80835638729e-05 0.00225656645521)
(2.89979931638e-10 4.82796092311e-05 0.00225853491169)
(-5.89437542496e-06 4.80835454666e-05 0.002256566448)
(-1.16887914885e-05 4.74960479532e-05 0.00225056050272)
(-1.72832744309e-05 4.65180434017e-05 0.00224021816419)
(-2.2577517679e-05 4.5148535443e-05 0.0022250560266)
(-2.74598711495e-05 4.33829706503e-05 0.00220444830799)
(-3.17770902556e-05 4.12443888801e-05 0.00217776210391)
(-3.60302908835e-05 3.81221130619e-05 0.00214410493129)
(3.52275520046e-05 3.76018787996e-05 0.00218889235976)
(3.09674594226e-05 3.98003851624e-05 0.00221985840212)
(2.66447456604e-05 4.12256879585e-05 0.00224319174156)
(2.18252724339e-05 4.23942271228e-05 0.00226076670974)
(1.66613271739e-05 4.32854359238e-05 0.00227347563999)
(1.1245190353e-05 4.39154949605e-05 0.00228204232835)
(5.66368128053e-06 4.42911803107e-05 0.00228697923915)
(2.90630239143e-10 4.44160585772e-05 0.00228859112273)
(-5.66310567706e-06 4.42911678598e-05 0.00228697937471)
(-1.12446304124e-05 4.39154690741e-05 0.00228204262591)
(-1.66607922235e-05 4.32853936988e-05 0.00227347613409)
(-2.1824771013e-05 4.23941671171e-05 0.00226076740001)
(-2.66442860821e-05 4.12256086791e-05 0.00224319246725)
(-3.09670542553e-05 3.98002946353e-05 0.00221985953862)
(-3.5227229881e-05 3.76017712148e-05 0.00218889373745)
(-6.74050663684e-08 -1.38332074619e-07 9.98670652088e-05)
(-1.52887534645e-08 -1.9736614189e-07 0.000104820040885)
(2.07267908176e-08 -2.32223133576e-07 0.00010929664589)
(4.48273812125e-08 -2.50694198618e-07 0.000113171914059)
(5.2462642285e-08 -2.56843277021e-07 0.000116320846391)
(4.49885782947e-08 -2.56317541759e-07 0.00011864291366)
(2.57473551414e-08 -2.53859409732e-07 0.000120067467503)
(3.37736036081e-13 -2.52659163754e-07 0.000120551178538)
(-2.57483141701e-08 -2.53864151479e-07 0.000120067491437)
(-4.49944908632e-08 -2.56326944715e-07 0.000118642957491)
(-5.24740628606e-08 -2.56856054427e-07 0.000116320902931)
(-4.48365514996e-08 -2.50706926379e-07 0.000113171977136)
(-2.07318400072e-08 -2.32238604932e-07 0.000109296720263)
(1.52826074355e-08 -1.97381623889e-07 0.000104820178438)
(6.73950840133e-08 -1.38351282149e-07 9.9867491504e-05)
(5.30967459442e-08 -9.08064153437e-08 0.000298551258652)
(1.75641074925e-07 -1.78673296275e-07 0.00031307126231)
(2.52679675485e-07 -2.11190506439e-07 0.000326217590933)
(2.88081034265e-07 -2.0511573501e-07 0.000337596955022)
(2.73218509149e-07 -1.74720396696e-07 0.000346844123309)
(2.12260451385e-07 -1.37741375059e-07 0.000353664592378)
(1.15858805282e-07 -1.08920104741e-07 0.000357848306065)
(3.29692688276e-11 -9.81262966509e-08 0.000359265083406)
(-1.15798143308e-07 -1.08946741435e-07 0.000357848363163)
(-2.12215282288e-07 -1.3779206091e-07 0.00035366469538)
(-2.73192663119e-07 -1.74787785051e-07 0.000346844252732)
(-2.88062624539e-07 -2.05189939236e-07 0.000337597095202)
(-2.52662523108e-07 -2.11276755924e-07 0.000326217759107)
(-1.75637344039e-07 -1.7876278525e-07 0.000313071614631)
(-5.31159436591e-08 -9.09020075813e-08 0.000298552332475)
(4.56003362442e-07 3.03673376766e-07 0.0004941463303)
(6.17352576956e-07 2.75092719786e-07 0.000517817591837)
(7.01078493064e-07 3.21552841946e-07 0.000539241427329)
(7.08424776447e-07 4.17846341944e-07 0.000557773188474)
(6.28755395058e-07 5.37074286477e-07 0.000572824677668)
(4.70117724989e-07 6.48412723802e-07 0.000583922560724)
(2.51394379556e-07 7.26492264508e-07 0.000590727053662)
(1.07739645606e-12 7.54522936654e-07 0.000593027565927)
(-2.51394717985e-07 7.26445150997e-07 0.000590727138375)
(-4.70125391105e-07 6.48323620211e-07 0.0005839227119)
(-6.28770251541e-07 5.36954866308e-07 0.000572824863192)
(-7.08434067607e-07 4.17711311425e-07 0.000557773380486)
(-7.01075414124e-07 3.21404249541e-07 0.000539241645114)
(-6.17350860031e-07 2.74945878843e-07 0.000517818059341)
(-4.56022902013e-07 3.03533536501e-07 0.000494147814524)
(1.21593741889e-06 1.11807825117e-06 0.000685722681266)
(1.38745618167e-06 1.24293566217e-06 0.000717966442706)
(1.44053073675e-06 1.45616035226e-06 0.000747092610898)
(1.37326633011e-06 1.71902170751e-06 0.000772248916259)
(1.1745493609e-06 1.98907427159e-06 0.000792655289461)
(8.58098708751e-07 2.22036302835e-06 0.000807687271787)
(4.52974932497e-07 2.37555201873e-06 0.000816896322361)
(-2.15606367097e-11 2.43018305398e-06 0.000820005621734)
(-4.53018296561e-07 2.37548659592e-06 0.000816896408101)
(-8.58142713493e-07 2.22023922331e-06 0.000807687419801)
(-1.17459102508e-06 1.98890685134e-06 0.000792655458081)
(-1.37329421488e-06 1.71882960715e-06 0.000772249066829)
(-1.44054000626e-06 1.45595355296e-06 0.000747092757845)
(-1.38745929499e-06 1.24273356763e-06 0.000717966843733)
(-1.21595853075e-06 1.11789443176e-06 0.000685724240769)
(2.28762081259e-06 2.28950068731e-06 0.000872022633906)
(2.44240726827e-06 2.63590151122e-06 0.000912041093065)
(2.43034219156e-06 3.07881768433e-06 0.000948063826746)
(2.24671893276e-06 3.56147732664e-06 0.00097909748011)
(1.88145044409e-06 4.02428718825e-06 0.00100421788948)
(1.35560940927e-06 4.40554497773e-06 0.00102269171682)
(7.09936969279e-07 4.65581420875e-06 0.00103399483314)
(-4.02966208306e-11 4.7430191643e-06 0.00103780625605)
(-7.10016079459e-07 4.65573531578e-06 0.00103399489499)
(-1.35568414551e-06 4.40539510104e-06 0.00102269181329)
(-1.88151596311e-06 4.02408255408e-06 0.00100421797145)
(-2.24676523703e-06 3.56123927002e-06 0.000979097498169)
(-2.4303656965e-06 3.07856314973e-06 0.000948063783101)
(-2.44241884142e-06 2.63565509547e-06 0.000912041257614)
(-2.28764566158e-06 2.28928000468e-06 0.000872023995351)
(3.60840059664e-06 3.7378801355e-06 0.00105157560366)
(3.72123935561e-06 4.34582168117e-06 0.0010983357209)
(3.61332874199e-06 5.05251219542e-06 0.00114021391472)