/*--------------------------------*- C++ -*----------------------------------*\
  =========                 |
  \\      /  F ield         | OpenFOAM: The Open Source CFD Toolbox
   \\    /   O peration     | Website:  https://openfoam.org
    \\  /    A nd           | Version:  7
     \\/     M anipulation  |
\*---------------------------------------------------------------------------*/
FoamFile
{
    version     2.0;
    format      ascii;
    class       volVectorField;
    location    "1.66";
    object      U;
}
// * * * * * * * * * * * * * * * * * * * * * * * * * * * * * * * * * * * * * //

dimensions      [0 1 -1 0 0 0 0];

internalField   nonuniform List<vector> 
22500
(
(-4.25691331906e-05 -4.75328461187e-05 0.000243850080734)
(-3.97039901033e-05 -5.4313608727e-05 0.000253875269688)
(-3.53251581286e-05 -6.09881588244e-05 0.000261105979232)
(-2.97111461621e-05 -6.69279217592e-05 0.000266130760671)
(-2.30841080003e-05 -7.18292582989e-05 0.000269594779541)
(-1.5735002901e-05 -7.54617427643e-05 0.000271874880688)
(-7.89226261529e-06 -7.76882492491e-05 0.00027318119067)
(2.0503711203e-07 -7.84259555408e-05 0.00027364442267)
(8.29782649836e-06 -7.76432458304e-05 0.000273341038884)
(1.61272451516e-05 -7.53736268176e-05 0.000272192662457)
(2.34557892489e-05 -7.17012858825e-05 0.000270066891679)
(3.00562840937e-05 -6.6765767305e-05 0.000266751188229)
(3.56395872665e-05 -6.07975133206e-05 0.000261866898828)
(3.99864423827e-05 -5.4102914117e-05 0.000254764467887)
(4.28072160497e-05 -4.73210952251e-05 0.000244838437267)
(-0.000126575440219 -0.000140537760185 0.000135294228584)
(-0.000117705730625 -0.000160406383747 0.00010403674091)
(-0.000104823889328 -0.000179785530814 6.73800334346e-05)
(-8.8323729941e-05 -0.000196921081007 3.05862064642e-05)
(-6.87872981979e-05 -0.000211033133374 -2.04787942059e-06)
(-4.69852809231e-05 -0.000221507187114 -2.7440197539e-05)
(-2.36242748777e-05 -0.000227940479428 -4.34811717953e-05)
(5.41275461809e-07 -0.000230075797459 -4.88615777512e-05)
(2.46958219603e-05 -0.000227818233802 -4.30280621625e-05)
(4.80246307477e-05 -0.000221267339473 -2.6537467945e-05)
(6.9775809208e-05 -0.000210684171005 -7.02474080696e-07)
(8.9245792661e-05 -0.000196477304255 3.23614566727e-05)
(0.000105667243446 -0.000179263627552 6.95674218626e-05)
(0.000118460758892 -0.000159829624289 0.000106606542925)
(0.000127213624707 -0.000139953201151 0.000138172688152)
(-0.000206082753525 -0.000227659076578 -0.000496085098057)
(-0.000190629196675 -0.000259196535524 -0.000605828648647)
(-0.000169383048452 -0.000289246453737 -0.000717783908199)
(-0.000142545004673 -0.000315552070563 -0.000821321680876)
(-0.000110989275558 -0.000337084119356 -0.000908730612976)
(-7.5838681724e-05 -0.000353028363627 -0.000974664862624)
(-3.8205679422e-05 -0.000362815505134 -0.00101556266652)
(7.09329149272e-07 -0.000366070269958 -0.00102927713704)
(3.96124216254e-05 -0.000362653446971 -0.00101493763487)
(7.72106022394e-05 -0.000352709142129 -0.000973414591033)
(0.000112305307724 -0.000336616878014 -0.000906853899041)
(0.000143786628821 -0.000314952587289 -0.000818820606151)
(0.000170534484209 -0.000288535524598 -0.000714664579752)
(0.000191672960311 -0.000258403484638 -0.000602109901566)
(0.000206982962702 -0.000226843395469 -0.000491845515871)
(-0.000275497848496 -0.000303388941339 -0.00143119002389)
(-0.000253506823614 -0.000343825962676 -0.00161586434123)
(-0.000224431325595 -0.000381454174275 -0.0017938298576)
(-0.000188392560372 -0.000414095144508 -0.00195208494542)
(-0.000146482316992 -0.000440654999128 -0.00208204680159)
(-0.000100040466902 -0.000460270922355 -0.00217820697742)
(-5.04611858449e-05 -0.000472301079386 -0.00223712450552)
(7.40078830514e-07 -0.000476309278358 -0.0022568080917)
(5.19316403759e-05 -0.000472132699394 -0.00223645108757)
(0.000101482568405 -0.000459938192008 -0.0021768540686)
(0.000147878110394 -0.000440165304566 -0.00207999960263)
(0.000189725206601 -0.000413461593562 -0.0019493243664)
(0.000225685404746 -0.000380695502498 -0.00179033496623)
(0.000254659903382 -0.000342969735195 -0.00161162029885)
(0.000276515065083 -0.000302489973202 -0.00142624118404)
(-0.0003323514973 -0.000365464478682 -0.00244520393443)
(-0.000304438170322 -0.000411719753051 -0.00267659564935)
(-0.000268444272732 -0.000453912602883 -0.00289070909204)
(-0.000224684839104 -0.000490253237337 -0.00307588506402)
(-0.000174381938627 -0.000519695126873 -0.00322494366516)
(-0.000118987014764 -0.000541400210469 -0.00333368769158)
(-6.00583457451e-05 -0.000554704404953 -0.00339971146128)
(6.99236637721e-07 -0.000559144611481 -0.00342168769095)
(6.14496667292e-05 -0.000554547303566 -0.00339906003846)
(0.00012035743505 -0.000541089265069 -0.0033323745656)
(0.000175717724364 -0.000519236003308 -0.00322294364727)
(0.000225972471086 -0.000489656085787 -0.00307316095447)
(0.000269670812295 -0.000453192031001 -0.00288721390276)
(0.000305580183952 -0.000410899054436 -0.00267227845411)
(0.00033338050638 -0.000364583486346 -0.00244006021649)
(-0.000376653626446 -0.000414081701681 -0.00339010069716)
(-0.000343738656351 -0.000463387773848 -0.00363809198392)
(-0.00030193652869 -0.000507726935832 -0.00386078607772)
(-0.000252010388143 -0.000545703849355 -0.00404976259379)
(-0.000195223200289 -0.000576387350621 -0.00419991975002)
(-0.000133068374739 -0.000598985904517 -0.00430850266091)
(-6.71803199861e-05 -0.000612835246056 -0.00437406113012)
(6.41676405122e-07 -0.000617463698275 -0.004395825931)
(6.8458129887e-05 -0.000612694487851 -0.00437345147352)
(0.000134330008489 -0.000598707367567 -0.00430727164911)
(0.000196457844776 -0.000575975983784 -0.00419803804347)
(0.000253207263269 -0.000545168171732 -0.0040471840538)
(0.000303085333118 -0.000507078481822 -0.00385744844154)
(0.000344817229802 -0.000462645983027 -0.00363391942313)
(0.000377641965242 -0.000413269329679 -0.00338504705076)
(-0.000409624404518 -0.000450542109101 -0.00420329361861)
(-0.000372679658584 -0.000500606628495 -0.00444768364258)
(-0.000326200280698 -0.000545263388779 -0.00466287982319)
(-0.000271564301835 -0.000583323521781 -0.00484360972966)
(-0.000209995542207 -0.00061402645013 -0.00498633754483)
(-0.000142983091077 -0.00063663031734 -0.00508916429422)
(-7.21770104463e-05 -0.000650483138653 -0.00515110921626)
(5.95363493191e-07 -0.000655117201801 -0.00517164807433)
(7.33628328323e-05 -0.000650357706691 -0.00515053450615)
(0.000144154574456 -0.000636382515236 -0.00508800382791)
(0.000211143127994 -0.000613661349706 -0.0049845627149)
(0.000272678644693 -0.00058284924719 -0.00484117355318)
(0.000327272936517 -0.000544689984727 -0.0046597158548)
(0.00037369032422 -0.000499951020452 -0.00444370456605)
(0.000410560234957 -0.000449812865836 -0.00419842702453)
(-0.000432818676061 -0.000476411952464 -0.00487846918172)
(-0.000392723295977 -0.000525367181661 -0.00510987201398)
(-0.000342612558036 -0.000568927975597 -0.00531163042438)
(-0.000284553172944 -0.000605866582536 -0.00548057894594)
(-0.000219668230739 -0.000635640901877 -0.0056139099708)
(-0.000149406311418 -0.000657559618323 -0.00570997081285)
(-7.53914935827e-05 -0.000670993507702 -0.0057678477398)
(5.6843844569e-07 -0.000675489915036 -0.00578703128316)
(7.65234883519e-05 -0.000670880672722 -0.0057672935876)
(0.000150523968054 -0.000657337238378 -0.00570885313453)
(0.000220762062121 -0.000635314450104 -0.00561220339589)
(0.000285614189787 -0.000605444415363 -0.00547824034166)
(0.00034363305976 -0.00056841967583 -0.00530859632859)
(0.000393684837597 -0.000524788399328 -0.00510605308936)
(0.000433712837774 -0.00047576148262 -0.0048737804649)
(-0.000447681901215 -0.000493131769135 -0.00543450289242)
(-0.000405176066335 -0.00053943866678 -0.00565068019352)
(-0.000352360989953 -0.000580741355282 -0.00583875330743)
(-0.000291987332153 -0.000615576295209 -0.00599656670574)
(-0.000225037278157 -0.000643648211941 -0.00612139345818)
(-0.000152886778319 -0.000664317116202 -0.0062114859006)
(-7.71040639106e-05 -0.000676985438949 -0.00626582578464)
(5.59525514419e-07 -0.000681226351287 -0.00628383638434)
(7.82179802632e-05 -0.000676882850124 -0.0062652792752)
(0.000153985545193 -0.00066411539169 -0.00621038545542)
(0.000226110873035 -0.000643353123695 -0.0061197177295)
(0.0002930264744 -0.000615196421171 -0.00599427829126)
(0.00035335790801 -0.000580286221575 -0.00583579506889)
(0.000406113850791 -0.00053892290336 -0.00564696529377)
(0.000448554030424 -0.000492549133641 -0.00542994228491)
(-0.00045540420082 -0.0005018980301 -0.00589598626751)
(-0.000411096691474 -0.000544264549567 -0.00609809015378)
(-0.000356396052702 -0.00058229487325 -0.00627436759265)
(-0.00029466439235 -0.000614199170677 -0.00642288225177)
(-0.000226723250035 -0.00063992078705 -0.00654066282837)
(-0.000153848761294 -0.000658866729833 -0.00662580219649)
(-7.75315586032e-05 -0.000670477888752 -0.00667719600063)
(5.64365480069e-07 -0.000674364104357 -0.00669422541107)
(7.8654842141e-05 -0.000670384083988 -0.00667664827186)
(0.000154955894284 -0.000658682567315 -0.006624701151)
(0.000227803498604 -0.000639652057674 -0.00653899103342)
(0.000295707879207 -0.000613854305759 -0.00642060836112)
(0.000357394473015 -0.000581883226239 -0.0062714418122)
(0.000412034257545 -0.000543799554353 -0.00609442926986)
(0.000456274579687 -0.000501371853959 -0.00589150028499)
(-0.000456929797299 -0.000503686315999 -0.00628461265753)
(-0.000411326093103 -0.000540997805727 -0.00647483088886)
(-0.000355478901407 -0.000574839681362 -0.00664146215867)
(-0.000293222412023 -0.000603118701224 -0.00678230133693)
(-0.000225217501062 -0.000625951702848 -0.00689409324948)
(-0.000152625202681 -0.000642778577648 -0.0069749067047)
(-7.68435803151e-05 -0.000653086376654 -0.00702367920921)
(5.78700886756e-07 -0.000656533960652 -0.00703982642068)
(7.79952711464e-05 -0.00065300071208 -0.00702312535243)
(0.000153759871785 -0.00064261051717 -0.00697379495338)
(0.000226323748505 -0.000625706689563 -0.00689240958497)
(0.000294289732521 -0.000602804575927 -0.0067800201417)
(0.000356498258898 -0.000574465178062 -0.00663854111247)
(0.000412282556304 -0.000540574731581 -0.00647119010768)
(0.000457816025124 -0.000503207289482 -0.00628016009919)
(-0.000453005781804 -0.000499299738901 -0.00661690125068)
(-0.000406560350443 -0.000530558109121 -0.00679744942392)
(-0.000350256432846 -0.000559399175057 -0.00695617198022)
(-0.000288200896918 -0.000583498769913 -0.00709030043756)
(-0.000220926561996 -0.000603007964157 -0.00719651614396)
(-0.000149487054615 -0.000617383844662 -0.00727313449171)
(-7.51769761197e-05 -0.000626177856861 -0.00731930695397)
(5.99117757384e-07 -0.000629114684774 -0.00733457022398)
(7.636932117e-05 -0.000626100295516 -0.00731874529091)
(0.000150661774301 -0.000617231614144 -0.00727200826658)
(0.000222071746693 -0.00060278589242 -0.00719481404587)
(0.000289305494222 -0.000583213650331 -0.00708800193639)
(0.000351310700464 -0.000559058608983 -0.00695324232148)
(0.000407550007946 -0.000530171806542 -0.00679381241741)
(0.000453921841859 -0.000498862113463 -0.00661245943589)
(-0.000444238958754 -0.000489285081574 -0.00690463235273)
(-0.000397470162814 -0.000513628253881 -0.00707769646429)
(-0.000341336630669 -0.000536851568358 -0.00722972381086)
(-0.000280077399949 -0.000556389165114 -0.007357363793)
(-0.000214192020235 -0.000572232520817 -0.00745778983754)
(-0.000144656150966 -0.000583874389073 -0.00752991482379)
(-7.26427996172e-05 -0.000590970954235 -0.00757326476251)
(6.22990160169e-07 -0.000593334110938 -0.00758756441866)
(7.38828430208e-05 -0.000590901779013 -0.00757269630259)
(0.000145878261669 -0.00058373845781 -0.00752877559542)
(0.000215383964868 -0.000572033835217 -0.00745607031637)
(0.000281227758454 -0.000556133163239 -0.0073550474559)
(0.00034243505315 -0.000536544221355 -0.00722678351183)
(0.000398502855452 -0.000513276585622 -0.00707406274923)
(0.000445194898582 -0.000488886232393 -0.00690020227514)
(-0.000431474115901 -0.000473843247443 -0.00715592776047)
(-0.000384973716539 -0.000490551995099 -0.00732439647348)
(-0.000329352510205 -0.000507889438747 -0.00747025869768)
(-0.000269287459422 -0.000522668036907 -0.00759082743626)
(-0.000205314301023 -0.000534587145036 -0.00768472120381)
(-0.000138331701198 -0.000543271200536 -0.00775175270979)
(-6.93435826507e-05 -0.000548529621156 -0.00779190538949)
(6.48294220299e-07 -0.000550271961696 -0.0078051162888)
(7.06342502425e-05 -0.000548468943211 -0.0077913336685)
(0.000139604375809 -0.000543151782501 -0.00775060681804)
(0.000206556595229 -0.000534412044637 -0.00768299233712)
(0.000270487740636 -0.000522441329382 -0.00758850118628)
(0.000330500103632 -0.000507615280354 -0.00746731435057)
(0.000386055144074 -0.000490234258476 -0.00732077573168)
(0.00043247825309 -0.000473480247263 -0.00715153613185)
(-0.000417327720098 -0.00045418822671 -0.00737476896483)
(-0.00037085658056 -0.000461505457394 -0.00754392614301)
(-0.000315411086873 -0.000473271943354 -0.00768281275281)
(-0.000256741538613 -0.000483037309594 -0.00779523974947)
(-0.0001950294478 -0.000490764491292 -0.00788182946387)
(-0.000131047010797 -0.000496303281132 -0.00794327345539)
(-6.55610680813e-05 -0.000499623822064 -0.00797995430627)
(6.73620014886e-07 -0.00050071457243 -0.00799199120161)
(6.69024350976e-05 -0.000499571422067 -0.00797938514584)
(0.000132370459707 -0.000496199874295 -0.0079421317908)
(0.000196322495563 -0.000490612254887 -0.00788010663036)
(0.000257992300415 -0.000482839129504 -0.00779292128786)
(0.000316608732723 -0.00047303058486 -0.00767988112895)
(0.000371986673285 -0.000461221403907 -0.00754031823842)
(0.000418385031802 -0.00045385923198 -0.00737048736151)
(2.33739766848e-06 3.25276871843e-06 -0.000223387324931)
(1.91231851029e-06 4.15009436004e-06 -0.000234258649712)
(1.53544754929e-06 4.85350647121e-06 -0.000244128052269)
(1.21506989481e-06 5.39562903849e-06 -0.000252740180036)
(8.80590067669e-07 5.81502589457e-06 -0.000259796148022)
(5.62430227059e-07 6.10638157568e-06 -0.000265033238476)
(2.56815541584e-07 6.27623312771e-06 -0.000268260049078)
(-3.88025601732e-08 6.3290536459e-06 -0.000269356940721)
(-3.33996602461e-07 6.26578102609e-06 -0.000268254506737)
(-6.38501209492e-07 6.08542871697e-06 -0.000265021456472)
(-9.55847437821e-07 5.78372962348e-06 -0.000259776387938)
(-1.2890379729e-06 5.35530128957e-06 -0.000252709679096)
(-1.60664247313e-06 4.80483608523e-06 -0.000244084295506)
(-1.97906758336e-06 4.09682854849e-06 -0.000234199404276)
(-2.39174087666e-06 3.20142819877e-06 -0.000223314049341)
(1.61922270625e-05 1.93954752249e-05 -0.000684119767836)
(1.48309601653e-05 2.33564154311e-05 -0.000718138635226)
(1.30550081936e-05 2.69433145411e-05 -0.000749217123025)
(1.10019976861e-05 2.99882079099e-05 -0.000776399138633)
(8.55154842037e-06 3.24653033272e-05 -0.000798711032491)
(5.82318111116e-06 3.42781227264e-05 -0.000815300770617)
(2.90149495787e-06 3.53798495151e-05 -0.000825531949483)
(-1.14488985384e-07 3.57417658746e-05 -0.000829002211168)
(-3.12929381216e-06 3.53529495915e-05 -0.000825518831586)
(-6.04762272688e-06 3.42244769901e-05 -0.000815272274234)
(-8.77186050419e-06 3.23859946335e-05 -0.000798661600916)
(-1.12166142836e-05 2.98867629273e-05 -0.000776320019557)
(-1.32596308796e-05 2.68229680289e-05 -0.000749099889241)
(-1.50203659889e-05 2.32259956619e-05 -0.000717975932352)
(-1.63488537719e-05 1.92697364832e-05 -0.000683914130288)
(3.41641072468e-05 3.97800186559e-05 -0.0011503119596)
(3.1522885197e-05 4.66871766147e-05 -0.00120757399094)
(2.7834460687e-05 5.30750522372e-05 -0.00125993401776)
(2.34304753878e-05 5.85058971358e-05 -0.0013057150847)
(1.82205193473e-05 6.29003629445e-05 -0.00134327369844)
(1.24235183027e-05 6.61071401596e-05 -0.00137119024619)
(6.22425540173e-06 6.80525237314e-05 -0.00138839830138)
(-1.74422190599e-07 6.86933707523e-05 -0.00139422434318)
(-6.5717190676e-06 6.80141849586e-05 -0.00138837392602)
(-1.27669381366e-05 6.60306332126e-05 -0.00137113802045)
(-1.85587069218e-05 6.27873694302e-05 -0.00134318522081)
(-2.3761935496e-05 5.83612886015e-05 -0.00130557726338)
(-2.81541493733e-05 5.2904625393e-05 -0.00125973363005)
(-3.18229506938e-05 4.65023379678e-05 -0.0012072996946)
(-3.44205778007e-05 3.96013340298e-05 -0.00114996846753)
(5.12897164907e-05 5.89244519694e-05 -0.00161440284358)
(4.70368091743e-05 6.77261516033e-05 -0.00169355820186)
(4.12641203694e-05 7.58624938851e-05 -0.00176580126011)
(3.44809159846e-05 8.26824423552e-05 -0.00182886278747)
(2.66668162321e-05 8.81246750675e-05 -0.00188052291049)
(1.81137652412e-05 9.20527166852e-05 -0.00191888093428)
(9.06604621627e-06 9.44174637265e-05 -0.00194250430185)
(-2.24873756806e-07 9.51936440441e-05 -0.00195048965481)
(-9.51452855853e-06 9.43728718851e-05 -0.00194246429262)
(-1.85583237606e-05 9.19638887217e-05 -0.00191879694608)
(-2.71059166986e-05 8.79937452277e-05 -0.0018803853836)
(-3.49129530945e-05 8.25147144743e-05 -0.00182865691549)
(-4.16838285893e-05 7.56653211434e-05 -0.00176551139741)
(-4.74344713696e-05 6.75114403123e-05 -0.00169317008708)
(-5.16381433991e-05 5.87156870911e-05 -0.00161392616027)
(6.44576438204e-05 7.33581191315e-05 -0.00206868524623)
(5.84689391322e-05 8.27863595856e-05 -0.00216752576469)
(5.08232499288e-05 9.1414964152e-05 -0.00225753117733)
(4.2097130776e-05 9.85078127722e-05 -0.00233599458677)
(3.23366912811e-05 0.000104073721372 -0.00240020849926)
(2.18579386191e-05 0.000108037200507 -0.00244785631238)
(1.09108978298e-05 0.000110400843227 -0.00247718374317)
(-2.62914822742e-07 0.000111171841231 -0.00248708466939)
(-1.14357736378e-05 0.000110353601673 -0.00247712172731)
(-2.23796051037e-05 0.00010794332597 -0.00244772878787)
(-3.28535472829e-05 0.000103935519335 -0.00240000684725)
(-4.26074952858e-05 9.83305549685e-05 -0.00233570542595)
(-5.13218924888e-05 9.12064844107e-05 -0.00225713991235)
(-5.89456613786e-05 8.25585000572e-05 -0.00216701814833)
(-6.48841309782e-05 7.31348074412e-05 -0.00206807562148)
(7.3015101043e-05 8.2408179615e-05 -0.0025081808781)
(6.54245659309e-05 9.1549406228e-05 -0.00262443010307)
(5.63480018382e-05 9.97814394548e-05 -0.00273011690386)
(4.62868854523e-05 0.000106419444606 -0.00282220108525)
(3.53293422654e-05 0.000111543394197 -0.00289753522596)
(2.37712917371e-05 0.000115144585915 -0.00295342029115)
(1.18322257052e-05 0.000117272522804 -0.00298780647151)
(-2.88147284448e-07 0.000117961782662 -0.00299940277207)
(-1.240796156e-05 0.000117225183617 -0.00298771550802)
(-2.43448452709e-05 0.000115050669773 -0.00295323622854)
(-3.58992583123e-05 0.000111405179901 -0.00289725221693)
(-4.68515645886e-05 0.000106241914333 -0.00282180990035)
(-5.6902440963e-05 9.9572261516e-05 -0.00272960732626)
(-6.59591489596e-05 9.13197481103e-05 -0.0026237908674)
(-7.35025341238e-05 8.21811145606e-05 -0.00250743139359)
(7.75523756254e-05 8.68338024321e-05 -0.00293059552558)
(6.86742220729e-05 9.52177168294e-05 -0.00306216231672)
(5.86692928897e-05 0.000102600265189 -0.00318162205472)
(4.78505862899e-05 0.000108458667529 -0.00328567654412)
(3.63263959358e-05 0.000112914267299 -0.00337077925536)
(2.43474227352e-05 0.000116009725657 -0.00343389064842)
(1.20879177394e-05 0.00011782405064 -0.00347270691738)
(-3.02487614613e-07 0.000118407690367 -0.0034857830699)
(-1.26927349261e-05 0.000117778555378 -0.00347258124197)
(-2.49511477297e-05 0.000115919506006 -0.0034336391289)
(-3.69278596982e-05 0.000112781429757 -0.00337040002713)
(-4.84483518347e-05 0.000108287637351 -0.00328516635848)
(-5.92588593748e-05 0.000102398199801 -0.00318097743852)
(-6.92469055095e-05 9.49945415017e-05 -0.00306137729836)
(-7.80836824664e-05 8.66109115642e-05 -0.00292969495722)
(7.90219241663e-05 8.77967034946e-05 -0.00333490236122)
(6.92338041046e-05 9.52633757708e-05 -0.00347972486529)
(5.87484418721e-05 0.000101637425098 -0.00361100354558)
(4.76304252933e-05 0.000106633831045 -0.00372527946276)
(3.59981078763e-05 0.000110383149533 -0.00381867313267)
(2.40497038191e-05 0.000112961478754 -0.00388787914102)
(1.19131330978e-05 0.000114461938369 -0.00393041116883)
(-3.08943272368e-07 0.000114941455947 -0.00394472155279)
(-1.25312095745e-05 0.000114419699224 -0.00393024706832)
(-2.46676533644e-05 0.000112877681347 -0.00388755305656)
(-3.66150824647e-05 0.000110259607711 -0.00381818778925)
(-4.82451661304e-05 0.000106474282505 -0.0037246384967)
(-5.93570715696e-05 0.000101448189785 -0.00361021153758)
(-6.98288282484e-05 9.50529913878e-05 -0.00347878239403)
(-7.95823703255e-05 8.75837198744e-05 -0.00333383975699)
(7.83211574396e-05 8.63693638253e-05 -0.00372017677707)
(6.79775266967e-05 9.29190110365e-05 -0.00387601375848)
(5.73590618433e-05 9.82759720791e-05 -0.00401692989855)
(4.62705669547e-05 0.000102434473707 -0.00413943981423)
(3.48379782633e-05 0.000105514265314 -0.00423942147321)
(2.32102338366e-05 0.000107611800917 -0.00431340607927)
(1.14734081927e-05 0.000108824318161 -0.00435881960078)
(-3.10516959652e-07 0.000109209348812 -0.00437407775008)
(-1.20948878398e-05 0.000108786253649 -0.00435861543122)
(-2.38323170502e-05 0.000107536213947 -0.00431300222327)
(-3.54600975437e-05 0.000105402589642 -0.00423882538865)
(-4.68916487274e-05 0.000102289690776 -0.00413866223606)
(-5.79758126503e-05 9.81033421607e-05 -0.00401598392475)
(-6.85837026607e-05 9.27256029271e-05 -0.00387490685819)
(-7.88995385458e-05 8.6170333325e-05 -0.00371894430114)
(7.61540120933e-05 8.33767563523e-05 -0.00408513199183)
(6.55449732785e-05 8.90670415305e-05 -0.00424949160149)
(5.50404434607e-05 9.34588324828e-05 -0.00439763579007)
(4.42051581082e-05 9.68358804967e-05 -0.0045261890783)
(3.31709738207e-05 9.93016006395e-05 -0.00463087755897)
(2.20443491979e-05 0.000100964322857 -0.00470818496074)
(1.08749642803e-05 0.000101919117339 -0.00475555726299)
(-3.09608327328e-07 0.000102220324212 -0.00477144709654)
(-1.14947824563e-05 0.000101885725615 -0.00475531306523)
(-2.26652437643e-05 0.000100897913127 -0.00470770331047)
(-3.37925860718e-05 9.92031809645e-05 -0.00463017044473)
(-4.48265580325e-05 9.67076495912e-05 -0.00452527408462)
(-5.56588498505e-05 9.33049112992e-05 -0.00439653441846)
(-6.61552151205e-05 8.88929963031e-05 -0.00424821786982)
(-7.6742609483e-05 8.31942462731e-05 -0.00408372547652)
(7.30206429293e-05 7.93947920886e-05 -0.00442814118698)
(6.23643496655e-05 8.42835871396e-05 -0.00459837423181)
(5.21411619982e-05 8.77745336205e-05 -0.00475127104645)
(4.17094398934e-05 9.04265060826e-05 -0.0048836257578)
(3.12014809257e-05 9.23314908811e-05 -0.00499108198825)
(2.06870246699e-05 9.36027596456e-05 -0.00507020390629)
(1.01842447373e-05 9.43279871903e-05 -0.00511857748767)
(-3.07837394816e-07 9.45551454382e-05 -0.00513477136977)
(-1.08005920884e-05 9.42994484404e-05 -0.00511829455677)
(-2.13047012446e-05 9.35458784094e-05 -0.00506964677439)
(-3.18202756251e-05 9.22468286762e-05 -0.00499026667153)
(-4.23285398252e-05 9.0315476103e-05 -0.00488257609181)
(-5.27581950628e-05 8.76400776014e-05 -0.00475001648288)
(-6.29749765981e-05 8.41298069033e-05 -0.00459693453411)
(-7.3614672568e-05 7.92299773183e-05 -0.00442655913985)
(6.92479507525e-05 7.47985989232e-05 -0.00474742650293)
(5.87025233227e-05 7.89134724562e-05 -0.00492097965951)
(4.88770317072e-05 8.15556974565e-05 -0.00507635950589)
(3.8955534973e-05 8.35296253089e-05 -0.00521040129824)
(2.9059515211e-05 8.49223242135e-05 -0.00531873628999)
(1.92252807728e-05 8.58427709348e-05 -0.0053981792313)
(9.44448844221e-06 8.63649933615e-05 -0.00544660055104)
(-3.06110087236e-07 8.65272101152e-05 -0.00546277207031)
(-1.00573881682e-05 8.63412932241e-05 -0.00544628116545)
(-1.98396079909e-05 8.57953619043e-05 -0.00539755070363)
(-2.96751757366e-05 8.48513500618e-05 -0.00531781781496)
(-3.95718276706e-05 8.34357234364e-05 -0.00520922198981)
(-4.94919312704e-05 8.14406625621e-05 -0.00507495611664)
(-5.93123205355e-05 7.87800524937e-05 -0.00491937682622)
(-6.98450749036e-05 7.46521992106e-05 -0.00474566874864)
(6.50170987804e-05 6.9796876727e-05 -0.00504119919199)
(5.47128192505e-05 7.31189217343e-05 -0.00521613254815)
(4.53871668251e-05 7.49504862431e-05 -0.00537226706503)
(3.60635676872e-05 7.62911429543e-05 -0.00550610857842)
(2.6840380049e-05 7.72239714906e-05 -0.00561350251554)
(1.77246784335e-05 7.78380067781e-05 -0.00569179353198)
(8.68879927319e-06 7.81856242672e-05 -0.00573931762224)
(-3.04765684548e-07 7.82926718434e-05 -0.00575514355271)
(-9.2989978774e-06 7.81666045148e-05 -0.00573896505623)
(-1.83363085502e-05 7.77997945054e-05 -0.00569109944623)
(-2.74534471883e-05 7.71663470235e-05 -0.00561248796064)
(-3.66775173016e-05 7.6214006285e-05 -0.00550480636665)
(-4.60002530608e-05 7.48544777953e-05 -0.00537072039842)
(-5.53217879487e-05 7.30054861974e-05 -0.00521437097704)
(-6.56164021349e-05 6.96693239756e-05 -0.00503926796789)
(6.04160429561e-05 6.44465035499e-05 -0.00530763879945)
(5.05200586061e-05 6.69870692181e-05 -0.00548386640816)
(4.18152864193e-05 6.80177416076e-05 -0.0056397648182)
(3.31592807809e-05 6.87791738227e-05 -0.00577156934815)
(2.46431353776e-05 6.9311378674e-05 -0.00587613521791)
(1.62522522539e-05 6.96653631592e-05 -0.00595175353836)
(7.95084633517e-06 6.98666800599e-05 -0.00599741557775)
(-3.03794212737e-07 6.99277448112e-05 -0.00601256848222)
(-8.5590289889e-06 6.98520719483e-05 -0.00599703447649)
(-1.68617434748e-05 6.96358522844e-05 -0.00595100222652)
(-2.52540568991e-05 6.92664513894e-05 -0.00587503466942)
(-3.37713333564e-05 6.87181140294e-05 -0.00577015331658)
(-4.24270607146e-05 6.79401149687e-05 -0.00563808102964)
(-5.11285248161e-05 6.6892718722e-05 -0.00548195178051)
(-6.10171642348e-05 6.4337012875e-05 -0.00530554261842)
(5.54676872482e-05 5.95323458157e-05 -0.00554559149015)
(4.63365582637e-05 6.06764752941e-05 -0.00572792852412)
(3.83410551045e-05 6.09029195882e-05 -0.00588174765142)
(3.03818779023e-05 6.11093731083e-05 -0.00600895226232)
(2.25691072898e-05 6.12458289312e-05 -0.00610843053747)
(1.48736897391e-05 6.13354017679e-05 -0.00617970107442)
(7.26292328684e-06 6.13841405999e-05 -0.00622248326818)
(-3.02948295835e-07 6.13962974062e-05 -0.00623662481239)
(-7.86932717419e-06 6.13735241877e-05 -0.00622208078193)
(-1.548118187e-05 6.1313894694e-05 -0.00617890582254)
(-2.31778200628e-05 6.12127244744e-05 -0.0061072611752)
(-3.0991754105e-05 6.10636245355e-05 -0.0060074392591)
(-3.89514052308e-05 6.08431142771e-05 -0.00587993917814)
(-4.69444856362e-05 6.06008360156e-05 -0.00572585857872)
(-5.60710145142e-05 5.9439531529e-05 -0.0055433708379)
(-6.27262925312e-07 -1.20760265121e-06 -0.000389850209359)
(-2.29028959998e-07 -1.66911741295e-06 -0.000409671113353)
(2.74533982303e-08 -1.93396846161e-06 -0.000427902383905)
(1.94695629303e-07 -2.08029612123e-06 -0.000443823539464)
(2.59706458904e-07 -2.14382368264e-06 -0.000456829300992)
(2.3033675814e-07 -2.15875927537e-06 -0.000466451179708)
(1.28670981472e-07 -2.15477305062e-06 -0.000472361559641)
(-1.28297115807e-08 -2.15171861892e-06 -0.00047436218005)
(-1.53570025271e-07 -2.15648896493e-06 -0.000472344930879)
(-2.53024491556e-07 -2.1618530574e-06 -0.000466418155458)
(-2.78983428002e-07 -2.14778821794e-06 -0.000456780394125)
(-2.1053024911e-07 -2.0847352612e-06 -0.000443759348449)
(-3.93066894541e-08 -1.9372758963e-06 -0.000427823226272)
(2.22484171416e-07 -1.67081510683e-06 -0.000409577330547)
(6.24714063741e-07 -1.20778579226e-06 -0.000389737877773)
(-2.22294678579e-06 -3.64123312197e-06 -0.00110420732507)
(-1.21957655413e-06 -4.80383871538e-06 -0.00115621365506)
(-5.12698220235e-07 -5.53067975922e-06 -0.00120393727214)
(-2.2357979982e-08 -5.9621361192e-06 -0.0012455056436)
(2.3775589486e-07 -6.17854880972e-06 -0.00127939211084)
(2.87148852242e-07 -6.26114837362e-06 -0.00130442332555)
(1.75259759019e-07 -6.27980785316e-06 -0.00131977946217)
(-2.52938953794e-08 -6.28161747725e-06 -0.00132496192882)
(-2.24300367633e-07 -6.28307901256e-06 -0.00131972986612)
(-3.31776950417e-07 -6.26698923097e-06 -0.00130432477127)
(-2.75800294228e-07 -6.18598904706e-06 -0.0012792460228)
(-8.78572823709e-09 -5.97028679772e-06 -0.00124531380761)
(4.89223186473e-07 -5.53662702539e-06 -0.00120370094458)
(1.20617165267e-06 -4.80673086394e-06 -0.00115593382638)
(2.21756903184e-06 -3.64104325896e-06 -0.00110387676136)
(-4.15013142531e-06 -6.15314540619e-06 -0.00175054646221)
(-2.71364323407e-06 -7.84844407355e-06 -0.00182811926967)
(-1.63754871406e-06 -8.98030414639e-06 -0.00189908303327)
(-8.36792138113e-07 -9.69909133706e-06 -0.0019607600679)
(-3.18999091224e-07 -1.01061023781e-05 -0.00201095715909)
(-5.70797162021e-08 -1.03053698801e-05 -0.00204799286539)
(9.91963178157e-09 -1.03856583475e-05 -0.00207069109233)
(-2.99444706422e-08 -1.0406544193e-05 -0.00207833670812)
(-6.79971097058e-08 -1.038865279e-05 -0.0020706106736)
(4.09254266456e-09 -1.03105145604e-05 -0.00204783287022)
(2.73622964123e-07 -1.01123566855e-05 -0.00201071949645)
(7.99900259423e-07 -9.70536105082e-06 -0.00196044729402)
(1.61038596312e-06 -8.98344608406e-06 -0.00189869748587)
(2.69896496162e-06 -7.84729172519e-06 -0.001827662567)
(4.14611180248e-06 -6.14852872633e-06 -0.00175000999155)
(-5.80874752027e-06 -8.14343697575e-06 -0.00233593366584)
(-4.07174745687e-06 -1.013305643e-05 -0.00243380913988)
(-2.72229511369e-06 -1.14965466369e-05 -0.00252307053254)
(-1.67487730471e-06 -1.23839317589e-05 -0.00260053096002)
(-9.30254783648e-07 -1.29059603223e-05 -0.00266351056776)
(-4.55742645603e-07 -1.31782269483e-05 -0.002709946389)
(-1.85592509889e-07 -1.3298422694e-05 -0.00273838882309)
(-2.71081524049e-08 -1.33316477916e-05 -0.00274795636981)
(1.33084266197e-07 -1.33003582973e-05 -0.00273827930391)
(4.07930841958e-07 -1.31813635146e-05 -0.00270972829092)
(8.89427507718e-07 -1.29093929591e-05 -0.00266318602246)
(1.64215781119e-06 -1.23866065665e-05 -0.0026001031139)
(2.69916135827e-06 -1.1495732171e-05 -0.00252254301791)
(4.06076514017e-06 -1.01275496575e-05 -0.00243318459799)
(5.80854011475e-06 -8.1345077934e-06 -0.00233520403338)
(-7.14047598307e-06 -9.61898539307e-06 -0.00286828149336)
(-5.19920028308e-06 -1.1726322845e-05 -0.00298246701658)
(-3.65535726179e-06 -1.31802991093e-05 -0.00308631615536)
(-2.4196137376e-06 -1.41333650275e-05 -0.00317635161525)
(-1.48906365725e-06 -1.47000499376e-05 -0.00324952351307)