/*--------------------------------*- C++ -*----------------------------------*\
  =========                 |
  \\      /  F ield         | OpenFOAM: The Open Source CFD Toolbox
   \\    /   O peration     | Website:  https://openfoam.org
    \\  /    A nd           | Version:  7
     \\/     M anipulation  |
\*---------------------------------------------------------------------------*/
FoamFile
{
    version     2.0;
    format      ascii;
    class       volScalarField;
    location    "1";
    object      p;
}
// * * * * * * * * * * * * * * * * * * * * * * * * * * * * * * * * * * * * * //

dimensions      [0 2 -2 0 0 0 0];

internalField   nonuniform List<scalar> 
22500
(
-1.95733736111e-05
-1.95728503758e-05
-1.95730598648e-05
-1.95729136432e-05
-1.95729427902e-05
-1.9572993042e-05
-1.95730496783e-05
-1.95730725136e-05
-1.9573068417e-05
-1.95730304895e-05
-1.95729986344e-05
-1.95729898735e-05
-1.95731580223e-05
-1.95729750246e-05
-1.95735396428e-05
-1.95712914826e-05
-1.95705259867e-05
-1.95706247087e-05
-1.95703339698e-05
-1.95702161643e-05
-1.95701432488e-05
-1.9570119557e-05
-1.95701164793e-05
-1.95701396551e-05
-1.9570183405e-05
-1.95702762203e-05
-1.95704155537e-05
-1.9570730352e-05
-1.9570660123e-05
-1.95714691933e-05
-1.95682821981e-05
-1.95671965317e-05
-1.95670285562e-05
-1.95664690981e-05
-1.95661129637e-05
-1.95658465318e-05
-1.95656988275e-05
-1.95656546895e-05
-1.95657215691e-05
-1.95658920611e-05
-1.95661812607e-05
-1.95665614337e-05
-1.95671475384e-05
-1.95673454506e-05
-1.95684749502e-05
-1.95639095518e-05
-1.95623485816e-05
-1.95616626878e-05
-1.95606444843e-05
-1.95598894081e-05
-1.95593101055e-05
-1.95589632328e-05
-1.95588521326e-05
-1.95589885196e-05
-1.95593607936e-05
-1.95599656314e-05
-1.95607473092e-05
-1.95617943088e-05
-1.95625116112e-05
-1.95641152575e-05
-1.95576146172e-05
-1.95553174857e-05
-1.95538263838e-05
-1.95521131741e-05
-1.95507542129e-05
-1.95497081105e-05
-1.95490652152e-05
-1.9548854015e-05
-1.95490929035e-05
-1.9549763659e-05
-1.95508377957e-05
-1.95522257124e-05
-1.95539696014e-05
-1.9555493691e-05
-1.95578320287e-05
-1.9549063093e-05
-1.95456943009e-05
-1.95431088854e-05
-1.95404482893e-05
-1.95382678586e-05
-1.95365912542e-05
-1.95355498459e-05
-1.9535203658e-05
-1.95355800622e-05
-1.95366518536e-05
-1.95383589842e-05
-1.95405706187e-05
-1.95432637275e-05
-1.95458832983e-05
-1.95492911546e-05
-1.95380652774e-05
-1.95332478269e-05
-1.95292942313e-05
-1.95254406203e-05
-1.95222301576e-05
-1.95197669399e-05
-1.95182301243e-05
-1.95177161023e-05
-1.95182630879e-05
-1.95198329879e-05
-1.9522329276e-05
-1.95255731352e-05
-1.95294608331e-05
-1.95334497951e-05
-1.95383037002e-05
-1.95245215794e-05
-1.95178766549e-05
-1.9512310575e-05
-1.95070489783e-05
-1.95026298359e-05
-1.94992480646e-05
-1.94971350986e-05
-1.9496426081e-05
-1.94971710346e-05
-1.94993199649e-05
-1.95027374166e-05
-1.95071921101e-05
-1.95124892096e-05
-1.95180915589e-05
-1.95247702212e-05
-1.95084180243e-05
-1.94996095296e-05
-1.94922343267e-05
-1.94854039387e-05
-1.94796474106e-05
-1.94752548496e-05
-1.94725109082e-05
-1.94715887108e-05
-1.94725500022e-05
-1.94753329175e-05
-1.94797638392e-05
-1.94855580082e-05
-1.94924251894e-05
-1.94998372205e-05
-1.95086774318e-05
-1.94898335956e-05
-1.94786077057e-05
-1.94692928223e-05
-1.9460806489e-05
-1.94536497382e-05
-1.94482057028e-05
-1.94448092207e-05
-1.9443667121e-05
-1.94448515454e-05
-1.94482900581e-05
-1.94537751281e-05
-1.94609715815e-05
-1.94694958942e-05
-1.94788479862e-05
-1.94901037786e-05
-1.9468937592e-05
-1.94551528019e-05
-1.94438535431e-05
-1.94337109365e-05
-1.94251658329e-05
-1.94186873133e-05
-1.94146535368e-05
-1.94132974783e-05
-1.94146990269e-05
-1.94187778271e-05
-1.94252999931e-05
-1.94338868062e-05
-1.94440685814e-05
-1.94554053213e-05
-1.94692191485e-05
-1.94459152717e-05
-1.94296112995e-05
-1.94164106291e-05
-1.94047060084e-05
-1.93948595626e-05
-1.93874206806e-05
-1.938280129e-05
-1.93812496561e-05
-1.93828497428e-05
-1.93875169212e-05
-1.93950019071e-05
-1.94048920138e-05
-1.94166370398e-05
-1.94298756017e-05
-1.944620867e-05
-1.94207990001e-05
-1.94024213908e-05
-1.93875795463e-05
-1.93744910195e-05
-1.93634985979e-05
-1.93552306558e-05
-1.9350114609e-05
-1.93483990952e-05
-1.93501655534e-05
-1.93553317689e-05
-1.93636480562e-05
-1.93746859299e-05
-1.93878161767e-05
-1.94026963409e-05
-1.94211035472e-05
-1.9394165899e-05
-1.93742959115e-05
-1.93580189804e-05
-1.93437250218e-05
-1.93317972547e-05
-1.93228981562e-05
-1.93174228953e-05
-1.93155912261e-05
-1.93174755462e-05
-1.93230027657e-05
-1.93319517153e-05
-1.93439265753e-05
-1.93582637078e-05
-1.93745801377e-05
-1.93944796293e-05
-1.93705408992e-05
-1.93463485752e-05
-1.93284462466e-05
-1.93128953691e-05
-1.93001956929e-05
-1.92908550206e-05
-1.9285153963e-05
-1.92832539178e-05
-1.92852075372e-05
-1.9290961441e-05
-1.93003531613e-05
-1.93131011049e-05
-1.93286967266e-05
-1.93466408275e-05
-1.93708621112e-05
-2.22148962902e-05
-2.22141659873e-05
-2.22132288828e-05
-2.22124273457e-05
-2.22117244629e-05
-2.22111920763e-05
-2.22108564146e-05
-2.22107412477e-05
-2.2210854258e-05
-2.221118788e-05
-2.22117179164e-05
-2.22124143415e-05
-2.22132055866e-05
-2.2214123459e-05
-2.22148272529e-05
-2.22110555565e-05
-2.22104005119e-05
-2.22095227517e-05
-2.22087929426e-05
-2.22081579954e-05
-2.22076806049e-05
-2.22073808608e-05
-2.22072781942e-05
-2.22073791366e-05
-2.22076772999e-05
-2.22081527532e-05
-2.22087820564e-05
-2.22095010417e-05
-2.22103592201e-05
-2.22109864203e-05
-2.22096959423e-05
-2.22093761284e-05
-2.22087772039e-05
-2.22083141661e-05
-2.22079008623e-05
-2.22075903821e-05
-2.22073939477e-05
-2.22073258693e-05
-2.22073910488e-05
-2.22075845933e-05
-2.22078917271e-05
-2.22082986695e-05
-2.22087503116e-05
-2.22093304607e-05
-2.22096233609e-05
-2.22110618956e-05
-2.22111878233e-05
-2.22109441634e-05
-2.22107980369e-05
-2.22106350232e-05
-2.22105045953e-05
-2.22104160862e-05
-2.2210383558e-05
-2.22104120834e-05
-2.22104964385e-05
-2.22106222095e-05
-2.22107781787e-05
-2.2210912938e-05
-2.22111387626e-05
-2.22109875074e-05
-2.2213704309e-05
-2.22141638124e-05
-2.22141594196e-05
-2.22142019336e-05
-2.22141712226e-05
-2.22141251511e-05
-2.221408254e-05
-2.22140641841e-05
-2.22140779017e-05
-2.22141156101e-05
-2.22141562707e-05
-2.22141795415e-05
-2.22141259511e-05
-2.22141135005e-05
-2.22136299825e-05
-2.22164734401e-05
-2.22170275037e-05
-2.22170559632e-05
-2.2217085129e-05
-2.22170154754e-05
-2.2216923044e-05
-2.22168448476e-05
-2.22168130893e-05
-2.22168399125e-05
-2.22169128386e-05
-2.22169994228e-05
-2.22170615649e-05
-2.22170216683e-05
-2.22169778117e-05
-2.22164010399e-05
-2.22186537988e-05
-2.22190352564e-05
-2.22188900365e-05
-2.2218717173e-05
-2.22184565236e-05
-2.22182065116e-05
-2.22180252603e-05
-2.22179575816e-05
-2.2218020202e-05
-2.22181960213e-05
-2.22184400048e-05
-2.22186932243e-05
-2.22188558711e-05
-2.22189868964e-05
-2.22185846247e-05
-2.22198561334e-05
-2.22198326145e-05
-2.22193549138e-05
-2.22188440468e-05
-2.22182885641e-05
-2.22178083994e-05
-2.2217481494e-05
-2.22173639214e-05
-2.22174764511e-05
-2.22177979078e-05
-2.22182720149e-05
-2.2218820214e-05
-2.22193215096e-05
-2.22197863063e-05
-2.22197913094e-05
-2.22199389661e-05
-2.22193427354e-05
-2.22184321124e-05
-2.22175051106e-05
-2.22165996819e-05
-2.22158536037e-05
-2.22153612294e-05
-2.22151875045e-05
-2.22153562776e-05
-2.22158432878e-05
-2.22165834009e-05
-2.22174818121e-05
-2.22183998719e-05
-2.22192989159e-05
-2.22198789308e-05
-2.22189267876e-05
-2.22176601839e-05
-2.22162668186e-05
-2.2214892986e-05
-2.22136203209e-05
-2.22126003796e-05
-2.22119396555e-05
-2.22117092155e-05
-2.2211934881e-05
-2.22125904143e-05
-2.22136045759e-05
-2.22148705209e-05
-2.22162360824e-05
-2.22176191137e-05
-2.22188722923e-05
-2.22169373193e-05
-2.22149648732e-05
-2.22130765392e-05
-2.2211258588e-05
-2.22096279246e-05
-2.22083455811e-05
-2.22075254884e-05
-2.22072417322e-05
-2.22075209673e-05
-2.22083361256e-05
-2.2209612958e-05
-2.22112372647e-05
-2.22130475621e-05
-2.22149266463e-05
-2.2216888387e-05
-2.2214137421e-05
-2.22114705129e-05
-2.22090984269e-05
-2.22068597735e-05
-2.22048980719e-05
-2.22033784372e-05
-2.22024164266e-05
-2.22020856966e-05
-2.22024122249e-05
-2.22033696629e-05
-2.2204884123e-05
-2.22068398616e-05
-2.22090714333e-05
-2.22114351436e-05
-2.22140936424e-05
-2.22107333096e-05
-2.22073954865e-05
-2.2204555967e-05
-2.22019322523e-05
-2.21996803232e-05
-2.21979596937e-05
-2.21968807646e-05
-2.21965115834e-05
-2.21968770081e-05
-2.21979517799e-05
-2.21996676185e-05
-2.22019140206e-05
-2.22045311827e-05
-2.22073631668e-05
-2.22106946729e-05
-2.2206853001e-05
-2.2202849821e-05
-2.21995941132e-05
-2.21966497571e-05
-2.21941776088e-05
-2.21923145284e-05
-2.21911558044e-05
-2.21907617847e-05
-2.21911525916e-05
-2.21923076643e-05
-2.2194166581e-05
-2.21966336712e-05
-2.21995718446e-05
-2.22028205981e-05
-2.22068198627e-05
-2.22018967373e-05
-2.21978553115e-05
-2.21943156895e-05
-2.21911808985e-05
-2.2188610598e-05
-2.21866977409e-05
-2.21855177046e-05
-2.21851178686e-05
-2.21855151213e-05
-2.21866920691e-05
-2.21886012227e-05
-2.21911669407e-05
-2.21942960607e-05
-2.21978284544e-05
-2.22018672831e-05
-1.82924306219e-05
-1.82929088983e-05
-1.82934277383e-05
-1.82939433816e-05
-1.82944019897e-05
-1.82947590497e-05
-1.82949844541e-05
-1.82950588789e-05
-1.82949745314e-05
-1.82947393171e-05
-1.82943729339e-05
-1.8293906648e-05
-1.82933844019e-05
-1.829286252e-05
-1.82923858659e-05
-1.82929471887e-05
-1.82934170782e-05
-1.82939372904e-05
-1.8294455559e-05
-1.8294917786e-05
-1.8295278608e-05
-1.82955067929e-05
-1.82955822283e-05
-1.82954965456e-05
-1.82952582306e-05
-1.82948877944e-05
-1.82944174848e-05
-1.82938926734e-05
-1.82933694004e-05
-1.82929014778e-05
-1.82928313006e-05
-1.82932488398e-05
-1.82937253519e-05
-1.82942078771e-05
-1.8294643013e-05
-1.82949851262e-05
-1.82952024458e-05
-1.82952744077e-05
-1.82951924246e-05
-1.82949652647e-05
-1.82946138472e-05
-1.8294170792e-05
-1.8293681913e-05
-1.82932022281e-05
-1.82927861391e-05
-1.82925975454e-05
-1.82929747567e-05
-1.82934156193e-05
-1.82938681865e-05
-1.82942808745e-05
-1.82946077666e-05
-1.82948164062e-05
-1.82948856457e-05
-1.82948067217e-05
-1.82945886327e-05
-1.82942528213e-05
-1.82938324095e-05
-1.82933736392e-05
-1.82929294425e-05
-1.82925529522e-05
-1.82924165004e-05
-1.82927731055e-05
-1.82931940923e-05
-1.82936293569e-05
-1.82940294899e-05
-1.82943482516e-05
-1.8294552471e-05
-1.82946204276e-05
-1.82945431409e-05
-1.8294329853e-05
-1.82940025399e-05
-1.82935948939e-05
-1.82931535413e-05
-1.82927290247e-05
-1.82923726113e-05
-1.82922908696e-05
-1.82926422662e-05
-1.82930551075e-05
-1.82934826355e-05
-1.82938773922e-05
-1.82941929774e-05
-1.82943956795e-05
-1.82944632964e-05
-1.82943867095e-05
-1.82941753149e-05
-1.82938515339e-05
-1.82934494838e-05
-1.82930159894e-05
-1.82925994273e-05
-1.8292247674e-05
-1.82922164224e-05
-1.82925753292e-05
-1.8292989007e-05
-1.82934160481e-05
-1.8293810647e-05
-1.82941264747e-05
-1.82943295679e-05
-1.82943974579e-05
-1.82943210036e-05
-1.82941096256e-05
-1.82937859773e-05
-1.82933843436e-05
-1.82929514411e-05
-1.8292533931e-05
-1.82921740681e-05
-1.8292194676e-05
-1.82925716555e-05
-1.82929927884e-05
-1.82934246324e-05
-1.82938225252e-05
-1.82941406299e-05
-1.82943451017e-05
-1.82944135652e-05
-1.82943369587e-05
-1.82941246145e-05
-1.82937990755e-05
-1.82933944323e-05
-1.82929568731e-05
-1.8292531744e-05
-1.82921531903e-05
-1.82922230766e-05
-1.82926257414e-05
-1.82930585664e-05
-1.82934981622e-05
-1.82939007973e-05
-1.82942216506e-05
-1.82944275188e-05
-1.82944965101e-05
-1.82944198261e-05
-1.82942065195e-05
-1.82938786232e-05
-1.82934695316e-05
-1.82930243728e-05
-1.8292587383e-05
-1.82921825446e-05
-1.82922944857e-05
-1.82927271011e-05
-1.82931735081e-05
-1.82936215224e-05
-1.82940284014e-05
-1.8294350951e-05
-1.82945572586e-05
-1.82946263924e-05
-1.8294550029e-05
-1.82943367245e-05
-1.8294007528e-05
-1.82935945035e-05
-1.82931410842e-05
-1.82926903765e-05
-1.82922547789e-05
-1.82923990812e-05
-1.82928628777e-05
-1.82933228203e-05
-1.82937780185e-05
-1.82941869286e-05
-1.82945087708e-05
-1.82947137043e-05
-1.82947823068e-05
-1.82947069524e-05
-1.8294495474e-05
-1.82941673835e-05
-1.82937526428e-05
-1.82932922137e-05
-1.82928278762e-05
-1.8292360323e-05
-1.82925243613e-05
-1.82930189059e-05
-1.82934916689e-05
-1.82939518619e-05
-1.8294359471e-05
-1.82946772246e-05
-1.82948783511e-05
-1.82949455181e-05
-1.8294872092e-05
-1.82946648685e-05
-1.82943412727e-05
-1.82939281572e-05
-1.82934629327e-05
-1.82929857555e-05
-1.82924868058e-05
-1.82926488507e-05
-1.82931770535e-05
-1.82936647653e-05
-1.82941287273e-05
-1.82945319435e-05
-1.82948423656e-05
-1.82950371429e-05
-1.82951020864e-05
-1.82950313662e-05
-1.82948309441e-05
-1.82945151115e-05
-1.82941067178e-05
-1.82936379389e-05
-1.82931458082e-05
-1.82926126473e-05
-1.82927656383e-05
-1.82933366515e-05
-1.82938373632e-05
-1.82943015273e-05
-1.82946952066e-05
-1.82949936191e-05
-1.82951793356e-05
-1.82952407912e-05
-1.829517404e-05
-1.82949831614e-05
-1.82946796974e-05
-1.82942812086e-05
-1.82938125211e-05
-1.82933074576e-05
-1.82927307938e-05
-1.82931321685e-05
-1.8293623514e-05
-1.82940914861e-05
-1.8294513505e-05
-1.82948629964e-05
-1.82951246301e-05
-1.82952859768e-05
-1.82953391974e-05
-1.8295281171e-05
-1.82951151543e-05
-1.82948489706e-05
-1.82944950869e-05
-1.82940687974e-05
-1.82935968229e-05
-1.82930997101e-05
-1.93691778232e-05
-1.93688581708e-05
-1.93685162736e-05
-1.93681735575e-05
-1.93678696488e-05
-1.93676334251e-05
-1.93674844126e-05
-1.93674351342e-05
-1.93674907728e-05
-1.93676461013e-05
-1.93678883571e-05
-1.93681966942e-05
-1.9368542953e-05
-1.93688849043e-05
-1.93692012577e-05
-1.93690113008e-05
-1.93687013463e-05
-1.93683625915e-05
-1.93680213197e-05
-1.93677177194e-05
-1.9367480907e-05
-1.93673312401e-05
-1.93672817506e-05
-1.93673380148e-05
-1.93674944086e-05
-1.93677376087e-05
-1.93680461246e-05
-1.93683908959e-05
-1.93687296896e-05
-1.93690360533e-05
-1.93692632985e-05
-1.93689917652e-05
-1.93686864435e-05
-1.93683721762e-05
-1.9368089409e-05
-1.93678670287e-05
-1.93677258255e-05
-1.93676790416e-05
-1.93677323774e-05
-1.93678800408e-05
-1.93681085045e-05
-1.9368396077e-05
-1.93687137105e-05
-1.93690192474e-05
-1.93692877758e-05
-1.93695373531e-05
-1.93692946175e-05
-1.93690163272e-05
-1.93687246421e-05
-1.93684593275e-05
-1.93682490116e-05
-1.93681148261e-05
-1.93680702505e-05
-1.93681210328e-05
-1.93682612911e-05
-1.93684773103e-05
-1.9368747255e-05
-1.936904222e-05
-1.93693209342e-05
-1.93695615158e-05
-1.93697492348e-05
-1.93695238746e-05
-1.93692634699e-05
-1.9368987528e-05
-1.93687344889e-05
-1.93685326991e-05
-1.93684034621e-05
-1.93683604172e-05
-1.93684093467e-05
-1.93685443107e-05
-1.9368751469e-05
-1.93690089517e-05
-1.93692881253e-05
-1.93695491705e-05
-1.93697730165e-05
-1.93699219732e-05
-1.93697070907e-05
-1.93694590265e-05
-1.93691946963e-05
-1.93689510541e-05
-1.9368755932e-05
-1.9368630613e-05
-1.93685887774e-05
-1.93686361832e-05
-1.93687669069e-05
-1.9368967081e-05
-1.93692150032e-05
-1.93694824765e-05
-1.93697314448e-05
-1.9369945438e-05
-1.9370069599e-05
-1.93698602394e-05
-1.93696203922e-05
-1.93693648039e-05
-1.93691285903e-05
-1.93689389882e-05
-1.93688169975e-05
-1.93687761944e-05
-1.93688222385e-05
-1.93689493019e-05
-1.93691436462e-05
-1.93693839465e-05
-1.93696426226e-05
-1.93698835417e-05
-1.93700926708e-05
-1.93701958828e-05
-1.9369987954e-05
-1.93697531386e-05
-1.93695040334e-05
-1.93692738402e-05
-1.93690890254e-05
-1.93689700568e-05
-1.93689302041e-05
-1.93689749671e-05
-1.93690986816e-05
-1.93692879331e-05
-1.93695220024e-05
-1.93697741253e-05
-1.93700102205e-05
-1.93702185934e-05
-1.93703040621e-05
-1.93700944574e-05
-1.93698623165e-05
-1.93696181682e-05
-1.93693932363e-05
-1.93692129562e-05
-1.93690969996e-05
-1.93690581231e-05
-1.9369101568e-05
-1.93692219421e-05
-1.93694063565e-05
-1.93696349621e-05
-1.9369882048e-05
-1.93701157047e-05
-1.93703263234e-05
-1.93703979823e-05
-1.93701846842e-05
-1.93699536122e-05
-1.9369713617e-05
-1.9369493781e-05
-1.93693182682e-05
-1.93692056201e-05
-1.93691678549e-05
-1.93692098483e-05
-1.93693265873e-05
-1.93695059421e-05
-1.93697292342e-05
-1.9369972091e-05
-1.93702048822e-05
-1.93704199402e-05
-1.93704816221e-05
-1.93702632446e-05
-1.93700322346e-05
-1.93697961665e-05
-1.93695818459e-05
-1.93694117793e-05
-1.93693030337e-05
-1.9369266608e-05
-1.93693069211e-05
-1.93694194308e-05
-1.93695930525e-05
-1.93698106186e-05
-1.93700494588e-05
-1.93702823542e-05
-1.93705031548e-05
-1.93705591128e-05
-1.93703342165e-05
-1.93701024473e-05
-1.93698703374e-05
-1.93696623162e-05
-1.93694987451e-05
-1.93693947031e-05
-1.93693599564e-05
-1.93693982443e-05
-1.93695057388e-05
-1.93696725817e-05
-1.93698836263e-05
-1.93701183978e-05
-1.93703521506e-05
-1.93705799962e-05
-1.93706385107e-05
-1.93704041583e-05
-1.93701693287e-05
-1.93699403485e-05
-1.93697389648e-05
-1.93695825486e-05
-1.93694839917e-05
-1.93694510723e-05
-1.93694872071e-05
-1.9369588909e-05
-1.9369748286e-05
-1.93699524911e-05
-1.93701839956e-05
-1.93704209051e-05
-1.93706586221e-05
-1.9370723882e-05
-1.93704742665e-05
-1.93702348311e-05
-1.93700084677e-05
-1.93698142327e-05
-1.93696659404e-05
-1.93695732252e-05
-1.93695426009e-05
-1.9369576137e-05
-1.93696716489e-05
-1.93698226942e-05
-1.93700194796e-05
-1.93702482071e-05
-1.93704897426e-05
-1.93707432712e-05
-1.93706763302e-05
-1.93704531942e-05
-1.93702356194e-05
-1.93700366477e-05
-1.9369869856e-05
-1.93697440781e-05
-1.93696662614e-05
-1.93696406029e-05
-1.93696688497e-05
-1.93697491774e-05
-1.93698773431e-05
-1.93700464567e-05
-1.93702476113e-05
-1.93704671057e-05
-1.93706941311e-05
-1.704286475e-05
-1.7043078479e-05
-1.70433079456e-05
-1.70435397153e-05
-1.70437456462e-05
-1.7043906575e-05
-1.70440085275e-05
-1.70440429323e-05
-1.70440062171e-05
-1.70439019241e-05
-1.7043738656e-05
-1.70435305384e-05
-1.70432966705e-05
-1.70430661745e-05
-1.70428532865e-05
-1.70429613733e-05
-1.70431683653e-05
-1.70433957502e-05
-1.70436266314e-05
-1.70438327256e-05
-1.70439943412e-05
-1.70440969821e-05
-1.70441316721e-05
-1.70440945668e-05
-1.70439894822e-05
-1.70438254224e-05
-1.70436170063e-05
-1.70433839914e-05
-1.70431555782e-05
-1.70429495126e-05
-1.70427787687e-05
-1.70429601653e-05
-1.70431653903e-05
-1.70433783883e-05
-1.70435707715e-05
-1.70437228271e-05
-1.70438198588e-05
-1.70438527271e-05
-1.70438174989e-05
-1.7043718093e-05
-1.70435636706e-05
-1.70433690278e-05
-1.70431539557e-05
-1.70429477047e-05
-1.70427669917e-05
-1.70425861264e-05
-1.70427484959e-05
-1.70429357881e-05
-1.7043133817e-05
-1.70433145921e-05
-1.70434585186e-05
-1.7043550776e-05
-1.70435820883e-05
-1.70435484953e-05
-1.70434539568e-05
-1.70433077579e-05
-1.70431247961e-05
-1.70429247718e-05
-1.70427364123e-05
-1.70425744389e-05
-1.70424368051e-05
-1.70425872367e-05
-1.70427622169e-05
-1.70429493271e-05
-1.704312144e-05
-1.70432592161e-05
-1.70433478343e-05
-1.70433779657e-05
-1.70433456349e-05
-1.7043254824e-05
-1.70431148639e-05
-1.704294063e-05
-1.70427515892e-05
-1.70425754829e-05
-1.7042425239e-05
-1.70423123198e-05
-1.70424544159e-05
-1.70426200337e-05
-1.70427981348e-05
-1.70429627881e-05
-1.70430950774e-05
-1.70431803805e-05
-1.70432094158e-05
-1.70431782524e-05
-1.70430908348e-05
-1.70429564398e-05
-1.70427897308e-05
-1.70426097655e-05
-1.70424429933e-05
-1.70423008246e-05
-1.70422009003e-05
-1.70423368218e-05
-1.70424948148e-05
-1.70426648703e-05
-1.70428225374e-05
-1.70429494749e-05
-1.70430314572e-05
-1.70430593757e-05
-1.70430294094e-05
-1.70429453962e-05
-1.70428164366e-05
-1.70426567871e-05
-1.70424849147e-05
-1.70423257703e-05
-1.70421895251e-05
-1.70420982388e-05
-1.7042229444e-05
-1.70423809165e-05
-1.7042543505e-05
-1.70426943301e-05
-1.70428158137e-05
-1.70428943073e-05
-1.70429210388e-05
-1.70428923379e-05
-1.70428118932e-05
-1.70426884752e-05
-1.70425357511e-05
-1.70423714139e-05
-1.70422187576e-05
-1.70420869934e-05
-1.70420009986e-05
-1.70421283258e-05
-1.70422739602e-05
-1.70424292987e-05
-1.70425731445e-05
-1.70426888686e-05
-1.70427635962e-05
-1.70427890284e-05
-1.70427617127e-05
-1.70426851211e-05
-1.70425675499e-05
-1.70424218891e-05
-1.70422648684e-05
-1.70421180099e-05
-1.70419899013e-05
-1.70419059793e-05
-1.70420298296e-05
-1.70421700058e-05
-1.70423180793e-05
-1.70424546203e-05
-1.70425641388e-05
-1.70426347296e-05
-1.70426587177e-05
-1.70426329367e-05
-1.70425605719e-05
-1.70424492984e-05
-1.70423110329e-05
-1.70421613434e-05
-1.70420199112e-05
-1.70418949727e-05
-1.7041810575e-05
-1.70419312811e-05
-1.70420662464e-05
-1.7042206917e-05
-1.70423356887e-05
-1.70424384397e-05
-1.70425044559e-05
-1.70425268324e-05
-1.7042502762e-05
-1.70424350683e-05
-1.70423306552e-05
-1.70422002491e-05
-1.70420580272e-05
-1.70419217817e-05
-1.70417997008e-05
-1.70417126691e-05
-1.70418309645e-05
-1.70419611396e-05
-1.70420943551e-05
-1.70422148705e-05
-1.70423102505e-05
-1.70423712167e-05
-1.70423918036e-05
-1.70423696315e-05
-1.70423070867e-05
-1.70422101448e-05
-1.70420880849e-05
-1.70419533877e-05
-1.70418219222e-05
-1.7041702009e-05
-1.70416078769e-05
-1.70417259234e-05
-1.70418529408e-05
-1.70419794479e-05
-1.70420917786e-05
-1.7042179588e-05
-1.7042235221e-05
-1.70422539489e-05
-1.70422337462e-05
-1.70421766426e-05
-1.70420873807e-05
-1.70419736002e-05
-1.70418456777e-05
-1.70417173586e-05
-1.70415974894e-05
-1.7041494246e-05
-1.70416162806e-05
-1.70417416343e-05
-1.70418623488e-05
-1.70419667597e-05
-1.70420469834e-05
-1.70420973596e-05
-1.7042114136e-05
-1.70420960038e-05
-1.70420442737e-05
-1.70419626892e-05
-1.70418569306e-05
-1.70417348948e-05
-1.7041608246e-05
-1.70414841322e-05
-1.7041463436e-05
-1.70415653815e-05
-1.70416720138e-05
-1.70417709892e-05
-1.7041854791e-05
-1.70419184399e-05
-1.70419580401e-05
-1.70419711645e-05
-1.70419568025e-05
-1.70419159842e-05
-1.70418511074e-05
-1.70417660836e-05
-1.70416658479e-05
-1.7041558029e-05
-1.70414540225e-05
-1.7004892213e-05
-1.70047495061e-05
-1.70045970558e-05
-1.70044436452e-05
-1.70043073332e-05
-1.70042007193e-05
-1.70041332877e-05
-1.70041107028e-05
-1.7004135287e-05
-1.70042046786e-05
-1.7004313173e-05
-1.70044514019e-05
-1.70046067621e-05
-1.70047599359e-05
-1.70049019352e-05
-1.70048282478e-05
-1.70046901549e-05
-1.70045392368e-05
-1.70043865526e-05
-1.70042502595e-05
-1.70041433185e-05
-1.7004075515e-05
-1.70040527767e-05
-1.70040776116e-05
-1.70041474799e-05
-1.70042564168e-05
-1.70043947414e-05
-1.70045494243e-05
-1.7004701108e-05
-1.70048384934e-05
-1.7004951665e-05
-1.70048308173e-05
-1.70046948182e-05
-1.70045541364e-05
-1.70044270917e-05
-1.70043266521e-05
-1.7004262674e-05
-1.70042411783e-05
-1.70042647324e-05
-1.70043307352e-05
-1.70044331286e-05
-1.70045621264e-05
-1.70047046946e-05
-1.70048414429e-05
-1.70049618228e-05
-1.7005080948e-05
-1.70049728547e-05
-1.7004848864e-05
-1.70047181496e-05
-1.7004598873e-05
-1.70045039285e-05
-1.70044431792e-05
-1.70044227305e-05
-1.70044451743e-05
-1.70045078851e-05
-1.70046047321e-05
-1.70047258701e-05
-1.70048583374e-05
-1.70049830934e-05
-1.70050909863e-05
-1.70051805749e-05
-1.70050804802e-05
-1.70049647051e-05
-1.700484124e-05
-1.70047277472e-05
-1.70046369376e-05
-1.70045786397e-05
-1.70045589835e-05
-1.70045805722e-05
-1.70046407683e-05
-1.70047334162e-05
-1.70048486947e-05
-1.70049738056e-05
-1.70050903716e-05
-1.70051904627e-05
-1.70052634741e-05
-1.70051690218e-05
-1.70050595423e-05
-1.70049421036e-05
-1.7004833627e-05
-1.70047465346e-05
-1.70046904831e-05
-1.70046715666e-05
-1.70046923566e-05
-1.7004750247e-05
-1.70048391215e-05
-1.70049493122e-05
-1.70050683018e-05
-1.70051785921e-05
-1.70052732494e-05
-1.70053379411e-05
-1.70052478216e-05
-1.70051435468e-05
-1.70050315692e-05
-1.70049278455e-05
-1.70048444092e-05
-1.70047906252e-05
-1.70047724667e-05
-1.70047924318e-05
-1.70048479843e-05
-1.70049331346e-05
-1.7005038495e-05
-1.70051519507e-05
-1.70052570308e-05
-1.70053475592e-05
-1.70054071271e-05
-1.70053204821e-05
-1.70052207562e-05
-1.70051139271e-05
-1.70050149165e-05
-1.70049352374e-05
-1.70048838507e-05
-1.70048665018e-05
-1.70048855877e-05
-1.7004938673e-05
-1.70050199933e-05
-1.70051205631e-05
-1.70052287909e-05
-1.70053293463e-05
-1.70054165762e-05
-1.70054734072e-05
-1.70053897911e-05
-1.70052942248e-05
-1.70051924535e-05
-1.700509828e-05
-1.70050225731e-05
-1.70049737744e-05
-1.70049573103e-05
-1.70049754323e-05
-1.70050258514e-05
-1.70051031193e-05
-1.70051987766e-05
-1.70053018762e-05
-1.70053983054e-05
-1.70054826571e-05
-1.70055389757e-05
-1.70054581963e-05
-1.70053665737e-05
-1.70052698976e-05
-1.7005180783e-05
-1.7005109348e-05
-1.70050633782e-05
-1.70050478939e-05
-1.70050649528e-05
-1.70051124596e-05
-1.70051853754e-05
-1.70052758919e-05
-1.70053738336e-05
-1.70054663445e-05
-1.7005548058e-05
-1.70056055465e-05
-1.70055274336e-05
-1.70054396021e-05
-1.70053481055e-05
-1.70052643465e-05
-1.70051975295e-05
-1.70051546683e-05
-1.70051402636e-05
-1.70051561517e-05
-1.70052004605e-05
-1.70052686719e-05
-1.70053537571e-05
-1.70054464591e-05
-1.70055352022e-05
-1.70056144196e-05
-1.70056745096e-05
-1.70055985577e-05
-1.70055142199e-05
-1.70054279026e-05
-1.70053497695e-05
-1.70052879472e-05
-1.70052484722e-05
-1.70052352691e-05
-1.70052498559e-05
-1.70052906866e-05
-1.7005353819e-05
-1.70054331924e-05
-1.70055206563e-05
-1.70056059124e-05
-1.70056830942e-05
-1.70057486962e-05
-1.70056734506e-05
-1.70055914753e-05
-1.70055097583e-05
-1.70054371593e-05
-1.70053803765e-05
-1.70053444712e-05
-1.70053324712e-05
-1.70053457549e-05
-1.70053829274e-05
-1.70054409081e-05
-1.70055146838e-05
-1.70055974776e-05
-1.70056803866e-05
-1.70057569483e-05
-1.70058293183e-05
-1.70057519274e-05
-1.7005671244e-05
-1.70055934578e-05
-1.70055260812e-05
-1.70054743339e-05
-1.70054418559e-05
-1.70054311622e-05
-1.70054430471e-05
-1.70054766673e-05
-1.70055295593e-05
-1.70055979988e-05
-1.7005676804e-05
-1.70057584118e-05
-1.70058372662e-05
-1.70058544559e-05
-1.70057908929e-05
-1.70057230332e-05
-1.70056598778e-05
-1.70056063247e-05
-1.70055656188e-05
-1.70055403463e-05
-1.70055320591e-05
-1.70055414258e-05
-1.70055677532e-05
-1.70056094642e-05
-1.70056640106e-05
-1.70057281062e-05
-1.70057968412e-05
-1.7005861816e-05
-1.54302858891e-05
-1.54303818212e-05
-1.54304846347e-05
-1.54305886164e-05
-1.54306810828e-05
-1.54307535284e-05
-1.54307995508e-05
-1.54308152602e-05
-1.54307990416e-05
-1.54307524799e-05
-1.54306794372e-05
-1.54305862577e-05
-1.54304815149e-05
-1.54303783429e-05
-1.54302829849e-05
-1.54303267584e-05
-1.54304195143e-05
-1.54305212482e-05
-1.54306246882e-05
-1.54307171306e-05
-1.54307898036e-05
-1.543083609e-05
-1.543085192e-05
-1.54308355581e-05
-1.54307887076e-05
-1.54307154024e-05
-1.54306222058e-05
-1.54305179759e-05
-1.54304158768e-05
-1.54303237171e-05
-1.54302423854e-05
-1.54303235411e-05
-1.54304152265e-05
-1.543051054e-05
-1.54305967294e-05
-1.54306650078e-05
-1.54307086978e-05
-1.54307236722e-05
-1.54307081595e-05
-1.54306639037e-05
-1.54305950015e-05
-1.54305080901e-05
-1.54304120301e-05
-1.54303200086e-05
-1.54302393419e-05
-1.54301541705e-05
-1.54302267467e-05
-1.54303103181e-05
-1.5430398867e-05
-1.54304797872e-05
-1.54305443374e-05
-1.5430585818e-05
-1.54306000576e-05
-1.54305852767e-05
-1.54305432329e-05
-1.54304780708e-05
-1.54303964685e-05
-1.54303072343e-05
-1.54302233274e-05
-1.54301511349e-05
-1.54300858115e-05
-1.54301529896e-05
-1.54302309704e-05
-1.5430314568e-05
-1.54303915362e-05
-1.54304532525e-05
-1.54304930404e-05
-1.54305067174e-05
-1.54304925025e-05
-1.5430452159e-05
-1.5430389847e-05
-1.54303122266e-05
-1.54302279908e-05
-1.5430149661e-05
-1.54300827852e-05
-1.54300286661e-05
-1.54300919881e-05
-1.5430165668e-05
-1.54302451295e-05
-1.54303186526e-05
-1.54303778101e-05
-1.54304160374e-05
-1.54304291876e-05
-1.54304155037e-05
-1.54303767297e-05
-1.54303169929e-05
-1.54302428484e-05
-1.54301627927e-05
-1.54300887701e-05
-1.54300256175e-05
-1.54299771868e-05
-1.54300375472e-05
-1.54301076405e-05
-1.54301833322e-05
-1.54302535684e-05
-1.54303101904e-05
-1.54303468336e-05
-1.54303594417e-05
-1.54303463114e-05
-1.54303091365e-05
-1.5430251956e-05
-1.54301811296e-05
-1.54301048717e-05
-1.54300344515e-05
-1.54299741398e-05
-1.5429929244e-05
-1.54299871963e-05
-1.5430054125e-05
-1.54301262395e-05
-1.54301931979e-05
-1.54302471987e-05
-1.54302821592e-05
-1.54302941868e-05
-1.54302816512e-05
-1.54302461752e-05
-1.54301916408e-05
-1.54301241265e-05
-1.54300514812e-05
-1.54299842231e-05
-1.54299261982e-05
-1.54298832099e-05
-1.54299390389e-05
-1.5430003043e-05
-1.54300716168e-05
-1.54301351856e-05
-1.54301863941e-05
-1.54302195278e-05
-1.54302309192e-05
-1.54302190393e-05
-1.54301854115e-05
-1.5430133695e-05
-1.54300696016e-05
-1.54300005275e-05
-1.54299361848e-05
-1.54298801732e-05
-1.542983758e-05
-1.54298913854e-05
-1.54299525872e-05
-1.54300175702e-05
-1.54300775705e-05
-1.54301257631e-05
-1.54301568912e-05
-1.54301675776e-05
-1.54301564253e-05
-1.54301248268e-05
-1.54300761528e-05
-1.54300156605e-05
-1.54299502046e-05
-1.54298886586e-05
-1.54298345139e-05
-1.54297911755e-05
-1.54298430682e-05
-1.54299015504e-05
-1.54299628574e-05
-1.54300190636e-05
-1.54300639795e-05
-1.54300929012e-05
-1.54301028065e-05
-1.54300924617e-05
-1.54300630957e-05
-1.54300177254e-05
-1.5429961057e-05
-1.54298992998e-05
-1.54298404671e-05
-1.54297880968e-05
-1.54297431277e-05
-1.54297934217e-05
-1.54298493631e-05
-1.54299069655e-05
-1.5429959161e-05
-1.5430000532e-05
-1.54300270386e-05
-1.54300360838e-05
-1.5430026628e-05
-1.54299997061e-05
-1.54299579058e-05
-1.5429905278e-05
-1.5429847249e-05
-1.54297909513e-05
-1.54297400473e-05
-1.54296915904e-05
-1.54297412772e-05
-1.54297954138e-05
-1.54298496569e-05
-1.5429897875e-05
-1.54299356286e-05
-1.54299596028e-05
-1.54299677594e-05
-1.54299592239e-05
-1.54299348554e-05
-1.54298967121e-05
-1.54298480823e-05
-1.54297934367e-05
-1.54297389372e-05
-1.54296885307e-05
-1.54296356818e-05
-1.54296866742e-05
-1.54297397471e-05
-1.54297910788e-05
-1.54298355151e-05
-1.54298696924e-05
-1.54298912051e-05