/*--------------------------------*- C++ -*----------------------------------*\
  =========                 |
  \\      /  F ield         | OpenFOAM: The Open Source CFD Toolbox
   \\    /   O peration     | Website:  https://openfoam.org
    \\  /    A nd           | Version:  7
     \\/     M anipulation  |
\*---------------------------------------------------------------------------*/
FoamFile
{
    version     2.0;
    format      ascii;
    class       surfaceScalarField;
    location    "1";
    object      phi;
}
// * * * * * * * * * * * * * * * * * * * * * * * * * * * * * * * * * * * * * //

dimensions      [0 3 -1 0 0 0 0];

internalField   nonuniform List<scalar> 
65775
(
-2.31594860678e-11
-5.02042849964e-09
-1.10432512357e-10
-2.50210022241e-13
-4.13217189946e-11
-5.28267203372e-09
-1.20554795935e-10
-4.98323513694e-11
-5.52259279152e-09
-1.30452987267e-10
-4.86851278354e-11
-5.72964973496e-09
-1.39721617523e-10
-4.00805189123e-11
-5.89585843521e-09
-1.47728097238e-10
-2.58932218198e-11
-6.01784590578e-09
-1.53899598407e-10
-8.28341481476e-12
-6.09437921527e-09
-1.57843717749e-10
1.05142612733e-11
-6.12289925855e-09
-1.59261623289e-10
2.80927347796e-11
-6.09421701119e-09
-1.57800776714e-10
4.22223697296e-11
-6.01752669703e-09
-1.53814996712e-10
5.07577338783e-11
-5.89539769138e-09
-1.47604414694e-10
5.18159650214e-11
-5.7291133317e-09
-1.3956272613e-10
4.32065418604e-11
-5.5220289797e-09
-1.30263701777e-10
2.4895642539e-11
-5.28219704322e-09
-1.20340745054e-10
-5.02009964091e-09
-1.10201883767e-10
1.21138268515e-12
-7.33243476364e-11
-9.30653703073e-09
-5.50607273565e-10
-6.66116633671e-13
-1.299552486e-10
-9.7851986102e-09
-6.17735446985e-10
-1.55869455078e-10
-1.02282630335e-08
-6.84002174142e-10
-1.53612367458e-10
-1.06066422691e-08
-7.45803310841e-10
-1.27305708916e-10
-1.09087546313e-08
-7.99036908473e-10
-8.27454070874e-11
-1.11291913998e-08
-8.40052699492e-10
-2.67556935189e-11
-1.12670062033e-08
-8.66202882149e-10
3.30791348911e-11
-1.13182211465e-08
-8.75515763654e-10
8.89861471308e-11
-1.12666336675e-08
-8.66080038404e-10
1.33392937684e-10
-1.11284609761e-08
-8.39810443225e-10
1.59497598813e-10
-1.09077078862e-08
-7.98682512368e-10
1.61499973881e-10
-1.06053964589e-08
-7.45347573772e-10
1.35272822037e-10
-1.02269550782e-08
-6.83458842317e-10
7.81722377454e-11
-9.78402842904e-09
-6.17120535851e-10
-9.30564365031e-09
-5.49943764829e-10
3.46634211882e-12
-1.26736681238e-10
-1.27341061885e-08
-1.11159946229e-09
-9.42556087033e-13
-2.17987319963e-10
-1.33702565932e-08
-1.25566597762e-09
-2.6046913764e-10
-1.39576844482e-08
-1.39723763135e-09
-2.57312713498e-10
-1.44538028326e-08
-1.52838850554e-09
-2.13955953356e-10
-1.48472810515e-08
-1.64072272908e-09
-1.39567752329e-10
-1.51324875377e-08
-1.72691859358e-09
-4.55923485844e-11
-1.53101448133e-08
-1.78169573655e-09
5.49444268656e-11
-1.53761162739e-08
-1.80114195789e-09
1.48812193834e-10
-1.53096291671e-08
-1.78151514195e-09
2.22997085349e-10
-1.51314816685e-08
-1.72656075332e-09
2.6607381446e-10
-1.48458464028e-08
-1.64019723312e-09
2.68868324735e-10
-1.44520813881e-08
-1.52770979493e-09
2.25917226771e-10
-1.39558692557e-08
-1.39642447328e-09
1.33963707476e-10
-1.33685644768e-08
-1.25474020169e-09
-1.27327383668e-08
-1.1105938485e-09
5.26808343981e-12
-1.79966198309e-10
-1.52664131884e-08
-1.7096471927e-09
-1.0855815076e-12
-3.0290742965e-10
-1.59995477845e-08
-1.93481723641e-09
-3.60858560952e-10
-1.66683008706e-08
-2.15412416892e-09
-3.56648422529e-10
-1.72267059132e-08
-2.3555412238e-09
-2.97103689587e-10
-1.76661613071e-08
-2.5268228955e-09
-1.94316119221e-10
-1.79825590399e-08
-2.65753409574e-09
-6.41094721673e-11
-1.81789569897e-08
-2.74027663376e-09
7.52852981057e-11
-1.82519386975e-08
-2.76957600626e-09
2.0538235572e-10
-1.81783658364e-08
-2.74006224039e-09
3.07958937635e-10
-1.79814092062e-08
-2.65710827967e-09
3.67201454973e-10
-1.76645269418e-08
-2.52619512308e-09
3.71006371985e-10
-1.72247337581e-08
-2.35472611508e-09
3.1250876385e-10
-1.6666198291e-08
-2.15314161444e-09
1.88747618071e-10
-1.59975189463e-08
-1.93369079722e-09
-1.52646705551e-08
-1.70841277527e-09
6.52555366039e-12
-2.30115841164e-10
-1.69352217811e-08
-2.27910316792e-09
-1.12068269507e-12
-3.82690614174e-10
-1.77109951195e-08
-2.57810865653e-09
-4.54904025587e-10
-1.84061854551e-08
-2.86615571409e-09
-4.49484111589e-10
-1.89799788005e-08
-3.12823780956e-09
-3.7477546713e-10
-1.94278900832e-08
-3.34941751136e-09
-2.45565724026e-10
-1.9748340361e-08
-3.51724351974e-09
-8.17234863917e-11
-1.99466452118e-08
-3.62306039523e-09
9.37310699824e-11
-2.00204524664e-08
-3.66044558818e-09
2.57473098695e-10
-1.99460330461e-08
-3.62283228363e-09
3.8648559391e-10
-1.97471522139e-08
-3.51678948301e-09
4.6090171959e-10
-1.94262030694e-08
-3.3487457666e-09
4.65915408295e-10
-1.89779329162e-08
-3.12736137606e-09
3.93138000451e-10
-1.84039749215e-08
-2.86509300835e-09
2.39719715401e-10
-1.77088039615e-08
-2.57688161249e-09
-1.6933237621e-08
-2.2777466971e-09
7.27342330445e-12
-2.75572950278e-10
-1.78224231157e-08
-2.77143758171e-09
-1.08158478206e-12
-4.5601797286e-10
-1.85968578668e-08
-3.13091661872e-09
-5.41336558011e-10
-1.92773013372e-08
-3.47338256439e-09
-5.34641654407e-10
-1.98324197029e-08
-3.78221529695e-09
-4.45918322331e-10
-2.02623167659e-08
-4.04102634818e-09
-2.9252936144e-10
-2.05681629967e-08
-4.2363898763e-09
-9.80350576445e-11
-2.07569504926e-08
-4.35912863148e-09
1.10241799825e-10
-2.08273462055e-08
-4.40239663565e-09
3.04645206736e-10
-2.07563568241e-08
-4.35889891154e-09
4.5785183619e-10
-2.05670116163e-08
-4.23593210665e-09
5.46296975867e-10
-2.02606820741e-08
-4.04034777359e-09
5.52597021797e-10
-1.98304275153e-08
-3.78132751187e-09
4.6672074159e-10
-1.92751233619e-08
-3.47230229794e-09
2.85456750515e-10
-1.8594640271e-08
-3.12966329855e-09
-1.78203090454e-08
-2.77004278767e-09
7.62506957358e-12
-3.15931122984e-10
-1.80373918273e-08
-3.15953975786e-09
-1.00163000911e-12
-5.22397460029e-10
-1.87777236032e-08
-3.56498585029e-09
-6.19734079496e-10
-1.94160215784e-08
-3.9473433552e-09
-6.11802588784e-10
-1.993069756e-08
-4.2894996097e-09
-5.10273138388e-10
-2.03263264509e-08
-4.57455251272e-09
-3.34986194375e-10
-2.06064815053e-08
-4.78880637181e-09
-1.12857463209e-10
-2.07790530305e-08
-4.92300147243e-09
1.24966830407e-10
-2.08434960197e-08
-4.97019582729e-09
3.47007570844e-10
-2.07785016537e-08
-4.92277532132e-09
5.22115691703e-10
-2.06054121194e-08
-4.78835581831e-09
6.23368486411e-10
-2.03248063396e-08
-4.57388484689e-09
6.30905580566e-10
-1.99288349844e-08
-4.28862632122e-09
5.33016049669e-10
-1.94139600006e-08
-3.94628074282e-09
3.25761624561e-10
-1.87755770275e-08
-3.56375159675e-09
-1.8035239768e-08
-3.1581618276e-09
7.71459966031e-12
-3.51605239491e-10
-1.76979482005e-08
-3.4345312285e-09
-9.03967762811e-13
-5.82035697327e-10
-1.83814847155e-08
-3.87323644568e-09
-6.90359305335e-10
-1.89612886003e-08
-4.28340912325e-09
-6.81295188195e-10
-1.94233621107e-08
-4.64814714037e-09
-5.68143237749e-10
-1.97762373951e-08
-4.95059139561e-09
-3.73114896208e-10
-2.00252212878e-08
-5.17715208518e-09
-1.2617801181e-10
-2.01783249506e-08
-5.31868398191e-09
1.38130997113e-10
-2.02355189955e-08
-5.36832140426e-09
3.84974516237e-10
-2.01778262178e-08
-5.31846239618e-09
5.79812303913e-10
-2.00242532161e-08
-5.17671132397e-09
6.9266990641e-10
-1.97748571601e-08
-4.94993987393e-09
7.0131966969e-10
-1.94216597678e-08
-4.647297758e-09
5.9243011329e-10
-1.89593788886e-08
-4.28237942283e-09
3.61226088334e-10
-1.83794527471e-08
-3.87204375718e-09
-1.76958048013e-08
-3.43320092936e-09
7.66563260724e-12
-3.83387968954e-10
-1.69178858746e-08
-3.59962386184e-09
-8.04791620499e-13
-6.35596398421e-10
-1.7530139476e-08
-4.06168951267e-09
-7.53949684478e-10
-1.80428846112e-08
-4.49066549683e-09
-7.43866675747e-10
-1.84469125301e-08
-4.87019557547e-09
-6.20162756186e-10
-1.87538840722e-08
-5.18373458423e-09
-4.07319028888e-10
-1.89699885796e-08
-5.41797218754e-09
-1.38094862966e-10
-1.91026637346e-08
-5.56395151005e-09
1.49966466675e-10
-1.91521515362e-08
-5.61497907013e-09
4.19084440229e-10
-1.91022179294e-08
-5.56373380906e-09
6.3171227638e-10
-1.89691212169e-08
-5.41754024793e-09
7.55085812783e-10
-1.87526411708e-08
-5.18309870803e-09
7.64713806629e-10
-1.8445364819e-08
-4.86937121202e-09
6.4575980975e-10
-1.80411205311e-08
-4.4896728092e-09
3.92768941705e-10
-1.75282175271e-08
-4.06054673877e-09
-1.69157692777e-08
-3.59835531541e-09
7.56845151423e-12
-4.12097555809e-10
-1.58006837161e-08
-3.66431804071e-09
-7.13380736722e-13
-6.83977800981e-10
-1.63334450174e-08
-4.1425045408e-09
-8.11533124508e-10
-1.67756730078e-08
-4.58390197137e-09
-8.00498031086e-10
-1.71207519205e-08
-4.9727871555e-09
-6.67114610708e-10
-1.73822401927e-08
-5.29304318999e-09
-4.38088024554e-10
-1.75662173303e-08
-5.53173383936e-09
-1.48757270822e-10
-1.76789783848e-08
-5.68013519756e-09
1.60678521041e-10
-1.77208534878e-08
-5.73180248368e-09
4.49884841852e-10
-1.76785777296e-08
-5.67992059214e-09
6.78660066e-10
-1.75654345906e-08
-5.53130930162e-09
8.11663560187e-10
-1.73811096543e-08
-5.29242124808e-09
8.22186424007e-10
-1.71193258733e-08
-4.97198640138e-09
6.93977389826e-10
-1.67740152451e-08
-4.58294600162e-09
4.21280513303e-10
-1.63315919479e-08
-4.14141328986e-09
-1.5798562867e-08
-3.66311611362e-09
7.48253753746e-12
-4.38363056355e-10
-1.44374784785e-08
-3.64031085403e-09
-6.33391216902e-13
-7.28203508675e-10
-1.48869791911e-08
-4.1294596592e-09
-8.64344447382e-10
-1.52585975745e-08
-4.57882114675e-09
-8.52293294117e-10
-1.55470983332e-08
-4.97323462974e-09
-7.0980743795e-10
-1.57660176438e-08
-5.29707064067e-09
-4.65901248201e-10
-1.59202422825e-08
-5.53786407924e-09
-1.58320838345e-10
-1.6014545717e-08
-5.68718859193e-09
1.70430705179e-10
-1.60492636545e-08
-5.73893125722e-09
4.77865019887e-10
-1.60141760996e-08
-5.68697692259e-09
7.21478035213e-10
-1.5919516445e-08
-5.53744657577e-09
8.63525815223e-10
-1.57649585906e-08
-5.29646200883e-09
8.7499705711e-10
-1.55457409459e-08
-4.97245669e-09
7.38136122028e-10
-1.52569840938e-08
-4.57790124078e-09
4.47427157315e-10
-1.48851262394e-08
-4.12841975828e-09
-1.44352995321e-08
-3.63917663652e-09
7.43940420158e-12
-4.6257461894e-10
-1.29074394958e-08
-3.53916895348e-09
-5.6301524336e-13
-7.69570148752e-10
-1.32723198398e-08
-4.03564798904e-09
-9.13888998509e-10
-1.35759635923e-08
-4.48985036567e-09
-9.00402205779e-10
-1.3813074557e-08
-4.88698713321e-09
-7.48959379943e-10
-1.39941747093e-08
-5.21200195182e-09
-4.91138850113e-10
-1.41220468691e-08
-5.45304790558e-09
-1.66909594374e-10
-1.41999154907e-08
-5.60209572908e-09
1.79329502279e-10
-1.42281545801e-08
-5.65345780237e-09
5.03388876572e-10
-1.41995584457e-08
-5.60188769928e-09
7.60871120549e-10
-1.41213409586e-08
-5.45263862676e-09
9.11813208028e-10
-1.39931330274e-08
-5.21140793595e-09
9.24646635154e-10
-1.38117180937e-08
-4.88623309309e-09
7.79533684282e-10
-1.35743157889e-08
-4.48896737896e-09
4.71604645829e-10
-1.32703825566e-08
-4.03466033559e-09
-1.29051312146e-08
-3.53810344081e-09
7.45035169028e-12
-4.85685476871e-10
-1.12784022133e-08
-3.37128516143e-09
-5.03122750238e-13
-8.1060680537e-10
-1.15578511315e-08
-3.87268566881e-09
-9.62139220492e-10
-1.18000684451e-08
-4.32955306083e-09
-9.4581555764e-10
-1.19936116318e-08
-4.72721646989e-09
-7.84956999109e-10
-1.2142690496e-08
-5.05141544861e-09
-5.1393107167e-10
-1.2248023776e-08
-5.29114095544e-09
-1.7455956797e-10
-1.23116967603e-08
-5.43888399046e-09
1.87381171866e-10
-1.23342588634e-08
-5.48947520823e-09
5.26558369112e-10
-1.23113286241e-08
-5.43868118336e-09
7.9719964249e-10
-1.22472914535e-08
-5.29074272323e-09
9.57492247874e-10
-1.21416027199e-08
-5.05083945898e-09
9.73086890928e-10
-1.19921762777e-08
-4.72648956753e-09
8.20681884894e-10
-1.17982949627e-08
-4.32870981709e-09
4.94754148789e-10
-1.15557262166e-08
-3.87175356406e-09
-1.1275865096e-08
-3.37029243643e-09
7.49899141383e-12
-5.13347372024e-10
-9.60362927762e-09
-3.14558180998e-09
-4.54592089017e-13
-8.57029904396e-10
-9.80162695972e-09
-3.6508374123e-09
-1.01160613115e-09
-9.99553558521e-09
-4.10880689873e-09
-9.89210723862e-10
-1.01543330312e-08
-4.50506300685e-09
-8.17874660326e-10
-1.02768179103e-08
-4.82665025901e-09
-5.34240300602e-10
-1.03631542572e-08
-5.0636498949e-09
-1.812685825e-10
-1.04148569567e-08
-5.2091785283e-09
1.94549933948e-10
-1.04325780547e-08
-5.2586572989e-09
5.47303485716e-10
-1.04144491661e-08
-5.20898339257e-09
8.30504899349e-10
-1.0362342595e-08
-5.0632671794e-09
1.00121085228e-09
-1.02756058265e-08
-4.82609791152e-09
1.02280031898e-09
-1.01527265341e-08
-4.50436869899e-09
8.67274226099e-10
-9.99353609872e-09
-4.10800784668e-09
5.22512065904e-10
-9.79920408921e-09
-3.64996607742e-09
-9.6007522799e-09
-3.14467074269e-09
7.59845907123e-12
-5.64680443275e-10
-2.86914601916e-09
-4.02605601608e-13
-7.91018305223e-09
-9.19732746825e-10
-3.37929796475e-09
-8.06073606131e-09
-1.06959977531e-09
-3.83661019255e-09
-8.22157588933e-09
-1.03710324821e-09
-4.2296112763e-09
-8.35257115363e-09
-8.53374149941e-10
-4.54706833018e-09
-8.45328620257e-09
-5.55971373908e-10
-4.7802361005e-09
-8.52453623142e-09
-1.88427626197e-10
-4.92285916477e-09
-8.5669715807e-09
2.02195611566e-10
-4.97096810009e-09
-8.58092442164e-09
5.69496051979e-10
-4.9226751013e-09
-8.5664910164e-09
8.66419258169e-10
-4.77987532874e-09
-8.52357967659e-09
1.04944970188e-09
-4.54654827608e-09
-8.45186050788e-09
1.08105964704e-09
-4.22895872192e-09
-8.35068378229e-09
9.30158184401e-10
-3.83586317546e-09
-8.2192281169e-09
5.7395701844e-10
-3.37848899415e-09
-8.05790171431e-09
-2.86833755206e-09
7.71675312499e-12
-7.9068389985e-09
-5.56631559695e-12
3.41707188927e-10
-4.46491118512e-10
1.86136525283e-13
-8.10799758674e-12
3.77621689945e-10
-4.95137091975e-10
-8.46742926967e-12
4.12051390321e-10
-5.41475138586e-10
-7.79316662728e-12
4.43577718505e-10
-5.83312683829e-10
-6.26179713213e-12
4.69774596594e-10
-6.18436655532e-10
-4.10825486947e-12
4.89411762506e-10
-6.45016381139e-10
-1.53905169392e-12
5.01721621313e-10
-6.61822988576e-10
1.17828230824e-12
5.06092323742e-10
-6.67860739857e-10
3.743071701e-12
5.01594960291e-10
-6.61815622904e-10
5.87761699499e-12
4.89157087117e-10
-6.45001662892e-10
7.35936412084e-12
4.69407535412e-10
-6.18414551067e-10
7.97347087334e-12
4.43170668621e-10
-5.83282858258e-10
7.54940368072e-12
4.116513223e-10
-5.41437154787e-10
5.00260098608e-12
3.77342906905e-10
-4.95089655238e-10
3.41568380557e-10
-4.46430683269e-10
-2.95707735988e-13
-7.23102261798e-12
9.7847429978e-10
-1.18013323563e-09
4.7165262965e-13
-9.28465643048e-12
1.0689957942e-09
-1.306226887e-09
-8.65882716266e-12
1.1543145935e-09
-1.4258421426e-09
-7.07669177582e-12
1.23067143054e-09
-1.5334346056e-09
-5.22778877954e-12
1.29328300317e-09
-1.62349672195e-09
-3.3567798359e-12
1.33966439959e-09
-1.6915033963e-09
-1.49315374156e-12
1.36856223751e-09
-1.73443476142e-09
3.80067595811e-13
1.37885483632e-09
-1.74982689508e-09
2.23035592097e-12
1.36830340843e-09
-1.73441222059e-09
4.05425883778e-12
1.33914573623e-09
-1.69145829712e-09
5.7971234149e-12
1.29253719633e-09
-1.62342920547e-09
7.24163945737e-12
1.2298244416e-09
-1.53334424899e-09
7.74460417051e-12
1.15350287512e-09
-1.42572817304e-09
5.70567849091e-12
1.06842050266e-09
-1.30608647761e-09
9.78201803796e-10
-1.17995971239e-09
-8.51756097714e-13
-2.86008451948e-12
1.6544680177e-09
-1.78495162366e-09
6.70659446382e-13
-6.32323648979e-13
1.78802589367e-09
-1.97616188906e-09
2.38423478525e-12
1.91203245641e-09
-2.15702763679e-09
4.45530022265e-12
2.02050164748e-09
-2.31935242993e-09
4.71302947211e-12
2.10809716092e-09
-2.45500348003e-09
3.23393921009e-12
2.1721283316e-09
-2.55730938713e-09
5.83946920861e-13
2.21174198059e-09
-2.62180686608e-09
-2.4476308357e-12
2.22590409082e-09
-2.64486956916e-09
-5.1173822434e-12
2.21143000709e-09
-2.62176781402e-09
-6.65841531567e-12
2.17150830695e-09
-2.55723261325e-09
-6.52915278013e-12
2.10721561953e-09
-2.45488963625e-09
-4.62514498027e-12
2.0195062052e-09
-2.31920170686e-09
-1.73936175632e-12
1.91111139534e-09
-2.15684000689e-09
5.42068807438e-13
1.78740103732e-09
-1.97593500495e-09
1.65423942996e-09
-1.78467795889e-09
-1.35323906052e-12
5.07804700195e-12
2.2260965936e-09
-2.28671583356e-09
8.01080257684e-13
1.34331044006e-11
2.37965215042e-09
-2.53410411279e-09
1.93972068563e-11
2.52021160944e-09
-2.76741844411e-09
2.14504953591e-11
2.64009776573e-09
-2.97636845751e-09
1.89710165937e-11
2.73514587014e-09
-3.15070866465e-09
1.25756454958e-11
2.80354466614e-09
-3.28203993789e-09
3.61511171658e-12
2.84551951001e-09
-3.36472448182e-09
-6.19402098358e-12
2.86060736226e-09
-3.39420967485e-09
-1.51776496662e-11
2.84520782194e-09
-3.36466976675e-09
-2.16381485882e-11
2.80293115875e-09
-3.28193254737e-09
-2.42446386875e-11
2.73428478676e-09
-3.15055022272e-09
-2.23515254368e-11
2.63913497905e-09
-2.9761605526e-09
-1.64959337509e-11
2.51935010499e-09
-2.76716253264e-09
-8.03892260363e-12
2.37911325347e-09
-2.53379891052e-09
2.22598993428e-09
-2.28635652144e-09
-1.79710165926e-12
1.4694565671e-11
2.62321551848e-09
-2.69138339557e-09
8.77566399305e-13
2.93387296707e-11
2.77426954109e-09
-2.98675257171e-09
3.79894634548e-11
2.91060600917e-09
-3.2644549605e-09
3.95201657295e-11
3.02365218643e-09
-3.51261688023e-09
3.38412840794e-11
3.11133965597e-09
-3.71934900531e-09
2.22101201695e-11
3.17327110404e-09
-3.87489952847e-09
6.75233473666e-12
3.21092974425e-09
-3.97269517021e-09
-9.97102045292e-12
3.22458068191e-09
-4.00746827591e-09
-2.54524940631e-11
3.21064644463e-09
-3.97262486275e-09
-3.71442916379e-11
3.17271921156e-09
-3.87476184678e-09
-4.29349885104e-11
3.11057424576e-09
-3.71914707239e-09
-4.15372541097e-11
3.02281053522e-09
-3.51235449049e-09
-3.29567623306e-11
2.90988015635e-09
-3.26413623144e-09
-1.81646009816e-11
2.77387453178e-09
-2.9863787274e-09
2.62325915252e-09
-2.69095252221e-09
-2.17936351404e-12
2.45466184139e-11
2.83172334193e-09
-3.00502264658e-09
9.11713032105e-13
4.46742371032e-11
2.96475123102e-09
-3.34096874984e-09
5.5355662127e-11
3.08300081567e-09
-3.65581722196e-09
5.59857037721e-11
3.17796617387e-09
-3.93655671825e-09
4.71476004523e-11
3.2497097713e-09
-4.17006366671e-09
3.07322597756e-11
3.29923003849e-09
-4.34555623945e-09
9.51929836879e-12
3.32902029447e-09
-4.45572865987e-09
-1.32742720301e-11
3.3399611851e-09
-4.49478079208e-09
-3.4509584871e-11
3.32877546121e-09
-4.45564289122e-09
-5.09772887845e-11
3.29875800043e-09
-4.3453887235e-09
-5.99046417659e-11
3.24906466189e-09
-4.16981953052e-09
-5.93722910403e-11
3.17726885193e-09
-3.93624269639e-09
-4.87157260859e-11
3.08242540694e-09
-3.65544097658e-09
-2.8402948889e-11
2.9644853238e-09
-3.34053475859e-09
2.83188768119e-09
-3.00453204419e-09
-2.49963584072e-12
3.36341868043e-11
2.87178388918e-09
-3.23379616746e-09
9.14965119524e-13
5.80544479763e-11
2.97954272885e-09
-3.60371689043e-09
7.0033732732e-11
3.07351675817e-09
-3.94929404399e-09
6.95589511122e-11
3.14619931613e-09
-4.25675233972e-09
5.79139776752e-11
3.19929925939e-09
-4.51208316118e-09
3.75424511267e-11
3.23486349973e-09
-4.7037507464e-09
1.17175351258e-11
3.25597179317e-09
-4.82389110115e-09
-1.58953408233e-11
3.2638855511e-09
-4.86633192307e-09
-4.17399005164e-11
3.25576707942e-09
-4.82379026051e-09
-6.21531740015e-11
3.23447220747e-09
-4.70355432803e-09
-7.38625553846e-11
3.19877101084e-09
-4.5117986883e-09
-7.43971191074e-11
3.14563642177e-09
-4.25639003519e-09
-6.23997120359e-11
3.07307097831e-09
-3.94886573742e-09
-3.77636360137e-11
2.97937630241e-09
-3.60323070841e-09
2.87201673215e-09
-3.23325628653e-09
-2.75543089253e-12
4.13691883858e-11
2.77909916976e-09
-3.38377853713e-09
8.93933928711e-13
6.88921735451e-11
2.86100973134e-09
-3.78180928405e-09
8.15306309073e-11
2.93036998869e-09
-4.15244236506e-09
7.99079603393e-11
2.98154159706e-09
-4.48144669674e-09
6.59550896764e-11
3.01723309122e-09
-4.75422582156e-09
4.25570988484e-11
3.0401121269e-09
-4.9587327336e-09
1.33225212838e-11
3.05343105074e-09
-5.08670348321e-09
-1.78154912742e-11
3.0585987975e-09
-5.13174126573e-09
-4.70658964105e-11
3.05326253907e-09
-5.08658838733e-09
-7.04936728274e-11
3.03979221597e-09
-4.95850912207e-09
-8.44858339062e-11
3.01680489344e-09
-4.75390383551e-09
-8.6130767338e-11
2.98108923664e-09
-4.48104034611e-09
-7.34347625394e-11
2.93001813067e-09
-4.15196796671e-09
-4.56731096378e-11
2.86089524612e-09
-3.78127869929e-09
2.7793305648e-09
-3.3831989893e-09
-2.95101416214e-12
4.74776018489e-11
2.59221636725e-09
-3.46076884651e-09
8.56038886368e-13
7.70903188904e-11
2.65174696303e-09
-3.88168038081e-09
8.99171580778e-11
2.69958837307e-09
-4.27233041304e-09
8.72310237769e-11
2.73266009573e-09
-4.61828151827e-09
7.1507153341e-11
2.75411219721e-09
-4.90460347766e-09
4.59588344713e-11
2.76687353273e-09
-5.11895922986e-09
1.43975246429e-11
2.77405264432e-09
-5.25283735018e-09
-1.9114499676e-11
2.77702493273e-09
-5.29975861708e-09
-5.06865986232e-11
2.77391518181e-09
-5.25270930638e-09
-7.62515299375e-11
2.76661291263e-09
-5.11871102532e-09
-9.1989592824e-11
2.75376309622e-09
-4.90424790668e-09
-9.46628395336e-11
2.73228766442e-09
-4.61783642575e-09
-8.17425833032e-11
2.69929185263e-09
-4.27181663097e-09
-5.18753539841e-11
2.65163586136e-09
-3.88111332834e-09
2.59238869725e-09
-3.46015883632e-09
-3.09200009161e-12
5.1908735113e-11
2.34566938117e-09
-3.47019411645e-09
8.07413623408e-13
8.28143974155e-11
2.38794743183e-09
-3.90930038902e-09
9.55382713451e-11
2.41875469313e-09
-4.31547691078e-09
9.19646938583e-11
2.43799635402e-09
-4.67426627991e-09
7.49857668224e-11
2.44890415965e-09
-4.97061969636e-09
4.80388657034e-11
2.45439426003e-09
-5.19211830691e-09
1.50407303112e-11
2.45722098167e-09
-5.33015627478e-09
-1.99109159466e-11
2.45860298008e-09
-5.37831198753e-09
-5.29137108117e-11
2.45710790471e-09
-5.33001705896e-09
-7.98629435991e-11
2.45417864822e-09
-5.19184895383e-09
-9.68314684093e-11
2.44861120764e-09
-4.97023550758e-09
-1.00358872779e-10
2.43767327487e-09
-4.67378875811e-09
-8.75095968801e-11
2.41847467046e-09
-4.3149311994e-09
-5.63356586768e-11
2.38779388549e-09
-3.90870508683e-09
2.34572032778e-09
-3.46956268597e-09
-3.18726275107e-12
5.47616142624e-11
2.06723719334e-09
-3.41711366605e-09
7.53085546583e-13
8.63680674825e-11
2.09736942916e-09
-3.87022568734e-09
9.88695870362e-11
2.11564858564e-09
-4.2879574006e-09
9.46515335596e-11
2.12514132298e-09
-4.65593065571e-09
7.68784376531e-11
2.12895879575e-09
-4.95915835456e-09
4.91284726265e-11
2.12978361614e-09
-5.18534554831e-09
1.53630059087e-11
2.12987466415e-09
-5.32595075031e-09
-2.03353197355e-11
2.13022045057e-09
-5.37474913055e-09
-5.40983130508e-11
2.12977845407e-09
-5.32580254158e-09
-8.18354211224e-11
2.12959776579e-09
-5.18505920491e-09
-9.95739417206e-11
2.12869846183e-09
-4.95875136743e-09
-1.03715093819e-10
2.12483653023e-09
-4.65542781637e-09
-9.10594300116e-11
2.11534881669e-09
-4.28738781393e-09
-5.91726184319e-11
2.09713347069e-09
-3.86961065657e-09
2.06711904642e-09
-3.41646974896e-09
-3.24527992708e-12
5.62218587507e-11
1.77768923958e-09
-3.30628499871e-09
6.93349212531e-13
8.81656222782e-11
1.79973816914e-09
-3.76973967459e-09
1.00513232627e-10
1.80926843531e-09
-4.19560655683e-09
9.59369508482e-11
1.8124727835e-09
-4.56955541575e-09
7.77395929588e-11
1.81214187869e-09
-4.87682977897e-09
4.95936673818e-11
1.81049105651e-09
-5.1054822426e-09
1.54874519862e-11
1.80919652216e-09
-5.24720526695e-09
-2.05267240626e-11
1.80896776908e-09
-5.2961080466e-09
-5.46223594194e-11
1.80910933693e-09
-5.24705059405e-09
-8.27397985553e-11
1.81031831193e-09
-5.10518367146e-09
-1.00879116143e-10
1.81188964342e-09
-4.87640649203e-09
-1.05350134208e-10
1.81215588295e-09
-4.56903493762e-09
-9.28226265781e-11
1.80891492489e-09
-4.19502156448e-09
-6.05871919462e-11
1.79938610521e-09
-3.76911384792e-09
1.77737026061e-09
-3.30563763437e-09
-3.27500408934e-12
5.6586646345e-11
1.49165279729e-09
-3.14224311389e-09
6.32089721301e-13
8.88902637254e-11
1.50799653787e-09
-3.6130642505e-09
1.01364538738e-10
1.51168122868e-09
-4.04426896061e-09
9.6687628104e-11
1.51148301666e-09
-4.42140039985e-09
7.82593036077e-11
1.50945911111e-09
-4.73017922447e-09
4.98744445257e-11
1.50712136403e-09
-4.95927758452e-09
1.5558770803e-11
1.50551071266e-09
-5.10080046199e-09
-2.06402583302e-11
1.50508672162e-09
-5.14931976156e-09
-5.49371074374e-11
1.50542257586e-09
-5.10064220835e-09
-8.3277409286e-11
1.50694323207e-09
-4.95897215765e-09
-1.01624818512e-10
1.50919063719e-09
-4.72974679052e-09
-1.06170516399e-10
1.51112458259e-09
-4.42087039622e-09
-9.34927910679e-11
1.51124140931e-09
-4.04367725194e-09
-6.0885810602e-11
1.50749395008e-09
-3.61243726668e-09
1.49110315951e-09
-3.14160271014e-09
-3.28083525371e-12
5.64941284372e-11
1.21856655802e-09
-2.92935843266e-09
5.72090160096e-13
8.98280497457e-11
1.2296927562e-09
-3.40571810315e-09
1.02824550386e-10
1.23008471829e-09
-3.84007045995e-09
9.80982071944e-11
1.22912558291e-09
-4.21785654725e-09
7.93284993913e-11
1.22747928461e-09
-4.52579393186e-09
5.05104413294e-11
1.22586036998e-09
-4.75348702155e-09
1.57637378777e-11
1.22476898434e-09
-4.89361248612e-09
-2.08687460021e-11
1.22442747833e-09
-4.94130881371e-09
-5.55880002137e-11
1.22466895357e-09
-4.89345398485e-09
-8.43441911342e-11
1.22565611672e-09
-4.75318093577e-09
-1.03011870709e-10
1.22716395611e-09
-4.52536047138e-09
-1.07583910168e-10
1.22869182102e-09
-4.21732574193e-09
-9.43641136286e-11
1.22952747462e-09
-3.83948059354e-09
-6.0714806366e-11
1.22900711823e-09
-3.40510009596e-09
1.2177504826e-09
-2.92873822012e-09
-3.26936201647e-12
5.5707591905e-11
-2.67282041366e-09
5.05957006756e-13
9.66206496622e-10
9.2558902357e-11
-3.1550413584e-09
9.68710524331e-10
1.06420733071e-10
-3.58996945902e-09
9.69698152202e-10
1.0143867116e-10
-3.96564351744e-09
9.70238805214e-10
8.19397413471e-11
-4.27034537978e-09
9.70342746285e-10
5.2159473935e-11
-4.49482405439e-09
9.70306537495e-10
1.63213392365e-11
-4.63241097013e-09
9.70220080686e-10
-2.14337508695e-11
-4.67887286296e-09
9.70143385383e-10
-5.72352592639e-11
-4.63225633294e-09
9.70093462058e-10
-8.69364319839e-11
-4.49452517036e-09
9.70050487745e-10
-1.06309999691e-10
-4.2699215241e-09
9.69948063193e-10
-1.11113813493e-10
-3.9651234321e-09
9.69694407254e-10
-9.70133741805e-11
-3.58939217154e-09
9.68986190158e-10
-5.98416190071e-11
-3.15443833304e-09
9.67812457848e-10
-2.67224461158e-09
-3.23898986504e-12
9.65080759437e-10
4.83640217926e-12
-7.19387627002e-11
-3.79409932605e-10
-8.07483644612e-14
7.4297692564e-12
-8.01984753705e-11
-4.17723484729e-10
8.50703004672e-12
-8.87941766951e-11
-4.53986941218e-10
8.27205334086e-12
-9.6702481674e-11
-4.86581935592e-10
6.85548267518e-12
-1.03363315713e-10
-5.13840530856e-10
4.49449308218e-12
-1.08387600732e-10
-5.34405466499e-10
1.51128128295e-12
-1.11544066137e-10
-5.47388680021e-10
-1.69417348996e-12
-1.12655068773e-10
-5.52060627905e-10
-4.66824876645e-12
-1.11504463204e-10
-5.4737689979e-10
-7.00829073233e-12
-1.0830757412e-10
-5.3438221693e-10
-8.38976448802e-12
-1.03247680023e-10
-5.13806468667e-10
-8.58239510435e-12
-9.65699343534e-11
-4.86537945326e-10
-7.44954615597e-12
-8.86511674569e-11
-4.53933794059e-10
-4.8067791808e-12
-8.00846103008e-11
-4.17661097649e-10
-7.18789303982e-11
-3.79335044918e-10
-3.48737331665e-14
1.08021563185e-11
-1.64442487082e-10
-1.09841769529e-09
-1.97535989796e-13
1.71337354882e-11
-1.81214523226e-10
-1.21185453045e-09
1.98482265111e-11
-1.98427818458e-10
-1.31927441422e-09
1.93654446134e-11
-2.14158475358e-10
-1.41582101698e-09
1.60657791075e-11
-2.27257783942e-10
-1.49657692339e-09
1.05349596474e-11
-2.37048082313e-10
-1.55751698287e-09
3.5479265712e-12
-2.43164007121e-10
-1.59596801088e-09
-3.95545601815e-12
-2.45318250801e-10
-1.60975338688e-09
-1.09201662673e-11
-2.43080412995e-10
-1.59593383417e-09
-1.64012969458e-11
-2.36879390639e-10
-1.55744948529e-09
-1.96205113457e-11
-2.27013123589e-10
-1.4964780498e-09
-2.00000217382e-11
-2.13868845513e-10
-1.41569335476e-09
-1.71597165603e-11
-1.98122704536e-10
-1.319120418e-09
-1.07172605202e-11
-1.80959428596e-10
-1.21167423431e-09
-1.6429521327e-10
-1.09820525719e-09
-7.14271318137e-14
1.3910916458e-11
-2.41719597991e-10
-1.72148520561e-09
-2.71974324889e-13
2.23923383392e-11
-2.63988826083e-10
-1.90215057796e-09
2.60818904529e-11
-2.86523260175e-10
-2.07293496843e-09
2.54700420871e-11
-3.06976194149e-10
-2.2262087769e-09
2.11218727244e-11
-3.23866225235e-10
-2.35428493147e-09
1.38452040654e-11
-3.36393973542e-10
-2.45086433233e-09
4.67277966579e-12
-3.44182014933e-10
-2.51173871289e-09
-5.16865162192e-12
-3.46926634719e-10
-2.53350152053e-09
-1.43114139779e-11
-3.44077215573e-10
-2.5116836281e-09
-2.15235013835e-11
-3.36183823702e-10
-2.4507557049e-09
-2.57681650347e-11
-3.23562493869e-10
-2.35412606046e-09
-2.62443471348e-11
-3.06615576283e-10
-2.2260040864e-09
-2.23932360825e-11
-2.86146454651e-10
-2.07268896766e-09
-1.37712276533e-11
-2.63670424904e-10
-1.90186451556e-09
-2.41530460762e-10
-1.72115282812e-09
-7.69317579892e-14
1.50407119885e-11
-3.02786885493e-10
-2.24054335242e-09
-3.13597744143e-13
2.44342016908e-11
-3.28280306629e-10
-2.479459881e-09
2.85843839798e-11
-3.5360804094e-10
-2.70476274951e-09
2.79402710398e-11
-3.76344192604e-10
-2.90660738093e-09
2.31668987291e-11
-3.94946819055e-10
-3.07505921048e-09
1.51867269716e-11
-4.08637658192e-10
-3.20196866773e-09
5.14522593314e-12
-4.17108547856e-10
-3.28186384782e-09
-5.62158192323e-12
-4.20096234395e-10
-3.31034657618e-09
-1.56312049536e-11
-4.16998791307e-10
-3.28178933144e-09
-2.35431542819e-11
-4.08418962255e-10
-3.2018219727e-09
-2.82076584685e-11
-3.94631468843e-10
-3.07484512756e-09
-2.87070088957e-11
-3.75967731086e-10
-2.90633243242e-09
-2.43861008881e-11
-3.53215815966e-10
-2.70443399532e-09
-1.48452299525e-11
-3.2794581642e-10
-2.47908090217e-09
-3.02578204693e-10
-2.2401096189e-09
-5.69105640237e-14
1.48079004657e-11
-3.47043859251e-10
-2.66175911121e-09
-3.30264971524e-13
2.42272658156e-11
-3.73941771212e-10
-2.9507353208e-09
2.84451005351e-11
-4.00042463494e-10
-3.22247934365e-09
2.78336273304e-11
-4.23114139811e-10
-3.46544821183e-09
2.30826839356e-11