/*--------------------------------*- C++ -*----------------------------------*\
  =========                 |
  \\      /  F ield         | OpenFOAM: The Open Source CFD Toolbox
   \\    /   O peration     | Website:  https://openfoam.org
    \\  /    A nd           | Version:  7
     \\/     M anipulation  |
\*---------------------------------------------------------------------------*/
FoamFile
{
    version     2.0;
    format      ascii;
    class       volVectorField;
    location    "1";
    object      U;
}
// * * * * * * * * * * * * * * * * * * * * * * * * * * * * * * * * * * * * * //

dimensions      [0 1 -1 0 0 0 0];

internalField   nonuniform List<vector> 
22500
(
(-2.24202770824e-05 -2.51485214938e-05 2.36557301794e-05)
(-2.09056238577e-05 -2.86213127368e-05 2.46752371923e-05)
(-1.85536357367e-05 -3.20494295634e-05 2.52657573422e-05)
(-1.56756322135e-05 -3.50666852369e-05 2.54472868762e-05)
(-1.22307449351e-05 -3.75803701987e-05 2.53921649894e-05)
(-8.38305154743e-06 -3.9457090229e-05 2.52512405328e-05)
(-4.24883276311e-06 -4.06157195259e-05 2.51272145772e-05)
(3.29425664894e-08 -4.10057365579e-05 2.50838596719e-05)
(4.31407671256e-06 -4.06081376865e-05 2.51566266355e-05)
(8.44643149689e-06 -3.94421443796e-05 2.53096762259e-05)
(1.22914163216e-05 -3.75584262154e-05 2.54787788959e-05)
(1.57329816248e-05 -3.50385369862e-05 2.55606322179e-05)
(1.86070322857e-05 -3.20158051706e-05 2.54039543432e-05)
(2.09552638753e-05 -2.8583367078e-05 2.4835806879e-05)
(2.24625172131e-05 -2.51102370292e-05 2.38339207449e-05)
(-6.66138098129e-05 -7.44044829581e-05 -9.62861381519e-05)
(-6.19619656463e-05 -8.45437568338e-05 -0.000110148898374)
(-5.50567848961e-05 -9.45238487513e-05 -0.000124571707999)
(-4.65143965919e-05 -0.000103318139731 -0.000138508604309)
(-3.63311666523e-05 -0.000110634382274 -0.0001507413346)
(-2.4918216446e-05 -0.000116099718167 -0.000160235296808)
(-1.26366879066e-05 -0.000119476863965 -0.000166236529098)
(9.33639163611e-08 -0.000120613482494 -0.000168274756767)
(1.28216153524e-05 -0.000119454541837 -0.000166149858491)
(2.50979429078e-05 -0.000116055766706 -0.000160062941836)
(3.65029992398e-05 -0.000110570101749 -0.000150485513899)
(4.66763749525e-05 -0.000103235957529 -0.000138173161816)
(5.52069968156e-05 -9.4426554994e-05 -0.000124161785743)
(6.20995106084e-05 -8.44352234768e-05 -0.00010967126207)
(6.67303859373e-05 -7.42946402721e-05 -9.57532418942e-05)
(-0.000107761370301 -0.00011978893518 -0.000363401903864)
(-9.98111286891e-05 -0.000135820977162 -0.00040416741265)
(-8.85731931453e-05 -0.00015140533329 -0.000444559920185)
(-7.47092035821e-05 -0.000165087078297 -0.000481948095433)
(-5.83093049277e-05 -0.000176417184589 -0.000513798978464)
(-3.99713691543e-05 -0.000184861965569 -0.000538040054255)
(-2.02689786712e-05 -0.000190073491635 -0.00055318110664)
(1.38030571474e-07 -0.000191826624454 -0.000558306280837)
(2.05425882551e-05 -0.000190040311591 -0.000553049017652)
(4.02378849497e-05 -0.000184796581291 -0.000537776768272)
(5.85647913727e-05 -0.00017632152607 -0.000513406685853)
(7.49506047446e-05 -0.000164964583609 -0.000481430952744)
(8.87975940378e-05 -0.000151260602264 -0.000443923890557)
(0.00010001623284 -0.000135659915659 -0.000403420403969)
(0.000107936544749 -0.000119625046076 -0.000362559758703)
(-0.000144453963292 -0.000159992569486 -0.000735216274793)
(-0.000133236156353 -0.000180775229084 -0.000806776572805)
(-0.00011795493843 -0.000200704317812 -0.000875715782432)
(-9.92558087635e-05 -0.000218110185217 -0.000937993537219)
(-7.73512568284e-05 -0.000232450851589 -0.000990072769572)
(-5.29707677174e-05 -0.000243107312024 -0.00102918697597)
(-2.68518227527e-05 -0.000249671997427 -0.00105340809646)
(1.64870982294e-07 -0.000251878995251 -0.00106157798205)
(2.71789821418e-05 -0.000249632899607 -0.00105324706463)
(5.32904363415e-05 -0.000243030173471 -0.00102886499918)
(7.76590485985e-05 -0.000232337814478 -0.00098959049944)
(9.95480521519e-05 -0.00021796498015 -0.000937353079075)
(0.000118228056182 -0.000200532329284 -0.000874920929384)
(0.000133486515996 -0.000180583157525 -0.000805832636255)
(0.000144670303351 -0.000159794890188 -0.000734137082566)
(-0.000175827442836 -0.000194252276822 -0.00116214876871)
(-0.000161533335625 -0.000218473088584 -0.00126103733802)
(-0.000142584084368 -0.000241390135648 -0.00135401535368)
(-0.000119650004779 -0.000261294682905 -0.00143635657341)
(-9.30680642503e-05 -0.00027761132895 -0.00150415239613)
(-6.36517207641e-05 -0.000289699511493 -0.00155449336732)
(-3.22500076584e-05 -0.000297132682429 -0.0015854319704)
(1.77063189158e-07 -0.000299630232495 -0.00159583111287)
(3.26017217498e-05 -0.000297091636605 -0.00158525699286)
(6.39964116429e-05 -0.000289618439845 -0.00155414237391)
(9.34014295164e-05 -0.000277492322847 -0.00150362374506)
(0.000119968205965 -0.000261141329959 -0.00143564899019)
(0.000142883244414 -0.000241207756459 -0.00135312852516)
(0.000161808946502 -0.000218268343251 -0.0012599714232)
(0.0001760687851 -0.000194038513259 -0.00116091162454)
(-0.000201529419643 -0.000222286497126 -0.00160051235989)
(-0.00018446307344 -0.000248623160172 -0.00171907335239)
(-0.000162300194205 -0.000273244433458 -0.00182810291067)
(-0.00013580296188 -0.000294510711419 -0.00192302319432)
(-0.000105415656582 -0.000311862927636 -0.00200014544817)
(-7.19955074781e-05 -0.000324684146095 -0.00205685722298)
(-3.64553497915e-05 -0.000332555573398 -0.00209148700554)
(1.79940239411e-07 -0.000335199148509 -0.00210308978846)
(3.6813073781e-05 -0.000332515161797 -0.00209130823685)
(7.23469288128e-05 -0.000324604270568 -0.00205649763708)
(0.000105756770879 -0.000311745532476 -0.00199960126052)
(0.000136130032543 -0.000294359078854 -0.00192228978749)
(0.000162609338461 -0.000273063441415 -0.00182717559401)
(0.000184749355734 -0.000248418923511 -0.00171794638796)
(0.000201783470779 -0.000222070037888 -0.00159918587313)
(-0.000221636803782 -0.000244214173816 -0.00201934750457)
(-0.000202164731353 -0.000271444431606 -0.00214905484289)
(-0.0001772905962 -0.000296651059437 -0.00226602398356)
(-0.000147923707848 -0.000318304302794 -0.0023664266049)
(-0.000114587114905 -0.000335900735802 -0.00244713115185)
(-7.81482314024e-05 -0.000348874536489 -0.0025060179596)
(-3.95442452997e-05 -0.0003568296697 -0.00254179226126)
(1.78472837403e-07 -0.000359500436155 -0.00255374678255)
(3.98992511899e-05 -0.000356791296769 -0.00254161476514)
(7.8497541556e-05 -0.000348798673539 -0.00250566026734)
(0.000114927017494 -0.000335789187491 -0.00244658803179)
(0.000148250646998 -0.00031816004285 -0.00236569104113)
(0.000177600876532 -0.000296478426191 -0.0022650878871)
(0.000202453287934 -0.000271248801734 -0.00214790730133)
(0.000221895880784 -0.000244003788788 -0.00201798101359)
(-0.000236503385531 -0.000260411255279 -0.00240115308712)
(-0.00021501112907 -0.000287463554061 -0.00253476352229)
(-0.000187940050923 -0.000312320935278 -0.00265331331269)
(-0.000156377139804 -0.000333558448753 -0.00275397643241)
(-0.000120891663815 -0.000350757651192 -0.0028342449619)
(-8.23330405305e-05 -0.000363418248861 -0.00289248156842)
(-4.163202775e-05 -0.000371174260673 -0.00292772951955)
(1.76163382758e-07 -0.000373777521621 -0.00293948405473)
(4.19825465178e-05 -0.000371138523015 -0.00292755467047)
(8.26782249068e-05 -0.000363347613207 -0.0028921289131)
(0.000121227985557 -0.000350653807014 -0.00283370863197)
(0.000156701189459 -0.000333424117017 -0.00275324823247)
(0.000188248350744 -0.000312159945366 -0.00265238322897)
(0.00021529869668 -0.000287280596146 -0.00253361687427)
(0.000236763926645 -0.00026021180571 -0.0023997760222)
(-0.000246614991013 -0.000271376595631 -0.00273907844908)
(-0.00022347702806 -0.000297338356779 -0.00287145358715)
(-0.000194707952888 -0.000321073953279 -0.00298745811056)
(-0.000161576958582 -0.000341242594207 -0.00308522901769)
(-0.000124668077331 -0.000357529915501 -0.00316276963478)
(-8.47892332589e-05 -0.000369506349762 -0.00321881221727)
(-4.28415763224e-05 -0.000376838710628 -0.00325264726336)
(1.74980345106e-07 -0.000379299263808 -0.00326391338357)
(4.31897799865e-05 -0.000376805762462 -0.0032524744146)
(8.51322326981e-05 -0.000369441256047 -0.00321846361151)
(0.000125002403386 -0.00035743426177 -0.00316223942607)
(0.00016189926416 -0.000341118880334 -0.00308450889158)
(0.00019501492436 -0.000320925570084 -0.00298653751559)
(0.000223763858754 -0.000297169352836 -0.00287031545976)
(0.000246876519729 -0.000271190180737 -0.00273770430746)
(-0.000252489207669 -0.000277641516274 -0.00303313555255)
(-0.000228052210413 -0.000301743976177 -0.00316116942703)
(-0.000198054128019 -0.000323711095458 -0.00327241940826)
(-0.000163926077688 -0.000342277376279 -0.00336576606311)
(-0.000126239128338 -0.000357239088192 -0.00343954212228)
(-8.57413049821e-05 -0.000368234595909 -0.00349272796105)
(-4.32875004196e-05 -0.000374963651421 -0.00352478315962)
(1.75741018991e-07 -0.000377221201851 -0.00353544369504)
(4.3637222848e-05 -0.00037493346545 -0.0035246109139)
(8.60857971479e-05 -0.000368174976548 -0.00349238078888)
(0.000126574891094 -0.000357151498216 -0.00343901461303)
(0.000164249742502 -0.000342164081045 -0.00336505051544)
(0.000198362456634 -0.000323575080252 -0.00327150576669)
(0.000228340553122 -0.000301588693919 -0.00316003923352)
(0.000252753175727 -0.000277468515208 -0.00303176718132)
(-0.000254619855811 -0.000279723922264 -0.00328693114365)
(-0.000229196263129 -0.000301311862574 -0.00340909774698)
(-0.000198405194634 -0.000320955272612 -0.00351473482279)
(-0.000163792749787 -0.000337481971283 -0.00360315467149)
(-0.000125894506043 -0.000350785865912 -0.00367285524747)
(-8.53877710742e-05 -0.000360561901628 -0.00372299549795)
(-4.30704634862e-05 -0.00036654231198 -0.00375317017422)
(1.78555397918e-07 -0.000368547854849 -0.00376319365044)
(4.3425787195e-05 -0.000366514828861 -0.0037529971565)
(8.57377675807e-05 -0.000360507616819 -0.00372264706466)
(0.000126235601243 -0.000350706072251 -0.00367232659054)
(0.000164121503898 -0.000337378651774 -0.00360243909644)
(0.000198718359997 -0.000320830987087 -0.00351382344637)
(0.000229489309979 -0.000301169455988 -0.00340797127328)
(0.000254888770033 -0.00027956384452 -0.00328556554787)
(-0.000253445571843 -0.000278100353557 -0.00350541360923)
(-0.00022732375003 -0.00029659403402 -0.00362130224073)
(-0.00019615014901 -0.000313433852085 -0.00372131169726)
(-0.000161508357474 -0.00032757164366 -0.00380482970436)
(-0.000123888608719 -0.00033895545344 -0.00387045014754)
(-8.38995463255e-05 -0.000347319388233 -0.00391752757844)
(-4.2276306547e-05 -0.000352431532205 -0.00394580783362)
(1.83159788221e-07 -0.000354144360676 -0.00395518927267)
(4.26408075595e-05 -0.000352406743682 -0.00394563310198)
(8.42586190102e-05 -0.00034727038579 -0.00391717594612)
(0.000124238603611 -0.000338883308181 -0.00386991735421)
(0.000161845747589 -0.000327477991078 -0.00380411014331)
(0.000196471625606 -0.000313320766744 -0.00372039809485)
(0.000227624848697 -0.0002964637207 -0.00362017494405)
(0.000253722335251 -0.000277952703681 -0.00350404602241)
(-0.000249337029422 -0.000273132071245 -0.00369355600714)
(-0.000222834470715 -0.000288031235677 -0.00380362669059)
(-0.0001916620528 -0.000301690076872 -0.00389847467336)
(-0.000157374124455 -0.000313187312815 -0.00397726011998)
(-0.000120441472629 -0.000322450611807 -0.00403880957748)
(-8.14201885625e-05 -0.000329244575653 -0.00408278766428)
(-4.09763160918e-05 -0.000333387189369 -0.00410914063258)
(1.89113012147e-07 -0.000334772592011 -0.00411786788991)
(4.13527101419e-05 -0.000333365141 -0.00410896390122)
(8.17910960567e-05 -0.000329200913537 -0.00408243211187)
(0.000120803185559 -0.000322386172359 -0.00403827122434)
(0.000157723040977 -0.000313103298182 -0.00397653416547)
(0.000191994778995 -0.000301588000461 -0.00389755567775)
(0.000223146552408 -0.000287912551657 -0.00380249581383)
(0.000249624284332 -0.000272996658039 -0.00369218430776)
(-0.000242763062792 -0.000265058444589 -0.0038556720875)
(-0.000216253269601 -0.00027597283523 -0.00396147046749)
(-0.000185328558596 -0.000286201640272 -0.0040517453161)
(-0.000151659315414 -0.000294905702691 -0.00412577302724)
(-0.000115737656672 -0.000301890488626 -0.00418308357549)
(-7.80688695625e-05 -0.000306981155892 -0.00422380985715)
(-3.92302598761e-05 -0.000310068969635 -0.004248138667)
(1.9592098084e-07 -0.000311097957524 -0.00425617933089)
(3.96202785518e-05 -0.000310049690228 -0.00424796048417)
(7.84533794123e-05 -0.000306942912948 -0.00422345125537)
(0.000116112932968 -0.000301833843092 -0.00418254040823)
(0.000152021723976 -0.000294831437278 -0.00412504049847)
(0.000185674638447 -0.000286110648572 -0.00405081940242)
(0.000216578521043 -0.000275865684572 -0.00396033513395)
(0.000243063434596 -0.000264934771059 -0.00385430037529)
(-0.000234889562954 -0.000255056498641 -0.00399455327973)
(-0.000208476210286 -0.000260545187483 -0.00409976769017)
(-0.000177654496411 -0.000267393661116 -0.00418537104423)
(-0.000144765846022 -0.000273132304912 -0.00425425890179)
(-0.000110095096318 -0.00027766595582 -0.00430704837382)
(-7.40742255489e-05 -0.000280925246356 -0.00434435319483)
(-3.71587823728e-05 -0.000282884960828 -0.00436656851295)
(2.03125083464e-07 -0.000283534002477 -0.00437389543695)
(3.75632117586e-05 -0.000282868486424 -0.00436639044055)
(7.44731652904e-05 -0.000280892503145 -0.00434399445382)
(0.000110484799475 -0.000277617277635 -0.00430650430983)
(0.00014514262875 -0.000273068148543 -0.00425352357499)
(0.000178014906314 -0.000267314423668 -0.00418444038348)
(0.000208815234589 -0.00026045034829 -0.00409862226017)
(0.000235205295609 -0.000254945345822 -0.00399320401557)
(7.24908669017e-07 1.01297390929e-06 -0.000144349587702)
(5.918939037e-07 1.29382027902e-06 -0.000151538492768)
(4.79836696876e-07 1.50962808764e-06 -0.000158079021772)
(3.91588944101e-07 1.67535222285e-06 -0.000163757805358)
(2.94073360241e-07 1.80674799075e-06 -0.000168386217)
(1.95725693813e-07 1.90066491113e-06 -0.0001718067416)
(9.53340538419e-08 1.9570089055e-06 -0.000173908188377)
(-5.30830112937e-09 1.97526263168e-06 -0.0001746218594)
(-1.05883628841e-07 1.95494966541e-06 -0.0001739076842)
(-2.06207895116e-07 1.89645873873e-06 -0.000171805572374)
(-3.05027737012e-07 1.80019741306e-06 -0.000168383965443)
(-4.03622124596e-07 1.66646977937e-06 -0.000163753715876)
(-4.93257862776e-07 1.49814763289e-06 -0.000158072157496)
(-6.06515124916e-07 1.28038519911e-06 -0.000151527610206)
(-7.38225818371e-07 9.99475186322e-07 -0.000144333209449)
(5.48941998033e-06 6.56549015156e-06 -0.000427589820354)
(5.0455979025e-06 7.93727206311e-06 -0.000448339125126)
(4.47306880189e-06 9.17907530685e-06 -0.000467241885631)
(3.81324537223e-06 1.02463513543e-05 -0.00048366136557)
(2.99993218734e-06 1.1130539854e-05 -0.000497047645158)
(2.06809814026e-06 1.17889810505e-05 -0.00050694506801)
(1.04829251621e-06 1.21950967358e-05 -0.000513025954605)
(-1.63676251581e-08 1.23307895983e-05 -0.00051508583253)
(-1.08087329606e-06 1.21890883169e-05 -0.000513023626433)
(-2.10051111514e-06 1.17768186055e-05 -0.00050693995243)
(-3.03317118174e-06 1.11119638606e-05 -0.000497038554795)
(-3.84873208498e-06 1.02216053457e-05 -0.00048364615009)
(-4.51145449659e-06 9.1480735153e-06 -0.000467217841135)
(-5.08613146796e-06 7.90179188586e-06 -0.000448302747659)
(-5.52658537483e-06 6.52980416096e-06 -0.000427537531025)
(1.22920478614e-05 1.4281448113e-05 -0.000703362982523)
(1.14215646823e-05 1.68988491094e-05 -0.000736834017294)
(1.01814274955e-05 1.93391166227e-05 -0.000767310581968)
(8.67095040335e-06 2.14577659407e-05 -0.000793775886357)
(6.82045540081e-06 2.32101237748e-05 -0.000815345284053)
(4.70086698813e-06 2.45142625193e-05 -0.000831290870276)
(2.38670906747e-06 2.5317763561e-05 -0.000841084606961)
(-2.74032143483e-08 2.55866044201e-05 -0.000844396795308)
(-2.44129685229e-06 2.53082235408e-05 -0.000841079378526)
(-4.75513747819e-06 2.44950259173e-05 -0.000831279721608)
(-6.8754225112e-06 2.3181058738e-05 -0.000815326443341)
(-8.72830921157e-06 2.14194635875e-05 -0.000793746181677)
(-1.0242082892e-05 1.92923450245e-05 -0.000767265931624)
(-1.14844151584e-05 1.68463049347e-05 -0.000736769238572)
(-1.23501932969e-05 1.42289971246e-05 -0.000703273106899)
(1.95843660698e-05 2.24512778242e-05 -0.000970547260171)
(1.81609279227e-05 2.61126758525e-05 -0.00101568317395)
(1.61332674535e-05 2.95499806454e-05 -0.00105670673465)
(1.3663686778e-05 3.25172678877e-05 -0.00109229681324)
(1.07005651568e-05 3.49511428212e-05 -0.0011212790924)
(7.35061751303e-06 3.67501749992e-05 -0.00114269278246)
(3.7264678975e-06 3.78530299494e-05 -0.00115583766221)
(-3.79167103217e-08 3.82212811277e-05 -0.00116027733404)
(-3.80209463428e-06 3.78411539463e-05 -0.00115582820621)
(-7.42592735e-06 3.67263099729e-05 -0.00114267306727)
(-1.0776461405e-05 3.4915320692e-05 -0.00112124707069)
(-1.37418089107e-05 3.24702892001e-05 -0.00109224884921)
(-1.62145680625e-05 2.94932382881e-05 -0.0010566380276)
(-1.82440124066e-05 2.60492888792e-05 -0.00101558749198)
(-1.96617564145e-05 2.23878323563e-05 -0.000970419443387)
(2.61387915443e-05 2.97014146542e-05 -0.00122776078258)
(2.40707687726e-05 3.4008016268e-05 -0.00128330693077)
(2.12411733485e-05 3.80387486488e-05 -0.00133366135893)
(1.78603622921e-05 4.14764356167e-05 -0.00137729052644)
(1.39058842635e-05 4.42637106444e-05 -0.00141278445261)
(9.51077914082e-06 4.63045085284e-05 -0.00143899159124)
(4.80939529119e-06 4.75471354984e-05 -0.00145506939011)
(-4.73184041811e-08 4.79605476248e-05 -0.0014604937077)
(-4.90388302561e-06 4.7533945471e-05 -0.00145505420475)
(-9.60505322244e-06 4.62780841885e-05 -0.00143896047988)
(-1.40007051796e-05 4.42242078736e-05 -0.00141273548755)
(-1.79571539638e-05 4.14247665933e-05 -0.00137722025042)
(-2.13407552181e-05 3.79766052148e-05 -0.00133356506348)
(-2.41716577529e-05 3.39387064236e-05 -0.00128317815337)
(-2.62334170452e-05 2.96315618851e-05 -0.00122759454454)
(3.13501533487e-05 3.53654078179e-05 -0.00147385437378)
(2.86065993573e-05 3.9907354265e-05 -0.00153847836993)
(2.50460754272e-05 4.41193481729e-05 -0.00159689527312)
(2.08978584739e-05 4.76592889848e-05 -0.00164744904308)
(1.61701847159e-05 5.0492041454e-05 -0.0016885425175)
(1.10083619769e-05 5.25441696138e-05 -0.00171886752786)
(5.55081112101e-06 5.37843111512e-05 -0.00173746267904)
(-5.5197741726e-08 5.41950413472e-05 -0.00174373064366)
(-5.66113433313e-06 5.37705610678e-05 -0.00173744020346)
(-1.11186285752e-05 5.25166893065e-05 -0.00171882209287)
(-1.62810090142e-05 5.04510790976e-05 -0.00168847272481)
(-2.10104006301e-05 4.7605809683e-05 -0.00164735224487)
(-2.51609409854e-05 4.40551648898e-05 -0.00159676765589)
(-2.87223568073e-05 3.98357173531e-05 -0.0015383139753)
(-3.14596746357e-05 3.52926636456e-05 -0.00147364864057)
(3.50324561171e-05 3.92569673514e-05 -0.00170813596704)
(3.16478089787e-05 4.370556537e-05 -0.00178053668774)
(2.74856932889e-05 4.77723280714e-05 -0.00184580146214)
(2.27597385794e-05 5.1138379529e-05 -0.00190222841448)
(1.75043406057e-05 5.37951396227e-05 -0.00194806967546)
(1.18631601837e-05 5.56986855046e-05 -0.00198188541327)
(5.96471839628e-06 5.68401194516e-05 -0.00200261347884)
(-6.14098949956e-08 5.72162754947e-05 -0.00200959502105)
(-6.08754702621e-06 5.68263870433e-05 -0.00200258225308)
(-1.19861046365e-05 5.56712861739e-05 -0.00198182291055)
(-1.76278969567e-05 5.37543859671e-05 -0.0019479753825)
(-2.28847996912e-05 5.10852228445e-05 -0.00190210102997)
(-2.76126783304e-05 4.77086030509e-05 -0.00184563874912)
(-3.17753702014e-05 4.36342878352e-05 -0.00178033379073)
(-3.51542913185e-05 3.91840039317e-05 -0.00170788893702)
(3.72523312563e-05 4.14770437947e-05 -0.00193032053553)
(3.33137757562e-05 4.56104193571e-05 -0.00200927222058)
(2.87080805987e-05 4.93149116763e-05 -0.00208025496952)
(2.36018991366e-05 5.23356278538e-05 -0.00214158313809)
(1.80492110782e-05 5.4686541508e-05 -0.00219138408634)
(1.21812709715e-05 5.63524038928e-05 -0.00222810772269)
(6.10793912583e-06 5.73435635324e-05 -0.00225060987613)
(-6.60413700539e-08 5.76684676911e-05 -0.00225818340292)
(-6.24010799142e-06 5.73302980525e-05 -0.00225056868366)
(-1.23137249484e-05 5.63259631676e-05 -0.0022280258487)
(-1.81823589574e-05 5.46472612965e-05 -0.00219126216216)
(-2.37363909844e-05 5.22844097483e-05 -0.00214142159749)
(-2.88441691267e-05 4.92535047938e-05 -0.00208005365859)
(-3.34502628637e-05 4.55415595429e-05 -0.00200902778896)
(-3.7383897452e-05 4.14058247265e-05 -0.00193002982997)
(3.82079430902e-05 4.22737512998e-05 -0.00214034867559)
(3.38340592036e-05 4.59661556084e-05 -0.00222468880381)
(2.89455631623e-05 4.91878421743e-05 -0.00230032429157)
(2.36400382018e-05 5.17770456059e-05 -0.0023656342078)
(1.7984523132e-05 5.376320065e-05 -0.00241863977325)
(1.20912460496e-05 5.51550424258e-05 -0.00245770484757)
(6.04730729149e-06 5.59767669809e-05 -0.00248162851798)
(-6.93359524556e-08 5.62446261828e-05 -0.00248967399522)
(-6.18613024041e-06 5.5964309573e-05 -0.0024815764634)
(-1.22305002379e-05 5.51302222114e-05 -0.00245760188257)
(-1.81245550578e-05 5.37263378436e-05 -0.00241848782048)
(-2.37813025059e-05 5.17289494725e-05 -0.00236543566501)
(-2.90881650709e-05 4.91300926344e-05 -0.00230008140261)
(-3.39769642523e-05 4.59011473188e-05 -0.00222439991829)
(-3.83469013344e-05 4.2205695741e-05 -0.00214001158845)
(3.81431844728e-05 4.19425417236e-05 -0.00233820162011)
(3.34623362738e-05 4.51382057442e-05 -0.00242679972732)
(2.8437143798e-05 4.78265966946e-05 -0.00250606154532)
(2.30848262338e-05 4.99553996374e-05 -0.00257445869666)
(1.74794405806e-05 5.15635479456e-05 -0.00262991812851)
(1.17110699657e-05 5.26778423108e-05 -0.00267074982449)
(5.8432352057e-06 5.33306444588e-05 -0.00269573232457)
(-7.15936164305e-08 5.35421716986e-05 -0.00270412557719)
(-5.98662459601e-06 5.33192499252e-05 -0.00269566884542)
(-1.18550080549e-05 5.265513039e-05 -0.00267062465277)
(-1.76242324677e-05 5.15297822841e-05 -0.00262973451044)
(-2.32307680222e-05 4.99112540398e-05 -0.00257422107372)
(-2.85842166305e-05 4.77734205078e-05 -0.00250577470213)
(-3.36096200598e-05 4.5078013336e-05 -0.002426463707)
(-3.82875277534e-05 4.18786056947e-05 -0.00233781527156)
(3.72950679409e-05 4.07658145598e-05 -0.00252377217073)
(3.24289696383e-05 4.3450428266e-05 -0.00261551917096)
(2.73902388595e-05 4.55977067116e-05 -0.00269742513354)
(2.21132853426e-05 4.72698672025e-05 -0.00276803635447)
(1.66729343449e-05 4.85121555318e-05 -0.00282519128042)
(1.11361355112e-05 4.93631354073e-05 -0.00286719389796)
(5.5440824571e-06 4.98579030521e-05 -0.00289285394681)
(-7.31040017612e-08 5.00171822318e-05 -0.00290146373696)
(-5.69052907302e-06 4.98477491156e-05 -0.00289277878925)
(-1.12832187473e-05 4.93428722408e-05 -0.00286704595539)
(-1.682093425e-05 4.84819530672e-05 -0.00282497503814)
(-2.22623835082e-05 4.72302232549e-05 -0.00276775823898)
(-2.75403143678e-05 4.5549679812e-05 -0.00269709248634)
(-3.25791633139e-05 4.33956300063e-05 -0.00261513355935)
(-3.74432095878e-05 4.07065340232e-05 -0.00252333349453)
(3.58658885642e-05 3.89830500121e-05 -0.00269679086449)
(3.09210358409e-05 4.11584054536e-05 -0.00279065337081)
(2.59692937218e-05 4.27768872999e-05 -0.00287432590278)
(2.0863530241e-05 4.40123203809e-05 -0.00294631870794)
(1.56721505357e-05 4.49139837412e-05 -0.00300439991424)
(1.04392735513e-05 4.55248922366e-05 -0.00304694965751)
(5.1865298424e-06 4.58776014068e-05 -0.00307288265905)
(-7.41001492584e-08 4.59902871405e-05 -0.00308156918233)
(-5.33499113569e-06 4.58688132449e-05 -0.0030727958566)
(-1.05884344986e-05 4.55073044444e-05 -0.00304677888078)
(-1.582228482e-05 4.48876485673e-05 -0.00300415066777)
(-2.10147436202e-05 4.39775249374e-05 -0.0029459991949)
(-2.61213927039e-05 4.27343623797e-05 -0.00287394596869)
(-3.10731926856e-05 4.11093626367e-05 -0.00279021592609)
(-3.60167251562e-05 3.89288856014e-05 -0.0026962965931)
(3.40081884316e-05 3.67723322202e-05 -0.00285677333599)
(2.90804843043e-05 3.84375622464e-05 -0.00295200444606)
(2.43023832846e-05 3.95486124272e-05 -0.00303679012183)
(1.94436289501e-05 4.03769929294e-05 -0.00310937836922)
(1.45604538965e-05 4.09721309486e-05 -0.00316758324269)
(9.67669907952e-06 4.13719577901e-05 -0.00321001109737)
(4.79871284966e-06 4.16013988015e-05 -0.0032357809366)
(-7.47348267171e-08 4.16740425505e-05 -0.00324439358804)
(-4.94846249459e-06 4.15940457855e-05 -0.00323568283894)
(-9.8271952135e-06 4.135717551e-05 -0.00320981796727)
(-1.47119735743e-05 4.09498605484e-05 -0.00316730120349)
(-1.95962444098e-05 4.03472732931e-05 -0.00310901696043)
(-2.44558490743e-05 3.95118070254e-05 -0.00303636159515)
(-2.92339735486e-05 3.83944703933e-05 -0.00295151330354)
(-3.41609485349e-05 3.67236811778e-05 -0.00285622089534)
(3.18360817679e-05 3.42415478621e-05 -0.00300293989867)
(2.70329255861e-05 3.54156477671e-05 -0.00309971604733)
(2.25081386808e-05 3.60354369845e-05 -0.00318526183755)
(1.79499047457e-05 3.64959039986e-05 -0.00325759335147)
(1.3409888222e-05 3.68236517919e-05 -0.00331500561442)
(8.89572746553e-06 3.70427070282e-05 -0.00335655915825)
(4.4039860441e-06 3.71675870272e-05 -0.00338168341347)
(-7.50971692239e-08 3.72064188029e-05 -0.00339005716747)
(-4.55446710233e-06 3.71616731452e-05 -0.00338157481677)
(-9.0469622209e-06 3.703075618e-05 -0.00335634495774)
(-1.35621793443e-05 3.68054801648e-05 -0.00331469191326)
(-1.81033576112e-05 3.64713216864e-05 -0.00325719012208)
(-2.26624956421e-05 3.60044357129e-05 -0.0031847832678)
(-2.71872937121e-05 3.53785012933e-05 -0.00309916962537)
(-3.19901879322e-05 3.41983715433e-05 -0.00300232915564)
(2.94399915636e-05 3.17717284852e-05 -0.00313457282124)
(2.49313571545e-05 3.21746905742e-05 -0.00323566407742)
(2.06973638403e-05 3.23380036428e-05 -0.00332104387924)
(1.64647930667e-05 3.24650959406e-05 -0.00339178598329)
(1.22784210051e-05 3.25479555271e-05 -0.00344721996301)
(8.13325969672e-06 3.25997598263e-05 -0.00348701403701)
(4.02027968099e-06 3.26271386738e-05 -0.00351095147242)
(-7.52260353257e-08 3.2634298564e-05 -0.00351890508805)
(-4.17100876318e-06 3.26226192688e-05 -0.00351083406231)
(-8.28472291888e-06 3.25905987317e-05 -0.00348678181222)
(-1.24309176643e-05 3.25338805263e-05 -0.00344687823252)
(-1.66184667001e-05 3.24457811526e-05 -0.00339134362428)
(-2.08521135405e-05 3.23130586005e-05 -0.0033205156533)
(-2.5086196974e-05 3.21438327033e-05 -0.00323505667329)
(-2.95951975331e-05 3.17341593124e-05 -0.00313391670832)
(-2.28659156119e-07 -4.0949422768e-07 -0.000193917301395)
(-1.11555248871e-07 -5.57900889147e-07 -0.000203706538581)
(-3.77606689802e-08 -6.4687444542e-07 -0.000212666635462)
(1.17518942232e-08 -7.01478258552e-07 -0.000220475102489)
(3.61751116003e-08 -7.31690177756e-07 -0.00022684632107)
(3.78957521706e-08 -7.46021229411e-07 -0.000231556892212)
(2.23875989536e-08 -7.51575269579e-07 -0.000234450096269)
(-2.71582960839e-09 -7.52982899163e-07 -0.000235430742944)
(-2.77138133859e-08 -7.51821636603e-07 -0.000234445424731)
(-4.28656284687e-08 -7.46427637376e-07 -0.000231547618997)
(-4.04192716462e-08 -7.32097815007e-07 -0.000226832601094)
(-1.49842190597e-08 -7.01747048337e-07 -0.000220457139755)
(3.5830189234e-08 -6.4663794454e-07 -0.000212644533269)
(1.11267773796e-07 -5.56947990112e-07 -0.000203679895996)
(2.29519213522e-07 -4.08086358117e-07 -0.000193883718442)
(-8.79956011012e-07 -1.34310600949e-06 -0.000558303541371)
(-5.73190542031e-07 -1.74650107641e-06 -0.000584879307741)
(-3.53432017709e-07 -2.01741468304e-06 -0.000609171052993)
(-1.91448864464e-07 -2.19875870588e-06 -0.000630300658576)
(-8.43724931512e-08 -2.31168524504e-06 -0.000647516755891)
(-2.64896308238e-08 -2.37560112705e-06 -0.000660233027113)
(-5.91924783263e-09 -2.40682655472e-06 -0.000668036326816)
(-6.05905067507e-09 -2.41611208919e-06 -0.000670673901154)
(-5.95359640553e-09 -2.40716073925e-06 -0.000668022075234)
(1.54308238583e-08 -2.37608171502e-06 -0.000660204747384)
(7.49084921474e-08 -2.31198942665e-06 -0.000647474936287)
(1.8431909434e-07 -2.19858791857e-06 -0.000630245969022)
(3.49342934214e-07 -2.01607585316e-06 -0.000609103907499)
(5.72807407821e-07 -1.74361901813e-06 -0.000584798662638)
(8.82282233131e-07 -1.33923634302e-06 -0.000558204139545)
(-1.70959040403e-06 -2.39191747926e-06 -0.000896923660005)
(-1.25227755324e-06 -3.01715130004e-06 -0.000937695868736)
(-8.95173750135e-07 -3.46911376977e-06 -0.000974875105206)
(-6.09174588109e-07 -3.78989065212e-06 -0.00100715795181)
(-3.87971043521e-07 -4.00469970493e-06 -0.00103342774567)
(-2.24188984257e-07 -4.13737444509e-06 -0.00105281378843)
(-1.03772683866e-07 -4.20810330141e-06 -0.00106470050469)
(-7.37836364625e-09 -4.23018473879e-06 -0.00106871117406)
(8.93164251141e-08 -4.20812519652e-06 -0.00106467674878)
(2.10715962182e-07 -4.13719187669e-06 -0.00105276665792)
(3.7640536691e-07 -4.00395933743e-06 -0.00103335805581)
(6.00490795739e-07 -3.788272681e-06 -0.00100706683913)
(8.90358144375e-07 -3.46595523798e-06 -0.000974763426874)
(1.25216257236e-06 -3.01211956064e-06 -0.000937562371298)
(1.7131080098e-06 -2.38582848391e-06 -0.000896761273781)
(-2.5034928247e-06 -3.33605931788e-06 -0.00121131276322)
(-1.92854567712e-06 -4.11634895291e-06 -0.00126400957653)
(-1.45381403215e-06 -4.70152172759e-06 -0.00131192692569)
(-1.05417757449e-06 -5.12830006609e-06 -0.00135346740803)
(-7.20945140919e-07 -5.42298259573e-06 -0.00138723345389)
(-4.45884616807e-07 -5.61102298509e-06 -0.00141213273496)
(-2.14450089129e-07 -5.71420948922e-06 -0.00142738999743)
(-7.09548974008e-09 -5.7468771709e-06 -0.00143253124796)
(2.00564914945e-07 -5.71386378431e-06 -0.00142735696731)
(4.32986653011e-07 -5.61012040261e-06 -0.00141206721719)
(7.09947985589e-07 -5.4212043882e-06 -0.00138713657994)
(1.04613295682e-06 -5.12535793894e-06 -0.0013533407757)
(1.44983311996e-06 -4.69686277444e-06 -0.00131177194839)
(1.92950583842e-06 -4.10972419963e-06 -0.00126382521966)
(2.50838274763e-06 -3.32832936132e-06 -0.00121109129273)
(-3.22447785916e-06 -4.15213766058e-06 -0.00150326645796)
(-2.55855948675e-06 -5.0321239536e-06 -0.00156593679943)
(-1.98584807999e-06 -5.70580320301e-06 -0.00162275239834)
(-1.48560227416e-06 -6.20473952657e-06 -0.00167193779292)