/*--------------------------------*- C++ -*----------------------------------*\
  =========                 |
  \\      /  F ield         | OpenFOAM: The Open Source CFD Toolbox
   \\    /   O peration     | Website:  https://openfoam.org
    \\  /    A nd           | Version:  7
     \\/     M anipulation  |
\*---------------------------------------------------------------------------*/
FoamFile
{
    version     2.0;
    format      ascii;
    class       surfaceScalarField;
    location    "1.36";
    object      phi;
}
// * * * * * * * * * * * * * * * * * * * * * * * * * * * * * * * * * * * * * //

dimensions      [0 3 -1 0 0 0 0];

internalField   nonuniform List<scalar> 
65775
(
8.70753623637e-12
5.36563618924e-10
9.41545538343e-11
-3.3145320887e-14
1.48839547782e-11
5.61370302396e-10
1.0493759444e-10
1.80599811755e-11
5.83411956971e-10
1.15671422009e-10
1.79930892068e-11
6.02355246513e-10
1.25620404157e-10
1.5047853858e-11
6.17443733812e-10
1.34114339814e-10
9.8469909008e-12
6.2843645457e-10
1.40609036344e-10
3.21474387308e-12
6.35326104954e-10
1.44732738728e-10
-3.91075702903e-12
6.3793189358e-10
1.46205527201e-10
-1.05279670265e-11
6.35333454918e-10
1.44720446175e-10
-1.57003737646e-11
6.28451416508e-10
1.40584810718e-10
-1.86055474764e-11
6.17467386446e-10
1.34078746619e-10
-1.86246783196e-11
6.02389218333e-10
1.25574027152e-10
-1.53962085424e-11
5.83457617026e-10
1.15614253638e-10
-9.17095486963e-12
5.61428200603e-10
1.04866322898e-10
5.36556781272e-10
9.40551191562e-11
-3.69944517938e-13
2.22666790182e-11
8.85005132351e-10
2.38474465082e-10
-6.48285570328e-14
3.938336809e-11
9.21391088945e-10
2.64942827403e-10
4.83138550689e-11
9.54810797458e-10
2.9133892643e-10
4.85668975334e-11
9.83373070262e-10
3.15836328695e-10
4.08404861241e-11
1.00602368187e-09
3.36762944048e-10
2.67927436228e-11
1.02240602118e-09
3.52767418451e-10
8.70344792702e-12
1.03263970051e-09
3.62926610206e-10
-1.07667892867e-11
1.03652634075e-09
3.66547844434e-10
-2.88118769288e-11
1.03265556604e-09
3.62889405989e-10
-4.27750457382e-11
1.02243946581e-09
3.52694303085e-10
-5.03821018538e-11
1.00607845426e-09
3.36655859416e-10
-4.99827405063e-11
9.83454873187e-10
3.15697385567e-10
-4.08891008253e-11
9.54926276367e-10
2.91168637408e-10
-2.35833171662e-11
9.21527038043e-10
2.64732669134e-10
8.85003250997e-10
2.38195136751e-10
-1.06809302714e-12
3.24730966082e-11
1.08682049932e-09
3.44664497211e-10
-7.91675376986e-14
5.78437065975e-11
1.1253586943e-09
3.82375620215e-10
7.13204843059e-11
1.16243174165e-09
4.20019247616e-10
7.19930674993e-11
1.19405116233e-09
4.54992498521e-10
6.06998565452e-11
1.21908004293e-09
4.84890217743e-10
3.98467300757e-11
1.23705646569e-09
5.0776542243e-10
1.28552814294e-11
1.24824884682e-09
5.2228221244e-10
-1.62308193958e-11
1.25252012593e-09
5.27445308803e-10
-4.31502040418e-11
1.24826802325e-09
5.22220973622e-10
-6.38646713893e-11
1.23709869639e-09
5.07645294125e-10
-7.49610140294e-11
1.21915274186e-09
4.84714786208e-10
-7.40437641422e-11
1.19416506084e-09
4.54765890574e-10
-6.02878746642e-11
1.1625999794e-09
4.19743647622e-10
-3.4583546899e-11
1.12554725912e-09
3.82040925333e-10
1.08682188975e-09
3.44233447354e-10
-1.72544873956e-12
4.00544971904e-11
1.17484970467e-09
4.2062967007e-10
-8.45243306249e-14
7.13369694295e-11
1.20919993491e-09
4.66224309784e-10
8.82375811286e-11
1.24435372243e-09
5.11743421911e-10
8.93039132031e-11
1.27449937228e-09
5.54065601669e-10
7.5425170625e-11
1.29837963086e-09
5.90269694861e-10
4.95108625353e-11
1.31542593433e-09
6.17981345113e-10
1.58396516814e-11
1.32600668645e-09
6.35562370868e-10
-2.04779596496e-11
1.33007028511e-09
6.41801248353e-10
-5.40500538789e-11
1.3260230981e-09
6.35478424411e-10
-7.97728441003e-11
1.31546515706e-09
6.17817009748e-10
-9.33780607008e-11
1.29845274961e-09
5.90030499036e-10
-9.196909852e-11
1.27462184718e-09
5.53758259993e-10
-7.46717302692e-11
1.24454488204e-09
5.11373040545e-10
-4.29200368948e-11
1.20940662503e-09
4.65782521302e-10
1.17484400868e-09
4.2007837521e-10
-2.35675518785e-12
4.53046471557e-11
1.17722515509e-09
4.70789393745e-10
-8.42476839808e-14
8.0558267416e-11
1.2034399549e-09
5.21488594199e-10
9.98367553955e-11
1.23300724573e-09
5.72082890368e-10
1.01217215572e-10
1.25878730111e-09
6.19148519089e-10
8.5576853274e-11
1.27931412422e-09
6.59433592899e-10
5.61370824229e-11
1.29389570645e-09
6.9028042555e-10
1.77736698879e-11
1.30292449078e-09
7.09843762476e-10
-2.36335365817e-11
1.30642292302e-09
7.16769411399e-10
-6.18713873034e-11
1.3029314394e-09
7.09738506955e-10
-9.10677558776e-11
1.29391820073e-09
6.90074837341e-10
-1.06358903581e-10
1.27936648209e-09
6.59135478452e-10
-1.04539021375e-10
1.25888903366e-09
6.18767800387e-10
-8.47486873953e-11
1.23318337241e-09
5.7162873784e-10
-4.89000753605e-11
1.20362335302e-09
5.20956309576e-10
1.17718905449e-09
4.70143713856e-10
-2.97214789963e-12
4.85350231948e-11
1.11787530969e-09
4.99037008927e-10
-8.06764843808e-14
8.60957211932e-11
1.13393541947e-09
5.5255947302e-10
1.06778122359e-10
1.15586374088e-09
6.05924832905e-10
1.0834196202e-10
1.17569473996e-09
6.55581907004e-10
9.162933136e-11
1.1916874081e-09
6.98104027793e-10
6.00218366429e-11
1.20301404468e-09
7.30673155131e-10
1.87555577139e-11
1.21001829943e-09
7.51319462342e-10
-2.58036244121e-11
1.21276846668e-09
7.58609094553e-10
-6.69185563595e-11
1.21000819472e-09
7.51194340615e-10
-9.8231869469e-11
1.20300413724e-09
7.30429338401e-10
-1.14521133166e-10
1.19169426418e-09
6.97751923577e-10
-1.12423344412e-10
1.1757413839e-09
6.55135210105e-10
-9.11184998804e-11
1.15598035555e-09
6.05397632816e-10
-5.28452239931e-11
1.134048056e-09
5.51951548194e-10
1.11777287213e-09
4.98316747893e-10
-3.57604659451e-12
5.00287173781e-11
1.01696283223e-09
5.08856593548e-10
-7.52047152732e-14
8.84513212302e-11
1.02240404651e-09
5.63357994513e-10
1.09638944551e-10
1.03595973439e-09
6.17628127351e-10
1.11221704272e-10
1.04927601978e-09
6.68125140545e-10
9.40138666016e-11
1.06032024785e-09
7.11376391279e-10
6.14380976624e-11
1.06813920511e-09
7.44508055877e-10
1.88767109273e-11
1.07297772204e-09
7.65497750081e-10
-2.70854705688e-11
1.07492043229e-09
7.72886336906e-10
-6.94705674922e-11
1.07294252237e-09
7.65354255743e-10
-1.0170297755e-10
1.0680799755e-09
7.44229094365e-10
-1.18415623718e-10
1.06025464815e-09
7.10975230466e-10
-1.16207755566e-10
1.04922983058e-09
6.67619681728e-10
-9.42919762424e-11
1.03596817909e-09
6.17037896086e-10
-5.50452379126e-11
1.02239139686e-09
5.62687286552e-10
1.01674523997e-09
5.08077514682e-10
-4.17238382917e-12
5.0008941109e-11
8.91276500076e-10
5.03399455222e-10
-6.84857397885e-14
8.80257808066e-11
8.86843626788e-10
5.57425412638e-10
1.08899779811e-10
8.92319961344e-10
6.11124722085e-10
1.10325230403e-10
8.99308700439e-10
6.61066327002e-10
9.3113789559e-11
9.0553327522e-10
7.03835923133e-10
6.06337717447e-11
9.09956745183e-10
7.36592964531e-10
1.82215145382e-11
9.12707780903e-10
7.57326361766e-10
-2.75672018416e-11
9.13866305393e-10
7.64599335938e-10
-6.97793944293e-11
9.12639210995e-10
7.57166031061e-10
-1.01869135495e-10
9.0983062023e-10
7.36281962389e-10
-1.1851681621e-10
9.05367076337e-10
7.03390530398e-10
-1.163792845e-10
8.99129800097e-10
6.60508909433e-10
-9.46763799649e-11
8.92168125692e-10
6.10480445787e-10
-5.57277297005e-11
8.86645146273e-10
5.56702676853e-10
8.90882638653e-10
5.02574236344e-10
-4.76384017329e-12
4.86453768174e-11
7.5455635312e-10
4.85544938945e-10
-6.10279074077e-14
8.51268250514e-11
7.41880380568e-10
5.37995520122e-10
1.0494724549e-10
7.40304761959e-10
5.90000300392e-10
1.06047233791e-10
7.41659490087e-10
6.3830835054e-10
8.92646025419e-11
7.43541976368e-10
6.7964725119e-10
5.78318832195e-11
7.4490574205e-10
7.1128691212e-10
1.68675364693e-11
7.45778677773e-10
7.31285847879e-10
-2.73278970152e-11
7.46226141428e-10
7.38272402067e-10
-6.80699313297e-11
7.45668561435e-10
7.31110253376e-10
-9.90683522999e-11
7.44695323672e-10
7.10946957402e-10
-1.15222807313e-10
7.43246938357e-10
6.79162241963e-10
-1.13328595267e-10
7.41307328628e-10
6.3770518203e-10
-9.25833423995e-11
7.39938334197e-10
5.8930973481e-10
-5.50650752876e-11
7.41430230057e-10
5.37229421701e-10
7.53914613071e-10
4.8468368079e-10
-5.35227165817e-12
4.60603416229e-11
6.17761807448e-10
4.57951458867e-10
-5.30517896831e-14
7.99793542678e-11
5.99050174356e-10
5.08056080172e-10
9.80860003792e-11
5.91887565064e-10
5.57561702484e-10
9.87208977368e-11
5.8857884756e-10
6.03438888979e-10
8.27644684409e-11
5.86781346949e-10
6.42625518658e-10
5.32376118766e-11
5.85536128339e-10
6.72571967106e-10
1.48880760183e-11
5.84806512671e-10
6.91461976652e-10
-2.64396967352e-11
5.84642204344e-10
6.98028638842e-10
-6.45464350967e-11
5.84647004643e-10
6.91272746955e-10
-9.35983727581e-11
5.85224700727e-10
6.72206127939e-10
-1.08866937304e-10
5.86330191319e-10
6.42105251637e-10
-1.07361040883e-10
5.88013275453e-10
6.0279548967e-10
-8.8238467056e-11
5.91251412984e-10
5.56831323835e-10
-5.31801882748e-11
5.98279007213e-10
5.07253348372e-10
6.16792252274e-10
4.57061998302e-10
-5.93862369515e-12
4.23269208448e-11
4.8929683909e-10
4.23101485944e-10
-4.47647971701e-14
7.27386029631e-11
4.67010815291e-10
4.70403235462e-10
8.85670009695e-11
4.55861194811e-10
5.16894149314e-10
8.86505719397e-11
4.48934898422e-10
5.59786959972e-10
7.39020267367e-11
4.44181230372e-10
5.96291914604e-10
4.70561476184e-11
4.40820879797e-10
6.24108483008e-10
1.23585108873e-11
4.38790949701e-10
6.41601234513e-10
-2.49734140137e-11
4.38125311451e-10
6.4764562542e-10
-5.94095218512e-11
4.38574430369e-10
6.41400073435e-10
-8.5743303759e-11
4.40392346059e-10
6.23719880716e-10
-9.97491953078e-11
4.43547798164e-10
5.95740552151e-10
-9.87233364759e-11
4.4811701452e-10
5.59108207279e-10
-8.17929910489e-11
4.54900537816e-10
5.16129311476e-10
-5.01434288616e-11
4.65848376857e-10
4.69569122543e-10
4.87916124858e-10
4.22189783042e-10
-6.52297774104e-12
3.74629086177e-11
3.75200430656e-10
3.83342928451e-10
-3.5757262349e-14
6.35310366113e-11
3.51658846264e-10
4.27689528387e-10
7.66616375219e-11
3.37965207584e-10
4.70906082665e-10
7.61890424668e-11
3.28404136164e-10
5.10462875999e-10
6.30174743547e-11
3.21419073945e-10
5.43911259276e-10
3.95307619871e-11
3.16454173894e-10
5.69272671927e-10
9.36918621656e-12
3.13438823906e-10
5.85149193919e-10
-2.30105567784e-11
3.12387825733e-10
5.9059424205e-10
-5.28932091518e-11
3.1315715291e-10
5.84938022317e-10
-7.58333758173e-11
3.15892125837e-10
5.68864708596e-10
-8.82116691246e-11
3.20577601245e-10
5.4333301798e-10
-8.76757039058e-11
3.27296045311e-10
5.09753235358e-10
-7.33620537033e-11
3.36626076665e-10
4.70111413761e-10
-4.59626763413e-11
3.50035791323e-10
4.26828883924e-10
3.73328512628e-10
3.824142059e-10
-7.10235812286e-12
3.14496599666e-11
2.7927642263e-10
3.40927103804e-10
-2.45297092976e-14
5.2586827147e-11
2.56098585305e-10
3.82458498358e-10
6.28316886653e-11
2.40955977644e-10
4.22349048753e-10
6.18856817557e-11
2.29672758773e-10
4.5836948727e-10
5.06097025215e-11
2.2120396003e-10
4.88502708454e-10
3.10057032453e-11
2.15177895354e-10
5.11170699896e-10
6.04665428347e-12
2.11513129288e-10
5.25268024674e-10
-2.0663973601e-11
2.10197465474e-10
5.30057513283e-10
-4.53269241027e-11
2.11156308215e-10
5.25049211471e-10
-6.43509671014e-11
2.14462847847e-10
5.10747537715e-10
-7.4785276923e-11
2.20126313467e-10
4.87902489113e-10
-7.46601067766e-11
2.2823594983e-10
4.57633531112e-10
-6.31555235066e-11
2.39184858069e-10
4.21528929968e-10
-4.05977401725e-11
2.53943711193e-10
3.81577487185e-10
2.76826710644e-10
3.39989849817e-10
-7.64600045332e-12
2.4483412685e-11
2.02945230149e-10
2.98036875296e-10
-7.20206943141e-15
4.06892367232e-11
1.80419362977e-10
3.37138139974e-10
4.81032661806e-11
1.64790634557e-10
3.737796598e-10
4.67405819063e-11
1.52799427965e-10
4.06159882739e-10
3.74948822826e-11
1.43686866852e-10
4.32807759383e-10
2.20135691964e-11
1.37201676944e-10
4.52619350609e-10
2.58055466722e-12
1.33250065294e-10
4.64826081477e-10
-1.81047999601e-11
1.31796218909e-10
4.68923357297e-10
-3.72233819763e-11
1.32803724175e-10
4.64602834846e-10
-5.20894687715e-11
1.36307025681e-10
4.52186703979e-10
-6.0444127397e-11
1.42337661306e-10
4.32192328627e-10
-6.0674601254e-11
1.50992054745e-10
4.05403322589e-10
-5.19320377681e-11
1.6253808241e-10
3.72938148785e-10
-3.42251840393e-11
1.77662977689e-10
3.3624470243e-10
1.99853089233e-10
2.97107304876e-10
-8.16634125178e-12
1.9404880609e-11
2.56866202409e-10
4.68211702392e-15
1.42604769673e-10
3.09273791802e-11
2.93978939506e-10
1.22210918275e-10
3.50887918221e-11
3.27449206012e-10
1.07650795588e-10
3.28030998387e-11
3.56136757049e-10
9.61036485499e-11
2.51467889431e-11
3.7920818789e-10
8.72128977033e-11
1.34454117072e-11
3.96077977356e-10
8.08571770309e-11
-7.2418881052e-13
4.06337581449e-10
7.6959293755e-11
-1.56168566847e-11
4.09726902263e-10
7.54779179969e-11
-2.94497861797e-11
4.06115300916e-10
7.64001032245e-11
-4.04933473315e-11
3.95645994694e-10
7.97391976784e-11
-4.71999239236e-11
3.78590944984e-10
8.55344498671e-11
-4.82846826444e-11
3.55372856554e-10
9.38630173996e-11
-4.27167747306e-11
3.26596801788e-10
1.04848718772e-10
-2.96274953857e-11
2.93072007369e-10
1.18799403097e-10
2.55989713806e-10
-8.62430871031e-12
1.38804675408e-10
-6.37108906443e-14
1.27075286381e-11
8.14912915254e-11
-8.70107284724e-15
1.27855334338e-13
1.41570546398e-11
9.05442317419e-11
3.05395845174e-13
1.57842475115e-11
9.96633134036e-11
3.8605403676e-13
1.73027165895e-11
1.08194644776e-10
3.55152756765e-13
1.85866927042e-11
1.15525220662e-10
2.28902122245e-13
1.95546123756e-11
1.21154239156e-10
4.09403394412e-14
2.01614759476e-11
1.24735880317e-10
-1.67654477172e-13
2.0377977367e-11
1.26014096515e-10
-3.55502301352e-13
2.01669300811e-11
1.24720243252e-10
-4.80890237689e-13
1.95663664518e-11
1.21123481187e-10
-5.08386017967e-13
1.86064724536e-11
1.15480243916e-10
-4.19910726603e-13
1.7330158272e-11
1.08136452804e-10
-2.30309804961e-13
1.58140476506e-11
9.95922771248e-11
-2.46161259878e-14
1.41855179546e-11
9.04574451439e-11
1.27156619484e-11
8.13756619694e-11
-7.75798396554e-14
1.68735458397e-13
3.00725532865e-11
2.20910701768e-10
-2.18610041197e-14
7.9742240528e-13
3.3131899913e-11
2.45268996101e-10
1.362348292e-12
3.66362026298e-11
2.69848278469e-10
1.60780475148e-12
3.99398606723e-11
2.92888472154e-10
1.45766910719e-12
4.27284298163e-11
3.12719297796e-10
9.49744747296e-13
4.48208361382e-11
3.27966328942e-10
2.0012173191e-13
4.61284460625e-11
3.37670950464e-10
-6.3214285983e-13
4.65957778089e-11
3.41126188218e-10
-1.37795145005e-12
4.61431212713e-11
3.37624491619e-10
-1.87674569006e-12
4.48513688727e-11
3.27875024181e-10
-2.00909320657e-12
4.27769449472e-11
3.1258598287e-10
-1.73357683809e-12
4.00050482325e-11
2.92716382224e-10
-1.12718472714e-12
3.6707837894e-11
2.69638982886e-10
-4.49304494793e-13
3.31972612109e-11
2.45015062632e-10
3.00961599846e-11
2.20585026801e-10
-2.45680335851e-13
5.94564247556e-13
4.44781328395e-11
3.29646074849e-10
-3.09875675878e-14
1.68629993317e-12
4.85313249972e-11
3.65820663876e-10
2.63365243407e-12
5.3293666303e-11
4.0234696991e-10
3.03198554923e-12
5.7850073876e-11
4.36624818276e-10
2.7314502011e-12
6.17118720828e-11
4.66159463836e-10
1.78258466637e-12
6.46098944066e-11
4.88885228928e-10
3.87359246434e-13
6.64194189656e-11
5.03350432831e-10
-1.16167993815e-12
6.70662935931e-11
5.08489865086e-10
-2.5465694398e-12
6.6441816474e-11
5.03274734315e-10
-3.47298518018e-12
6.4655396139e-11
4.88736624318e-10
-3.73548717227e-12
6.17815365048e-11
4.65942900896e-10
-3.28005191258e-12
5.79406434084e-11
4.36346159914e-10
-2.25830570249e-12
5.33921243217e-11
4.02010060001e-10
-1.07972511569e-12
4.86165637692e-11
3.65416967243e-10
4.45078391399e-11
3.29141268204e-10
-4.23303419035e-13
1.08079499973e-12
5.46006223258e-11
4.09417195044e-10
-3.77898443436e-14
2.60400074005e-12
5.90342759426e-11
4.5413964092e-10
3.88061735276e-12
6.43979903944e-11
4.99301649695e-10
4.39870192085e-12
6.96214952478e-11
5.4172287293e-10
3.9411473716e-12
7.40858986524e-11
5.78309128143e-10
2.56485117701e-12
7.74491616575e-11
6.06480750076e-10
5.48844428497e-13
7.95524019092e-11
6.2441124395e-10
-1.68823597476e-12
8.03042673176e-11
6.30768215299e-10
-3.68554050931e-12
7.95786274885e-11
6.24308314798e-10
-5.02285892842e-12
7.75015094245e-11
6.06278956464e-10
-5.41851971743e-12
7.41638713928e-11
5.7801574398e-10
-4.81345725799e-12
6.97199557412e-11
5.41346879938e-10
-3.42782558176e-12
6.45033275279e-11
4.98850352861e-10
-1.77996877928e-12
5.91204543251e-11
4.53606571812e-10
5.46254685327e-11
4.08767324771e-10
-6.08630048568e-13
1.53078365393e-12
6.00506473955e-11
4.63808189665e-10
-4.29120351492e-14
3.39183289296e-12
6.43425897581e-11
5.14266366521e-10
4.90677167296e-12
6.97154963226e-11
5.65196680154e-10
5.49778836141e-12
7.50657246659e-11
6.13065668544e-10
4.89850332986e-12
7.96966837813e-11
6.543820123e-10
3.1677438856e-12
8.32115446897e-11
6.86213998801e-10
6.43528312145e-13
8.54180269503e-11
7.06470563841e-10
-2.15483700976e-12
8.62063159985e-11
7.13635755727e-10
-4.65114723103e-12
8.5442410161e-11
7.06342523403e-10
-6.32502373758e-12
8.32595875143e-11
6.85963360704e-10
-6.83721278308e-12
7.97667456562e-11
6.54018631909e-10
-6.12859035067e-12
7.51518232398e-11
6.12602187904e-10
-4.47033341152e-12
6.98049222352e-11
5.64644955253e-10
-2.44822346481e-12
6.44083950665e-11
5.13623880615e-10
6.00552528386e-11
4.63042606185e-10
-7.97526408162e-13
1.86587415524e-12
6.10860398964e-11
4.96141728899e-10
-4.68282141995e-14
3.92666388381e-12
6.48489613012e-11
5.49945346343e-10
5.56137534254e-12
6.97622926924e-11
6.04195516723e-10
6.1709168955e-12
7.47986959873e-11
6.55196482726e-10
5.46333731636e-12
7.92335441512e-11
6.99237857917e-10
3.49656290521e-12
8.26369919159e-11
7.3318189511e-10
6.42848967498e-13
8.47864376762e-11
7.54774801386e-10
-2.51643755266e-12
8.55531442115e-11
7.62393332379e-10
-5.3331207972e-12
8.48027775059e-11
7.5462381285e-10
-7.22540970105e-12
8.26687383673e-11
7.3288684155e-10
-7.82144746692e-12
7.92786568096e-11
6.98811431363e-10
-7.06514398932e-12
7.48516318182e-11
6.54655486059e-10
-5.2549759464e-12
6.98128175063e-11
6.03557179809e-10
-2.99983756033e-12
6.48721684991e-11
5.4921192177e-10
6.10536029191e-11
4.95284401367e-10
-9.85020675709e-13
2.03691233364e-12
5.83799785755e-11
5.0953791737e-10
-4.98279251653e-14
4.13401750632e-12
6.1373785452e-11
5.64694876541e-10
5.75648383563e-12
6.55090387668e-11
6.20216648733e-10
6.32855306909e-12
6.99140562641e-11
6.72399502981e-10
5.55827620223e-12
7.38799888658e-11
7.17466715238e-10
3.50057629783e-12
7.69686451144e-11
7.52204082477e-10
5.33804084787e-13
7.89349342189e-11
7.74288205421e-10
-2.74441996151e-12
7.96338628227e-11
7.82057564642e-10
-5.6659025275e-12
7.89370736216e-11
7.74116445175e-10
-7.63329069552e-12
7.6972267395e-11
7.51869045249e-10
-8.27019870894e-12
7.38837060808e-11
7.1698414011e-10
-7.52564852394e-12
6.99140700185e-11
6.71790741918e-10
-5.69955021514e-12
6.54991172662e-11
6.19504808852e-10
-3.379141626e-12
6.13328283475e-11
5.63887057528e-10
5.8291898592e-11
5.08608990483e-10
-1.16652153914e-12
2.02296054029e-12
5.28283507413e-11
5.06946254573e-10
-5.20815080525e-14
3.98805058241e-12
5.49537723051e-11
5.61844072163e-10
5.46879887737e-12
5.81431580182e-11
6.16972774899e-10
5.9527217242e-12
6.17233231424e-11
6.687389966e-10
5.17153271701e-12
6.50393765803e-11
7.13427123759e-10
3.17490548183e-12
6.76704242339e-11
7.47859964788e-10
3.19213487041e-13
6.9361887482e-11
7.69729123283e-10
-2.82810044827e-12
6.9959002196e-11
7.77396929467e-10
-5.63172441588e-12
6.93446073855e-11
7.69538740328e-10
-7.52508849743e-12
6.76359345083e-11
7.47489275136e-10
-8.15516627521e-12
6.49877765097e-11
7.12895039797e-10
-7.47797308138e-12
6.16536056515e-11
6.68071655122e-10
-5.77097330751e-12
5.80539215624e-11
6.16199368106e-10
-3.55894183725e-12
5.48296294147e-11
5.60976175139e-10
5.2665235007e-11
5.05962697788e-10
-1.33720679871e-12
1.82693883318e-12
4.54003068267e-11
4.91169127476e-10
-5.39309636052e-14
3.50564085099e-12
4.66784828202e-11
5.44560522997e-10
4.73260351489e-12
4.88854422693e-11
5.97998796623e-10
5.0898000205e-12
5.15593976921e-11
6.48084840992e-10
4.35041350059e-12
5.41302714302e-11
6.91268169764e-10
2.55592240509e-12
5.62186756284e-11
7.24507635815e-10
1.58219844305e-14
5.75769550045e-11
7.45586890749e-10
-2.7736406875e-12
5.80500879331e-11
7.52947992556e-10
-5.25677432606e-12
5.75362913211e-11
7.45379972556e-10
-6.93866635407e-12
5.61385161003e-11
7.24105432949e-10
-7.51424734697e-12
5.40128215929e-11
6.90692777699e-10
-6.94896913789e-12
5.14072311183e-11
6.47367249264e-10
-5.47957891077e-12
4.87022630944e-11
5.97174258768e-10
-3.53673058454e-12
4.64553963234e-11
5.43644490009e-10
4.51448718459e-11
4.90145035018e-10
-1.49271545949e-12
1.47150548432e-12
3.70267521674e-11
4.6488115853e-10
-5.54328033491e-14
2.73883640024e-12
3.75662657675e-11
5.15873717329e-10
3.62991387836e-12
3.88539648135e-11
5.66674162472e-10
3.83911202342e-12
4.06320759185e-11
6.14130373131e-10
3.19034820922e-12
4.2437605187e-11
6.54942067079e-10
1.71318274394e-12
4.39523507383e-11
6.86292126535e-10
-3.48892414631e-13
4.49514498729e-11
7.06127391667e-10
-2.6016113105e-12
4.5290279995e-11
7.13020082464e-10
-4.6038517765e-12
4.48851393456e-11
7.05905949873e-10
-5.96300491373e-12
4.38221565658e-11
6.85862315418e-10
-6.440670287e-12
4.22481284744e-11
6.5432902091e-10
-6.01500799016e-12
4.03895868029e-11
6.13369833151e-10
-4.87223683686e-12
3.85671495631e-11
5.6580727863e-10
-3.33039991283e-12
3.72328170503e-11
5.14919155079e-10
3.66640034258e-11
4.63827924384e-10
-1.62937460181e-12
9.93923041777e-13
2.85189493029e-11
4.30646890561e-10
-5.68699721878e-14
1.76731899905e-12
2.84760910671e-11
4.78696627665e-10
2.28014112495e-12
2.89702039323e-11
5.26240959702e-10
2.34024149746e-12
2.9932123048e-11
5.70403446393e-10
1.82227406285e-12
3.10168084041e-11
6.08208469639e-10
7.39895378775e-13
3.19770847852e-11
6.37144889732e-10
-7.40389944525e-13
3.26229200568e-11
6.55389800023e-10
-2.34384263665e-12
3.28287103667e-11
6.61691166569e-10
-3.76340350786e-12
3.25303968202e-11
6.55155818663e-10
-4.72616402276e-12
3.17956539946e-11
6.36691198739e-10
-5.07100842784e-12
3.07534698459e-11
6.07562906127e-10
-4.79225185309e-12
2.95965961826e-11
5.69606226155e-10
-4.0251919719e-12
2.85754509229e-11
5.25338955031e-10
-2.97386053539e-12
2.80257277807e-11
4.77711200382e-10
2.80381930212e-11
4.295735239e-10
-1.74432952711e-12
4.41058358259e-13
2.05178978187e-11
3.90938372178e-10
-5.81155462462e-14
6.93090071073e-13
2.00485884866e-11
4.35844885194e-10
8.32251601721e-13
1.99022439308e-11
4.79814184521e-10
7.61845621222e-13
2.01787944537e-11
5.2026622112e-10
4.00109437488e-13
2.06431632013e-11
5.54626938482e-10
-2.56752312652e-13
2.11153566139e-11
5.80772355024e-10
-1.1209780422e-12
2.14444944875e-11
5.97173447898e-10
-2.04001964653e-12
2.15302276614e-11
6.02794266703e-10
-2.84440179824e-12
2.13267257227e-11
5.96929010474e-10
-3.38335365468e-12
2.08845707875e-11
5.80298572341e-10
-3.57453401502e-12
2.03081570088e-11
5.53953740598e-10
-3.42947180809e-12
1.97521541151e-11
5.19437776739e-10
-3.03942572955e-12
1.94000841117e-11
4.78883091722e-10
-2.51208964551e-12
1.94795400634e-11
4.34835373258e-10
1.99122646802e-11
3.89852636108e-10
-1.83600531044e-12
-1.29897131543e-13
1.34613021564e-11
3.48152460842e-10
-5.91578854137e-14
-3.54235094721e-13
1.26685570964e-11
3.90045575757e-10
-5.35294048114e-13
1.20439425379e-11
4.30370563148e-10
-7.05813513433e-13
1.18105657415e-11
4.66890700822e-10
-9.10009018527e-13
1.18047779925e-11
4.97527982295e-10
-1.16501024728e-12
1.18968641909e-11
5.206272022e-10
-1.45322511342e-12
1.1974102072e-11
5.35010438049e-10
-1.73465186088e-12
1.19624584378e-11
5.39890702114e-10
-1.9652480392e-12
1.18335180183e-11
5.34758004154e-10
-2.10680691086e-12
1.16209516575e-11
5.2013770138e-10
-2.14653258366e-12
1.14036293886e-11
4.96832438459e-10
-2.10888096495e-12
1.12982846986e-11
4.66036214372e-10
-2.04668257091e-12
1.14387231369e-11
4.2941568766e-10
-2.00286005834e-12
1.19823249105e-11
3.89019599847e-10
1.27272133341e-11
3.47064983355e-10
-1.90308819627e-12
-6.1742566425e-13
7.53519342117e-12
3.04621315436e-10
-5.98721484578e-14
-1.17913889094e-12
6.44683717384e-12
3.43906636978e-10
-1.5959015824e-12
5.54326932514e-12
3.80681930554e-10
-1.84978541876e-12
5.02418124014e-12
4.13184597981e-10
-1.93667037605e-12
4.7376810043e-12
4.39946427474e-10
-1.87508887299e-12
4.58756257367e-12
4.59852183608e-10
-1.7032989561e-12
4.49660646663e-12
4.72117005183e-10
-1.47369450243e-12
4.41816868754e-12
4.76224116681e-10
-1.24767072294e-12
4.33652542745e-12
4.71859915813e-10
-1.07901652234e-12
4.272800848e-12
4.59352970375e-10
-1.01014575824e-12
4.27829977075e-12
4.39235710134e-10
-1.06559927845e-12
4.43454245871e-12
4.12310244027e-10
-1.24935392097e-12
4.84147115304e-12
3.79707869366e-10
-1.55211198578e-12
5.64664015248e-12
3.42873106847e-10
6.67194304238e-12
3.03550170376e-10
-1.94881584975e-12
-7.86282404797e-13
2.62540989521e-10
-6.03879798042e-14
2.68940897844e-12
-1.45737954915e-12
2.99710589641e-10
1.37285303612e-12
-2.05988307647e-12
3.33088365396e-10
4.92849951315e-13
-2.43398192894e-12
3.61607681775e-10
-8.62165029619e-14
-2.50391888891e-12
3.84488740002e-10
-4.86696950654e-13
-2.27998628015e-12
4.01187910179e-10
-7.59899904272e-13
-1.83970352566e-12
4.1132610735e-10
-9.45163441667e-13
-1.30504332594e-12
4.14661567504e-10
-1.06384293113e-12
-8.14063935972e-13
4.11070021129e-10
-1.12115232557e-12
-4.89958207643e-13
4.00689736958e-10
-1.10722604005e-12
-4.13236297502e-13
3.83777073967e-10
-9.96384908583e-13
-5.99098331447e-13
3.60727557474e-10
-7.45579927286e-13
-9.7780365868e-13
3.32106236183e-10
-2.99663110728e-13
-1.39907203878e-12
2.98668576615e-10
4.61721784938e-13
2.6153382989e-10
-1.97220261616e-12
1.6920795532e-12
4.4454845058e-13
-7.251870981e-12
8.82778308772e-11
-5.70855284394e-15
6.53190971898e-13
-8.13067059319e-12
9.84342707211e-11
7.25109852826e-13
-9.08513675542e-12
1.08639886674e-10
6.90621837193e-13
-9.97973145132e-12
1.18178354284e-10
5.63123782679e-13
-1.07500962189e-11
1.2637258323e-10
3.63217431052e-13
-1.13401893756e-11
1.32665624187e-10
1.16661457866e-13
-1.17134229613e-11
1.36670417874e-10
-1.46398380927e-13
-1.18440380315e-11
1.38099392856e-10
-3.91866333357e-13
-1.17076793776e-11
1.36654320077e-10
-5.89758761085e-13
-1.13297597979e-11
1.32633933327e-10
-7.14935494387e-13
-1.07366143195e-11
1.26326186142e-10
-7.47419957521e-13
-9.96427823641e-12
1.18118251493e-10
-6.7037939638e-13
-9.06547735369e-12
1.08566492485e-10
-4.5729697409e-13
-8.11393662232e-12
9.83447659734e-11
-7.23909577525e-12
8.81592667595e-11
-1.45739085423e-14
1.02570091357e-12
-1.60356982465e-11
2.2863994009e-10
-1.48475489593e-14
1.57575562681e-12
-1.78077200892e-11
2.54343057185e-10
1.78153400053e-12
-1.9740992857e-11
2.80243024761e-10
1.70749575532e-12
-2.15715234389e-11
3.04503954922e-10
1.39505334182e-12
-2.31461674674e-11
3.25379330279e-10
8.98430644961e-13
-2.43507122854e-11
3.41428310308e-10
2.8399176692e-13
-2.51118722748e-11
3.51643896743e-10
-3.71737163467e-13
-2.53781003919e-11
3.55281267452e-10
-9.83262289595e-13
-2.50983993432e-11
3.51596079288e-10
-1.4743918046e-12
-2.43256056609e-11
3.41334271326e-10
-1.77997072615e-12
-2.31125951304e-11
3.25241878757e-10
-1.84619363091e-12
-2.15321562967e-11
3.04326342111e-10
-1.62760579699e-12
-1.96948892847e-11
2.80026940281e-10
-1.06428357322e-12
-1.77650268738e-11
2.54081361511e-10
-1.6001998949e-11
2.28305935373e-10
-4.20693036571e-14
1.3686580226e-12
-2.26809541937e-11
3.34904331127e-10
-2.1531435824e-14
2.15531644177e-12
-2.49970095087e-11
3.72174719281e-10
2.46462787449e-12
-2.75337493154e-11
4.09780834096e-10
2.37166512118e-12
-2.99602967034e-11
4.45060191418e-10
1.93917937405e-12
-3.20533338224e-11
4.75454663028e-10
1.24604116594e-12
-3.36561851529e-11
4.98842322681e-10
3.87088240183e-13
-3.46690955811e-11
5.13729678357e-10
-5.2956237739e-13
-3.50229392978e-11
5.19019015147e-10
-1.3840592955e-12
-3.4649825845e-11
5.1365193044e-10
-2.06871735201e-12
-3.36199862679e-11
4.98689579315e-10
-2.49001487611e-12
-3.20043919605e-11
4.75231822245e-10
-2.56928604714e-12
-2.99026149324e-11
4.44773139988e-10
-2.2407805645e-12
-2.74684186799e-11
4.09433590697e-10
-1.4334540585e-12
-2.4934699226e-11
3.71759214886e-10
-2.2631114958e-11
3.3438688966e-10
-6.8436982186e-14
1.54976106285e-12
-2.74408477924e-11
4.12616797119e-10
-2.67186744836e-14
2.48670148819e-12
-3.00548404719e-11
4.58217761838e-10
2.87425707491e-12
-3.29101197594e-11
5.04246137124e-10
2.77917771419e-12
-3.56560348351e-11
5.47471260598e-10
2.27573209844e-12
-3.80297100034e-11
5.84748601692e-10
1.45945031616e-12
-3.98494714937e-11
6.13452947912e-10
4.44721028897e-13
-4.09999697562e-11
6.31723331439e-10
-6.38673566801e-13
-4.14016225508e-11
6.38200514129e-10
-1.64760867664e-12
-4.09771922569e-11
6.31617887879e-10
-2.45277206452e-12
-3.98063554605e-11
6.13246043874e-10
-2.94094905634e-12
-3.79706550428e-11
5.84447417226e-10
-3.01691443997e-12
-3.55860095536e-11
5.47084785308e-10
-2.60456918558e-12
-3.28325252394e-11
5.03781881085e-10
-1.64118936908e-12
-2.99801076567e-11
4.57669846543e-10
-2.73785050056e-11
4.11951036172e-10
-9.44528485201e-14
1.61636672752e-12
-3.0537062097e-11
4.65284860007e-10
-3.07615937297e-14
2.634057695e-12
-3.3276695881e-11
5.16433842331e-10
3.07394372943e-12
-3.62371665456e-11
5.68044743032e-10
2.98676388652e-12
-3.90845335185e-11
6.16543831252e-10
2.44973054626e-12
-4.15481023518e-11
6.58401574829e-10
1.56769287451e-12
-4.34379104252e-11
6.90650990677e-10
4.6705413034e-13
-4.46329747993e-11
7.11173824786e-10
-7.08898091258e-13
-4.50500120253e-11
7.18432758756e-10
-1.80255128486e-12
-4.46087575882e-11
7.1104297331e-10
-2.6710884278e-12
-4.33918647956e-11
6.90394595028e-10
-3.1891772072e-12
-4.14845897021e-11
6.58029339531e-10
-3.25253157892e-12
-3.90089375997e-11
6.16068375183e-10
-2.78304191871e-12
-3.61540857977e-11
5.67478141188e-10
-1.73418931045e-12
-3.31967968698e-11
5.1577425601e-10
-3.04674013802e-11
4.64500948958e-10
-1.19662392881e-13
1.60809233525e-12
-3.21918972769e-11
4.96192652162e-10
-3.37797593174e-14
2.65253058565e-12