/*--------------------------------*- C++ -*----------------------------------*\
  =========                 |
  \\      /  F ield         | OpenFOAM: The Open Source CFD Toolbox
   \\    /   O peration     | Website:  https://openfoam.org
    \\  /    A nd           | Version:  7
     \\/     M anipulation  |
\*---------------------------------------------------------------------------*/
FoamFile
{
    version     2.0;
    format      ascii;
    class       volScalarField;
    location    "2.14";
    object      p;
}
// * * * * * * * * * * * * * * * * * * * * * * * * * * * * * * * * * * * * * //

dimensions      [0 2 -2 0 0 0 0];

internalField   nonuniform List<scalar> 
22500
(
-2.55157259227e-05
-2.55169504855e-05
-2.55175092399e-05
-2.55182177899e-05
-2.55191424945e-05
-2.55200136662e-05
-2.55206093795e-05
-2.55208031266e-05
-2.55205786938e-05
-2.55199516708e-05
-2.5519048378e-05
-2.55180907172e-05
-2.55173479762e-05
-2.55167550218e-05
-2.55154826069e-05
-2.55409970171e-05
-2.55433634326e-05
-2.55451587553e-05
-2.55469048113e-05
-2.5548647823e-05
-2.55501189441e-05
-2.55510840813e-05
-2.55514056654e-05
-2.55510535849e-05
-2.55500572565e-05
-2.55485538684e-05
-2.55467774736e-05
-2.55449963067e-05
-2.5543166021e-05
-2.55407526179e-05
-2.55640759692e-05
-2.55675690331e-05
-2.55702945917e-05
-2.55729388662e-05
-2.55753980976e-05
-2.5577395037e-05
-2.55786835356e-05
-2.55791166221e-05
-2.5578653686e-05
-2.55773346114e-05
-2.5575305986e-05
-2.55728139059e-05
-2.55701344825e-05
-2.55673733239e-05
-2.55638327753e-05
-2.5582466965e-05
-2.55866952791e-05
-2.55897622009e-05
-2.55928363724e-05
-2.5595612102e-05
-2.55978234061e-05
-2.55992355159e-05
-2.55997104183e-05
-2.55992057451e-05
-2.55977631753e-05
-2.55955202482e-05
-2.55927116005e-05
-2.55896020613e-05
-2.55864993301e-05
-2.55822241086e-05
-2.55961615616e-05
-2.5600278973e-05
-2.56028916842e-05
-2.56056236155e-05
-2.56080388067e-05
-2.56099315711e-05
-2.56111258111e-05
-2.56115245099e-05
-2.56110960101e-05
-2.5609871261e-05
-2.56079469053e-05
-2.56054988558e-05
-2.56027316134e-05
-2.56000827496e-05
-2.55959182244e-05
-2.56037385061e-05
-2.5606366338e-05
-2.56074559422e-05
-2.56087598926e-05
-2.56098784924e-05
-2.5610726989e-05
-2.56112446013e-05
-2.56114096541e-05
-2.56112144235e-05
-2.5610665978e-05
-2.56097855716e-05
-2.5608633846e-05
-2.56072943812e-05
-2.56061685898e-05
-2.56034939895e-05
-2.56033352494e-05
-2.5602702434e-05
-2.560100947e-05
-2.55996281302e-05
-2.55983867379e-05
-2.55973800647e-05
-2.55967139779e-05
-2.55964726044e-05
-2.55966834375e-05
-2.55973183677e-05
-2.55982928978e-05
-2.55995010129e-05
-2.56008468458e-05
-2.56025033612e-05
-2.56030891503e-05
-2.55933283097e-05
-2.55875188895e-05
-2.55817352007e-05
-2.55764203273e-05
-2.55717808954e-05
-2.55681412426e-05
-2.5565810458e-05
-2.55649997684e-05
-2.55657793725e-05
-2.55680785079e-05
-2.55716856478e-05
-2.5576291484e-05
-2.55815708251e-05
-2.55873179751e-05
-2.55930806561e-05
-2.55725897856e-05
-2.55598028575e-05
-2.55487190936e-05
-2.55383961505e-05
-2.55294804191e-05
-2.55225637444e-05
-2.55181757139e-05
-2.55166638477e-05
-2.55181440436e-05
-2.55224999059e-05
-2.55293837056e-05
-2.55382656189e-05
-2.55485530183e-05
-2.55596001129e-05
-2.55723400957e-05
-2.55406068147e-05
-2.55193764772e-05
-2.5502010153e-05
-2.54858973192e-05
-2.54720811972e-05
-2.54614453124e-05
-2.54547374893e-05
-2.5452437354e-05
-2.54547050591e-05
-2.5461380072e-05
-2.54719825574e-05
-2.54857645956e-05
-2.5501841962e-05
-2.55191715635e-05
-2.55403552926e-05
-2.54975061352e-05
-2.54668518191e-05
-2.54425499587e-05
-2.54202243534e-05
-2.54011870482e-05
-2.53866239774e-05
-2.53774824194e-05
-2.53743581644e-05
-2.53774491036e-05
-2.53865570235e-05
-2.54010861557e-05
-2.54200889751e-05
-2.5442379202e-05
-2.54666442052e-05
-2.5497251832e-05
-2.54438422552e-05
-2.54035022763e-05
-2.5372071575e-05
-2.53434893691e-05
-2.53192158592e-05
-2.53007479755e-05
-2.52892048736e-05
-2.52852704399e-05
-2.52891705156e-05
-2.53006790445e-05
-2.53191120954e-05
-2.53433506986e-05
-2.53718975204e-05
-2.54032914122e-05
-2.54435846974e-05
-2.53800926234e-05
-2.53310808958e-05
-2.52929088098e-05
-2.52583713522e-05
-2.52291410987e-05
-2.52070285765e-05
-2.51932697764e-05
-2.518859331e-05
-2.5193234229e-05
-2.5206957183e-05
-2.52290340825e-05
-2.52582285964e-05
-2.52927304626e-05
-2.53308658013e-05
-2.5379831171e-05
-2.53080479592e-05
-2.52518846218e-05
-2.52074863338e-05
-2.51674845075e-05
-2.51339195577e-05
-2.51087507388e-05
-2.50931868938e-05
-2.50879131478e-05
-2.5093149966e-05
-2.51086768314e-05
-2.51338085435e-05
-2.51673369909e-05
-2.52073029988e-05
-2.52516644116e-05
-2.53077836349e-05
-2.52382515714e-05
-2.51704775615e-05
-2.51192916768e-05
-2.50738501783e-05
-2.50365654322e-05
-2.50089825155e-05
-2.49920580957e-05
-2.49863452354e-05
-2.49920196438e-05
-2.50089055452e-05
-2.50364502464e-05
-2.50736973438e-05
-2.51191018833e-05
-2.51702510895e-05
-2.52379860489e-05
-3.82858488468e-05
-3.82825626992e-05
-3.82780805223e-05
-3.82737740644e-05
-3.82698615119e-05
-3.8266798901e-05
-3.82648472441e-05
-3.82641814987e-05
-3.82648608269e-05
-3.82668254908e-05
-3.82699008705e-05
-3.82738276515e-05
-3.82781537781e-05
-3.82826634421e-05
-3.82859877065e-05
-3.82764846974e-05
-3.82738892455e-05
-3.82700254808e-05
-3.82663227469e-05
-3.82629241934e-05
-3.82602525779e-05
-3.8258545057e-05
-3.82579619789e-05
-3.82585583223e-05
-3.82602784675e-05
-3.82629623226e-05
-3.82663745083e-05
-3.82700963181e-05
-3.82739876454e-05
-3.82766213956e-05
-3.82776344936e-05
-3.82766754593e-05
-3.82742290495e-05
-3.82718194933e-05
-3.82694768414e-05
-3.82675882872e-05
-3.82663606203e-05
-3.82659389751e-05
-3.82663743547e-05
-3.82676153772e-05
-3.82695172194e-05
-3.82718746324e-05
-3.82743035667e-05
-3.82767768332e-05
-3.82777717466e-05
-3.82881822481e-05
-3.82888436442e-05
-3.82876931086e-05
-3.82863809395e-05
-3.82848834625e-05
-3.82835906027e-05
-3.8282715162e-05
-3.82824098082e-05
-3.82827298109e-05
-3.82836196378e-05
-3.82849268759e-05
-3.828644001e-05
-3.82877717313e-05
-3.82889483813e-05
-3.82883211486e-05
-3.83007699161e-05
-3.83020589857e-05
-3.830129393e-05
-3.83002097398e-05
-3.82988231917e-05
-3.82975675891e-05
-3.82966962904e-05
-3.82963891245e-05
-3.82967120339e-05
-3.82975989495e-05
-3.82988703284e-05
-3.83002736644e-05
-3.83013777223e-05
-3.83021678186e-05
-3.83009102927e-05
-3.83105608198e-05
-3.83113035427e-05
-3.83100066722e-05
-3.83083416978e-05
-3.83064268518e-05
-3.83047461635e-05
-3.83036003299e-05
-3.83031981442e-05
-3.83036170377e-05
-3.83047795345e-05
-3.83064769565e-05
-3.83084094034e-05
-3.83100943731e-05
-3.83114157257e-05
-3.831070277e-05
-3.83157534336e-05
-3.83150712966e-05
-3.83126716293e-05
-3.83099579097e-05
-3.83071684799e-05
-3.83048248676e-05
-3.83032662283e-05
-3.83027237792e-05
-3.83032838385e-05
-3.83048601363e-05
-3.8307221545e-05
-3.83100294895e-05
-3.83127634645e-05
-3.83151869855e-05
-3.83158965578e-05
-3.83162130506e-05
-3.8313582247e-05
-3.83098014346e-05
-3.83058267611e-05
-3.83020128017e-05
-3.82989070911e-05
-3.82968794557e-05
-3.82961786726e-05
-3.82968977252e-05
-3.82989437148e-05
-3.83020679499e-05
-3.83059010002e-05
-3.83098962486e-05
-3.83137005619e-05
-3.83163575651e-05
-3.83124438218e-05
-3.83075890828e-05
-3.83022968146e-05
-3.82969721685e-05
-3.82920708455e-05
-3.82881621854e-05
-3.82856427606e-05
-3.82847764181e-05
-3.82856615565e-05
-3.82881999251e-05
-3.82921277492e-05
-3.82970487354e-05
-3.83023941479e-05
-3.83077095734e-05
-3.83125887955e-05
-3.83050826509e-05
-3.82978829946e-05
-3.82910136388e-05
-3.82843070185e-05
-3.82782964549e-05
-3.82735731314e-05
-3.82705568982e-05
-3.82695236405e-05
-3.8270575963e-05
-3.82736114671e-05
-3.8278354287e-05
-3.82843848597e-05
-3.82911124422e-05
-3.82980047215e-05
-3.83052280473e-05
-3.8294721127e-05
-3.82851585728e-05
-3.82766868669e-05
-3.82686065359e-05
-3.82615003739e-05
-3.82559798892e-05
-3.82524809723e-05
-3.82512862945e-05
-3.82525001232e-05
-3.82560183987e-05
-3.82615585841e-05
-3.82686848443e-05
-3.82767861444e-05
-3.82852804438e-05
-3.82948655197e-05
-3.82818926308e-05
-3.82700303495e-05
-3.82599696337e-05
-3.82505622509e-05
-3.82424145078e-05
-3.82361490319e-05
-3.82322053157e-05
-3.82308628226e-05
-3.82322242954e-05
-3.8236187251e-05
-3.82424722168e-05
-3.82506399975e-05
-3.82600682005e-05
-3.82701511062e-05
-3.82820353891e-05
-3.82671428436e-05
-3.82530706219e-05
-3.82414568615e-05
-3.82308081886e-05
-3.82217216047e-05
-3.82148071868e-05
-3.82104846504e-05
-3.82090183338e-05
-3.82105031851e-05
-3.82148444366e-05
-3.8221778078e-05
-3.82308842346e-05
-3.8241553261e-05
-3.8253188659e-05
-3.82672817433e-05
-3.82507817293e-05
-3.82345424372e-05
-3.82215288589e-05
-3.82098286492e-05
-3.8200015029e-05
-3.81926314991e-05
-3.81880495159e-05
-3.81864998574e-05
-3.81880671986e-05
-3.81926671378e-05
-3.8200068881e-05
-3.82099014465e-05
-3.82216217082e-05
-3.82346562304e-05
-3.82509153685e-05
-3.82312150411e-05
-3.82143550805e-05
-3.82003866142e-05
-3.81880449845e-05
-3.8177913347e-05
-3.8170381476e-05
-3.81657394719e-05
-3.81641750005e-05
-3.81657558469e-05
-3.81704146884e-05
-3.81779637906e-05
-3.81881134988e-05
-3.82004739568e-05
-3.82144631521e-05
-3.82313418396e-05
-2.64063931297e-05
-2.64082878088e-05
-2.64104448008e-05
-2.64126646283e-05
-2.64146624699e-05
-2.64162333818e-05
-2.64172327926e-05
-2.64175724671e-05
-2.64172177871e-05
-2.64162048306e-05
-2.64146234781e-05
-2.64126191596e-05
-2.64103948508e-05
-2.64082384589e-05
-2.64063458188e-05
-2.64077782114e-05
-2.64096341254e-05
-2.6411785735e-05
-2.6414009503e-05
-2.64160201735e-05
-2.64176068542e-05
-2.64186192754e-05
-2.64189641514e-05
-2.64186038074e-05
-2.64175773841e-05
-2.64159797675e-05
-2.64139620798e-05
-2.64117338232e-05
-2.6409582666e-05
-2.64077294187e-05
-2.64070616331e-05
-2.64087523517e-05
-2.64107618617e-05
-2.64128766021e-05
-2.64148086402e-05
-2.64163440036e-05
-2.64173282376e-05
-2.64176644179e-05
-2.64173131836e-05
-2.64163153555e-05
-2.64147693225e-05
-2.64128304602e-05
-2.64107118586e-05
-2.64087025283e-05
-2.64070136101e-05
-2.64062012844e-05
-2.64078038397e-05
-2.64097275164e-05
-2.64117784508e-05
-2.64136684781e-05
-2.64151794596e-05
-2.64161518325e-05
-2.64164846614e-05
-2.64161372993e-05
-2.64151517917e-05
-2.64136303342e-05
-2.64117334029e-05
-2.64096786777e-05
-2.64077552493e-05
-2.64061541661e-05
-2.6405751019e-05
-2.64073543378e-05
-2.64092628904e-05
-2.6411308817e-05
-2.64132035654e-05
-2.64147239953e-05
-2.6415704922e-05
-2.64160413154e-05
-2.6415691158e-05
-2.64146977878e-05
-2.64131674234e-05
-2.64112660678e-05
-2.64092166e-05
-2.64073080836e-05
-2.6405705146e-05
-2.64056755471e-05
-2.64073494721e-05
-2.64092946463e-05
-2.64113780039e-05
-2.64133101526e-05
-2.64148630381e-05
-2.64158663773e-05
-2.64162109444e-05
-2.64158533903e-05
-2.6414838298e-05
-2.6413275884e-05
-2.6411337247e-05
-2.64092502734e-05
-2.64073049178e-05
-2.64056311069e-05
-2.64059448427e-05
-2.64077481086e-05
-2.64097709576e-05
-2.64119248683e-05
-2.6413918465e-05
-2.64155197382e-05
-2.64165543993e-05
-2.64169100245e-05
-2.64165423867e-05
-2.64154968518e-05
-2.64138866986e-05
-2.64118869346e-05
-2.64097294825e-05
-2.6407705936e-05
-2.64059018797e-05
-2.64065586268e-05
-2.64085412469e-05
-2.64106735549e-05
-2.64129204413e-05
-2.64149896483e-05
-2.64166472071e-05
-2.64177168043e-05
-2.6418084496e-05
-2.64177057876e-05
-2.64166261844e-05
-2.64149603502e-05
-2.64128851705e-05
-2.6410634682e-05
-2.64085012945e-05
-2.6406517431e-05
-2.64075017081e-05
-2.64096984925e-05
-2.64119592779e-05
-2.64143084236e-05
-2.64164558584e-05
-2.64181683854e-05
-2.64192706212e-05
-2.64196493491e-05
-2.64192606797e-05
-2.64181493777e-05
-2.64164292654e-05
-2.64142761722e-05
-2.64119233441e-05
-2.64096610465e-05
-2.64074621182e-05
-2.64087367714e-05
-2.64111664188e-05
-2.64135611738e-05
-2.64160079441e-05
-2.64182238376e-05
-2.64199802935e-05
-2.64211067273e-05
-2.64214932759e-05
-2.64210978314e-05
-2.6419963257e-05
-2.64181998436e-05
-2.64159785859e-05
-2.64135280824e-05
-2.64111314377e-05
-2.64086992935e-05
-2.64102153814e-05
-2.64128785539e-05
-2.64153999218e-05
-2.64179272872e-05
-2.64201908827e-05
-2.64219717447e-05
-2.64231084028e-05
-2.6423497756e-05
-2.64231005427e-05
-2.64219566229e-05
-2.64201694915e-05
-2.64179008146e-05
-2.6415369734e-05
-2.64128460694e-05
-2.64101798472e-05
-2.64118789514e-05
-2.64147625334e-05
-2.64173947584e-05
-2.6419977427e-05
-2.6422260084e-05
-2.6424039087e-05
-2.64251679222e-05
-2.64255534974e-05
-2.6425161047e-05
-2.64240258362e-05
-2.64222411192e-05
-2.64199537692e-05
-2.64173674071e-05
-2.64147326725e-05
-2.64118456819e-05
-2.64136440676e-05
-2.64167348895e-05
-2.64194653656e-05
-2.64220783026e-05
-2.64243488381e-05
-2.64260976725e-05
-2.6427198556e-05
-2.6427573475e-05
-2.64271926147e-05
-2.64260860584e-05
-2.64243322744e-05
-2.64220572779e-05
-2.64194407774e-05
-2.6416707567e-05
-2.64136128388e-05
-2.64154653138e-05
-2.64187690369e-05
-2.64215758617e-05
-2.64241860674e-05
-2.64264042126e-05
-2.64280869232e-05
-2.64291367948e-05
-2.6429492356e-05
-2.64291316275e-05
-2.64280769615e-05
-2.64263896629e-05
-2.64241676274e-05
-2.64215540377e-05
-2.64187444459e-05
-2.64154366371e-05
-2.64180768202e-05
-2.64212706122e-05
-2.64239955844e-05
-2.64264501935e-05
-2.64284782143e-05
-2.6429992072e-05
-2.64309269948e-05
-2.64312422534e-05
-2.64309225984e-05
-2.64299834883e-05
-2.64284658319e-05
-2.64264342955e-05
-2.64239765402e-05
-2.64212489178e-05
-2.64180511745e-05
-3.20230729217e-05
-3.202191042e-05
-3.20205925248e-05
-3.20192237715e-05
-3.20179909922e-05
-3.20170193195e-05
-3.20163995523e-05
-3.20161876223e-05
-3.20164055703e-05
-3.20170301802e-05
-3.20180047355e-05
-3.20192373835e-05
-3.20206046033e-05
-3.20219211655e-05
-3.20230882424e-05
-3.2022720259e-05
-3.2021601149e-05
-3.20203063421e-05
-3.20189524722e-05
-3.20177267553e-05
-3.20167569157e-05
-3.20161365398e-05
-3.20159239977e-05
-3.20161428724e-05
-3.20167682517e-05
-3.20177408854e-05
-3.20189662413e-05
-3.20203179332e-05
-3.20216112627e-05
-3.20227345221e-05
-3.20236591963e-05
-3.20226599832e-05
-3.2021476017e-05
-3.20202110277e-05
-3.2019052949e-05
-3.20181292243e-05
-3.20175352792e-05
-3.20173310357e-05
-3.20175410935e-05
-3.20181397156e-05
-3.20190662546e-05
-3.20202246174e-05
-3.20214881209e-05
-3.20226714143e-05
-3.20236738152e-05
-3.20245422368e-05
-3.20236150264e-05
-3.20225059661e-05
-3.20213018072e-05
-3.20201890783e-05
-3.20192956311e-05
-3.2018718771e-05
-3.20185198771e-05
-3.20187241274e-05
-3.20193052968e-05
-3.20202013334e-05
-3.20213145227e-05
-3.20225177148e-05
-3.20236266849e-05
-3.20245572455e-05
-3.20251161416e-05
-3.20242118238e-05
-3.20231378704e-05
-3.20219639907e-05
-3.20208732034e-05
-3.20199937174e-05
-3.20194241586e-05
-3.201922737e-05
-3.20194289884e-05
-3.20200024968e-05
-3.20208845975e-05
-3.20219762871e-05
-3.2023149998e-05
-3.20242243543e-05
-3.20251315274e-05
-3.20254742889e-05
-3.20245630483e-05
-3.20234998117e-05
-3.20223374927e-05
-3.20212551021e-05
-3.20203806779e-05
-3.20198135863e-05
-3.20196174135e-05
-3.20198179988e-05
-3.20203887225e-05
-3.20212655467e-05
-3.20223489421e-05
-3.20235113876e-05
-3.20245756573e-05
-3.20254897084e-05
-3.20256715438e-05
-3.20247314263e-05
-3.20236618707e-05
-3.20224997409e-05
-3.20214183489e-05
-3.20205447961e-05
-3.20199780856e-05
-3.20197819169e-05
-3.20199820536e-05
-3.20205521301e-05
-3.2021428085e-05
-3.20225108463e-05
-3.20236736595e-05
-3.20247446916e-05
-3.20256872108e-05
-3.20257304908e-05
-3.20247466587e-05
-3.20236592643e-05
-3.20224904327e-05
-3.20214063373e-05
-3.20205323551e-05
-3.20199659062e-05
-3.20197698781e-05
-3.20199695047e-05
-3.20205390507e-05
-3.20214153255e-05
-3.20225008955e-05
-3.20236707911e-05
-3.20247600813e-05
-3.20257465008e-05
-3.20256740162e-05
-3.20246365498e-05
-3.20235251442e-05
-3.20223479208e-05
-3.20212621733e-05
-3.20203900537e-05
-3.20198259436e-05
-3.20196309171e-05
-3.20198292477e-05
-3.20203962769e-05
-3.20212707503e-05
-3.20223582498e-05
-3.20235369327e-05
-3.20246505155e-05
-3.20256901946e-05
-3.2025526957e-05
-3.20244324828e-05
-3.20232959213e-05
-3.20221130282e-05
-3.2021030341e-05
-3.20201651177e-05
-3.20196072671e-05
-3.20194147053e-05
-3.20196103217e-05
-3.20201709629e-05
-3.20210385032e-05
-3.20221231356e-05
-3.20233078118e-05
-3.20244468771e-05
-3.20255435901e-05
-3.20253138275e-05
-3.20241623369e-05
-3.20230030751e-05
-3.20218208903e-05
-3.2020749334e-05
-3.20198989222e-05
-3.2019352934e-05
-3.20191649595e-05
-3.20193558632e-05
-3.20199045707e-05
-3.20207574218e-05
-3.20218310627e-05
-3.20230153159e-05
-3.20241771089e-05
-3.20253305688e-05
-3.20250557602e-05
-3.20238496928e-05
-3.2022672519e-05
-3.20214993017e-05
-3.20204493372e-05
-3.20196232131e-05
-3.20190960867e-05
-3.20189151466e-05
-3.20190989494e-05
-3.20196288744e-05
-3.20204573543e-05
-3.20215096711e-05
-3.20226851123e-05
-3.20238649656e-05
-3.20250727974e-05
-3.20247839564e-05
-3.20235221877e-05
-3.20223279433e-05
-3.20211699082e-05
-3.20201505853e-05
-3.20193587178e-05
-3.20188569494e-05
-3.2018685784e-05
-3.20188598941e-05
-3.20193642647e-05
-3.20201588963e-05
-3.20211804149e-05
-3.20223409386e-05
-3.2023537749e-05
-3.20248009135e-05
-3.20245090218e-05
-3.20231799814e-05
-3.20219728043e-05
-3.20208378162e-05
-3.20198618159e-05
-3.20191147066e-05
-3.20186466336e-05
-3.20184876355e-05
-3.20186495126e-05
-3.20191205543e-05
-3.20198700823e-05
-3.20208487587e-05
-3.20219862071e-05
-3.20231961217e-05
-3.20245260558e-05
-3.20237791086e-05
-3.20225133835e-05
-3.20213912959e-05
-3.20203704167e-05
-3.20195150791e-05
-3.2018871314e-05
-3.20184717367e-05
-3.20183371102e-05
-3.20184748017e-05
-3.20188772394e-05
-3.20195238802e-05
-3.20203818554e-05
-3.20214053707e-05
-3.20225300193e-05
-3.20237968603e-05
-2.65024033714e-05
-2.65031371691e-05
-2.6503969011e-05
-2.65048328887e-05
-2.65056110461e-05
-2.65062247008e-05
-2.65066149697e-05
-2.65067474778e-05
-2.65066088717e-05
-2.65062137412e-05
-2.65055973366e-05
-2.65048175754e-05
-2.65039521989e-05
-2.65031211073e-05
-2.65023866708e-05
-2.65025270195e-05
-2.65032329062e-05
-2.65040501145e-05
-2.65049048206e-05
-2.65056791697e-05
-2.65062923156e-05
-2.65066834875e-05
-2.65068165842e-05
-2.65066772012e-05
-2.65062809813e-05
-2.65056648535e-05
-2.65048886046e-05
-2.65040320811e-05
-2.650321528e-05
-2.65025090203e-05
-2.65018356908e-05
-2.650246462e-05
-2.65032125851e-05
-2.65040132163e-05
-2.65047463628e-05
-2.65053310285e-05
-2.65057058708e-05
-2.65058338186e-05
-2.65056998567e-05
-2.65053200669e-05
-2.65047323156e-05
-2.65039975108e-05
-2.65031958221e-05
-2.65024482419e-05
-2.65018188307e-05
-2.65011972381e-05
-2.65017791725e-05
-2.65024791136e-05
-2.65032410232e-05
-2.65039448931e-05
-2.65045097366e-05
-2.65048734335e-05
-2.65049979001e-05
-2.65048677737e-05
-2.65044993751e-05
-2.65039314265e-05
-2.65032258085e-05
-2.65024629139e-05
-2.65017635031e-05
-2.6501181253e-05
-2.65007568902e-05
-2.65013188589e-05
-2.6501992952e-05
-2.65027331274e-05
-2.65034204458e-05
-2.65039741045e-05
-2.65043315994e-05
-2.65044542536e-05
-2.65043263952e-05
-2.65039645183e-05
-2.65034079268e-05
-2.65027190994e-05
-2.650197837e-05
-2.65013049415e-05
-2.65007422742e-05
-2.6500445909e-05
-2.65010036581e-05
-2.65016636607e-05
-2.65023897427e-05
-2.65030656882e-05
-2.65036113321e-05
-2.65039643441e-05
-2.65040856782e-05
-2.65039596291e-05
-2.65036026298e-05
-2.65030542224e-05
-2.65023767942e-05
-2.65016501273e-05
-2.65009907562e-05
-2.65004325616e-05
-2.65002216555e-05
-2.65007834232e-05
-2.65014359385e-05
-2.6502151867e-05
-2.65028183859e-05
-2.65033565936e-05
-2.65037050864e-05
-2.65038250252e-05
-2.65037009237e-05
-2.6503348906e-05
-2.6502808232e-05
-2.65021404519e-05
-2.65014241569e-05
-2.65007721434e-05
-2.65002096617e-05
-2.65000636701e-05
-2.6500634616e-05
-2.65012830287e-05
-2.65019893548e-05
-2.65026456212e-05
-2.65031750134e-05
-2.65035177541e-05
-2.65036358282e-05
-2.65035141609e-05
-2.65031683699e-05
-2.65026367967e-05
-2.65019793355e-05
-2.65012726203e-05
-2.65006245892e-05
-2.65000530075e-05
-2.6499953793e-05
-2.65005347856e-05
-2.65011796456e-05
-2.65018747153e-05
-2.65025180391e-05
-2.65030357053e-05
-2.65033704501e-05
-2.65034858275e-05
-2.65033674196e-05
-2.65030300881e-05
-2.65025105757e-05
-2.65018662151e-05
-2.65011707945e-05
-2.65005262159e-05
-2.64999443065e-05
-2.64998737147e-05
-2.65004640926e-05
-2.65011037915e-05
-2.65017839725e-05
-2.65024099208e-05
-2.6502911596e-05
-2.65032353551e-05
-2.65033468845e-05
-2.65032328502e-05
-2.65029069632e-05
-2.65024037019e-05
-2.650177684e-05
-2.65010962672e-05
-2.65004567534e-05
-2.64998655909e-05
-2.64998092074e-05
-2.65004063535e-05
-2.65010380015e-05
-2.65016986385e-05
-2.65023016065e-05
-2.65027821939e-05
-2.65030912436e-05
-2.65031976324e-05
-2.650308921e-05
-2.65027784099e-05
-2.65022965436e-05
-2.65016927527e-05
-2.65010317815e-05
-2.65004001747e-05
-2.6499802247e-05
-2.64997485058e-05
-2.6500350559e-05
-2.65009713148e-05
-2.65016072855e-05
-2.65021812016e-05
-2.65026347457e-05
-2.65029251084e-05
-2.65030247401e-05
-2.65029234765e-05
-2.65026317205e-05
-2.65021770386e-05
-2.6501602527e-05
-2.6500966208e-05
-2.65003455126e-05
-2.64997427447e-05
-2.64996768918e-05
-2.65002852163e-05
-2.65008951959e-05
-2.65015038341e-05
-2.65020433093e-05
-2.65024650172e-05
-2.65027325741e-05
-2.65028243786e-05
-2.65027312725e-05
-2.65024624591e-05
-2.65020400265e-05
-2.65014998172e-05
-2.65008910514e-05
-2.65002810763e-05
-2.64996721673e-05
-2.64995831487e-05
-2.65002063606e-05
-2.65008084932e-05
-2.65013879398e-05
-2.65018893093e-05
-2.65022740603e-05
-2.65025162672e-05
-2.65025984843e-05
-2.65025151086e-05
-2.65022720542e-05
-2.65018863848e-05
-2.65013847628e-05
-2.65008049404e-05
-2.65002030115e-05
-2.64995792878e-05
-2.64996941801e-05
-2.65002931366e-05
-2.65008412006e-05
-2.65013461051e-05
-2.65017693595e-05
-2.65020890558e-05
-2.65022878332e-05
-2.65023552078e-05
-2.65022868948e-05
-2.65020872419e-05
-2.65017670359e-05
-2.65013432406e-05
-2.65008383288e-05
-2.65002902622e-05
-2.64996909667e-05
-2.79404562918e-05
-2.79399968468e-05
-2.79394781791e-05
-2.79389441526e-05
-2.79384659393e-05
-2.79380910022e-05
-2.79378538954e-05
-2.79377746822e-05
-2.79378611579e-05
-2.79381043835e-05
-2.79384831438e-05
-2.793896253e-05
-2.79394953412e-05
-2.79400102825e-05
-2.79404681069e-05
-2.79403113405e-05
-2.79398664878e-05
-2.79393545488e-05
-2.79388239939e-05
-2.79383465653e-05
-2.79379711215e-05
-2.79377331214e-05
-2.79376535927e-05
-2.79377407828e-05
-2.79379851622e-05
-2.79383645087e-05
-2.79388428318e-05
-2.7939371625e-05
-2.79398796975e-05
-2.79403224826e-05
-2.79406684967e-05
-2.7940268834e-05
-2.79397989932e-05
-2.79393020018e-05
-2.79388498021e-05
-2.79384912926e-05
-2.79382627499e-05
-2.79381859842e-05
-2.79382696887e-05
-2.7938504055e-05
-2.7938866292e-05
-2.79393197522e-05
-2.79398156703e-05
-2.79402826211e-05
-2.79406797524e-05
-2.79410008561e-05
-2.79406298132e-05
-2.79401889502e-05
-2.79397154926e-05
-2.7939280742e-05
-2.79389338812e-05
-2.79387117834e-05
-2.79386368931e-05
-2.79387181267e-05
-2.79389455532e-05
-2.7939295835e-05
-2.79397317802e-05
-2.79402044045e-05
-2.7940643031e-05
-2.79410122176e-05
-2.79412176509e-05
-2.7940858483e-05
-2.79404334214e-05
-2.79399741329e-05
-2.79395498859e-05
-2.79392098062e-05
-2.79389912011e-05
-2.79389171257e-05
-2.79389967347e-05
-2.79392200154e-05
-2.79395632632e-05
-2.79399889444e-05
-2.79404480539e-05
-2.79408716338e-05
-2.79412290077e-05
-2.79413635409e-05
-2.79410084611e-05
-2.79405923709e-05
-2.79401423204e-05
-2.79397253289e-05
-2.79393902569e-05
-2.79391744049e-05
-2.79391010295e-05
-2.79391793345e-05
-2.7939399337e-05
-2.79397372028e-05
-2.79401554848e-05
-2.79406054791e-05
-2.79410207792e-05
-2.79413745324e-05
-2.79414655655e-05
-2.79411097757e-05
-2.79406989384e-05
-2.79402566745e-05
-2.79398464841e-05
-2.79395165118e-05
-2.79393035974e-05
-2.79392309718e-05
-2.79393078027e-05
-2.7939524311e-05
-2.79398568229e-05
-2.79402684356e-05
-2.79407111282e-05
-2.79411217595e-05
-2.79414763939e-05
-2.79415361466e-05
-2.79411776881e-05
-2.79407701599e-05
-2.79403350168e-05
-2.79399318734e-05
-2.79396077496e-05
-2.79393985699e-05
-2.79393270606e-05
-2.79394021939e-05
-2.79396144881e-05
-2.79399408259e-05
-2.79403452974e-05
-2.79407810524e-05
-2.79411888944e-05
-2.79415468435e-05
-2.79415855227e-05
-2.7941222984e-05
-2.7940818275e-05
-2.79403912379e-05
-2.79399968597e-05
-2.7939680409e-05
-2.79394762698e-05
-2.79394063913e-05
-2.79394793685e-05
-2.79396862028e-05
-2.79400047251e-05
-2.7940400514e-05
-2.79408284357e-05
-2.79412338787e-05
-2.79415959736e-05
-2.79416223606e-05
-2.79412563092e-05
-2.79408550704e-05
-2.79404378767e-05
-2.7940054569e-05
-2.7939747966e-05
-2.79395505767e-05
-2.79394829648e-05
-2.79395532334e-05
-2.79397530061e-05
-2.79400614543e-05
-2.7940446204e-05
-2.79408644678e-05
-2.79412667918e-05
-2.79416328469e-05
-2.79416541823e-05
-2.79412847875e-05
-2.79408881696e-05
-2.7940483331e-05
-2.79401140565e-05
-2.79398202886e-05
-2.79396316601e-05
-2.79395671406e-05
-2.79396340184e-05
-2.79398247878e-05
-2.79401203811e-05
-2.79404910871e-05
-2.79408972006e-05
-2.79412949879e-05
-2.79416644519e-05
-2.79416859028e-05
-2.79413131188e-05
-2.79409227051e-05
-2.79405326976e-05
-2.79401809863e-05
-2.79399028902e-05
-2.79397253987e-05
-2.79396647105e-05
-2.79397275159e-05
-2.79399071021e-05
-2.794018676e-05
-2.79405401302e-05
-2.79409314792e-05
-2.79413232496e-05
-2.79416961499e-05
-2.79417260936e-05
-2.79413474032e-05
-2.79409624702e-05
-2.79405888391e-05
-2.79402564132e-05
-2.79399971505e-05
-2.79398322399e-05
-2.79397763958e-05
-2.79398343301e-05
-2.79400009293e-05
-2.79402621767e-05
-2.79405958428e-05
-2.79409711924e-05
-2.79413574505e-05
-2.79417361593e-05
-2.79417706468e-05
-2.79413790458e-05
-2.79410020892e-05
-2.79406465592e-05
-2.79403377741e-05
-2.79400994304e-05
-2.79399500037e-05
-2.793989938e-05
-2.7939951917e-05
-2.79401034125e-05
-2.79403431453e-05
-2.79406538315e-05
-2.79410107289e-05
-2.79413893938e-05
-2.79417806159e-05
-2.79416076898e-05
-2.79412663475e-05
-2.79409423993e-05
-2.79406452639e-05
-2.79403914386e-05
-2.79401988257e-05
-2.79400787817e-05
-2.79400386632e-05
-2.79400809126e-05
-2.79402028258e-05
-2.79403973375e-05
-2.7940652696e-05
-2.7940951623e-05
-2.79412768194e-05
-2.79416183194e-05
-2.5017372289e-05
-2.50176570729e-05
-2.50179779428e-05
-2.50183093836e-05
-2.50186059989e-05
-2.50188391447e-05
-2.50189873038e-05
-2.50190374346e-05
-2.50189842165e-05
-2.50188330983e-05
-2.50185974503e-05
-2.50182996968e-05
-2.50179693586e-05
-2.50176535278e-05
-2.50173730077e-05
-2.50173709379e-05
-2.50176432593e-05
-2.50179564745e-05
-2.5018282763e-05
-2.50185764121e-05
-2.50188081185e-05
-2.50189557969e-05
-2.50190058012e-05
-2.5018952498e-05
-2.50188016413e-05
-2.50185671972e-05
-2.50182722112e-05
-2.50179469366e-05
-2.50176384391e-05
-2.50173705667e-05
-2.50170504844e-05
-2.5017291413e-05
-2.50175755877e-05
-2.50178792391e-05
-2.50181558151e-05
-2.50183759201e-05
-2.50185168736e-05
-2.50185647445e-05
-2.50185137633e-05
-2.50183698883e-05
-2.50181474049e-05
-2.50178697573e-05
-2.50175671801e-05
-2.50172873041e-05
-2.50170508073e-05
-2.50167616513e-05
-2.50169830525e-05
-2.5017246971e-05
-2.50175348197e-05
-2.50177996112e-05
-2.50180117677e-05
-2.50181481662e-05
-2.50181945889e-05
-2.50181452051e-05
-2.50180060768e-05
-2.50177918156e-05
-2.50175262094e-05
-2.5017239487e-05
-2.50169794893e-05
-2.50167621233e-05
-2.50165567007e-05
-2.50167693867e-05
-2.50170219195e-05
-2.50173005163e-05
-2.50175584819e-05
-2.50177661426e-05
-2.50179000792e-05
-2.50179457904e-05
-2.5017897417e-05
-2.50177610984e-05
-2.50175516787e-05
-2.50172931587e-05
-2.50170156503e-05
-2.50167668051e-05
-2.50165576905e-05
-2.50164056204e-05
-2.50166154479e-05
-2.50168608175e-05
-2.50171332257e-05
-2.50173863001e-05
-2.50175905593e-05
-2.50177225416e-05
-2.50177676815e-05
-2.50177201347e-05
-2.50175860451e-05
-2.50173803299e-05
-2.50171269241e-05
-2.50168556339e-05
-2.50166134849e-05
-2.50164070964e-05
-2.501628958e-05
-2.50164991555e-05
-2.50167396945e-05
-2.50170069659e-05
-2.50172554981e-05
-2.50174563246e-05
-2.50175862439e-05
-2.50176307868e-05
-2.50175841956e-05
-2.50174525141e-05
-2.50172505414e-05
-2.50170018271e-05
-2.50167356398e-05
-2.5016497996e-05
-2.50162913704e-05
-2.50161990315e-05
-2.50164095706e-05
-2.50166460979e-05
-2.50169081416e-05
-2.50171516072e-05
-2.50173482381e-05
-2.50174754629e-05
-2.50175191624e-05
-2.50174737594e-05
-2.50173451094e-05
-2.50171476324e-05
-2.50169041711e-05
-2.50166431605e-05
-2.50164091211e-05
-2.5016201189e-05
-2.50161255429e-05
-2.50163367034e-05
-2.50165690708e-05
-2.50168248434e-05
-2.50170617977e-05
-2.50172527997e-05
-2.50173763203e-05
-2.50174188082e-05
-2.5017374976e-05
-2.5017250369e-05
-2.50170587571e-05
-2.5016821913e-05
-2.50165671053e-05
-2.50163369285e-05
-2.50161278672e-05
-2.50160609594e-05
-2.50162716046e-05
-2.50164987548e-05
-2.50167465563e-05
-2.501697506e-05
-2.50171586566e-05
-2.50172771706e-05
-2.50173179904e-05
-2.50172761946e-05
-2.50171569088e-05
-2.50169729797e-05
-2.50167446967e-05
-2.50164977854e-05
-2.50162724405e-05
-2.50160635662e-05
-2.50159987986e-05
-2.5016207237e-05
-2.5016427981e-05
-2.50166658273e-05
-2.5016883589e-05
-2.50170575817e-05
-2.50171696021e-05
-2.50172081811e-05
-2.50171689469e-05
-2.50170564614e-05
-2.50168823213e-05
-2.50166648924e-05
-2.50164278829e-05
-2.50162087197e-05
-2.50160015813e-05
-2.50159343183e-05
-2.50161393676e-05
-2.50163525091e-05
-2.50165784132e-05
-2.50167829134e-05
-2.50169450934e-05
-2.50170489118e-05
-2.50170846935e-05
-2.50170485601e-05
-2.5016944481e-05
-2.50167824425e-05
-2.50165783339e-05
-2.50163532418e-05
-2.50161414584e-05
-2.50159374802e-05
-2.50158619957e-05
-2.50160639368e-05
-2.50162697332e-05
-2.50164826328e-05
-2.50166719995e-05
-2.50168200453e-05
-2.50169143524e-05
-2.50169466542e-05
-2.50169142121e-05
-2.50168200391e-05
-2.5016672139e-05
-2.50164833569e-05
-2.50162712393e-05
-2.50160666916e-05
-2.50158656625e-05
-2.50157725983e-05
-2.50159742042e-05
-2.50161763837e-05
-2.50163772555e-05
-2.5016550573e-05
-2.50166838306e-05
-2.50167675195e-05