/*--------------------------------*- C++ -*----------------------------------*\
  =========                 |
  \\      /  F ield         | OpenFOAM: The Open Source CFD Toolbox
   \\    /   O peration     | Website:  https://openfoam.org
    \\  /    A nd           | Version:  7
     \\/     M anipulation  |
\*---------------------------------------------------------------------------*/
FoamFile
{
    version     2.0;
    format      ascii;
    class       surfaceScalarField;
    location    "2.14";
    object      phi;
}
// * * * * * * * * * * * * * * * * * * * * * * * * * * * * * * * * * * * * * //

dimensions      [0 3 -1 0 0 0 0];

internalField   nonuniform List<scalar> 
65775
(
-3.18192898949e-11
-9.39517955287e-09
2.81723626586e-10
-3.10795672309e-14
-5.96188026103e-11
-9.90960927301e-09
3.18494108233e-10
-6.64191056707e-11
-1.03925707536e-08
3.54487152338e-10
-6.06153448874e-11
-1.08049755771e-08
3.87525125001e-10
-4.75405636788e-11
-1.11363846266e-08
4.15690488199e-10
-3.02503233048e-11
-1.13798482181e-08
4.37248402013e-10
-1.064607398e-11
-1.15327526778e-08
4.50938156633e-10
9.75597283597e-12
-1.15895855705e-08
4.55813989101e-10
2.93656660284e-11
-1.1532715674e-08
4.5096122101e-10
4.66731714479e-11
-1.13797705206e-08
4.37291705296e-10
5.97822882835e-11
-1.11362656648e-08
4.15748685384e-10
6.56405236696e-11
-1.08048196206e-08
3.87588792151e-10
5.89114315839e-11
-1.03924032502e-08
3.54540864059e-10
3.12036584774e-11
-9.90945789723e-09
3.18513908289e-10
-9.39518068163e-09
2.81679132384e-10
-4.3435477051e-13
-1.14314965516e-10
-1.78341758227e-08
-1.59420879377e-10
-8.96762579069e-14
-1.95352923426e-10
-1.8803450329e-08
-2.09809055806e-10
-2.218444777e-10
-1.97121725492e-08
-2.6192830911e-10
-2.08933804845e-10
-2.04778433587e-08
-3.11775218874e-10
-1.6833946615e-10
-2.10864010321e-08
-3.55411999422e-10
-1.08889920068e-10
-2.15299985884e-08
-3.89465987016e-10
-3.82452104736e-11
-2.18073814003e-08
-4.1128813396e-10
3.60729123119e-11
-2.19103675778e-08
-4.18985686352e-10
1.06730824443e-10
-2.18073176098e-08
-4.11227411833e-10
1.66220647573e-10
-2.15298653701e-08
-3.89352055435e-10
2.06897077393e-10
-2.10861915941e-08
-3.55259078668e-10
2.19941814563e-10
-2.04775601314e-08
-3.11608793805e-10
1.93634491577e-10
-1.97118510249e-08
-2.61790651894e-10
1.12866500856e-10
-1.88031863032e-08
-2.09766231537e-10
-1.7834235998e-08
-1.59552487507e-10
-1.06595174752e-12
-2.10903932561e-10
-2.46508144026e-08
-1.25249411876e-09
-1.32366584903e-13
-3.4265598013e-10
-2.59433831852e-08
-1.47849613115e-09
-3.94199832441e-10
-2.71296892385e-08
-1.70177333338e-09
-3.78867890331e-10
-2.81168569414e-08
-1.90785708609e-09
-3.10584192133e-10
-2.88929020674e-08
-2.08361790332e-09
-2.03063003749e-10
-2.94542660108e-08
-2.21812386235e-09
-7.12857551188e-11
-2.9804020326e-08
-2.30336041702e-09
6.85024087982e-11
-2.99341356035e-08
-2.33346970403e-09
2.00293599643e-10
-2.98039715771e-08
-2.30328013421e-09
3.07859680062e-10
-2.94541618991e-08
-2.21797290074e-09
3.76238889896e-10
-2.88927348131e-08
-2.0834144302e-09
3.91731527617e-10
-2.81166298356e-08
-1.90763469899e-09
3.40418832216e-10
-2.71294268952e-08
-1.70158946998e-09
2.09021226231e-10
-2.59431998932e-08
-1.47844401704e-09
-2.46510104003e-08
-1.25268999999e-09
-1.43954034426e-12
-3.08915830237e-10
-2.95929813264e-08
-2.59626516516e-09
-1.84768131446e-13
-4.92562255468e-10
-3.10685605519e-08
-3.00693475356e-09
-5.71731591382e-10
-3.23818781799e-08
-3.40239453269e-09
-5.56159234399e-10
-3.34634846848e-08
-3.76037510827e-09
-4.60433140346e-10
-3.43064363262e-08
-4.06108364366e-09
-3.02824099776e-10
-3.491290069e-08
-4.28858711451e-09
-1.06251093063e-10
-3.5290051275e-08
-4.43174772871e-09
1.03275251115e-10
-3.54308656097e-08
-4.48226985773e-09
2.99863052053e-10
-3.52900265473e-08
-4.43166454119e-09
4.57517337193e-10
-3.49128467585e-08
-4.28843039895e-09
5.53338931503e-10
-3.43063426374e-08
-4.06087137135e-09
5.6907354619e-10
-3.34633487695e-08
-3.76014155716e-09
4.90143572919e-10
-3.23817129055e-08
-3.40220038722e-09
3.06865490895e-10
-3.10684896531e-08
-3.0068835077e-09
-2.95933078554e-08
-2.59649388827e-09
-1.65578976334e-12
-3.99179950102e-10
-3.27231321963e-08
-3.88532241507e-09
-2.34026004399e-13
-6.35972524337e-10
-3.42686954594e-08
-4.44434988669e-09
-7.42593661183e-10
-3.56003435578e-08
-4.97151000053e-09
-7.26941228838e-10
-3.66887536252e-08
-5.44164686374e-09
-6.04632417236e-10
-3.75325133105e-08
-5.83214003666e-09
-3.98691413494e-10
-3.8138033975e-08
-6.12513647294e-09
-1.3977654007e-10
-3.85145360459e-08
-6.30859318792e-09
1.36789771347e-10
-3.86556226566e-08
-6.37329021686e-09
3.95721712887e-10
-3.85145488769e-08
-6.30851577499e-09
6.01710080169e-10
-3.81380547519e-08
-6.12499096862e-09
7.2411258378e-10
-3.75325318899e-08
-5.83194253335e-09
7.39919758052e-10
-3.66887626262e-08
-5.44142820285e-09
6.33525792513e-10
-3.56003424215e-08
-4.97132656519e-09
3.97079714491e-10
-3.4268785732e-08
-4.44430331095e-09
-3.27235788595e-08
-3.8855563157e-09
-1.7914708322e-12
-4.77405637363e-10
-3.42802837355e-08
-4.94742364206e-09
-2.68562720034e-13
-7.66872793988e-10
-3.58158451311e-08
-5.61023184354e-09
-8.99239261966e-10
-3.71015940716e-08
-6.22589601584e-09
-8.83059699699e-10
-3.81465439633e-08
-6.76954169375e-09
-7.35850106806e-10
-3.89547794706e-08
-7.21791045916e-09
-4.85605236496e-10
-3.95346989103e-08
-7.55265334417e-09
-1.70100146634e-10
-3.989557889e-08
-7.76160902079e-09
1.67145436443e-10
-4.00311337181e-08
-7.83524002439e-09
4.82670782736e-10
-3.98956277112e-08
-7.76154126517e-09
7.32965630704e-10
-3.95347918646e-08
-7.55252654268e-09
8.80267225331e-10
-3.8954903887e-08
-7.21773807658e-09
8.96591977651e-10
-3.81466868239e-08
-6.76934999955e-09
7.64436666149e-10
-3.71017416596e-08
-6.22573401177e-09
4.75287174959e-10
-3.58160854058e-08
-5.61019293956e-09
-3.42808424175e-08
-4.94764764804e-09
-1.88995549035e-12
-5.44156240911e-10
-3.45540373877e-08
-5.73141854507e-09
-2.86551592222e-13
-8.83898502648e-10
-3.60241167183e-08
-6.46438151194e-09
-1.03991095906e-09
-3.72290510376e-08
-7.13891998118e-09
-1.02291143163e-09
-3.82032969763e-08
-7.73125796499e-09
-8.52910748781e-10
-3.89567745149e-08
-8.21800868867e-09
-5.62879548644e-10
-3.94980298824e-08
-8.58050174373e-09
-1.97013476903e-10
-3.98351754332e-08
-8.80638546614e-09
1.94081933973e-10
-3.99618745317e-08
-8.8858731864e-09
5.59970753282e-10
-3.98352644101e-08
-8.80632759457e-09
8.50053954993e-10
-3.9498202401e-08
-8.58039371479e-09
1.02014432065e-09
-3.89570155886e-08
-8.21786181922e-09
1.0372794595e-09
-3.82035882132e-08
-7.7310940608e-09
8.81460852892e-10
-3.7229366622e-08
-7.13878030049e-09
5.42009545421e-10
-3.60245220575e-08
-6.46434976424e-09
-3.45547087003e-08
-5.73162615453e-09
-1.97268341281e-12
-6.02582048129e-10
-3.38146294215e-08
-6.25351399275e-09
-2.87010936479e-13
-9.89087222607e-10
-3.51793374066e-08
-7.03624071076e-09
-1.1668904174e-09
-3.62835960081e-08
-7.75295268688e-09
-1.14899351453e-09
-3.71715007053e-08
-8.38059426856e-09
-9.58155904365e-10
-3.78591940433e-08
-8.89547921215e-09
-6.3218447408e-10
-3.83540869556e-08
-9.27846116539e-09
-2.21125062532e-10
-3.86625245372e-08
-9.51680736584e-09
2.18191689103e-10
-3.8778244113e-08
-9.60048899409e-09
6.29275337779e-10
-3.86626515619e-08
-9.51675866127e-09
9.55299584837e-10
-3.83543345925e-08
-9.2783705758e-09
1.146223717e-09
-3.78595450242e-08
-8.8953561414e-09
1.16424781108e-09
-3.71719301442e-08
-8.38045645887e-09
9.866242509e-10
-3.6284070812e-08
-7.75283429539e-09
6.00390294168e-10
-3.51799061456e-08
-7.03621649965e-09
-3.3815429913e-08
-6.25370528287e-09
-2.04808918103e-12
-6.56159463109e-10
-3.22900862172e-08
-6.55245924655e-09
-2.76136798456e-13
-1.08578004727e-09
-3.35199079845e-08
-7.37334025235e-09
-1.28398673642e-09
-3.45106686625e-08
-8.12292322911e-09
-1.26513716766e-09
-3.53027921745e-08
-8.77833765287e-09
-1.05487612741e-09
-3.59181306862e-08
-9.31543644277e-09
-6.95735153378e-10
-3.63619327715e-08
-9.71458130092e-09
-2.43215917169e-10
-3.66384767852e-08
-9.962639539e-09
2.40251819449e-10
-3.67418264562e-08
-1.00494466724e-08
6.92796098516e-10
-3.66386416722e-08
-9.96259965027e-09
1.05199007891e-09
-3.63622549497e-08
-9.7145075095e-09
1.26233516975e-09
-3.59185915099e-08
-9.31533639189e-09
1.28130513577e-09
-3.53033613343e-08
-8.77822536867e-09
1.08326761286e-09
-3.45113053303e-08
-8.12282651439e-09
6.53902851751e-10
-3.35206462152e-08
-7.37332623938e-09
-3.22910201344e-08
-6.55263861306e-09
-2.12011847325e-12
-7.07569752251e-10
-3.0167559817e-08
-6.66641680892e-09
-2.54248477411e-13
-1.17733628851e-09
-3.12411460124e-08
-7.51810061377e-09
-1.39507054474e-09
-3.21097302993e-08
-8.29432024236e-09
-1.37502596452e-09
-3.28014196942e-08
-8.97208880876e-09
-1.14603524216e-09
-3.33414496526e-08
-9.52684577937e-09
-7.55438712993e-10
-3.37319082886e-08
-9.93865188304e-09
-2.63944561249e-10
-3.39749007114e-08
-1.01941247076e-08
2.60916627448e-10
-3.40651145473e-08
-1.02831552451e-08
7.52436567589e-10
-3.39750999864e-08
-1.01940938692e-08
1.14308636866e-09
-3.37322993494e-08
-9.93859542848e-09
1.37216062956e-09
-3.3342011354e-08
-9.52676972529e-09
1.3923227941e-09
-3.28021197681e-08
-8.97200373944e-09
1.1747520534e-09
-3.21105228148e-08
-8.29424814947e-09
7.05233043984e-10
-3.12420530004e-08
-7.51810206949e-09
-3.01686433077e-08
-6.66659169957e-09
-2.19376500395e-12
-7.58516885016e-10
-2.76024229299e-08
-6.62548542558e-09
-2.27625899407e-13
-1.26684370648e-09
-2.8505270054e-08
-7.50223266664e-09
-1.5036885522e-09
-2.92470819359e-08
-8.29983525238e-09
-1.48176339914e-09
-2.98388393188e-08
-8.9950710269e-09
-1.23391473255e-09
-3.03043511776e-08
-9.56318125187e-09
-8.12677099153e-10
-3.06416706898e-08
-9.98425399059e-09
-2.83773522996e-10
-3.08509404914e-08
-1.02448975025e-08
2.80644844394e-10
-3.09278567197e-08
-1.03352815911e-08
8.09574868089e-10
-3.08511706179e-08
-1.02448764196e-08
1.23086770181e-09
-3.06421229238e-08
-9.98421640169e-09
1.47880161017e-09
-3.03050061153e-08
-9.56313176571e-09
1.50084676835e-09
-2.98396608884e-08
-8.9950170381e-09
1.26416581384e-09
-2.92480223537e-08
-8.29979319571e-09
7.56083116302e-10
-2.85063382036e-08
-7.50225697691e-09
-2.76036498854e-08
-6.62566529438e-09
-2.27418962264e-12
-8.09999741701e-10
-2.47270957094e-08
-6.4515953446e-09
-1.95816731567e-13
-1.35759237845e-09
-2.54496575183e-08
-7.34828251025e-09
-1.61318521519e-09
-2.60660187294e-08
-8.16242213346e-09
-1.58773216466e-09
-2.65643372243e-08
-8.87041761167e-09
-1.3199718619e-09
-2.69597669862e-08
-9.44764497146e-09
-8.68228735079e-10
-2.72463059179e-08
-9.87462729258e-09
-3.02951496709e-10
-2.74230004704e-08
-1.0138232814e-08
2.99681137818e-10
-2.74869833781e-08
-1.02291269726e-08
8.64986192448e-10
-2.7423256994e-08
-1.0138222435e-08
1.316787119e-09
-2.72468122455e-08
-9.87461067619e-09
1.58463896502e-09
-2.69605015774e-08
-9.44762566704e-09
1.61022008279e-09
-2.65652677552e-08
-8.87040019305e-09
1.35480031419e-09
-2.60670963429e-08
-8.162417411e-09
8.07456901248e-10
-2.54508783144e-08
-7.34833807438e-09
-2.47284589362e-08
-6.45178988861e-09
-2.36279473479e-12
-8.64728585085e-10
-2.16554399739e-08
-6.16061395278e-09
-1.63602534393e-13
-1.45521459704e-09
-2.21922249613e-08
-7.07279552643e-09
-1.726954052e-09
-2.26950232572e-08
-7.89913459482e-09
-1.69414201696e-09
-2.31120961185e-08
-8.61541610814e-09
-1.40440947983e-09
-2.34441790819e-08
-9.19768170619e-09
-9.22036744779e-10
-2.36835980005e-08
-9.62735670979e-09
-3.21434090531e-10
-2.38297637015e-08
-9.89182678033e-09
3.17978664667e-10
-2.38816061475e-08
-9.98243956406e-09
9.18610594336e-10
-2.38300413644e-08
-9.8918279803e-09
1.4010476575e-09
-2.36841453678e-08
-9.62736312257e-09
1.69087982243e-09
-2.34449817711e-08
-9.19769638488e-09
1.72383483382e-09
-2.3113120088e-08
-8.61544145586e-09
1.45228721548e-09
-2.26962220115e-08
-7.89917562671e-09
8.62067138215e-10
-2.21935868626e-08
-7.07289043689e-09
-2.16569260968e-08
-6.16082930786e-09
-2.44310522503e-12
-9.37679038272e-10
-1.84744583759e-08
-5.76440429219e-09
-1.22873801857e-13
-1.57215360959e-09
-1.88399688327e-08
-6.68921711467e-09
-1.84931846307e-09
-1.92566465482e-08
-7.52401430957e-09
-1.80175376811e-09
-1.96056148674e-08
-8.24431691326e-09
-1.48712800492e-09
-1.98804771831e-08
-8.82776909321e-09
-9.73953101339e-10
-2.00766342656e-08
-9.25715722896e-09
-3.39182375947e-10
-2.01949425696e-08
-9.52057664129e-09
3.35498531612e-10
-2.02357586655e-08
-9.61019258765e-09
9.70302776454e-10
-2.01952336923e-08
-9.52058973049e-09
1.4835470242e-09
-2.00772117863e-08
-9.25718769219e-09
1.79828714501e-09
-1.98813254926e-08
-8.82782018723e-09
1.84601487256e-09
-1.96067096593e-08
-8.24439018202e-09
1.56906593911e-09
-1.92579498565e-08
-7.52410956222e-09
9.34885400677e-10
-1.88414626096e-08
-6.68935924902e-09
-1.84760575458e-08
-5.76464040502e-09
-2.53877226238e-12
-1.0771829857e-09
-5.27056324556e-09
-8.35075116719e-14
-1.52152349448e-08
-1.73128976406e-09
-6.2088510726e-09
-1.55140365033e-08
-1.99668535241e-09
-7.04826906063e-09
-1.58687233377e-08
-1.92651786704e-09
-7.76879956364e-09
-1.61571581631e-08
-1.58236984377e-09
-8.35036434866e-09
-1.63807734476e-08
-1.03381354219e-09
-8.77723257538e-09
-1.65397434025e-08
-3.59677556597e-10
-9.0382049543e-09
-1.66348388875e-08
3.55726265722e-10
-9.12630009646e-09
-1.66665624958e-08
1.02990019021e-09
-9.03822854387e-09
-1.66351367903e-08
1.57853672308e-09
-8.77728461337e-09
-1.65403370815e-08
1.92281302214e-09
-8.35044881237e-09
-1.63816529946e-08
1.99316403106e-09
-7.76891896108e-09
-1.61583064171e-08
1.72801917087e-09
-7.04842023196e-09
-1.58701084615e-08
1.07424191425e-09
-6.20905430854e-09
-1.55156443293e-08
-5.27079943076e-09
-2.65550111475e-12
-1.52169460937e-08
-2.71454474823e-11
1.11055680965e-09
-8.01764633763e-10
-1.4940278796e-13
-4.34673128668e-11
1.2254007388e-09
-8.90960372494e-10
-5.00897162907e-11
1.3359116164e-09
-9.75217089552e-10
-4.91748871175e-11
1.43712115466e-09
-1.05088446989e-09
-4.10940458389e-11
1.52152002135e-09
-1.11418168834e-09
-2.71959996737e-11
1.58514625226e-09
-1.16197270961e-09
-9.4394705413e-12
1.62523294518e-09
-1.19216319375e-09
9.68355977083e-12
1.63962525847e-09
-1.2030140678e-09
2.74363625918e-11
1.62530251576e-09
-1.19215812872e-09
4.13369551978e-11
1.58529676852e-09
-1.16196319673e-09
4.94405603367e-11
1.52176025641e-09
-1.11416852451e-09
5.04067604089e-11
1.43743967822e-09
-1.05086958211e-09
4.38438227819e-11
1.33625779012e-09
-9.75204704524e-10
2.75519741208e-11
1.22571637823e-09
-8.90960451992e-10
1.11078480075e-09
-8.01802227156e-10
2.01840488545e-13
-4.36261870215e-11
3.02979512174e-09
-2.03500041099e-09
-4.25466125621e-13
-6.94587186714e-11
3.29519841722e-09
-2.25439898497e-09
-8.06183081671e-11
3.54483355176e-09
-2.46038033788e-09
-7.89717200938e-11
3.76742776698e-09
-2.64433134726e-09
-6.58680996282e-11
3.95011791371e-09
-2.79754853752e-09
-4.35129973384e-11
4.08591565618e-09
-2.91287449494e-09
-1.50739725955e-11
4.17090789932e-09
-2.98558644129e-09
1.55546945851e-11
4.20156155163e-09
-3.01168547145e-09
4.39994358028e-11
4.17109197896e-09
-2.98557061797e-09
6.63863529042e-11
4.08630523629e-09
-2.91284512287e-09
7.9575888361e-11
3.95072851494e-09
-2.7975079337e-09
8.13731534627e-11
3.76823065684e-09
-2.64428503887e-09
7.03807046112e-11
3.54571465921e-09
-2.46034018554e-09
4.46319740282e-11
3.29601056662e-09
-2.25439262193e-09
3.0304025632e-09
-2.03508615383e-09
4.71357595072e-13
-3.754426576e-11
4.85382557714e-09
-3.03877496571e-09
-5.76291302588e-13
-5.80324039323e-11
5.20292849077e-09
-3.36625014457e-09
-6.73896964978e-11
5.52451932882e-09
-3.67265090245e-09
-6.5944113084e-11
5.80315541594e-09
-3.94550473936e-09
-5.49987285914e-11
6.02747125652e-09
-4.17226882301e-09
-3.6331944741e-11
6.19155033395e-09
-4.34266437038e-09
-1.2544921131e-11
6.29350749845e-09
-4.44990703914e-09
1.31570606399e-11
6.33056432974e-09
-4.48829016439e-09
3.69644981657e-11
6.29379446821e-09
-4.44988274359e-09
5.56931439329e-11
6.19214000032e-09
-4.34261869744e-09
6.67698504801e-11
6.02836542603e-09
-4.17220521292e-09
6.84207127392e-11
5.80430156907e-09
-3.94543145428e-09
5.92825060448e-11
5.52577635319e-09
-3.6725853199e-09
3.88974166292e-11
5.20411377203e-09
-3.36623167189e-09
4.85478605267e-09
-3.03888380573e-09
6.45173403423e-13
-1.97748076869e-11
6.16433773277e-09
-3.88665962718e-09
-6.83792437005e-13
-2.8534476929e-11
6.51386614169e-09
-4.30959678336e-09
-3.35112057193e-11
6.83069962167e-09
-4.70411781053e-09
-3.33198696483e-11
7.09674981131e-09
-5.05460755335e-09
-2.82058435277e-11
7.30629510024e-09
-5.34535347681e-09
-1.8835250377e-11
7.45687936241e-09
-5.56351266732e-09
-6.47926459405e-12
7.54983996763e-09
-5.70059133046e-09
7.11193941137e-12
7.58409787396e-09
-5.74950770861e-09
1.95053778503e-11
7.55020467311e-09
-5.70056057705e-09
2.89686082392e-11
7.45761974768e-09
-5.56345428944e-09
3.42528045241e-11
7.3074050884e-09
-5.34527155649e-09
3.46892751635e-11
7.09816224307e-09
-5.05451195067e-09
2.99655615459e-11
6.83225785072e-09
-4.70402889413e-09
2.13288807294e-11
6.51536120041e-09
-4.30955968795e-09
6.16558765286e-09
-3.88676464403e-09
7.35727195419e-13
2.37881388214e-12
6.86067695429e-09
-4.58359661153e-09
-7.54182602568e-13
5.77177918747e-12
7.15591870546e-09
-5.09018821776e-09
5.16060992283e-12
7.42085793138e-09
-5.56145713816e-09
3.39201396373e-12
7.63581849768e-09
-5.9792920072e-09
1.64056371293e-12
7.80102897306e-09
-6.32538264326e-09
5.24432905049e-13
7.91743919779e-09
-6.58476717957e-09
1.99868663098e-13
7.98894626448e-09
-6.74750534376e-09
4.01300298349e-13
8.01590883462e-09
-6.80540016641e-09
1.29666831158e-13
7.98935357269e-09
-6.74747079588e-09
-8.67959369943e-13
7.918258063e-09
-6.58470068586e-09
-2.42213976905e-12
7.80224047507e-09
-6.32528827611e-09
-3.92327792459e-12
7.6373528081e-09
-5.97918011424e-09
-4.26625035577e-12
7.42256338882e-09
-5.5613487005e-09
-7.3613618802e-13
7.15760085842e-09
-5.09012984644e-09
6.86215425037e-09
-4.58367976289e-09
7.71600446337e-13
2.45897485168e-11
7.02639732588e-09
-5.13722111449e-09
-7.91073848757e-13
3.82691143476e-11
7.24874915496e-09
-5.71709522258e-09
4.12465870077e-11
7.44690365535e-09
-6.25528679565e-09
3.73599696167e-11
7.60150963082e-09
-6.73166277419e-09
2.91093524942e-11
7.71689515194e-09
-7.12576891892e-09
1.82833392201e-11
7.79630242445e-09
-7.42086495874e-09
6.31379125321e-12
7.84493651405e-09
-7.60575508304e-09
-5.75858815588e-12
7.86396560662e-09
-7.67131922046e-09
-1.7664139278e-11
7.84535911988e-09
-7.60571761122e-09
-2.83557673333e-11
7.79714758818e-09
-7.42079204966e-09
-3.63944898443e-11
7.71814257242e-09
-7.12566465128e-09
-4.00069056648e-11
7.60309137213e-09
-6.73153691963e-09
-3.67579552778e-11
7.44868160165e-09
-6.25515914534e-09
-2.29316910892e-11
7.2505408045e-09
-5.71701146486e-09
7.02802109547e-09
-5.13727194487e-09
7.73098987221e-13
4.45104495825e-11
6.80752918282e-09
-5.55650991128e-09
-8.01283458456e-13
6.64436737423e-11
6.96278780004e-09
-6.20063746452e-09
7.23002252525e-11
7.09904098939e-09
-6.79719812295e-09
6.65170933736e-11
7.20021238273e-09
-7.32442046208e-09
5.26623105369e-11
7.27264598812e-09
-7.76009638766e-09
3.35042251034e-11
7.32083426415e-09
-8.08601866489e-09
1.15554804737e-11
7.35031698893e-09
-8.28992487426e-09
-1.1036868142e-11
7.36258017173e-09
-8.3619775236e-09
-3.29155115189e-11
7.35072832357e-09
-8.28988574031e-09
-5.19318529478e-11
7.32165345015e-09
-8.08594219176e-09
-6.55725919e-11
7.27385190897e-09
-7.75998599845e-09
-7.10883043654e-11
7.20174450075e-09
-7.32428454772e-09
-6.49695502241e-11
7.1007869604e-09
-6.79705403062e-09
-4.28882202184e-11
6.96459124147e-09
-6.20052878921e-09
6.80923617474e-09
-5.55652524746e-09
7.55950421924e-13
6.11081874532e-11
6.34325328745e-09
-5.84976991272e-09
-7.88034301224e-13
8.97818917746e-11
6.44749435074e-09
-6.54986446945e-09
9.8029803535e-11
6.53443872108e-09
-7.19684380129e-09
9.07137512833e-11
6.59439401459e-09
-7.7676752497e-09
7.2228368273e-11
6.63427144702e-09
-8.23879050658e-09
4.61587332575e-11
6.65916215583e-09
-8.59085040593e-09
1.59204725949e-11
6.67439514246e-09
-8.81074708726e-09
-1.54191447351e-11
6.68150303851e-09
-8.88814990656e-09
-4.55859791549e-11
6.67478045141e-09
-8.81070785629e-09
-7.15146980707e-11
6.65992868753e-09
-8.59077332498e-09
-8.97940727607e-11
6.63540016637e-09
-8.23867801728e-09
-9.68582321823e-11
6.59583564077e-09
-7.76753375846e-09
-8.83660967251e-11
6.53610048167e-09
-7.19668746995e-09
-5.95473332469e-11
6.44924838054e-09
-6.54973443465e-09
6.34496209175e-09
-5.84975175567e-09
7.29193812656e-13
7.41548042189e-11
5.74093279582e-09
-6.02372449865e-09
-7.59838970962e-13
1.08537232621e-10
5.81133004216e-09
-6.77175410495e-09
1.18861313909e-10
5.86236690841e-09
-7.4613667338e-09
1.10396310045e-10
5.89302246815e-09
-8.06866752328e-09
8.81764457012e-11
5.91005116359e-09
-8.56913252728e-09
5.64853850599e-11
5.9188114775e-09
-8.94264835143e-09
1.94908546874e-11
5.92417352213e-09
-9.17550901722e-09
-1.89847215617e-11
5.92759074127e-09
-9.25712812079e-09
-5.59099635212e-11
5.9245204965e-09
-9.17547135677e-09
-8.7467214792e-11
5.91950119519e-09
-8.94257387643e-09
-1.09496105722e-10
5.91106754547e-09
-8.5690224722e-09
-1.17732796658e-10
5.89432777668e-09
-8.0685259285e-09
-1.07188352517e-10
5.86389242914e-09
-7.4612042341e-09
-7.2672456132e-11
5.812976067e-09
-6.77160947529e-09
5.74259623316e-09
-6.02367936381e-09
7.01280152342e-13
8.39191529355e-11
5.07482812322e-09
-6.08366883833e-09
-7.18057695279e-13
1.23236138543e-10
5.12542027208e-09
-6.8716649777e-09
1.35425059255e-10
5.15191447608e-09
-7.59621250513e-09
1.26175701351e-10
5.1629769591e-09
-8.23293266097e-09
1.01009896056e-10
5.16498253859e-09
-8.7567279552e-09
6.48121809875e-11
5.16332983499e-09
-9.14706646095e-09
2.23783297714e-11
5.16230358439e-09
-9.38989772937e-09
-2.18493361739e-11
5.16321796909e-09
-9.47461637124e-09
-6.42187565733e-11
5.1626072632e-09
-9.38986347329e-09
-1.00294325343e-10
5.16393317869e-09
-9.14699822171e-09
-1.2528890871e-10
5.16587430587e-09
-8.75662567958e-09
-1.34337032268e-10
5.16412865295e-09
-8.23279787012e-09
-1.21955641399e-10
5.15327636173e-09
-7.59605220769e-09
-8.25187907541e-11
5.12691934066e-09
-6.87151582921e-09
5.07638426054e-09
-6.08360733731e-09
6.73073228477e-13
9.09133447474e-11
4.3930584042e-09
-6.034097713e-09
-6.71175055578e-13
1.34513215278e-10
4.4336846591e-09
-6.85422401755e-09
1.48449765502e-10
4.44429954574e-09
-7.60627922862e-09
1.38773640895e-10
4.44313137558e-09
-8.26565868555e-09
1.11340385801e-10
4.43615420066e-09
-8.80701184365e-09
7.15447761259e-11
4.42851943734e-09
-9.20972726502e-09
2.47234997416e-11
4.42382125789e-09
-9.45965887616e-09
-2.41591990356e-11
4.42317331435e-09
-9.54640908293e-09
-7.09229725756e-11
4.42407834536e-09
-9.45963004032e-09
-1.10610550556e-10
4.42903113123e-09
-9.20966936287e-09
-1.37895741186e-10
4.43691168482e-09
-8.80692363236e-09
-1.47399983695e-10
4.44411763248e-09
-8.26553921808e-09
-1.33300356244e-10
4.44548146033e-09
-7.60613188702e-09
-8.95986632016e-11
4.43501145981e-09
-6.8540834512e-09
4.39447990669e-09
-6.03403413375e-09
6.47875491954e-13
9.56896292476e-11
3.72559322709e-09
-5.87931318104e-09
-6.18767095901e-13
1.43084620693e-10
3.76202735519e-09
-6.72411865647e-09
1.58836975093e-10
3.76287639592e-09
-7.49684615926e-09
1.49116601635e-10
3.75500877631e-09
-8.17266047284e-09
1.1995580545e-10
3.74381703229e-09
-8.72622134101e-09
7.72079912397e-11
3.73376283988e-09
-9.13718002695e-09
2.6706436843e-11
3.72757991818e-09
-9.39154272486e-09
-2.61017038945e-11
3.72614688283e-09
-9.47933266331e-09
-7.65536932126e-11
3.72779015793e-09
-9.39152146646e-09
-1.19210112889e-10
3.73418158593e-09
-9.1371369747e-09
-1.48246287718e-10
3.74444208333e-09
-8.72615439796e-09
-1.57824547866e-10
3.75582931288e-09
-8.17256648658e-09
-1.41939067679e-10
3.76387254994e-09
-7.49672476454e-09
-9.44590213915e-11
3.76316886786e-09
-6.72400200014e-09
3.72684498774e-09
-5.87926439885e-09
6.22766294336e-13
9.88249655823e-11
3.09041687686e-09
-5.62379846146e-09
-5.69518477872e-13
1.50068464091e-10
3.12460940132e-09
-6.48670223162e-09
1.68063817043e-10
3.11989007642e-09
-7.27422090992e-09
1.58658865343e-10
3.10985782651e-09
-7.96092452748e-09
1.28036671091e-10
3.09853795154e-09
-8.52183183806e-09
8.25531965617e-11
3.08909899409e-09
-8.93726022224e-09
2.85861948563e-11
3.08330750963e-09
-9.19361951738e-09
-2.7942991917e-11
3.08174660949e-09
-9.28154639162e-09
-8.18694300191e-11
3.08347274331e-09
-9.19360794052e-09
-1.27277040509e-10
3.0894303816e-09
-8.9372365839e-09
-1.57799215831e-10
3.09903366034e-09
-8.52179382471e-09
-1.67090880954e-10
3.11051779707e-09
-7.96086742623e-09
-1.48990175339e-10
3.12070931806e-09
-7.27414026303e-09
-9.76816135965e-11
3.12556921729e-09
-6.48662554043e-09
3.09149854239e-09
-5.62378056685e-09
5.94846044943e-13
1.01249373239e-10
2.49753969179e-09
-5.2723447593e-09
-5.17229268244e-13
1.57697930338e-10
2.52759105125e-09
-6.14870989903e-09
1.78822771075e-10
2.52096330489e-09
-6.94626667491e-09
1.69813941503e-10
2.51332883358e-09
-7.63883553129e-09
1.37415460743e-10
2.50573174984e-09
-8.20261342048e-09
8.87308120241e-11
2.49965274078e-09
-8.61905884095e-09
3.07430270518e-11
2.49588689731e-09
-8.87520548409e-09
-3.00696753139e-11
2.49479866073e-09
-8.96245485832e-09
-8.8024797666e-11
2.49601180825e-09
-8.87520521355e-09
-1.36650504965e-10
2.49990562772e-09
-8.61905832591e-09
-1.68968948493e-10
2.50611558132e-09
-8.20261116343e-09
-1.77887874715e-10
2.51384732375e-09
-7.63882671994e-09
-1.56684511692e-10
2.52161491359e-09
-6.9462429601e-09
-1.00188636276e-10
2.52838226414e-09
-6.14868910456e-09
2.49845650191e-09
-5.27236889681e-09
5.61523595216e-13
9.81754226129e-11
-4.83270254702e-09
-4.65957284435e-13
1.96189733868e-09
1.67486229711e-10
-5.7220221319e-09
1.97140026215e-09
1.93557052214e-10
-6.5240769896e-09
1.97064644316e-09
1.85002473863e-10
-7.21685386234e-09
1.96989835004e-09
1.50203577955e-10
-7.77871180092e-09
1.96883769997e-09
9.71813579607e-11
-8.19259780105e-09
1.96800085197e-09
3.37018781019e-11
-8.4462898511e-09
1.96742308222e-09
-3.30092248654e-11
-8.53205015637e-09
1.9672294875e-09
-9.64616698352e-11
-8.44630089206e-09
1.96751806378e-09
-1.49437685037e-10
-8.1926208e-09
1.9681904931e-09
-1.84173936303e-10
-7.77874711175e-09
1.96912801179e-09
-1.92661557891e-10
-7.21689908218e-09
1.97029278546e-09
-1.66525840399e-10
-6.52412174099e-09
1.97115944952e-09
-9.71795730983e-11
-5.72208042012e-09
1.9720416029e-09
-4.83275817628e-09
5.35049173333e-13
1.96268212308e-09
1.90463760713e-11
-2.25962979641e-10
-5.94890382856e-10
-1.26671303591e-13
3.00964644038e-11
-2.51011811078e-10
-6.51207227079e-10
3.51860123909e-11
-2.77110124055e-10
-7.03431745986e-10
3.46485893458e-11
-3.00848649943e-10
-7.49706182092e-10
2.89725367539e-11
-3.2071056186e-10
-7.8800073475e-10
1.91451192458e-11
-3.35645867813e-10
-8.16681313953e-10
6.5861622e-12
-3.45014933323e-10
-8.34725158353e-10
-6.9475393868e-12
-3.48332503368e-10
-8.41241379458e-10
-1.9478270581e-11
-3.4496663399e-10
-8.34724893571e-10
-2.92530084236e-11
-3.3555568161e-10
-8.16680481457e-10
-3.48653402206e-11
-3.20594980823e-10
-7.87999306576e-10
-3.53438588177e-11
-3.00720451267e-10
-7.49704764504e-10
-3.01893584118e-11
-2.76957524043e-10
-7.03432897306e-10
-1.90886029924e-11
-2.50871147334e-10
-6.51219927714e-10
-2.25855109972e-10
-5.94940013955e-10
-1.23870436023e-13
4.26287110075e-11
-4.89787254247e-10
-1.8137593555e-09
-3.27878097756e-13
6.93816256001e-11
-5.37321777616e-10
-1.99521755446e-09
8.18896828571e-11
-5.85979621085e-10
-2.16442601266e-09
8.08964053769e-11
-6.29691344797e-10
-2.31486713455e-09
6.77009884632e-11
-6.6567551011e-10
-2.43973069476e-09
4.47285289687e-11
-6.92381524742e-10
-2.53345516714e-09
1.53605670133e-11
-7.09018999567e-10
-2.59242881337e-09
-1.62750279741e-11
-7.1492447662e-10
-2.61360815204e-09
-4.55764502905e-11
-7.08912107501e-10
-2.59242856263e-09
-6.84256393166e-11
-6.9217693405e-10
-2.53345326647e-09
-8.14681670475e-11
-6.6539735938e-10
-2.43972684685e-09
-8.23073000163e-11
-6.2935972464e-10
-2.31486293852e-09
-6.96377158717e-11
-5.85589996962e-10
-2.1644289372e-09
-4.2744434057e-11
-5.36952080491e-10
-1.99525281815e-09
-4.89512764435e-10
-1.81388603192e-09
-3.30478779072e-13
5.49321273141e-11
-6.82773722669e-10
-2.90052946943e-09
-4.28713869463e-13
9.06071050498e-11
-7.41239490545e-10
-3.19828775229e-09
1.07393558978e-10
-7.99957267158e-10
-3.47575007646e-09
1.06146205765e-10
-8.52042725173e-10
-3.72219433861e-09
8.87720223359e-11
-8.94256096454e-10
-3.92658786907e-09
5.85901624449e-11
-9.25174179803e-10
-4.07992370564e-09
2.0085064351e-11
-9.44287133782e-10
-4.17631003917e-09
-2.13584469062e-11
-9.51080346574e-10
-4.21081609809e-09
-5.97797016501e-11
-9.44153468759e-10
-4.17630941734e-09
-8.98061302448e-11
-9.24916804264e-10
-4.07992037632e-09
-1.06982336098e-10
-8.93901315711e-10
-3.92658113051e-09
-1.08019690806e-10
-8.5161750057e-10
-3.72218645242e-09
-9.10177559529e-11
-7.99471328296e-10
-3.47575209087e-09
-5.51462346616e-11
-7.40762668804e-10
-3.19833555426e-09
-6.82395594082e-10
-2.90070417223e-09
-4.82739485959e-13
5.95811554717e-11
-8.12184067637e-10
-3.81656161458e-09
-4.83614175149e-13
9.90736793739e-11
-8.73787203338e-10
-4.2168141525e-09
1.17806455252e-10
-9.34017232589e-10
-4.58908575781e-09
1.16484631561e-10
-9.8639864939e-10
-4.91921370242e-09
9.73551878599e-11
-1.02805307768e-09
-5.19268348766e-09
6.41918039613e-11
-1.05808280977e-09
-5.39765258427e-09
2.19633789878e-11
-1.07647672193e-09
-5.52633461007e-09
-2.34542948977e-11
-1.08302368452e-09
-5.57226295357e-09
-6.55936282542e-11
-1.07632692915e-09
-5.5263328841e-09
-9.85912615867e-11
-1.05779202282e-09
-5.39764663698e-09
-1.17504217427e-10
-1.02764219967e-09
-5.19267231252e-09
-1.1858760556e-10
-9.85894567981e-10
-4.91920000734e-09
-9.96071332961e-11
-9.33442625924e-10
-4.5890826246e-09
-5.98840085999e-11
-8.73223080139e-10
-4.21686277265e-09
-8.11731292772e-10
-3.81675321332e-09
-5.95699380297e-13
5.9227910843e-11
-8.83311860973e-10
-4.57137141306e-09
-5.04586574183e-13
9.91364687078e-11
-9.42434286058e-10
-5.06164034167e-09
1.18211849227e-10
-9.98155097683e-10
-5.5165990727e-09
1.16956552474e-10
-1.04530260314e-09
-5.91933880797e-09