/*--------------------------------*- C++ -*----------------------------------*\
  =========                 |
  \\      /  F ield         | OpenFOAM: The Open Source CFD Toolbox
   \\    /   O peration     | Website:  https://openfoam.org
    \\  /    A nd           | Version:  7
     \\/     M anipulation  |
\*---------------------------------------------------------------------------*/
FoamFile
{
    version     2.0;
    format      ascii;
    class       volVectorField;
    location    "2.14";
    object      U;
}
// * * * * * * * * * * * * * * * * * * * * * * * * * * * * * * * * * * * * * //

dimensions      [0 1 -1 0 0 0 0];

internalField   nonuniform List<vector> 
22500
(
(-4.21219139532e-05 -4.7306276944e-05 0.000292399658085)
(-3.89643830612e-05 -5.42783073689e-05 0.000306949630435)
(-3.44860003554e-05 -6.09962120469e-05 0.000320154785951)
(-2.88540084146e-05 -6.69196943769e-05 0.000331572047788)
(-2.23570277629e-05 -7.17539816971e-05 0.000340903202921)
(-1.52482732812e-05 -7.53133749219e-05 0.000347814858729)
(-7.73529471411e-06 -7.74906012069e-05 0.000352049246572)
(-1.31109524857e-08 -7.82252328668e-05 0.000353470382834)
(7.70914749569e-06 -7.74930771803e-05 0.000352061393424)
(1.52224503883e-05 -7.53182591918e-05 0.000347837734336)
(2.23319908513e-05 -7.17611333537e-05 0.000340934005979)
(2.88302996583e-05 -6.69288593311e-05 0.000331605582312)
(3.44644147261e-05 -6.10070332345e-05 0.000320181873827)
(3.89446790665e-05 -5.42906997044e-05 0.000306955194261)
(4.21079455788e-05 -4.73178852017e-05 0.000292366161522)
(-0.000126482056297 -0.000141110228614 0.0002524873141)
(-0.000116692402501 -0.000161759871265 0.000231347062301)
(-0.000103326396029 -0.000181533627588 0.00020904642096)
(-8.65920067297e-05 -0.000198841354311 0.000188016521023)
(-6.7223649302e-05 -0.000212935838239 0.000169985180197)
(-4.59168729256e-05 -0.000223323587013 0.000156147996701)
(-2.33097308544e-05 -0.000229687504038 0.000147406359537)
(-3.1985732701e-08 -0.000231835168862 0.000144395270617)
(2.32459092261e-05 -0.000229693188211 0.000147440365873)
(4.58537173386e-05 -0.000223334851686 0.000156212025336)
(6.71622014713e-05 -0.00021295239686 0.00017007135691)
(8.65336036761e-05 -0.000198862671386 0.000188109999276)
(0.00010327304408 -0.000181558864228 0.000209120584762)
(0.000116644918769 -0.00016178892275 0.000231357810799)
(0.000126449243033 -0.000141138418384 0.000252382751543)
(-0.0002081157919 -0.000230811369532 -0.000355160950595)
(-0.000191169636104 -0.00026396090191 -0.000454823177952)
(-0.000168982695017 -0.000295066828787 -0.000550389858645)
(-0.000141534684999 -0.000322069998682 -0.000635287847759)
(-0.000109893168147 -0.000343966635914 -0.000705298229862)
(-7.50816338118e-05 -0.000360087142895 -0.000757486664194)
(-3.81171307044e-05 -0.000369962231884 -0.00078973748756)
(-4.09702244843e-08 -0.000373294060292 -0.00080067739507)
(3.80353229765e-05 -0.00036996930897 -0.000789692160901)
(7.50004777034e-05 -0.000360101202058 -0.000757401236052)
(0.000109813840191 -0.000343987350835 -0.000705182891232)
(0.000141458784844 -0.000322096796918 -0.000635162587636)
(0.000168912735711 -0.000295098679853 -0.000550292044163)
(0.000191107455567 -0.000263997852361 -0.000454817962192)
(0.000208072709969 -0.000230848603585 -0.000355330068228)
(-0.000280662614772 -0.000310091482725 -0.00130444325823)
(-0.000256696642913 -0.000352994621573 -0.00148190284617)
(-0.000226227111656 -0.00039238807035 -0.00164482120664)
(-0.000189132483409 -0.000426346842922 -0.00178510896618)
(-0.000146707866789 -0.000453773834804 -0.0018981070027)
(-0.000100179867106 -0.000473941588297 -0.00198085552524)
(-5.08394337827e-05 -0.000486292396124 -0.00203135300676)
(-4.38038945228e-08 -0.000490458457739 -0.00204835611273)
(5.07519770717e-05 -0.000486299978386 -0.00203130736201)
(0.000100093087044 -0.000473956670933 -0.00198076957696)
(0.000146622916393 -0.000453796084693 -0.00189799082261)
(0.000189050960885 -0.000426375695189 -0.00178498316546)
(0.000226151568367 -0.00039242238999 -0.00164472633934)
(0.000256629382011 -0.00035303457098 -0.00148191436007)
(0.000280615298452 -0.000310132909165 -0.00130466438684)
(-0.000340986875243 -0.00037600961603 -0.00235239899238)
(-0.000310709634409 -0.000425501367846 -0.00257913466609)
(-0.000272900719543 -0.00047010425583 -0.00277972021128)
(-0.000227626541322 -0.000508361566322 -0.00294805421813)
(-0.000176308144547 -0.00053918384023 -0.00308106574534)
(-0.000120280939289 -0.000561838754211 -0.00317710207334)
(-6.10046083666e-05 -0.000575713901972 -0.00323514431785)
(-4.39775807771e-08 -0.00058039394756 -0.00325458253683)
(6.09168630456e-05 -0.000575721640542 -0.00323510514051)
(0.000120193999641 -0.00056185413913 -0.00317702870337)
(0.000176223118603 -0.000539206522039 -0.00308096708929)
(0.000227544882476 -0.000508390963509 -0.00294794904971)
(0.000272824727323 -0.000470139228074 -0.00277964727465)
(0.00031064161128 -0.000425542160313 -0.00257917095094)
(0.000340937913443 -0.000376052881643 -0.00235265893786)
(-0.000388812603063 -0.000428511309932 -0.00333616801981)
(-0.000353218447331 -0.000481733276164 -0.00358083328196)
(-0.000309207256804 -0.000529060944165 -0.0037908411475)
(-0.000257311742753 -0.000569511108323 -0.00396373182992)
(-0.000198983948394 -0.000602069077788 -0.00409853316943)
(-0.000135609100869 -0.000626007412934 -0.00419495621532)
(-6.87345724921e-05 -0.000640674973374 -0.00425287220536)
(-4.35228139203e-08 -0.000645623001058 -0.00427220196088)
(6.86478182049e-05 -0.000640682847704 -0.00425284184294)
(0.000135523332226 -0.000626023039952 -0.0041949001135)
(0.000198900233304 -0.000602092076895 -0.00409845906237)
(0.000257231372223 -0.000569540868783 -0.00396365611783)
(0.000309132208646 -0.000529096305486 -0.00379079885206)
(0.000353150828 -0.000481774482979 -0.00358089833898)
(0.000388762654793 -0.000428555630436 -0.00333645811639)
(-0.000425237235064 -0.000468797635963 -0.00418641101826)
(-0.000385347744184 -0.000523362605921 -0.00442819127049)
(-0.000336281603806 -0.000571519940333 -0.00463139541743)
(-0.000279232530365 -0.000612550859428 -0.0047968347266)
(-0.000215599790058 -0.000645579231533 -0.00492498752659)
(-0.000146779403663 -0.000669881242606 -0.00501628305638)
(-7.43488312226e-05 -0.000684780513238 -0.00507097883597)
(-4.31965460203e-08 -0.000689807797108 -0.00508920699144)
(7.42628027554e-05 -0.000684788596776 -0.0050709571618)
(0.000146694532236 -0.000669897259188 -0.00501624411589)
(0.000215517106079 -0.000645602747395 -0.00492493824434)
(0.000279153172839 -0.000612581218993 -0.00479678951007)
(0.000336207210677 -0.000571555958414 -0.00463138557503)
(0.000385280206687 -0.000523404505289 -0.00442828652847)
(0.000425186091877 -0.000468842998914 -0.00418672791787)
(-0.000451747325911 -0.000498365561305 -0.004895898453)
(-0.000408474658467 -0.000552286720539 -0.00512557778126)
(-0.000355412487653 -0.000599774195729 -0.00531645911501)
(-0.000294514471708 -0.000640096632476 -0.00547136201886)
(-0.000227060106025 -0.000672578091907 -0.00559128656383)
(-0.000154423789871 -0.000696499721341 -0.0056767348747)
(-7.81722312865e-05 -0.000711174725841 -0.00572793642451)
(-4.32335302384e-08 -0.000716127405331 -0.00574499918439)
(7.80861879716e-05 -0.000711183128738 -0.00572792261237)
(0.000154339046229 -0.000696516344094 -0.005676711578)
(0.000226977664676 -0.000672602453677 -0.00559126026484)
(0.000294435354904 -0.000640128002264 -0.00547134569356)
(0.000355338063671 -0.000599811358778 -0.00531648106095)
(0.000408406638987 -0.000552329791368 -0.0051257041131)
(0.000451694648522 -0.00049841228741 -0.0048962427855)
(-0.000469725988429 -0.000518577237063 -0.00548484706782)
(-0.000423837037661 -0.000570158874462 -0.00570070589453)
(-0.000367724427898 -0.000615698289324 -0.00587959997416)
(-0.000304114071157 -0.000654218670787 -0.00602514293991)
(-0.000234119697 -0.000685286194764 -0.00613816230624)
(-0.000159063002429 -0.000708190457999 -0.00621887530508)
(-8.04704040761e-05 -0.000722248884582 -0.0062673063996)
(-4.36919879276e-08 -0.000726994242602 -0.00628345498492)
(8.03834899206e-05 -0.000722257681292 -0.00626729982713)
(0.000158977502033 -0.000708207837386 -0.00621886650465)
(0.000234036606081 -0.000685311631996 -0.00613815758972)
(0.000304034326545 -0.0006542513426 -0.00602515430042)
(0.000367649179174 -0.000615736938071 -0.00587965339272)
(0.000423767879467 -0.000570203522878 -0.00570086498197)
(0.000469671408049 -0.000518625646097 -0.00548522213415)
(-0.000480291408756 -0.000530532986334 -0.00597921177647)
(-0.000432424587954 -0.000578287948133 -0.00618286517267)
(-0.00037411161183 -0.00062071871931 -0.00635211906935)
(-0.000308783967044 -0.000656477744913 -0.0064905526025)
(-0.000237365521793 -0.000685372083183 -0.00659846522331)
(-0.000161098018096 -0.000706699389867 -0.00667570977564)
(-8.14466184022e-05 -0.000719794772747 -0.0067221166743)
(-4.4634899597e-08 -0.000724215245103 -0.00673759805159)
(8.13578562673e-05 -0.00071980401528 -0.00672211720939)
(0.00016101076965 -0.000706717642698 -0.00667571529291)
(0.00023728080177 -0.000685398770965 -0.00659848207373)
(0.000308702691431 -0.000656511960715 -0.00649059209779)
(0.00037403476675 -0.000620759131204 -0.00635220529372)
(0.000432353705398 -0.000578334463602 -0.00618306017814)
(0.000480234520765 -0.000530583380964 -0.00597962294478)
(-0.00048431025005 -0.000535101624295 -0.00640125102612)
(-0.000435011389792 -0.000577689155582 -0.00659510057301)
(-0.000375285463576 -0.000615927968145 -0.00675711793723)
(-0.000309123836866 -0.000648088075438 -0.00689033936298)
(-0.000237260175292 -0.000674148391024 -0.00699444979966)
(-0.000160841646621 -0.000693406528593 -0.00706904486301)
(-8.12584348751e-05 -0.00070523112924 -0.00711387361276)
(-4.61196564957e-08 -0.000709221818318 -0.00712882981646)
(8.1166728755e-05 -0.000705240814313 -0.00711388159104)
(0.000160751543451 -0.000693425657146 -0.00706906547531)
(0.000237172735498 -0.000674176359229 -0.0069944896534)
(0.000309040005331 -0.000648123890332 -0.00689040930451)
(0.000375206142644 -0.000615970229984 -0.0067572402404)
(0.000434938059339 -0.000577737627534 -0.00659533611351)
(0.000484250509834 -0.000535154118675 -0.00640170527756)
(-0.000482453584709 -0.000532971402157 -0.00676716266795)
(-0.000432236064292 -0.000569153452087 -0.00695336324871)
(-0.000371853804889 -0.00060221891608 -0.00710998893907)
(-0.000305642813983 -0.000630084597309 -0.00723916263282)
(-0.000234186644244 -0.000652748286197 -0.00734008956781)
(-0.000158548084809 -0.000669502866713 -0.00741233365475)
(-8.00326848873e-05 -0.000679780051285 -0.00745571308615)
(-4.82056260891e-08 -0.000683246010078 -0.00747017999782)
(7.9936823726e-05 -0.000679790130598 -0.00745572916959)
(0.000158453891959 -0.000669522785469 -0.00741237084332)
(0.00023409525783 -0.000652777414043 -0.00734015500934)
(0.00030555527292 -0.000630121893359 -0.00723926697666)
(0.000371771016528 -0.000602262910584 -0.00711015244081)
(0.000432159492082 -0.000569203708413 -0.00695364485489)
(0.000482390281178 -0.000533025736048 -0.00676766709577)
(-0.000475268912412 -0.000524554309812 -0.00708762233537)
(-0.000424734618082 -0.000553256927206 -0.00726810938899)
(-0.000364399066416 -0.000580388774445 -0.00742064229719)
(-0.000298794357121 -0.000603446194628 -0.00754620802241)
(-0.000228465778129 -0.000622241507889 -0.00764396103556)
(-0.000154424155362 -0.000636102789546 -0.00771373209123)
(-7.78716591736e-05 -0.000644579754759 -0.00775554961768)
(-5.09321316812e-08 -0.000647434116645 -0.00776948453652)
(7.77703470477e-05 -0.000644590101594 -0.00775557457037)
(0.000154324562904 -0.000636123231299 -0.00771378761467)
(0.000228369116417 -0.000622271461442 -0.00764405521212)
(0.000298701788686 -0.000603484591709 -0.0075463518299)
(0.000364311631291 -0.000580434095222 -0.0074208538044)
(0.000424653859768 -0.000553308528998 -0.00726844300129)
(0.000475201400363 -0.000524609691594 -0.00708818017368)
(-0.000463625979871 -0.000509978951082 -0.00736887382668)
(-0.000413433492035 -0.000530330435054 -0.00754632122321)
(-0.000353538304963 -0.00055114930748 -0.00769552674077)
(-0.000288990651208 -0.00056906313744 -0.00781722835982)
(-0.000220377517817 -0.000583589770365 -0.00791134588522)
(-0.000148655168751 -0.000594219724321 -0.00797824422599)
(-7.48701952383e-05 -0.000600683311784 -0.00801824139858)
(-5.42959309481e-08 -0.000602854113834 -0.00803155564213)
(7.47621617332e-05 -0.000600693674359 -0.00801827570853)
(0.000148548835667 -0.00059424023122 -0.00797831937681)
(0.000220274168208 -0.000583619889472 -0.00791147131859)
(0.000288891637644 -0.000569101881638 -0.00781741640838)
(0.000353444848304 -0.000551195274054 -0.00769579405429)
(0.000413347394956 -0.000530382726669 -0.00754671471493)
(0.000463552936207 -0.00051003483929 -0.00736948171409)
(-0.000450313871186 -0.000490674020701 -0.00761197762597)
(-0.000400133508069 -0.00050076223546 -0.00779203010632)
(-0.000340370035873 -0.000515443970067 -0.00793771905454)
(-0.000277137912887 -0.000527767356227 -0.00805500120043)
(-0.00021066160776 -0.000537584778129 -0.00814506976748)
(-0.000141780865273 -0.000544666741644 -0.0082088252233)
(-7.13138755678e-05 -0.000548938008983 -0.00824684280214)
(-5.82345049431e-08 -0.000550367681751 -0.00825948217656)
(7.1197928229e-05 -0.00054894794811 -0.00824688566645)
(0.000141666551166 -0.000544686500134 -0.00820891869437)
(0.000210550177067 -0.000537613922128 -0.00814522470971)
(0.000277030784246 -0.000527805175896 -0.00805523245124)
(0.00034026877729 -0.000515489227419 -0.00793804417024)
(0.000400040797602 -0.000500814431349 -0.0077925005019)
(0.000450233128762 -0.000490729486997 -0.00761260712)
(2.45581334188e-06 3.65233066155e-06 -0.000171043636006)
(1.75731192248e-06 4.78289591523e-06 -0.000178656529986)
(1.16744340383e-06 5.60400456516e-06 -0.000185144236396)
(7.42759747261e-07 6.16799858883e-06 -0.000190560996749)
(4.13997449718e-07 6.55172032311e-06 -0.000194855987714)
(2.02625744158e-07 6.78832152585e-06 -0.00019796934946)
(7.84470864248e-08 6.91451723515e-06 -0.000199859301966)
(3.60849223032e-09 6.9543523915e-06 -0.000200499065586)
(-7.13497453034e-08 6.91556402893e-06 -0.000199856035733)
(-1.95747948525e-07 6.79051369133e-06 -0.00019796288029)
(-4.07096335262e-07 6.55527765651e-06 -0.000194846582793)
(-7.35178762625e-07 6.17331016732e-06 -0.000190549472591)
(-1.1585705578e-06 5.6113875847e-06 -0.000185132488892)
(-1.74718743944e-06 4.79238194449e-06 -0.000178648767319)
(-2.44619383665e-06 3.66241694869e-06 -0.0001710502122)
(1.7339811826e-05 2.13302871831e-05 -0.000550203955707)
(1.52761829643e-05 2.60221559486e-05 -0.000577211417591)
(1.29091261757e-05 3.00841145522e-05 -0.000600906617832)
(1.05040762555e-05 3.33744309193e-05 -0.000621062595285)
(7.94419357324e-06 3.594292406e-05 -0.000637286813838)
(5.32531219812e-06 3.77667140007e-05 -0.000649189215339)
(2.67192505663e-06 3.88566249759e-05 -0.000656469291671)
(7.08545124718e-09 3.92204164841e-05 -0.000658931200668)
(-2.65790191714e-06 3.8859778512e-05 -0.00065646021262)
(-5.31145126581e-06 3.77733169056e-05 -0.000649171162375)
(-7.92978570928e-06 3.59535333586e-05 -0.000637260457984)
(-1.04875854234e-05 3.33898369706e-05 -0.000621030150735)
(-1.288906945e-05 3.01047653381e-05 -0.000600873322796)
(-1.52527362215e-05 2.60477091323e-05 -0.000577189131872)
(-1.73169477531e-05 2.13571607875e-05 -0.000550218239423)
(3.68101741553e-05 4.36366481822e-05 -0.000954037450467)
(3.31264872826e-05 5.17149942003e-05 -0.00100237815981)
(2.85184694407e-05 5.89466517743e-05 -0.00104512830083)
(2.35027857956e-05 6.4908716803e-05 -0.00108164619319)
(1.79917024634e-05 6.96109021945e-05 -0.0011111180604)
(1.21682070558e-05 7.29817353644e-05 -0.00113277986241)
(6.13788353693e-06 7.50089860718e-05 -0.00114604061962)
(8.98743130228e-09 7.56872652879e-05 -0.00115051864123)
(-6.11999740588e-06 7.50141101979e-05 -0.00114602616481)
(-1.21503013846e-05 7.29924053488e-05 -0.00113275110714)
(-1.79729108553e-05 6.96278236031e-05 -0.00111107604234)
(-2.34813725893e-05 6.4932662456e-05 -0.00108159429501)
(-2.84927086811e-05 5.89777422033e-05 -0.00104507439115)
(-3.30966033526e-05 5.17521150192e-05 -0.00100233993982)
(-3.67809113811e-05 4.36751336417e-05 -0.000954052158395)
(5.54790899728e-05 6.46439571956e-05 -0.00137338206562)
(4.99127764766e-05 7.49113471445e-05 -0.00144322079891)
(4.29511525822e-05 8.41578389519e-05 -0.00150506291182)
(3.53219020394e-05 9.17311253678e-05 -0.00155790067556)
(2.70039852751e-05 9.76632326627e-05 -0.00160052565314)
(1.8243307593e-05 0.000101892261327 -0.00163184092232)
(9.19499892428e-06 0.00010442555932 -0.00165100023174)
(9.24244046264e-09 0.000105271233324 -0.00165746140964)
(-9.1764789602e-06 0.000104432219958 -0.00165098096839)
(-1.82244371762e-05 0.000101906037339 -0.001631802599)
(-2.69837804047e-05 9.76848278815e-05 -0.00160046957977)
(-3.52986020016e-05 9.17611493573e-05 -0.00155783098724)
(-4.29230474892e-05 8.41961295388e-05 -0.00150498902926)
(-4.98801693794e-05 7.49562592542e-05 -0.0014431638941)
(-5.54469639816e-05 6.46904021291e-05 -0.00137338640619)
(6.99116849455e-05 8.05323194687e-05 -0.00179841351525)
(6.24005219295e-05 9.15461921974e-05 -0.00188872364453)
(5.33681894442e-05 0.000101399688834 -0.00196863460489)
(4.36169194418e-05 0.000109346897232 -0.00203687372855)
(3.31874227241e-05 0.000115491898924 -0.00209188311917)
(2.23416290411e-05 0.000119827295017 -0.00213227193349)
(1.12357554378e-05 0.000122405832342 -0.00215696822324)
(8.73277178103e-09 0.000123263534653 -0.00216528861991)
(-1.12181097951e-05 0.000122413513394 -0.00215694475311)
(-2.23232671168e-05 0.000119843110685 -0.00213222523171)
(-3.31673112116e-05 0.000115516478504 -0.00209181461858)
(-4.35934398038e-05 0.000109380698357 -0.00203678781576)
(-5.33398276448e-05 0.000101442317359 -0.00196854114384)
(-6.23677134463e-05 9.1595735129e-05 -0.00188864540425)
(-6.98790770188e-05 8.058373315e-05 -0.00179839796634)
(7.93542099326e-05 9.05331365858e-05 -0.00222233118247)
(7.00971385741e-05 0.00010123947627 -0.00233180355278)
(5.95139196193e-05 0.000110683138648 -0.00242859685285)
(4.83136303084e-05 0.000118172814725 -0.00251122842842)
(3.6573950901e-05 0.000123884058882 -0.00257781317285)
(2.45307041056e-05 0.000127870143326 -0.0026266820363)
(1.23088697347e-05 0.000130223976823 -0.00265655173541)
(8.02115841064e-09 0.000131004328653 -0.00266660840518)
(-1.22925273558e-05 0.000130232226213 -0.00265652469777)
(-2.45133697954e-05 0.000127887055001 -0.00262662817366)
(-3.65545939881e-05 0.000123910171185 -0.00257773382405)
(-4.82908341757e-05 0.000118208468589 -0.00251112770758)
(-5.94864283657e-05 0.000110727832351 -0.00242848407275)
(-7.00655188565e-05 0.000101291256625 -0.0023317016184)
(-7.93226210292e-05 9.05872617316e-05 -0.00222228939705)
(8.4425558575e-05 9.54600698939e-05 -0.00264148185076)
(7.38032219431e-05 0.000105299572458 -0.00276886621044)
(6.22435430505e-05 0.000113796966677 -0.0028813972043)
(5.02306654202e-05 0.000120438608559 -0.0029774278701)
(3.78582189621e-05 0.000125439117561 -0.00305477075458)
(2.5313054319e-05 0.000128896766346 -0.00311150546257)
(1.26777323844e-05 0.000130926493461 -0.00314616555844)
(7.46156886327e-09 0.00013159778129 -0.00315782811106)
(-1.26624273595e-05 0.000130934943617 -0.00314613566483)
(-2.52965800689e-05 0.000128914028003 -0.00311144576494)
(-3.78396156254e-05 0.000125465668591 -0.00305468222456)
(-5.02087682153e-05 0.000120474682401 -0.00297731382793)
(-6.22174067484e-05 0.000113842057246 -0.00288126559327)
(-7.37735176732e-05 0.000105351751294 -0.00276873926834)
(-8.43958369354e-05 9.55151645581e-05 -0.00264141015966)
(8.61474573581e-05 9.65735609435e-05 -0.0030537667482)
(7.45970622593e-05 0.000105337254353 -0.00319771418275)
(6.25661874181e-05 0.000112680640689 -0.00332466169913)
(5.02450197663e-05 0.000118354268989 -0.00343288749288)
(3.77343496297e-05 0.000122576743573 -0.00351995956012)
(2.51674639636e-05 0.000125473374641 -0.00358376631183)
(1.25863248205e-05 0.000127165668879 -0.00362271400531)
(7.1994285314e-09 0.000127724473741 -0.00363581023067)
(-1.25715049948e-05 0.000127174030653 -0.0036226820997)
(-2.51514064159e-05 0.000125490406585 -0.00358370234275)
(-3.77161975178e-05 0.000122602848295 -0.00351986385364)
(-5.02238442652e-05 0.000118389625276 -0.00343276209515)
(-6.25413334775e-05 0.000112724788685 -0.00332451256312)
(-7.45693044722e-05 0.000105388441368 -0.00319756255024)
(-8.61198413124e-05 9.66282114975e-05 -0.00305366422273)
(8.54832899096e-05 9.5035609733e-05 -0.0034572377249)
(7.34058661506e-05 0.000102698576035 -0.00361605232164)
(6.12930357504e-05 0.00010885273255 -0.00375570680553)
(4.90261711957e-05 0.000113561658278 -0.00387455376994)
(3.67118911808e-05 0.000117025734226 -0.00397000253512)
(2.44358787771e-05 0.000119384430236 -0.00403983631287)
(1.22060447126e-05 0.000120756568992 -0.00408240995223)
(7.27334769667e-09 0.000121209152711 -0.00409671347152)
(-1.21910684043e-05 0.000120764633613 -0.00408237703278)
(-2.44196801078e-05 0.000119400820206 -0.00403976996412)
(-3.66937366858e-05 0.000117050782119 -0.00396990220636)
(-4.90053705323e-05 0.000113595511882 -0.00387441985448)
(-6.12691889949e-05 0.000108894988842 -0.00375554284331)
(-7.33798485558e-05 0.00010274770104 -0.00361587856333)
(-8.54576451643e-05 9.50886995396e-05 -0.00345710650828)
(8.31883702119e-05 9.17381533229e-05 -0.003849466677)
(7.09078243951e-05 9.83472547524e-05 -0.00402099015128)
(5.89899210275e-05 0.000103352655977 -0.00417122910484)
(4.70257510117e-05 0.000107144140331 -0.00429877992934)
(3.51267854031e-05 0.000109896846155 -0.00440097544396)
(2.33404077323e-05 0.000111756094484 -0.00447558596954)
(1.16472590886e-05 0.00011283291821 -0.00452099807826)
(7.62092894301e-09 0.000113187788725 -0.0045362402986)
(-1.16316024417e-05 0.000112840509037 -0.00452096534788)
(-2.33235998538e-05 0.000111771483995 -0.00447551959821)
(-3.51082148708e-05 0.000109920313498 -0.00440087387767)
(-4.7004918666e-05 0.000107175807889 -0.00429864168636)
(-5.89666485141e-05 0.000103392217145 -0.00417105507117)
(-7.08830553866e-05 9.8393450327e-05 -0.00402079980975)
(-8.31643150371e-05 9.17887058771e-05 -0.00384931260829)
(7.9801409318e-05 8.73051792399e-05 -0.00422746150424)
(6.75601915241e-05 9.29175705896e-05 -0.00440912885562)
(5.60262888559e-05 9.68392465386e-05 -0.00456757596488)
(4.45335867378e-05 9.97703293347e-05 -0.00470173780224)
(3.31932738068e-05 0.000101864259763 -0.00480891365873)
(2.20224188433e-05 0.000103265243031 -0.00488695055325)
(1.09801803596e-05 0.000104072688968 -0.00493435310971)
(8.15686331995e-09 0.000104338616951 -0.00495024543306)
(-1.09634841775e-05 0.000104079664579 -0.00493432205061)
(-2.20046733512e-05 0.000103279359234 -0.00488688716161)
(-3.3173984003e-05 0.000101885740873 -0.00480881541763)
(-4.45124170521e-05 9.97992948979e-05 -0.0047016013226)
(-5.60032201725e-05 9.68754800967e-05 -0.00456739938743)
(-6.75362149396e-05 9.29600885223e-05 -0.00440893121742)
(-7.97783921552e-05 8.73523505639e-05 -0.00422729501991)
(7.56786384096e-05 8.21485457589e-05 -0.00458774953103)
(6.36532310279e-05 8.67987029219e-05 -0.00477681712535)
(5.26357681118e-05 8.97003308828e-05 -0.00494114563733)
(4.17348411092e-05 9.18277124e-05 -0.00507987731639)
(3.10505845648e-05 9.33176831428e-05 -0.00519028336152)
(2.05750413132e-05 9.43039896498e-05 -0.0052703971199)
(1.02514228407e-05 9.48694010589e-05 -0.00531894086811)
(8.77173526858e-09 9.50556282345e-05 -0.00533519443268)
(-1.02335344497e-05 9.4875615127e-05 -0.0053189133233)
(-2.05562225759e-05 9.43165473919e-05 -0.00527034056128)
(-3.10304283618e-05 9.33367910404e-05 -0.00519019458581)
(-4.17131240615e-05 9.18535012813e-05 -0.00507975125718)
(-5.26125970502e-05 8.9732674267e-05 -0.00494097764324)
(-6.36295892914e-05 8.68369166427e-05 -0.00477662589738)
(-7.56561116937e-05 8.21915197933e-05 -0.00458758651358)
(7.1020864792e-05 7.65029651994e-05 -0.00492634783714)
(5.93571042522e-05 8.01863834024e-05 -0.00512043162791)
(4.89711793259e-05 8.21283773179e-05 -0.00528879132305)
(3.87596766874e-05 8.35149792055e-05 -0.00543028767637)
(2.8801191968e-05 8.44663771034e-05 -0.0055422730814)
(1.90684953753e-05 8.50901576231e-05 -0.00562316402231)
(9.49651807281e-06 8.54460366199e-05 -0.00567202773275)
(9.35758337951e-09 8.55633536925e-05 -0.00568836339447)
(-9.47749859967e-06 8.54513534624e-05 -0.00567200592056)
(-1.90486401375e-05 8.51009134446e-05 -0.00562311907355)
(-2.87801633447e-05 8.4482753637e-05 -0.00554220174616)
(-3.87373458114e-05 8.35371601511e-05 -0.00543018388077)
(-4.89477195917e-05 8.21563898144e-05 -0.00528864757201)
(-5.93334963905e-05 8.02197737233e-05 -0.00512026525936)
(-7.09983575431e-05 7.65410469182e-05 -0.00492620867979)
(6.59263430663e-05 7.0441401986e-05 -0.00523844176507)
(5.48095254677e-05 7.32029137701e-05 -0.00543696364899)
(4.5187596778e-05 7.42230921068e-05 -0.00560835817326)
(3.5740653837e-05 7.49464990278e-05 -0.005750978619)
(2.65481989582e-05 7.54357994266e-05 -0.00586291898597)
(1.7572389305e-05 7.57546774581e-05 -0.00594330576369)
(8.75031236639e-06 7.59354575612e-05 -0.00599168684437)
(9.81991608876e-09 7.59952217946e-05 -0.00600783340317)
(-8.73039088978e-06 7.59397901629e-05 -0.00599167318951)
(-1.75517196784e-05 7.57634797958e-05 -0.00594327780544)
(-2.65264529455e-05 7.54492517828e-05 -0.00586287456236)
(-3.57176828117e-05 7.49648657992e-05 -0.00575091226774)
(-4.51636456019e-05 7.42464865581e-05 -0.00560826016378)
(-5.47856067379e-05 7.32312309117e-05 -0.00543684625144)
(-6.59035561434e-05 7.04741715704e-05 -0.00523834869903)
(6.04086990809e-05 6.48655251844e-05 -0.00551870445457)
(5.02368751031e-05 6.60573992605e-05 -0.00572676359804)
(4.14701095128e-05 6.61799138767e-05 -0.00589955540363)
(3.28162143679e-05 6.62851644573e-05 -0.00604108474375)
(2.43912641587e-05 6.63294656458e-05 -0.00615108924469)
(1.61506360797e-05 6.63471216174e-05 -0.00622960210881)
(8.04402533462e-06 6.63511639546e-05 -0.006276679676)
(1.01177166564e-08 6.63521562161e-05 -0.0062923647316)
(-8.02350223377e-06 6.63545878596e-05 -0.00627667598195)
(-1.61293666292e-05 6.63540464366e-05 -0.00622959532342)
(-2.43689287613e-05 6.63400935312e-05 -0.00615107970872)
(-3.27926643841e-05 6.62996919858e-05 -0.00604107055892)
(-4.14454351231e-05 6.61986376659e-05 -0.00589952709923)
(-5.02121226255e-05 6.60806070223e-05 -0.00572673500097)
(-6.03846194835e-05 6.48931384472e-05 -0.0055186616743)
(-7.34833745412e-07 -1.41172411713e-06 -0.000371223695668)
(-2.59893438741e-07 -1.95724400914e-06 -0.000389505914412)
(4.67199527429e-08 -2.26860234237e-06 -0.000405962135212)
(2.43064516581e-07 -2.43831600483e-06 -0.000420142459818)
(3.16970958456e-07 -2.5096753227e-06 -0.000431628258671)
(2.80836866975e-07 -2.52511733379e-06 -0.000440081445647)
(1.60826108571e-07 -2.51922043317e-06 -0.000445260188083)
(-5.39579432631e-09 -2.51483810939e-06 -0.000447015980286)
(-1.71214853284e-07 -2.51992483396e-06 -0.00044525965767)
(-2.90048873911e-07 -2.5263478494e-06 -0.000440080479562)
(-3.24447919698e-07 -2.51117511454e-06 -0.000431627086993)
(-2.4880093807e-07 -2.43983673852e-06 -0.000420141567884)
(-5.07377819668e-08 -2.26965432885e-06 -0.000405962682324)
(2.57485168045e-07 -1.95777519024e-06 -0.000389511727029)
(7.33988755014e-07 -1.41151056908e-06 -0.000371246207756)
(-2.56574588767e-06 -4.23464620602e-06 -0.0010550706067)
(-1.35610064015e-06 -5.60932117647e-06 -0.00110318262178)
(-5.02423058845e-07 -6.45795862565e-06 -0.00114625056672)
(7.72274728316e-08 -6.94911785012e-06 -0.00118316646825)
(3.70941135413e-07 -7.18359893914e-06 -0.00121294676189)
(4.08272508065e-07 -7.26430915843e-06 -0.00123480008812)
(2.50795562789e-07 -7.2755414631e-06 -0.00124815968034)
(-1.3646687221e-08 -7.27326433326e-06 -0.00125267456264)
(-2.77161256118e-07 -7.27709200523e-06 -0.00124815779344)
(-4.31957105828e-07 -7.2670079654e-06 -0.00123479656476)
(-3.90666241964e-07 -7.18684853228e-06 -0.00121294225774)
(-9.27298587112e-08 -6.95225855136e-06 -0.00118316243069)
(4.91130095125e-07 -6.45987985932e-06 -0.00114625053611)
(1.34894104782e-06 -5.60998261703e-06 -0.00110319784387)
(2.56276600302e-06 -4.23366615914e-06 -0.00105512911629)
(-4.76622397064e-06 -7.13414655145e-06 -0.00167775447852)
(-3.01783746589e-06 -9.14255177962e-06 -0.00174976157875)
(-1.70768912348e-06 -1.04628756e-05 -0.00181383714043)
(-7.56718728993e-07 -1.1277930038e-05 -0.00186851151542)
(-1.71869739599e-07 -1.1718886564e-05 -0.00191246695732)
(8.75991910868e-08 -1.19207095602e-05 -0.0019446430073)
(1.01423011391e-07 -1.19936560976e-05 -0.00196427805451)
(-1.89854397013e-08 -1.20102386124e-05 -0.00197089958814)
(-1.38264481728e-07 -1.19954855926e-05 -0.00196427501122)
(-1.21188912761e-07 -1.19238900757e-05 -0.00194463721941)
(1.43130043939e-07 -1.172270329e-05 -0.00191245930025)
(7.33377678507e-07 -1.12815499592e-05 -0.00186850414735)
(1.68986108749e-06 -1.04650727404e-05 -0.00181383552327)
(3.0055020044e-06 -9.14327211521e-06 -0.00174978239857)
(4.75987277105e-06 -7.13306268189e-06 -0.00167783825199)
(-6.64686330374e-06 -9.42361501245e-06 -0.00224561191144)
(-4.51922357108e-06 -1.17844074521e-05 -0.00233691082694)
(-2.86803848065e-06 -1.3372658264e-05 -0.00241770061005)
(-1.62212364606e-06 -1.43732687554e-05 -0.00248638484261)
(-7.83168487287e-07 -1.49337615201e-05 -0.00254145943082)
(-3.02260329952e-07 -1.52069646363e-05 -0.00258170219775)
(-8.94307469998e-08 -1.53171648474e-05 -0.00260622801738)
(-2.22007022592e-08 -1.53452932029e-05 -0.00261448651451)
(4.61912670006e-08 -1.5319058058e-05 -0.00260622402375)
(2.62360208824e-07 -1.52102738016e-05 -0.00258169444973)
(7.48304903115e-07 -1.49377414736e-05 -0.00254144881515)
(1.59309787539e-06 -1.43770466844e-05 -0.00248637391153)
(2.84521484537e-06 -1.33750733329e-05 -0.00241769607947)
(4.50265281555e-06 -1.17853332402e-05 -0.00233693266665)
(6.63731904468e-06 -9.42273000093e-06 -0.0022457081658)
(-8.14079735504e-06 -1.11068856816e-05 -0.00276662113377)
(-5.75514574499e-06 -1.36077779333e-05 -0.00287394582542)
(-3.86228133246e-06 -1.52966272251e-05 -0.00296846239596)
(-2.39396297796e-06 -1.63631023018e-05 -0.00304860180295)
(-1.34956278844e-06 -1.69631967426e-05 -0.00311274982457)