/*--------------------------------*- C++ -*----------------------------------*\
  =========                 |
  \\      /  F ield         | OpenFOAM: The Open Source CFD Toolbox
   \\    /   O peration     | Website:  https://openfoam.org
    \\  /    A nd           | Version:  7
     \\/     M anipulation  |
\*---------------------------------------------------------------------------*/
FoamFile
{
    version     2.0;
    format      ascii;
    class       volScalarField;
    location    "2.2";
    object      p;
}
// * * * * * * * * * * * * * * * * * * * * * * * * * * * * * * * * * * * * * //

dimensions      [0 2 -2 0 0 0 0];

internalField   nonuniform List<scalar> 
22500
(
1.71392415172e-05
1.71368918517e-05
1.71360973541e-05
1.71349710068e-05
1.71341131492e-05
1.71334509159e-05
1.71330447814e-05
1.71329093938e-05
1.71330653789e-05
1.71334913665e-05
1.71341724157e-05
1.71350460067e-05
1.71361849632e-05
1.71369830192e-05
1.71393330098e-05
1.71100059329e-05
1.71061709552e-05
1.71041191398e-05
1.71018923283e-05
1.71001393664e-05
1.709881738e-05
1.70980079193e-05
1.70977380227e-05
1.70980290959e-05
1.70988590147e-05
1.71002002732e-05
1.71019696914e-05
1.71042092062e-05
1.71062649502e-05
1.7110100453e-05
1.70819935839e-05
1.70768050737e-05
1.70736932893e-05
1.70705103769e-05
1.7067993725e-05
1.70661087596e-05
1.70649558773e-05
1.70645708382e-05
1.70649762478e-05
1.70661487964e-05
1.7068052175e-05
1.70705847167e-05
1.70737798401e-05
1.70768958934e-05
1.7082086424e-05
1.70571126686e-05
1.70508147785e-05
1.70468721321e-05
1.70429554718e-05
1.70398553193e-05
1.70375442938e-05
1.70361324303e-05
1.70356605449e-05
1.70361515419e-05
1.70375818663e-05
1.70399100745e-05
1.70430250845e-05
1.70469534218e-05
1.7050900574e-05
1.70572023887e-05
1.70339961014e-05
1.70267557212e-05
1.70221199661e-05
1.70176198411e-05
1.70140550594e-05
1.70114093373e-05
1.70097949752e-05
1.7009255438e-05
1.7009812862e-05
1.70114444902e-05
1.70141062593e-05
1.70176849223e-05
1.70221961562e-05
1.70268365051e-05
1.70340820568e-05
1.70123151008e-05
1.70042962037e-05
1.69990918315e-05
1.69941427053e-05
1.69902198823e-05
1.69873206245e-05
1.69855537998e-05
1.6984963456e-05
1.69855704273e-05
1.69873533249e-05
1.69902674841e-05
1.69942032388e-05
1.69991627215e-05
1.70043719889e-05
1.70123972436e-05
1.69921415841e-05
1.69835150469e-05
1.69778625728e-05
1.69725921731e-05
1.69684123546e-05
1.69653354638e-05
1.69634627479e-05
1.69628372612e-05
1.69634781831e-05
1.69653658228e-05
1.69684565443e-05
1.6972648401e-05
1.69779284749e-05
1.69835858768e-05
1.69922199613e-05
1.69734787425e-05
1.69644078019e-05
1.6958415602e-05
1.69529369624e-05
1.6948589383e-05
1.69454008401e-05
1.69434625543e-05
1.69428154587e-05
1.69434768673e-05
1.69454289846e-05
1.69486303737e-05
1.69529891536e-05
1.6958476826e-05
1.6964474043e-05
1.69735536824e-05
1.69562635772e-05
1.69468980202e-05
1.69406618237e-05
1.69350725486e-05
1.69306343523e-05
1.69273900817e-05
1.69254203048e-05
1.69247630154e-05
1.69254336102e-05
1.69274162496e-05
1.69306724795e-05
1.69351211803e-05
1.69407189156e-05
1.69469602972e-05
1.69563354577e-05
1.69404148188e-05
1.69308904589e-05
1.69244976986e-05
1.69188829647e-05
1.69144214919e-05
1.69111693413e-05
1.69091970854e-05
1.69085392992e-05
1.69092095112e-05
1.69111937903e-05
1.69144571452e-05
1.69189285266e-05
1.69245512988e-05
1.69309494657e-05
1.69404844809e-05
1.69258432694e-05
1.69162825893e-05
1.69098185317e-05
1.69042545105e-05
1.68998296502e-05
1.68966112581e-05
1.6894661695e-05
1.68940118292e-05
1.68946733852e-05
1.68966342672e-05
1.68998632582e-05
1.69042975754e-05
1.69098693343e-05
1.6916339103e-05
1.69259114701e-05
1.69124361903e-05
1.69029645815e-05
1.68965243275e-05
1.68910813962e-05
1.68867464507e-05
1.68835983841e-05
1.68816936546e-05
1.68810592041e-05
1.6881704743e-05
1.68836202629e-05
1.68867784586e-05
1.68911225701e-05
1.68965730916e-05
1.69030194352e-05
1.69125036456e-05
1.69000107137e-05
1.68908257475e-05
1.68845335915e-05
1.68792746177e-05
1.68750747929e-05
1.68720291467e-05
1.6870189481e-05
1.6869577233e-05
1.68702001335e-05
1.68720501411e-05
1.6875105654e-05
1.6879314512e-05
1.68845811316e-05
1.68908798865e-05
1.6900078319e-05
1.68884620913e-05
1.6879822243e-05
1.68737658077e-05
1.68687334278e-05
1.68647070307e-05
1.68617984913e-05
1.68600470967e-05
1.68594654492e-05
1.68600574023e-05
1.68618188755e-05
1.68647371441e-05
1.68687726984e-05
1.68738129828e-05
1.68798767529e-05
1.68885305682e-05
1.68788102911e-05
1.68696595579e-05
1.6863902231e-05
1.68591047105e-05
1.68553111363e-05
1.68526002794e-05
1.68509778423e-05
1.6850440509e-05
1.68509879264e-05
1.68526202394e-05
1.68553407839e-05
1.68591437733e-05
1.68639500578e-05
1.686971569e-05
1.68788787605e-05
1.35044419514e-05
1.35051493204e-05
1.35056346505e-05
1.35060661949e-05
1.35064280903e-05
1.35067013834e-05
1.35068712749e-05
1.35069249631e-05
1.35068582693e-05
1.35066763695e-05
1.35063935e-05
1.35060260832e-05
1.35055916885e-05
1.35051080417e-05
1.35044041027e-05
1.35075413547e-05
1.35083744816e-05
1.35089892994e-05
1.35095390222e-05
1.35099997815e-05
1.35103468131e-05
1.35105623718e-05
1.35106316665e-05
1.35105493564e-05
1.35103218037e-05
1.35099652229e-05
1.35094989565e-05
1.35089469989e-05
1.35083335619e-05
1.35075041175e-05
1.35110615277e-05
1.35121394826e-05
1.35129654808e-05
1.35137160509e-05
1.35143487806e-05
1.35148268938e-05
1.35151247855e-05
1.35152223621e-05
1.35151121697e-05
1.35148026288e-05
1.351431512e-05
1.35136766502e-05
1.35129238715e-05
1.35120986524e-05
1.35110244853e-05
1.35153547925e-05
1.35168577662e-05
1.35180296387e-05
1.35191024728e-05
1.35200107758e-05
1.3520699022e-05
1.35211288054e-05
1.35212715744e-05
1.3521116757e-05
1.35206758087e-05
1.35199783858e-05
1.35190641015e-05
1.35179887907e-05
1.35168172995e-05
1.35153179794e-05
1.3520814312e-05
1.35229150008e-05
1.35245564792e-05
1.35260586271e-05
1.35273304224e-05
1.3528293917e-05
1.35288955305e-05
1.35290969547e-05
1.35288841043e-05
1.35282718821e-05
1.35272995374e-05
1.35260217341e-05
1.35245168026e-05
1.35228753646e-05
1.35207780121e-05
1.352746116e-05
1.35302877171e-05
1.35324801537e-05
1.35344776814e-05
1.35361640113e-05
1.35374389036e-05
1.3538233755e-05
1.35385009457e-05
1.35382230583e-05
1.35374182516e-05
1.35361349512e-05
1.35344426802e-05
1.35324421726e-05
1.35302491409e-05
1.35274259289e-05
1.35351435293e-05
1.35387684945e-05
1.35415482621e-05
1.35440635916e-05
1.35461779791e-05
1.35477715548e-05
1.35487628715e-05
1.35490967099e-05
1.35487529762e-05
1.35477524262e-05
1.35461509835e-05
1.35440308506e-05
1.3541512457e-05
1.35387315421e-05
1.35351096825e-05
1.35436524338e-05
1.3548093324e-05
1.35514560087e-05
1.3554472909e-05
1.35569965772e-05
1.35588917752e-05
1.35600676582e-05
1.35604638987e-05
1.35600586219e-05
1.35588742898e-05
1.35569718209e-05
1.35544426916e-05
1.35514226311e-05
1.35480584014e-05
1.35436201266e-05
1.35527602268e-05
1.35579844684e-05
1.35618917034e-05
1.35653633699e-05
1.35682525925e-05
1.35704139398e-05
1.35717511842e-05
1.35722017524e-05
1.35717430194e-05
1.35703981292e-05
1.35682301445e-05
1.35653358258e-05
1.35618609909e-05
1.35579518676e-05
1.35527298772e-05
1.35622409906e-05
1.35681733334e-05
1.35725604781e-05
1.35764182726e-05
1.35796121443e-05
1.35819918243e-05
1.35834597809e-05
1.35839540954e-05
1.3583452473e-05
1.35819776612e-05
1.35795919851e-05
1.35763934101e-05
1.35725324958e-05
1.35681432091e-05
1.35622127297e-05
1.35718828764e-05
1.35784139617e-05
1.35831976022e-05
1.35873601552e-05
1.359078816e-05
1.35933315484e-05
1.35948955209e-05
1.35954216415e-05
1.35948890145e-05
1.35933189271e-05
1.35907701665e-05
1.35873378894e-05
1.35831723481e-05
1.35783864357e-05
1.35718569756e-05
1.35814872508e-05
1.35884840497e-05
1.35935718693e-05
1.35979553864e-05
1.36015448764e-05
1.36041956402e-05
1.36058198703e-05
1.36063655046e-05
1.36058140715e-05
1.36041843892e-05
1.36015288126e-05
1.35979354838e-05
1.35935491843e-05
1.35884591569e-05
1.35814638839e-05
1.35908622814e-05
1.35981921837e-05
1.36034977579e-05
1.36080234291e-05
1.36117033421e-05
1.36144055048e-05
1.36160543505e-05
1.36166072533e-05
1.36160491339e-05
1.361439536e-05
1.36116888871e-05
1.36080055206e-05
1.36034773399e-05
1.3598169705e-05
1.35908413201e-05
1.35999637194e-05
1.36075229078e-05
1.3612921303e-05
1.36174880851e-05
1.36211650438e-05
1.3623845869e-05
1.36254740941e-05
1.36260188005e-05
1.36254693136e-05
1.36238365814e-05
1.36211517787e-05
1.36174717386e-05
1.36129027323e-05
1.36075027075e-05
1.35999448329e-05
1.36095287415e-05
1.36165623154e-05
1.36218345343e-05
1.36262854352e-05
1.36298148789e-05
1.3632366748e-05
1.36339089821e-05
1.36344237133e-05
1.36339045704e-05
1.36323581572e-05
1.36298026168e-05
1.36262703355e-05
1.36218175996e-05
1.36165444396e-05
1.36095116914e-05
1.41055673715e-05
1.41053141434e-05
1.41049957837e-05
1.41046484539e-05
1.41043250567e-05
1.4104067523e-05
1.41039031385e-05
1.41038474506e-05
1.41039061562e-05
1.41040730207e-05
1.4104331975e-05
1.41046559772e-05
1.41050059482e-05
1.41053253564e-05
1.41055816831e-05
1.41057613163e-05
1.41055243978e-05
1.41052202928e-05
1.41048843852e-05
1.41045695102e-05
1.41043173045e-05
1.41041556591e-05
1.41041007891e-05
1.41041587943e-05
1.41043230465e-05
1.41045767945e-05
1.41048923961e-05
1.41052305684e-05
1.41055361723e-05
1.4105775939e-05
1.41061954301e-05
1.41059867851e-05
1.41057104844e-05
1.41053971818e-05
1.41051000847e-05
1.41048601094e-05
1.41047054294e-05
1.41046527761e-05
1.4104708518e-05
1.41048658205e-05
1.41051074944e-05
1.41054055522e-05
1.4105720859e-05
1.41059987359e-05
1.41062101097e-05
1.41065055422e-05
1.41063099398e-05
1.41060487856e-05
1.41057480657e-05
1.41054611611e-05
1.41052283247e-05
1.41050776974e-05
1.410502631e-05
1.41050806812e-05
1.41052339108e-05
1.41054686167e-05
1.41057567131e-05
1.41060592377e-05
1.41063217562e-05
1.41065203747e-05
1.41066785146e-05
1.41064884662e-05
1.41062368131e-05
1.41059457839e-05
1.41056677955e-05
1.4105441909e-05
1.41052956018e-05
1.4105245653e-05
1.41052984992e-05
1.41054473771e-05
1.41056752218e-05
1.41059545725e-05
1.41062473663e-05
1.41065001699e-05
1.41066934962e-05
1.41067834683e-05
1.41066024292e-05
1.4106364233e-05
1.41060883415e-05
1.41058252095e-05
1.41056115375e-05
1.41054731568e-05
1.41054259267e-05
1.41054759537e-05
1.410561686e-05
1.4105832562e-05
1.41060971915e-05
1.4106374786e-05
1.41066141449e-05
1.41067984331e-05
1.41068728669e-05
1.41067114937e-05
1.41064955574e-05
1.41062445011e-05
1.41060054957e-05
1.41058116275e-05
1.41056861773e-05
1.41056434166e-05
1.41056888768e-05
1.41058167943e-05
1.4106012725e-05
1.41062533374e-05
1.41065060699e-05
1.41067232071e-05
1.41068879071e-05
1.41069845187e-05
1.41068567331e-05
1.4106673666e-05
1.41064581552e-05
1.41062530878e-05
1.41060868251e-05
1.41059793315e-05
1.41059427803e-05
1.41059819313e-05
1.41060918305e-05
1.41062601804e-05
1.41064669613e-05
1.4106684157e-05
1.41068684448e-05
1.41069997459e-05
1.41071466978e-05
1.4107066372e-05
1.41069262925e-05
1.41067557676e-05
1.41065929846e-05
1.4106460809e-05
1.41063753876e-05
1.41063464629e-05
1.41063778915e-05
1.4106465657e-05
1.41065999255e-05
1.4106764511e-05
1.41069367785e-05
1.41070781231e-05
1.41071621032e-05
1.41073774574e-05
1.41073557821e-05
1.41072663975e-05
1.41071474165e-05
1.41070325806e-05
1.4106938794e-05
1.41068781186e-05
1.41068577307e-05
1.41068805315e-05
1.41069434896e-05
1.41070393774e-05
1.41071561068e-05
1.4107276903e-05
1.41073676471e-05
1.41073930779e-05
1.41076844095e-05
1.41077276936e-05
1.41076930718e-05
1.41076286959e-05
1.41075643378e-05
1.41075107811e-05
1.41074759553e-05
1.41074644657e-05
1.41074782752e-05
1.41075153177e-05
1.41075709713e-05
1.41076373034e-05
1.41077035699e-05
1.41077396619e-05
1.41077002413e-05
1.41080631994e-05
1.41081719427e-05
1.41081926823e-05
1.41081831101e-05
1.41081692272e-05
1.41081558121e-05
1.4108146676e-05
1.41081440268e-05
1.41081488942e-05
1.41081601778e-05
1.41081756762e-05
1.41081915912e-05
1.41082031315e-05
1.41081839427e-05
1.41080791319e-05
1.41084998427e-05
1.4108670654e-05
1.41087451321e-05
1.41087880984e-05
1.41088226217e-05
1.41088476165e-05
1.4108863022e-05
1.41088687618e-05
1.41088651238e-05
1.4108851776e-05
1.41088288165e-05
1.41087963699e-05
1.41087554289e-05
1.41086825997e-05
1.41085157583e-05
1.41090137325e-05
1.41092421797e-05
1.41093516759e-05
1.41094344404e-05
1.41095069151e-05
1.41095623144e-05
1.41095970458e-05
1.41096094158e-05
1.41095990139e-05
1.41095661965e-05
1.41095127741e-05
1.41094423555e-05
1.41093616759e-05
1.41092539875e-05
1.41090293039e-05
1.41098000471e-05
1.41099051299e-05
1.41100003441e-05
1.41100923807e-05
1.41101783598e-05
1.41102454506e-05
1.41102877466e-05
1.41103026712e-05
1.4110289579e-05
1.41102491062e-05
1.4110183884e-05
1.41100999609e-05
1.41100101363e-05
1.41099171042e-05
1.41098152567e-05
1.23669915278e-05
1.23671524203e-05
1.23673466763e-05
1.23675432321e-05
1.23677203132e-05
1.23678586243e-05
1.23679461786e-05
1.23679751965e-05
1.23679427921e-05
1.23678521457e-05
1.23677114631e-05
1.23675336087e-05
1.23673372502e-05
1.23671452789e-05
1.23669852057e-05
1.23670965149e-05
1.23672569862e-05
1.23674532944e-05
1.23676532877e-05
1.23678340836e-05
1.23679758153e-05
1.23680657264e-05
1.23680955654e-05
1.23680621738e-05
1.23679690196e-05
1.23678248263e-05
1.23676431966e-05
1.23674437331e-05
1.2367249592e-05
1.23670906912e-05
1.23670377234e-05
1.23671857856e-05
1.2367371804e-05
1.2367564146e-05
1.23677397108e-05
1.23678783708e-05
1.23679667439e-05
1.23679962104e-05
1.23679634197e-05
1.2367872018e-05
1.23677310691e-05
1.236755462e-05
1.236736286e-05
1.23671784861e-05
1.2367032292e-05
1.23669722468e-05
1.23671100166e-05
1.23672875104e-05
1.23674720852e-05
1.23676420828e-05
1.2367777197e-05
1.23678636853e-05
1.23678926747e-05
1.23678606961e-05
1.23677714949e-05
1.23676343356e-05
1.2367463476e-05
1.23672793619e-05
1.236710317e-05
1.23669672018e-05
1.23669271393e-05
1.23670567242e-05
1.23672277683e-05
1.23674049719e-05
1.2367569336e-05
1.23677005403e-05
1.23677848315e-05
1.2367813199e-05
1.23677821418e-05
1.23676954216e-05
1.23675623723e-05
1.23673972157e-05
1.23672203267e-05
1.236705041e-05
1.23669225311e-05
1.23668882495e-05
1.23670103363e-05
1.23671752964e-05
1.23673448191e-05
1.23675028762e-05
1.23676295426e-05
1.2367711163e-05
1.23677387539e-05
1.23677087945e-05
1.23676250382e-05
1.23674967577e-05
1.2367337967e-05
1.2367168697e-05
1.23670044677e-05
1.23668843183e-05
1.23668492525e-05
1.23669641335e-05
1.23671237699e-05
1.23672856609e-05
1.23674372123e-05
1.23675590783e-05
1.23676378163e-05
1.23676645443e-05
1.2367635755e-05
1.23675551578e-05
1.23674318918e-05
1.23672796719e-05
1.23671180046e-05
1.2366958787e-05
1.23668459439e-05
1.23668106076e-05
1.23669194015e-05
1.23670750742e-05
1.23672300726e-05
1.23673756556e-05
1.23674930579e-05
1.23675691065e-05
1.23675950216e-05
1.23675673499e-05
1.23674897226e-05
1.2367371121e-05
1.23672249426e-05
1.23670700677e-05
1.2366914612e-05
1.23668077768e-05
1.23667745374e-05
1.23668795333e-05
1.23670329431e-05
1.23671824672e-05
1.23673231228e-05
1.23674367976e-05
1.23675105712e-05
1.23675357971e-05
1.23675090887e-05
1.23674339869e-05
1.23673192979e-05
1.23671781205e-05
1.23670286413e-05
1.23668752714e-05
1.23667722267e-05
1.23667440054e-05
1.23668481439e-05
1.23670010382e-05
1.23671466705e-05
1.23672835692e-05
1.23673943496e-05
1.23674663164e-05
1.23674909971e-05
1.23674650834e-05
1.23673920136e-05
1.23672803851e-05
1.23671430187e-05
1.23669973554e-05
1.23668443353e-05
1.23667421399e-05
1.23667215734e-05
1.23668281228e-05
1.23669819885e-05
1.23671251202e-05
1.23672592711e-05
1.23673678021e-05
1.23674382992e-05
1.23674625147e-05
1.23674372771e-05
1.23673658709e-05
1.23672566333e-05
1.23671220856e-05
1.23669788746e-05
1.23668247858e-05
1.23667201816e-05
1.2366707849e-05
1.23668201718e-05
1.23669761768e-05
1.23671180289e-05
1.23672502716e-05
1.23673570543e-05
1.23674262754e-05
1.23674500641e-05
1.23674254215e-05
1.23673554432e-05
1.23672480784e-05
1.23671154997e-05
1.2366973564e-05
1.23668173182e-05
1.2366706979e-05
1.23667000248e-05
1.23668213525e-05
1.23669810016e-05
1.23671231649e-05
1.23672547983e-05
1.23673605462e-05
1.23674288041e-05
1.23674522101e-05
1.23674280704e-05
1.23673591721e-05
1.23672529247e-05
1.23671210331e-05
1.23669788056e-05
1.23668189578e-05
1.23666996292e-05
1.23667123267e-05
1.23668475196e-05
1.23670053531e-05
1.23671453034e-05
1.23672744603e-05
1.23673774139e-05
1.23674433518e-05
1.2367465883e-05
1.2367442703e-05
1.23673761765e-05
1.23672727961e-05
1.2367143426e-05
1.23670034825e-05
1.23668455987e-05
1.23667123947e-05
1.23669236466e-05
1.23669999732e-05
1.2367112841e-05
1.23672183874e-05
1.23673195521e-05
1.23674003429e-05
1.23674519352e-05
1.23674694991e-05
1.23674513562e-05
1.23673992641e-05
1.23673180928e-05
1.23672167963e-05
1.23671113808e-05
1.2366998731e-05
1.23669239756e-05
1.2030141696e-05
1.20300415932e-05
1.20299179879e-05
1.20297852129e-05
1.2029661903e-05
1.20295628636e-05
1.20294995378e-05
1.20294779621e-05
1.20295002355e-05
1.20295638113e-05
1.20296622454e-05
1.20297849469e-05
1.20299181316e-05
1.20300410087e-05
1.20301430422e-05
1.20301542064e-05
1.20300585193e-05
1.20299385534e-05
1.20298080866e-05
1.20296862025e-05
1.20295879678e-05
1.20295249413e-05
1.20295034246e-05
1.20295256769e-05
1.20295890003e-05
1.20296867076e-05
1.20298079359e-05
1.20299387039e-05
1.20300583458e-05
1.20301558007e-05
1.20302617128e-05
1.20301756462e-05
1.2030065356e-05
1.20299422896e-05
1.20298262862e-05
1.20297321288e-05
1.20296713977e-05
1.20296506006e-05
1.20296721285e-05
1.20297332159e-05
1.20298270191e-05
1.20299424835e-05
1.20300656762e-05
1.20301757745e-05
1.20302633679e-05
1.20303560491e-05
1.20302757998e-05
1.20301720907e-05
1.20300541698e-05
1.20299422918e-05
1.20298510265e-05
1.20297918809e-05
1.20297715651e-05
1.20297925875e-05
1.20298521435e-05
1.20299432529e-05
1.2030054696e-05
1.20301725999e-05
1.20302760104e-05
1.20303578144e-05
1.20304220229e-05
1.2030344264e-05
1.20302444396e-05
1.2030129769e-05
1.20300205693e-05
1.20299311835e-05
1.20298730719e-05
1.20298530719e-05
1.20298737566e-05
1.20299323056e-05
1.20300216543e-05
1.20301305133e-05
1.20302451238e-05
1.20303444963e-05
1.2030423938e-05
1.20304701171e-05
1.20303929623e-05
1.20302960619e-05
1.2030183947e-05
1.20300770776e-05
1.20299894713e-05
1.2029932397e-05
1.20299127249e-05
1.20299330463e-05
1.20299905665e-05
1.20300782337e-05
1.20301848387e-05
1.20302968508e-05
1.20303933328e-05
1.20304720433e-05
1.20305067521e-05
1.20304297406e-05
1.20303355181e-05
1.20302260668e-05
1.20301218791e-05
1.20300364666e-05
1.2029980778e-05
1.20299615686e-05
1.20299813855e-05
1.20300375107e-05
1.20301230406e-05
1.20302270395e-05
1.20303363586e-05
1.20304302165e-05
1.20305087858e-05
1.20305359003e-05
1.20304593403e-05
1.20303681465e-05
1.20302621033e-05
1.20301614896e-05
1.2030079138e-05
1.20300254641e-05
1.20300069472e-05
1.20300260226e-05
1.2030080115e-05
1.20301626303e-05
1.20302631386e-05
1.20303690676e-05
1.2030459921e-05
1.20305381607e-05
1.2030561501e-05
1.20304862324e-05
1.20303989879e-05
1.20302975882e-05
1.2030201865e-05
1.20301237796e-05
1.2030072973e-05
1.2030055456e-05
1.20300734823e-05
1.20301246849e-05
1.20302029622e-05
1.20302986535e-05
1.20303999945e-05
1.20304869326e-05
1.20305639911e-05
1.20305872605e-05
1.20305145321e-05
1.20304325084e-05
1.20303372785e-05
1.20302480685e-05
1.20301756993e-05
1.20301287561e-05
1.20301125993e-05
1.20301292205e-05
1.20301765367e-05
1.20302491287e-05
1.20303383883e-05
1.20304336295e-05
1.20305154157e-05
1.20305899993e-05
1.20306162191e-05
1.20305474354e-05
1.20304719242e-05
1.20303844674e-05
1.20303035016e-05
1.20302383764e-05
1.20301963548e-05
1.20301819293e-05
1.20301967787e-05
1.20302391558e-05
1.20303045235e-05
1.20303856179e-05
1.20304731526e-05
1.20305485094e-05
1.2030619208e-05
1.20306501025e-05
1.20305862915e-05
1.20305182997e-05
1.20304401822e-05
1.20303692137e-05
1.20303129201e-05
1.20302768704e-05
1.20302645634e-05
1.20302772627e-05
1.20303136511e-05
1.20303702217e-05
1.20304413763e-05
1.20305196441e-05
1.20305875261e-05
1.2030653281e-05
1.20306900434e-05
1.20306309195e-05
1.20305708706e-05
1.20305033825e-05
1.20304441351e-05
1.20303981159e-05
1.20303690483e-05
1.20303591744e-05
1.20303694123e-05
1.20303988242e-05
1.20304451167e-05
1.20305046313e-05
1.20305723134e-05
1.20306323148e-05
1.20306933837e-05
1.20307408829e-05
1.20306854866e-05
1.20306314002e-05
1.20305744e-05
1.20305272339e-05
1.20304918413e-05
1.20304698252e-05
1.20304624613e-05
1.20304701812e-05
1.20304925092e-05
1.20305282238e-05
1.20305756632e-05
1.20306329377e-05
1.20306870304e-05
1.2030744271e-05
1.20308159837e-05
1.20307529404e-05
1.20306990903e-05
1.20306499427e-05
1.20306126845e-05
1.203058567e-05
1.20305691967e-05
1.20305637531e-05
1.20305695676e-05
1.20305864052e-05
1.20306137522e-05
1.20306513741e-05
1.2030700874e-05
1.20307548973e-05
1.20308193211e-05
1.08830388013e-05
1.08830936353e-05
1.0883159329e-05
1.08832266678e-05
1.08832875403e-05
1.08833351931e-05
1.08833650405e-05
1.08833743537e-05
1.08833622137e-05
1.08833297829e-05
1.08832800509e-05
1.08832177942e-05
1.08831495761e-05
1.08830843058e-05
1.08830287158e-05
1.08830626097e-05
1.08831172209e-05
1.08831832271e-05
1.08832515193e-05
1.08833134635e-05
1.08833621076e-05
1.08833926405e-05
1.08834021824e-05
1.0883389717e-05
1.08833565146e-05
1.08833057476e-05
1.08832424408e-05
1.08831734428e-05
1.08831077831e-05
1.08830529829e-05
1.08830305287e-05
1.08830809416e-05
1.08831429629e-05
1.08832086281e-05
1.08832687604e-05
1.08833163909e-05
1.08833464619e-05
1.08833559322e-05
1.08833436956e-05
1.08833110941e-05
1.08832614365e-05
1.0883199934e-05
1.08831336065e-05
1.08830715562e-05
1.08830212093e-05
1.08829990312e-05
1.08830463185e-05
1.08831053893e-05
1.08831687958e-05
1.08832274281e-05
1.0883274209e-05
1.08833039124e-05
1.08833133569e-05
1.08833013596e-05
1.08832693126e-05
1.08832206323e-05
1.08831606691e-05
1.08830965524e-05
1.08830372544e-05
1.08829899707e-05
1.08829778239e-05
1.08830232646e-05
1.08830804639e-05
1.08831421156e-05
1.0883199557e-05
1.08832456127e-05
1.0883274994e-05
1.08832844045e-05
1.08832726253e-05
1.08832410653e-05
1.0883193215e-05
1.08831344896e-05
1.08830720523e-05
1.08830145499e-05
1.08829690652e-05
1.08829619596e-05
1.088300629e-05
1.08830617654e-05
1.08831217549e-05
1.08831778903e-05
1.08832230652e-05
1.08832519839e-05
1.08832613112e-05
1.08832497982e-05
1.08832188608e-05
1.08831720054e-05
1.08831146391e-05
1.08830538661e-05
1.08829978536e-05
1.08829537055e-05
1.08829487394e-05
1.08829920053e-05
1.08830458314e-05
1.08831039683e-05
1.08831584949e-05
1.08832024927e-05
1.08832307305e-05
1.08832398904e-05
1.08832287156e-05
1.08831986073e-05
1.08831530339e-05
1.08830973173e-05
1.08830384119e-05
1.08829838746e-05
1.08829409519e-05
1.08829369958e-05
1.08829790285e-05
1.08830311723e-05
1.08830871402e-05
1.08831397191e-05
1.08831822154e-05
1.08832095467e-05
1.08832184505e-05
1.08832076946e-05
1.08831786367e-05
1.08831346629e-05
1.08830809388e-05
1.08830241839e-05
1.08829712403e-05
1.08829295826e-05
1.08829256754e-05
1.08829664179e-05
1.08830167029e-05
1.08830701824e-05
1.08831204556e-05
1.08831611277e-05
1.08831873235e-05
1.08831958829e-05
1.08831856182e-05
1.08831578254e-05
1.08831157629e-05
1.08830643831e-05
1.08830100947e-05
1.08829589438e-05
1.08829186929e-05
1.08829140831e-05
1.08829533718e-05
1.08830015661e-05
1.08830522569e-05
1.08830998946e-05
1.08831384606e-05
1.08831633139e-05
1.08831714531e-05
1.08831617421e-05
1.08831354065e-05
1.08830955344e-05
1.08830468195e-05
1.08829952994e-05
1.08829461754e-05
1.08829075022e-05
1.08829015792e-05
1.08829392854e-05
1.08829852211e-05
1.08830328885e-05
1.08830776473e-05
1.08831138668e-05
1.08831372112e-05
1.08831448569e-05
1.08831357544e-05
1.08831110321e-05
1.08830735761e-05
1.0883027782e-05
1.08829792729e-05
1.08829323879e-05
1.08828954432e-05
1.08828875646e-05
1.08829236587e-05
1.08829672876e-05
1.08830118821e-05
1.08830536407e-05
1.08830874012e-05
1.08831091149e-05
1.0883116226e-05
1.08831077594e-05
1.08830847514e-05
1.08830498332e-05
1.08830070683e-05
1.08829616464e-05
1.08829170895e-05
1.08828819196e-05
1.08828708549e-05
1.08829054553e-05
1.08829471561e-05
1.08829890231e-05
1.08830280648e-05
1.08830594415e-05
1.08830795769e-05
1.08830861276e-05
1.08830783032e-05
1.08830569684e-05
1.08830244723e-05
1.08829844939e-05
1.08829418094e-05
1.0882899238e-05
1.08828657061e-05
1.08828522653e-05
1.0882886681e-05
1.08829264494e-05
1.08829657818e-05
1.08830020555e-05
1.08830309581e-05
1.08830493083e-05
1.08830552633e-05
1.0883048122e-05
1.08830286173e-05
1.08829986847e-05
1.08829614888e-05
1.08829214076e-05
1.08828808492e-05
1.08828477112e-05
1.08828686456e-05
1.08828932685e-05
1.08829235048e-05
1.08829536e-05
1.0882981503e-05
1.08830034847e-05
1.08830173247e-05
1.08830217142e-05
1.08830162223e-05
1.0883001334e-05
1.08829783669e-05
1.08829496249e-05
1.08829188231e-05
1.08828878738e-05
1.08828642737e-05
1.02138554301e-05
1.02138224425e-05
1.02137787922e-05
1.02137321059e-05
1.02136894304e-05
1.02136555281e-05
1.02136336524e-05
1.02136259045e-05
1.02136330502e-05
1.02136542653e-05
1.02136873955e-05
1.02137289063e-05
1.02137740468e-05
1.02138159967e-05
1.02138501967e-05
1.0213853417e-05
1.02138215098e-05
1.02137789059e-05
1.02137328226e-05
1.0213690465e-05
1.02136566699e-05
1.02136348162e-05
1.02136270694e-05
1.02136342429e-05
1.02136554629e-05
1.02136884813e-05
1.02137296624e-05
1.02137741711e-05
1.02138152438e-05
1.02138481903e-05
1.02138813298e-05
1.02138521239e-05
1.02138126172e-05
1.02137688661e-05
1.02137282427e-05
1.0213695567e-05
1.02136743413e-05
1.02136667971e-05
1.02136737742e-05
1.02136943654e-05
1.0213726259e-05
1.02137657467e-05
1.02138079797e-05
1.02138461991e-05
1.02138761782e-05
1.02139058684e-05
1.02138783861e-05
1.02138409076e-05
1.02137988853e-05
1.02137594759e-05
1.02137275554e-05
1.02137067461e-05
1.021369933e-05
1.02137061643e-05
1.02137263152e-05
1.02137574201e-05
1.02137957138e-05
1.02138363454e-05
1.0213872601e-05
1.02139008482e-05
1.02139222152e-05
1.02138955299e-05
1.02138592268e-05
1.02138183603e-05
1.02137797725e-05
1.02137483818e-05
1.0213727864e-05
1.02137205338e-05
1.0213727258e-05
1.0213747093e-05
1.02137776443e-05
1.02138151289e-05
1.02138547183e-05
1.0213889807e-05
1.02139173049e-05
1.0213933824e-05
1.02139073065e-05
1.02138719733e-05
1.02138320999e-05
1.02137942916e-05
1.02137634512e-05
1.02137432535e-05
1.02137360184e-05
1.02137426094e-05
1.02137620875e-05
1.02137920598e-05
1.02138287763e-05
1.02138674756e-05
1.02139017232e-05
1.02139289105e-05
1.02139426096e-05
1.02139162161e-05
1.02138817736e-05
1.02138429135e-05
1.02138060332e-05
1.02137759148e-05
1.0213756168e-05
1.0213749074e-05
1.02137554836e-05
1.02137744763e-05
1.02138037091e-05
1.02138395208e-05
1.02138772704e-05
1.0213910758e-05
1.02139377803e-05
1.02139496491e-05
1.02139235095e-05
1.02138899737e-05
1.02138523444e-05
1.02138166651e-05
1.02137875272e-05
1.02137684134e-05
1.02137615266e-05
1.02137676871e-05
1.02137860138e-05
1.02138142582e-05
1.02138489157e-05
1.02138855273e-05
1.02139181938e-05
1.02139450334e-05
1.02139559483e-05
1.02139301918e-05
1.02138977183e-05
1.02138616104e-05
1.02138274717e-05
1.02137996429e-05
1.02137813948e-05
1.02137748039e-05
1.02137806356e-05
1.02137980758e-05
1.02138250173e-05
1.02138581851e-05
1.02138933733e-05
1.02139250506e-05
1.02139515759e-05
1.02139622493e-05
1.02139370188e-05
1.02139058514e-05
1.02138716166e-05
1.02138394386e-05
1.02138132955e-05
1.02137961789e-05
1.02137899804e-05
1.02137953998e-05
1.02138117012e-05
1.02138369779e-05
1.02138682571e-05
1.02139016714e-05
1.02139321286e-05
1.02139581711e-05
1.0213969046e-05
1.02139444752e-05
1.02139148592e-05
1.02138828747e-05
1.02138530977e-05
1.02138290484e-05
1.02138133483e-05
1.02138076514e-05
1.02138125681e-05
1.02138274605e-05
1.02138506792e-05
1.02138796289e-05
1.02139108784e-05
1.02139398642e-05
1.02139652952e-05
1.02139764913e-05
1.02139525534e-05
1.02139246822e-05
1.02138953499e-05
1.02138684511e-05
1.02138469235e-05
1.0213832941e-05
1.02138278571e-05
1.02138321772e-05
1.02138453845e-05
1.0213866123e-05
1.02138922712e-05
1.0213920946e-05
1.02139482206e-05
1.02139730606e-05
1.0213984462e-05
1.02139608483e-05
1.02139348861e-05
1.02139085861e-05
1.02138850163e-05
1.02138664265e-05
1.02138544325e-05
1.02138500707e-05
1.02138537103e-05
1.02138649657e-05
1.02138828306e-05
1.02139057147e-05
1.02139314174e-05
1.02139568167e-05
1.02139813709e-05
1.0213992016e-05
1.02139684438e-05
1.02139447036e-05
1.02139218641e-05
1.02139020559e-05
1.02138867122e-05
1.02138769186e-05
1.0213873347e-05
1.02138762574e-05
1.02138853767e-05
1.02139000549e-05
1.02139192496e-05
1.02139415364e-05
1.02139647283e-05
1.02139892534e-05
1.02139905919e-05
1.02139693297e-05
1.02139498682e-05
1.02139321256e-05
1.02139172657e-05
1.02139059574e-05
1.02138987902e-05
1.02138961702e-05
1.02138982232e-05
1.02139048124e-05
1.02139155447e-05
1.02139298673e-05
1.02139471152e-05
1.02139660209e-05
1.02139880048e-05
9.28373406329e-06
9.2837500157e-06
9.28376956069e-06
9.2837893351e-06
9.28380707743e-06
9.28382089217e-06
9.28382950378e-06
9.28383198463e-06
9.28382799204e-06
9.28381788209e-06
9.28380259993e-06
9.2837836811e-06
9.28376314948e-06
9.28374389169e-06
9.28372770134e-06
9.28373430058e-06
9.28375029117e-06
9.28376961248e-06
9.28378943715e-06
9.2838072814e-06
9.2838212339e-06
9.28382995217e-06
9.28383245875e-06
9.28382839061e-06
9.28381812609e-06
9.28380266431e-06
9.28378360647e-06
9.28376305096e-06
9.28374391627e-06
9.28372815697e-06
9.28372021945e-06
9.28373504107e-06
9.28375301537e-06
9.28377208191e-06
9.28378941047e-06
9.28380310231e-06
9.28381169054e-06
9.28381417326e-06
9.28381016585e-06
9.28380007367e-06
9.28378493746e-06
9.28376641604e-06
9.28374665104e-06
9.28372861016e-06
9.28371413457e-06
9.28370804161e-06
9.28372196019e-06
9.28373904273e-06
9.28375748853e-06
9.28377446213e-06
9.28378799897e-06
9.28379652572e-06
9.28379901116e-06
9.28379505518e-06
9.28378508422e-06
9.28377017532e-06
9.28375203452e-06
9.28373283481e-06
9.28371555453e-06
9.283701858e-06
9.28369976592e-06
9.28371320444e-06
9.28372975878e-06