/*--------------------------------*- C++ -*----------------------------------*\
  =========                 |
  \\      /  F ield         | OpenFOAM: The Open Source CFD Toolbox
   \\    /   O peration     | Website:  https://openfoam.org
    \\  /    A nd           | Version:  7
     \\/     M anipulation  |
\*---------------------------------------------------------------------------*/
FoamFile
{
    version     2.0;
    format      ascii;
    class       volVectorField;
    location    "1.46";
    object      U;
}
// * * * * * * * * * * * * * * * * * * * * * * * * * * * * * * * * * * * * * //

dimensions      [0 1 -1 0 0 0 0];

internalField   nonuniform List<vector> 
22500
(
(1.23094706134e-05 1.38073185268e-05 0.000187481721901)
(1.14541423365e-05 1.55690011114e-05 0.000196783848816)
(1.00276733501e-05 1.73426308748e-05 0.000205242781595)
(8.43050661044e-06 1.88486923821e-05 0.000212540059275)
(6.55322322544e-06 2.00940076523e-05 0.000218450494054)
(4.48657837185e-06 2.10187224502e-05 0.00022279742391)
(2.27984819991e-06 2.1588640679e-05 0.000225458115492)
(4.61898511304e-10 2.17814071791e-05 0.000226358632502)
(-2.27893858779e-06 2.15887044121e-05 0.000225458106046)
(-4.48570794703e-06 2.10188449493e-05 0.000222797408496)
(-6.55241699144e-06 2.00941754844e-05 0.000218450475109)
(-8.42978572129e-06 1.88488906725e-05 0.000212540042475)
(-1.00270701336e-05 1.73428327406e-05 0.000205242803048)
(-1.14536211205e-05 1.55692301392e-05 0.000196784145685)
(-1.23091263812e-05 1.3807536221e-05 0.00018748347277)
(3.58565950813e-05 4.02404137042e-05 0.000492664262619)
(3.3298941869e-05 4.52675428228e-05 0.00051361155102)
(2.92413136195e-05 5.02783245888e-05 0.000532438293493)
(2.45580528591e-05 5.45727217382e-05 0.000548525216217)
(1.90977261425e-05 5.81245579547e-05 0.000561449901905)
(1.30738686173e-05 6.07645018247e-05 0.000570897467326)
(6.64310848161e-06 6.23930021243e-05 0.000576655591276)
(1.19823619928e-09 6.29437044396e-05 0.000578597535031)
(-6.64074502421e-06 6.23931446719e-05 0.000576655563815)
(-1.30715992408e-05 6.07647748872e-05 0.000570897419487)
(-1.90956095883e-05 5.81249306426e-05 0.000561449836959)
(-2.45561422678e-05 5.4573159377e-05 0.000548525146432)
(-2.92396730882e-05 5.02787694685e-05 0.000532438319605)
(-3.32975237183e-05 4.5268047725e-05 0.000513612355442)
(-3.58556443867e-05 4.02409024547e-05 0.000492668506016)
(5.41086642967e-05 6.06179666896e-05 0.000740416496863)
(4.99988794089e-05 6.78254279671e-05 0.000768219672557)
(4.38178477022e-05 7.49506928706e-05 0.00079294189825)
(3.66900878156e-05 8.10432332256e-05 0.00081389458843)
(2.84745210638e-05 8.60622848893e-05 0.000830613547069)
(1.94618266188e-05 8.97831735871e-05 0.000842771114269)
(9.87924414773e-06 9.20745645177e-05 0.000850153791995)
(1.744396957e-09 9.28487003768e-05 0.000852636624881)
(-9.87579815769e-06 9.20747369564e-05 0.000850153729102)
(-1.94585041408e-05 8.97835029498e-05 0.00084277099665)
(-2.847139858e-05 8.60627334939e-05 0.000830613373561)
(-3.66872335089e-05 8.10437559807e-05 0.000813894367409)
(-4.38153401702e-05 7.49512267818e-05 0.000792941753205)
(-4.9996676069e-05 6.78260448422e-05 0.00076822052815)
(-5.41071289468e-05 6.06185932086e-05 0.00074042201355)
(6.81879756049e-05 7.62444634498e-05 0.000942114395494)
(6.27035467994e-05 8.48081570673e-05 0.000973418636952)
(5.48047982255e-05 9.32305577582e-05 0.00100094128352)
(4.57471784917e-05 0.00010039451001 0.00102407231289)
(3.54233271887e-05 0.000106271503739 0.00104240146219)
(2.41692433544e-05 0.000110614510668 0.00105565940001)
(1.2255803537e-05 0.000113283469665 0.0010636802798)
(2.15683774206e-09 0.000114184132655 0.00106637071925)
(-1.22515390876e-05 0.000113283661295 0.00106368014931)
(-2.41651221831e-05 0.000110614876002 0.00105565914388)
(-3.54194376217e-05 0.000106272001707 0.00104240106714)
(-4.57435960205e-05 0.000100395088749 0.00102407176628)
(-5.48016045101e-05 9.32311514924e-05 0.00100094067817)
(-6.27007044015e-05 8.48088467235e-05 0.000973418931979)
(-6.81859115199e-05 7.6245181234e-05 0.000942119646279)
(7.89321414198e-05 8.81134698686e-05 0.00110634174003)
(7.22535010849e-05 9.74104943276e-05 0.00113877187258)
(6.29687293405e-05 0.000106524310492 0.00116693681983)
(5.24012597398e-05 0.000114229143833 0.00119039315759)
(4.04837815829e-05 0.000120522058934 0.0012088421522)
(2.75744481478e-05 0.000125157041032 0.00122211099754)
(1.39678344353e-05 0.000127999222418 0.00123010652586)
(2.46711180249e-09 0.000128957216511 0.00123278157773)
(-1.3962953999e-05 0.000127999432691 0.00123010630633)
(-2.7569724907e-05 0.000125157441984 0.00122211055418)
(-4.04793117766e-05 0.000120522607438 0.00120884144859)
(-5.23971223922e-05 0.000114229783902 0.00119039213665)
(-6.29650003349e-05 0.000106524972039 0.00116693548921)
(-7.22501460379e-05 9.74112633951e-05 0.00113877110049)
(-7.89296078889e-05 8.81142812781e-05 0.0011063456318)
(8.67921183047e-05 9.67394960409e-05 0.0012397819008)
(7.90966057087e-05 0.000106258405622 0.00127166534719)
(6.8719235577e-05 0.000115572060538 0.00129898410679)
(5.70112176912e-05 0.000123394545876 0.00132150707291)
(4.39442028967e-05 0.00012975321816 0.0013390771597)
(2.98797506416e-05 0.000134420724272 0.00135163466045)
(1.511970137e-05 0.000137276363124 0.00135916847174)
(2.70358102641e-09 0.000138237769055 0.00136168237545)
(-1.51143512811e-05 0.000137276596536 0.00135916815258)
(-2.98745678785e-05 0.000134421170215 0.00135163400258)
(-4.39392888267e-05 0.000129753832109 0.00133907609101)
(-5.70066526025e-05 0.000123395268692 0.00132150546746)
(-6.87150838308e-05 0.000115572819129 0.0012989818435)
(-7.90928318804e-05 0.000106259285491 0.00127166315466)
(-8.67891747765e-05 9.67404346472e-05 0.00123978386766)
(9.21354950175e-05 0.000102530350351 0.00134778619906)
(8.35961662426e-05 0.000111854770381 0.00137797484441)
(7.23918046567e-05 0.00012097006947 0.00140345682014)
(5.98709899589e-05 0.000128573791656 0.00142422881226)
(4.60409207696e-05 0.000134723077334 0.0014402846026)
(3.12510485384e-05 0.0001392213369 0.00145167901807)
(1.57969880899e-05 0.000141967067956 0.00145848160832)
(2.89116117071e-09 0.000142890411149 0.00146074509549)
(-1.57912655665e-05 0.000141967333745 0.00145848118686)
(-3.12455013367e-05 0.000139221846376 0.00145167813482)
(-4.60356538247e-05 0.000134723785163 0.00144028313795)
(-5.98660833848e-05 0.00012857463536 0.00142422655058)
(-7.23873097079e-05 0.000120970973455 0.00140345348506)
(-8.35920431067e-05 0.000111855813273 0.00137797103458)
(-9.21321935898e-05 0.000102531468243 0.00134778602034)
(9.53134558467e-05 0.000105878916893 0.00143473209757)
(8.60968598379e-05 0.000114682489236 0.00146247928935)
(7.43050752749e-05 0.00012328677992 0.00148551257053)
(6.12590380597e-05 0.000130413451422 0.00150405026227)
(4.69973760251e-05 0.000136145792096 0.00151823044368)
(3.18448917803e-05 0.000140324854375 0.00152821316517)
(1.60803418706e-05 0.000142869976397 0.00153413984788)
(3.05135377215e-09 0.00014372493034 0.00153610574895)
(-1.60743013592e-05 0.000142870286478 0.00153413932821)
(-3.18390333175e-05 0.000140325451814 0.00152821206065)
(-4.69918073604e-05 0.000136146630657 0.00151822857836)
(-6.12538390948e-05 0.000130414465317 0.00150404731711)
(-7.43002843181e-05 0.000123287889688 0.00148550810583)
(-8.60924353102e-05 0.000114683762044 0.00146247382346)
(-9.5309841841e-05 0.000105880277789 0.0014347298067)
(9.66476597682e-05 0.000107147776007 0.00150425597606)
(8.69112289921e-05 0.000115182695603 0.00152912554189)
(7.47469961544e-05 0.00012303659143 0.00154938814507)
(6.14264369481e-05 0.000129493694081 0.00156546223445)
(4.70145714116e-05 0.000134658527246 0.0015776122361)
(3.18017840012e-05 0.000138412007712 0.00158608683781)
(1.60420211186e-05 0.000140693214312 0.00159108592082)
(3.2031716018e-09 0.000141458784019 0.00159273830387)
(-1.6035678957e-05 0.000140693581619 0.00159108531513)
(-3.1795629666e-05 0.0001384127196 0.00158608553484)
(-4.70087152258e-05 0.000134659536833 0.00157760999999)
(-6.14209596217e-05 0.000129494931905 0.00156545863848)
(-7.47419261789e-05 0.000123037972698 0.00154938259522)
(-8.69065285665e-05 0.000115184270067 0.00152911855045)
(-9.66437691551e-05 0.000107149449205 0.0015042518251)
(9.64256386466e-05 0.000106662672205 0.00155940776808)
(8.63154148479e-05 0.000113745813754 0.00158120268293)
(7.39709272373e-05 0.000120669696104 0.00159859295423)
(6.05939583115e-05 0.000126317942044 0.00161216472005)
(4.62689368738e-05 0.000130811252896 0.00162228321201)
(3.12447192211e-05 0.000134068201659 0.00162926487315)
(1.57451423732e-05 0.000136044326102 0.00163335230981)
(3.36341555246e-09 0.000136707023773 0.0016346978509)
(-1.57384811481e-05 0.000136044762053 0.00163335164317)
(-3.1238250216e-05 0.000134069051532 0.00162926342432)
(-4.62627733956e-05 0.00013081247015 0.00162228068923)
(-6.05881837785e-05 0.00012631945372 0.00161216059558)
(-7.39655659048e-05 0.000120671410548 0.00159858650191)
(-8.63104407327e-05 0.00011374775839 0.00158119449609)
(-9.64214923107e-05 0.000106664725492 0.00155940223917)
(9.49034631372e-05 0.000104716693497 0.00160275466653)
(8.45521504795e-05 0.00011071410168 0.00162145916513)
(7.21992706225e-05 0.000116574877215 0.00163604005481)
(5.89556599505e-05 0.000121317788692 0.00164721017592)
(4.49151195541e-05 0.000125073668002 0.00165540563851)
(3.02809576936e-05 0.000127791750443 0.00166098817196)
(1.52445288578e-05 0.000129439177049 0.00166422700109)
(3.54636912342e-09 0.000129991401226 0.00166528800568)
(-1.52375022925e-05 0.000129439688727 0.00166422632026)
(-3.02741256765e-05 0.00012779275368 0.00166098667906)
(-4.49085987119e-05 0.000125075118232 0.00165540300065)
(-5.8949539632e-05 0.000121319611094 0.00164720578308)
(-7.21935784779e-05 0.000116576972406 0.00163603307764)
(-8.45468812946e-05 0.000110716471946 0.00162145036593)
(-9.48990614277e-05 0.000104719182417 0.00160274853054)
(9.23066606528e-05 0.000101573462209 0.00163645014649)
(8.18345837513e-05 0.000106381714852 0.001652183784)
(6.96295139834e-05 0.000111081638076 0.00166413943971)
(5.66839466227e-05 0.000114859190344 0.00167310697306)
(4.30890690376e-05 0.000117843793137 0.00167956247288)
(2.90035918787e-05 0.000120003458973 0.00168389164712)
(1.45873505548e-05 0.000121311861581 0.00168637545411)
(3.76305047975e-09 0.000121750351695 0.00168718426987)
(-1.45798899393e-05 0.000121312448915 0.00168637483943)
(-2.89963251717e-05 0.000120004616311 0.00168389028777)
(-4.30821166238e-05 0.000117845481142 0.00167956002532)
(-5.66774075052e-05 0.000114861335774 0.00167310277927)
(-6.96234287056e-05 0.000111084135627 0.00166413259185)
(-8.18289774334e-05 0.000106384539988 0.00165217527364)
(-9.23019791001e-05 0.000101576420566 0.00163644454507)
(8.88272910506e-05 9.74515837299e-05 0.00166227700031)
(7.83578013223e-05 0.000100985203595 0.00167526575641)
(6.64463788161e-05 0.000104465015001 0.00168487059819)
(5.39357114139e-05 0.000107253761134 0.00169189984433)
(4.09098644668e-05 0.000109460930056 0.00169684430886)
(2.74917379312e-05 0.000111059233106 0.00170009651253)
(1.38130144161e-05 0.000112026879151 0.0017019364289)
(4.02014463922e-09 0.000112351030376 0.00170253109513)
(-1.38050380559e-05 0.000112027531238 0.00170193600528)
(-2.74839514662e-05 0.000111060524474 0.0017000955655)
(-4.09023914364e-05 0.000109462829926 0.00169684253926)
(-5.39286647431e-05 0.000107256204664 0.00169189660937)
(-6.64398228499e-05 0.000104467896453 0.0016848649234)
(-7.83518018167e-05 0.00010098847424 0.00167525881175)
(-8.88222938878e-05 9.74549987453e-05 0.00166227339177)
(8.46644917922e-05 9.25092268836e-05 0.00168166677396)
(7.43480548603e-05 9.47432337087e-05 0.00169225339722)
(6.28391643952e-05 9.69710586279e-05 0.00169984868224)
(5.08497606983e-05 9.87876838375e-05 0.00170523737272)
(3.84737754941e-05 0.000100228635364 0.00170892083527)
(2.58061439046e-05 0.000101269366751 0.00171128607901)
(1.295111312e-05 0.000101897052602 0.00171260084659)
(4.31769694862e-09 0.000102106939159 0.00171302182367)
(-1.29425388059e-05 0.000101897746123 0.00171260078204)
(-2.57977525784e-05 0.000101270746578 0.00171128592279)
(-3.84656925834e-05 0.000100230681985 0.00170892042344)
(-5.08421154391e-05 9.87903499721e-05 0.00170523621133)
(-6.2832055576e-05 9.69742542515e-05 0.00169984578075)
(-7.43416011824e-05 9.47468913828e-05 0.00169224979524)
(-8.46591201861e-05 9.25130562213e-05 0.00168166675797)
(8.0102532219e-05 8.72078992387e-05 0.00169572700514)
(7.00872394052e-05 8.75708047062e-05 0.00170448900768)
(5.89243178586e-05 8.86813601351e-05 0.00171039762538)
(4.74986619488e-05 8.95752912054e-05 0.00171443378016)
(3.58267534254e-05 9.02752826377e-05 0.00171710409728)
(2.39764909373e-05 9.07714147717e-05 0.00171877238628)
(1.2016734245e-05 9.10666734595e-05 0.0017196808366)
(4.64837897767e-09 9.11648850885e-05 0.00171996855292)
(-1.20074956432e-05 9.10673636812e-05 0.00171968127612)
(-2.39674272721e-05 9.0772793382e-05 0.00171877335337)
(-3.58179888048e-05 9.02773424862e-05 0.00171710566904)
(-4.7490337146e-05 8.95780103738e-05 0.00171443584568)
(-5.89165722417e-05 8.86846791025e-05 0.00171039935553)
(-7.00802937589e-05 8.7574693116e-05 0.00170449199244)
(-8.00966760049e-05 8.72119966053e-05 0.00169573037852)
(2.77221329688e-07 4.41842083769e-07 0.000130971754762)
(1.76217375291e-07 5.73515816678e-07 0.000137426004062)
(1.32986854426e-07 6.49859012286e-07 0.000143254537703)
(9.25258637873e-08 7.0842917886e-07 0.000148276783472)
(5.97729321192e-08 7.5002482915e-07 0.000152344628737)
(3.46581540244e-08 7.77277454442e-07 0.00015533686504)
(1.56085900561e-08 7.92535869875e-07 0.000157169363477)
(1.78830962368e-10 7.97470532429e-07 0.000157790663409)
(-1.52444893372e-08 7.92568713512e-07 0.000157169364541)
(-3.42752757124e-08 7.77342418413e-07 0.000155336871632)
(-5.93702799938e-08 7.50116300275e-07 0.000152344649179)
(-9.21299281103e-08 7.08536351767e-07 0.00014827683851)
(-1.32641770186e-07 6.49973070916e-07 0.000143254700253)
(-1.75937784658e-07 5.73627434444e-07 0.000137426586779)
(-2.77070779659e-07 4.41947382884e-07 0.000130973909507)
(2.45706004019e-06 3.00724483486e-06 0.000376994583975)
(2.12967747322e-06 3.66929791515e-06 0.000394599250014)
(1.86864232759e-06 4.22276582483e-06 0.000410455652901)
(1.56271171902e-06 4.70423717471e-06 0.000424084555504)
(1.21322853062e-06 5.09400873162e-06 0.000435100258569)
(8.29249568622e-07 5.38068595896e-06 0.000443191847118)
(4.20928359626e-07 5.55611128296e-06 0.000448141544852)
(5.92734681294e-10 5.61530879055e-06 0.000449815023193)
(-4.19731580762e-07 5.55620278847e-06 0.000448141535437)
(-8.28022031167e-07 5.38086330613e-06 0.000443191840725)
(-1.21197560296e-06 5.0942541475e-06 0.000435100279921)
(-1.56149466194e-06 4.70452378155e-06 0.000424084666925)
(-1.86757177646e-06 4.2230715483e-06 0.000410456071123)
(-2.12880787175e-06 3.66961104058e-06 0.000394600892689)
(-2.45656590481e-06 3.00755624314e-06 0.000377000202291)
(5.85361079944e-06 6.81948107596e-06 0.000607423881445)
(5.25018434012e-06 8.17089051306e-06 0.000634640628516)
(4.66297651675e-06 9.3794461333e-06 0.000659063337551)
(3.94176606399e-06 1.04487474382e-05 0.000679992851394)
(3.08766313056e-06 1.1327921548e-05 0.000696866663127)
(2.12442740883e-06 1.198179525e-05 0.00070923829115)
(1.0828399666e-06 1.23849538194e-05 0.000716795115138)
(1.02774501387e-09 1.25214241998e-05 0.000719344882183)
(-1.08077515426e-06 1.2385093752e-05 0.000716795061906)
(-2.12233963036e-06 1.19820628126e-05 0.000709238202258)
(-3.08556857165e-06 1.13282864794e-05 0.000696866573859)
(-3.93974435604e-06 1.04491695464e-05 0.000679992854594)
(-4.6611768973e-06 9.37989522526e-06 0.000659063753419)
(-5.24870450797e-06 8.17137773002e-06 0.000634642801062)
(-5.85271891701e-06 6.82000166294e-06 0.000607431769999)
(9.93048270801e-06 1.12939919045e-05 0.000822226511284)
(9.00058732448e-06 1.33759796623e-05 0.000857407270648)
(8.01526169544e-06 1.52746528702e-05 0.000888805739213)
(6.78680935545e-06 1.69639916702e-05 0.000915600947619)
(5.3231560634e-06 1.83584301683e-05 0.000937127313743)
(3.66585693069e-06 1.93979092606e-05 0.000952867465832)
(1.86958760928e-06 2.00397330182e-05 0.000962462531295)
(1.46181770711e-09 2.02570498295e-05 0.000965693907812)
(-1.86666101838e-06 2.00399168439e-05 0.000962462375219)
(-3.6629278203e-06 1.93982600967e-05 0.000952867171896)
(-5.3202555032e-06 1.83589102866e-05 0.000937126918063)
(-6.7840294946e-06 1.69645536042e-05 0.000915600553731)
(-8.01277052787e-06 1.52752576897e-05 0.00088880571504)
(-8.99851506548e-06 1.33766595575e-05 0.00085740919252)
(-9.9291619557e-06 1.12947450375e-05 0.000822235072932)
(1.42586372529e-05 1.59657217856e-05 0.0010206592695)
(1.296450262e-05 1.87392519906e-05 0.00106201617931)
(1.15433950232e-05 2.12717115494e-05 0.00109866307135)
(9.76560465187e-06 2.35279301584e-05 0.00112976564352)
(7.6533758113e-06 2.53903181715e-05 0.00115463699036)
(5.26719060811e-06 2.67779458167e-05 0.00117275812847)
(2.68521509175e-06 2.76343384206e-05 0.00118377616047)
(1.87853055314e-09 2.79241487598e-05 0.00118747961337)
(-2.68146361956e-06 2.76345638752e-05 0.00118377584991)
(-5.26346284418e-06 2.67783773066e-05 0.00117275751937)
(-7.64971867501e-06 2.53909145725e-05 0.00115463610535)
(-9.76211965846e-06 2.35286401161e-05 0.00112976456851)
(-1.1540256036e-05 2.12724881673e-05 0.00109866215884)
(-1.2961856223e-05 1.87401381307e-05 0.00106201710967)
(-1.4256862003e-05 1.5966719491e-05 0.00102066717683)
(1.85427086723e-05 2.05261570675e-05 0.00120194225097)
(1.68607214094e-05 2.39016705398e-05 0.00124762551628)
(1.49905530532e-05 2.69581393471e-05 0.00128774967002)
(1.26569595458e-05 2.96783424228e-05 0.00132157384252)
(9.90242048861e-06 3.19190388392e-05 0.0013484690551)
(6.80609193041e-06 3.35853354163e-05 0.00136797909808)
(3.4669623866e-06 3.46122757023e-05 0.00137980475678)
(2.26860890256e-09 3.4959482033e-05 0.00138377159429)
(-3.46243980398e-06 3.46125411784e-05 0.00137980425803)
(-6.80162010454e-06 3.35858457093e-05 0.00136797809887)
(-9.89806100576e-06 3.19197518595e-05 0.00134846754775)
(-1.26528199836e-05 2.96792045492e-05 0.00132157186341)
(-1.49868061333e-05 2.6959097725e-05 0.00128774749869)
(-1.68575169735e-05 2.3902771272e-05 0.00124762486515)
(-1.85404596576e-05 2.05274001994e-05 0.00120194860943)
(2.25600310699e-05 2.4749926719e-05 0.00136558770277)
(2.04812724898e-05 2.86030454273e-05 0.00141379190726)
(1.81684751709e-05 3.20418707e-05 0.00145569186247)
(1.53008626786e-05 3.50938751933e-05 0.00149073426463)
(1.19445300956e-05 3.75989073954e-05 0.0015184149332)
(8.19590507231e-06 3.94563583934e-05 0.00153839210265)
(4.17063430278e-06 4.05987900211e-05 0.00155045731209)
(2.62850599445e-09 4.09845973392e-05 0.00155449569205)
(-4.16540031287e-06 4.05990944717e-05 0.00155045661651)
(-8.19074635653e-06 3.94569465311e-05 0.00153839068855)
(-1.19395205576e-05 3.75997375662e-05 0.001518412746)
(-1.52961134258e-05 3.5094892664e-05 0.00149073126091)
(-1.81641531661e-05 3.20430167022e-05 0.00145568820348)
(-2.04775260797e-05 2.86043666329e-05 0.00141378931528)
(-2.25572936246e-05 2.47514104448e-05 0.00136559199934)
(2.61443749515e-05 2.84728745766e-05 0.00151152208737)
(2.36745050294e-05 3.26571527899e-05 0.00156058214313)
(2.09422701596e-05 3.63216767695e-05 0.00160272363889)
(1.75850860267e-05 3.95599888916e-05 0.00163765350564)
(1.36932184225e-05 4.22051783099e-05 0.00166504000853)
(9.37797578687e-06 4.41592545886e-05 0.00168469014917)
(4.76662124651e-06 4.53580988032e-05 0.00169650954772)
(2.95937959113e-09 4.57624178537e-05 0.00170045636765)
(-4.7607325466e-06 4.53584413775e-05 0.00169650867804)
(-9.37218275006e-06 4.41599197843e-05 0.00168468835984)
(-1.3687604514e-05 4.22061257841e-05 0.00166503718463)
(-1.75797643377e-05 3.95611636325e-05 0.00163764949967)
(-2.09373988903e-05 3.6323014497e-05 0.00160271846392)
(-2.36702309119e-05 3.26586969641e-05 0.00156057754402)
(-2.6141144245e-05 2.84745960735e-05 0.00151152419454)
(2.91802910416e-05 3.15845060498e-05 0.00164009172816)
(2.63383428873e-05 3.59425611481e-05 0.00168855369623)
(2.32237079843e-05 3.96744700561e-05 0.00172963810896)
(1.94387181151e-05 4.29528689263e-05 0.00176335733027)
(1.50956868798e-05 4.56148567382e-05 0.00178957677591)
(1.03175231751e-05 4.75725834188e-05 0.00180826775492)
(5.23770121745e-06 4.87701670865e-05 0.00181945920935)
(3.26467541638e-09 4.91734680056e-05 0.00182318685684)
(-5.23120723202e-06 4.87705459114e-05 0.00181945822698)
(-1.03111401629e-05 4.75733226631e-05 0.00180826571073)
(-1.50895051671e-05 4.56159185995e-05 0.00178957348733)
(-1.9432851936e-05 4.29541988002e-05 0.00176335253039)
(-2.32183070447e-05 3.96759995951e-05 0.00172963164713)
(-2.63335527771e-05 3.59443269007e-05 0.00168854737477)
(-2.91765683333e-05 3.15864613184e-05 0.00164009193437)
(3.15965727362e-05 3.40201148006e-05 0.00175200530438)
(2.84130255387e-05 3.83926575117e-05 0.00179866926987)
(2.49639003528e-05 4.20413736652e-05 0.00183767258874)
(2.08251643813e-05 4.52218482315e-05 0.00186934621075)
(1.61268163659e-05 4.77858977499e-05 0.00189375347368)
(1.09992176124e-05 4.96619170194e-05 0.0019110281759)
(5.57669010172e-06 5.08057934143e-05 0.00192131960039)
(3.54855254036e-09 5.11904042623e-05 0.00192473802181)
(-5.5696319529e-06 5.08062044053e-05 0.00192131861436)
(-1.0992280705e-05 4.966272283e-05 0.00191102609773)
(-1.612009562e-05 4.7787064431e-05 0.00189375005498)
(-2.08187747888e-05 4.52233231992e-05 0.00186934106061)
(-2.4957984714e-05 4.20430865495e-05 0.00183766538763)
(-2.84077311837e-05 3.83946368586e-05 0.00179866192349)
(-3.15923621716e-05 3.40222955997e-05 0.00175200436878)
(3.33590535143e-05 3.57528901048e-05 0.00184824393422)
(2.98735818241e-05 3.99852734514e-05 0.0018921838393)
(2.61459754731e-05 4.34133685462e-05 0.00192837272263)
(2.1735405707e-05 4.63716853912e-05 0.00195743546597)
(1.67834825829e-05 4.87367015392e-05 0.00197961208461)
(1.14230242701e-05 5.04572112353e-05 0.00199518402865)
(5.78423606379e-06 5.15026152814e-05 0.00200440927929)
(3.81379232911e-09 5.18535479848e-05 0.00200746434933)
(-5.77664948758e-06 5.1503050531e-05 0.00200440845641)
(-1.14155646913e-05 5.04580687819e-05 0.00199518226056)
(-1.67762473518e-05 4.87379528624e-05 0.00197960907188)
(-2.172851074e-05 4.63732827704e-05 0.00195743070135)
(-2.61395592486e-05 4.3415242766e-05 0.00192836571467)
(-2.98677962975e-05 3.99874470607e-05 0.00189217664031)
(-3.33543625185e-05 3.57552788e-05 0.00184824316345)
(3.44619756798e-05 3.67848326241e-05 0.0019299548564)
(3.07217143832e-05 4.07307859182e-05 0.00197052854542)
(2.67782183941e-05 4.38162402761e-05 0.00200346430903)
(2.21822622129e-05 4.64454659525e-05 0.00202960910829)
(1.70798552942e-05 4.8527464532e-05 0.00204934461731)
(1.1600770298e-05 5.00329075013e-05 0.00206308021514)
(5.86699085477e-06 5.09443533202e-05 0.00207116690673)
(4.06063433301e-09 5.12498213131e-05 0.00207383611981)
(-5.85891145317e-06 5.09448007975e-05 0.00207116647962)
(-1.15928203398e-05 5.00337929797e-05 0.00206307924366)
(-1.70721329807e-05 4.85287673863e-05 0.00204934278515)
(-2.21748839981e-05 4.64471464163e-05 0.00202960581675)
(-2.67713206683e-05 4.38182357318e-05 0.00200345888022)
(-3.07154568931e-05 4.07331160394e-05 0.00197052317959)
(-3.44568147358e-05 3.67873975886e-05 0.00192995616046)
(3.49175428435e-05 3.71316572139e-05 0.00199833351117)
(3.09795724392e-05 4.06563821587e-05 0.00203521510903)
(2.68908940949e-05 4.32964679944e-05 0.0020647561401)
(2.21978969462e-05 4.55101720368e-05 0.00208790446621)
(1.70449492109e-05 4.72455819229e-05 0.00210516135331)
(1.1554113871e-05 4.84928475369e-05 0.00211705151494)
(5.83645648425e-06 4.92452604332e-05 0.00212400308268)
(4.28642741751e-09 4.94970182444e-05 0.00212628943644)
(-5.82792633153e-06 4.92457037957e-05 0.00212400334748)
(-1.15457140667e-05 4.84937292303e-05 0.00211705196807)
(-1.7036777462e-05 4.72468902146e-05 0.00210516172663)
(-2.2190069833e-05 4.55118799427e-05 0.00208790413234)
(-2.68835469019e-05 4.32985251035e-05 0.00206475420173)
(-3.09728745556e-05 4.06588123914e-05 0.00203521376083)
(-3.49119374683e-05 3.71343440151e-05 0.00199833921692)
(3.4767616911e-05 3.68163497847e-05 0.00205448954799)
(3.07034941391e-05 3.98447206396e-05 0.00208781386831)
(2.65465624751e-05 4.19392528688e-05 0.0021140987636)
(2.18371065213e-05 4.36681016048e-05 0.00213433365956)
(1.67228621792e-05 4.5009828165e-05 0.00214919317084)
(1.13136913955e-05 4.59682064169e-05 0.00215931651107)
(5.70827702008e-06 4.65440179487e-05 0.0021651907604)
(4.48569171348e-09 4.67363159607e-05 0.0021671156558)
(-5.69934910435e-06 4.65444387014e-05 0.00216519204739)
(-1.13048957111e-05 4.5969047127e-05 0.00215931909973)
(-1.6714295291e-05 4.50110865e-05 0.00214919695176)
(-2.18288839378e-05 4.36697665772e-05 0.0021343381368)
(-2.65388171459e-05 4.19412962428e-05 0.00211410285202)
(-3.06964028353e-05 3.98471769173e-05 0.00208781926523)
(-3.4761592296e-05 3.68191009449e-05 0.00205450200349)
(3.40528761142e-05 3.63645208483e-05 0.00209942974165)
(2.9974680838e-05 3.85067127139e-05 0.00213024908387)
(2.58065568934e-05 3.99151972825e-05 0.00215340874568)
(2.11509213547e-05 4.10687059362e-05 0.00217082967933)
(1.61540195687e-05 4.19489974308e-05 0.0021834193141)
(1.09072642961e-05 4.25714267461e-05 0.0021919022974)
(5.49657147459e-06 4.29426445015e-05 0.00219678993178)
(4.65228896559e-09 4.30661648494e-05 0.00219838621111)
(-5.48731245994e-06 4.29430162206e-05 0.00219679248516)
(-1.08981418441e-05 4.2572173395e-05 0.00219190755434)
(-1.61451296284e-05 4.19501254067e-05 0.0021834274515)
(-2.11423752526e-05 4.1070221482e-05 0.00217084063283)
(-2.57984806451e-05 3.99170962779e-05 0.00215342147618)
(-2.99672807938e-05 3.85090685347e-05 0.00213026564743)
(-3.40464361674e-05 3.63671902707e-05 0.00209944864715)
(-6.46851345105e-08 -1.29799307717e-07 9.38422662109e-05)
(-1.76794467817e-08 -1.84118466346e-07 9.84632421111e-05)
(1.43107475465e-08 -2.16442673997e-07 0.000102617913947)
(3.61200108962e-08 -2.34230590427e-07 0.000106202677593)
(4.35268707182e-08 -2.40896764225e-07 0.000109109453542)
(3.78243649599e-08 -2.4138875044e-07 0.000111250131433)
(2.18639108888e-08 -2.39815761402e-07 0.000112562429086)
(2.17733795952e-10 -2.38948937077e-07 0.00011300795407)
(-2.14365407918e-08 -2.39786350237e-07 0.000112562516316)
(-3.74201019574e-08 -2.41330199025e-07 0.000111250307069)
(-4.31539148811e-08 -2.40808386298e-07 0.000109109723298)
(-3.57646570753e-08 -2.34108972513e-07 0.00010620306767)
(-1.39871088053e-08 -2.16311193178e-07 0.000102618509559)
(1.79477815904e-08 -1.83973188377e-07 9.84643284059e-05)
(6.48741271712e-08 -1.29668491351e-07 9.38447807403e-05)
(4.62679181113e-08 -8.51992650084e-08 0.000280988995153)
(1.56622238546e-07 -1.65212271623e-07 0.000294577905132)
(2.24239358677e-07 -1.95302911239e-07 0.000306816543104)
(2.55183888325e-07 -1.91338902893e-07 0.000317374165382)
(2.41713884559e-07 -1.65652776857e-07 0.000325934720275)
(1.8780725344e-07 -1.33910260013e-07 0.000332239997622)
(1.02766886155e-07 -1.09021595283e-07 0.000336104600958)
(6.43658152238e-10 -9.96479176909e-08 0.000337412991605)
(-1.01499067208e-07 -1.08941978337e-07 0.000336104841705)
(-1.86595350156e-07 -1.33751206467e-07 0.000332240484139)
(-2.40580351152e-07 -1.65413286946e-07 0.000325935473512)
(-2.54117606032e-07 -1.91015855511e-07 0.000317375268037)
(-2.23270366024e-07 -1.94944105623e-07 0.000306818252351)
(-1.55810644135e-07 -1.64811143382e-07 0.000294581064327)
(-4.56915946336e-08 -8.4823315123e-08 0.000280995851599)
(4.228259904e-07 2.84997122521e-07 0.000465676565466)
(5.67755558924e-07 2.61185944726e-07 0.000487887219399)
(6.39440199714e-07 3.04518413058e-07 0.000507883474928)
(6.42816568896e-07 3.91440847463e-07 0.000525120614606)
(5.68602219923e-07 4.98366291848e-07 0.000539089114345)
(4.24495746489e-07 5.97894739868e-07 0.000549373777043)
(2.27229670169e-07 6.67616164273e-07 0.000555674423327)
(1.04924990874e-09 6.92683968272e-07 0.00055780395568)
(-2.25157713234e-07 6.67733410056e-07 0.000555674772748)
(-4.22500319969e-07 5.98129555372e-07 0.000549374486941)
(-5.66719133355e-07 4.98721228033e-07 0.000539090223332)
(-6.41050843492e-07 3.91916441048e-07 0.000525122257386)
(-6.378395294e-07 3.05061811978e-07 0.000507886046616)
(-5.66397868744e-07 2.6179706095e-07 0.000487891985849)
(-4.21847844525e-07 2.85602059351e-07 0.000465686780691)
(1.13551767231e-06 1.05007076077e-06 0.000647023028241)
(1.28884570276e-06 1.17046279102e-06 0.000677357308299)
(1.33008009968e-06 1.36941264822e-06 0.000704615584957)
(1.26237087547e-06 1.61096232965e-06 0.000728076903284)
(1.07630417104e-06 1.85749662855e-06 0.000747065064368)
(7.85009105409e-07 2.06785489036e-06 0.00076103213911)
(4.14577898979e-07 2.20875715699e-06 0.000769581568347)
(1.43639372461e-09 2.25838632686e-06 0.000772467201863)
(-4.11736966737e-07 2.20891202019e-06 0.000769581957732)
(-7.82260519326e-07 2.06816447157e-06 0.000761032936356)
(-1.07369704175e-06 1.85796220054e-06 0.000747066325927)
(-1.25993145439e-06 1.61158075119e-06 0.00072807880449)
(-1.32787470743e-06 1.37013383842e-06 0.00070461861132)
(-1.28695939043e-06 1.17128230744e-06 0.000677362999475)
(-1.13413156959e-06 1.05091107067e-06 0.000647035299643)
(2.14296782851e-06 2.15242657406e-06 0.000823851038552)
(2.28009112813e-06 2.48114230748e-06 0.000861607557799)
(2.25898434071e-06 2.89526643354e-06 0.000895418931647)
(2.08112694276e-06 3.34208841815e-06 0.000924446809633)
(1.73829415555e-06 3.76836991582e-06 0.000947890226349)
(1.25064189826e-06 4.11844920067e-06 0.000965105886792)
(6.55140763656e-07 4.34789959042e-06 0.000975630293086)
(1.80664249338e-09 4.42787501369e-06 0.000979177894367)
(-6.51563908922e-07 4.34809230001e-06 0.000975630659888)
(-1.24717139378e-06 4.11883326324e-06 0.000965106645194)
(-1.73499177904e-06 3.76894357515e-06 0.000947891445207)
(-2.07803961862e-06 3.34284506971e-06 0.000924448685041)
(-2.25619575403e-06 2.89616054419e-06 0.000895421986096)
(-2.27769253566e-06 2.48217096984e-06 0.000861613503895)
(-2.14116665429e-06 2.15349817522e-06 0.000823864264545)
(3.38787829689e-06 3.51863438987e-06 0.000994785842102)
(3.48575609079e-06 4.09394097322e-06 0.00103904271975)