/*--------------------------------*- C++ -*----------------------------------*\
  =========                 |
  \\      /  F ield         | OpenFOAM: The Open Source CFD Toolbox
   \\    /   O peration     | Website:  https://openfoam.org
    \\  /    A nd           | Version:  7
     \\/     M anipulation  |
\*---------------------------------------------------------------------------*/
FoamFile
{
    version     2.0;
    format      ascii;
    class       volScalarField;
    location    "1.18";
    object      p;
}
// * * * * * * * * * * * * * * * * * * * * * * * * * * * * * * * * * * * * * //

dimensions      [0 2 -2 0 0 0 0];

internalField   nonuniform List<scalar> 
22500
(
-1.09046182864e-05
-1.09040164356e-05
-1.09040851443e-05
-1.09038800734e-05
-1.09037742885e-05
-1.09036923648e-05
-1.09036506684e-05
-1.09036399811e-05
-1.09036688904e-05
-1.09037282295e-05
-1.09038264885e-05
-1.09039466927e-05
-1.09041633899e-05
-1.09041022955e-05
-1.09047118764e-05
-1.08986439967e-05
-1.08976747115e-05
-1.08974859833e-05
-1.0897043063e-05
-1.08967357128e-05
-1.08965006581e-05
-1.08963636292e-05
-1.08963215104e-05
-1.08963820392e-05
-1.08965368915e-05
-1.08967884874e-05
-1.08971104764e-05
-1.08975654832e-05
-1.08977624375e-05
-1.08987402009e-05
-1.08925104408e-05
-1.08911660042e-05
-1.08906882502e-05
-1.08899744954e-05
-1.08894451297e-05
-1.08890402019e-05
-1.08887974305e-05
-1.08887199975e-05
-1.08888162713e-05
-1.08890773104e-05
-1.08894992551e-05
-1.08900437177e-05
-1.08907701101e-05
-1.08912565036e-05
-1.08926098632e-05
-1.08863555544e-05
-1.08846214969e-05
-1.08837862779e-05
-1.08827557372e-05
-1.08819627853e-05
-1.08813575403e-05
-1.08809896008e-05
-1.08808700263e-05
-1.08810087477e-05
-1.08813952782e-05
-1.0882017915e-05
-1.08828263716e-05
-1.08838700155e-05
-1.08847143287e-05
-1.08864576654e-05
-1.08797279791e-05
-1.08775429111e-05
-1.08762563073e-05
-1.08748406285e-05
-1.08737221289e-05
-1.08728708531e-05
-1.08723489549e-05
-1.08721773572e-05
-1.08723682675e-05
-1.08729089481e-05
-1.08737778597e-05
-1.08749121828e-05
-1.08763413734e-05
-1.08776376191e-05
-1.0879832391e-05
-1.08724532314e-05
-1.08697350687e-05
-1.08679065553e-05
-1.08660366994e-05
-1.08645313874e-05
-1.08633887983e-05
-1.08626846515e-05
-1.08624513678e-05
-1.08627040449e-05
-1.08634270819e-05
-1.08645874749e-05
-1.08661088718e-05
-1.08679926293e-05
-1.08698313357e-05
-1.08725595498e-05
-1.08644942257e-05
-1.08611543797e-05
-1.08587063499e-05
-1.08563223529e-05
-1.08543782515e-05
-1.08529060927e-05
-1.08519960648e-05
-1.0851693056e-05
-1.08520154903e-05
-1.08529444693e-05
-1.08544345488e-05
-1.08563949497e-05
-1.08587931785e-05
-1.08612519984e-05
-1.08646021473e-05
-1.08558516196e-05
-1.08518048476e-05
-1.08486769804e-05
-1.08457338971e-05
-1.08433133658e-05
-1.08414843129e-05
-1.08403518804e-05
-1.08399735773e-05
-1.08403713163e-05
-1.08415227387e-05
-1.0843369802e-05
-1.08458068187e-05
-1.08487644216e-05
-1.08519036472e-05
-1.08559608533e-05
-1.08465534992e-05
-1.08417288284e-05
-1.08378825698e-05
-1.08343557254e-05
-1.08314397596e-05
-1.08292407166e-05
-1.08278785133e-05
-1.0827422506e-05
-1.08278979532e-05
-1.08292791749e-05
-1.08314963049e-05
-1.08344289165e-05
-1.08379705296e-05
-1.08418286615e-05
-1.0846663916e-05
-1.08366562599e-05
-1.0831006509e-05
-1.08264289465e-05
-1.08223179003e-05
-1.08189091092e-05
-1.08163434653e-05
-1.08147546656e-05
-1.08142221792e-05
-1.08147741068e-05
-1.08163819486e-05
-1.08189657486e-05
-1.08223913333e-05
-1.08265173662e-05
-1.08311072699e-05
-1.08367676814e-05
-1.08262386447e-05
-1.08197478642e-05
-1.08144564278e-05
-1.08097876735e-05
-1.08059115644e-05
-1.08030001083e-05
-1.08011989718e-05
-1.08005950508e-05
-1.0801218404e-05
-1.08030385978e-05
-1.08059682699e-05
-1.08098613133e-05
-1.08145452605e-05
-1.08198494575e-05
-1.08263510829e-05
-1.08153623513e-05
-1.08080735397e-05
-1.08021326076e-05
-1.0796962645e-05
-1.07926674621e-05
-1.07894482552e-05
-1.078746009e-05
-1.07867936009e-05
-1.07874794885e-05
-1.07894866983e-05
-1.07927241672e-05
-1.07970364186e-05
-1.08022217802e-05
-1.08081758675e-05
-1.08154758104e-05
-1.08039963043e-05
-1.07961183024e-05
-1.07896624496e-05
-1.07840728162e-05
-1.07794261501e-05
-1.0775954351e-05
-1.07738160371e-05
-1.07730999523e-05
-1.07738353352e-05
-1.07759926228e-05
-1.07794827011e-05
-1.07841465494e-05
-1.0789751803e-05
-1.07962211522e-05
-1.08041105632e-05
-1.07924195187e-05
-1.07842127447e-05
-1.07773055184e-05
-1.07713502533e-05
-1.0766419643e-05
-1.07627622978e-05
-1.07605211064e-05
-1.07597721231e-05
-1.0760540192e-05
-1.07628002064e-05
-1.07664757378e-05
-1.07714236331e-05
-1.0777394782e-05
-1.07843160352e-05
-1.07925340938e-05
-1.07831031661e-05
-1.07727776168e-05
-1.07652660986e-05
-1.07588626005e-05
-1.07536693663e-05
-1.07498731909e-05
-1.07475656114e-05
-1.07467971193e-05
-1.0747584463e-05
-1.0749910657e-05
-1.07537249499e-05
-1.07589355572e-05
-1.07653553807e-05
-1.07728818685e-05
-1.07832181225e-05
-1.13397971743e-05
-1.13396084069e-05
-1.13393634168e-05
-1.1339162652e-05
-1.13389863553e-05
-1.13388522771e-05
-1.13387651917e-05
-1.13387303225e-05
-1.13387492797e-05
-1.13388210165e-05
-1.13389411309e-05
-1.13391055252e-05
-1.13392977738e-05
-1.13395380369e-05
-1.13397253215e-05
-1.13384102073e-05
-1.13382234339e-05
-1.13379753908e-05
-1.1337777249e-05
-1.13376052284e-05
-1.13374756524e-05
-1.13373919689e-05
-1.13373584359e-05
-1.13373764678e-05
-1.13374452532e-05
-1.13375613202e-05
-1.13377218687e-05
-1.13379115229e-05
-1.13381545087e-05
-1.13383391049e-05
-1.13376520313e-05
-1.13375361614e-05
-1.13373424025e-05
-1.13371992467e-05
-1.13370732328e-05
-1.13369789693e-05
-1.13369174355e-05
-1.13368914496e-05
-1.13369019704e-05
-1.13369486127e-05
-1.13370293071e-05
-1.13371438016e-05
-1.13372783447e-05
-1.13374670007e-05
-1.13375806435e-05
-1.13376701966e-05
-1.1337665827e-05
-1.13375579596e-05
-1.13374953911e-05
-1.1337434423e-05
-1.13373881458e-05
-1.13373559565e-05
-1.13373398759e-05
-1.13373406498e-05
-1.13373580638e-05
-1.13373908112e-05
-1.1337440266e-05
-1.1337494178e-05
-1.13375968607e-05
-1.13375989194e-05
-1.13381146644e-05
-1.13382118817e-05
-1.13381782199e-05
-1.13381803591e-05
-1.13381687215e-05
-1.13381568018e-05
-1.13381448202e-05
-1.13381354811e-05
-1.13381298827e-05
-1.13381274158e-05
-1.13381260444e-05
-1.13381262951e-05
-1.13381154915e-05
-1.13381438282e-05
-1.13380440312e-05
-1.13387123169e-05
-1.13388668157e-05
-1.1338868846e-05
-1.13388953832e-05
-1.13388976727e-05
-1.13388921748e-05
-1.13388826157e-05
-1.13388739695e-05
-1.13388682362e-05
-1.13388638588e-05
-1.13388564643e-05
-1.13388430426e-05
-1.13388078617e-05
-1.13388003749e-05
-1.13386429243e-05
-1.13392770131e-05
-1.13394263842e-05
-1.13394142171e-05
-1.13394162233e-05
-1.1339391147e-05
-1.13393606279e-05
-1.13393339012e-05
-1.13393193412e-05
-1.13393202147e-05
-1.13393336472e-05
-1.1339351796e-05
-1.13393660784e-05
-1.13393555057e-05
-1.13393620195e-05
-1.13392093734e-05
-1.13396770342e-05
-1.13397542971e-05
-1.13396784239e-05
-1.13396096795e-05
-1.13395196056e-05
-1.1339436284e-05
-1.13393754466e-05
-1.13393493181e-05
-1.13393625643e-05
-1.13394108547e-05
-1.13394824221e-05
-1.13395621063e-05
-1.13396224123e-05
-1.13396924678e-05
-1.13396116173e-05
-1.13398300702e-05
-1.13397748243e-05
-1.13395937097e-05
-1.13394176476e-05
-1.1339234025e-05
-1.13390776124e-05
-1.13389706184e-05
-1.13389289639e-05
-1.13389586111e-05
-1.13390538753e-05
-1.1339199217e-05
-1.13393729175e-05
-1.13395407091e-05
-1.13397158774e-05
-1.13397672695e-05
-1.13396985001e-05
-1.1339464217e-05
-1.1339148033e-05
-1.13388405706e-05
-1.1338545767e-05
-1.13383045912e-05
-1.13381448762e-05
-1.13380856197e-05
-1.13381337983e-05
-1.13382826517e-05
-1.13385134913e-05
-1.13387988786e-05
-1.13390982871e-05
-1.13394084306e-05
-1.13396387232e-05
-1.13392799739e-05
-1.13388375337e-05
-1.13383687754e-05
-1.13379180105e-05
-1.13375048342e-05
-1.13371752754e-05
-1.13369613542e-05
-1.13368841325e-05
-1.13369512357e-05
-1.13371551959e-05
-1.13374751843e-05
-1.13378794947e-05
-1.13383224618e-05
-1.13387851239e-05
-1.13392235375e-05
-1.13386004674e-05
-1.13379369964e-05
-1.13373079598e-05
-1.13367117397e-05
-1.13361816467e-05
-1.13357668469e-05
-1.13355014548e-05
-1.13354073631e-05
-1.13354923088e-05
-1.13357486634e-05
-1.13361546856e-05
-1.13366764909e-05
-1.13372652132e-05
-1.13378881497e-05
-1.13385475792e-05
-1.13377133824e-05
-1.13368205971e-05
-1.1336027325e-05
-1.13352907738e-05
-1.13346525823e-05
-1.13341614104e-05
-1.13338509744e-05
-1.13337422419e-05
-1.13338428113e-05
-1.13341451335e-05
-1.13346283288e-05
-1.13352588466e-05
-1.13359882532e-05
-1.13367755135e-05
-1.1337664375e-05
-1.13366476738e-05
-1.13355138011e-05
-1.13345698686e-05
-1.13337118913e-05
-1.13329871016e-05
-1.13324376555e-05
-1.13320937393e-05
-1.13319745537e-05
-1.13320865366e-05
-1.13324232506e-05
-1.1332965567e-05
-1.13336833255e-05
-1.13345345211e-05
-1.13354725824e-05
-1.13366028747e-05
-1.13351400905e-05
-1.13340273658e-05
-1.13329797235e-05
-1.13320457838e-05
-1.1331275119e-05
-1.13306979247e-05
-1.13303396473e-05
-1.13302162558e-05
-1.13303333179e-05
-1.13306852197e-05
-1.13312560278e-05
-1.13320202874e-05
-1.13329479125e-05
-1.13339896698e-05
-1.13350990263e-05
-9.92898878552e-06
-9.9291113146e-06
-9.92924331043e-06
-9.9293723615e-06
-9.92948694048e-06
-9.92957675032e-06
-9.92963499049e-06
-9.92965717346e-06
-9.92964140881e-06
-9.9295893676e-06
-9.92950518953e-06
-9.92939525183e-06
-9.92926918523e-06
-9.92913762556e-06
-9.92901317785e-06
-9.9291857861e-06
-9.92930772252e-06
-9.92944213639e-06
-9.92957339396e-06
-9.92969013478e-06
-9.92978170955e-06
-9.92984109916e-06
-9.9298636563e-06
-9.92984733818e-06
-9.92979395223e-06
-9.92970780414e-06
-9.92959551323e-06
-9.92946714136e-06
-9.92933328167e-06
-9.92920973917e-06
-9.92918681915e-06
-9.92929302615e-06
-9.92941478104e-06
-9.92953514363e-06
-9.92964344891e-06
-9.92972896378e-06
-9.92978469846e-06
-9.92980601298e-06
-9.92979084024e-06
-9.92974102038e-06
-9.92966086372e-06
-9.92955695675e-06
-9.92943944906e-06
-9.92931832614e-06
-9.92921060673e-06
-9.92913148897e-06
-9.92922278578e-06
-9.92933192062e-06
-9.9294409116e-06
-9.92954027552e-06
-9.92961933628e-06
-9.92967115398e-06
-9.92969110781e-06
-9.92967713793e-06
-9.92963109119e-06
-9.92955727771e-06
-9.92946223142e-06
-9.92935607199e-06
-9.92924764857e-06
-9.92915497499e-06
-9.9290714501e-06
-9.92915146264e-06
-9.92925092812e-06
-9.92935076175e-06
-9.92944281885e-06
-9.92951657219e-06
-9.92956514741e-06
-9.92958394156e-06
-9.92957089737e-06
-9.92952787079e-06
-9.92945917556e-06
-9.92937130268e-06
-9.92927427203e-06
-9.92917562576e-06
-9.92909448263e-06
-9.92900944034e-06
-9.92908106403e-06
-9.92917320564e-06
-9.92926578314e-06
-9.92935192273e-06
-9.92942132614e-06
-9.92946720593e-06
-9.92948499693e-06
-9.92947265817e-06
-9.9294320452e-06
-9.92936746305e-06
-9.92928534386e-06
-9.92919553781e-06
-9.92910436296e-06
-9.92903184967e-06
-9.92894605793e-06
-9.92901201805e-06
-9.9290988136e-06
-9.92918583449e-06
-9.92926728121e-06
-9.92933315542e-06
-9.92937680041e-06
-9.92939372033e-06
-9.92938191308e-06
-9.92934321307e-06
-9.92928188625e-06
-9.92920427481e-06
-9.92911998115e-06
-9.92903432797e-06
-9.9289677576e-06
-9.92888394732e-06
-9.92894680821e-06
-9.92902992987e-06
-9.92911293385e-06
-9.92919076502e-06
-9.92925381278e-06
-9.92929560001e-06
-9.92931175727e-06
-9.92930034287e-06
-9.92926315243e-06
-9.92920436046e-06
-9.92913017335e-06
-9.92904985928e-06
-9.92896803722e-06
-9.9289048491e-06
-9.9288247249e-06
-9.92888667068e-06
-9.92896743688e-06
-9.92904764743e-06
-9.92912266994e-06
-9.92918338182e-06
-9.92922356002e-06
-9.92923901992e-06
-9.92922791553e-06
-9.92919197103e-06
-9.92913520812e-06
-9.92906362765e-06
-9.92898606751e-06
-9.92890674981e-06
-9.92884476363e-06
-9.92876862723e-06
-9.92883127681e-06
-9.92891062056e-06
-9.92898891076e-06
-9.92906164675e-06
-9.92912028934e-06
-9.92915896182e-06
-9.92917374429e-06
-9.929162921e-06
-9.92912811054e-06
-9.92907310572e-06
-9.92900360647e-06
-9.92892791921e-06
-9.92885016249e-06
-9.92878768141e-06
-9.92871495764e-06
-9.92877942765e-06
-9.9288579882e-06
-9.92893493438e-06
-9.92900563499e-06
-9.92906224944e-06
-9.92909938419e-06
-9.92911346116e-06
-9.92910294399e-06
-9.92906929743e-06
-9.92901600198e-06
-9.92894832648e-06
-9.92887392169e-06
-9.92879706745e-06
-9.92873294582e-06
-9.92866180452e-06
-9.92872913342e-06
-9.92880765816e-06
-9.92888376819e-06
-9.9289525308e-06
-9.92900702221e-06
-9.92904248838e-06
-9.92905580604e-06
-9.92904565161e-06
-9.92901329744e-06
-9.9289618068e-06
-9.92889584358e-06
-9.92882219595e-06
-9.92874545849e-06
-9.92867861507e-06
-9.92860367129e-06
-9.928676721e-06
-9.92875717026e-06
-9.92883335471e-06
-9.92890049859e-06
-9.92895291504e-06
-9.92898666922e-06
-9.92899921541e-06
-9.9289894433e-06
-9.9289584328e-06
-9.92890869211e-06
-9.92884411284e-06
-9.92877027649e-06
-9.92869164074e-06
-9.92861915835e-06
-9.92854132278e-06
-9.92862503605e-06
-9.92870718425e-06
-9.92878324724e-06
-9.92884836717e-06
-9.92889841447e-06
-9.92893033078e-06
-9.9289420387e-06
-9.92893274244e-06
-9.92890321562e-06
-9.92885552152e-06
-9.9287927089e-06
-9.92871884941e-06
-9.92863847466e-06
-9.92855529037e-06
-9.9285721485e-06
-9.92861704802e-06
-9.9286847716e-06
-9.92874689265e-06
-9.92879966185e-06
-9.92884020156e-06
-9.92886603443e-06
-9.92887556278e-06
-9.92886814035e-06
-9.92884440362e-06
-9.92880593172e-06
-9.92875522332e-06
-9.92869509627e-06
-9.92862907701e-06
-9.928584728e-06
-1.00299935185e-05
-1.00299046095e-05
-1.00298125097e-05
-1.00297209898e-05
-1.00296399511e-05
-1.00295762894e-05
-1.0029534992e-05
-1.00295192956e-05
-1.00295306593e-05
-1.00295678834e-05
-1.00296280475e-05
-1.00297063734e-05
-1.00297963372e-05
-1.00298879847e-05
-1.00299771313e-05
-1.00299244176e-05
-1.00298376893e-05
-1.00297454977e-05
-1.00296536265e-05
-1.00295720084e-05
-1.00295077621e-05
-1.00294660581e-05
-1.00294502511e-05
-1.00294619109e-05
-1.00294997351e-05
-1.00295606637e-05
-1.0029639735e-05
-1.00297301197e-05
-1.00298217888e-05
-1.00299086155e-05
-1.00299913639e-05
-1.00299165659e-05
-1.0029834412e-05
-1.00297507895e-05
-1.00296755788e-05
-1.00296159016e-05
-1.00295769535e-05
-1.00295620876e-05
-1.00295728829e-05
-1.00296080081e-05
-1.00296643856e-05
-1.00297370373e-05
-1.00298191346e-05
-1.00299006861e-05
-1.00299756575e-05
-1.00300723579e-05
-1.00300071389e-05
-1.00299337258e-05
-1.00298575994e-05
-1.00297883184e-05
-1.00297329076e-05
-1.00296965482e-05
-1.0029682585e-05
-1.00296925802e-05
-1.00297251971e-05
-1.00297773518e-05
-1.00298440824e-05
-1.00299186363e-05
-1.00299913756e-05
-1.00300568045e-05
-1.00301392172e-05
-1.00300804774e-05
-1.00300133557e-05
-1.002994293e-05
-1.00298782629e-05
-1.00298262222e-05
-1.00297919413e-05
-1.00297787272e-05
-1.00297881235e-05
-1.0029818789e-05
-1.00298676499e-05
-1.00299297936e-05
-1.00299985989e-05
-1.00300649754e-05
-1.00301238924e-05
-1.00301981792e-05
-1.00301440722e-05
-1.00300817117e-05
-1.00300159006e-05
-1.00299550946e-05
-1.00299059473e-05
-1.00298734799e-05
-1.00298609462e-05
-1.00298698516e-05
-1.00298988696e-05
-1.00299449549e-05
-1.00300032955e-05
-1.00300674536e-05
-1.00301289676e-05
-1.00301832143e-05
-1.0030253176e-05
-1.00302022991e-05
-1.00301435407e-05
-1.00300814798e-05
-1.00300239247e-05
-1.00299772893e-05
-1.00299464323e-05
-1.00299345246e-05
-1.00299430149e-05
-1.00299706068e-05
-1.00300143133e-05
-1.00300694653e-05
-1.00301298516e-05
-1.00301876482e-05
-1.00302386172e-05
-1.00303048447e-05
-1.00302559061e-05
-1.00301997343e-05
-1.00301406044e-05
-1.00300857384e-05
-1.00300412614e-05
-1.00300118314e-05
-1.00300004963e-05
-1.00300086401e-05
-1.0030035007e-05
-1.00300767049e-05
-1.00301292458e-05
-1.00301866801e-05
-1.00302417971e-05
-1.00302907462e-05
-1.0030353523e-05
-1.00303054606e-05
-1.00302509749e-05
-1.00301940483e-05
-1.00301413677e-05
-1.00300987353e-05
-1.00300705699e-05
-1.00300597603e-05
-1.00300676074e-05
-1.00300929161e-05
-1.0030132924e-05
-1.00301833648e-05
-1.00302385841e-05
-1.00302919395e-05
-1.00303399379e-05
-1.00303997848e-05
-1.00303517149e-05
-1.00302981335e-05
-1.00302427885e-05
-1.00301918756e-05
-1.00301508508e-05
-1.00301238313e-05
-1.00301135176e-05
-1.00301211003e-05
-1.00301454711e-05
-1.0030184036e-05
-1.0030232799e-05
-1.00302864381e-05
-1.0030338819e-05
-1.00303867922e-05
-1.00304442061e-05
-1.00303954006e-05
-1.00303420636e-05
-1.00302877823e-05
-1.00302383329e-05
-1.00301987548e-05
-1.00301728228e-05
-1.00301629863e-05
-1.00301703175e-05
-1.00301938074e-05
-1.00302310879e-05
-1.00302784905e-05
-1.003033108e-05
-1.00303831715e-05
-1.0030431865e-05
-1.00304876233e-05
-1.00304372902e-05
-1.00303835213e-05
-1.00303298284e-05
-1.00302816063e-05
-1.00302434137e-05
-1.00302185514e-05
-1.00302092055e-05
-1.00302162642e-05
-1.00302388861e-05
-1.00302749523e-05
-1.00303212288e-05
-1.00303732621e-05
-1.00304257551e-05
-1.00304759674e-05
-1.0030532508e-05
-1.00304792325e-05
-1.00304238354e-05
-1.0030369965e-05
-1.00303225968e-05
-1.00302855703e-05
-1.003026175e-05
-1.00302528382e-05
-1.00302596727e-05
-1.00302814574e-05
-1.00303165041e-05
-1.00303620541e-05
-1.00304143054e-05
-1.00304684377e-05
-1.0030521608e-05
-1.00305800548e-05
-1.00305214796e-05
-1.00304636714e-05
-1.00304090523e-05
-1.00303622129e-05
-1.0030326247e-05
-1.00303032855e-05
-1.00302948447e-05
-1.00303014114e-05
-1.00303225011e-05
-1.00303566757e-05
-1.003040179e-05
-1.00304548513e-05
-1.00305114155e-05
-1.00305699874e-05
-1.00305823951e-05
-1.00305345078e-05
-1.00304828743e-05
-1.00304353842e-05
-1.00303953307e-05
-1.00303647595e-05
-1.00303453638e-05
-1.00303381738e-05
-1.00303436436e-05
-1.00303613303e-05
-1.0030390213e-05
-1.00304286551e-05
-1.00304746523e-05
-1.00305250381e-05
-1.00305728571e-05
-9.03896780776e-06
-9.03903070608e-06
-9.0390966821e-06
-9.03916317609e-06
-9.03922211748e-06
-9.03926848237e-06
-9.03929873609e-06
-9.03931058501e-06
-9.03930299935e-06
-9.03927685704e-06
-9.03923426762e-06
-9.03917867639e-06
-9.03911476719e-06
-9.03904984214e-06
-9.03898665735e-06
-9.03901192064e-06
-9.03907320496e-06
-9.03913918224e-06
-9.03920583061e-06
-9.03926515376e-06
-9.03931195035e-06
-9.03934252076e-06
-9.03935447203e-06
-9.03934669587e-06
-9.03932014423e-06
-9.03927702806e-06
-9.03922093605e-06
-9.03915677278e-06
-9.03909191041e-06
-9.03903048062e-06
-9.03895966915e-06
-9.03901249001e-06
-9.03907127755e-06
-9.0391319749e-06
-9.03918670509e-06
-9.03923025353e-06
-9.03925886993e-06
-9.03927015305e-06
-9.03926298374e-06
-9.03923833575e-06
-9.03919843573e-06
-9.03914689476e-06
-9.03908862e-06
-9.03903098921e-06
-9.03897802749e-06
-9.03889918193e-06
-9.03894529586e-06
-9.03899786208e-06
-9.03905320088e-06
-9.03910370879e-06
-9.03914423576e-06
-9.03917101286e-06
-9.03918164745e-06
-9.03917503053e-06
-9.03915213837e-06
-9.03911520162e-06
-9.0390678255e-06
-9.03901486282e-06
-9.03896347363e-06
-9.0389172573e-06
-9.03884976756e-06
-9.03889134585e-06
-9.03893937446e-06
-9.03899054453e-06
-9.03903766782e-06
-9.03907572063e-06
-9.03910097031e-06
-9.03911104513e-06
-9.03910485148e-06
-9.03908336061e-06
-9.03904879141e-06
-9.03900470619e-06
-9.03895585522e-06
-9.03890902588e-06
-9.03886745473e-06
-9.03880611097e-06
-9.03884422522e-06
-9.03888864547e-06
-9.03893625499e-06
-9.03898037139e-06
-9.03901615925e-06
-9.0390399778e-06
-9.03904950827e-06
-9.03904368434e-06
-9.039023461e-06
-9.038991019e-06
-9.03894982913e-06
-9.03890448605e-06
-9.03886132351e-06
-9.03882329176e-06
-9.03876470736e-06
-9.03880009076e-06
-9.03884148377e-06
-9.03888589606e-06
-9.03892721061e-06
-9.03896082061e-06
-9.03898323499e-06
-9.03899221615e-06
-9.03898674023e-06
-9.03896773059e-06
-9.03893730141e-06
-9.03889878469e-06
-9.03885657191e-06
-9.03881650929e-06
-9.03878132223e-06
-9.0387245135e-06
-9.03875770378e-06
-9.03879650866e-06
-9.03883804672e-06
-9.0388767346e-06
-9.03890823754e-06
-9.03892926129e-06
-9.03893768594e-06
-9.03893254298e-06
-9.038914713e-06
-9.03888621112e-06
-9.0388501901e-06
-9.03881079737e-06
-9.03877338323e-06
-9.03874051321e-06
-9.03868481348e-06
-9.03871621128e-06
-9.03875278769e-06
-9.03879171435e-06
-9.03882791136e-06
-9.03885735683e-06
-9.0388769977e-06
-9.03888485756e-06
-9.03888004127e-06
-9.03886337029e-06
-9.03883673143e-06
-9.03880306078e-06
-9.0387662249e-06
-9.0387310941e-06
-9.03870014904e-06
-9.03864490787e-06
-9.038674776e-06
-9.03870943202e-06
-9.03874598271e-06
-9.03877981297e-06
-9.03880724718e-06
-9.03882550559e-06
-9.03883279461e-06
-9.03882830123e-06
-9.03881277812e-06
-9.03878795136e-06
-9.03875650406e-06
-9.03872198928e-06
-9.03868882999e-06
-9.03865950136e-06
-9.03860421849e-06
-9.03863282137e-06
-9.03866584661e-06
-9.038700241e-06
-9.03873181514e-06
-9.03875726575e-06
-9.03877414201e-06
-9.03878084909e-06
-9.03877668367e-06
-9.03876230412e-06
-9.03873925131e-06
-9.03870991261e-06
-9.03867748783e-06
-9.03864599994e-06
-9.03861800966e-06
-9.03856223221e-06
-9.03858995029e-06
-9.0386217054e-06
-9.03865421407e-06
-9.03868364357e-06
-9.03870715145e-06
-9.03872263559e-06
-9.03872875993e-06
-9.0387249222e-06
-9.03871169011e-06
-9.03869037322e-06
-9.03866301586e-06
-9.03863240256e-06
-9.03860219381e-06
-9.0385751366e-06
-9.03851737267e-06
-9.03854514205e-06
-9.03857643683e-06
-9.0386075883e-06
-9.03863520349e-06
-9.03865692815e-06
-9.03867111237e-06
-9.03867667078e-06
-9.03867314511e-06
-9.03866097786e-06
-9.03864121942e-06
-9.03861552128e-06
-9.03858616004e-06
-9.03855639038e-06
-9.03852929061e-06
-9.03846885644e-06
-9.03849834318e-06
-9.03852982584e-06
-9.03856019009e-06
-9.038586333e-06
-9.03860656956e-06
-9.0386196238e-06
-9.0386246903e-06
-9.03862142265e-06
-9.03861014464e-06
-9.03859167467e-06
-9.03856725697e-06
-9.03853858194e-06
-9.03850855408e-06
-9.03847968435e-06
-9.03844962271e-06
-9.03847094717e-06
-9.03849682567e-06
-9.03852101187e-06
-9.03854157603e-06
-9.03855741267e-06
-9.03856763898e-06
-9.03857165934e-06
-9.03856923337e-06
-9.03856059682e-06
-9.03854632683e-06
-9.03852733703e-06
-9.03850467962e-06
-9.03848019189e-06
-9.03845948498e-06
-8.82769672105e-06
-8.827651756e-06
-8.82760582329e-06
-8.82756023536e-06
-8.82752005541e-06
-8.8274885908e-06
-8.82746836531e-06
-8.82746096592e-06
-8.82746712951e-06
-8.82748625594e-06
-8.82751688252e-06
-8.82755660207e-06
-8.82760215573e-06
-8.82764841544e-06
-8.8276935903e-06
-8.82766599904e-06
-8.82762233153e-06
-8.82757645323e-06
-8.82753076578e-06
-8.82749030891e-06
-8.82745854117e-06
-8.82743808927e-06
-8.82743061066e-06
-8.82743689728e-06
-8.82745629337e-06
-8.82748726433e-06
-8.82752730534e-06
-8.82757300266e-06
-8.82761918139e-06
-8.8276630772e-06
-8.82770381412e-06
-8.827666232e-06
-8.82762543635e-06
-8.82758392102e-06
-8.82754670334e-06
-8.82751726058e-06
-8.82749821391e-06
-8.82749121983e-06
-8.82749707218e-06
-8.82751510221e-06
-8.8275437658e-06
-8.82758054654e-06
-8.82762203297e-06
-8.82766304487e-06
-8.82770090412e-06
-8.8277473321e-06
-8.82771452055e-06
-8.82767810746e-06
-8.82764032794e-06
-8.82760607548e-06
-8.82757878023e-06
-8.82756103923e-06
-8.82755450409e-06
-8.82755995842e-06
-8.82757673168e-06
-8.82760327821e-06
-8.82763708841e-06
-8.82767479232e-06
-8.8277113605e-06
-8.82774443077e-06
-8.82778286555e-06
-8.8277533098e-06
-8.82772007608e-06
-8.82768515662e-06
-8.82765323684e-06
-8.82762765854e-06
-8.82761098133e-06
-8.82760483025e-06
-8.82760997616e-06
-8.8276257471e-06
-8.82765060734e-06
-8.82768207876e-06
-8.8277168658e-06
-8.82775019852e-06
-8.82777998431e-06
-8.82781424295e-06
-8.8277871674e-06
-8.82775645528e-06
-8.82772398796e-06
-8.82769413375e-06
-8.82767011783e-06
-8.82765441993e-06
-8.82764863058e-06
-8.82765349555e-06
-8.82766835389e-06
-8.82769169476e-06
-8.82772110725e-06
-8.82775340649e-06
-8.82778413998e-06
-8.82781142911e-06
-8.82784402684e-06
-8.82781894868e-06
-8.82779036397e-06
-8.82776008454e-06
-8.82773213748e-06
-8.82770960531e-06
-8.8276948565e-06
-8.82768942405e-06
-8.82769401643e-06
-8.82770799294e-06
-8.82772988923e-06
-8.82775739346e-06
-8.82778746554e-06
-8.82781599599e-06
-8.82784126939e-06
-8.82787300569e-06
-8.82784953603e-06
-8.82782278654e-06
-8.82779449076e-06
-8.82776834446e-06
-8.82774724857e-06
-8.82773343498e-06
-8.827728355e-06
-8.8277326753e-06
-8.82774578323e-06
-8.82776628424e-06
-8.82779199444e-06
-8.82782004687e-06
-8.82784668285e-06
-8.82787029902e-06
-8.82790170749e-06
-8.82787961439e-06
-8.82785446235e-06
-8.82782797901e-06
-8.8278035387e-06
-8.82778383725e-06
-8.82777094845e-06
-8.82776621794e-06
-8.82777026209e-06
-8.82778250644e-06
-8.82780164703e-06
-8.82782565477e-06
-8.82785186094e-06
-8.82787684846e-06
-8.82789906162e-06
-8.82793068877e-06
-8.82790977717e-06
-8.82788601866e-06
-8.82786119952e-06
-8.82783838597e-06
-8.82782005524e-06
-8.82780808419e-06
-8.82780370409e-06
-8.82780746483e-06
-8.82781884546e-06
-8.8278366523e-06
-8.82785903673e-06
-8.82788355164e-06
-8.82790709864e-06
-8.82792810983e-06
-8.82796034471e-06
-8.82794045351e-06
-8.82791790247e-06
-8.82789459763e-06
-8.827873344e-06
-8.82785635355e-06
-8.8278453012e-06
-8.82784126724e-06
-8.82784473818e-06
-8.82785524895e-06
-8.82787174302e-06
-8.82789257792e-06
-8.82791555574e-06
-8.82793786489e-06
-8.82795784901e-06
-8.82799108019e-06
-8.82797193483e-06
-8.82795032749e-06
-8.82792835799e-06
-8.82790856903e-06
-8.82789290801e-06
-8.82788276275e-06
-8.82787908287e-06
-8.82788224858e-06
-8.82789189045e-06
-8.82790709288e-06
-8.82792646341e-06
-8.82794809545e-06
-8.82796943427e-06
-8.82798866812e-06
-8.8280239907e-06
-8.82800492768e-06
-8.8279836964e-06
-8.82796266121e-06
-8.82794414274e-06
-8.8279296472e-06
-8.82792037937e-06
-8.8279170053e-06
-8.82791990294e-06
-8.82792871832e-06
-8.82794275904e-06
-8.82796089287e-06
-8.82798157159e-06
-8.8280025277e-06
-8.82802168038e-06
-8.82805965129e-06
-8.82803951558e-06
-8.82801815373e-06
-8.82799767812e-06
-8.82798009739e-06
-8.82796662474e-06
-8.82795804145e-06
-8.82795497518e-06
-8.8279576064e-06
-8.82796574477e-06
-8.82797881947e-06
-8.82799599598e-06
-8.82801613171e-06
-8.82803720247e-06
-8.82805747763e-06
-8.82807489951e-06
-8.82806051387e-06
-8.82804312665e-06
-8.82802693047e-06
-8.8280132504e-06
-8.8280027721e-06
-8.82799613721e-06
-8.82799372279e-06
-8.82799571451e-06
-8.82800193684e-06
-8.82801200191e-06
-8.82802530583e-06
-8.82804114514e-06
-8.82805824582e-06
-8.82807273488e-06
-8.06249900911e-06
-8.06253044284e-06
-8.06256307931e-06
-8.06259592681e-06
-8.06262514962e-06
-8.06264818185e-06
-8.06266315442e-06
-8.06266898092e-06
-8.06266520325e-06
-8.06265227888e-06
-8.06263125512e-06
-8.06260382505e-06
-8.06257229231e-06
-8.0625402648e-06
-8.06250906597e-06
-8.06252095458e-06
-8.06255154976e-06
-8.06258417342e-06
-8.06261707614e-06
-8.06264646781e-06
-8.06266969868e-06
-8.06268483017e-06
-8.06269071542e-06
-8.06268685043e-06
-8.06267373055e-06
-8.06265245185e-06
-8.06262478015e-06
-8.06259312743e-06
-8.0625611385e-06
-8.06253082819e-06
-8.06249471744e-06
-8.06252104176e-06
-8.06255008641e-06
-8.06258002791e-06
-8.06260710561e-06
-8.06262867951e-06
-8.06264281704e-06
-8.06264836452e-06
-8.06264480737e-06
-8.06263264755e-06
-8.06261298716e-06
-8.06258760171e-06
-8.06255890287e-06
-8.0625305378e-06
-8.06250446906e-06
-8.06246436436e-06
-8.06248731739e-06
-8.06251325675e-06
-8.06254052936e-06
-8.0625654721e-06
-8.06258549943e-06
-8.06259870156e-06
-8.06260392356e-06
-8.06260064956e-06
-8.06258937839e-06
-8.06257121176e-06
-8.06254792127e-06
-8.06252188919e-06
-8.06249665367e-06
-8.06247396702e-06
-8.06243955616e-06
-8.06246021547e-06
-8.06248387736e-06
-8.06250906846e-06
-8.06253229497e-06
-8.06255105732e-06
-8.0625634823e-06
-8.06256842503e-06
-8.06256537049e-06
-8.06255481205e-06
-8.06253784274e-06
-8.06251621127e-06
-8.06249224696e-06
-8.06246930014e-06
-8.06244894266e-06
-8.06241760888e-06
-8.06243649548e-06
-8.06245834255e-06
-8.06248173998e-06
-8.06250343288e-06
-8.06252103222e-06
-8.06253272948e-06
-8.06253740176e-06
-8.06253454278e-06
-8.06252463345e-06
-8.06250874536e-06
-8.06248857957e-06
-8.06246638606e-06
-8.06244528762e-06
-8.06242671199e-06
-8.06239673564e-06
-8.06241420821e-06
-8.06243451513e-06
-8.06245629044e-06
-8.06247655085e-06
-8.06249303247e-06
-8.06250401502e-06
-8.06250841366e-06
-8.06250574028e-06
-8.06249645581e-06
-8.06248159614e-06
-8.062462791e-06
-8.06244218643e-06
-8.06242266015e-06
-8.06240553125e-06
-8.06237638586e-06
-8.0623927058e-06
-8.06241168053e-06
-8.06243198504e-06
-8.06245089384e-06
-8.06246629092e-06
-8.06247656406e-06
-8.06248068564e-06
-8.06247819169e-06
-8.062469518e-06
-8.06245564867e-06
-8.0624381215e-06
-8.0624189586e-06
-8.0624007888e-06
-8.06238485449e-06
-8.06235618806e-06
-8.0623715378e-06
-8.06238934717e-06
-8.06240830415e-06
-8.06242592942e-06
-8.06244027034e-06
-8.06244983866e-06
-8.0624536802e-06
-8.06245136283e-06
-8.0624432914e-06
-8.06243038331e-06
-8.06241406622e-06
-8.06239621986e-06
-8.06237923205e-06
-8.06236431178e-06
-8.06233577581e-06
-8.06235027669e-06
-8.0623670695e-06
-8.06238479267e-06
-8.06240119829e-06
-8.0624145063e-06
-8.06242337351e-06
-8.06242693148e-06
-8.06242478984e-06
-8.06241731487e-06
-8.06240534295e-06
-8.06239017401e-06
-8.06237352975e-06
-8.06235757413e-06
-8.06234352297e-06
-8.06231485926e-06
-8.06232863574e-06
-8.06234454873e-06
-8.06236114877e-06
-8.06237639254e-06
-8.06238869188e-06
-8.06239686078e-06
-8.06240013399e-06
-8.0623981693e-06
-8.06239128735e-06
-8.06238023041e-06
-8.06236615085e-06
-8.06235059295e-06
-8.06233552214e-06
-8.06232221036e-06
-8.06229318299e-06
-8.06230642031e-06
-8.06232163597e-06
-8.0623372512e-06
-8.0623514037e-06
-8.06236271586e-06
-8.06237019394e-06
-8.06237318046e-06
-8.06237139521e-06
-8.06236510333e-06
-8.06235493643e-06
-8.06234187771e-06
-8.0623272639e-06
-8.06231288021e-06
-8.06230010525e-06
-8.06226996637e-06
-8.06228313009e-06
-8.06229805748e-06
-8.06231296911e-06
-8.06232619218e-06
-8.0623366284e-06
-8.06234345392e-06
-8.06234617777e-06
-8.06234455409e-06
-8.06233880698e-06
-8.06232943415e-06
-8.0623172266e-06
-8.06230327056e-06
-8.06228915125e-06
-8.06227642704e-06
-8.06224477656e-06
-8.06225871595e-06
-8.06227370726e-06
-8.06228820666e-06
-8.06230072034e-06
-8.06231041433e-06
-8.06231671097e-06