/*--------------------------------*- C++ -*----------------------------------*\
  =========                 |
  \\      /  F ield         | OpenFOAM: The Open Source CFD Toolbox
   \\    /   O peration     | Website:  https://openfoam.org
    \\  /    A nd           | Version:  7
     \\/     M anipulation  |
\*---------------------------------------------------------------------------*/
FoamFile
{
    version     2.0;
    format      ascii;
    class       volVectorField;
    location    "0.36";
    object      U;
}
// * * * * * * * * * * * * * * * * * * * * * * * * * * * * * * * * * * * * * //

dimensions      [0 1 -1 0 0 0 0];

internalField   nonuniform List<vector> 
22500
(
(3.16204772087e-05 3.54352964403e-05 0.000695714728905)
(2.94133516365e-05 3.98303751435e-05 0.000729739687596)
(2.5627703345e-05 4.42861210355e-05 0.000760717439392)
(2.15027816844e-05 4.80225086609e-05 0.000787378257354)
(1.66841200927e-05 5.11009699366e-05 0.000808939259612)
(1.14108793007e-05 5.33799343115e-05 0.000824776237102)
(5.79672184358e-06 5.47820169196e-05 0.000834459397809)
(5.8685556429e-09 5.52559018428e-05 0.000837731910088)
(-5.78523813813e-06 5.47826928253e-05 0.000834459568432)
(-1.14001073405e-05 5.33811813924e-05 0.00082477664517)
(-1.66745355498e-05 5.11025127997e-05 0.000808939932564)
(-2.14948402883e-05 4.80240088183e-05 0.000787379114433)
(-2.56219767425e-05 4.42870148592e-05 0.000760718426118)
(-2.94096615285e-05 3.98307232726e-05 0.00072974219083)
(-3.16189392711e-05 3.54351271306e-05 0.000695730996765)
(9.08280947789e-05 0.000102039581904 0.00169767849196)
(8.43180734803e-05 0.000114341132304 0.00176346780849)
(7.37047031309e-05 0.000126646930843 0.00182235835327)
(6.1740138737e-05 0.000137075422318 0.0018723332592)
(4.79066409513e-05 0.000145666082865 0.00191227089381)
(3.27500727822e-05 0.000152028322 0.00194134018687)
(1.66312694034e-05 0.000155944341331 0.00195900309627)
(1.37799363064e-08 0.000157267094169 0.00196494784221)
(-1.66042478534e-05 0.000155945496384 0.00195900379068)
(-3.27246067772e-05 0.000152030409621 0.00194134171061)
(-4.78837592276e-05 0.00014566853414 0.00191227323506)
(-6.17208787444e-05 0.000137077551155 0.00187233610379)
(-7.36901877657e-05 0.000126647666879 0.00182236140534)
(-8.43080398593e-05 0.000114340730176 0.00176347500972)
(-9.08232927034e-05 0.000102038054736 0.00169771557884)
(0.000132650976786 0.000149016058359 0.00242547073212)
(0.000122493166275 0.000165769634342 0.00250294517696)
(0.000106744828284 0.000182431502045 0.00257117909734)
(8.90623772426e-05 0.000196476523913 0.0026283712185)
(6.8909376196e-05 0.000207986568889 0.00267359397542)
(4.70034152081e-05 0.00021647762199 0.00270624283922)
(2.38365850063e-05 0.000221690672405 0.00272596737868)
(1.87037295711e-08 0.00022344891081 0.00273258147742)
(-2.37998344099e-05 0.000221691574603 0.00272596823597)
(-4.69685862885e-05 0.000216479159407 0.0027062447389)
(-6.88777357182e-05 0.000207988097388 0.0026735968263)
(-8.90351979691e-05 0.000196477247346 0.00262837446538)
(-0.000106723455913 0.000182430375479 0.00257118192955)
(-0.000122477308392 0.000165767173259 0.00250295204677)
(-0.00013264214362 0.000149012396007 0.00242551572158)
(0.00016140815898 0.000181260990384 0.0029573237296)
(0.000148232676543 0.000200014912932 0.00303499353666)
(0.000128655696109 0.000218659594889 0.00310216477552)
(0.000106888881303 0.000234211542242 0.00315771656383)
(8.24344767294e-05 0.000246882656812 0.00320114476208)
(5.60909922205e-05 0.000256183061066 0.00323222282585)
(2.84021735693e-05 0.00026187476848 0.00325088151602)
(2.17894385153e-08 0.000263790948208 0.00325711410917)
(-2.83593073818e-05 0.00026187529338 0.00325088205155)
(-5.60502297183e-05 0.00025618383369 0.00323222407995)
(-8.23972022501e-05 0.000246883049324 0.00320114651621)
(-0.000106856438534 0.000234210762427 0.00315771795135)
(-0.000128629453016 0.000218656724609 0.00310216413984)
(-0.000148212252321 0.000200010642886 0.00303499387889)
(-0.000161395497544 0.000181255438038 0.00295736010943)
(0.000180630225961 0.000202838877635 0.00334540484241)
(0.000165011625906 0.000221981049988 0.00341678870193)
(0.000142617932057 0.000241098597357 0.00347722314165)
(0.000118003240074 0.000256847973075 0.00352643069842)
(9.07186104104e-05 0.000269603293181 0.00356440365111)
(6.15808551235e-05 0.000278916915766 0.00359130524168)
(3.1136521445e-05 0.000284598027178 0.00360734135069)
(2.35802162722e-08 0.000286507146081 0.00361267519172)
(-3.10900962828e-05 0.000284598203137 0.0036073413373)
(-6.15366083787e-05 0.000278917004361 0.00359130533036)
(-9.06779670375e-05 0.000269602723207 0.00356440342222)
(-0.000117967533844 0.000256846025696 0.00352642882111)
(-0.000142588415571 0.000241094467168 0.00347721674283)
(-0.000164987823196 0.000221975577241 0.00341677831653)
(-0.000180614206223 0.000202832042595 0.00334542264626)
(0.000192263968937 0.000215908841226 0.00362649267587)
(0.000174728522907 0.000234288632613 0.00368825857943)
(0.000150367991018 0.000252823715306 0.00373923637405)
(0.00012391979566 0.000267889870848 0.00377997209479)
(9.49762660208e-05 0.000280016967098 0.00381092959779)
(6.43237181663e-05 0.000288826796281 0.00383260142988)
(3.24781389841e-05 0.000294183415364 0.00384541137837)
(2.44947647068e-08 0.000295980425474 0.00384965140306)
(-3.24298846365e-05 0.000294183324195 0.00384541077905)
(-6.42776497669e-05 0.000288826377839 0.00383260022821)
(-9.49337991377e-05 0.000280015725386 0.00381092708921)
(-0.00012388221022 0.000267887188478 0.00377996630539)
(-0.000150336345612 0.000252818920465 0.00373922291198)
(-0.000174702230557 0.000234282660305 0.00368823534941)
(-0.000192245169861 0.000215901538761 0.00362648897159)
(0.000197817143758 0.000222112115214 0.00382766646046)
(0.000178850255842 0.000238935329121 0.00387854343604)
(0.000153248788488 0.000256163271383 0.0039192479299)
(0.000125802192262 0.000269973208252 0.00395102502774)
(9.61359962903e-05 0.000281020385559 0.00397472501554)
(6.496753781e-05 0.000289007312063 0.00399107602154)
(3.27601827495e-05 0.000293849058639 0.00400064143575)
(2.48540376008e-08 0.000295470891182 0.00400378898882)
(-3.27112009521e-05 0.000293848837253 0.00400064030523)
(-6.49207148526e-05 0.000289006660842 0.00399107360207)
(-9.60927110104e-05 0.00028101889323 0.00397472023359)
(-0.000125763643524 0.000269970358429 0.00395101510193)
(-0.000153215825959 0.000256158532681 0.0039192267839)
(-0.000178822157273 0.000238929664679 0.00387850679811)
(-0.000197796103488 0.000222105233589 0.00382764208988)
(0.000198635575511 0.000222935836523 0.00396941167211)
(0.000178679363634 0.000237711595712 0.00400946988788)
(0.000152446628677 0.000253174993974 0.00404028159363)
(0.000124670071051 0.000265397681509 0.00406361965184)
(9.50054596985e-05 0.000275116548088 0.00408060738037)
(6.4072645594e-05 0.000282114098515 0.00409210800099)
(3.22696415543e-05 0.000286345220771 0.00409874595882)
(2.48974740339e-08 0.000287760801592 0.00410091366644)
(-3.22205608083e-05 0.000286345031224 0.00409874436367)
(-6.40256804207e-05 0.000282113543577 0.00409210446939)
(-9.49619378962e-05 0.000275115292259 0.00408060039568)
(-0.000124631102533 0.00026539530528 0.00406360550455)
(-0.000152412850545 0.000253171082642 0.00404025252101)
(-0.000178649958829 0.000237707104495 0.00400942029988)
(-0.00019861277936 0.000222930255074 0.00396936933611)
(0.000195855947133 0.000219649670521 0.0040674242647)
(0.000175302146783 0.000232118113693 0.0040975582026)
(0.000148940950763 0.000245553650683 0.00411954682433)
(0.000121357993644 0.00025602743898 0.0041355142169)
(9.22400672804e-05 0.000264310564828 0.00414674195238)
(6.20906629284e-05 0.000270256633068 0.0041541389736)
(3.12367870976e-05 0.000273845532194 0.00415832530659)
(2.48090400856e-08 0.000275045362633 0.00415967716368)
(-3.11878684793e-05 0.000273845549294 0.00415832327355)
(-6.20438100765e-05 0.000270256525239 0.00415413436421)
(-9.21965491332e-05 0.000264310061243 0.00414673275478)
(-0.000121318833137 0.000256026197569 0.00413549573852)
(-0.000148906595953 0.000245551345211 0.00411950977361)
(-0.000175271742873 0.000232115623296 0.00409749677464)
(-0.000195831804219 0.000219646219202 0.00406736750234)
(0.000190397479082 0.00021328619077 0.00413374826524)
(0.000169581691394 0.000223346588695 0.00415529476216)
(0.000143501106944 0.000234618487284 0.00416985176358)
(0.000116516987792 0.000243288149598 0.00417973959405)
(8.83469631366e-05 0.000250116679316 0.00418630054714)
(5.93685201639e-05 0.000255013419082 0.00419042090019)
(2.9837617726e-05 0.000257967371779 0.00419267015749)
(2.47336848853e-08 0.000258954884693 0.0041933811658)
(-2.97888319371e-05 0.00025796776442 0.00419266765991)
(-5.93217413858e-05 0.000255014093522 0.00419041515517)
(-8.83034027107e-05 0.000250117421453 0.00418628903546)
(-0.000116477588563 0.000243288670055 0.00417971667005)
(-0.000143466170929 0.000234618509121 0.00416980690431)
(-0.000169550398718 0.000223346848128 0.00415522318986)
(-0.000190372266036 0.000213285610876 0.0041336811418)
(0.000182989704945 0.000204672570453 0.00417755537272)
(0.000162188714934 0.000212319215674 0.00419201412068)
(0.00013671997283 0.000221367026704 0.00420059857748)
(0.000110647485967 0.000228239562411 0.00420570510403)
(8.37131101269e-05 0.000233647733145 0.00420866421771)
(5.61686308794e-05 0.000237534111142 0.00421029409117)
(2.82043983271e-05 0.000239881652655 0.00421108724378)
(2.47888884654e-08 0.000240667149805 0.00421131943431)
(-2.81554782336e-05 0.000239882567261 0.00421108423676)
(-5.61216436283e-05 0.000237535861826 0.00421028714858)
(-8.36692097128e-05 0.000233650153226 0.00420865037445)
(-0.000110607557397 0.000228242395908 0.00420567790116)
(-0.000136684232055 0.000221369996613 0.00420054666276)
(-0.000162156456501 0.000212322859348 0.00419193503601)
(-0.000182963532088 0.000204675452009 0.00417748289249)
(0.000174200748155 0.000194466239133 0.00420571039821)
(0.000153638558526 0.000199727387095 0.00421454473658)
(0.000129055558724 0.00020652975942 0.00421852455925)
(0.000104136104492 0.000211650466839 0.00422003572481)
(7.86333525736e-05 0.000215704681263 0.00422034443109)
(5.26875961522e-05 0.00021863815182 0.00422017270872)
(2.64350634935e-05 0.000220416507077 0.00421992505904)
(2.5071570283e-08 0.000221012707685 0.00421981719088)
(-2.63855420224e-05 0.000220418053105 0.00421992157891)
(-5.26399059652e-05 0.000218641189987 0.00422016473607)
(-7.85885944831e-05 0.000215709097776 0.00422032875127)
(-0.000104095134617 0.000211656024158 0.00422000536517)
(-0.000129018587652 0.00020653614277 0.00421846776976)
(-0.000153605085362 0.000199734876313 0.00421446249982)
(-0.000174173521882 0.000194473037949 0.00420563955441)
(0.000164458622034 0.000183153248415 0.00422317464078)
(0.000144345306783 0.000186051147699 0.00422767285601)
(0.000120883157132 0.000190627787945 0.00422825048127)
(9.72900125713e-05 0.000194078406777 0.00422720676331)
(7.33307243091e-05 0.000196864861428 0.00422569090615)
(4.90679761933e-05 0.000198905592909 0.00422430689141)
(2.45988458932e-05 0.000200149091783 0.00422336915933)
(2.56616299248e-08 0.000200567088308 0.00422303757146)
(-2.45481000291e-05 0.000200151307062 0.00422336549325)
(-4.90189216342e-05 0.000198909999717 0.00422429867734)
(-7.32844020507e-05 0.000196871399836 0.00422567511901)
(-9.72472958586e-05 0.000194086870054 0.00422717651212)
(-0.000120844349601 0.000190637797934 0.00422819398892)
(-0.000144310201809 0.000186062689381 0.00422759473838)
(-0.00016443008474 0.00018316412243 0.00422311477999)
(0.000154147530659 0.000171035634925 0.00423324122484)
(0.000134743017829 0.00017162129999 0.00423443064672)
(0.000112541165665 0.000174037489557 0.00423266123797)
(9.03389888887e-05 0.000175957922102 0.00423000668875)
(6.79502582919e-05 0.000177567334581 0.00422741671274)
(4.53940340871e-05 0.000178762204917 0.00422535120052)
(2.27348116748e-05 0.000179492764141 0.00422403631815)
(2.66023598489e-08 0.00017973897055 0.00422358429781)
(-2.26821186613e-05 0.00017949558812 0.00422403318469)
(-4.53428465127e-05 0.000178767860957 0.00422534456787)
(-6.79015448855e-05 0.000177575812876 0.00422740457417)
(-9.02936778615e-05 0.00017596908354 0.00422998351456)
(-0.000112499776158 0.000174050966032 0.00423261592427)
(-0.000134705755165 0.000171636739037 0.00423436916518)
(-0.000154117259903 0.000171050359803 0.00423320372473)
(0.000143879071438 0.000158341350992 0.00423751918257)
(0.000125384679612 0.000155792965608 0.00423623023982)
(0.000104198748367 0.000156606553637 0.00423317925231)
(8.33575052664e-05 0.000157244043744 0.00422988121541)
(6.25170986689e-05 0.000157823822105 0.00422698125254)
(4.16761825553e-05 0.000158256922777 0.00422477140555)
(2.08476559451e-05 0.000158521636333 0.00422339484856)
(2.78931823374e-08 0.000158611480183 0.00422292623161)
(-2.07923058964e-05 0.000158524858146 0.00422339307345)
(-4.1622115793e-05 0.00015826339564 0.00422476848999)
(-6.24651731063e-05 0.000157833581538 0.00422697728362)
(-8.33086681396e-05 0.000157257065865 0.00422987430662)
(-0.000104153864321 0.000156622561824 0.00423316067282)
(-0.000125344722968 0.000155811600232 0.00423621391045)
(-0.000143846367364 0.000158359432867 0.00423750055797)
(1.04988348499e-06 1.74627803772e-06 0.000423174967007)
(5.79991939499e-07 2.28879748423e-06 0.000443786883972)
(3.59503191081e-07 2.59030087413e-06 0.000462279454438)
(1.61291346737e-07 2.80289444323e-06 0.000478170141435)
(3.11080705452e-08 2.93061228539e-06 0.000491031424454)
(-2.66744324739e-08 2.99773925631e-06 0.000500489983718)
(-2.94796137591e-08 3.02746571349e-06 0.000506281920572)
(-2.74981943683e-10 3.03558026382e-06 0.000508245238831)
(2.91431535497e-08 3.02733362896e-06 0.000506282304864)
(2.69519017502e-08 2.99750626592e-06 0.000500490858927)
(-3.00584146845e-08 2.9302567007e-06 0.000491032879219)
(-1.59839602402e-07 2.80232697452e-06 0.000478172074661)
(-3.58308821305e-07 2.58949418095e-06 0.000462281798967)
(-5.79275794973e-07 2.28772512012e-06 0.000443792100753)
(-1.05036489843e-06 1.74525899902e-06 0.00042319701747)
(9.91158447643e-06 1.21369758792e-05 0.00120505326421)
(8.46234853666e-06 1.48227368348e-05 0.00126037775468)
(7.29884031501e-06 1.70463772015e-05 0.00130984590604)
(5.97426826373e-06 1.89282247148e-05 0.00135221952657)
(4.54163396324e-06 2.04012239373e-05 0.00138642929946)
(3.05564561314e-06 2.14535570979e-05 0.00141154664714)
(1.53473306646e-06 2.20848066658e-05 0.00142690694771)
(1.34806518372e-09 2.22953818494e-05 0.00143209891043)
(-1.53164183729e-06 2.20844975839e-05 0.00142690816425)
(-3.05144853188e-06 2.14529378907e-05 0.00141154933405)
(-4.53611068961e-06 2.04001619646e-05 0.00138643362417)
(-5.96821713177e-06 1.89264885594e-05 0.00135222508303)
(-7.29382242281e-06 1.70438900866e-05 0.00130985237114)
(-8.45900413625e-06 1.48196254187e-05 0.00126039212612)
(-9.9118582579e-06 1.21339761295e-05 0.00120510810802)
(2.2603566709e-05 2.62734732401e-05 0.00192334774125)
(1.99829588103e-05 3.14314182146e-05 0.00200650913081)
(1.75217142441e-05 3.5955277384e-05 0.00208032114437)
(1.45989404242e-05 3.98502901258e-05 0.00214315082909)
(1.12808219194e-05 4.29655542665e-05 0.00219360726665)
(7.68460522051e-06 4.52310410867e-05 0.00223050511984)
(3.89220294215e-06 4.66076567739e-05 0.00225300354796)
(4.24369912884e-09 4.70698516758e-05 0.00226058746118)
(-3.88332452796e-06 4.6607235643e-05 0.00225300521884)
(-7.67465524325e-06 4.52301012768e-05 0.00223050873218)
(-1.12696684783e-05 4.29637903699e-05 0.0021936128563)
(-1.45875460621e-05 3.98473056769e-05 0.00214315751842)
(-1.75120499852e-05 3.5950952817e-05 0.00208032799619)
(-1.9976063213e-05 3.14263611571e-05 0.00200652531601)
(-2.26023482781e-05 2.62688307814e-05 0.0019234193329)
(3.6637856591e-05 4.14770081683e-05 0.00256898460882)
(3.26536765287e-05 4.89508706392e-05 0.00267138433753)
(2.8711688851e-05 5.55565235453e-05 0.00276123647065)
(2.39869808444e-05 6.1264559747e-05 0.00283699500481)
(1.85855933256e-05 6.5847536855e-05 0.0028973496879)
(1.26859261827e-05 6.91892375383e-05 0.00294121660491)
(6.43453596364e-06 7.12238215981e-05 0.00296784834452)
(7.49032971739e-09 7.19074114785e-05 0.00297679810008)
(-6.41926585933e-06 7.12233577388e-05 0.0029678496063)
(-1.26698967362e-05 6.91881495999e-05 0.00294121927449)
(-1.85688508138e-05 6.58454156071e-05 0.00289735344333)
(-2.39705524748e-05 6.12609198795e-05 0.00283699828941)
(-2.86976167407e-05 5.55511524427e-05 0.00276123731882)
(-3.26431973232e-05 4.89447399508e-05 0.00267139179801)
(-3.66343923656e-05 4.14715217188e-05 0.00256905168215)
(5.02744293528e-05 5.59167207254e-05 0.00313364603944)
(4.48160797523e-05 6.52941122181e-05 0.00324612811237)
(3.93623124145e-05 7.34782909791e-05 0.00334334417297)
(3.28403529365e-05 8.05435325103e-05 0.00342429735581)
(2.54233038776e-05 8.62058739426e-05 0.00348812711484)
(1.73412364244e-05 9.03270224898e-05 0.00353415345203)
(8.7929263497e-06 9.28331889437e-05 0.00356194159362)
(1.05264590672e-08 9.36745120687e-05 0.00357124782412)
(-8.7717172154e-06 9.28327589389e-05 0.00356194164614)
(-1.73196670807e-05 9.03259676117e-05 0.00353415348213)
(-2.54016124475e-05 8.62037428904e-05 0.00348812623189)
(-3.28195752118e-05 8.05397998196e-05 0.00342429306321)
(-3.93443588718e-05 7.34726432559e-05 0.00334333300038)
(-4.48021494584e-05 6.52876657207e-05 0.00324611767973)
(-5.02682120168e-05 5.59110622427e-05 0.00313369230651)
(6.24887981245e-05 6.85797012286e-05 0.00361396736511)
(5.55338857587e-05 7.9336048238e-05 0.00372812275893)
(4.86367808611e-05 8.84952710009e-05 0.00382495965872)
(4.04538053463e-05 9.63757448716e-05 0.00390437275517)
(3.12428312742e-05 0.000102660897495 0.00396620551128)
(2.12723640219e-05 0.000107216869096 0.00401036437799)
(1.07749168091e-05 0.000109980012469 0.00403684754756)
(1.30984695687e-08 0.000110906204323 0.0040456823057)
(-1.07486962975e-05 0.000109979690197 0.00403684591505)
(-2.12461681231e-05 0.00010721600911 0.00401036070336)
(-3.12170545605e-05 0.000102659043903 0.00396619814704)
(-4.04294350113e-05 9.6372357985e-05 0.00390435798697)
(-4.8615503025e-05 8.84899643977e-05 0.00382493208805)
(-5.55166959461e-05 7.93299414464e-05 0.00372808812573)
(-6.24795481004e-05 6.85743946022e-05 0.00361398349607)
(7.26796111009e-05 7.89163011522e-05 0.00401186158789)
(6.42916694699e-05 9.0496855692e-05 0.00412089441034)
(5.60921869603e-05 0.000100032071729 0.00421132897959)
(4.64716536556e-05 0.000108195321325 0.00428414098117)
(3.57776190516e-05 0.000114660966369 0.00433998808402)
(2.43024542547e-05 0.000119322218057 0.00437941619748)
(1.22924475962e-05 0.000122139028117 0.00440287557826)
(1.51415754155e-08 0.000123081443493 0.0044106668725)
(-1.22622524831e-05 0.000122138879303 0.00440287206925)
(-2.42725971735e-05 0.000119321704087 0.00437940835331)
(-3.5748599932e-05 0.000114659650024 0.00433997335187)
(-4.644437251e-05 0.000108192668112 0.00428411419865)
(-5.60680629902e-05 0.000100027624851 0.00421128257493)
(-6.42714740446e-05 9.04916884323e-05 0.00412083247108)
(-7.26672137472e-05 7.89117926869e-05 0.00401184382577)
(8.05565262842e-05 8.67002448832e-05 0.0043333540227)
(7.0874841369e-05 9.85769315688e-05 0.00443243904956)
(6.15665286749e-05 0.000107960543774 0.00451243481213)
(5.07853338052e-05 0.000115943039054 0.00457543291969)
(3.89608019473e-05 0.000122211222433 0.00462288540511)
(2.63950814245e-05 0.000126700848377 0.00465592552683)
(1.33299887977e-05 0.000129402579337 0.00467539767945)
(1.67131620327e-08 0.000130304645911 0.00468183096291)
(-1.32967332976e-05 0.000129402676433 0.00467539232114)
(-2.63623908771e-05 0.000126700839247 0.00465591351882)
(-3.8929231087e-05 0.000122210698388 0.00462286320585)
(-5.0755679252e-05 0.000115941482395 0.00457539379727)
(-6.15399287957e-05 0.000107957432836 0.00451236901695)
(-7.08518966428e-05 9.85732352261e-05 0.00443234974819)
(-8.05410833034e-05 8.66970226716e-05 0.00433330304284)
(8.60638923332e-05 9.19406688967e-05 0.00458707108119)
(7.52849173031e-05 0.000103645604564 0.00467332412678)
(6.50942663253e-05 0.00011245482812 0.00474072171442)
(5.3454291064e-05 0.000119889376335 0.0047923772116)
(4.08583653562e-05 0.000125668046545 0.00483042202967)
(2.76057161189e-05 0.000129776916024 0.00485645717328)
(1.39189731506e-05 0.00013223832349 0.00487161909923)
(1.79253041399e-08 0.0001330584611 0.00487659593918)
(-1.38833454508e-05 0.000132238735071 0.0048716120587)
(-2.75707917553e-05 0.000129777556394 0.00485644133841)
(-4.0824712558e-05 0.000125668545936 0.00483039288158)
(-5.34226053172e-05 0.000119889234717 0.00479232648628)
(-6.50654465792e-05 0.000112453475022 0.00474063773583)
(-7.52594460017e-05 0.000103643845766 0.00467321020818)
(-8.60456242036e-05 9.19392058582e-05 0.00458699120465)
(8.93093094346e-05 9.48037093849e-05 0.00478285994811)
(7.76648754981e-05 0.000105943314305 0.00485506710193)
(6.68330803539e-05 0.000113866603012 0.00490926001454)
(5.46387556523e-05 0.000120485793226 0.0049493882215)
(4.16134022951e-05 0.000125569920008 0.00497809169633)
(2.80418022132e-05 0.000129156344796 0.00499728839306)
(1.41169445124e-05 0.000131294908885 0.00500829028105)
(1.89078241683e-08 0.000132006135881 0.00501187018473)
(-1.40793770733e-05 0.00013129568754 0.00500828185244)
(-2.80049996732e-05 0.000129157742891 0.00499726939128)
(-4.15779202878e-05 0.000125571612282 0.00497805676698)
(-5.46052037054e-05 0.000120487302571 0.0049493277941)
(-6.68021810123e-05 0.000113867325702 0.00490916095714)
(-7.76370759235e-05 0.000105943869845 0.0048549341177)
(-8.9288466434e-05 9.48044143558e-05 0.00478275886739)
(9.05014312256e-05 9.55478143532e-05 0.00493069532849)
(7.82381059928e-05 0.000105802509295 0.0049889262528)
(6.70063358246e-05 0.000112627070561 0.0050304540337)
(5.45489854866e-05 0.000118252006881 0.00505982502307)
(4.14051157268e-05 0.000122513437314 0.0050799932635)
(2.78338647187e-05 0.000125494854227 0.00509303827607)
(1.39925954895e-05 0.00012726508528 0.0051003369126)
(1.97756291254e-08 0.000127852970484 0.00510268031289)
(-1.39532959333e-05 0.000127266247427 0.00510032760433)
(-2.779533047e-05 0.000125497048628 0.00509301729072)
(-4.13678722758e-05 0.000122516386288 0.00507995472559)
(-5.45135875524e-05 0.000118255271247 0.00505975848112)
(-6.69734081306e-05 0.000112630031963 0.00503034548685)
(-7.82081367537e-05 0.00010580561703 0.00498878302562)
(-9.04782709153e-05 9.55509657773e-05 0.00493058454067)
(8.98954271371e-05 9.44705740982e-05 0.00503988249167)
(7.72585501138e-05 0.000103583280256 0.00508507995147)
(6.58610825848e-05 0.000109171675602 0.00511523394846)
(5.34112243933e-05 0.000113695699768 0.00513521961447)
(4.04223195268e-05 0.000117070580309 0.00514810563154)
(2.71170776151e-05 0.000119413698844 0.00515598715467)
(1.36162617147e-05 0.00012080043049 0.00516021091936)
(2.06140052358e-08 0.000121260661509 0.00516153362565)
(-1.35752728033e-05 0.000120801950997 0.00516020164895)
(-2.70768154977e-05 0.000119416632155 0.00515596631738)
(-4.03832766549e-05 0.000117074711473 0.00514806737704)
(-5.33739283395e-05 0.000113700635934 0.00513515325604)
(-6.58261324524e-05 0.000109176824375 0.00511512513068)
(-7.72265505217e-05 0.000103588945995 0.00508493941277)
(-8.98701625444e-05 9.44762758021e-05 0.00503977820633)
(8.77397554448e-05 9.18518797038e-05 0.0051184957751)
(7.49752435666e-05 9.96139722887e-05 0.00515211208278)
(6.36490929273e-05 0.000103887639205 0.0051726195129)
(5.14549821623e-05 0.000107264315916 0.00518492627888)
(3.88528908016e-05 0.000109745200592 0.00519201850834)
(2.60232710347e-05 0.000111458593478 0.00519587429046)
(1.30555747947e-05 0.000112471253586 0.00519773210792)
(2.14738607019e-08 0.00011280752256 0.00519827510951)
(-1.30128555698e-05 0.000112473051032 0.00519772444939)
(-2.59812272337e-05 0.000111462110394 0.00519585721142)
(-3.88119860371e-05 0.000109750278442 0.00519198705412)
(-5.14157504357e-05 0.0001072706419 0.00518487052427)
(-6.36121579863e-05 0.000103894674215 0.00517252501488)
(-7.49413696849e-05 9.96219447685e-05 0.00515199219812)
(-8.77126183648e-05 9.18599701791e-05 0.00511841824193)
(8.42764937957e-05 8.79431440985e-05 0.00517296121066)
(7.16636672534e-05 9.43034825568e-05 0.00519673647819)
(6.06620456298e-05 9.71728726268e-05 0.00520956333368)
(4.89282831273e-05 9.93926754803e-05 0.0052160640843)
(3.68883342978e-05 0.000101005026044 0.00521895911703)
(2.46807982692e-05 0.000102116827797 0.00521998895525)
(1.23745690654e-05 0.000102774092735 0.0052202197999)
(2.2363832172e-08 0.000102992655514 0.00522023290182)
(-1.23300579079e-05 0.000102776035933 0.00522021609249)
(-2.46369332151e-05 0.000102120661092 0.00521998093571)
(-3.68455618318e-05 0.000101010646293 0.00521894402348)
(-4.88871668084e-05 9.93998679643e-05 0.00521603457866)
(-6.0623263356e-05 9.71812401879e-05 0.00520950554592)
(-7.16281304778e-05 9.43132178186e-05 0.00519666209291)
(-8.42476545284e-05 8.7953210862e-05 0.00517293226744)
(7.95962453231e-05 8.42703919232e-05 0.0052077186238)
(6.76411449866e-05 8.82524200747e-05 0.00522383897572)
(5.71714348212e-05 8.95256967108e-05 0.00523104217266)
(4.60368030066e-05 9.05466248186e-05 0.0052336782798)
(3.46774051543e-05 9.12575601091e-05 0.00523400946675)
(2.31846011723e-05 9.17414101604e-05 0.00523342658327)
(1.16194058942e-05 9.20246277347e-05 0.00523277205273)
(2.32667082004e-08 9.21186118005e-05 0.00523250490272)
(-1.15730997453e-05 9.2026473246e-05 0.0052327746598)
(-2.31389566461e-05 9.17450774722e-05 0.00523343291624)
(-3.46328750016e-05 9.12630079955e-05 0.00523402035509)
(-4.59939648025e-05 9.0553770671e-05 0.00523369198466)
(-5.71310216455e-05 8.95343195772e-05 0.005231047713)
(-6.76044056362e-05 8.82629147513e-05 0.00522385356924)
(-7.95657820425e-05 8.42813444844e-05 0.00520773888683)
(-1.05988764821e-07 -2.91615083527e-07 0.000289128335988)
(6.12048164129e-08 -4.60626453325e-07 0.000303166468492)
(2.08972441258e-07 -5.60009616303e-07 0.000315637864442)
(2.84642994268e-07 -5.89911212318e-07 0.000326325288658)
(2.93577753834e-07 -5.78256179288e-07 0.00033495947818)
(2.36917791276e-07 -5.48942285139e-07 0.000341306987468)
(1.32178974484e-07 -5.22571483681e-07 0.000345195665273)
(8.19002160112e-10 -5.12240221332e-07 0.000346516301485)
(-1.30620377244e-07 -5.22661083881e-07 0.000345196853639)
(-2.35562569115e-07 -5.49099621358e-07 0.000341309204826)
(-2.92388820952e-07 -5.78401261412e-07 0.000334962419411)
(-2.83189980677e-07 -5.89860598013e-07 0.000326328716462)
(-2.07312807465e-07 -5.59971156982e-07 0.000315642145198)
(-5.97039072698e-08 -4.60360768161e-07 0.000303174416282)
(1.06948904447e-07 -2.9140528071e-07 0.000289152762678)
(1.06556057268e-06 8.03796288985e-07 0.000873241066916)
(1.36221221462e-06 7.36645696645e-07 0.00091523971141)
(1.58893805238e-06 8.30545340044e-07 0.000952650699806)
(1.60576486819e-06 1.06124788378e-06 0.000984707750331)
(1.42709226483e-06 1.3424612479e-06 0.00101060824271)
(1.06517633889e-06 1.60310877365e-06 0.00102965430746)
(5.69937465219e-07 1.78423361342e-06 0.00104132096914)
(2.38064986083e-09 1.84898195201e-06 0.00104527119974)
(-5.65313313674e-07 1.78389615096e-06 0.00104132405563)
(-1.06089385825e-06 1.60250248706e-06 0.00102966001929)
(-1.42304594617e-06 1.34177763349e-06 0.00101061570051)
(-1.60125747321e-06 1.06086022139e-06 0.000984716241319)
(-1.5840211111e-06 8.30141508961e-07 0.000952661233781)
(-1.35776758747e-06 7.36826454805e-07 0.000915260606649)
(-1.06280847252e-06 8.0400356588e-07 0.000873302647407)
(3.75548218014e-06 3.68594995498e-06 0.00145399665175)
(4.00495462555e-06 4.14867704178e-06 0.00152294673406)
(4.10163890977e-06 4.82411561891e-06 0.00158429296874)
(3.83783722172e-06 5.63856824524e-06 0.00163675589095)
(3.24210881295e-06 6.43930735272e-06 0.00167907170057)
(2.34565843366e-06 7.1071262547e-06 0.00171014953153)
(1.23269846933e-06 7.54692503282e-06 0.00172916507795)
(4.03766172776e-09 7.70033987812e-06 0.00173558984154)
(-1.22475790082e-06 7.54626288151e-06 0.0017291690948)
(-2.33804422079e-06 7.10591306534e-06 0.00171015686297)
(-3.23470161886e-06 6.43783232925e-06 0.00167908096372)
(-3.8299836409e-06 5.63728640065e-06 0.00163676583128)
(-4.09346652957e-06 4.82283978533e-06 0.0015843046888)
(-3.99751530747e-06 4.14815092695e-06 0.00152297219824)
(-3.7508671038e-06 3.68591557528e-06 0.00145407947356)
(8.03052364694e-06 8.3698573363e-06 0.00202200470352)
(8.08116030354e-06 9.72628394255e-06 0.0021151797256)
(7.85237183709e-06 1.1307273195e-05 0.00219767235783)
(7.08466172315e-06 1.29736609262e-05 0.00226788675881)
(5.82978392784e-06 1.44991840767e-05 0.00232429026895)
(4.14617103439e-06 1.571776275e-05 0.00236558238549)
(2.15677616065e-06 1.6500855228e-05 0.00239078724569)
(5.79441129793e-09 1.67708646737e-05 0.00239928402338)
(-2.14531494411e-06 1.65000214647e-05 0.00239079078512)
(-4.13501637775e-06 1.57162147463e-05 0.00236558856756)
(-5.8188588902e-06 1.44972275162e-05 0.00232429726233)
(-7.07348698158e-06 1.2971756219e-05 0.00226789266152)
(-7.84118828933e-06 1.13054078992e-05 0.00219767774805)
(-8.07098142055e-06 9.7253154869e-06 0.00211519823503)
(-8.02402190005e-06 8.36987127341e-06 0.00202208837078)
(1.34572334316e-05 1.43141159457e-05 0.00256559247978)
(1.31765054935e-05 1.6740920867e-05 0.00267837061069)
(1.24636972719e-05 1.93562017892e-05 0.00277733650032)
(1.1018982125e-05 2.19629144734e-05 0.00286091908956)
(8.92882213617e-06 2.42662105859e-05 0.00292761663917)
(6.28452497552e-06 2.6063602698e-05 0.00297619084567)
(3.2486514466e-06 2.72025930091e-05 0.00300572989679)
(7.63829378596e-09 2.75926496228e-05 0.0030156615739)
(-3.23351041091e-06 2.72017418791e-05 0.00300573164695)
(-6.26971846208e-06 2.60620043652e-05 0.00297619325693)
(-8.91434700591e-06 2.42641326487e-05 0.00292761740575)
(-1.10045506466e-05 2.19607829155e-05 0.00286091549174)
(-1.24496543865e-05 1.93541390145e-05 0.00277732802698)
(-1.31637910488e-05 1.67399220384e-05 0.00267837130215)
(-1.34487534987e-05 1.43143993165e-05 0.00256566030187)
(1.9529335962e-05 2.09230073484e-05 0.00307302849438)
(1.88066082096e-05 2.44212525785e-05 0.00319932504412)
(1.74927383075e-05 2.80193888618e-05 0.00330875147637)
(1.52577990105e-05 3.14917474526e-05 0.00340017628245)
(1.22339156022e-05 3.449005241e-05 0.00347246898607)