/*--------------------------------*- C++ -*----------------------------------*\
  =========                 |
  \\      /  F ield         | OpenFOAM: The Open Source CFD Toolbox
   \\    /   O peration     | Website:  https://openfoam.org
    \\  /    A nd           | Version:  7
     \\/     M anipulation  |
\*---------------------------------------------------------------------------*/
FoamFile
{
    version     2.0;
    format      ascii;
    class       surfaceScalarField;
    location    "1.92";
    object      phi;
}
// * * * * * * * * * * * * * * * * * * * * * * * * * * * * * * * * * * * * * //

dimensions      [0 3 -1 0 0 0 0];

internalField   nonuniform List<scalar> 
65775
(
1.34044871536e-11
2.5139036586e-09
3.46468316702e-10
1.98417850763e-14
2.00567623527e-11
2.63273620131e-09
3.83222129411e-10
2.36482606747e-11
2.73485364054e-09
4.18019821067e-10
2.31107490576e-11
2.82302209259e-09
4.49231445902e-10
1.92310462968e-11
2.8933078415e-09
4.75305866918e-10
1.2681295165e-11
2.94473612548e-09
4.94965660648e-10
4.44695654369e-12
2.9770440452e-09
5.07372325468e-10
-4.38529275284e-12
2.98926351157e-09
5.11832443634e-10
-1.26216976121e-11
2.97703469894e-09
5.07372280281e-10
-1.91753165789e-11
2.94471795763e-09
4.9496559647e-10
-2.30609776851e-11
2.89328110723e-09
4.7530582674e-10
-2.36060103551e-11
2.82298872016e-09
4.49231516363e-10
-2.00236878142e-11
2.73481547277e-09
4.18020271666e-10
-1.33778467729e-11
2.63270032445e-09
3.83224166775e-10
2.51388406209e-09
3.46476553801e-10
3.50500599094e-14
3.65089042253e-11
4.33254791319e-09
8.82678813864e-10
4.68871229855e-14
6.04107597916e-11
4.52211320446e-09
9.72855869753e-10
7.13375755544e-11
4.68555199776e-09
1.05752934728e-09
7.02687122485e-11
4.82457296666e-09
1.13297203478e-09
5.85969329194e-11
4.93490607742e-09
1.19565027934e-09
3.86839858469e-11
5.01519495239e-09
1.24271612763e-09
1.35413630948e-11
5.06557698554e-09
1.27234199854e-09
-1.33808195849e-11
5.08471459449e-09
1.28297957889e-09
-3.85286572762e-11
5.06555578866e-09
1.27234191562e-09
-5.84516646884e-11
5.01515351575e-09
1.24271601844e-09
-7.0138434583e-11
4.93484538046e-09
1.19565024396e-09
-7.12266469424e-11
4.82449629807e-09
1.13297229362e-09
-6.03218894839e-11
4.68546414588e-09
1.05753064673e-09
-3.64398089616e-11
4.52202785538e-09
9.72861538132e-10
4.33249313327e-09
8.82698983476e-10
8.85380065561e-14
5.68720896122e-11
5.58615942548e-09
1.29138266156e-09
6.46958570666e-14
9.53545597906e-11
5.81153497753e-09
1.42171635122e-09
1.12377945298e-10
6.00697802786e-09
1.54335394542e-09
1.10574944292e-10
6.17030714888e-09
1.65122266823e-09
9.20856014211e-11
6.29928337949e-09
1.7404984802e-09
6.07276129681e-11
6.39255252601e-09
1.80734454109e-09
2.12352915942e-11
6.45099911445e-09
1.84932980499e-09
-2.0997913672e-11
6.47330846717e-09
1.86437388083e-09
-6.04978022046e-11
6.45097025385e-09
1.84932958498e-09
-9.18705301451e-11
6.39249606041e-09
1.80734417964e-09
-1.10381551697e-10
6.29920082992e-09
1.74049810676e-09
-1.12212468446e-10
6.17020227874e-09
1.65122258335e-09
-9.52203655318e-11
6.00685731604e-09
1.54335517154e-09
-5.67683115605e-11
5.81141559695e-09
1.42172341604e-09
5.58607701324e-09
1.29140913612e-09
1.30305284081e-13
7.52964829004e-11
6.37645392968e-09
1.60031688669e-09
7.62569236107e-14
1.25847379024e-10
6.6128011955e-09
1.76128848069e-09
1.48103030622e-10
6.81852557701e-09
1.9106483808e-09
1.45406467115e-10
6.98735241982e-09
2.04250360874e-09
1.20897312491e-10
7.11975435859e-09
2.15123391766e-09
7.96281590924e-11
7.21482621862e-09
2.23242144432e-09
2.78190528634e-11
7.27429424105e-09
2.28330083726e-09
-2.75226616182e-11
7.29712295142e-09
2.30148805512e-09
-7.93410712835e-11
7.2742618496e-09
2.28330031203e-09
-1.20628414693e-10
7.21476270687e-09
2.23242044748e-09
-1.4516410785e-10
7.11966161779e-09
2.15123258514e-09
-1.47894412826e-10
6.98723424467e-09
2.04250226157e-09
-1.25676477795e-10
6.81838835652e-09
1.91064810028e-09
-7.51631069031e-11
6.61266344975e-09
1.76129416842e-09
6.37635257979e-09
1.6003434016e-09
1.64549786887e-13
9.15411332137e-11
6.79070585278e-09
1.82415970737e-09
8.32032447567e-14
1.52282407935e-10
7.02058272319e-09
2.00806816607e-09
1.7900151439e-10
7.22120345181e-09
2.17770356326e-09
1.75401698122e-10
7.3827426503e-09
2.32676117153e-09
1.45627339088e-10
7.50831660705e-09
2.44921765143e-09
9.5810258433e-11
7.59775839129e-09
2.54039290949e-09
3.34467133142e-11
7.65357649726e-09
2.59739553723e-09
-3.31050805602e-11
7.67514571041e-09
2.61771602253e-09
-9.54791755262e-11
7.65354402915e-09
2.59739459625e-09
-1.45316862495e-10
7.59769471592e-09
2.54039103847e-09
-1.75121096826e-10
7.50822358654e-09
2.44921493739e-09
-1.78758416806e-10
7.38262379242e-09
2.32675785568e-09
-1.52081046932e-10
7.22106399388e-09
2.1777005858e-09
-9.13816580056e-11
7.02044135314e-09
2.00807035346e-09
6.79059753391e-09
1.82418204986e-09
1.93646471089e-13
1.05752869216e-10
6.90414547085e-09
1.97480874842e-09
8.67287094182e-14
1.75064258967e-10
7.11598626048e-09
2.17536217811e-09
2.05497899269e-10
7.30129052422e-09
2.35922860373e-09
2.01002143791e-10
7.44748354455e-09
2.52000617643e-09
1.66659321192e-10
7.55989749973e-09
2.651577532e-09
1.09537701186e-10
7.6392242952e-09
2.74924612991e-09
3.82135263702e-11
7.68859106179e-09
2.81015158659e-09
-3.78368108931e-11
7.70781385515e-09
2.83179580196e-09
-1.09172346713e-10
7.68856172685e-09
2.81015014543e-09
-1.66316153672e-10
7.63916667811e-09
2.74924321594e-09
-2.00690909196e-10
7.55981325597e-09
2.65157314795e-09
-2.05226346021e-10
7.44737543428e-09
2.52000041039e-09
-1.74836394711e-10
7.30116237407e-09
2.35922211598e-09
-1.05569190206e-10
7.11585468795e-09
2.17535955499e-09
6.9040423391e-09
1.97482486281e-09
2.18967041939e-13
1.1817627366e-10
6.78162850706e-09
2.06239303527e-09
8.77877280796e-14
1.94627085339e-10
6.9686157612e-09
2.27448290026e-09
2.28064215585e-10
7.13253127127e-09
2.46772147883e-09
2.22677292528e-10
7.25897689875e-09
2.63584528593e-09
1.84392059772e-10
7.35493257209e-09
2.77287635818e-09
1.2107976732e-10
7.4219273763e-09
2.87428234868e-09
4.22155666073e-11
7.4634807985e-09
2.93734434027e-09
-4.18107162558e-11
7.47980534842e-09
2.95967503144e-09
-1.20686744326e-10
7.46345715759e-09
2.93734242594e-09
-1.84022082191e-10
7.42188088175e-09
2.87427842885e-09
-2.22340281287e-10
7.35486447847e-09
2.77287031303e-09
-2.27767751594e-10
7.25888893713e-09
2.63583698668e-09
-1.94374907836e-10
7.13242549689e-09
2.4677112336e-09
-1.17969062257e-10
6.96850635252e-09
2.27447507805e-09
6.78154240786e-09
2.06240237228e-09
2.41990691677e-13
1.28977977223e-10
6.478946788e-09
2.09580941872e-09
8.69284986228e-14
2.11323984678e-10
6.63796126515e-09
2.31535885864e-09
2.47138273725e-10
6.77761903113e-09
2.51414822215e-09
2.40885862373e-10
6.882663865e-09
2.68621837403e-09
1.99225012063e-10
6.96113543919e-09
2.82589546846e-09
1.30708187287e-10
7.01526723954e-09
2.92893330616e-09
4.55497305812e-11
7.04871454447e-09
2.99282294354e-09
-4.51208872209e-11
7.06198900821e-09
3.01535416243e-09
-1.30291341654e-10
7.04869859547e-09
2.99282066503e-09
-1.98831458605e-10
7.01523586819e-09
2.9289285877e-09
-2.40525482042e-10
6.96108929695e-09
2.82588804218e-09
-2.46818345284e-10
6.88260359826e-09
2.68620785736e-09
-2.1104796807e-10
6.77754474524e-09
2.51413455838e-09
-1.28747012769e-10
6.63788431215e-09
2.31534631441e-09
6.47888847565e-09
2.09581255576e-09
2.63633997366e-13
1.38272173522e-10
6.04383851011e-09
2.08299679768e-09
8.47104461109e-14
2.25451708726e-10
6.17448567323e-09
2.3068345065e-09
2.63136717078e-10
6.28937304871e-09
2.50826304517e-09
2.56085899333e-10
6.37333691695e-09
2.68173273612e-09
2.11564685352e-10
6.43492800153e-09
2.82197789043e-09
1.38700497418e-10
6.47686195236e-09
2.9251094631e-09
4.83148860444e-11
6.502665701e-09
2.98886125477e-09
-4.78636783141e-11
6.5130233007e-09
3.01123853314e-09
-1.38261191899e-10
6.5026587907e-09
2.98885880504e-09
-2.11148441339e-10
6.47684838653e-09
2.92510433003e-09
-2.55702363574e-10
6.43490785669e-09
2.82196965031e-09
-2.6279291781e-10
6.37330962091e-09
2.68172074306e-09
-2.25150950332e-10
6.28933696193e-09
2.50824690411e-09
-1.38016454925e-10
6.17444916086e-09
2.30681851711e-09
6.04381705791e-09
2.08299520275e-09
2.84771411277e-13
1.46150767083e-10
5.51683882204e-09
2.03106633009e-09
8.15289633967e-14
2.37289991456e-10
5.62056836478e-09
2.2568054571e-09
2.76492314518e-10
5.71177919123e-09
2.45874647208e-09
2.68765191508e-10
5.7763207648e-09
2.63180104101e-09
2.21844104995e-10
5.82274672841e-09
2.77116409102e-09
1.45349957143e-10
5.85394714814e-09
2.87333304469e-09
5.06148511001e-11
5.87306760677e-09
2.9362889514e-09
-5.01406743593e-11
5.88083144262e-09
2.95826891667e-09
-1.44887377383e-10
5.87307038022e-09
2.9362866104e-09
-2.21403972022e-10
5.85395272259e-09
2.87332806647e-09
-2.68356876966e-10
5.8227546819e-09
2.77115590803e-09
-2.76122667022e-10
5.77632952823e-09
2.63178875682e-09
-2.36962494671e-10
5.71178550747e-09
2.45872939169e-09
-1.4586858997e-10
5.62057783856e-09
2.25678801824e-09
5.51686096682e-09
2.03106219903e-09
3.06151074618e-13
1.52685292251e-10
4.93207066065e-09
1.94635810612e-09
7.77696080177e-14
2.47138347842e-10
5.01135634256e-09
2.17227581824e-09
2.8770152039e-10
5.0809609436e-09
2.373263587e-09
2.7947400544e-10
5.1286111312e-09
2.54469838158e-09
2.30536344608e-10
5.16231238862e-09
2.68224667055e-09
1.50968595474e-10
5.18473298391e-09
2.78279059148e-09
5.25584159415e-11
5.19841986229e-09
2.84454280297e-09
-5.20587733199e-11
5.20402522252e-09
2.86597246111e-09
-1.5048009683e-10
5.19843225075e-09
2.84454093804e-09
-2.30069436413e-10
5.18475769054e-09
2.78278652614e-09
-2.79037796355e-10
5.16234865996e-09
2.68223972733e-09
-2.87302920998e-10
5.12865669824e-09
2.5446874409e-09
-2.46781351377e-10
5.0810113812e-09
2.37324767161e-09
-1.52374496425e-10
5.01141473053e-09
2.17225953413e-09
4.93214039283e-09
1.94635423075e-09
3.28466026657e-13
1.57926978894e-10
4.3180113083e-09
1.83446545533e-09
7.34625213637e-14
2.55415347976e-10
4.37548577847e-09
2.05938911426e-09
2.97422210137e-10
4.42611544076e-09
2.25850129657e-09
2.88867464526e-10
4.46002951023e-09
2.42760163895e-09
2.38157063641e-10
4.48390048112e-09
2.56281044828e-09
1.55877486156e-10
4.49973191466e-09
2.66137395078e-09
5.42544737021e-11
4.50934853653e-09
2.72170864641e-09
-5.3725434771e-11
4.51327629517e-09
2.74250514786e-09
-1.55359058505e-10
4.50936986401e-09
2.72170770122e-09
-2.37659321041e-10
4.49977437872e-09
2.66137172553e-09
-2.88399349387e-10
4.48396339115e-09
2.56280621664e-09
-2.96990972482e-10
4.46011036524e-09
2.42759409901e-09
-2.55025875457e-10
4.42620924364e-09
2.25848914668e-09
-1.57585466041e-10
4.37559335334e-09
2.05937700384e-09
4.31813000356e-09
1.83446501208e-09
3.52337647628e-13
1.62108798552e-10
3.69804458146e-09
1.70024966501e-09
6.87558425947e-14
2.63000512231e-10
3.73562401745e-09
1.92346745583e-09
3.06629861669e-10
3.77058380814e-09
2.12021964405e-09
2.97697150086e-10
3.79448887923e-09
2.28664303346e-09
2.45199627055e-10
3.81161149259e-09
2.41928838042e-09
1.6035243968e-10
3.82301798637e-09
2.51573976335e-09
5.579179084e-11
3.82986867515e-09
2.57458398358e-09
-5.52285900163e-11
3.83258525592e-09
2.594715658e-09
-1.59799452628e-10
3.82989762684e-09
2.57458443889e-09
-2.44666535504e-10
3.82307584873e-09
2.51574039796e-09
-2.9719299375e-10
3.81169773248e-09
2.41928851977e-09
-3.06162505266e-10
3.79460144558e-09
2.2866412744e-09
-2.62576136584e-10
3.77071784857e-09
2.12021424068e-09
-1.61735291728e-10
3.73577871471e-09
1.92346263597e-09
3.69821105216e-09
1.70025557362e-09
3.76292785264e-13
1.66518776932e-10
3.09011934764e-09
1.5478582568e-09
6.35029976891e-14
2.71658018909e-10
3.10937483533e-09
1.76909822005e-09
3.1641428506e-10
3.13346156775e-09
1.96333837416e-09
3.06428314415e-10
3.15136163093e-09
2.12698814699e-09
2.51827116365e-10
3.16448734751e-09
2.25704166085e-09
1.64444496596e-10
3.17326896877e-09
2.35139543538e-09
5.71822787438e-11
3.17843568604e-09
2.40876888523e-09
-5.65802240064e-11
3.18034107489e-09
2.42823818357e-09
-1.63852468129e-10
3.17847073637e-09
2.40877116602e-09
-2.51254743655e-10
3.17333904643e-09
2.35139985035e-09
-3.05884869237e-10
3.16459223587e-09
2.25704773981e-09
-3.15908564164e-10
3.15150010893e-09
2.12699459686e-09
-2.71197460437e-10
3.13363014069e-09
1.96334294976e-09
-1.66113244656e-10
3.10957237546e-09
1.76910368417e-09
3.09032839989e-09
1.54787239256e-09
4.01091197243e-13
1.76181468272e-10
1.38104284752e-09
5.79942525694e-14
2.50340723244e-09
2.84446420013e-10
1.60057961767e-09
2.51201032576e-09
3.27817469176e-10
1.79219780333e-09
2.53152125706e-09
3.15308345678e-10
1.95301790003e-09
2.54643327977e-09
2.58099968811e-10
2.08049499195e-09
2.55733183961e-09
1.68182726172e-10
2.17280137164e-09
2.56473483759e-09
5.84361517439e-11
2.22874738104e-09
2.56903827306e-09
-5.77915756746e-11
2.24756668237e-09
2.57046189571e-09
-1.67548596941e-10
2.22875160806e-09
2.56907802902e-09
-2.57486298249e-10
2.17280985253e-09
2.5648143919e-09
-3.14724943377e-10
2.08050760357e-09
2.55745103649e-09
-3.27273912392e-10
1.95303384447e-09
2.54659166558e-09
-2.83952011685e-10
1.79221455761e-09
2.53171729422e-09
-1.75747574444e-10
1.60059955516e-09
2.51224320448e-09
1.38106261264e-09
4.24864782171e-13
2.50365387571e-09
-3.70056035141e-12
1.33866659939e-10
2.16318273453e-10
6.24497868227e-15
-4.90508951872e-12
1.46598465608e-10
2.37864714288e-10
-5.19607962245e-12
1.60325704859e-10
2.58021367161e-10
-4.84859166354e-12
1.72934947168e-10
2.75981630613e-10
-3.93267292851e-12
1.83505712714e-10
2.90908233565e-10
-2.56003599734e-12
1.91490006592e-10
3.02121254211e-10
-8.81936441022e-13
1.96524417287e-10
3.09186202297e-10
9.04780016292e-13
1.98328816597e-10
3.11733074517e-10
2.583881495e-12
1.96522669638e-10
3.09186529878e-10
3.95816786215e-12
1.91485187015e-10
3.02121918313e-10
4.87485696144e-12
1.83495263441e-10
2.90909260407e-10
5.22037746155e-12
1.72917944288e-10
2.75983121816e-10
4.92547713099e-12
1.60306184933e-10
2.58023672189e-10
3.71558131869e-12
1.46579221744e-10
2.3786905117e-10
1.33861265117e-10
2.16328624975e-10
1.57538313869e-14
-6.29269976614e-12
3.94374602442e-10
6.28488617867e-10
1.651455155e-14
-8.56485603541e-12
4.2900358482e-10
6.92779466783e-10
-8.99378229797e-12
4.65336681822e-10
7.53004979721e-10
-8.2689346435e-12
4.9854113734e-10
8.06690269469e-10
-6.62349634028e-12
5.26219264556e-10
8.5132846869e-10
-4.27056556422e-12
5.47007754427e-10
8.84875227475e-10
-1.45429549511e-12
5.60077330575e-10
9.06000010753e-10
1.53127281713e-12
5.64764815783e-10
9.1358460451e-10
4.34916363156e-12
5.6007203848e-10
9.06000857411e-10
6.70429981204e-12
5.4699474078e-10
8.84876954061e-10
8.34940972307e-12
5.26194175826e-10
8.51331174426e-10
9.0676680933e-12
4.98501987122e-10
8.06694270723e-10
8.62656016142e-12
4.652902128e-10
7.53011269984e-10
6.33869940606e-12
4.28959594707e-10
6.9279147746e-10
3.94358016864e-10
6.28515280585e-10
4.65658713505e-14
-5.49364412162e-12
7.01207369977e-10
9.90058134968e-10
2.48972416803e-14
-7.31999220729e-12
7.59254084134e-10
1.09334316061e-09
-7.38663490669e-12
8.188448284e-10
1.18996505135e-09
-6.52280604901e-12
8.72968064636e-10
1.2759761472e-09
-5.05806775717e-12
9.17871809215e-10
1.34741527635e-09
-3.18380377251e-12
9.51446757751e-10
1.40105915058e-09
-1.05091487148e-12
9.72501170855e-10
1.43479868379e-09
1.18634275278e-12
9.80051477451e-10
1.4468749291e-09
3.32033646294e-12
9.72492319842e-10
1.43479983232e-09
5.19535383497e-12
9.51426352786e-10
1.40106150727e-09
6.65673718642e-12
9.17835189935e-10
1.34741901008e-09
7.50884623786e-12
8.72913370883e-10
1.27598174869e-09
7.4223034659e-12
8.18779874153e-10
1.18997395605e-09
5.57116104515e-12
7.59194757659e-10
1.0933602186e-09
7.0118435999e-10
9.90095526927e-10
7.7698199885e-14
-2.22883374035e-12
1.00859840167e-09
1.29516019826e-09
3.20388984839e-14
-2.30269769087e-12
1.08798622467e-09
1.43267672536e-09
-1.5643712237e-12
1.1678075939e-09
1.56099431611e-09
-7.6486861713e-13
1.23973810559e-09
1.6749735395e-09
-2.09451122822e-13
1.29910455076e-09
1.76947721527e-09
4.80684706532e-14
1.34329397679e-09
1.84034318244e-09
9.80576040421e-14
1.3709312583e-09
1.88484521626e-09
9.69693521925e-14
1.38083869802e-09
1.90072558887e-09
1.46813348447e-13
1.37091951277e-09
1.8848463663e-09
4.02424451545e-13
1.34326807218e-09
1.84034559859e-09
9.50441403657e-13
1.29906050304e-09
1.76948111175e-09
1.7329663975e-12
1.23967481977e-09
1.67497950574e-09
2.44472195857e-12
1.16773267078e-09
1.56100400271e-09
2.33842562273e-12
1.0879188116e-09
1.43269565809e-09
1.00857168917e-09
1.29520213142e-09
1.10003490319e-13
2.87690197675e-12
1.28504080585e-09
1.54483666922e-09
3.81267767155e-14
5.52967555605e-12
1.38170519675e-09
1.71173844691e-09
7.43572361137e-12
1.47670556721e-09
1.86694078777e-09
8.01047675286e-12
1.56154980248e-09
2.0044099436e-09
7.0943134898e-12
1.63113986943e-09
2.11812713646e-09
4.87531089483e-12
1.68268513564e-09
2.20324538895e-09
1.79923757545e-12
1.71482860234e-09
2.25659712014e-09
-1.54579913565e-12
1.72634545777e-09
2.27557638066e-09
-4.62362025202e-12
1.71481536909e-09
2.25659802609e-09
-6.84770920485e-12
1.682656718e-09
2.20324735806e-09
-7.77562047573e-12
1.63109321255e-09
2.11813040735e-09
-7.22290592805e-12
1.56148447101e-09
2.00441512933e-09
-5.34901710056e-12
1.476628666e-09
1.866949539e-09
-2.73488104664e-12
1.38163621575e-09
1.71175652472e-09
1.28501399752e-09
1.54487848575e-09
1.42745704711e-13
9.23816899649e-12
1.51033702413e-09
1.74026358684e-09
4.32892453463e-14
1.53447815376e-11
1.61929436873e-09
1.9317033032e-09
1.87070366642e-11
1.72362827852e-09
2.10898016984e-09
1.89485139892e-11
1.81588313407e-09
2.26546308959e-09
1.61531820291e-11
1.89099186998e-09
2.39454740636e-09
1.08387292573e-11
1.94631465595e-09
2.49095436795e-09
3.89224649003e-12
1.980697551e-09
2.5512508242e-09
-3.58304755634e-12
1.99300732855e-09
2.57263006656e-09
-1.05329773171e-11
1.98068423533e-09
2.55125139756e-09
-1.58557535612e-11
1.94628659904e-09
2.49095567119e-09
-1.86670474625e-11
1.89094700398e-09
2.39454964468e-09
-1.84521217676e-11
1.81582154008e-09
2.26546679084e-09
-1.51267198329e-11
1.72355612026e-09
2.10898680642e-09
-9.06348020968e-12
1.61923019694e-09
1.93171865735e-09
1.51031294008e-09
1.74030245371e-09
1.75178408432e-13
1.63294709535e-11
1.67325425307e-09
1.88312869991e-09
4.74980882339e-14
2.64075487797e-11
1.78932601332e-09
2.09440540675e-09
3.14416112705e-11
1.89723016872e-09
2.28911782288e-09
3.12907672367e-11
1.99159104423e-09
2.46031651365e-09
2.6351259744e-11
2.06774308515e-09
2.60108891759e-09
1.75375108442e-11
2.12347352086e-09
2.70595886531e-09
6.2378459287e-12
2.15797317335e-09
2.77138864223e-09
-5.87633398743e-12
2.17031074475e-09
2.79450524161e-09
-1.71810526228e-11
2.15796127441e-09
2.7713888904e-09
-2.60060972869e-11
2.12344877925e-09
2.70595949055e-09
-3.09653372821e-11
2.06770416237e-09
2.60109003728e-09
-3.11465546878e-11
1.99153828125e-09
2.46031847607e-09
-2.61531782969e-11
1.89716832393e-09
2.28912179644e-09
-1.61222777498e-11
1.78927228513e-09
2.09441713019e-09
1.67323655293e-09
1.88316322322e-09
2.07114933696e-13
2.37137894743e-11
1.76956208551e-09
1.97576369767e-09
5.07330189324e-14
3.80906700858e-11
1.88786057763e-09
2.20247562078e-09
4.49421269586e-11
1.9942313329e-09
2.4103238149e-09
4.43831148628e-11
2.08610759392e-09
2.59228617575e-09
3.71608956258e-11
2.15949703096e-09
2.74138606508e-09
2.46306604277e-11
2.21280618486e-09
2.85215112491e-09
8.71821544974e-12
2.24565368686e-09
2.92107391232e-09
-8.30802527678e-12
2.25738060319e-09
2.94532878646e-09
-2.4226926992e-11
2.24564442728e-09
2.92107398408e-09
-3.67710230381e-11
2.2127871241e-09
2.8521513432e-09
-4.40161489402e-11
2.15946740124e-09
2.74138640754e-09
-4.46086908937e-11
2.08606780386e-09
2.59228672895e-09
-3.78009047794e-11
1.99418472408e-09
2.41032535866e-09
-2.34745074211e-11
1.88782215642e-09
2.20248385673e-09
1.76955559352e-09
1.97579374995e-09
2.38205692893e-13
3.10451268702e-11
1.80036028456e-09
2.0211243124e-09
5.31834199924e-14
4.98733313905e-11
1.91659548382e-09
2.2592958179e-09
5.86242747735e-11
2.01731388761e-09
2.47645404523e-09
5.76783329717e-11
2.10310452269e-09
2.66570425797e-09
4.81439901363e-11
2.17082624224e-09
2.82020326538e-09
3.18371253746e-11
2.21959978434e-09
2.93464141253e-09
1.12367446189e-11
2.24948919119e-09
3.00564380652e-09
-1.07813726168e-11
2.26013331506e-09
3.03052089349e-09
-3.13893625696e-11
2.24948356323e-09
3.00564399726e-09
-4.77121772776e-11
2.21958828529e-09
2.93464179264e-09
-5.72719716103e-11
2.17080851346e-09
2.8202036291e-09
-5.82539666126e-11
2.10308083705e-09
2.66570436189e-09
-4.95491159374e-11
2.01728631174e-09
2.47645421948e-09
-3.07741867472e-11
1.91657672665e-09
2.25930174615e-09
1.8003692305e-09
2.02115089393e-09
2.6820482179e-13
3.80671553321e-11
1.77064428943e-09
2.0226817303e-09
5.48367315352e-14
6.134256533e-11
1.88129519074e-09
2.2688512058e-09
7.20208324313e-11
1.97334554518e-09
2.49205767823e-09
7.07405132071e-11
2.05052783961e-09
2.68567789902e-09
5.89545474909e-11
2.11064822969e-09
2.84314643773e-09
3.89365491423e-11
2.15353795691e-09
2.95943006741e-09
1.37180384614e-11
2.17965790204e-09
3.0313551648e-09
-1.32207047965e-11
2.18892516998e-09
3.05643154039e-09
-3.84477447429e-11
2.17965649613e-09
3.03135590942e-09
-5.8483341276e-11
2.15353513778e-09
2.95943146599e-09
-7.02967741916e-11
2.11064397908e-09
2.84314807123e-09
-7.1615139701e-11
2.0505223776e-09
2.68567913813e-09
-6.098496704e-11
1.97333986157e-09
2.492058344e-09
-3.77653326617e-11
1.88129976214e-09
2.26885695377e-09
1.77067319954e-09
2.02270682837e-09
2.96952675151e-13
4.46084369065e-11
1.68809111371e-09
1.98426624575e-09
5.5947561304e-14
7.2196338427e-11
1.79046649995e-09
2.23553439397e-09
8.47911488707e-11
1.87189499013e-09
2.46213753542e-09
8.32556067208e-11
1.93897844613e-09
2.65780076618e-09
6.9345498805e-11
1.99049441194e-09
2.8163270728e-09
4.57722636986e-11
2.02688495814e-09
2.93303256435e-09
1.61085450475e-11
2.04889546172e-09
3.00498402653e-09
-1.55723205868e-11
2.0566621152e-09
3.02993096068e-09
-4.52453121043e-11
2.04889853445e-09
3.00498587624e-09
-6.88374566143e-11
2.02689133242e-09
2.93303608422e-09
-8.27766255425e-11
1.99050433907e-09
2.81633162125e-09
-8.43518456574e-11
1.93899220208e-09
2.65780528334e-09
-7.18068568264e-11
1.87191287108e-09
2.46214124878e-09
-4.42768844201e-11
1.79049710238e-09
2.23554285207e-09
1.68814345784e-09
1.98429264763e-09
3.24199820452e-13
5.05751928808e-11
1.56205055756e-09
1.90989162567e-09
5.64948707881e-14
8.22557210222e-11
1.65424731773e-09
2.16394302104e-09
9.67471775223e-11
1.72400645952e-09
2.39191396039e-09
9.50551171866e-11
1.78041502745e-09
2.58787237253e-09
7.91828920799e-11
1.82315390221e-09
2.74603784661e-09
5.22572925806e-11
1.85307811438e-09
2.86212047514e-09
1.83780740933e-11
1.8710524593e-09
2.93344459568e-09
-1.78061604091e-11
1.87734372664e-09
2.95802091129e-09
-5.16952920658e-11
1.87106006207e-09
2.93344816964e-09
-7.86409641768e-11
1.85309362972e-09
2.86212737447e-09
-9.45436147005e-11
1.82317800457e-09
2.74604723134e-09
-9.62767774679e-11
1.78044811453e-09
2.58788272873e-09
-8.18366518118e-11
1.72404863581e-09
2.3919237799e-09
-5.021597404e-11
1.65430549279e-09
2.16395750941e-09
1.56212912154e-09
1.90992257178e-09
3.49697135263e-13
5.59927358442e-11
1.40268583429e-09
1.80358061808e-09
5.65419411163e-14
9.15578484698e-11
1.48344902811e-09
2.05871375518e-09
1.07947040416e-10
1.54121572954e-09
2.28663464519e-09
1.06180559404e-10
1.58717574082e-09
2.4816619308e-09
8.84807507939e-11
1.62167923061e-09
2.63847580397e-09
5.83900722214e-11
1.64570525517e-09
2.7532159744e-09
2.05238778813e-11
1.66004799071e-09
2.8234667926e-09
-1.99199293822e-11
1.66500874459e-09
2.84750646085e-09
-5.77967641525e-11
1.66006000202e-09
2.82347268993e-09
-8.79086385634e-11
1.64572980139e-09
2.75322749608e-09
-1.05640295829e-10
1.62171710653e-09
2.63849199152e-09
-1.07449211183e-10
1.58722782166e-09
2.48168086021e-09
-9.11127568258e-11
1.54128211155e-09
2.28665386853e-09
-5.5609093927e-11
1.48353568477e-09
2.05873752773e-09
1.40279271011e-09
1.80361891279e-09
3.71863010392e-13
6.10080658972e-11
1.22028611894e-09
1.66920842628e-09
5.61117426667e-14
1.00334464216e-10
1.28876975521e-09
1.92446249549e-09
1.18677674082e-10
1.33475971663e-09
2.15146263747e-09
1.16863466091e-10
1.371260105e-09
2.34472969204e-09
9.73884702052e-11
1.39868098172e-09
2.49952635481e-09
6.4250071039e-11
1.41779411348e-09
2.61245614385e-09
2.25705550637e-11
1.4291570314e-09
2.68135043396e-09
-2.19390026653e-11
1.43302012442e-09
2.70474687057e-09
-6.3629964495e-11
1.42917354221e-09
2.68135908653e-09
-9.6791028326e-11
1.4178275628e-09
2.61247321634e-09
-1.16299458389e-10
1.39873233363e-09
2.49955092874e-09
-1.18157671626e-10
1.37133038198e-09
2.34475966343e-09
-9.98681571723e-11
1.33484970581e-09
2.15149454343e-09
-6.0604375418e-11
1.28888496692e-09
1.92449839358e-09
1.22042118014e-09
1.66925539908e-09
3.91229057381e-13
6.20380056602e-11
1.51034425682e-09
5.55894689732e-14
1.02890479619e-09
1.07176116464e-10
1.76590936013e-09
1.07831215182e-09
1.28397332939e-10
1.99130303806e-09
1.11444368648e-09
1.26982759506e-10
2.182207995e-09
1.14349477035e-09
1.05989200323e-10
2.33457038934e-09
1.1656094694e-09
6.99613117157e-11
2.4454352141e-09
1.18119834407e-09
2.45719019201e-11
2.51283228892e-09
1.1904712856e-09
-2.39179756195e-11
2.53553129285e-09
1.19355495416e-09
-6.9320000383e-11
2.5128436507e-09
1.19049260108e-09
-1.05372479788e-10
2.44545778602e-09
1.18124137383e-09
-1.26401852472e-10
2.33460346287e-09
1.16567487652e-09
-1.27862338625e-10
2.18224976171e-09
1.1435835935e-09
-1.06696425603e-10
1.99134933841e-09
1.11455701441e-09
-6.16209224971e-11
1.76596137757e-09
1.07845506207e-09
1.51039575988e-09
4.04336838634e-13
1.02906963621e-09
1.54979463864e-12
-6.2610027078e-12
2.21046179297e-10
1.58363191344e-15
2.46701574244e-12
-7.34993385514e-12
2.44317246832e-10
2.95772285755e-12
-8.6564226609e-12
2.66210035751e-10
2.96478862673e-12
-9.81749340346e-12
2.85809972656e-10
2.51513171077e-12
-1.07854867163e-11
3.02162940918e-10
1.68556854695e-12
-1.15135407751e-11
3.1448443878e-10
6.02288452292e-13
-1.19717092026e-11
3.22259477796e-10
-5.7349888074e-13
-1.2133470495e-11
3.25057987664e-10
-1.6579648771e-12
-1.19755537208e-11
3.22260158399e-10
-2.48955162285e-12
-1.15201157551e-11
3.14485815463e-10
-2.94106622956e-12
-1.07930892596e-11
3.02165058183e-10
-2.93489691551e-12
-9.82546567115e-12
2.85812953377e-10
-2.44761078619e-12
-8.66781588699e-12
2.66214199321e-10
-1.53356723942e-12
-7.35918504847e-12
2.44323689663e-10
-6.26750809224e-12
2.21058369167e-10
1.31479679941e-14
3.78338497823e-12
1.01143076374e-11
6.08355503157e-10
3.54898713853e-15
6.26940804763e-12
1.07399550316e-11
6.72236711976e-10
7.57839061533e-12
1.09037739998e-11
7.32169478422e-10
7.62845491465e-12
1.11841442602e-11
7.85669050807e-10
6.48166166384e-12
1.15170057414e-11
8.30204483102e-10
4.34726611707e-12
1.18225589779e-11
8.63704936471e-10
1.55652673127e-12
1.20352327674e-11
8.84812235347e-10
-1.47064638422e-12
1.21143251876e-11
8.92388728498e-10
-4.2643457166e-12
1.20265768145e-11
8.8481418475e-10
-6.40390745316e-12
1.18071105411e-11
8.63708876171e-10
-7.55615483991e-12
1.14978602751e-11
8.30210541976e-10
-7.51105151766e-12
1.11630827807e-11
7.85677578012e-10
-6.21099408387e-12
1.08780454848e-11
7.32181392511e-10
-3.73562637151e-12
1.07169211474e-11
6.72255049603e-10
1.00991452303e-11
6.08387950634e-10
3.89060856584e-14
5.42908037182e-12
5.39711451034e-11
9.40793587461e-10
4.79448834485e-15
9.19284495301e-12
5.96036413891e-11
1.04074614106e-09
1.11746555297e-11
6.45884473066e-11
1.13432840854e-09
1.12725687275e-11
6.93784698194e-11
1.21771209777e-09
9.58452593419e-12
7.362264232e-11
1.28702667642e-09
6.42989564409e-12
7.695407949e-11
1.33911095988e-09
2.30567162996e-12
7.9100708437e-11
1.37188355324e-09
-2.16464124917e-12
7.98698878509e-11
1.38361261422e-09
-6.29317098883e-12
7.90886889521e-11
1.37188655737e-09
-9.45547371123e-12
7.69322529503e-11
1.33911703416e-09
-1.11524780171e-11
7.35948312306e-11
1.28703601903e-09
-1.1064285953e-11
6.93473617773e-11
1.21772522358e-09
-9.09668721816e-12
6.45528197644e-11
1.13434663344e-09
-5.35047367458e-12
5.95712821288e-11
1.04077370716e-09
5.39517678278e-11
9.40840879415e-10
6.4472638537e-14
6.80992967866e-12
1.18146055115e-10
1.2241936123e-09
5.90207570644e-15
1.17016781249e-11
1.31003339855e-10
1.35641148377e-09
1.42966683447e-11
1.43085273305e-10
1.47992895561e-09
1.44503782761e-11
1.54438696351e-10
1.58978557198e-09
1.22957556355e-11
1.64302386632e-10
1.68097834294e-09
8.25090962301e-12
1.71939904487e-10
1.74942773687e-09
2.96195313052e-12
1.76820529995e-10
1.79243776097e-09
-2.76746132513e-12
1.78561160475e-10
1.80778464639e-09
-8.06181095982e-12
1.76806621149e-10
1.79244154183e-09
-1.21164869013e-11
1.71914266484e-10
1.74943538491e-09
-1.42835552986e-11
1.6426883001e-10
1.68099010323e-09
-1.41444321699e-11
1.54400690058e-10
1.58980204517e-09
-1.15689355119e-11
1.43043834612e-10
1.479951622e-09
-6.70055166657e-12
1.30966538614e-10
1.35644511778e-09
1.1812484688e-10
1.22424982747e-09
9.05102655752e-14
8.1698589054e-12
1.9502670349e-10
1.45980096524e-09
7.05679119653e-15
1.41597921879e-11
2.16219966439e-10
1.62055380871e-09
1.73546058599e-11
2.36508621476e-10
1.77034587488e-09
1.75631085235e-11
2.55361038323e-10
1.90330194923e-09
1.49512617348e-11
2.71568501382e-10
2.01349602608e-09
1.0033854924e-11
2.8402025869e-10
2.09610511014e-09
3.60398017638e-12
2.91935689052e-10
2.14793286819e-09
-3.35757727804e-12
2.94749583544e-10
2.16636857693e-09
-9.79382573241e-12
2.91920983338e-10
2.14793720163e-09
-1.47231024057e-11
2.8399294489e-10
2.09611386909e-09
-1.73507877287e-11
2.71532322364e-10
2.0135094607e-09
-1.71615503634e-11
2.55319942773e-10
1.90332064418e-09
-1.39913514311e-11
2.36465087223e-10
1.77037125135e-09
-8.02997772899e-12
2.1618309405e-10
1.62059077162e-09
1.95006149022e-10
1.45986159729e-09
1.16788258148e-13
9.69741645665e-12
2.76771267962e-10
1.64883186241e-09
8.21986237392e-15
1.68591073174e-11
3.06344285996e-10
1.83443641532e-09
2.06860942202e-11
3.34805414527e-10
2.00687627032e-09
2.09425254932e-11
3.61008667503e-10
2.15957910206e-09
1.78288369374e-11