/*--------------------------------*- C++ -*----------------------------------*\
  =========                 |
  \\      /  F ield         | OpenFOAM: The Open Source CFD Toolbox
   \\    /   O peration     | Website:  https://openfoam.org
    \\  /    A nd           | Version:  7
     \\/     M anipulation  |
\*---------------------------------------------------------------------------*/
FoamFile
{
    version     2.0;
    format      ascii;
    class       volScalarField;
    location    "1.98";
    object      p;
}
// * * * * * * * * * * * * * * * * * * * * * * * * * * * * * * * * * * * * * //

dimensions      [0 2 -2 0 0 0 0];

internalField   nonuniform List<scalar> 
22500
(
-3.07883125822e-05
-3.0789445844e-05
-3.07900026865e-05
-3.07908630787e-05
-3.07920283479e-05
-3.07931418652e-05
-3.07939214869e-05
-3.07942051016e-05
-3.07939672863e-05
-3.07932321972e-05
-3.07921601565e-05
-3.0791032532e-05
-3.07902049437e-05
-3.07896767523e-05
-3.07885672342e-05
-3.08147564426e-05
-3.08170618281e-05
-3.08188202526e-05
-3.08206384519e-05
-3.08225296317e-05
-3.08241631822e-05
-3.08252598718e-05
-3.08256545187e-05
-3.08253099437e-05
-3.08242619496e-05
-3.082267399e-05
-3.08208244259e-05
-3.08190426893e-05
-3.08173158734e-05
-3.08150382005e-05
-3.08390957884e-05
-3.08425618511e-05
-3.08452136054e-05
-3.08478504589e-05
-3.08503615724e-05
-3.08524346322e-05
-3.08537968133e-05
-3.08542838655e-05
-3.08538512611e-05
-3.08525420847e-05
-3.08505188245e-05
-3.08480533867e-05
-3.08454566124e-05
-3.08428395196e-05
-3.08394029938e-05
-3.08585888226e-05
-3.08627666952e-05
-3.08656778265e-05
-3.08686231346e-05
-3.08713160389e-05
-3.08734842813e-05
-3.08748898578e-05
-3.08753917739e-05
-3.0874948299e-05
-3.08735997309e-05
-3.08714851344e-05
-3.08688415936e-05
-3.08659394909e-05
-3.08630659968e-05
-3.08589165519e-05
-3.08729644866e-05
-3.087689983e-05
-3.08791939308e-05
-3.08815943972e-05
-3.08837219256e-05
-3.08853972331e-05
-3.08864695383e-05
-3.0886856038e-05
-3.08865315793e-05
-3.08855200518e-05
-3.08839020297e-05
-3.08818273051e-05
-3.08794728636e-05
-3.08772193645e-05
-3.08733096551e-05
-3.08806011808e-05
-3.08827841077e-05
-3.08833040872e-05
-3.08839900343e-05
-3.0884547778e-05
-3.0884953168e-05
-3.08852013893e-05
-3.08853043333e-05
-3.08852671531e-05
-3.08850834357e-05
-3.0884738855e-05
-3.08842371182e-05
-3.08835997387e-05
-3.08831229959e-05
-3.08809625495e-05
-3.08795221261e-05
-3.08780611185e-05
-3.08754747073e-05
-3.08731255956e-05
-3.08710031685e-05
-3.08692953557e-05
-3.08681934096e-05
-3.08678338012e-05
-3.08682630401e-05
-3.0869433268e-05
-3.08712053855e-05
-3.0873386869e-05
-3.08757869089e-05
-3.08784187627e-05
-3.08798999098e-05
-3.08680790402e-05
-3.08609712546e-05
-3.08539256806e-05
-3.08472653338e-05
-3.08414100453e-05
-3.08368053748e-05
-3.08338706973e-05
-3.08328855091e-05
-3.08339443007e-05
-3.08369510871e-05
-3.08416235516e-05
-3.0847540852e-05
-3.0854254433e-05
-3.08613471707e-05
-3.08684742324e-05
-3.08451973849e-05
-3.08306041528e-05
-3.0817881002e-05
-3.08058468211e-05
-3.07954004583e-05
-3.07872766578e-05
-3.07821328318e-05
-3.07803961002e-05
-3.07822103769e-05
-3.07874300763e-05
-3.07956250929e-05
-3.08061363204e-05
-3.08182260456e-05
-3.08309976831e-05
-3.08456108761e-05
-3.08104741759e-05
-3.07869411092e-05
-3.07675840584e-05
-3.07494432864e-05
-3.07338337103e-05
-3.07217949869e-05
-3.07142110717e-05
-3.0711646973e-05
-3.0714292308e-05
-3.07219556154e-05
-3.07340687637e-05
-3.07497459019e-05
-3.07679445014e-05
-3.07873510988e-05
-3.08109061029e-05
-3.07641741525e-05
-3.07307766061e-05
-3.07041897862e-05
-3.0679597961e-05
-3.06585807646e-05
-3.06424834619e-05
-3.06323884396e-05
-3.06289759333e-05
-3.0632472859e-05
-3.06426503178e-05
-3.06588248585e-05
-3.06799120355e-05
-3.07045638665e-05
-3.07312011481e-05
-3.07646234874e-05
-3.07069996709e-05
-3.06635652338e-05
-3.06296355135e-05
-3.05986451519e-05
-3.0572295444e-05
-3.05522360745e-05
-3.05397103378e-05
-3.05354801461e-05
-3.05397971863e-05
-3.0552407698e-05
-3.05725465348e-05
-3.05989682403e-05
-3.06300205696e-05
-3.06640016008e-05
-3.07074641331e-05
-3.06395340003e-05
-3.05871955179e-05
-3.05464128817e-05
-3.05094328457e-05
-3.04781278574e-05
-3.04544440887e-05
-3.04397243147e-05
-3.04347612336e-05
-3.04398125395e-05
-3.04546184706e-05
-3.04783831177e-05
-3.05097615567e-05
-3.05468052318e-05
-3.05876401653e-05
-3.06400102045e-05
-3.05635072103e-05
-3.05039477315e-05
-3.04569763072e-05
-3.04146306305e-05
-3.03791109889e-05
-3.0352484765e-05
-3.03360392373e-05
-3.03305082862e-05
-3.03361271624e-05
-3.0352658631e-05
-3.03793657782e-05
-3.04149593006e-05
-3.04573697923e-05
-3.05043950407e-05
-3.05639904258e-05
-3.04895159743e-05
-3.0418459837e-05
-3.03648776588e-05
-3.03173072512e-05
-3.02782972387e-05
-3.0249453222e-05
-3.02317781222e-05
-3.02258529642e-05
-3.02318638037e-05
-3.02496227477e-05
-3.02785460047e-05
-3.03176288479e-05
-3.03652640694e-05
-3.041890173e-05
-3.04899982295e-05
-4.3729705158e-05
-4.37263901191e-05
-4.372191507e-05
-4.37176418171e-05
-4.37137614427e-05
-4.37107206656e-05
-4.37087770391e-05
-4.37081048442e-05
-4.37087634399e-05
-4.37106935105e-05
-4.37137209832e-05
-4.37175887413e-05
-4.3721850589e-05
-4.37263174012e-05
-4.37296246057e-05
-4.37202409717e-05
-4.37176931937e-05
-4.37139167349e-05
-4.3710327264e-05
-4.3707031894e-05
-4.37044374381e-05
-4.37027727779e-05
-4.37021949017e-05
-4.37027580944e-05
-4.37044080782e-05
-4.37069881455e-05
-4.37102698406e-05
-4.37138469108e-05
-4.37176144844e-05
-4.37201534074e-05
-4.3721901577e-05
-4.37210894613e-05
-4.37188146337e-05
-4.37165874107e-05
-4.37143999412e-05
-4.37126244554e-05
-4.37114604888e-05
-4.3711050702e-05
-4.37114455855e-05
-4.37125946839e-05
-4.37143555891e-05
-4.37165291247e-05
-4.37187434627e-05
-4.37210089544e-05
-4.37218106715e-05
-4.37332679474e-05
-4.37341058013e-05
-4.37331296835e-05
-4.37319818934e-05
-4.37306113452e-05
-4.37294030105e-05
-4.37285705918e-05
-4.372826971e-05
-4.37285568383e-05
-4.37293754319e-05
-4.37305701846e-05
-4.37319276002e-05
-4.37330628938e-05
-4.37340297273e-05
-4.37331801093e-05
-4.3746437462e-05
-4.37478299911e-05
-4.37471493431e-05
-4.37461274352e-05
-4.37447708997e-05
-4.37435206674e-05
-4.37426407959e-05
-4.37423205151e-05
-4.37426293536e-05
-4.37434972028e-05
-4.37447354801e-05
-4.37460802745e-05
-4.37470907098e-05
-4.37477626446e-05
-4.37463575028e-05
-4.37563620406e-05
-4.3757070351e-05
-4.37557254867e-05
-4.37539914048e-05
-4.3751991455e-05
-4.37502271497e-05
-4.37490167183e-05
-4.37485826461e-05
-4.37490072851e-05
-4.37502076334e-05
-4.37519618575e-05
-4.37539517795e-05
-4.37556758522e-05
-4.37570130799e-05
-4.3756292176e-05
-4.37612939018e-05
-4.37604266329e-05
-4.37578503354e-05
-4.37549454375e-05
-4.37519668132e-05
-4.37494604397e-05
-4.37477879775e-05
-4.37471972969e-05
-4.3747780456e-05
-4.37494447458e-05
-4.37519428884e-05
-4.37549132126e-05
-4.37578096493e-05
-4.37603795253e-05
-4.37612349533e-05
-4.37612222746e-05
-4.37582682611e-05
-4.37542004541e-05
-4.3749931867e-05
-4.37458415599e-05
-4.37425068478e-05
-4.37403242572e-05
-4.37395616667e-05
-4.3740318623e-05
-4.37424949058e-05
-4.3745823169e-05
-4.37499068347e-05
-4.37541684759e-05
-4.375823099e-05
-4.37611744162e-05
-4.37567531087e-05
-4.37514585097e-05
-4.37457874169e-05
-4.37400842906e-05
-4.37348345068e-05
-4.37306420792e-05
-4.37279338066e-05
-4.37269945823e-05
-4.37279300328e-05
-4.37306338268e-05
-4.37348215317e-05
-4.37400662592e-05
-4.37457638849e-05
-4.37514307206e-05
-4.37567161866e-05
-4.37485936855e-05
-4.374085982e-05
-4.37335365558e-05
-4.37263840484e-05
-4.37199682073e-05
-4.37149186391e-05
-4.3711687635e-05
-4.37105733239e-05
-4.37116856781e-05
-4.37149139912e-05
-4.37199605108e-05
-4.37263728281e-05
-4.37335212126e-05
-4.37408411836e-05
-4.37485674417e-05
-4.3737384444e-05
-4.37272173271e-05
-4.37182343708e-05
-4.37096590887e-05
-4.3702107951e-05
-4.36962327381e-05
-4.36925025342e-05
-4.36912218963e-05
-4.36925023256e-05
-4.36962315625e-05
-4.37021053339e-05
-4.37096544075e-05
-4.37182268729e-05
-4.37272074602e-05
-4.37373684433e-05
-4.37236985292e-05
-4.37111858003e-05
-4.3700575103e-05
-4.36906432308e-05
-4.36820296356e-05
-4.36753970441e-05
-4.36712160284e-05
-4.36697865335e-05
-4.36712174588e-05
-4.36753991206e-05
-4.36820317821e-05
-4.36906446801e-05
-4.37005749497e-05
-4.37111841523e-05
-4.37236921775e-05
-4.37081135785e-05
-4.36933687986e-05
-4.36811845805e-05
-4.36700013998e-05
-4.36604478719e-05
-4.3653170275e-05
-4.3648616063e-05
-4.36470653634e-05
-4.36486189645e-05
-4.36531752994e-05
-4.36604543293e-05
-4.36700084075e-05
-4.36811910696e-05
-4.36933746003e-05
-4.37081159634e-05
-4.36909637878e-05
-4.36740452905e-05
-4.36604570139e-05
-4.36482314e-05
-4.36379700631e-05
-4.36302455001e-05
-4.36254483173e-05
-4.36238216169e-05
-4.36254524849e-05
-4.36302530609e-05
-4.36379802654e-05
-4.36482432358e-05
-4.36604692919e-05
-4.36740575324e-05
-4.36909737789e-05
-4.3670633664e-05
-4.36531098862e-05
-4.36385832915e-05
-4.36257496934e-05
-4.36152134897e-05
-4.36073811316e-05
-4.36025533392e-05
-4.36009226963e-05
-4.36025585311e-05
-4.36073907932e-05
-4.36152268248e-05
-4.36257656276e-05
-4.36386004067e-05
-4.36531271953e-05
-4.36706498106e-05
-3.1320710581e-05
-3.13226808084e-05
-3.13249444177e-05
-3.13272903358e-05
-3.13294103986e-05
-3.13310836204e-05
-3.13321511698e-05
-3.13325147356e-05
-3.13321358758e-05
-3.13310533659e-05
-3.13293658279e-05
-3.13272323355e-05
-3.1324873509e-05
-3.13225986289e-05
-3.13206181143e-05
-3.13221094979e-05
-3.1324039097e-05
-3.13262962349e-05
-3.13286452873e-05
-3.13307782073e-05
-3.13324675217e-05
-3.13335484355e-05
-3.13339174643e-05
-3.13335330245e-05
-3.1332437004e-05
-3.13307332558e-05
-3.13285868156e-05
-3.13262249282e-05
-3.13239564708e-05
-3.13220166688e-05
-3.13213653011e-05
-3.13231298181e-05
-3.13252433799e-05
-3.13274819376e-05
-3.1329535702e-05
-3.13311735707e-05
-3.13322261849e-05
-3.13325863648e-05
-3.13322107557e-05
-3.13311430013e-05
-3.1329490666e-05
-3.13274233669e-05
-3.13251720948e-05
-3.13230472105e-05
-3.13212725187e-05
-3.13205075924e-05
-3.13221900502e-05
-3.13242208611e-05
-3.13263988203e-05
-3.13284136572e-05
-3.13300295641e-05
-3.13310717247e-05
-3.13314288609e-05
-3.13310562798e-05
-3.13299990183e-05
-3.13283686505e-05
-3.13263402964e-05
-3.13241497452e-05
-3.13221076647e-05
-3.13204150336e-05
-3.13201108218e-05
-3.13218071782e-05
-3.13238307073e-05
-3.13260102694e-05
-3.13280354257e-05
-3.13296650384e-05
-3.13307184663e-05
-3.13310798047e-05
-3.13307028819e-05
-3.13296344022e-05
-3.13279904002e-05
-3.13259518078e-05
-3.13237597869e-05
-3.13217250815e-05
-3.13200187185e-05
-3.13201377841e-05
-3.13219221236e-05
-3.13239932467e-05
-3.13262194317e-05
-3.1328289157e-05
-3.13299563213e-05
-3.13310350618e-05
-3.13314053148e-05
-3.13310195544e-05
-3.13299258762e-05
-3.13282444268e-05
-3.13261613624e-05
-3.13239228547e-05
-3.13218405821e-05
-3.13200464334e-05
-3.13205516501e-05
-3.13224858139e-05
-3.13246470546e-05
-3.13269531744e-05
-3.13290911606e-05
-3.13308111777e-05
-3.13319235966e-05
-3.13323054073e-05
-3.13319082617e-05
-3.1330781078e-05
-3.13290469298e-05
-3.13268957374e-05
-3.13245774369e-05
-3.13224051032e-05
-3.13204612422e-05
-3.13213434733e-05
-3.13234770419e-05
-3.13257592507e-05
-3.13281663863e-05
-3.13303852595e-05
-3.13321645404e-05
-3.13333132229e-05
-3.13337072139e-05
-3.13332981261e-05
-3.13321349065e-05
-3.13303416967e-05
-3.13281097849e-05
-3.13256906226e-05
-3.13233974059e-05
-3.1321254175e-05
-3.13224872641e-05
-3.13248531701e-05
-3.13272730183e-05
-3.13297875343e-05
-3.13320869629e-05
-3.13339217353e-05
-3.13351027524e-05
-3.13355073107e-05
-3.13350879662e-05
-3.13338927003e-05
-3.13320442572e-05
-3.13297319955e-05
-3.13272056202e-05
-3.13247748763e-05
-3.13223992744e-05
-3.13239354749e-05
-3.13265477589e-05
-3.13291071251e-05
-3.13317205006e-05
-3.13340872207e-05
-3.13359636652e-05
-3.13371667263e-05
-3.13375780632e-05
-3.13371523241e-05
-3.13359353676e-05
-3.1334045564e-05
-3.13316662605e-05
-3.13290412176e-05
-3.13264710928e-05
-3.13238490157e-05
-3.13256289846e-05
-3.13284832149e-05
-3.1331170644e-05
-3.13338615989e-05
-3.13362711708e-05
-3.13381667972e-05
-3.13393761226e-05
-3.13397885817e-05
-3.13393621802e-05
-3.13381393817e-05
-3.13362307708e-05
-3.13338089117e-05
-3.13311065209e-05
-3.13284085057e-05
-3.1325544328e-05
-3.13275011961e-05
-3.13305784493e-05
-3.1333373854e-05
-3.13361131716e-05
-3.13385334741e-05
-3.13404195325e-05
-3.13416153507e-05
-3.13420218911e-05
-3.13416019436e-05
-3.13403931409e-05
-3.13384945338e-05
-3.13360623e-05
-3.1333311819e-05
-3.13305060487e-05
-3.1327418704e-05
-3.13294622307e-05
-3.13327438798e-05
-3.13356309883e-05
-3.13383903351e-05
-3.13407875629e-05
-3.13426333157e-05
-3.13437944427e-05
-3.13441875798e-05
-3.13437816417e-05
-3.13426080943e-05
-3.13407502981e-05
-3.13383415475e-05
-3.13355713633e-05
-3.13326741317e-05
-3.13293822379e-05
-3.13314665796e-05
-3.13349532854e-05
-3.13379064333e-05
-3.13406498073e-05
-3.13429807045e-05
-3.13447486044e-05
-3.13458502604e-05
-3.13462213159e-05
-3.13458381608e-05
-3.13447247478e-05
-3.13429453897e-05
-3.13406034754e-05
-3.13378496645e-05
-3.13348866788e-05
-3.13313895064e-05
-3.1334265935e-05
-3.13376272249e-05
-3.13404807732e-05
-3.13430496891e-05
-3.13451717089e-05
-3.13467547586e-05
-3.13477312506e-05
-3.13480582275e-05
-3.13477199768e-05
-3.13467324918e-05
-3.13451387068e-05
-3.13430062855e-05
-3.13404274222e-05
-3.13375644661e-05
-3.13341929127e-05
-3.67775601669e-05
-3.67763609615e-05
-3.67749972506e-05
-3.67735770512e-05
-3.6772294684e-05
-3.67712809235e-05
-3.67706326807e-05
-3.67704097117e-05
-3.67706358481e-05
-3.6771287086e-05
-3.67723035156e-05
-3.67735880914e-05
-3.6775010252e-05
-3.67763757964e-05
-3.67775776383e-05
-3.67772137188e-05
-3.67760589302e-05
-3.67747192711e-05
-3.6773315074e-05
-3.67720402738e-05
-3.67710285374e-05
-3.67703795876e-05
-3.67701558051e-05
-3.67703827621e-05
-3.67710346929e-05
-3.67720490579e-05
-3.6773325983e-05
-3.67747319709e-05
-3.6776073433e-05
-3.67772305999e-05
-3.67781787989e-05
-3.67771459883e-05
-3.677591804e-05
-3.67746031801e-05
-3.67733961085e-05
-3.67724307373e-05
-3.67718084979e-05
-3.67715933026e-05
-3.67718116115e-05
-3.67724367805e-05
-3.67734047594e-05
-3.67746139986e-05
-3.677593065e-05
-3.67771605214e-05
-3.67781954585e-05
-3.67790792687e-05
-3.67781181433e-05
-3.67769650363e-05
-3.67757107818e-05
-3.67745489149e-05
-3.67736138206e-05
-3.67730087134e-05
-3.6772799016e-05
-3.67730117529e-05
-3.67736197331e-05
-3.67745574119e-05
-3.67757214844e-05
-3.67769775864e-05
-3.67781326749e-05
-3.67790957532e-05
-3.67796589397e-05
-3.67787201785e-05
-3.67776014229e-05
-3.67763764584e-05
-3.6775235798e-05
-3.67743142602e-05
-3.67737164058e-05
-3.67735089761e-05
-3.67737193797e-05
-3.67743200594e-05
-3.67752441682e-05
-3.67763870515e-05
-3.67776139209e-05
-3.67787346753e-05
-3.67796752443e-05
-3.6780014102e-05
-3.67790670313e-05
-3.67779580881e-05
-3.67767442941e-05
-3.67756118794e-05
-3.6774695509e-05
-3.67741002633e-05
-3.67738936346e-05
-3.67741031621e-05
-3.67747011785e-05
-3.6775620092e-05
-3.67767547414e-05
-3.67779704703e-05
-3.67790814959e-05
-3.67800301169e-05
-3.67802027114e-05
-3.67792260606e-05
-3.67781104648e-05
-3.67768967721e-05
-3.67757655703e-05
-3.67748505167e-05
-3.67742561174e-05
-3.67740498212e-05
-3.6774258941e-05
-3.67748560573e-05
-3.67757736248e-05
-3.67769070698e-05
-3.67781227131e-05
-3.6779240466e-05
-3.67802184455e-05
-3.67802497255e-05
-3.67792287903e-05
-3.67780958372e-05
-3.67768765141e-05
-3.67757440408e-05
-3.67748299456e-05
-3.67742368432e-05
-3.67740311673e-05
-3.67742395854e-05
-3.67748353418e-05
-3.67757519168e-05
-3.67768866344e-05
-3.67781079439e-05
-3.67792430852e-05
-3.67802652028e-05
-3.67801801422e-05
-3.6779106615e-05
-3.67779513285e-05
-3.67767258489e-05
-3.67755941095e-05
-3.67746840393e-05
-3.67740948485e-05
-3.67738908168e-05
-3.67740975098e-05
-3.67746892893e-05
-3.67756018022e-05
-3.67767357771e-05
-3.67779632712e-05
-3.67791207653e-05
-3.67801953156e-05
-3.67800214727e-05
-3.67788927232e-05
-3.67777151063e-05
-3.67764874921e-05
-3.67753624502e-05
-3.67744624886e-05
-3.67738817278e-05
-3.67736810087e-05
-3.67738843039e-05
-3.67744675839e-05
-3.6775369941e-05
-3.67764972077e-05
-3.67777268551e-05
-3.67789066932e-05
-3.67800363172e-05
-3.6779799228e-05
-3.67786167372e-05
-3.6777420569e-05
-3.67761983342e-05
-3.67750891308e-05
-3.67742078862e-05
-3.67736416732e-05
-3.67734464924e-05
-3.67736441642e-05
-3.67742128221e-05
-3.67750964114e-05
-3.67762078079e-05
-3.67774320802e-05
-3.67786304548e-05
-3.67798136813e-05
-3.67795362176e-05
-3.67783032402e-05
-3.6777094001e-05
-3.67758863569e-05
-3.67748041264e-05
-3.6773951931e-05
-3.67734075591e-05
-3.67732205338e-05
-3.67734099644e-05
-3.6773956704e-05
-3.67748111803e-05
-3.67758955673e-05
-3.67771052276e-05
-3.67783166309e-05
-3.67795502246e-05
-3.67792634849e-05
-3.67779796878e-05
-3.67767588968e-05
-3.67755724503e-05
-3.67745271461e-05
-3.67737139209e-05
-3.67731984803e-05
-3.67730222169e-05
-3.67732007968e-05
-3.6773718522e-05
-3.67745339674e-05
-3.67755813654e-05
-3.67767697943e-05
-3.67779926743e-05
-3.67792769696e-05
-3.67789918741e-05
-3.6777645945e-05
-3.67764175505e-05
-3.67752606388e-05
-3.67742645416e-05
-3.67735017077e-05
-3.67730230994e-05
-3.67728603419e-05
-3.6773025314e-05
-3.67735061266e-05
-3.67742710864e-05
-3.67752692188e-05
-3.67764280585e-05
-3.67776584478e-05
-3.67790046884e-05
-3.67782650804e-05
-3.67769866157e-05
-3.67758499396e-05
-3.67748142736e-05
-3.67739459151e-05
-3.67732917947e-05
-3.67728855465e-05
-3.67727482691e-05
-3.67728876373e-05
-3.67732959636e-05
-3.67739521227e-05
-3.6774822427e-05
-3.67758599445e-05
-3.67769985637e-05
-3.67782774695e-05
-3.0974339571e-05
-3.09750888294e-05
-3.09759452208e-05
-3.09768386384e-05
-3.09776452783e-05
-3.09782826493e-05
-3.09786896343e-05
-3.09788293469e-05
-3.09786872117e-05
-3.09782780249e-05
-3.09776388524e-05
-3.09768305673e-05
-3.09759352718e-05
-3.09750779494e-05
-3.09743271778e-05
-3.09744623746e-05
-3.0975183268e-05
-3.09760247193e-05
-3.09769088594e-05
-3.09777116677e-05
-3.09783485576e-05
-3.09787564831e-05
-3.09788968405e-05
-3.09787539795e-05
-3.09783437693e-05
-3.09777049905e-05
-3.09769004909e-05
-3.0976014469e-05
-3.09751719127e-05
-3.09744495414e-05
-3.09737681395e-05
-3.09744119621e-05
-3.09751836378e-05
-3.0976012601e-05
-3.09767736887e-05
-3.09773820814e-05
-3.09777736121e-05
-3.09779086834e-05
-3.09777710954e-05
-3.09773772501e-05
-3.09767669087e-05
-3.09760041038e-05
-3.09751733548e-05
-3.09744005142e-05
-3.09737552152e-05
-3.09731293343e-05
-3.09737259041e-05
-3.09744491977e-05
-3.09752391963e-05
-3.09759709415e-05
-3.09765594767e-05
-3.09769396951e-05
-3.09770711107e-05
-3.09769371908e-05
-3.09765546476e-05
-3.09759641089e-05
-3.09752306353e-05
-3.09744389374e-05
-3.09737145058e-05
-3.09731163381e-05
-3.09726918895e-05
-3.09732687238e-05
-3.09739657982e-05
-3.0974733268e-05
-3.09754478881e-05
-3.09760248638e-05
-3.09763985684e-05
-3.09765278807e-05
-3.0976396083e-05
-3.09760200585e-05
-3.09754410572e-05
-3.09747246993e-05
-3.0973955571e-05
-3.09732574081e-05
-3.09726788511e-05
-3.09723849104e-05
-3.09729568612e-05
-3.09736392173e-05
-3.0974391838e-05
-3.09750942945e-05
-3.09756625325e-05
-3.09760311165e-05
-3.09761587301e-05
-3.0976028667e-05
-3.09756577835e-05
-3.09750875109e-05
-3.09743833134e-05
-3.09736290749e-05
-3.0972945598e-05
-3.09723719155e-05
-3.09721645142e-05
-3.09727398294e-05
-3.09734136797e-05
-3.09741545883e-05
-3.09748461038e-05
-3.09754056312e-05
-3.09757687236e-05
-3.09758944387e-05
-3.09757663251e-05
-3.09754009712e-05
-3.09748394228e-05
-3.09741461687e-05
-3.09734036784e-05
-3.09727286818e-05
-3.09721515755e-05
-3.09720092445e-05
-3.09725920768e-05
-3.09732602401e-05
-3.09739895928e-05
-3.09746688973e-05
-3.09752178527e-05
-3.09755738972e-05
-3.09756971105e-05
-3.0975571564e-05
-3.09752133092e-05
-3.0974662356e-05
-3.09739813158e-05
-3.09732504015e-05
-3.09725810783e-05
-3.09719963589e-05
-3.09718998457e-05
-3.09724909553e-05
-3.09731533807e-05
-3.09738688533e-05
-3.09745325896e-05
-3.09750675448e-05
-3.09754139997e-05
-3.09755337736e-05
-3.09754117436e-05
-3.09750631401e-05
-3.09745262252e-05
-3.09738607623e-05
-3.09731437381e-05
-3.09724801416e-05
-3.09718870593e-05
-3.0971818012e-05
-3.09724158089e-05
-3.09730703812e-05
-3.09737678708e-05
-3.09744111209e-05
-3.09749274486e-05
-3.09752610248e-05
-3.09753761632e-05
-3.09752588526e-05
-3.09749231989e-05
-3.09744049534e-05
-3.09737599907e-05
-3.09730609557e-05
-3.09724051958e-05
-3.09718053563e-05
-3.09717488685e-05
-3.09723507107e-05
-3.09729941807e-05
-3.09736685246e-05
-3.09742852989e-05
-3.09747775125e-05
-3.09750943503e-05
-3.09752034699e-05
-3.09750922688e-05
-3.09747734293e-05
-3.09742793531e-05
-3.09736608829e-05
-3.09729850093e-05
-3.09723403369e-05
-3.09717363853e-05
-3.09716811997e-05
-3.09722850852e-05
-3.09729142812e-05
-3.09735601347e-05
-3.09741439696e-05
-3.09746060494e-05
-3.09749019493e-05
-3.09750035247e-05
-3.09748999626e-05
-3.0974602144e-05
-3.09741382533e-05
-3.09735527604e-05
-3.09729053923e-05
-3.09722750052e-05
-3.09716689669e-05
-3.09716007019e-05
-3.09722082976e-05
-3.09728232325e-05
-3.0973437532e-05
-3.0973983215e-05
-3.09744099419e-05
-3.09746810788e-05
-3.09747737621e-05
-3.09746791914e-05
-3.09744062144e-05
-3.09739777597e-05
-3.09734304411e-05
-3.09728146673e-05
-3.09721985417e-05
-3.09715887536e-05
-3.09714984054e-05
-3.09721183413e-05
-3.0972721289e-05
-3.09733023147e-05
-3.09738054746e-05
-3.09741923259e-05
-3.09744356182e-05
-3.09745182372e-05
-3.0974433828e-05
-3.097418881e-05
-3.09738002835e-05
-3.09732955716e-05
-3.09727130954e-05
-3.09721089775e-05
-3.09714867818e-05
-3.09716060897e-05
-3.09721967574e-05
-3.09727404856e-05
-3.09732417324e-05
-3.09736628747e-05
-3.09739810747e-05
-3.09741790618e-05
-3.09742458566e-05
-3.09741773787e-05
-3.09739777469e-05
-3.09736579823e-05
-3.09732353356e-05
-3.09727327018e-05
-3.09721878218e-05
-3.0971595098e-05
-3.21409657277e-05
-3.21405072176e-05
-3.21399858128e-05
-3.2139444698e-05
-3.21389573664e-05
-3.21385731049e-05
-3.21383278876e-05
-3.21382436396e-05
-3.2138329004e-05
-3.21385752134e-05
-3.21389601767e-05
-3.21394477387e-05
-3.21399887505e-05
-3.2140509896e-05
-3.21409691712e-05
-3.21408263527e-05
-3.21403826578e-05
-3.21398682418e-05
-3.21393310971e-05
-3.21388448302e-05
-3.21384599968e-05
-3.21382137363e-05
-3.21381289444e-05
-3.21382148815e-05
-3.21384621519e-05
-3.21388476767e-05
-3.21393341255e-05
-3.2139871054e-05
-3.21403852089e-05
-3.21408293978e-05
-3.21411875229e-05
-3.21407890055e-05
-3.21403156901e-05
-3.21398112227e-05
-3.21393495909e-05
-3.21389815308e-05
-3.21387449035e-05
-3.21386631887e-05
-3.21387459666e-05
-3.21389835335e-05
-3.21393522484e-05
-3.21398141001e-05
-3.21403183821e-05
-3.21407916227e-05
-3.21411904394e-05
-3.21415218747e-05
-3.21411510254e-05
-3.21407059803e-05
-3.21402247194e-05
-3.21397804428e-05
-3.21394240605e-05
-3.2139194061e-05
-3.21391144548e-05
-3.21391950208e-05
-3.21394258711e-05
-3.21397828554e-05
-3.21402273726e-05
-3.21407085288e-05
-3.21411535999e-05
-3.21415246924e-05
-3.2141739771e-05
-3.21413806458e-05
-3.21409507295e-05
-3.21404831201e-05
-3.21400491236e-05
-3.21396996606e-05
-3.2139473536e-05
-3.2139395154e-05
-3.21394744016e-05
-3.21397012932e-05
-3.21400513128e-05
-3.2140485558e-05
-3.21409531508e-05
-3.21413831467e-05
-3.21417424675e-05
-3.2141886333e-05
-3.21415308804e-05
-3.21411097082e-05
-3.21406516328e-05
-3.21402253599e-05
-3.21398814227e-05
-3.21396585263e-05
-3.21395811875e-05
-3.21396592954e-05
-3.2139882874e-05
-3.21402273134e-05
-3.21406538352e-05
-3.21411119436e-05
-3.21415333243e-05
-3.21418888009e-05
-3.21419893819e-05
-3.21416334565e-05
-3.21412176961e-05
-3.21407676475e-05
-3.21403486639e-05
-3.21400104411e-05
-3.21397911121e-05
-3.21397149764e-05
-3.21397917867e-05
-3.21400117182e-05
-3.2140350394e-05
-3.21407696333e-05
-3.21412197569e-05
-3.21416358373e-05
-3.21419916509e-05
-3.21420615722e-05
-3.21417031411e-05
-3.2141291212e-05
-3.21408491837e-05
-3.21404382776e-05
-3.21401068749e-05
-3.21398920261e-05
-3.21398174518e-05
-3.21398926109e-05
-3.21401079852e-05
-3.21404397966e-05
-3.21408509625e-05
-3.21412931209e-05
-3.21417054369e-05
-3.21420636976e-05
-3.21421133086e-05
-3.21417518279e-05
-3.21413436427e-05
-3.21409108297e-05
-3.21405098203e-05
-3.21401871128e-05
-3.21399781411e-05
-3.2139905651e-05
-3.21399786472e-05
-3.21401880779e-05
-3.21405111606e-05
-3.21409124358e-05
-3.2141345432e-05
-3.21417540593e-05
-3.21421152713e-05
-3.21421538883e-05
-3.21417898412e-05
-3.21413863867e-05
-3.21409648689e-05
-3.21405763608e-05
-3.21402648076e-05
-3.21400634851e-05
-3.21399937263e-05
-3.21400639233e-05
-3.21402656514e-05
-3.21405775484e-05
-3.21409663346e-05
-3.2141388081e-05
-3.21417920264e-05
-3.21421557112e-05
-3.21421904584e-05
-3.21418246073e-05
-3.21414274834e-05
-3.21410199132e-05
-3.21406470621e-05
-3.21403495971e-05
-3.21401579885e-05
-3.21400917204e-05
-3.21401583765e-05
-3.21403503485e-05
-3.21406481407e-05
-3.21410212709e-05
-3.21414291068e-05
-3.21418267414e-05
-3.2142192124e-05
-3.21422284704e-05
-3.21418609548e-05
-3.21414716849e-05
-3.21410807233e-05
-3.21407268965e-05
-3.21404466499e-05
-3.21402669988e-05
-3.21402050253e-05
-3.21402673523e-05
-3.2140447344e-05
-3.21407278948e-05
-3.21410820139e-05
-3.21414732555e-05
-3.21418630311e-05
-3.21422299721e-05
-3.21422761478e-05
-3.21419046663e-05
-3.21415227023e-05
-3.21411495372e-05
-3.21408170428e-05
-3.21405565598e-05
-3.21403907051e-05
-3.21403337487e-05
-3.21403910443e-05
-3.21405572126e-05
-3.21408180153e-05
-3.21411507803e-05
-3.21415242442e-05
-3.21419066794e-05
-3.2142277479e-05
-3.21423302184e-05
-3.21419478511e-05
-3.21415748523e-05
-3.21412216448e-05
-3.21409136555e-05
-3.21406758638e-05
-3.21405259501e-05
-3.21404747201e-05
-3.21405262762e-05
-3.21406765243e-05
-3.2140914606e-05
-3.21412228965e-05
-3.21415763792e-05
-3.2141949809e-05
-3.21423313113e-05
-3.2142182265e-05
-3.21418491734e-05
-3.2141529865e-05
-3.21412354505e-05
-3.21409837295e-05
-3.21407921011e-05
-3.21406723256e-05
-3.21406316405e-05
-3.21406726528e-05
-3.21407927396e-05
-3.21409846816e-05
-3.21412366793e-05
-3.2141531372e-05
-3.21418510763e-05
-3.21421834309e-05
-2.89791216223e-05
-2.8979403817e-05
-2.8979726395e-05
-2.89800643381e-05
-2.89803693844e-05
-2.89806105559e-05
-2.89807646983e-05
-2.89808177685e-05
-2.89807642077e-05
-2.8980609588e-05
-2.89803679804e-05
-2.89800627494e-05
-2.89797249522e-05
-2.89794031959e-05
-2.89791208292e-05
-2.89791202306e-05
-2.89793898086e-05
-2.89797047222e-05
-2.89800373724e-05
-2.89803394211e-05
-2.89805792326e-05
-2.89807329654e-05
-2.89807860048e-05
-2.89807324301e-05
-2.89805781743e-05
-2.89803378951e-05
-2.89800356345e-05
-2.89797031288e-05
-2.89793889346e-05
-2.89791192318e-05
-2.89788063576e-05
-2.89790450349e-05
-2.89793314253e-05
-2.89796414936e-05
-2.89799263091e-05
-2.89801542756e-05
-2.89803011233e-05
-2.89803519199e-05
-2.89803005753e-05
-2.89801531997e-05
-2.89799247723e-05
-2.897963974e-05
-2.89793298132e-05
-2.89790440176e-05
-2.89788052666e-05
-2.89785238315e-05
-2.89787435771e-05
-2.89790102156e-05
-2.89793044673e-05
-2.89795772994e-05
-2.89797971266e-05
-2.89799392866e-05
-2.89799885523e-05
-2.89799387352e-05
-2.8979796055e-05
-2.89795757911e-05
-2.89793027543e-05
-2.89790086099e-05
-2.89787425278e-05
-2.89785226012e-05
-2.89783247103e-05
-2.89785361699e-05
-2.89787916564e-05
-2.89790765373e-05
-2.89793421751e-05
-2.89795570991e-05
-2.89796964522e-05
-2.89797447984e-05
-2.89796958993e-05
-2.89795560311e-05
-2.89793406848e-05
-2.89790748486e-05
-2.8978790035e-05
-2.89785350997e-05
-2.89783233532e-05
-2.89781782744e-05
-2.89783868937e-05
-2.89786353491e-05
-2.89789136213e-05
-2.89791738063e-05
-2.89793847808e-05
-2.89795217807e-05
-2.89795693357e-05
-2.89795212323e-05
-2.89793837276e-05
-2.89791723501e-05
-2.8978911973e-05
-2.89786337339e-05
-2.89783857496e-05
-2.89781768446e-05
-2.89780656441e-05
-2.89782739898e-05
-2.89785173982e-05
-2.89787899426e-05
-2.89790448587e-05
-2.89792516667e-05
-2.89793860324e-05
-2.89794326744e-05
-2.89793854934e-05
-2.8979250636e-05
-2.89790434402e-05
-2.89787883325e-05
-2.89785158029e-05
-2.8978272793e-05
-2.8978064116e-05
-2.89779770873e-05
-2.8978186006e-05
-2.89784250094e-05
-2.89786914947e-05
-2.89789403428e-05
-2.8979142033e-05
-2.8979273024e-05
-2.89793184738e-05
-2.89792725016e-05
-2.89791410378e-05
-2.89789389758e-05
-2.89786899304e-05
-2.89784234286e-05
-2.89781847664e-05
-2.89779754201e-05
-2.89779039853e-05
-2.89781130138e-05
-2.89783471701e-05
-2.89786063462e-05
-2.89788475512e-05
-2.8979042582e-05
-2.89791690851e-05
-2.89792129356e-05
-2.89791685846e-05
-2.89790416293e-05
-2.8978846242e-05
-2.89786048341e-05
-2.89783456106e-05
-2.89781117431e-05
-2.89779022017e-05
-2.897783839e-05
-2.89780461908e-05
-2.89782743408e-05
-2.89785243494e-05
-2.89787557924e-05
-2.89789422106e-05
-2.89790628512e-05
-2.89791046092e-05
-2.89790623776e-05
-2.89789413092e-05
-2.89787545507e-05
-2.89785228951e-05
-2.89782728083e-05
-2.89780448871e-05
-2.89778364942e-05
-2.8977773954e-05
-2.897797889e-05
-2.89781996037e-05
-2.89784383139e-05
-2.89786575732e-05
-2.89788331637e-05
-2.89789463961e-05
-2.89789855068e-05
-2.89789459514e-05
-2.89788323198e-05
-2.89786564047e-05
-2.89784369276e-05
-2.89781981182e-05
-2.89779775788e-05
-2.89777719704e-05
-2.89777064356e-05
-2.89779073046e-05
-2.89781193477e-05
-2.8978344662e-05
-2.89785491849e-05
-2.89787115804e-05
-2.89788157488e-05
-2.89788516177e-05
-2.89788153361e-05
-2.89787107922e-05
-2.89785480953e-05
-2.89783433512e-05
-2.89781179205e-05
-2.89779060232e-05
-2.89777044139e-05
-2.89776310521e-05
-2.89778282166e-05
-2.89780316571e-05
-2.89782424051e-05
-2.89784301237e-05
-2.89785772219e-05
-2.89786708248e-05
-2.89787029126e-05
-2.89786704427e-05
-2.89785765033e-05
-2.89784291176e-05
-2.89782411844e-05
-2.89780303109e-05
-2.89778269822e-05
-2.89776290099e-05
-2.89775395621e-05
-2.89777359707e-05
-2.89779341805e-05
-2.89781310853e-05
-2.89783011906e-05
-2.89784319462e-05