/*--------------------------------*- C++ -*----------------------------------*\
  =========                 |
  \\      /  F ield         | OpenFOAM: The Open Source CFD Toolbox
   \\    /   O peration     | Website:  https://openfoam.org
    \\  /    A nd           | Version:  7
     \\/     M anipulation  |
\*---------------------------------------------------------------------------*/
FoamFile
{
    version     2.0;
    format      ascii;
    class       surfaceScalarField;
    location    "1.98";
    object      phi;
}
// * * * * * * * * * * * * * * * * * * * * * * * * * * * * * * * * * * * * * //

dimensions      [0 3 -1 0 0 0 0];

internalField   nonuniform List<scalar> 
65775
(
-3.7733918155e-11
-9.8311753095e-09
2.76216925578e-10
2.25862798556e-14
-6.90797005184e-11
-1.03692789437e-08
3.11249286803e-10
-7.66407133837e-11
-1.08730725266e-08
3.44467546801e-10
-6.96605051311e-11
-1.13021169787e-08
3.74253374544e-10
-5.40755229072e-11
-1.16462270393e-08
3.9925181042e-10
-3.33210419675e-11
-1.18987353468e-08
4.18193976151e-10
-9.66947519384e-12
-1.2057253229e-08
4.3016552329e-10
1.49408878171e-11
-1.21161883129e-08
4.34448181028e-10
3.84411740453e-11
-1.20571660916e-08
4.30245315569e-10
5.89032511259e-11
-1.18985711348e-08
4.18351935997e-10
7.40810845555e-11
-1.16460068217e-08
3.99482400696e-10
8.05713015332e-11
-1.13018663142e-08
3.74547770336e-10
7.24769784651e-11
-1.08728200722e-08
3.44812261474e-10
4.05760682844e-11
-1.03690418434e-08
3.11622756621e-10
-9.83103131044e-09
2.76582428365e-10
2.3872353659e-12
-1.31304803719e-10
-1.86096541917e-08
-2.29196625442e-10
5.26455720154e-14
-2.23374569972e-10
-1.96177282401e-08
-2.93239094744e-10
-2.53927624544e-10
-2.05585132858e-08
-3.61766221724e-10
-2.39006649974e-10
-2.13477053698e-08
-4.28636222287e-10
-1.91422856898e-10
-2.19727797326e-08
-4.87862562555e-10
-1.2114421865e-10
-2.2427437454e-08
-5.34366724336e-10
-3.72328236168e-11
-2.27115030441e-08
-5.6424090407e-10
5.10894235748e-11
-2.28170259951e-08
-5.74744763251e-10
1.34638693844e-10
-2.27112474879e-08
-5.64024751473e-10
2.04215798199e-10
-2.24269575971e-08
-5.33937475248e-10
2.50810156957e-10
-2.1972135086e-08
-4.87234502877e-10
2.64522954292e-10
-2.1346969572e-08
-4.27832518763e-10
2.32624673063e-10
-2.05577667269e-08
-3.60822956702e-10
1.39137298926e-10
-1.961701384e-08
-2.92214572746e-10
-1.86091785761e-08
-2.28186297619e-10
6.60125857085e-12
-2.36789943702e-10
-2.56435588678e-08
-1.41450393578e-09
5.95030268784e-14
-3.85763548349e-10
-2.69788309404e-08
-1.66800847939e-09
-4.45047778872e-10
-2.81966110976e-08
-1.92191309506e-09
-4.27958697364e-10
-2.92041257152e-08
-2.15833738732e-09
-3.49496243246e-10
-2.9992404763e-08
-2.36106143304e-09
-2.2510893647e-10
-3.05608970493e-08
-2.51667897744e-09
-7.21731252592e-11
-3.0914704321e-08
-2.61542094187e-09
9.01396025417e-11
-3.10464576932e-08
-2.65024114469e-09
2.42675243e-10
-3.09143194114e-08
-2.61513061818e-09
3.66279467283e-10
-3.05601726805e-08
-2.51610265614e-09
4.43616390195e-10
-2.99914266056e-08
-2.36021477706e-09
4.59297052655e-10
-2.92030017953e-08
-2.1572470007e-09
3.98394756072e-10
-2.81954574238e-08
-1.92062283918e-09
2.47667225913e-10
-2.69777045875e-08
-1.66659318223e-09
-2.5642745371e-08
-1.41309129293e-09
9.23852961849e-12
-3.40838256932e-10
-3.06893850927e-08
-2.84473260178e-09
4.43219024602e-14
-5.46362345734e-10
-3.22033609077e-08
-3.29235815148e-09
-6.36368101311e-10
-3.35403253626e-08
-3.72711176204e-09
-6.19685702733e-10
-3.46339683707e-08
-4.12287404918e-09
-5.1181898853e-10
-3.54814125484e-08
-4.45647696497e-09
-3.33209349109e-10
-3.60888405198e-08
-4.70937980804e-09
-1.09933985513e-10
-3.64661104555e-08
-4.86866403078e-09
1.28163547238e-10
-3.66072033562e-08
-4.92481329753e-09
3.51108046717e-10
-3.64656866312e-08
-4.868355593e-09
5.29060144198e-10
-3.60880403864e-08
-4.70876583221e-09
6.35959794909e-10
-3.54803261779e-08
-4.45557161125e-09
6.51395465975e-10
-3.46327119307e-08
-4.12170071062e-09
5.59903800328e-10
-3.35390190096e-08
-3.72571145353e-09
3.52715956555e-10
-3.22020609077e-08
-3.29080548311e-09
-3.06883569509e-08
-2.84316260737e-09
1.01859845836e-11
-4.34554868762e-10
-3.38367243318e-08
-4.19568993749e-09
1.84310824903e-14
-6.96588042723e-10
-3.54124195196e-08
-4.79564939428e-09
-8.16316305404e-10
-3.67578656478e-08
-5.36510195219e-09
-8.0021154937e-10
-3.78492653367e-08
-5.87520982142e-09
-6.64678289233e-10
-3.86898421986e-08
-6.3001172581e-09
-4.35217946183e-10
-3.92904847344e-08
-6.6194933283e-09
-1.46163387795e-10
-3.96634413995e-08
-6.81962794913e-09
1.6274849272e-10
-3.98035264105e-08
-6.89015225257e-09
4.51558466953e-10
-3.96630476177e-08
-6.81933925556e-09
6.80522723668e-10
-3.92897456831e-08
-6.61890875895e-09
8.15309479062e-10
-3.86888396232e-08
-6.29924733916e-09
8.30424219306e-10
-3.78481046194e-08
-5.87407413756e-09
7.09475343104e-10
-3.67566477952e-08
-5.36373614837e-09
4.46039955001e-10
-3.54111925464e-08
-4.79412125591e-09
-3.38356527153e-08
-4.19412801858e-09
9.94090378286e-12
-5.14459934292e-10
-3.53535410109e-08
-5.29249491391e-09
-7.86610527253e-15
-8.31533887345e-10
-3.6909661179e-08
-5.99675660684e-09
-9.78575845644e-10
-3.82000967691e-08
-6.65463729124e-09
-9.62500722033e-10
-3.92401956987e-08
-7.23791623278e-09
-8.01520734794e-10
-4.00389299562e-08
-7.72030276281e-09
-5.26302359506e-10
-4.06092587062e-08
-8.08108650158e-09
-1.78619434098e-10
-4.09636372264e-08
-8.30650212253e-09
1.93223160622e-10
-4.10971468865e-08
-8.38588876339e-09
5.40718596797e-10
-4.09633176594e-08
-8.30622873871e-09
8.15550578294e-10
-4.06086631962e-08
-8.08053363531e-09
9.75940360315e-10
-4.003812616e-08
-7.7194807413e-09
9.91219036353e-10
-3.92392696331e-08
-7.23684357721e-09
8.43175510443e-10
-3.81991213941e-08
-6.65334664278e-09
5.24939762537e-10
-3.69086743704e-08
-5.99530995679e-09
-3.53525756791e-08
-5.29101201439e-09
9.13314129403e-12
-5.81916961326e-10
-3.55519432836e-08
-6.08964585467e-09
-2.8867259081e-14
-9.50849565948e-10
-3.70329212415e-08
-6.86321113215e-09
-1.12258614359e-09
-3.82349407918e-08
-7.57887164501e-09
-1.10612549666e-09
-3.91980263841e-08
-8.20977210074e-09
-9.22103885845e-10
-3.99371203231e-08
-8.72963975479e-09
-6.06266486117e-10
-4.04651956539e-08
-9.11750828408e-09
-2.07007292826e-10
-4.07935806561e-08
-9.35944212244e-09
2.20037112508e-10
-4.09174221225e-08
-9.44453947044e-09
6.19132749776e-10
-4.07933485673e-08
-9.35918137088e-09
9.34631170944e-10
-4.04647680506e-08
-9.11698233213e-09
1.11813405049e-09
-3.99365499901e-08
-8.72886015105e-09
1.13389365279e-09
-3.91973786715e-08
-8.20875838824e-09
9.61275919054e-10
-3.82342613647e-08
-7.57765610358e-09
5.91327717421e-10
-3.70322403735e-08
-6.86185286302e-09
-3.55511764231e-08
-6.0882573247e-09
8.22513999063e-12
-6.40580042278e-10
-3.47174310014e-08
-6.61009870031e-09
-4.26729009072e-14
-1.05718404722e-09
-3.60838405323e-08
-7.43221380185e-09
-1.25133751264e-09
-3.71790667955e-08
-8.18871613948e-09
-1.23427692121e-09
-3.805094105e-08
-8.85366008429e-09
-1.02933225032e-09
-3.87206772919e-08
-9.40059535876e-09
-6.77119368279e-10
-3.91998337442e-08
-9.80814923595e-09
-2.31994480809e-10
-3.9497907389e-08
-1.00620367051e-08
2.44026341906e-10
-3.96101784598e-08
-1.01511391002e-08
6.88989257985e-10
-3.94977571234e-08
-1.00617849238e-08
1.04086766443e-09
-3.91995623594e-08
-9.80764297375e-09
1.24530421783e-09
-3.87203238132e-08
-9.39984793473e-09
1.26168427345e-09
-3.80505519585e-08
-8.85269300639e-09
1.06668693852e-09
-3.71786655577e-08
-8.18756282829e-09
6.49123270037e-10
-3.60834510216e-08
-7.43093262547e-09
-3.4716891213e-08
-6.60879690591e-09
7.4548055647e-12
-6.94102161019e-10
-3.30880887044e-08
-6.89761528906e-09
-4.99273632911e-14
-1.15409228002e-09
-3.43113605049e-08
-7.75656159158e-09
-1.36887827233e-09
-3.52883618487e-08
-8.54445911037e-09
-1.35101223811e-09
-3.60609780945e-08
-9.23571631207e-09
-1.12667786352e-09
-3.66560487358e-08
-9.80357043649e-09
-7.41202238816e-10
-3.70825785114e-08
-1.02262726314e-08
-2.54431044807e-10
-3.73478179479e-08
-1.04892118191e-08
2.65957866777e-10
-3.74473549081e-08
-1.05811916891e-08
7.52557064761e-10
-3.73477339172e-08
-1.04889670935e-08
1.1376802261e-09
-3.7082432554e-08
-1.02257820957e-08
1.36148417251e-09
-3.66558679911e-08
-9.80284916691e-09
1.37864787174e-09
-3.60607924626e-08
-9.23478788039e-09
1.1630043315e-09
-3.52881784445e-08
-8.54335848954e-09
7.02049841476e-10
-3.4311196182e-08
-7.75534733433e-09
-3.30877478839e-08
-6.89639037253e-09
6.89731576645e-12
-7.45133626005e-10
-3.08580202073e-08
-6.99352474558e-09
-5.20518648272e-14
-1.24489832398e-09
-3.19181685095e-08
-7.88183467961e-09
-1.47903376426e-09
-3.27696264987e-08
-8.69468600518e-09
-1.45996344231e-09
-3.34397520521e-08
-9.40655783962e-09
-1.21706055118e-09
-3.39584868297e-08
-9.99047316157e-09
-8.00410361729e-10
-3.43311822471e-08
-1.04245562126e-08
-2.75015245478e-10
-3.45626106328e-08
-1.06940668307e-08
2.8638704265e-10
-3.46488868511e-08
-1.07879545646e-08
8.1159532504e-10
-3.45625720818e-08
-1.06938292505e-08
1.22786570249e-09
-3.43311211051e-08
-1.04240813869e-08
1.47020195875e-09
-3.39584203696e-08
-9.98977768281e-09
1.48852953329e-09
-3.3439696352e-08
-9.40566705036e-09
1.2534982302e-09
-3.27695766533e-08
-8.69363621631e-09
7.52732410084e-10
-3.19181329133e-08
-7.88068463033e-09
-3.08578055324e-08
-6.99237295443e-09
6.54366571091e-12
-7.95239105729e-10
-2.81876488045e-08
-6.92994125467e-09
-5.07219177836e-14
-1.33254932578e-09
-2.90718439584e-08
-7.84175816226e-09
-1.58519703053e-09
-2.97945152862e-08
-8.67409644663e-09
-1.56408326593e-09
-3.0364087037e-08
-9.40141526565e-09
-1.30263913058e-09
-3.08085468035e-08
-9.99679393906e-09
-8.56060150781e-10
-3.11286272964e-08
-1.04386123392e-08
-2.94226979159e-10
-3.13267398546e-08
-1.07122818252e-08
3.05666836055e-10
-3.13998232114e-08
-1.08071470592e-08
8.67296921426e-10
-3.1326722789e-08
-1.0712052976e-08
1.31346608633e-09
-3.11286043211e-08
-1.04381562163e-08
1.57430349346e-09
-3.08085276563e-08
-9.99612836648e-09
1.59462899088e-09
-3.0364076947e-08
-9.40056694948e-09
1.34103889532e-09
-2.97945005972e-08
-8.67310254447e-09
8.02678459816e-10
-2.90718228666e-08
-7.84067705863e-09
-2.81874538659e-08
-6.92886618353e-09
6.35402798818e-12
-8.45238821355e-10
-2.52131742102e-08
-6.73026558258e-09
-4.69978219075e-14
-1.42019397842e-09
-2.59135485047e-08
-7.66042134092e-09
-1.69056889118e-09
-2.65100643296e-08
-8.50725651105e-09
-1.66561597378e-09
-2.69869507581e-08
-9.24510136595e-09
-1.38475673136e-09
-2.73627376035e-08
-9.84748032039e-09
-9.08869544798e-10
-2.7633478269e-08
-1.02934832857e-08
-3.12321444527e-10
-2.78000057034e-08
-1.05689740206e-08
3.23958273982e-10
-2.78604694931e-08
-1.06639280806e-08
9.20286998919e-10
-2.77999834876e-08
-1.05687564306e-08
1.39573450018e-09
-2.76334415662e-08
-1.02930507821e-08
1.67594737436e-09
-2.73626916744e-08
-9.84685169034e-09
1.70006768505e-09
-2.69868938287e-08
-9.2443042657e-09
1.42870475507e-09
-2.65099768e-08
-8.50632832715e-09
8.52649840781e-10
-2.59134165253e-08
-7.65941918344e-09
-2.52128689287e-08
-6.72927637948e-09
6.28255065695e-12
-8.97721744964e-10
-2.20510783802e-08
-6.41162644399e-09
-4.21057652422e-14
-1.51345847633e-09
-2.25634742448e-08
-7.35575632084e-09
-1.79851750096e-09
-2.30470294755e-08
-8.21270451321e-09
-1.76572616325e-09
-2.34446536184e-08
-8.95647680012e-09
-1.4635784552e-09
-2.37594661757e-08
-9.56163338909e-09
-9.58759167939e-10
-2.39852344171e-08
-1.00084797694e-08
-3.29270759947e-10
-2.41226871636e-08
-1.02836122231e-08
3.41167052017e-10
-2.4171471908e-08
-1.03778359157e-08
9.70420368152e-10
-2.41226303365e-08
-1.02834089275e-08
1.4747710017e-09
-2.39851270009e-08
-1.00080768484e-08
1.77623445764e-09
-2.37593120988e-08
-9.56105034107e-09
1.8081521836e-09
-2.34444494221e-08
-8.9557418501e-09
1.52206540415e-09
-2.30467539495e-08
-8.21185458978e-09
9.05187281999e-10
-2.25631007587e-08
-7.35484590891e-09
-2.20505136718e-08
-6.41073485375e-09
6.28843762194e-12
-9.68301171113e-10
-1.87891855e-08
-5.98706903142e-09
-3.62302073242e-14
-1.6254691135e-09
-1.91295482379e-08
-6.94251506855e-09
-1.91383799892e-09
-1.9529074646e-08
-7.80586324515e-09
-1.86549113303e-09
-1.986151363e-08
-8.55125233023e-09
-1.53920659025e-09
-2.0122094606e-08
-9.15527360877e-09
-1.00571463245e-09
-2.03071815695e-08
-9.59993071346e-09
-3.45086618403e-10
-2.04184794096e-08
-9.8727557999e-09
3.57258086944e-10
-2.04567982749e-08
-9.96552384067e-09
1.01763617308e-09
-2.04183562669e-08
-9.8725699421e-09
1.55063227596e-09
-2.0306941457e-08
-9.5995635698e-09
1.87619666875e-09
-2.01217434353e-08
-9.1547451384e-09
1.92363189615e-09
-1.986105224e-08
-8.55059104363e-09
1.63420224416e-09
-1.95284889316e-08
-7.80510503903e-09
9.75867295811e-10
-1.9128804323e-08
-6.94171008267e-09
-1.87882114509e-08
-5.98628669314e-09
6.35347430998e-12
-1.10844757273e-09
-5.46524510689e-09
-2.67670694497e-14
-1.54551982228e-08
-1.78130342733e-09
-6.43309181059e-09
-1.57336966088e-08
-2.05468139008e-09
-7.29906513845e-09
-1.6074458515e-08
-1.98230552832e-09
-8.04232366243e-09
-1.63497085475e-08
-1.62700627079e-09
-8.64218050297e-09
-1.65622343665e-08
-1.06027355066e-09
-9.08245419875e-09
-1.67128164452e-08
-3.63512861489e-10
-9.35160393949e-09
-1.68026702563e-08
3.75948130579e-10
-9.4424053908e-09
-1.68324655388e-08
1.0724449129e-09
-9.35143798745e-09
-1.68024470738e-08
1.63865572857e-09
-9.08212771898e-09
-1.67123775267e-08
1.99319911764e-09
-8.64171362475e-09
-1.6561589833e-08
2.06462288571e-09
-8.04174504903e-09
-1.63488685547e-08
1.79014825615e-09
-7.29840951881e-09
-1.6073425547e-08
1.11611141271e-09
-6.43240623554e-09
-1.57324507389e-08
-5.46457775931e-09
6.43032224835e-12
-1.54536713861e-08
-2.59865890906e-11
1.16331392052e-09
-8.61132547629e-10
-2.55942450741e-14
-4.0901952028e-11
1.28322716995e-09
-9.57137907681e-10
-4.66895379404e-11
1.39838692901e-09
-1.04821092624e-09
-4.57035268769e-11
1.5034398253e-09
-1.13024495379e-09
-3.82448031445e-11
1.59075146605e-09
-1.19901597128e-09
-2.54923689952e-11
1.6564116295e-09
-1.25101581833e-09
-9.20103068325e-12
1.69772183052e-09
-1.28388775661e-09
8.35675418433e-12
1.7125494944e-09
-1.2956966503e-09
2.46673253729e-11
1.6977720478e-09
-1.28387305293e-09
3.7459788762e-11
1.65651160767e-09
-1.25098644743e-09
4.49804367857e-11
1.59090186726e-09
-1.19897297872e-09
4.6050338719e-11
1.50363628338e-09
-1.13019026976e-09
4.036443085e-11
1.39861531825e-09
-1.0481479965e-09
2.55537427368e-11
1.28347747158e-09
-9.5707378484e-10
1.16354949176e-09
-8.61083706931e-10
-3.57892982831e-13
-3.9348154181e-11
3.16121914551e-09
-2.18776758355e-09
-7.28653923334e-14
-6.07586582602e-11
3.43549689557e-09
-2.42421576604e-09
-6.93814211031e-11
3.69237065179e-09
-2.64725128708e-09
-6.7536777972e-11
3.91996540896e-09
-2.84711676215e-09
-5.6413794101e-11
4.10568145989e-09
-3.01400403379e-09
-3.77303452773e-11
4.24312091777e-09
-3.13983206301e-09
-1.40160868492e-11
4.32893041089e-09
-3.21922827478e-09
1.15473271914e-11
4.35989292926e-09
-3.24771196398e-09
3.53188175788e-11
4.32910799862e-09
-3.21918958635e-09
5.41201173468e-11
4.24347127659e-09
-3.13975324492e-09
6.54222654024e-11
4.10620036836e-09
-3.01388771595e-09
6.75058797848e-11
3.92063749002e-09
-2.84696802018e-09
5.91684191055e-11
3.69316033391e-09
-2.64707941855e-09
3.80615844972e-11
3.43636312285e-09
-2.42403994513e-09
3.16208330838e-09
-2.18762649598e-09
-1.07539169034e-12
-3.02855983063e-11
5.03884214672e-09
-3.26180909949e-09
-1.13296931799e-13
-4.38566010265e-11
5.39484525168e-09
-3.61389091997e-09
-4.93656162315e-11
5.72074628497e-09
-3.94489123895e-09
-4.77205185018e-11
6.0005835832e-09
-4.24069893529e-09
-3.99650059681e-11
6.2239650392e-09
-4.48718022936e-09
-2.71294078312e-11
6.38626333256e-09
-4.67272333785e-09
-1.0824215826e-11
6.48674686487e-09
-4.78960185211e-09
6.85728052647e-12
6.5233298335e-09
-4.83141497797e-09
2.32542260119e-11
6.48706818765e-09
-4.78954042138e-09
3.62772757173e-11
6.38689362247e-09
-4.67259837189e-09
4.43154510476e-11
6.22489511243e-09
-4.48699596719e-09
4.63341639429e-11
6.00178863425e-09
-4.2404634314e-09
4.12698076623e-11
5.72217580907e-09
-3.94461881868e-09
2.81791583353e-11
5.3964278084e-09
-3.61360983527e-09
5.04047391809e-09
-3.26157408336e-09
-1.76818213258e-12
-1.0347037427e-11
6.36614280388e-09
-4.16161552361e-09
-1.46919837114e-13
-1.05938498869e-11
6.71729631866e-09
-4.61465723359e-09
-1.094032689e-11
7.0331140766e-09
-5.03923200427e-09
-1.06278584659e-11
7.29506652455e-09
-5.4177563385e-09
-9.5559826547e-12
7.49893003144e-09
-5.73258577592e-09
-7.47131764493e-12
7.64398740008e-09
-5.96924959383e-09
-4.42843461144e-12
7.73308022904e-09
-6.11809523322e-09
-8.15535208165e-13
7.7660422649e-09
-6.17118998926e-09
2.34488036619e-12
7.73351547946e-09
-6.11801199013e-09
4.67022390132e-12
7.64483885917e-09
-5.96908289105e-09
6.10424690915e-12
7.50018531652e-09
-5.73234046506e-09
6.89395208177e-12
7.29669844853e-09
-5.41744325481e-09
7.11705883316e-12
7.0350694129e-09
-5.03886952172e-09
7.49275027052e-12
6.71948720594e-09
-4.61427949577e-09
6.36846183119e-09
-4.16128686106e-09
-2.40658910702e-12
1.30001239468e-11
7.0519425998e-09
-4.89438604393e-09
-1.73387481181e-13
2.55502814276e-11
7.34386636079e-09
-5.43485432173e-09
2.98472341362e-11
7.603529938e-09
-5.93990139315e-09
2.8098830351e-11
7.8107767908e-09
-6.38924849171e-09
2.18653778043e-11
7.96741127532e-09
-6.76242961774e-09
1.27577097143e-11
8.07619406862e-09
-7.04264800419e-09
2.24851457994e-12
8.14255354676e-09
-7.21864252034e-09
-8.45674457603e-12
8.16778025675e-09
-7.28123222117e-09
-1.88360587881e-11
8.14303933682e-09
-7.2185285587e-09
-2.76724266161e-11
8.07715498178e-09
-7.04243126814e-09
-3.34959112272e-11
7.96883871826e-09
-6.76211829686e-09
-3.47027286598e-11
7.81264807033e-09
-6.38885646112e-09
-2.97549494814e-11
7.60579818995e-09
-5.93945052266e-09
-1.64852938863e-11
7.34644305373e-09
-5.43438232238e-09
7.05473516092e-09
-4.89396517179e-09
-2.9544552479e-12
3.5533309976e-11
7.19407693662e-09
-5.47003502098e-09
-1.92547961691e-13
5.82800876008e-11
7.41048681291e-09
-6.08619858498e-09
6.6076163032e-11
7.60154718946e-09
-6.66052687194e-09
6.21244994784e-11
7.74735802543e-09
-7.1706142899e-09
4.93055967024e-11
7.85358215106e-09
-7.59371343805e-09
3.03900506924e-11
7.92508642071e-09
-7.91111483338e-09
8.12755988495e-12
7.96845900046e-09
-8.11019211466e-09
-1.49674446025e-11
7.98570952053e-09
-8.18076705337e-09
-3.70961473229e-11
7.96895720132e-09
-8.11005964317e-09
-5.57298695682e-11
7.92607738318e-09
-7.91086212804e-09
-6.81207028157e-11
7.85506110276e-09
-7.59335056332e-09
-7.15040382615e-11
7.74930873181e-09
-7.17015771487e-09
-6.30191171951e-11
7.6039328786e-09
-6.660001324e-09
-3.95021081255e-11
7.4132280606e-09
-6.08564462328e-09
7.19710443574e-09
-5.46952902658e-09
-3.38476151992e-12
5.51094993575e-11
6.94906231907e-09
-5.89959574027e-09
-2.04654151367e-13
8.55483256853e-11
7.09806390371e-09
-6.58129237048e-09
9.58870570537e-11
7.22746394256e-09
-7.21519422668e-09
8.99675823916e-11
7.32067666831e-09
-7.77723194481e-09
7.17065191532e-11
7.38499794543e-09
-8.24284749062e-09
4.47921134883e-11
7.42624729405e-09
-8.59180193473e-09
1.29855732326e-11
7.45112636004e-09
-8.81034635583e-09
-2.0164350681e-11
7.46183214587e-09
-8.88755296582e-09
-5.18394033804e-11
7.45160971105e-09
-8.81019751013e-09
-7.8475529656e-11
7.42721142447e-09
-8.59151721304e-09
-9.63119543641e-11
7.38644058825e-09
-8.24243872889e-09
-1.0166462651e-10
7.32258689273e-09
-7.77671795359e-09
-9.06328963502e-11
7.22981494592e-09
-7.21460217621e-09
-5.94106331205e-11
7.10078816751e-09
-6.58066530378e-09
6.95211368263e-09
-5.89901274285e-09
-3.6922812196e-12
7.08983367195e-11
6.46135503612e-09
-6.1931332001e-09
-2.10335714076e-13
1.07243273102e-10
6.56055886635e-09
-6.93111104471e-09
1.19479621221e-10
6.64209071426e-09
-7.61563790197e-09
1.11957082069e-10
6.69591177028e-09
-8.22142656334e-09
8.93820693462e-11
6.72950657404e-09
-8.72257711142e-09
5.61707006458e-11
6.74899239092e-09
-9.09772650461e-09
1.68715966533e-11
6.76062754987e-09
-9.33227916168e-09
-2.41694667516e-11
6.76651948016e-09
-9.41482340406e-09
-6.3342817798e-11
6.7610786603e-09
-9.33211660478e-09
-9.62871107552e-11
6.74989304059e-09
-9.09741482158e-09
-1.18453167785e-10
6.730855219e-09
-8.72212970323e-09
-1.25427314486e-10
6.69770047562e-09
-8.22086423644e-09
-1.12515561299e-10
6.64430022128e-09
-7.61498986024e-09
-7.53990734851e-11
6.56313393915e-09
-6.93042257237e-09
6.46426572888e-09
-6.19248498246e-09
-3.88898283655e-12
8.28560088133e-11
5.83994950122e-09
-6.35890377747e-09
-2.10853308288e-13
1.23923912698e-10
5.90719897137e-09
-7.14431954993e-09
1.37644348574e-10
5.95470112473e-09
-7.87084092712e-09
1.28892499859e-10
5.98131786718e-09
-8.51241823853e-09
1.02986986136e-10
5.99407882161e-09
-9.04228045288e-09
6.49377089711e-11
5.9990915841e-09
-9.43836236418e-09
1.99018881459e-11
6.00193445683e-09
-9.68552014066e-09
-2.71766838407e-11
6.00450454742e-09
-9.77213340853e-09
-7.20934545785e-11
6.00234188703e-09
-9.68534707869e-09
-1.0988944089e-10
5.99990472492e-09
-9.43802992428e-09
-1.3540641239e-10
5.99529549642e-09
-9.04180336283e-09
-1.43635604431e-10
5.98293123361e-09
-8.51181893632e-09
-1.29267869627e-10
5.95669660978e-09
-7.87015025891e-09
-8.74539896374e-11
5.90953191876e-09
-7.14358477614e-09
5.84260051884e-09
-6.35820602423e-09
-3.9968075956e-12
9.13918198528e-11
5.15883431528e-09
-6.40363829604e-09
-2.07266660224e-13
1.36334302135e-10
5.20826653964e-09
-7.22788791264e-09
1.5127421216e-10
5.23307042544e-09
-7.98803936738e-09
1.41648397985e-10
5.24204231387e-09
-8.65769842397e-09
1.13242658504e-10
5.24163224935e-09
-9.20965984673e-09
7.1555698117e-11
5.23775393999e-09
-9.62156798293e-09
2.2215606742e-11
5.2352030992e-09
-9.87802977147e-09
-2.93905964909e-11
5.23560929957e-09
-9.96748572839e-09
-7.86177787799e-11
5.23555849959e-09
-9.87784985803e-09
-1.20064646219e-10
5.23846230653e-09
-9.62122194618e-09
-1.48102067983e-10
5.24268999946e-09
-9.20916352099e-09
-1.57231851315e-10
5.24344212587e-09
-8.65707554584e-09
-1.41675279617e-10
5.23480029391e-09
-7.98732205585e-09
-9.60168935621e-11
5.21029046092e-09
-7.22712504714e-09
5.16113925035e-09
-6.40291014978e-09
-4.04043907105e-12
9.71211112654e-11
4.46519168516e-09
-6.33325916662e-09
-2.01027728339e-13
1.45264203603e-10
4.50640203943e-09
-7.18807392339e-09
1.61291237956e-10
4.516870851e-09
-7.97396210056e-09
1.51146434959e-10
4.51519989776e-09
-8.66446487771e-09
1.20930349515e-10
4.50732865318e-09
-9.23230909632e-09
7.65387844016e-11
4.49873740404e-09
-9.65523737486e-09
2.39775971186e-11
4.49334781153e-09
-9.91789682238e-09
-3.10232453051e-11
4.49247670589e-09
-1.00090438152e-08
-8.34764467824e-11
4.49364405207e-09
-9.91771405979e-09
-1.27639047673e-10
4.49932654921e-09
-9.65488564469e-09
-1.57504485452e-10
4.50820561129e-09
-9.23180515303e-09
-1.67177241711e-10
4.51635612785e-09
-8.66383346071e-09
-1.50562008477e-10
4.51829522647e-09
-7.97323621792e-09
-1.01731850161e-10
4.50806521053e-09
-7.18730356261e-09
4.46708610559e-09
-6.33252240446e-09
-4.04244016952e-12
1.00661009499e-10
3.78794498885e-09
-6.15352332124e-09
-1.92957946783e-13
1.51544004582e-10
3.82630665538e-09
-7.03124105925e-09
1.68754684971e-10
3.82813555188e-09
-7.83576476125e-09
1.58485727059e-10
3.82091310334e-09
-8.54057782476e-09
1.26991691058e-10
3.80995854211e-09
-9.11864715276e-09
8.05115830463e-11
3.79990828584e-09
-9.54820367139e-09
2.53970378465e-11
3.79367975025e-09
-9.81422010608e-09
-3.23131836535e-11
3.79223760343e-09
-9.90600601115e-09
-8.7323327927e-11
3.79391001035e-09
-9.81403877457e-09
-1.33583035713e-10
3.80036502812e-09
-9.54785473321e-09
-1.64740712243e-10
3.81063512991e-09
-9.11814812555e-09
-1.74557706229e-10
3.8217997838e-09
-8.53995416835e-09
-1.56783286753e-10
3.829220873e-09
-7.83504989442e-09
-1.05237817623e-10
3.82756620529e-09
-7.03048529066e-09
3.789376119e-09
-6.15280130013e-09
-4.02116369677e-12
1.02639763412e-10
3.14422547455e-09
-5.87039538618e-09
-1.84020171219e-13
1.56405728636e-10
3.18120334522e-09
-6.76444671258e-09
1.75312180314e-10
3.17813022791e-09
-7.5816340869e-09
1.65311457539e-10
3.16944922736e-09
-8.29504004578e-09
1.3277219844e-10
3.15911223052e-09
-8.87827516249e-09
8.43412691706e-11
3.15034384336e-09
-9.31051110524e-09
2.67683607322e-11
3.14494702057e-09
-9.5773320065e-09
-3.35695137712e-11
3.14352780901e-09
-9.66881328267e-09
-9.10400514595e-11
3.14510469504e-09
-9.57715658933e-09
-1.39256585776e-10
3.1506550954e-09
-9.31017385829e-09
-1.71470021595e-10
3.15957000504e-09
-8.87779423282e-09
-1.81034781956e-10
3.17004270717e-09
-8.29444134577e-09
-1.61584972662e-10
3.17884759141e-09
-7.5809507991e-09
-1.07177250053e-10
3.18202265689e-09
-6.76372812461e-09
3.145148661e-09
-5.86971144739e-09
-3.98957631112e-12
1.04049895657e-10
2.54340599039e-09
-5.49015524088e-09
-1.7502938135e-13
1.6225028245e-10
2.5765730325e-09
-6.3961092538e-09
1.83898170689e-10
2.57183041407e-09
-7.22123568344e-09
1.74294544351e-10
2.56590698957e-09
-7.93813124357e-09
1.40330371303e-10
2.55971849401e-09
-8.52193999775e-09
8.9317632274e-11
2.55469709959e-09
-8.95329478706e-09
2.85290201352e-11
2.55159474238e-09
-9.21863818797e-09
-3.52331358733e-11
2.55072071382e-09
-9.30897654008e-09
-9.59197602569e-11
2.55167278598e-09
-9.21847321872e-09
-1.46720700735e-10
2.55484980969e-09
-8.952978218e-09
-1.80365325173e-10
2.55993933365e-09
-8.52149049553e-09
-1.89544058715e-10
2.56618592311e-09
-7.93757501787e-09
-1.67369861604e-10
2.57215532605e-09
-7.2206050244e-09
-1.08546861633e-10
2.57692355078e-09
-6.3954501875e-09
2.54378603481e-09
-5.48953098235e-09
-3.95475989123e-12
9.98867709214e-11
-5.02206942461e-09
-1.64702336869e-13
2.00047954673e-09
1.7071257544e-10
-5.93970280266e-09
2.01233658849e-09
1.97227418358e-10
-6.7672768213e-09
2.01350522775e-09
1.88151736852e-10
-7.48197379493e-09
2.01461108975e-09
1.5202800595e-10
-8.06151375198e-09
2.01515357786e-09
9.70656442629e-11
-8.48836428511e-09
2.01554798799e-09
3.12603498466e-11
-8.7499586541e-09
2.01573420109e-09
-3.78812058587e-11
-8.83833501082e-09
2.01577183296e-09
-1.0358226888e-10
-8.7498083069e-09
2.01572516126e-09
-1.58330764737e-10
-8.48807656369e-09
2.01552788398e-09
-1.94134487908e-10
-8.06110767635e-09
2.01511830327e-09
-2.02789280614e-10
-7.48147591787e-09
2.0145535922e-09
-1.75758895944e-10
-6.76671826531e-09
2.013417015e-09
-1.04330293787e-10
-5.93912683741e-09
2.01220005829e-09
-5.02151995864e-09
-3.901151493e-12
2.00028470868e-09
1.94879615823e-11
-2.29512971504e-10
-6.51127509409e-10
-2.61344013923e-14
3.08965517733e-11
-2.5488240828e-10
-7.137212842e-10
3.6220094347e-11
-2.81357915903e-10
-7.72241785081e-10
3.57468111563e-11
-3.05436276919e-10
-8.24390341976e-10
2.99557214675e-11
-3.25554967738e-10
-8.67723088059e-10
1.98381922738e-11
-3.40679855879e-10
-9.00268049469e-10
6.85528517224e-12
-3.5017928882e-10
-9.20769300513e-10
-7.15726576368e-12
-3.53559341961e-10
-9.28162293e-10
-2.01290959027e-11
-3.50176642564e-10
-9.20757491228e-10
-3.02257708243e-11
-3.40675005457e-10
-9.00244506266e-10
-3.59891576141e-11
-3.25548698365e-10
-8.67688337687e-10
-3.64314777784e-11
-3.05428338209e-10
-8.24345545335e-10
-3.10711415573e-11
-2.8134357993e-10
-7.72189428758e-10
-1.96280706003e-11
-2.54872901631e-10
-7.13667454188e-10
-2.29507919463e-10
-6.51087835095e-10
-1.3821612141e-13
4.33617946371e-11
-4.96651423043e-10
-1.96399944344e-09
-6.77920058153e-14
7.07721484901e-11
-5.44599098172e-10
-2.16200302136e-09
8.36910778974e-11
-5.93795845247e-10
-2.34783049366e-09
8.28179289527e-11
-6.37969659945e-10
-2.51379940997e-09
6.94346871991e-11
-6.74263291211e-10
-2.65199674242e-09
4.5973334655e-11
-7.01171190431e-10
-2.7559567781e-09
1.58833678953e-11
-7.17946148441e-10
-2.82143959294e-09
-1.65748186735e-11
-7.23936537534e-10
-2.84493582661e-09
-4.66409222197e-11
-7.17947026639e-10
-2.82140552435e-09
-7.00569204484e-11
-7.01171137418e-10
-2.75588861544e-09
-8.33792815195e-11
-6.74262035969e-10
-2.65189605085e-09
-8.41819013982e-11
-6.37965552705e-10
-2.51366966977e-09
-7.11822578213e-11
-5.9378288884e-10
-2.3476791162e-09
-4.36928939935e-11
-5.44591788351e-10
-2.16184744939e-09
-4.96652509116e-10
-1.96387752814e-09
-3.31455440545e-13
5.55607334714e-11
-6.9037400016e-10
-3.12361860337e-09
-9.81112121247e-14
9.18278040352e-11
-7.49072966537e-10
-3.44576958527e-09
1.08963663337e-10
-8.08177456056e-10
-3.74773325535e-09
1.07826709202e-10
-8.60530068732e-10
-4.01708306361e-09
9.03096183065e-11
-9.02845306171e-10
-4.24115781613e-09
5.97312872705e-11
-9.33778254978e-10
-4.40960854807e-09
2.06271948935e-11
-9.52900877792e-10
-4.5156055042e-09
-2.15095839573e-11
-9.59744186649e-10
-4.55352524235e-09
-6.0584708838e-11
-9.52910648386e-10
-4.51555032162e-09
-9.11079542373e-11
-9.33792012737e-10
-4.40949849326e-09
-1.08550424778e-10
-9.02861052374e-10
-4.24099555293e-09
-1.09599338232e-10
-8.60544450297e-10
-4.01687434987e-09
-9.2363578926e-11
-8.08184299622e-10
-3.74748984633e-09
-5.59966641043e-11
-7.49085414278e-10
-3.44551751273e-09
-6.90397375032e-10
-3.12341155438e-09
-4.46016799175e-13
5.9910862041e-11
-8.18784059035e-10
-4.09306229875e-09
-1.18715298104e-13
9.97630283388e-11
-8.80264319971e-10
-4.52339306955e-09
1.1868841265e-10
-9.40552166372e-10
-4.92586055488e-09
1.17444344177e-10
-9.92886207455e-10
-5.2842299166e-09
9.8275638887e-11
-1.0343511425e-09
-5.58198024882e-09
6.49410600239e-11
-1.06415143127e-09
-5.80560496261e-09
2.24230080493e-11
-1.08238770993e-09
-5.94614664233e-09
-2.33501760939e-11
-1.08893250037e-09
-5.9962784535e-09
-6.58386439776e-11
-1.08240748284e-09
-5.94607155799e-09
-9.91179528757e-11
-1.06418101102e-09
-5.80545567983e-09
-1.18211267421e-10
-1.03438590674e-09
-5.58176063686e-09
-1.1936537946e-10
-9.9292184263e-10
-5.28394796612e-09
-1.00337961756e-10
-9.4058381726e-10
-4.92553167761e-09
-6.03829326859e-11
-8.80302616568e-10
-4.52304918496e-09
-8.18832672605e-10
-4.09276630851e-09
-4.97070328416e-13
5.92221657898e-11
-8.87832836556e-10
-4.88448730224e-09
-1.30925599893e-13
9.92305851284e-11
-9.46479672669e-10
-5.40871192938e-09
1.18332718518e-10
-1.00190248571e-09
-5.89772172468e-09
1.17126253007e-10
-1.04867970109e-09
-6.33231356083e-09
9.79620964842e-11
-1.08479032562e-09