/*--------------------------------*- C++ -*----------------------------------*\
  =========                 |
  \\      /  F ield         | OpenFOAM: The Open Source CFD Toolbox
   \\    /   O peration     | Website:  https://openfoam.org
    \\  /    A nd           | Version:  7
     \\/     M anipulation  |
\*---------------------------------------------------------------------------*/
FoamFile
{
    version     2.0;
    format      ascii;
    class       surfaceScalarField;
    location    "2.3";
    object      phi;
}
// * * * * * * * * * * * * * * * * * * * * * * * * * * * * * * * * * * * * * //

dimensions      [0 3 -1 0 0 0 0];

internalField   nonuniform List<scalar> 
65775
(
-3.26750010194e-12
4.42656342093e-10
1.29226654317e-11
5.29250921051e-14
-6.09685740457e-12
4.65259289764e-10
1.33973231044e-11
-7.46958008852e-12
4.85004556349e-10
1.32789271086e-11
-7.51838154185e-12
5.02246473054e-10
1.28403387348e-11
-6.30247467001e-12
5.16157823918e-10
1.2288692151e-11
-4.10746915218e-12
5.2643519333e-10
1.1781780871e-11
-1.28703005183e-12
5.32911211277e-10
1.14362033469e-11
1.74435890528e-12
5.35333028803e-10
1.13195150129e-11
4.55589797274e-12
5.32889749103e-10
1.14383068115e-11
6.73439686372e-12
5.26393265893e-10
1.17860584428e-11
7.92634924705e-12
5.16095283705e-10
1.22953890317e-11
7.84865282229e-12
5.02165758142e-10
1.28501380895e-11
6.44287327016e-12
4.84907912024e-10
1.32937083671e-11
3.58668375253e-12
4.6516102249e-10
1.34234525365e-11
4.42630470972e-10
1.29803090169e-11
2.84051935324e-13
-7.04157001495e-12
8.34047749533e-10
4.65668544572e-11
1.22187422863e-13
-1.31999814686e-11
8.76334341215e-10
4.95084100727e-11
-1.68269894782e-11
9.13326362925e-10
5.06856234557e-11
-1.72641523501e-11
9.45263288463e-10
5.07755022892e-11
-1.46580601987e-11
9.7107682747e-10
5.03039359979e-11
-9.59372429109e-12
9.9014747083e-10
4.96779789589e-11
-2.94428710343e-12
1.00217265796e-09
4.92024557433e-11
4.25344029196e-12
1.00666004401e-09
4.90485440013e-11
1.08779293965e-11
1.0021265202e-09
4.9208795733e-11
1.58946973875e-11
9.90056306399e-10
4.96908098694e-11
1.84323977866e-11
9.70940317116e-10
5.03239475463e-11
1.79094388845e-11
9.45083659211e-10
5.08046315744e-11
1.41850728847e-11
9.13107668654e-10
5.0729199844e-11
7.91532900455e-12
8.76112784855e-10
4.9584080367e-11
8.33975247305e-10
4.67196134175e-11
7.82737583571e-13
-8.25676560443e-12
1.16694697994e-09
8.48283648925e-11
1.62402528633e-13
-1.62465470069e-11
1.22584075009e-09
9.14062887824e-11
-2.14947756265e-11
1.27720864651e-09
9.51094255119e-11
-2.25291993762e-11
1.32098586586e-09
9.68838154262e-11
-1.93728703503e-11
1.35635058888e-09
9.74777491739e-11
-1.27353601842e-11
1.38245001694e-09
9.74820399446e-11
-3.8220717702e-12
1.39890849035e-09
9.73466825875e-11
5.88807838848e-12
1.40504200263e-09
9.73184204244e-11
1.47630085294e-11
1.3988512848e-09
9.7356798443e-11
2.13265015847e-11
1.38233612506e-09
9.75024554786e-11
2.43760924426e-11
1.35617847768e-09
9.75094850989e-11
2.32056948923e-11
1.32075519887e-09
9.6929715789e-11
1.77997287091e-11
1.27692218253e-09
9.51770805594e-11
9.61690059312e-12
1.22555413176e-09
9.15202814757e-11
1.16685747304e-09
8.50493659825e-11
1.21875170524e-12
-7.49938831688e-12
1.43780226311e-09
1.24685863206e-10
1.88214724398e-13
-1.6016043452e-11
1.51013269264e-09
1.35643257337e-10
-2.22048563408e-11
1.57279630037e-09
1.42706182874e-10
-2.39225455062e-11
1.62551697759e-09
1.46971995136e-10
-2.08908445477e-11
1.66797439559e-09
1.49329952106e-10
-1.37977878084e-11
1.69924586077e-09
1.50499764534e-10
-4.00408265639e-12
1.71895232681e-09
1.51040352815e-10
6.74555864804e-12
1.72628808175e-09
1.51252343631e-10
1.64892770755e-11
1.71889779334e-09
1.51053361221e-10
2.3485030367e-11
1.69913597242e-09
1.50525952587e-10
2.63755661623e-11
1.66780596069e-09
1.4937053644e-10
2.44768731168e-11
1.62528635612e-09
1.47030282131e-10
1.80739232018e-11
1.57250168161e-09
1.42790685852e-10
9.29523842248e-12
1.50984306342e-09
1.35781429641e-10
1.43772969556e-09
1.24944984732e-10
1.61241623098e-12
-5.23329888734e-12
1.64542583255e-09
1.64229341226e-10
2.03395028128e-13
-1.31279130836e-11
1.72789998165e-09
1.80041588052e-10
-1.96178763341e-11
1.79871354642e-09
1.9104003744e-10
-2.20076758381e-11
1.85753042375e-09
1.98376148832e-10
-1.96342333298e-11
1.90465375968e-09
2.03010563467e-10
-1.30369516734e-11
1.93925996074e-09
2.05743558011e-10
-3.57250077311e-12
1.96103747385e-09
2.07210217414e-10
6.9192314195e-12
1.96913468048e-09
2.07746585458e-10
1.63235595867e-11
1.96099801912e-09
2.07225431102e-10
2.28031179072e-11
1.93917906647e-09
2.0577407989e-10
2.5004790477e-11
1.90452596417e-09
2.03057584712e-10
2.23939706926e-11
1.85734844445e-09
1.98442873718e-10
1.56402439473e-11
1.79846914916e-09
1.91134621519e-10
7.42708127025e-12
1.72766900259e-09
1.80191849158e-10
1.64541481588e-09
1.64504133529e-10
1.97486996216e-12
-1.79245766141e-12
1.79054633692e-09
2.01877351665e-10
2.10921674604e-13
-8.08849072841e-12
1.87981485122e-09
2.22793168963e-10
-1.42955741712e-11
1.95567117184e-09
2.38078874177e-10
-1.72855459393e-11
2.01787108675e-09
2.48864694215e-10
-1.5985589779e-11
2.06737056094e-09
2.56125141852e-10
-1.06872723784e-11
2.10358486216e-09
2.60698941202e-10
-2.60213596777e-12
2.12632751279e-09
2.63267409436e-10
6.49690679201e-12
2.1347725988e-09
2.64185957573e-10
1.45131328483e-11
2.12631485436e-09
2.63284444591e-10
1.96757573656e-11
2.10355638881e-09
2.60732965404e-10
2.07769683325e-11
2.06731868906e-09
2.56177047128e-10
1.75307738595e-11
2.01778414648e-09
2.4893698995e-10
1.10177785804e-11
1.95553417913e-09
2.38178333717e-10
4.35700082639e-12
1.87970108787e-09
2.22946742125e-10
1.79064530888e-09
2.02153849695e-10
2.31194400309e-12
2.57332047377e-12
1.87545775924e-09
2.36312190296e-10
2.13044632281e-13
-1.30079804613e-12
1.96821100679e-09
2.62387298565e-10
-6.69351528942e-12
2.04613926272e-09
2.8211871552e-10
-1.01704754612e-11
2.10921937694e-09
2.96560773006e-10
-1.02639766538e-11
2.15902935266e-09
3.0665603861e-10
-6.94502138271e-12
2.1953106823e-09
3.13245066197e-10
-1.15516186909e-12
2.21803570074e-09
3.17027489432e-10
5.55337399871e-12
2.2264611993e-09
3.18363635621e-10
1.12666885935e-11
2.21805985756e-09
3.1704629321e-10
1.44342407694e-11
2.19535512872e-09
3.13282469206e-10
1.41183176163e-11
2.15908456665e-09
3.06712347164e-10
1.03546221832e-11
2.10926900313e-09
2.96637250754e-10
4.62000561396e-12
2.04616076988e-09
2.82220036004e-10
3.4272577855e-13
1.96827076113e-09
2.62539153075e-10
1.87571754294e-09
2.36582638569e-10
2.6296150237e-12
7.66903738547e-12
1.90374580026e-09
2.66436205923e-10
2.10931489072e-13
6.91583839035e-12
1.99681090345e-09
2.97562660998e-10
2.8246968026e-12
2.07405790317e-09
3.21733540054e-10
-9.96556383404e-13
2.13579993264e-09
3.39891583563e-10
-2.72884330307e-12
2.18415201555e-09
3.52912125434e-10
-1.97062792064e-12
2.21920617287e-09
3.61605038598e-10
7.17892528493e-13
2.24109568572e-09
3.66661162584e-10
4.1509581225e-12
2.24919561368e-09
3.68431995296e-10
6.75632960691e-12
2.24116492819e-09
3.66682048368e-10
7.34951278291e-12
2.21934066245e-09
3.61646506001e-10
5.37415562835e-12
2.18434048382e-09
3.52973645639e-10
1.23961697764e-12
2.13602182682e-09
3.39972654491e-10
-3.22449578371e-12
2.07428284271e-09
3.21836308487e-10
-4.41485547062e-12
1.99709474689e-09
2.97711774439e-10
1.9042170225e-09
2.66698139297e-10
2.932174485e-12
1.33487035079e-11
1.88005813273e-09
2.91332554988e-10
2.05819389926e-13
1.63229632184e-11
1.97048610685e-09
3.27262063955e-10
1.39883640461e-11
2.04459505887e-09
3.55727424e-10
9.9848394138e-12
2.10313374838e-09
3.77541253834e-10
6.4217138852e-12
2.14861665826e-09
3.93483165426e-10
4.11205816704e-12
2.18144304713e-09
4.04301435067e-10
2.97829037396e-12
2.20187323514e-09
4.10650468409e-10
2.33944130281e-12
2.20941377763e-09
4.12859059614e-10
1.11672843525e-12
2.20199376304e-09
4.10674253171e-10
-1.36997193154e-12
2.18168031236e-09
4.04348654336e-10
-5.19426292442e-12
2.14895833482e-09
3.93552384742e-10
-9.53467128051e-12
2.10355546335e-09
3.77629986619e-10
-1.22700041566e-11
2.04505963828e-09
3.55834811641e-10
-9.76484564589e-12
1.97103720259e-09
3.27411630984e-10
1.88078781144e-09
2.91588110037e-10
3.22353382046e-12
1.95118247788e-11
1.80991680132e-09
3.10227225837e-10
1.9847553624e-13
2.6765280073e-11
1.89506024957e-09
3.50588209001e-10
2.66233951791e-11
1.96395009247e-09
3.83088476061e-10
2.26065847594e-11
2.0178402536e-09
4.08404439137e-10
1.70500556384e-11
2.05944761257e-09
4.27194358837e-10
1.12137064966e-11
2.08936671682e-09
4.40112414822e-10
5.59801624583e-12
2.10792257152e-09
4.47746209843e-10
1.56450539906e-13
2.11474665861e-09
4.50386506991e-10
-5.55354296627e-12
2.10809774017e-09
4.47774743072e-10
-1.15778019042e-11
2.08971380189e-09
4.40168915234e-10
-1.74118365159e-11
2.05995421902e-09
4.27276069792e-10
-2.17869690441e-11
2.01847992186e-09
4.08506449887e-10
-2.23556753957e-11
1.96468027649e-09
3.8320666894e-10
-1.56029213608e-11
1.89591262622e-09
3.50745149491e-10
1.81094563305e-09
3.10482544868e-10
3.5070085414e-12
2.61005320198e-11
1.69957110345e-09
3.22449926815e-10
1.89735504614e-13
3.8173648005e-11
1.77715046935e-09
3.66758173575e-10
4.06513490815e-11
1.8392035047e-09
4.02943926647e-10
3.67772286116e-11
1.8874883954e-09
4.31544389948e-10
2.9065549982e-11
1.92464709386e-09
4.53066162414e-10
1.92683562025e-11
1.95130428092e-09
4.68031714244e-10
8.55509277112e-12
1.96777417372e-09
4.76927532636e-10
-2.36868974718e-12
1.97379957607e-09
4.79988817508e-10
-1.31813823411e-11
1.96800431486e-09
4.76963107385e-10
-2.31766422654e-11
1.95176235223e-09
4.68101793573e-10
-3.11811126163e-11
1.9253219839e-09
4.53166536904e-10
-3.54342381538e-11
1.88835379868e-09
4.31667448033e-10
-3.34093487501e-11
1.84021434171e-09
4.03081925383e-10
-2.18691377446e-11
1.77832716074e-09
3.66932563528e-10
1.70092940438e-09
3.22714543474e-10
3.78555896256e-12
3.31042201496e-11
1.55588604488e-09
3.27392903537e-10
1.7937726556e-13
5.05746256893e-11
1.62404877327e-09
3.75060022764e-10
5.60761500606e-11
1.67822989801e-09
4.14522006856e-10
5.24448100441e-11
1.72050559446e-09
4.46158295388e-10
4.23844158952e-11
1.75306786363e-09
4.70280191936e-10
2.82035388446e-11
1.77639611521e-09
4.87233493449e-10
1.18230229257e-11
1.79074207317e-09
4.97365331826e-10
-5.20477475837e-12
1.7959488617e-09
5.00835831853e-10
-2.16898822131e-11
1.79102494039e-09
4.97410356866e-10
-3.60791239018e-11
1.7769606981e-09
4.87321938112e-10
-4.64477941028e-11
1.75390612403e-09
4.70406442458e-10
-5.04795586693e-11
1.72159440199e-09
4.4631191501e-10
-4.54585760142e-11
1.67952548609e-09
4.14691007823e-10
-2.85549395305e-11
1.62556114844e-09
3.75263817114e-10
1.5575910275e-09
3.27678381094e-10
4.06098274393e-12
4.06378852985e-11
1.38620235074e-09
3.24468470622e-10
1.66933247968e-13
6.41391481369e-11
1.44365988379e-09
3.74824729284e-10
7.29331148255e-11
1.48972395563e-09
4.17138283947e-10
6.94968438415e-11
1.52614711237e-09
4.51565647704e-10
5.68342005997e-11
1.55429524427e-09
4.7816306554e-10
3.78782096792e-11
1.57442063748e-09
4.97050268561e-10
1.53484404021e-11
1.58671487286e-09
5.08395760725e-10
-8.2970097299e-12
1.59112800994e-09
5.12264849886e-10
-3.09374802659e-11
1.58704619901e-09
5.08452425758e-10
-5.01133644274e-11
1.57508373692e-09
4.97161632099e-10
-6.31016306015e-11
1.55528565333e-09
4.78322494843e-10
-6.69621863674e-11
1.52744825709e-09
4.51760149928e-10
-5.86801152492e-11
1.49129840985e-09
4.17350730427e-10
-3.57838087486e-11
1.44551092157e-09
3.7506970652e-10
1.38826412046e-09
3.24784354418e-10
4.3174581197e-12
4.91259511388e-11
1.19804378468e-09
3.13072627624e-10
1.49926574296e-13
7.90127717658e-11
1.24476408768e-09
3.65455476612e-10
9.09417792637e-11
1.28335659017e-09
4.10241910125e-10
8.74383715972e-11
1.31440831372e-09
4.47242060993e-10
7.193031972e-11
1.33841728147e-09
4.76203039163e-10
4.79554591827e-11
1.35551343993e-09
4.96974655007e-10
1.90125525828e-11
1.3658732587e-09
5.09512270545e-10
-1.15293653581e-11
1.36953866575e-09
5.13769218706e-10
-4.05907128839e-11
1.36624910361e-09
5.09581892966e-10
-6.48002663596e-11
1.35626615543e-09
4.9711190675e-10
-8.06550050472e-11
1.33954553471e-09
4.76401116804e-10
-8.4610496811e-11
1.31590329172e-09
4.47486683855e-10
-7.3226784652e-11
1.28519253223e-09
4.10510578876e-10
-4.3986924394e-11
1.24694899555e-09
3.65751941751e-10
1.20045179714e-09
3.13421764981e-10
4.56545414306e-12
5.73758796964e-11
2.92596799583e-10
1.3438938848e-13
1.00072759713e-09
9.35109745772e-11
3.46643198412e-10
1.03694436334e-09
1.08333930393e-10
3.93562476007e-10
1.06915513767e-09
1.04804700988e-10
4.32916479693e-10
1.09525067667e-09
8.66449643715e-11
4.64111893837e-10
1.11537236627e-09
5.78400120776e-11
4.86697237154e-10
1.12969048405e-09
2.26179232269e-11
5.00389518901e-10
1.13832123011e-09
-1.47110394721e-11
5.05017438678e-10
1.14133037264e-09
-5.00631186551e-11
5.00471050756e-10
1.13874155011e-09
-7.91244856697e-11
4.86858544469e-10
1.13053180196e-09
-9.76608932059e-11
4.64346983747e-10
1.11663360552e-09
-1.01678083761e-10
4.3321233617e-10
1.09692766816e-09
-8.7444600321e-11
3.93892980093e-10
1.0712376838e-09
-5.19999325627e-11
3.47008350207e-10
1.03944164183e-09
2.92955137846e-10
4.78595779086e-12
1.00347747016e-09
-1.02599515505e-12
1.38720118442e-11
1.19130668786e-13
2.11106780315e-14
-1.84944587991e-12
1.50319013165e-11
-7.08134073982e-13
-2.29799450785e-12
1.59383138419e-11
-2.1065184996e-12
-2.34021031447e-12
1.6715925662e-11
-3.73866724456e-12
-1.98241969103e-12
1.73245804394e-11
-5.32172107082e-12
-1.29468113776e-12
1.7775688047e-11
-6.62585475372e-12
-3.89269810839e-13
1.80616529865e-11
-7.48128175645e-12
5.91797960927e-13
1.81662146381e-11
-7.78000634556e-12
1.49614866822e-12
1.80548833501e-11
-7.47443039782e-12
2.18093908904e-12
1.77587759073e-11
-6.6122041278e-12
2.53016322965e-12
1.72912292322e-11
-5.30128448991e-12
2.46954745687e-12
1.66645652437e-11
-3.71114616116e-12
1.99478571328e-12
1.58804346008e-11
-2.07055745538e-12
1.14104812569e-12
1.49757381865e-11
-6.58573446061e-13
1.38567079852e-11
1.98883472015e-13
1.03701831093e-13
-2.3431618145e-12
4.93825901265e-11
1.34635095034e-11
5.40744886658e-14
-4.32774058077e-12
5.35118422805e-11
1.31739806597e-11
-5.50060897393e-12
5.67763704164e-11
1.11869455191e-11
-5.67533475742e-12
5.9486778787e-11
8.32411288536e-12
-4.8424443515e-12
6.1610498575e-11
5.297314307e-12
-3.15806179138e-12
6.31672688069e-11
2.69292140769e-12
-9.073677711e-13
6.41443674653e-11
9.51068393184e-13
1.54083533583e-12
6.44991213096e-11
3.46072827678e-13
3.78524045756e-12
6.41241957421e-11
9.71331061802e-13
5.45447418364e-12
6.31208462561e-11
2.73326757598e-12
6.2557327933e-12
6.15275264472e-11
5.35767745233e-12
6.02425096532e-12
5.93643913772e-11
8.40527755217e-12
4.77265222735e-12
5.66352992007e-11
1.12925662447e-11
2.69674065984e-12
5.33808561788e-11
1.33182284486e-11
4.93338431651e-11
1.36827873275e-11
3.1531515042e-13
-3.00405180433e-12
9.99164956574e-11
3.73338136898e-11
7.71627030328e-14
-5.64634642479e-12
1.08236131315e-10
3.94699716366e-11
-7.29982852203e-12
1.14848335876e-10
3.88432222154e-11
-7.6132446584e-12
1.20235391387e-10
3.6579317205e-11
-6.53006334659e-12
1.24432178501e-10
3.36760236586e-11
-4.24398023753e-12
1.27478948054e-10
3.0969465445e-11
-1.15053695564e-12
1.29377016218e-10
2.90979432789e-11
2.2250577252e-12
1.3006356035e-10
2.84524473976e-11
5.30432365355e-12
1.29342692318e-10
2.91306971519e-11
7.55842272372e-12
1.2740385419e-10
3.10346218281e-11
8.58274900872e-12
1.24306217586e-10
3.37733425129e-11
8.17402621018e-12
1.20057806579e-10
3.67097034216e-11
6.39216136495e-12
1.14645022328e-10
3.90114783661e-11
3.602008456e-12
1.08054802792e-10
3.96954835927e-11
9.98457716841e-11
3.76651265218e-11
5.28802478821e-13
-3.05694673293e-12
1.58729913995e-10
6.8941887627e-11
9.47821370956e-14
-5.87248465715e-12
1.71822667743e-10
7.50058687647e-11
-7.7414181814e-12
1.82237852928e-10
7.7322637217e-11
-8.17502001632e-12
1.90595006286e-10
7.71633872655e-11
-7.04884553336e-12
1.97047194779e-10
7.56841025657e-11
-4.5495161991e-12
2.01685507396e-10
7.38745744596e-11
-1.11791562167e-12
2.04554345819e-10
7.25052073736e-11
2.63997368333e-12
2.05588610049e-10
7.20397323716e-11
6.0475591902e-12
2.04506977491e-10
7.25492266349e-11
8.49492093736e-12
2.01585723181e-10
7.39620238392e-11
9.53238660408e-12
1.96887944111e-10
7.58143824478e-11
8.96478981627e-12
1.90379520646e-10
7.73370209593e-11
6.92074571411e-12
1.81993887056e-10
7.75442675916e-11
3.90522335625e-12
1.71609982177e-10
7.52965173107e-11
1.58643635742e-10
6.93548326469e-11
7.47521538408e-13
-2.53973840239e-12
2.19886818928e-10
1.05602526498e-10
1.08340422183e-13
-5.07656688136e-12
2.37792236208e-10
1.16729668599e-10
-6.89578272996e-12
2.52003332914e-10
1.23214482162e-10
-7.41437063574e-12
2.63250629664e-10
1.26344054546e-10
-6.43384473626e-12
2.71840498454e-10
1.27323506188e-10
-4.09393027056e-12
2.77952216196e-10
1.27211863155e-10
-8.16847357524e-13
2.81704252342e-10
1.26852113042e-10
2.78873703888e-12
2.83052827193e-10
1.2674247242e-10
6.03077243442e-12
2.81647205556e-10
1.26906282395e-10
8.29692947426e-12
2.77835204506e-10
1.27319281853e-10
9.15762768765e-12
2.71660548171e-10
1.27482948103e-10
8.46659301995e-12
2.63014918699e-10
1.26555049347e-10
6.42828573196e-12
2.51740543482e-10
1.23480251667e-10
3.64330509826e-12
2.37566735037e-10
1.17070629929e-10
2.19795190911e-10
1.06072614638e-10
9.69860897729e-13
-1.49198685372e-12
2.78336812916e-10
1.44893700718e-10
1.18959928233e-13
-3.32616548718e-12
3.00642225028e-10
1.61884217605e-10
-4.83248661542e-12
3.18267049292e-10
1.73428770884e-10
-5.38792643713e-12
3.32034703408e-10
1.80730746775e-10
-4.72383688147e-12
3.42427255206e-10
1.84954548708e-10
-2.89951603018e-12
3.49741652654e-10
1.87155794124e-10
-2.5586284073e-13
3.54196457996e-10
1.88196823368e-10
2.67544379406e-12
3.55792268322e-10
1.8857723065e-10
5.27243274687e-12
3.54133898394e-10
1.88260247408e-10
7.0004825419e-12
3.49616013943e-10
1.87281285642e-10
7.51339273759e-12
3.42239923891e-10
1.85139934996e-10
6.74809069922e-12
3.31796377247e-10
1.80973927486e-10
4.98097183182e-12
3.18005953222e-10
1.73730502693e-10
2.85449185053e-12
3.004235239e-10
1.62263174307e-10
2.78249827044e-10
1.45403173374e-10
1.19388296696e-12
3.83477055947e-14
3.29946531342e-10
1.84622852415e-10
1.27209678195e-13
-6.97723042242e-13
3.55889179528e-10
2.07969935077e-10
-1.63595516225e-12
3.7625976544e-10
2.25159083251e-10
-2.17092914652e-12
3.91975958592e-10
2.37238852921e-10
-1.97582947554e-12
4.03699355513e-10
2.45261958407e-10
-1.00173810979e-12
4.11858666917e-10
2.50219250857e-10
5.51552364463e-13
4.1678649993e-10
2.52944935846e-10
2.30869688498e-12
4.18545201238e-10
2.53911381577e-10
3.80365774374e-12
4.16723624013e-10
2.53016999982e-10
4.65921165914e-12
4.11734707656e-10
2.50361500792e-10
4.67255494735e-12
4.03519356491e-10
2.45470930864e-10
3.89199932942e-12
3.91753244685e-10
2.37510214594e-10
2.65372265065e-12
3.76020455417e-10
2.25490347087e-10
1.58425928446e-12
3.55697687139e-10
2.0837762396e-10
3.29878686329e-10
1.8515902755e-10
1.41866936833e-12
1.99908785559e-12
3.7151918409e-10
2.22808128217e-10
1.33413764068e-13
2.72272503242e-12
4.00085643764e-10
2.52724690484e-10
2.59170498413e-12
4.2234394384e-10
2.75863444244e-10
2.1379002649e-12
4.39323514555e-10
2.93073330276e-10
1.72940254772e-12
4.51845409208e-10
3.05241605988e-10
1.5464079003e-12
4.60464693052e-10
3.13242864507e-10
1.58545577327e-12
4.65625125697e-10
3.17840437829e-10
1.70336508785e-12
4.67458850777e-10
3.1945461977e-10
1.6728136014e-12
4.65567170137e-10
3.17920880638e-10
1.34997006178e-12
4.6035264666e-10
3.13401261301e-10
7.30797474284e-13
4.51687334024e-10
3.05472897885e-10
-2.1231523232e-15
4.39134401795e-10
2.93370427625e-10
-4.69406228538e-13
4.22147270027e-10
2.76220070965e-10
-1.17800371893e-13
3.99942349092e-10
2.5315523685e-10
3.71491176562e-10
2.23362677317e-10
1.64227984868e-12
4.33407556398e-12
4.00789730309e-10
2.57659414122e-10
1.38317111549e-13
6.83788521552e-12
4.30812845488e-10
2.9410234981e-10
7.72794903453e-12
4.54009527123e-10
3.23243922731e-10
7.41163535026e-12
4.71536327959e-10
3.45711666322e-10
6.28207499142e-12
4.84331453223e-10
3.62187232853e-10
4.67017803697e-12
4.93049149496e-10
3.73384798131e-10
2.8177492203e-12
4.9822326304e-10
3.79957459561e-10
8.82056868478e-13
5.00052459531e-10
3.82251415017e-10
-1.05048466781e-12
4.98175602002e-10
3.80046516076e-10
-2.82194911879e-12
4.92959405e-10
3.73559714744e-10
-4.18870979555e-12
4.84210035497e-10
3.62441082444e-10
-4.8147831347e-12
4.71398880301e-10
3.46034159508e-10
-4.2940894436e-12
4.53876606825e-10
3.23624555468e-10
-2.1977718479e-12
4.30740815824e-10
2.94553491132e-10
4.00824467919e-10
2.58228090786e-10
1.86260718656e-12
6.98248771523e-12
4.16397324752e-10
2.8755766756e-10
1.41965461076e-13
1.15381678892e-11
4.46657748578e-10
3.30248803555e-10
1.36257696342e-11
4.69848031605e-10
3.65224691874e-10
1.34893610386e-11
4.87249963467e-10
3.92886162551e-10
1.15373199438e-11
4.99855751701e-10
4.13676857191e-10
8.2685227921e-12
5.08371356129e-10
4.28110267647e-10
4.21047455461e-12
5.13384648309e-10
4.36691654807e-10
-1.2321206923e-13
5.15146226832e-10
4.3967296967e-10
-4.27084720638e-12
5.13352612462e-10
4.36790094026e-10
-7.71681755902e-12
5.08314139415e-10
4.28303100275e-10
-9.9296663121e-12
4.99785365829e-10
4.13955017045e-10
-1.04030049621e-11
4.87182279178e-10
3.93235788097e-10
-8.71432121043e-12
4.69800553028e-10
3.65630714283e-10
-4.59827971948e-12
4.46681681537e-10
3.30721693362e-10
4.16522658703e-10
2.88139918859e-10
2.0774054296e-12
9.8803308249e-12
4.17847719888e-10
3.11030937801e-10
1.4501401495e-13
1.66992093814e-11
4.47173746024e-10
3.5947558147e-10
2.01069875206e-11
4.69507331897e-10
3.99930544767e-10
2.0167571429e-11
4.86217145823e-10
4.32568316411e-10
1.73069432028e-11
4.98270182562e-10
4.57561289679e-10
1.22084882589e-11
5.06365941417e-10
4.7518232039e-10
5.71376038311e-12
5.11099573375e-10
4.8575194552e-10
-1.26898987354e-12
5.12751653878e-10
4.89409158506e-10
-7.86154633139e-12
5.11088503962e-10
4.85860863831e-10
-1.31523865984e-11
5.06351445964e-10
4.75395167021e-10
-1.62940707153e-11
4.98264990445e-10
4.57866758652e-10
-1.65937861952e-11
4.86236886063e-10
4.32948715399e-10
-1.3610534849e-11
4.69566879935e-10
4.00365837385e-10
-7.25922005522e-12
4.47319318376e-10
3.59974231322e-10
4.18092711747e-10
3.11629403531e-10
2.28390694265e-12
1.29631787298e-11
4.05454764834e-10
3.26726190839e-10
1.47175517847e-13
2.2175955555e-11
4.32830355203e-10
3.80235480507e-10
2.69487869706e-11
4.53628758487e-10
4.25673705228e-10
2.71848355009e-11
4.69222044274e-10
4.62962433482e-10
2.33474616152e-11
4.80471250498e-10
4.91959903952e-10
1.63176799093e-11
4.88013362885e-10
5.1265746834e-10
7.26366223943e-12
4.92403995773e-10
5.25155446224e-10
-2.49805825977e-12
4.93924765662e-10
5.29463055488e-10
-1.16568686041e-11
4.92419403318e-10
5.25275999281e-10
-1.88919440738e-11
4.88051581344e-10
5.12892713933e-10
-2.30272576597e-11
4.80545344626e-10
4.92296436786e-10
-2.31709067275e-11
4.69346806854e-10
4.63378670068e-10
-1.88438671938e-11
4.53817257025e-10
4.26144013424e-10
-1.01221429969e-11
4.33123541023e-10
3.80765451984e-10
4.05850282397e-10
3.27345327488e-10
2.47887030624e-12
1.61806006772e-11
3.80262034082e-10
3.33377726069e-10
1.48263391422e-13
2.77943944986e-11
4.04962519655e-10
3.91117288801e-10
3.38611608426e-11
4.23770628788e-10
4.40969253491e-10
3.42003573592e-11
4.37963421463e-10
4.82523774934e-10
2.93454287603e-11
4.48253274333e-10
5.15274101141e-10
2.03774144897e-11
4.55175633736e-10
5.38893386833e-10
8.77962372514e-12
4.59202214752e-10
5.53230979317e-10
-3.73643302239e-12
4.6058797506e-10
5.58152966376e-10
-1.54451229622e-11
4.59249695444e-10
5.53363963472e-10
-2.46291244885e-11
4.55277560482e-10
5.39152899529e-10
-2.9796061353e-11
4.4842132107e-10
5.15645176907e-10
-2.98520408977e-11
4.38211643511e-10
4.82981369677e-10
-2.42479853939e-11
4.24110264346e-10
4.41481276099e-10
-1.31440028952e-11
4.05430839218e-10
3.91683586332e-10
3.8084135064e-10
3.34019441966e-10
2.652459523e-12
1.94604785495e-11
3.43989009179e-10
3.29780033256e-10
1.4767674514e-13
3.32332119074e-11
3.65765592898e-10
3.90912975572e-10
4.03834318856e-11
3.82277618556e-10
4.44618291129e-10
4.07334254975e-11
3.9486713903e-10
4.90022728528e-10
3.48907280924e-11
4.04101143715e-10
5.26231563032e-10
2.41128380635e-11
4.10383182451e-10
5.52577746529e-10
1.01641688505e-11
4.14057333932e-10
5.68638336674e-10
-4.8924206549e-12
4.15316062232e-10
5.74128396471e-10
-1.89571819398e-11
4.14143535486e-10
5.68783485827e-10
-2.9960621001e-11
4.10560694458e-10
5.52861446317e-10
-3.61270096214e-11
4.04379430859e-10
5.26638376173e-10
-3.61848107001e-11
3.95257609402e-10
4.90525756978e-10
-2.95085018427e-11
3.82790665163e-10
4.45178958132e-10
-1.62586470398e-11
3.66436304321e-10
3.91518953945e-10
3.44779142417e-10
3.30438718714e-10
2.80689957067e-12
2.153490756e-11
3.14864198309e-10
1.4799147147e-13
3.00078371394e-10
3.72739664054e-11
3.78955448524e-10
3.17744198313e-10
4.55189234651e-11
4.35913358895e-10
3.31712310764e-10
4.60280496417e-11
4.84677056261e-10
3.42627320404e-10
3.94561583402e-11
5.23973548976e-10
3.50841678254e-10
2.72123003272e-11
5.5278670985e-10
3.56567464457e-10
1.13120143918e-11
5.70410376435e-10
3.59965274072e-10
-5.86425853368e-12
5.76406579499e-10
3.61131145402e-10
-2.1885905986e-11
5.70564763718e-10
3.60097854939e-10
-3.4364599113e-11
5.53089129275e-10
3.5683573668e-10
-4.12722681933e-11
5.24409375557e-10
3.51250873052e-10
-4.11826321467e-11
4.85220649289e-10
3.4318464898e-10
-3.34234473707e-11
4.36521945716e-10
3.32425593682e-10
-1.82115971939e-11
3.79612735673e-10
3.18641427847e-10
3.15504735177e-10
2.92664434266e-12
3.01111025869e-10
-1.35285771407e-13
2.89739860207e-12
-2.59777407501e-12
9.96404872577e-15
-2.43730165195e-13
3.1639729844e-12
-3.70070542801e-12
-2.93958331093e-13
3.36732777967e-12
-5.35093887213e-12
-2.96892653105e-13
3.52802990055e-12
-7.20510564024e-12
-2.43395066816e-13
3.65869563717e-12
-8.97271723865e-12
-1.45669539077e-13
3.75271179678e-12
-1.04157904814e-11
-2.10390036597e-14
3.80691613017e-12
-1.13585406452e-11
1.1132872799e-13
3.82164004498e-12
-1.16876285012e-11
2.32099532998e-13
3.79319683897e-12
-1.13480457722e-11
3.22747097419e-13
3.72836848145e-12
-1.03950064078e-11
3.68164240914e-13
3.62852146475e-12
-8.94196185869e-12
3.58324982532e-13
3.49457794185e-12
-7.1645532076e-12
2.93796593126e-13
3.32365914153e-12
-5.2999569133e-12
1.7277314652e-13
3.12581341989e-12
-3.63510775171e-12
2.86798012761e-12
-2.50272218034e-12
3.303023916e-14
-2.72753876686e-13
1.04223064964e-11
6.27693391222e-12
2.38757579174e-14
-4.85834685934e-13
1.13678647929e-11
5.28819129238e-12
-5.96277819363e-13
1.2096051314e-11
2.67704101264e-12
-5.99309598226e-13
1.26791729628e-11
-7.25461642666e-13
-4.84234270814e-13
1.3133928025e-11
-4.19417055441e-12
-2.72222213963e-13
1.3456225263e-11
-7.12759208942e-12
-6.57209106373e-16
1.36460196102e-11
-9.07469692172e-12
2.87652093321e-13
1.37034517332e-11
-9.75035267201e-12
5.48199577353e-13
1.36123917186e-11
-9.04361115181e-12
7.39785813906e-13
1.33945104458e-11
-7.06608898084e-12
8.2972654417e-13
1.30534279699e-11
-4.10329916026e-12
7.99461933745e-13
1.25866257457e-11
-6.05935878589e-13
6.49911255609e-13
1.19868487709e-11
2.82675449567e-12
3.95572718019e-13
1.12639257445e-11
5.47930286934e-12
1.03402279064e-11
6.54136283878e-12
1.06026978824e-13
-2.77247335592e-13
2.10883532792e-11
2.69928272259e-11
3.31293194e-14
-4.88827619008e-13
2.29806069216e-11
2.81651861126e-11
-6.02464017901e-13
2.44481251005e-11
2.67013187631e-11
-5.98126390461e-13
2.56150994105e-11
2.37299970119e-11
-4.64960306643e-13
2.65091422044e-11
2.02581602533e-11
-2.23418435138e-13
2.7136967134e-11
1.71343062895e-11
8.48796693575e-14
2.75088003549e-11
1.50051957796e-11
4.10546364722e-13
2.76264082538e-11
1.42723849643e-11
7.01145567498e-13
2.74575814267e-11
1.50555956106e-11
9.09549219598e-13
2.70417162855e-11
1.72339200468e-11
9.99748684465e-13
2.638227054e-11
2.04050544012e-11
9.54027251076e-13
2.54671940631e-11
2.39225306832e-11
7.7661035364e-13
2.42798890279e-11
2.69408312115e-11
4.95719750333e-13
2.28159717684e-11
2.846633342e-11
2.09561597099e-11
2.73974033245e-11
1.86092354519e-13
-1.63748769648e-13
3.39120916246e-11
5.63177814927e-11
3.93407244627e-14
-2.77643729613e-13
3.69298587828e-11
6.1254553249e-11
-3.35661574102e-13
3.9292171204e-11
6.26227229242e-11
-3.14054032126e-13
4.11553258258e-11
6.16851937432e-11
-2.0071652804e-13
4.25656069736e-11
5.95964420245e-11
-8.27021930246e-15
4.35482648316e-11
5.73488568364e-11
2.32085771436e-13
4.41310792165e-11
5.57132864163e-11
4.81601605212e-13
4.43200189088e-11
5.51595140726e-11
6.97832971545e-13
4.4065540551e-11
5.57813856602e-11
8.44693925392e-13
4.34250019557e-11
5.74832868717e-11
8.96699029221e-13
4.23982386764e-11
5.9794193263e-11
8.44765458345e-13
4.09579024777e-11
6.19432073822e-11
6.97926097673e-13
3.90724460241e-11
6.29408969605e-11
4.88673084617e-13
3.67133041833e-11
6.16476488491e-11
3.37304234646e-11
5.68305214868e-11
2.74108747382e-13
6.06040910896e-14
4.79190236362e-11
9.15598893036e-11
4.3420064944e-14
1.34910526318e-13
5.21544290509e-11
1.01501917014e-10
1.89463749467e-13
5.54974471156e-11
1.07030411902e-10
2.3984422454e-13
5.81138844643e-11
1.09408839809e-10
2.98687615266e-13
6.00789734155e-11
1.09823993857e-10
3.67548627598e-13
6.14397674095e-11
1.09321076333e-10
4.38907626981e-13
6.22455509769e-11
1.08730098964e-10
5.01996387667e-13
6.25102657094e-11
1.08546705988e-10
5.42843681187e-13
6.21687284883e-11
1.08814359501e-10
5.53585132146e-13
6.12943092778e-11
1.09487153372e-10
5.32520967043e-13
5.98794223378e-11
1.10067541866e-10
4.85916405882e-13
5.78768607961e-11
1.09724797744e-10
4.26444748368e-13
5.52356511049e-11
1.07416044644e-10
3.79964060933e-13
5.1896896019e-11
1.01970029535e-10
4.76932981438e-11
9.21543801833e-11
3.6880980007e-13
3.90299245792e-13
6.21609525361e-11
1.30274383329e-10
4.57130902045e-14
7.40079329976e-13
6.76211124804e-11
1.46130147133e-10
9.62504590944e-13
7.19536346874e-11
1.56815407431e-10
1.05459395065e-12
7.53262874472e-11
1.63491202015e-10
1.02658098161e-12