/*--------------------------------*- C++ -*----------------------------------*\
  =========                 |
  \\      /  F ield         | OpenFOAM: The Open Source CFD Toolbox
   \\    /   O peration     | Website:  https://openfoam.org
    \\  /    A nd           | Version:  7
     \\/     M anipulation  |
\*---------------------------------------------------------------------------*/
FoamFile
{
    version     2.0;
    format      ascii;
    class       volScalarField;
    location    "0.84";
    object      p;
}
// * * * * * * * * * * * * * * * * * * * * * * * * * * * * * * * * * * * * * //

dimensions      [0 2 -2 0 0 0 0];

internalField   nonuniform List<scalar> 
22500
(
2.03887936431e-07
2.01926419043e-07
2.02592912909e-07
2.02831662104e-07
2.03254177521e-07
2.0357503724e-07
2.03780171449e-07
2.03827796429e-07
2.03726425593e-07
2.03469304101e-07
2.0309882231e-07
2.02633527107e-07
2.02359267209e-07
2.01679610654e-07
2.0363193083e-07
1.6509351532e-07
1.61100935672e-07
1.60088015614e-07
1.58871464061e-07
1.58123167166e-07
1.57588526483e-07
1.57272929607e-07
1.57146530399e-07
1.57217592058e-07
1.57479554351e-07
1.57963343046e-07
1.58667169958e-07
1.59847992534e-07
1.60846719984e-07
1.64829112831e-07
1.27086110787e-07
1.21157249325e-07
1.18663892396e-07
1.16119908295e-07
1.14323536081e-07
1.13022242165e-07
1.12241821508e-07
1.11960976806e-07
1.1218850506e-07
1.12917262856e-07
1.1416988008e-07
1.15923415203e-07
1.18433138592e-07
1.2091163089e-07
1.26826316802e-07
9.29216975992e-08
8.5344510409e-08
8.16506883602e-08
7.80442955064e-08
7.54105436332e-08
7.3500598022e-08
7.2352140867e-08
7.19497469251e-08
7.23020168408e-08
7.34018699683e-08
7.52662735813e-08
7.78599752554e-08
8.14337757954e-08
8.51125718637e-08
9.26712721661e-08
6.07209958064e-08
5.1690573177e-08
4.69610189538e-08
4.24715340731e-08
3.91371621173e-08
3.67223655704e-08
3.52693020176e-08
3.47667142998e-08
3.52223799673e-08
3.66299566529e-08
3.90021929951e-08
4.22991847749e-08
4.67578515658e-08
5.14725944429e-08
6.04820628423e-08
3.01363380594e-08
1.98589116167e-08
1.42495404328e-08
9.04688280691e-09
5.14212020332e-09
2.32063281817e-09
6.22593275557e-10
3.98622422468e-11
5.78966857316e-10
2.23464899524e-09
5.01658610255e-09
8.88653626193e-09
1.40605359945e-08
1.96547777072e-08
2.99090151031e-08
1.3781900457e-09
-9.91748013686e-09
-1.62472750754e-08
-2.19948626672e-08
-2.63404581093e-08
-2.94725511851e-08
-3.13573875355e-08
-3.20009190803e-08
-3.13978751943e-08
-2.95523606715e-08
-2.645698292e-08
-2.21437841078e-08
-1.6422898677e-08
-1.01080236215e-08
1.16204629615e-09
-2.54877302753e-08
-3.75757973922e-08
-4.44817156135e-08
-5.06218826864e-08
-5.52916278463e-08
-5.86492970342e-08
-6.06696268574e-08
-6.13569951592e-08
-6.07071634369e-08
-5.8723281377e-08
-5.53997337226e-08
-5.07601509243e-08
-4.46448819079e-08
-3.77539090969e-08
-2.56937264875e-08
-5.05149495151e-08
-6.31821079677e-08
-7.05358097818e-08
-7.69353544266e-08
-8.18278443621e-08
-8.53386615509e-08
-8.74510834186e-08
-8.81680088488e-08
-8.74859641067e-08
-8.54074410095e-08
-8.19284102983e-08
-7.70642284364e-08
-7.06879916202e-08
-6.33495453366e-08
-5.07121691291e-08
-7.3788299425e-08
-8.68343001579e-08
-9.45167029851e-08
-1.01058998729e-07
-1.06085920626e-07
-1.0968873692e-07
-1.1185675959e-07
-1.12591309091e-07
-1.11889330566e-07
-1.09753002969e-07
-1.06180003022e-07
-1.01179806694e-07
-9.46596356663e-08
-8.69930136777e-08
-7.39789718159e-08
-9.54018225805e-08
-1.08634490128e-07
-1.16527145867e-07
-1.23109466577e-07
-1.28195118933e-07
-1.31839298165e-07
-1.34032965861e-07
-1.34775330612e-07
-1.34063598609e-07
-1.31899783811e-07
-1.28283833404e-07
-1.23223733282e-07
-1.16662701643e-07
-1.08786636998e-07
-9.55882456974e-08
-1.15466535348e-07
-1.28674082933e-07
-1.36644248705e-07
-1.4317850188e-07
-1.48262845072e-07
-1.51910047605e-07
-1.54106431336e-07
-1.54849265087e-07
-1.54135470027e-07
-1.51967549194e-07
-1.48347378196e-07
-1.4328783694e-07
-1.36774492564e-07
-1.28822013829e-07
-1.15650819762e-07
-1.34146715807e-07
-1.46999250686e-07
-1.54881695888e-07
-1.61308045615e-07
-1.66356427551e-07
-1.69983942407e-07
-1.7216893846e-07
-1.72907022351e-07
-1.72196817697e-07
-1.70039118527e-07
-1.66437990075e-07
-1.61414147651e-07
-1.55008929507e-07
-1.47145654382e-07
-1.34331670713e-07
-1.51387382185e-07
-1.63466861005e-07
-1.71190115682e-07
-1.77514551669e-07
-1.82527597686e-07
-1.86126027826e-07
-1.8828924944e-07
-1.89019489726e-07
-1.88316229816e-07
-1.86179666022e-07
-1.8260741191e-07
-1.77619415024e-07
-1.71316926028e-07
-1.63614938258e-07
-1.51575243892e-07
-1.65330596152e-07
-1.78205928827e-07
-1.85799337914e-07
-1.92119273419e-07
-1.97090125313e-07
-2.00626872081e-07
-2.02743408675e-07
-2.03455974175e-07
-2.02769911146e-07
-2.00679652429e-07
-1.97169220141e-07
-1.92224456492e-07
-1.85929201502e-07
-1.78359757871e-07
-1.65519335476e-07
-3.56582635356e-06
-3.56453648953e-06
-3.56349819914e-06
-3.56253076123e-06
-3.5617195791e-06
-3.56110576536e-06
-3.56071739263e-06
-3.56057623237e-06
-3.5606897336e-06
-3.56105318477e-06
-3.56164845957e-06
-3.56244963609e-06
-3.56341071099e-06
-3.56444797067e-06
-3.56573723062e-06
-3.56088424025e-06
-3.55942177092e-06
-3.55821390268e-06
-3.5570923005e-06
-3.55614590091e-06
-3.55542822856e-06
-3.55497425722e-06
-3.55481054997e-06
-3.55494684277e-06
-3.55537623307e-06
-3.55607574238e-06
-3.55701276e-06
-3.55812985989e-06
-3.55933594266e-06
-3.56079811775e-06
-3.55492532227e-06
-3.55307334033e-06
-3.55154758827e-06
-3.55012803744e-06
-3.54892478921e-06
-3.54801162107e-06
-3.54743514393e-06
-3.54722980165e-06
-3.54740828906e-06
-3.54796051177e-06
-3.5488552106e-06
-3.55004798496e-06
-3.55146291036e-06
-3.55298563653e-06
-3.55483842333e-06
-3.54767318105e-06
-3.54513277815e-06
-3.54307773906e-06
-3.54117487397e-06
-3.53956300019e-06
-3.53834201674e-06
-3.5375741614e-06
-3.53730408688e-06
-3.53754808763e-06
-3.53829214975e-06
-3.53949433543e-06
-3.54109443016e-06
-3.54299182163e-06
-3.54504325934e-06
-3.54758524654e-06
-3.53851468168e-06
-3.53500081259e-06
-3.53222343478e-06
-3.52967515992e-06
-3.52752710529e-06
-3.52590637351e-06
-3.5248918555e-06
-3.52453866086e-06
-3.52486671967e-06
-3.52585813353e-06
-3.5274601117e-06
-3.52959567432e-06
-3.53213750096e-06
-3.53491083782e-06
-3.53842648196e-06
-3.52739683412e-06
-3.52269523885e-06
-3.51906351704e-06
-3.51576697843e-06
-3.51300642566e-06
-3.51093395792e-06
-3.50964288884e-06
-3.50919695863e-06
-3.50961900653e-06
-3.51088798096e-06
-3.51294210938e-06
-3.51568979707e-06
-3.51897918614e-06
-3.52260579859e-06
-3.5273102053e-06
-3.51456180391e-06
-3.50854352966e-06
-3.50399398034e-06
-3.49990991374e-06
-3.49651399826e-06
-3.49397811443e-06
-3.49240567295e-06
-3.49186581911e-06
-3.49238324763e-06
-3.49393484208e-06
-3.49645315615e-06
-3.49983622931e-06
-3.50391279824e-06
-3.50845626679e-06
-3.51447792047e-06
-3.50034790544e-06
-3.49297192517e-06
-3.4875031234e-06
-3.48264912504e-06
-3.47864154748e-06
-3.47566489823e-06
-3.47382732448e-06
-3.47319948989e-06
-3.47380662046e-06
-3.47562485588e-06
-3.47858494874e-06
-3.48258000478e-06
-3.48742616881e-06
-3.49288839787e-06
-3.50026753328e-06
-3.48512121575e-06
-3.47642801756e-06
-3.47008999799e-06
-3.46452996429e-06
-3.45997080294e-06
-3.45660217383e-06
-3.45453141506e-06
-3.45382675296e-06
-3.45451254423e-06
-3.45656561194e-06
-3.45991889585e-06
-3.46446617308e-06
-3.47001829027e-06
-3.47634938726e-06
-3.4850458405e-06
-3.46924380781e-06
-3.45934251914e-06
-3.45222631113e-06
-3.44605800756e-06
-3.44103283868e-06
-3.43733873371e-06
-3.43507707653e-06
-3.43431011455e-06
-3.43506008324e-06
-3.43730575212e-06
-3.44098583866e-06
-3.44599989072e-06
-3.45216039126e-06
-3.45926954303e-06
-3.46917412279e-06
-3.4530507994e-06
-3.44210680332e-06
-3.4343350279e-06
-3.4276779263e-06
-3.42228793096e-06
-3.41834502119e-06
-3.41594045469e-06
-3.41512747865e-06
-3.41592525504e-06
-3.41831546633e-06
-3.42224570505e-06
-3.42762552144e-06
-3.43427516025e-06
-3.44203998662e-06
-3.45298773438e-06
-3.43685297415e-06
-3.42507347177e-06
-3.41678770739e-06
-3.40976896768e-06
-3.40412065928e-06
-3.40000899797e-06
-3.39751105126e-06
-3.39666887134e-06
-3.3974974312e-06
-3.39998251909e-06
-3.40408271551e-06
-3.40972181036e-06
-3.41673360317e-06
-3.4250129658e-06
-3.43679675271e-06
-3.42094771357e-06
-3.40854439175e-06
-3.39988657146e-06
-3.39263298624e-06
-3.38683442915e-06
-3.38263525706e-06
-3.38009394963e-06
-3.37923921283e-06
-3.38008163989e-06
-3.38261117457e-06
-3.38679998571e-06
-3.39259012237e-06
-3.39983745266e-06
-3.40848957936e-06
-3.42089801481e-06
-3.4053737818e-06
-3.3925339427e-06
-3.38373433146e-06
-3.37641858815e-06
-3.37061835859e-06
-3.36644065764e-06
-3.36392118426e-06
-3.36307568194e-06
-3.36390979365e-06
-3.36641841571e-06
-3.37058640156e-06
-3.37637902092e-06
-3.38368897811e-06
-3.39248425483e-06
-3.40532973526e-06
-3.38894638387e-06
-3.37704063569e-06
-3.36846721075e-06
-3.36132397538e-06
-3.35572887944e-06
-3.3517207794e-06
-3.34931062081e-06
-3.34850299218e-06
-3.34930003821e-06
-3.35169991083e-06
-3.35569882405e-06
-3.36128655739e-06
-3.36842486017e-06
-3.37699531212e-06
-3.38890577338e-06
-2.14627808351e-06
-2.14646875764e-06
-2.14670518151e-06
-2.14698821463e-06
-2.14725567497e-06
-2.14747776491e-06
-2.1476261372e-06
-2.14768069153e-06
-2.14763273763e-06
-2.14748955582e-06
-2.14726997166e-06
-2.14700326888e-06
-2.14672823191e-06
-2.14649568695e-06
-2.14631547754e-06
-2.1454921884e-06
-2.14565013414e-06
-2.14586147495e-06
-2.1461198833e-06
-2.14636842161e-06
-2.14657649587e-06
-2.14671643922e-06
-2.14676830949e-06
-2.1467234649e-06
-2.14658920101e-06
-2.14638413725e-06
-2.146136919e-06
-2.14588547589e-06
-2.14567940809e-06
-2.14553094355e-06
-2.14444945672e-06
-2.14456470536e-06
-2.14473714052e-06
-2.14496159408e-06
-2.14518369889e-06
-2.14537211297e-06
-2.14549979074e-06
-2.14554736637e-06
-2.14550650324e-06
-2.1453843871e-06
-2.14519928851e-06
-2.1449790696e-06
-2.14476066189e-06
-2.14459383074e-06
-2.14448771598e-06
-2.1436800975e-06
-2.14377643746e-06
-2.14392760369e-06
-2.14413405498e-06
-2.14434232257e-06
-2.14452021628e-06
-2.14464099936e-06
-2.14468595833e-06
-2.14464718263e-06
-2.1445316896e-06
-2.14435741431e-06
-2.14415154571e-06
-2.14395039033e-06
-2.14380425475e-06
-2.14371795497e-06
-2.14314908034e-06
-2.1432329938e-06
-2.14336851148e-06
-2.14355992388e-06
-2.14375498122e-06
-2.14392202692e-06
-2.14403552637e-06
-2.14407775476e-06
-2.14404128098e-06
-2.14393281026e-06
-2.14376947307e-06
-2.1435771415e-06
-2.14339072515e-06
-2.14325956787e-06
-2.14318640406e-06
-2.14273279246e-06
-2.14279039697e-06
-2.14290141443e-06
-2.14306624164e-06
-2.14323706423e-06
-2.14338433881e-06
-2.14348473085e-06
-2.14352221846e-06
-2.14349008081e-06
-2.14339447292e-06
-2.14325098834e-06
-2.14308314163e-06
-2.14292294133e-06
-2.14281627816e-06
-2.14276909048e-06
-2.14233664614e-06
-2.14234239878e-06
-2.14241037637e-06
-2.14252979038e-06
-2.14265952614e-06
-2.14277394177e-06
-2.14285300375e-06
-2.14288297831e-06
-2.14285804647e-06
-2.14278354642e-06
-2.14267293068e-06
-2.14254635963e-06
-2.14243129547e-06
-2.14236765258e-06
-2.14237228788e-06
-2.14188690876e-06
-2.14180822756e-06
-2.14181060171e-06
-2.14186365919e-06
-2.1419343868e-06
-2.14200253011e-06
-2.14205198122e-06
-2.14207167364e-06
-2.14205677421e-06
-2.14201172113e-06
-2.1419474294e-06
-2.14188009099e-06
-2.14183124118e-06
-2.1418330959e-06
-2.14192238356e-06
-2.14132608065e-06
-2.1411290148e-06
-2.14104395733e-06
-2.14101210051e-06
-2.14100849391e-06
-2.14101925041e-06
-2.1410323999e-06
-2.14103960114e-06
-2.14103701676e-06
-2.14102817073e-06
-2.1410213159e-06
-2.1410285348e-06
-2.1410646283e-06
-2.14115385754e-06
-2.14136159723e-06
-2.1406144868e-06
-2.14027000668e-06
-2.14008013631e-06
-2.13995041027e-06
-2.13986253319e-06
-2.13980911737e-06
-2.13978201549e-06
-2.13977545795e-06
-2.1397865466e-06
-2.13981792573e-06
-2.13987536263e-06
-2.13996711489e-06
-2.14010118518e-06
-2.14029530149e-06
-2.14065039297e-06
-2.13973148087e-06
-2.13922029848e-06
-2.13891539386e-06
-2.1386823512e-06
-2.13850689548e-06
-2.13838749389e-06
-2.13831935352e-06
-2.13829880144e-06
-2.13832385641e-06
-2.13839629299e-06
-2.13851983967e-06
-2.13869945261e-06
-2.13893698005e-06
-2.13924626117e-06
-2.13976804524e-06
-2.13867826189e-06
-2.13799230973e-06
-2.13756964202e-06
-2.13723505921e-06
-2.13697491651e-06
-2.13679236245e-06
-2.13668506675e-06
-2.13665127157e-06
-2.13668956297e-06
-2.13680121385e-06
-2.13698805654e-06
-2.13725258949e-06
-2.13759183968e-06
-2.13801892513e-06
-2.13871535093e-06
-2.13747431872e-06
-2.13661064229e-06
-2.13607448731e-06
-2.13564828208e-06
-2.13531281128e-06
-2.13507392049e-06
-2.13493187477e-06
-2.13488614992e-06
-2.13493637382e-06
-2.13508280182e-06
-2.13532604923e-06
-2.13566615075e-06
-2.13609714967e-06
-2.13663785104e-06
-2.13751189119e-06
-2.13604757395e-06
-2.1350161029e-06
-2.13442161963e-06
-2.13394180472e-06
-2.133559436e-06
-2.13328375686e-06
-2.13311806049e-06
-2.13306435737e-06
-2.13312255335e-06
-2.1332925362e-06
-2.13357267943e-06
-2.13395973538e-06
-2.13444447657e-06
-2.13504376913e-06
-2.13608499513e-06
-2.1338713137e-06
-2.13319290507e-06
-2.13266974409e-06
-2.13220841993e-06
-2.13182953375e-06
-2.13155036838e-06
-2.13138083855e-06
-2.13132547068e-06
-2.131385279e-06
-2.13155914088e-06
-2.13184264874e-06
-2.13222633465e-06
-2.13269284553e-06
-2.13322151189e-06
-2.13390847858e-06
-3.33125502074e-06
-3.33102366491e-06
-3.33073275263e-06
-3.33043474078e-06
-3.33016447855e-06
-3.32994983891e-06
-3.32981110684e-06
-3.32976049755e-06
-3.3298030118e-06
-3.32993487518e-06
-3.33014553351e-06
-3.3304173975e-06
-3.33072024095e-06
-3.33102177341e-06
-3.33125630058e-06
-3.33083409998e-06
-3.33059846488e-06
-3.33029931615e-06
-3.329994981e-06
-3.32971681528e-06
-3.32949508944e-06
-3.32935125051e-06
-3.3292986088e-06
-3.32934263211e-06
-3.32947915439e-06
-3.32969667128e-06
-3.32997639331e-06
-3.33028669896e-06
-3.33059607187e-06
-3.33083723895e-06
-3.3305678481e-06
-3.33033839407e-06
-3.33004056377e-06
-3.32973956178e-06
-3.32946200957e-06
-3.32924046498e-06
-3.32909651928e-06
-3.32904401e-06
-3.32908853474e-06
-3.3292257163e-06
-3.32944339199e-06
-3.32972208367e-06
-3.33002896772e-06
-3.33033523952e-06
-3.33057131719e-06
-3.33035060378e-06
-3.33012524116e-06
-3.32982754051e-06
-3.32952987614e-06
-3.3292542231e-06
-3.32903422211e-06
-3.32889128888e-06
-3.32883943227e-06
-3.32888423962e-06
-3.32902124439e-06
-3.32923792075e-06
-3.32951450765e-06
-3.32981739809e-06
-3.33012241033e-06
-3.33035425503e-06
-3.33014509332e-06
-3.32992298051e-06
-3.3296238546e-06
-3.32932944587e-06
-3.32905641563e-06
-3.3288385389e-06
-3.32869713509e-06
-3.32864605842e-06
-3.32869091715e-06
-3.3288271414e-06
-3.32904210754e-06
-3.32931602347e-06
-3.32961491311e-06
-3.3299207419e-06
-3.33014896784e-06
-3.32995795786e-06
-3.32974008495e-06
-3.32943744113e-06
-3.3291466311e-06
-3.32887663921e-06
-3.32866150564e-06
-3.3285220437e-06
-3.32847196494e-06
-3.32851673411e-06
-3.32865180831e-06
-3.32886456961e-06
-3.32913539364e-06
-3.32943023238e-06
-3.32973823821e-06
-3.32996287235e-06
-3.32979063247e-06
-3.32957424161e-06
-3.32926548015e-06
-3.32897655634e-06
-3.32870839287e-06
-3.32849513823e-06
-3.3283571382e-06
-3.32830789622e-06
-3.32835270717e-06
-3.32848706524e-06
-3.32869843576e-06
-3.32896738107e-06
-3.32925998101e-06
-3.329572978e-06
-3.32979632883e-06
-3.32963283365e-06
-3.329411154e-06
-3.32909161475e-06
-3.32880018301e-06
-3.32853077513e-06
-3.32831713026e-06
-3.32817930235e-06
-3.32813045189e-06
-3.32817575578e-06
-3.32831071425e-06
-3.32852293525e-06
-3.32879311162e-06
-3.32908764268e-06
-3.32941065731e-06
-3.32963884508e-06
-3.32946843591e-06
-3.32923175461e-06
-3.32889481486e-06
-3.32859518186e-06
-3.32832028422e-06
-3.3281031843e-06
-3.32796367745e-06
-3.32791458321e-06
-3.32796093616e-06
-3.32809826845e-06
-3.32831435461e-06
-3.32859001333e-06
-3.32889223429e-06
-3.32923195411e-06
-3.32947495224e-06
-3.32928073917e-06
-3.32901609063e-06
-3.32865466039e-06
-3.32834095884e-06
-3.32805642216e-06
-3.32783306136e-06
-3.32769021642e-06
-3.32764033731e-06
-3.32768821513e-06
-3.32782950209e-06
-3.32805222943e-06
-3.32833747306e-06
-3.32865328892e-06
-3.32901681619e-06
-3.32928761528e-06
-3.32905283937e-06
-3.32874584141e-06
-3.32835430041e-06
-3.32802226429e-06
-3.32772552222e-06
-3.32749422446e-06
-3.32734716539e-06
-3.32729615552e-06
-3.32734577456e-06
-3.32749179875e-06
-3.32772276015e-06
-3.3280202376e-06
-3.32835401504e-06
-3.32874720961e-06
-3.32906027401e-06
-3.32877316477e-06
-3.32840913774e-06
-3.32798402935e-06
-3.32763185449e-06
-3.32732225329e-06
-3.32708297444e-06
-3.32693168913e-06
-3.32687958864e-06
-3.32693077024e-06
-3.32708141273e-06
-3.32732063131e-06
-3.32763095615e-06
-3.32798467001e-06
-3.32841122076e-06
-3.32878136006e-06
-3.32843607545e-06
-3.32799930644e-06
-3.32753993158e-06
-3.32716914504e-06
-3.32684838317e-06
-3.32660229777e-06
-3.32644778596e-06
-3.32639474571e-06
-3.32644719441e-06
-3.32660137649e-06
-3.3268475099e-06
-3.32716911013e-06
-3.32754129497e-06
-3.32800211249e-06
-3.32844499457e-06
-3.32797081471e-06
-3.32745280958e-06
-3.3269904576e-06
-3.32662060672e-06
-3.32630178651e-06
-3.3260582741e-06
-3.32590580994e-06
-3.32585382969e-06
-3.32590545925e-06
-3.32605765541e-06
-3.32630141525e-06
-3.32662103184e-06
-3.3269923394e-06
-3.32745641093e-06
-3.32798063147e-06
-3.32693560904e-06
-3.32661606557e-06
-3.32626637351e-06
-3.32596988525e-06
-3.32570451039e-06
-3.32549948032e-06
-3.32537084368e-06
-3.32532689336e-06
-3.32537057978e-06
-3.32549912207e-06
-3.32570433296e-06
-3.32597060958e-06
-3.32626870964e-06
-3.32662070467e-06
-3.32694570238e-06
-2.96565093733e-06
-2.96572733533e-06
-2.96579617736e-06
-2.96588268515e-06
-2.96595869081e-06
-2.96602044378e-06
-2.96606282421e-06
-2.96607989998e-06
-2.96606844498e-06
-2.9660300874e-06
-2.96596936928e-06
-2.9658945323e-06
-2.96581302748e-06
-2.96574514076e-06
-2.96567826422e-06
-2.9653736818e-06
-2.96543779094e-06
-2.96549928148e-06
-2.96557887139e-06
-2.96564977177e-06
-2.96570836278e-06
-2.96574887378e-06
-2.96576535411e-06
-2.96575460663e-06
-2.96571827895e-06
-2.96566100447e-06
-2.96559113737e-06
-2.96551616091e-06
-2.9654570161e-06
-2.96540171709e-06
-2.96500463208e-06
-2.96505329762e-06
-2.96510140169e-06
-2.96517049587e-06
-2.9652340517e-06
-2.96528792025e-06
-2.96532548296e-06
-2.96534087447e-06
-2.96533104834e-06
-2.9652977353e-06
-2.96524564854e-06
-2.96518336413e-06
-2.9651180511e-06
-2.96507269106e-06
-2.9650318881e-06
-2.96470556525e-06
-2.96474794524e-06
-2.96478731255e-06
-2.9648512663e-06
-2.9649117265e-06
-2.96496415949e-06
-2.96500074594e-06
-2.96501567225e-06
-2.96500606607e-06
-2.96497375874e-06
-2.96492364564e-06
-2.96486465134e-06
-2.96480377529e-06
-2.96476672461e-06
-2.96473215656e-06
-2.96447688206e-06
-2.96451939518e-06
-2.96455408863e-06
-2.96461708913e-06
-2.96467750068e-06
-2.96473044815e-06
-2.96476733465e-06
-2.96478225903e-06
-2.96477243333e-06
-2.9647397782e-06
-2.96468941728e-06
-2.9646306282e-06
-2.9645703454e-06
-2.96453735333e-06
-2.96450284873e-06
-2.96429855815e-06
-2.96434330125e-06
-2.96437591892e-06
-2.96443968189e-06
-2.96450127028e-06
-2.9645554996e-06
-2.96459311066e-06
-2.96460816507e-06
-2.96459794799e-06
-2.96456446225e-06
-2.9645130219e-06
-2.9644531708e-06
-2.96439179875e-06
-2.96436094268e-06
-2.96432339956e-06
-2.96415797514e-06
-2.9642060968e-06
-2.96423682677e-06
-2.96430135247e-06
-2.96436391514e-06
-2.96441897755e-06
-2.96445701738e-06
-2.96447209355e-06
-2.96446157848e-06
-2.96442749921e-06
-2.96437528525e-06
-2.96431456573e-06
-2.96425214961e-06
-2.96422328492e-06
-2.96418198132e-06
-2.96404494429e-06
-2.96409497627e-06
-2.96412208162e-06
-2.96418579797e-06
-2.96424775967e-06
-2.96430223062e-06
-2.9643397439e-06
-2.96435450376e-06
-2.96434401478e-06
-2.96431027386e-06
-2.96425868624e-06
-2.96419871807e-06
-2.96413702092e-06
-2.96411177711e-06
-2.96406853775e-06
-2.96394804546e-06
-2.9639954729e-06
-2.96401562191e-06
-2.9640753357e-06
-2.96413376208e-06
-2.9641852062e-06
-2.96422064667e-06
-2.96423455647e-06
-2.96422463219e-06
-2.96419276796e-06
-2.96414417833e-06
-2.9640878704e-06
-2.96403022527e-06
-2.96401195809e-06
-2.96397124548e-06
-2.96385411555e-06
-2.96389181831e-06
-2.96390058409e-06
-2.96395202907e-06
-2.96400322155e-06
-2.96404866184e-06
-2.96408008331e-06
-2.96409249803e-06
-2.96408380855e-06
-2.96405577236e-06
-2.96401318476e-06
-2.96396426285e-06
-2.96391501012e-06
-2.96390825826e-06
-2.96387702019e-06
-2.96374977767e-06
-2.96376903755e-06
-2.96376162607e-06
-2.96380033797e-06
-2.96384043871e-06
-2.96387668675e-06
-2.96390209018e-06
-2.96391229129e-06
-2.96390558082e-06
-2.96388340748e-06
-2.96384997022e-06
-2.96381230484e-06
-2.96377589234e-06
-2.96378549099e-06
-2.96377245031e-06
-2.9636241728e-06
-2.96361516236e-06
-2.96358721724e-06
-2.96360940133e-06
-2.96363476918e-06
-2.96365894192e-06
-2.9636763052e-06
-2.96368369251e-06
-2.96367960563e-06
-2.96366532804e-06
-2.9636440087e-06
-2.96362114315e-06
-2.96360140273e-06
-2.96363153494e-06
-2.96364644619e-06
-2.96346649697e-06
-2.96341969953e-06
-2.96336943821e-06
-2.96337315846e-06
-2.9633813289e-06
-2.96339070017e-06
-2.96339849055e-06
-2.96340231043e-06
-2.96340163044e-06
-2.96339690212e-06
-2.96339025714e-06
-2.96338481444e-06
-2.96338353504e-06
-2.96343603742e-06
-2.96348832688e-06
-2.96322413323e-06
-2.9631368403e-06
-2.9630835573e-06
-2.96307867477e-06
-2.96307393384e-06
-2.96307137347e-06
-2.96307062618e-06
-2.96307160061e-06
-2.96307371258e-06
-2.9630773198e-06
-2.96308278549e-06
-2.96309013008e-06
-2.9630976715e-06
-2.96315317059e-06
-2.96324525068e-06
-2.96266443595e-06
-2.96269764984e-06
-2.96270621637e-06
-2.96272731911e-06
-2.9627329654e-06
-2.9627341991e-06
-2.96273489506e-06
-2.96273603101e-06
-2.96273791741e-06
-2.96274019972e-06
-2.96274175053e-06
-2.96273899577e-06
-2.96272063306e-06
-2.96271482176e-06
-2.96268531863e-06
-3.35487302472e-06
-3.35479676396e-06
-3.35470298878e-06
-3.35460494738e-06
-3.35451493727e-06
-3.35444257742e-06
-3.35439454277e-06
-3.35437546499e-06
-3.35438746759e-06
-3.35442939737e-06
-3.35449768491e-06
-3.35458646006e-06
-3.35468528351e-06
-3.35478426728e-06
-3.35486036155e-06
-3.35466599882e-06
-3.35458707817e-06
-3.35448864746e-06
-3.35438759811e-06
-3.35429433108e-06
-3.35421912442e-06
-3.35416905e-06
-3.35414910825e-06
-3.35416155428e-06
-3.35420516006e-06
-3.35427610853e-06
-3.35436822094e-06
-3.35447068466e-06
-3.35457402557e-06
-3.35465479872e-06
-3.35449881669e-06
-3.3544193012e-06
-3.35431791662e-06
-3.35421618966e-06
-3.35412180134e-06
-3.35404596216e-06
-3.35399560227e-06
-3.35397576264e-06
-3.35398864043e-06
-3.35403298258e-06
-3.35410481669e-06
-3.35419785822e-06
-3.35430093803e-06
-3.35440572802e-06
-3.35448798542e-06
-3.35435938554e-06
-3.35427829e-06
-3.35417437174e-06
-3.35407205838e-06
-3.35397719964e-06
-3.35390127481e-06
-3.35385106707e-06
-3.35383155931e-06
-3.35384483601e-06
-3.35388964558e-06
-3.35396194492e-06
-3.3540554528e-06
-3.35415874342e-06
-3.35426524205e-06
-3.35434871044e-06
-3.3542313824e-06
-3.35414856618e-06
-3.35404191805e-06
-3.35393889106e-06
-3.35384371824e-06
-3.35376779691e-06
-3.35371784312e-06
-3.35369865212e-06
-3.35371225714e-06
-3.35375737148e-06
-3.35382996419e-06
-3.3539238136e-06
-3.35402734503e-06
-3.35413618085e-06
-3.3542209898e-06
-3.35411296454e-06
-3.35402940092e-06
-3.35391916329e-06
-3.35381588351e-06
-3.35372070421e-06
-3.3536450978e-06
-3.35359556621e-06
-3.3535767663e-06
-3.35359061184e-06
-3.35363584007e-06
-3.35370846353e-06
-3.3538024002e-06
-3.35390603413e-06
-3.35401751337e-06
-3.35410359226e-06
-3.35400530725e-06
-3.35392050855e-06
-3.35380657019e-06
-3.35370309538e-06
-3.35360801934e-06
-3.35353286656e-06
-3.35348386419e-06
-3.35346548386e-06
-3.35347950714e-06
-3.35352470065e-06
-3.35359717553e-06
-3.35369103215e-06
-3.3537947473e-06
-3.35390919365e-06
-3.35399675128e-06
-3.35390697742e-06
-3.35381957965e-06
-3.35370170388e-06
-3.3535977105e-06
-3.3535027527e-06
-3.35342807223e-06
-3.35337964454e-06
-3.35336167588e-06
-3.35337584643e-06
-3.35342094e-06
-3.35349322647e-06
-3.35358701762e-06
-3.35369104122e-06
-3.35380900953e-06
-3.35389885745e-06
-3.3538146029e-06
-3.35372326442e-06
-3.35360071078e-06
-3.35349571897e-06
-3.35340066343e-06
-3.35332630733e-06
-3.35327837291e-06
-3.3532607654e-06
-3.3532750654e-06
-3.35332008099e-06
-3.35339226892e-06
-3.35348617873e-06
-3.35359098044e-06
-3.35371328875e-06
-3.35380709256e-06
-3.35372474644e-06
-3.35362684767e-06
-3.35349862586e-06
-3.35339211448e-06
-3.35329670108e-06
-3.35322253737e-06
-3.35317496926e-06
-3.35315767971e-06
-3.35317209252e-06
-3.35321708516e-06
-3.35328930297e-06
-3.35338355257e-06
-3.35348967274e-06
-3.35361732226e-06
-3.35371768466e-06
-3.35363233064e-06
-3.35352438444e-06
-3.35338978781e-06
-3.35328146146e-06
-3.35318568409e-06
-3.3531115947e-06
-3.35306434864e-06
-3.35304729749e-06
-3.35306180947e-06
-3.35310677334e-06
-3.35317905571e-06
-3.35327370765e-06
-3.35338146988e-06
-3.35351534011e-06
-3.35362586476e-06
-3.35353288005e-06
-3.35341038602e-06
-3.35326894621e-06
-3.35315893491e-06
-3.35306279953e-06
-3.35298886799e-06
-3.3529418207e-06
-3.35292500922e-06
-3.35293954944e-06
-3.35298449869e-06
-3.35305681921e-06
-3.35315178235e-06
-3.35326117617e-06
-3.35340186656e-06
-3.35352712317e-06
-3.35342135999e-06
-3.3532789783e-06
-3.35313113673e-06
-3.35302012312e-06
-3.35292405046e-06
-3.35284998325e-06
-3.35280319599e-06
-3.35278641486e-06
-3.35280108644e-06
-3.3528460317e-06
-3.35291844159e-06
-3.35301352546e-06
-3.35312380871e-06
-3.35327101405e-06
-3.35341626914e-06
-3.35325874112e-06
-3.35309457151e-06
-3.35295504438e-06
-3.35285178685e-06
-3.35276054054e-06
-3.3526900593e-06
-3.352645225e-06
-3.35262934616e-06
-3.35264329989e-06
-3.35268624881e-06
-3.35275534192e-06
-3.35284544576e-06
-3.35294817381e-06
-3.35308723963e-06
-3.35325458177e-06
-3.35283969855e-06
-3.35277070616e-06
-3.35269509493e-06
-3.35263334743e-06
-3.35257174035e-06
-3.35252216888e-06
-3.35249032225e-06
-3.35247874965e-06
-3.35248845581e-06
-3.35251863011e-06
-3.35256671943e-06
-3.35262740757e-06
-3.35268864003e-06
-3.35276425755e-06
-3.3528358156e-06
-3.31270276001e-06
-3.31270976916e-06
-3.31270226678e-06
-3.31270144927e-06
-3.3127027614e-06
-3.31270608044e-06
-3.31270896495e-06
-3.31271055831e-06
-3.31271032951e-06
-3.31270855092e-06
-3.31270585798e-06
-3.31270359092e-06
-3.31270191971e-06
-3.31270562752e-06
-3.31270520345e-06
-3.31254454178e-06
-3.31254549298e-06
-3.31253444142e-06
-3.31253034672e-06
-3.31252914848e-06
-3.31253068409e-06
-3.31253257947e-06
-3.31253387945e-06
-3.31253404617e-06
-3.31253335772e-06
-3.31253243727e-06
-3.31253265286e-06
-3.31253413439e-06
-3.31254204079e-06
-3.31254700681e-06
-3.312369606e-06
-3.31236464195e-06
-3.31234983442e-06
-3.31234285034e-06
-3.31233934501e-06
-3.31233916737e-06
-3.31234004501e-06
-3.31234099649e-06
-3.31234146105e-06
-3.31234170527e-06
-3.31234237594e-06
-3.3123449391e-06
-3.31234939952e-06
-3.31236193964e-06
-3.31237184823e-06
-3.31222935462e-06
-3.31222260908e-06
-3.31220545983e-06
-3.31219793744e-06
-3.3121937981e-06
-3.31219314831e-06
-3.3121937816e-06
-3.31219462314e-06
-3.31219507378e-06
-3.31219538967e-06
-3.31219629826e-06
-3.31219943225e-06
-3.31220475699e-06
-3.31221986858e-06
-3.31223158589e-06
-3.31211840375e-06
-3.31211231672e-06
-3.31209406523e-06
-3.31208743262e-06
-3.31208387323e-06
-3.31208371347e-06
-3.31208467816e-06
-3.31208558985e-06
-3.31208580656e-06
-3.31208561348e-06
-3.31208584293e-06
-3.31208832802e-06
-3.31209306452e-06
-3.31210927315e-06
-3.3121204461e-06
-3.31202950021e-06
-3.31202459715e-06
-3.31200651477e-06
-3.31200151013e-06
-3.31199919352e-06
-3.31199999152e-06
-3.31200156011e-06
-3.31200261413e-06
-3.31200247226e-06
-3.31200145528e-06
-3.31200051457e-06
-3.31200168432e-06
-3.31200504918e-06
-3.31202156948e-06
-3.3120309047e-06
-3.31195805506e-06
-3.31195520177e-06
-3.31193753739e-06
-3.31193429208e-06
-3.31193350044e-06
-3.31193545294e-06
-3.3119377352e-06
-3.31193895117e-06
-3.31193841303e-06
-3.31193646271e-06
-3.3119342036e-06
-3.3119338334e-06
-3.31193557074e-06
-3.31195212394e-06
-3.31195908491e-06
-3.31190042123e-06
-3.31189960921e-06
-3.31188195809e-06
-3.3118803192e-06
-3.3118809364e-06
-3.31188390179e-06
-3.3118867815e-06
-3.31188811331e-06
-3.3118872102e-06
-3.31188444252e-06
-3.31188104097e-06
-3.31187933109e-06
-3.31187971184e-06
-3.31189655838e-06
-3.31190151718e-06
-3.31185284863e-06
-3.31185270481e-06
-3.31183424633e-06
-3.31183350797e-06
-3.31183498439e-06
-3.31183854707e-06
-3.31184175087e-06
-3.31184311777e-06
-3.31184195674e-06
-3.31183868934e-06
-3.3118346211e-06
-3.31183215594e-06
-3.31183191363e-06
-3.31184982181e-06
-3.31185407238e-06
-3.3118106299e-06
-3.31180877668e-06
-3.3117884168e-06
-3.31178757639e-06
-3.31178916621e-06
-3.31179269224e-06
-3.31179581813e-06
-3.31179707928e-06
-3.31179584416e-06
-3.31179252906e-06
-3.31178848101e-06
-3.31178608982e-06
-3.31178624978e-06
-3.31180635741e-06
-3.31181216846e-06
-3.31176893015e-06
-3.3117622809e-06
-3.31173871726e-06
-3.3117366893e-06
-3.31173748847e-06
-3.31174025665e-06
-3.31174282289e-06
-3.31174383915e-06
-3.31174274234e-06
-3.31173991573e-06
-3.31173667915e-06
-3.31173527003e-06
-3.31173687362e-06
-3.3117604428e-06
-3.31177087311e-06
-3.31172368618e-06
-3.31170833077e-06
-3.31168027438e-06
-3.31167611527e-06
-3.3116752117e-06
-3.31167636627e-06
-3.31167782325e-06
-3.31167841406e-06
-3.31167770075e-06
-3.31167601931e-06
-3.31167445804e-06
-3.3116749738e-06
-3.31167894315e-06
-3.31170707791e-06
-3.31172596254e-06
-3.31167020327e-06
-3.31164188064e-06
-3.31160895211e-06
-3.31160230294e-06
-3.31159874348e-06
-3.31159736494e-06
-3.31159698108e-06
-3.31159694344e-06
-3.31159692115e-06
-3.31159710288e-06
-3.31159825529e-06
-3.31160159193e-06
-3.31160822334e-06
-3.31164129681e-06
-3.31167279744e-06
-3.31158036612e-06
-3.31153765622e-06
-3.31151004076e-06
-3.31150606787e-06
-3.31150236253e-06
-3.31149968812e-06
-3.31149823858e-06
-3.31149779821e-06
-3.31149829212e-06
-3.31149969449e-06
-3.31150225935e-06
-3.31150596833e-06