/*--------------------------------*- C++ -*----------------------------------*\
  =========                 |
  \\      /  F ield         | OpenFOAM: The Open Source CFD Toolbox
   \\    /   O peration     | Website:  https://openfoam.org
    \\  /    A nd           | Version:  7
     \\/     M anipulation  |
\*---------------------------------------------------------------------------*/
FoamFile
{
    version     2.0;
    format      ascii;
    class       volVectorField;
    location    "1.68";
    object      U;
}
// * * * * * * * * * * * * * * * * * * * * * * * * * * * * * * * * * * * * * //

dimensions      [0 1 -1 0 0 0 0];

internalField   nonuniform List<vector> 
22500
(
(-3.80302665247e-05 -4.28546024169e-05 0.000251945613108)
(-3.50717505786e-05 -4.92103175191e-05 0.000265456051582)
(-3.09650935093e-05 -5.52872281011e-05 0.000278415288473)
(-2.58855183818e-05 -6.06135612678e-05 0.000290017749473)
(-2.00502279606e-05 -6.49529800867e-05 0.000299696679781)
(-1.36843234739e-05 -6.81450279257e-05 0.000306955524198)
(-6.9672468393e-06 -7.00979182616e-05 0.000311433413288)
(-6.87928665408e-08 -7.07603659775e-05 0.000312930632556)
(6.83035104629e-06 -7.01117089001e-05 0.000311402557235)
(1.35495131087e-05 -6.81724275659e-05 0.000306892379049)
(1.99186513714e-05 -6.49937453658e-05 0.000299598951176)
(2.57585185983e-05 -6.06670106849e-05 0.000289881278745)
(3.08450232346e-05 -5.53525618033e-05 0.00027823172219)
(3.49600692588e-05 -4.92861982421e-05 0.00026521085565)
(3.7937838197e-05 -4.29326057533e-05 0.000251625998116)
(-0.000114587722971 -0.000128197714461 0.000227642542961)
(-0.000105416998797 -0.000147061593543 0.00021328375915)
(-9.3091429832e-05 -0.000165041763758 0.000199586809857)
(-7.78939598723e-05 -0.000180709484181 0.000187351373812)
(-6.04122543261e-05 -0.00019344648427 0.000177157767934)
(-4.12631311526e-05 -0.000202821886581 0.000169429228804)
(-2.0997741367e-05 -0.000208565113776 0.000164545638703)
(-1.58353915993e-07 -0.000210513960851 0.00016282145985)
(2.06821716528e-05 -0.000208606656946 0.000164455024095)
(4.09506741803e-05 -0.000202904479727 0.000169243417572)
(6.0103830633e-05 -0.000193569083413 0.000176869655346)
(7.75900074601e-05 -0.000180869621394 0.000186948233641)
(9.27949715651e-05 -0.00016523673881 0.000199043529849)
(0.000105133185452 -0.00014728705252 0.00021255673761)
(0.00011434342549 -0.000128432331358 0.00022669133297)
(-0.000189194108726 -0.000210393463217 -0.000285103135493)
(-0.000173400954652 -0.00024080423119 -0.000366050533702)
(-0.000152937132571 -0.000269307371362 -0.000441389875243)
(-0.000127920979424 -0.000293987621841 -0.000507227119872)
(-9.92391580226e-05 -0.000313982650132 -0.000561055394375)
(-6.78031372527e-05 -0.000328689140657 -0.000601020876993)
(-3.44997262263e-05 -0.000337697584943 -0.000625696926061)
(-2.3406097067e-07 -0.000340751591625 -0.000634115301708)
(3.40336410416e-05 -0.000337754032717 -0.000625820017091)
(6.734303197e-05 -0.000328801260898 -0.000601275574829)
(9.87884885842e-05 -0.000314148524557 -0.000561454801854)
(0.000127483015413 -0.000294203575801 -0.000507794017859)
(0.000152517631111 -0.000269568149947 -0.000442166784518)
(0.000173008809477 -0.000241103361378 -0.000367111202027)
(0.000188860368701 -0.000210706072741 -0.000286523765083)
(-0.000256303897882 -0.00028384465647 -0.00110931122963)
(-0.000234015542086 -0.000323447115599 -0.00126038687877)
(-0.000205878683731 -0.000359863626924 -0.00139676298612)
(-0.000171923564822 -0.000391214327288 -0.0015131415771)
(-0.000133262740641 -0.000416525236359 -0.0016064778016)
(-9.09966170207e-05 -0.00043512246932 -0.00167470864872)
(-4.62628162726e-05 -0.000446510450055 -0.00171634227071)
(-2.54198708319e-07 -0.000450367302892 -0.00173041381812)
(4.57561763897e-05 -0.000446571527608 -0.00171647708449)
(9.04952324825e-05 -0.00043524400509 -0.00167498994681)
(0.000132770072656 -0.000416705395583 -0.00160692343315)
(0.000171443276759 -0.000391449527017 -0.00151378215481)
(0.000205416880689 -0.000360148150414 -0.00139765392284)
(0.000233582956035 -0.000323774310928 -0.00126162564262)
(0.000255930889459 -0.000284191367523 -0.00111101145938)
(-0.000312882107014 -0.000345683076489 -0.00204352488348)
(-0.000284707612796 -0.00039166407253 -0.00224305644883)
(-0.00024971871362 -0.000433224067892 -0.0024174555047)
(-0.000208088041611 -0.000468847064598 -0.0025628349608)
(-0.000161073371793 -0.000497540978055 -0.00267733360441)
(-0.000109880741079 -0.000518615844718 -0.00275988984627)
(-5.58085953392e-05 -0.000531520992674 -0.00280977765761)
(-2.4550047821e-07 -0.000535888480878 -0.00282653458243)
(5.53188146651e-05 -0.000531580119715 -0.00280991272602)
(0.000109394675127 -0.000518733693742 -0.0027601733218)
(0.000160593710597 -0.000497716034696 -0.0026777858417)
(0.000207617884374 -0.000469076295721 -0.00256349066364)
(0.000249263371826 -0.000433502430425 -0.00241837662568)
(0.000284277950601 -0.000391985688053 -0.00224435423548)
(0.00031250523545 -0.000346029897912 -0.00204534274932)
(-0.000358359627083 -0.000395542763233 -0.00294236502941)
(-0.000325164829525 -0.000445286766329 -0.00316331958125)
(-0.00028432998134 -0.000489668443017 -0.00335089593287)
(-0.000236406296724 -0.000527589593279 -0.00350424622595)
(-0.000182713860063 -0.000558106088204 -0.00362333395039)
(-0.000124509337293 -0.000580527537418 -0.00370833314729)
(-6.31792773945e-05 -0.000594262656833 -0.00375934537125)
(-2.28189597873e-07 -0.000598909297974 -0.0037764107033)
(6.2723766932e-05 -0.000594317595809 -0.00375947831747)
(0.000124056535361 -0.000580637061009 -0.00370861271539)
(0.000182265860881 -0.000558268791518 -0.00362378093725)
(0.000235965560264 -0.000527802764022 -0.00350489592367)
(0.000283900761925 -0.000489927689546 -0.00335181107792)
(0.000324757203749 -0.00044558700301 -0.0031646159715)
(0.000357996708437 -0.000395871643742 -0.00294420404514)
(-0.000393465792405 -0.000434259750856 -0.00373551877222)
(-0.000356161949231 -0.000485538013662 -0.00395805103023)
(-0.000310517363001 -0.000530927337066 -0.00414278473804)
(-0.000257635081929 -0.000569603209026 -0.00429187049449)
(-0.000198819463504 -0.000600729824642 -0.00440669613915)
(-0.000135340107741 -0.000623618647389 -0.00448820912755)
(-6.86182357624e-05 -0.000637648936315 -0.00453695660754)
(-2.13065112281e-07 -0.000642394990914 -0.00455323156315)
(6.81928695091e-05 -0.000637699725726 -0.00453708955786)
(0.000134917174744 -0.000623719759163 -0.00448848834873)
(0.000198400853513 -0.000600879733684 -0.00440714166006)
(0.000257222891747 -0.00056979919342 -0.00429251601375)
(0.000310114973461 -0.000531165307146 -0.00414369019901)
(0.00035577846732 -0.000485813354277 -0.00395933099329)
(0.000393120939869 -0.000434564726916 -0.0037373422673)
(-0.000419394404373 -0.000463047734513 -0.00440773042485)
(-0.000378816349966 -0.000513984181896 -0.00462173966242)
(-0.000329336861183 -0.00055893300242 -0.00479696177348)
(-0.000272704735783 -0.000597121223823 -0.00493758547168)
(-0.000210142452842 -0.000627878631454 -0.00504563884135)
(-0.000142901536096 -0.000650520708304 -0.00512226052191)
(-7.23993479265e-05 -0.000664409710302 -0.0051680534157)
(-2.03878391824e-07 -0.000669108321486 -0.00518333612532)
(7.19924112474e-05 -0.000664457078635 -0.00516818972439)
(0.000142497226257 -0.000650614811936 -0.00512254590225)
(0.000209742756084 -0.000628017745607 -0.005046092109)
(0.000272311688397 -0.000597302429426 -0.00493823782339)
(0.000328953358393 -0.000559152241004 -0.00479786887596)
(0.00037845063909 -0.000514236967542 -0.00462301253678)
(0.000419063918254 -0.000463329478848 -0.00440953900235)
(-0.000437336535328 -0.000483081718866 -0.00497140025819)
(-0.000394202359521 -0.000532064034842 -0.0051738890815)
(-0.000341771627246 -0.000575338450963 -0.00533876654059)
(-0.000282456931918 -0.000611984100646 -0.0054711813625)
(-0.00021734993366 -0.000641537114017 -0.00557312243664)
(-0.000147655232741 -0.000663320100418 -0.00564552922497)
(-7.47585101818e-05 -0.000676691435165 -0.00568884723272)
(-2.00818298581e-07 -0.000681215568944 -0.00570331155599)
(7.43578156e-05 -0.000676736073827 -0.00568899002712)
(0.000147257553459 -0.000663408612988 -0.00564582706432)
(0.000216957513945 -0.000641667594986 -0.00557359294164)
(0.000282071964405 -0.000612153432977 -0.0054718530924)
(0.00034139685771 -0.000575542492994 -0.00533969064391)
(0.000393845380503 -0.000532298416723 -0.00517517302214)
(0.000437013481139 -0.000483343430129 -0.00497321154101)
(-0.00044829256742 -0.000495343042273 -0.00544722061819)
(-0.000403211254333 -0.000540946870384 -0.00563882814798)
(-0.000348631552133 -0.000581427520661 -0.00579498761923)
(-0.000287576660173 -0.000615601602468 -0.00592098230645)
(-0.000220977653705 -0.000643215364678 -0.00601834571692)
(-0.000149967624447 -0.000663597929363 -0.00608766765943)
(-7.58811420222e-05 -0.000676116711531 -0.00612919526845)
(-2.02847188115e-07 -0.000680352886846 -0.00614307164315)
(7.54765159008e-05 -0.000676159038601 -0.00612934709105)
(0.000149566428591 -0.000663681755629 -0.00608798320234)
(0.000220582445486 -0.0006433387016 -0.00601884165194)
(0.00028718991972 -0.000615761247841 -0.00592168475534)
(0.000348256115594 -0.000581619294618 -0.00579594339688)
(0.000402854301805 -0.000541166591569 -0.00564014209269)
(0.000447969502927 -0.000495588278396 -0.00544905721363)
(-0.000453052255744 -0.000500617668998 -0.00585452921604)
(-0.000406551705402 -0.000541546937241 -0.00603709906558)
(-0.000350570663995 -0.000578185881462 -0.00618664798015)
(-0.000288616870303 -0.000609069459675 -0.00630802509083)
(-0.000221452767052 -0.000634097552081 -0.00640213273497)
(-0.000150127415508 -0.000652597961981 -0.00646924409849)
(-7.59120959732e-05 -0.000663963023307 -0.00650947581616)
(-2.08767400888e-07 -0.000667808579069 -0.0065229252527)
(7.549572935e-05 -0.000664003147287 -0.00650963864291)
(0.000149714824003 -0.000652677395929 -0.00646958152572)
(0.000221046820524 -0.000634214365508 -0.00640266087459)
(0.000288220400209 -0.000609220537327 -0.00630876794671)
(0.000350186763648 -0.000578367146064 -0.00618764809248)
(0.000406187268054 -0.000541754568146 -0.00603845936513)
(0.000452722288946 -0.000500849264905 -0.00585641284586)
(-0.000452227457472 -0.000499524975573 -0.00620804677282)
(-0.000404808196544 -0.000534571649664 -0.00638346686575)
(-0.000348148023928 -0.000566412901093 -0.0065282196063)
(-0.000286046763841 -0.000593315623601 -0.00664626162738)
(-0.000219128254759 -0.000615200028853 -0.00673789672572)
(-0.000148368461318 -0.000631387671028 -0.00680324201501)
(-7.49674661849e-05 -0.000641324617386 -0.00684240297281)
(-2.17564081919e-07 -0.000644685361713 -0.0068554948935)
(7.45335643749e-05 -0.000641362355587 -0.00684257824726)
(0.000147938560808 -0.000631462434418 -0.00680360452598)
(0.000218705494619 -0.000615310123109 -0.00673846256627)
(0.000285634359668 -0.000593458191 -0.00664705317975)
(0.000347749448758 -0.000566584159737 -0.00652927482863)
(0.00040443020025 -0.00053476823539 -0.00638488584659)
(0.000451884664597 -0.000499744101643 -0.00620999406745)
(-0.000446312485789 -0.000492422839852 -0.00651762979732)
(-0.000398560662683 -0.000520533583601 -0.00668769815059)
(-0.000341898809454 -0.000546823798652 -0.00682907047049)
(-0.00028028268609 -0.000569222685638 -0.00694444965864)
(-0.00021429799547 -0.000587488376517 -0.00703385194331)
(-0.0001448793756 -0.000600972065836 -0.00709748661164)
(-7.31399478547e-05 -0.000609227150251 -0.00713557327543)
(-2.28399635932e-07 -0.000612015523912 -0.0071483015272)
(7.26843743847e-05 -0.000609262064413 -0.00713576177844)
(0.000144427844119 -0.000601041415192 -0.00709787619363)
(0.000213853866224 -0.00058759079486 -0.00703445942637)
(0.000279849590246 -0.000569355845932 -0.00694529677945)
(0.00034148070905 -0.000546984393367 -0.00683019033862)
(0.000398164360095 -0.000520718845811 -0.0066891837555)
(0.000445952317863 -0.000492629028378 -0.0065196451119)
(-0.000436104095375 -0.000479452049877 -0.00678886043262)
(-0.000388662231109 -0.000499773161963 -0.00695613825927)
(-0.000332389664159 -0.00052009520217 -0.00709513866523)
(-0.000271697817236 -0.000537626356278 -0.00720790705925)
(-0.000207212210857 -0.000551856120051 -0.00729486926259)
(-0.000139824390206 -0.000562284947563 -0.00735657161895)
(-7.05129470893e-05 -0.000568635654426 -0.00739342903952)
(-2.40543151103e-07 -0.000570776282439 -0.00740573841373)
(7.00329820701e-05 -0.000568667281209 -0.00739363045097)
(0.00013934831616 -0.000562347966129 -0.00735698819692)
(0.000206743478013 -0.000551949676706 -0.00729551939113)
(0.000271240444047 -0.000537748762181 -0.00720881372086)
(0.000331948238805 -0.000520243841225 -0.00709633143691)
(0.000388243912836 -0.00049994591345 -0.00695769766608)
(0.000435721769477 -0.000479644714367 -0.00679093114106)
(-0.000424118395462 -0.000462137668448 -0.00702215028216)
(-0.000376742355166 -0.000472698742384 -0.0071922201652)
(-0.000320589617153 -0.000487138257792 -0.00732905711503)
(-0.000261087618331 -0.000499323709212 -0.00743897913916)
(-0.000198520517391 -0.000509049894487 -0.00752330198035)
(-0.000133678330012 -0.000516082767104 -0.00758293516725)
(-6.73379021081e-05 -0.000520332641768 -0.00761847540016)
(-2.53452120427e-07 -0.000521761682412 -0.00763033283799)
(6.68319813708e-05 -0.000520360422568 -0.00761868700857)
(0.000133175854997 -0.00051613831981 -0.00758337385956)
(0.000198024884448 -0.000509132826836 -0.00752398790627)
(0.000260603215258 -0.000499432947774 -0.00743993870514)
(0.00032012176493 -0.000487271875958 -0.00733032038555)
(0.000376299892229 -0.000472856122263 -0.00719387601628)
(0.000423708721948 -0.000462314058152 -0.00702421558995)
(2.1259030978e-06 3.21076185745e-06 -0.000146210602968)
(1.44432630153e-06 4.24705341355e-06 -0.00015253090493)
(8.75160382172e-07 4.98324115854e-06 -0.000157752266523)
(4.82251452413e-07 5.47064861574e-06 -0.000162003048449)
(2.03805130013e-07 5.78748692328e-06 -0.000165308320886)
(5.56496146763e-08 5.97313328101e-06 -0.00016766982486)
(3.71912625581e-09 6.06750229225e-06 -0.000169090059442)
(5.35741005778e-09 6.09685322251e-06 -0.000169569274163)
(7.19896664096e-09 6.06982784178e-06 -0.000169087446835)
(-4.37849414169e-08 5.97827541631e-06 -0.000167664785463)
(-1.89014483226e-07 5.79662846669e-06 -0.000165301523696)
(-4.62010828119e-07 5.48521627701e-06 -0.00016199623689)
(-8.48038865162e-07 5.00498929666e-06 -0.000157748807157)
(-1.4112445688e-06 4.27599843432e-06 -0.000152537183672)
(-2.09400663806e-06 3.24197547284e-06 -0.000146240225324)
(1.5263599091e-05 1.88358104164e-05 -0.000474013108489)
(1.32637455544e-05 2.31147612887e-05 -0.000496889471066)
(1.10370994494e-05 2.67726300656e-05 -0.0005165246611)
(8.85548869825e-06 2.96977571681e-05 -0.000532944522156)
(6.61487143019e-06 3.19544787267e-05 -0.000545995924179)
(4.39084684774e-06 3.35431672565e-05 -0.000555486001963)
(2.1850572267e-06 3.44873701588e-05 -0.000561258513114)
(-5.35378359108e-09 3.4803471673e-05 -0.00056320647558)
(-2.19423081239e-06 3.44964629877e-05 -0.000561251834965)
(-4.39434866691e-06 3.35628224926e-05 -0.000555473040243)
(-6.60530573649e-06 3.19878181161e-05 -0.000545978479799)
(-8.82326636439e-06 2.97479408146e-05 -0.000532927462844)
(-1.09760036472e-05 2.6843937703e-05 -0.000516517426501)
(-1.31760433929e-05 2.32064726268e-05 -0.000496910162952)
(-1.51690263453e-05 1.89360338262e-05 -0.00047409569794)
(3.275460357e-05 3.89420308694e-05 -0.000827044324057)
(2.92565731846e-05 4.63789494731e-05 -0.000868570361263)
(2.49915822273e-05 5.2984051653e-05 -0.00090462434178)
(2.0461846327e-05 5.83972309081e-05 -0.000934989075585)
(1.55830868661e-05 6.26463155006e-05 -0.000959241513216)
(1.05027619183e-05 6.56833606106e-05 -0.000976937848064)
(5.2902998444e-06 6.75077272952e-05 -0.00098772182691)
(1.65682215854e-08 6.81209782212e-05 -0.000991356156178)
(-5.25590637019e-06 6.75232501986e-05 -0.000987709579759)
(-1.04635834714e-05 6.57159069338e-05 -0.000976914189009)
(-1.55324591357e-05 6.26987146879e-05 -0.000959209720334)
(-2.03905326856e-05 5.84722798526e-05 -0.000934957308434)
(-2.48928882731e-05 5.30841043319e-05 -0.00090460774058)
(-2.91328804552e-05 4.65015401644e-05 -0.00086859690795)
(-3.26269046516e-05 3.90724350189e-05 -0.000827164409721)
(4.99124470268e-05 5.82961074256e-05 -0.00119766774252)
(4.47003879742e-05 6.78754109859e-05 -0.00125844631553)
(3.82843633807e-05 7.64615301283e-05 -0.00131140005203)
(3.13638273387e-05 8.34802047491e-05 -0.00135608059707)
(2.39104003705e-05 8.8971422521e-05 -0.0013917928835)
(1.61273125367e-05 9.28856616094e-05 -0.00141785949851)
(8.13021335246e-06 9.52324904977e-05 -0.00143374228379)
(3.17256304556e-08 9.60205723188e-05 -0.00143908857668)
(-8.06542378916e-06 9.52531642127e-05 -0.00143372654721)
(-1.60576442243e-05 9.29284712679e-05 -0.00141782913592)
(-2.38295471517e-05 8.90387990547e-05 -0.00139175215239)
(-3.12629618332e-05 8.35742926691e-05 -0.00135603970754)
(-3.81566226772e-05 7.65830902984e-05 -0.00131137764578)
(-4.4548025928e-05 6.80204729768e-05 -0.00125847646812)
(-4.97565411332e-05 5.84486471341e-05 -0.00119781123256)
(6.35599829436e-05 7.33703022987e-05 -0.00157732384313)
(5.65716505316e-05 8.37879191731e-05 -0.00165684072995)
(4.82294823559e-05 9.30841483747e-05 -0.00172615167382)
(3.9316852986e-05 0.000100585108192 -0.00178465116195)
(2.98618784077e-05 0.000106389856397 -0.00183139862699)
(2.00861597372e-05 0.000110491305121 -0.00186550945741)
(1.01108169451e-05 0.000112935837678 -0.00188628521195)
(4.34583248595e-08 0.000113754758507 -0.0018932727465)
(-1.00223332742e-05 0.000112959630529 -0.00188626856604)
(-1.99923523679e-05 0.000110540301118 -0.00186547733237)
(-2.97567778364e-05 0.000106466157115 -0.00183135555998)
(-3.91923327337e-05 0.000100690346244 -0.00178460788913)
(-4.80790909002e-05 9.32181915113e-05 -0.0017261278566)
(-5.63974282966e-05 8.3945879843e-05 -0.00165687317246)
(-6.33819897177e-05 7.35361666116e-05 -0.00157747828968)
(7.28092441245e-05 8.32349014912e-05 -0.00195968356021)
(6.42005528406e-05 9.34738599947e-05 -0.00205705614872)
(5.43752613002e-05 0.000102496644295 -0.00214191863278)
(4.40543137293e-05 0.000109662712271 -0.00221355723661)
(3.33033669909e-05 0.000115136744331 -0.00227079846487)
(2.23254075092e-05 0.00011896577922 -0.00231255840094)
(1.12168021761e-05 0.000121233056397 -0.00233798613162)
(5.22188356751e-08 0.000121990977878 -0.00234653415153)
(-1.11105367806e-05 0.000121258520712 -0.00233797139745)
(-2.22133259913e-05 0.000119018021251 -0.00231253001512)
(-3.31799201828e-05 0.000115217540831 -0.00227076048572)
(-4.39122481205e-05 0.000109773285779 -0.00221351940677)
(-5.42088311024e-05 0.000102636323561 -0.0021418993279)
(-6.4011638451e-05 9.36374498549e-05 -0.00205709285226)
(-7.26156247274e-05 8.3407100478e-05 -0.00195984177646)
(7.80333460279e-05 8.84111847944e-05 -0.00234107765933)
(6.81287801612e-05 9.78817277756e-05 -0.00245541468839)
(5.73340424435e-05 0.000106064741095 -0.00255502293389)
(4.61842340861e-05 0.00011246848275 -0.00263911469941)
(3.47635266677e-05 0.000117298905427 -0.00270629510482)
(2.32335695794e-05 0.000120646645112 -0.00275529243197)
(1.1653705876e-05 0.000122617620442 -0.00278511750894)
(5.85222406367e-08 0.000123275743073 -0.00279514030797)
(-1.15346344518e-05 0.000122643656757 -0.00278510768245)
(-2.31083501572e-05 0.000120699834574 -0.0027552735037)
(-3.46270560265e-05 0.000117380722788 -0.00270626986277)
(-4.60301935985e-05 0.000112579881863 -0.00263909056517)
(-5.71574506017e-05 0.000106204748192 -0.00255501504631)
(-6.79313969863e-05 9.8045205875e-05 -0.00245545891378)
(-7.78302512846e-05 8.85841422105e-05 -0.00234123913183)
(8.00577061471e-05 8.99281979122e-05 -0.00271934200265)
(6.92497634417e-05 9.83735224586e-05 -0.00284966968325)
(5.79579430471e-05 0.000105465960461 -0.00296307844497)
(4.6459064983e-05 0.000110946766064 -0.00305877460754)
(3.48453599682e-05 0.000115031993891 -0.00313517669579)
(2.32304626612e-05 0.000117840305819 -0.00319086148083)
(1.16368737583e-05 0.000119485891613 -0.00322473694419)
(6.29690000137e-08 0.000120035270242 -0.00323611650642)
(-1.15087932123e-05 0.000119511457046 -0.00322473477125)
(-2.30960666271e-05 0.000117892375017 -0.00319085717751)
(-3.46999819135e-05 0.000115111843064 -0.00313517117052)
(-4.62973078181e-05 0.000111055165113 -0.00305877192317)
(-5.77756628225e-05 0.000105601876661 -0.00296308908166)
(-6.9048551172e-05 9.85320511146e-05 -0.00284972670356)
(-7.98499860283e-05 9.00972998963e-05 -0.00271951007371)
(7.97324322146e-05 8.88181164933e-05 -0.0030925937033)
(6.83969587684e-05 9.61757362385e-05 -0.00323763907605)
(5.69871540235e-05 0.000102110377522 -0.00336356700584)
(4.54973140807e-05 0.000106645382459 -0.00346969763645)
(3.40243060974e-05 0.000109984751445 -0.00355432156712)
(2.26375862158e-05 0.000112262492284 -0.00361592340869)
(1.13284339122e-05 0.000113591527595 -0.00365336224989)
(6.61889625678e-08 0.000114035442136 -0.00366593254376)
(-1.11938683663e-05 0.000113615788689 -0.0036533701438)
(-2.24966971731e-05 0.000112311832651 -0.00361593831152)
(-3.38728566816e-05 0.000110060298279 -0.00355434207083)
(-4.53307503776e-05 0.000106747820593 -0.0034697237309)
(-5.68021589254e-05 0.000102238758902 -0.00336360361035)
(-6.81950514959e-05 9.63256550304e-05 -0.00323771609605)
(-7.95234669158e-05 8.89796505054e-05 -0.00309277507545)
(7.77622018523e-05 8.59187365036e-05 -0.00345855277224)
(6.62139972739e-05 9.22151638312e-05 -0.00361660113181)
(5.49656597725e-05 9.70151126141e-05 -0.00375336641562)
(4.37375072465e-05 0.000100639829947 -0.00386842474094)
(3.26289844323e-05 0.000103272030108 -0.00395999588007)
(2.16733802996e-05 0.000105052167101 -0.00402653941854)
(1.08374928183e-05 0.000106086279044 -0.00406692814577)
(6.86932922887e-08 0.000106432044311 -0.0040804804083)
(-1.06979243557e-05 0.000106108597844 -0.00406694830027)
(-2.15275966013e-05 0.000105097545596 -0.00402657780717)
(-3.24731516807e-05 0.000103341513033 -0.00396004856873)
(-4.35678454284e-05 0.000100734096413 -0.00386848727499)
(-5.47796346408e-05 9.71334063819e-05 -0.00375343767342)
(-6.60132026773e-05 9.23537342627e-05 -0.00361670805935)
(-7.75541325903e-05 8.60698812571e-05 -0.00345875805737)
(7.46717697946e-05 8.18419464483e-05 -0.00381433390857)
(6.31535686335e-05 8.71289864368e-05 -0.00398322769261)
(5.22628675222e-05 9.08535703677e-05 -0.00412885111989)
(4.14711159651e-05 9.36231927778e-05 -0.00425111519693)
(3.08754088128e-05 9.55998011948e-05 -0.00434819016353)
(2.04806126167e-05 9.69229009647e-05 -0.00441857584202)
(1.02351764099e-05 9.76876042806e-05 -0.00446122531003)
(7.08380164121e-08 9.79437283212e-05 -0.00447552550249)
(-1.00913619825e-05 9.77075113225e-05 -0.00446125989522)
(-2.0330768797e-05 9.69634017707e-05 -0.00441864211944)
(-3.07160785707e-05 9.56619280842e-05 -0.00434828177166)
(-4.12991871106e-05 9.37076902977e-05 -0.00425122322199)
(-5.20765161122e-05 9.09599881737e-05 -0.00412896822663)
(-6.29545545978e-05 8.7254312028e-05 -0.00398337835891)
(-7.44655956995e-05 8.19808392121e-05 -0.00381457896841)
(7.08222142776e-05 7.7007345046e-05 -0.00415641721836)
(5.95139606018e-05 8.13248719119e-05 -0.00433372210323)
(4.91197303005e-05 8.40403235394e-05 -0.00448618528385)
(3.88887007981e-05 8.601547678e-05 -0.00461391902861)
(2.89060994127e-05 8.7394150902e-05 -0.00471502428972)
(1.91541863796e-05 8.83055056043e-05 -0.0047881218126)
(9.56894541412e-06 8.88289189651e-05 -0.00483232282066)
(7.27993918699e-08 8.9004843465e-05 -0.00484713026913)
(-9.42127761166e-06 8.88460197243e-05 -0.00483237415282)
(-1.90007058413e-05 8.83404174838e-05 -0.00478822090798)
(-2.87436675252e-05 8.74479506094e-05 -0.00471516287748)
(-3.87147825666e-05 8.608907826e-05 -0.00461408418276)
(-4.89331229989e-05 8.41336429818e-05 -0.00448636339797)
(-5.93165862485e-05 8.14356625592e-05 -0.00433393541547)
(-7.06179914853e-05 7.71323323924e-05 -0.00415672454853)
(6.64284035018e-05 7.16660427026e-05 -0.00448053465292)
(5.54778059505e-05 7.50233382953e-05 -0.00466401911286)
(4.56970050035e-05 7.67977632762e-05 -0.00482167226543)
(3.61242651421e-05 7.80478904055e-05 -0.00495331493059)
(2.68246187888e-05 7.88979168977e-05 -0.00505704101352)
(1.77641569182e-05 7.945172657e-05 -0.00513174783531)
(8.87407198829e-06 7.97673943309e-05 -0.00517680630856)
(7.45784418919e-08 7.98740492127e-05 -0.0051918856693)
(-8.72288814114e-06 7.97813926168e-05 -0.0051768768464)
(-1.76073438438e-05 7.94805015748e-05 -0.00513188526876)
(-2.66593099989e-05 7.89426328261e-05 -0.00505723631036)
(-3.59483893259e-05 7.81097572165e-05 -0.00495355237778)
(-4.55099237292e-05 7.68772052593e-05 -0.0048219319777)
(-5.52816462787e-05 7.51188471113e-05 -0.00466431950189)
(-6.62257582884e-05 7.17757700792e-05 -0.0044809316402)
(6.16056756131e-05 6.59141074674e-05 -0.00478127402973)
(5.11924530431e-05 6.83685012727e-05 -0.00497029734531)
(4.21506943651e-05 6.92515768689e-05 -0.00513226546393)
(3.33071225711e-05 6.98611280323e-05 -0.0052664054275)
(2.4729383258e-05 7.02625453083e-05 -0.00537136684284)
(1.63761873979e-05 7.0518404497e-05 -0.00544659655413)
(8.18314486789e-06 7.06617268636e-05 -0.00549183458275)
(7.60865597267e-08 7.07108317299e-05 -0.00550695723968)
(-8.02897337374e-06 7.06724327498e-05 -0.00549192655832)
(-1.62165196513e-05 7.0540685541e-05 -0.00544677772365)
(-2.45615079643e-05 7.02977750933e-05 -0.00537162942016)
(-3.31292404849e-05 6.99108581419e-05 -0.00526673377775)
(-4.19626634246e-05 6.93167300099e-05 -0.00513263464195)
(-5.09968386197e-05 6.84485322158e-05 -0.00497071600403)
(-6.14040656231e-05 6.60083198757e-05 -0.00478178807174)
(5.63876654328e-05 6.05853700071e-05 -0.00505225275513)
(4.68814751115e-05 6.15515884289e-05 -0.00525159653935)
(3.8654653255e-05 6.15906638379e-05 -0.00541645398529)
(3.05638371778e-05 6.16179594876e-05 -0.0055511761661)
(2.27098900413e-05 6.15994294882e-05 -0.00565575677316)
(1.50469322998e-05 6.15702543751e-05 -0.005730347989)
(7.52373621658e-06 6.15457162805e-05 -0.00577507279515)
(7.72833331842e-08 6.15383102703e-05 -0.00579000898671)
(-7.36714378371e-06 6.1553413368e-05 -0.00577518670222)
(-1.48848192313e-05 6.15864288921e-05 -0.00573057489915)
(-2.25397004848e-05 6.16254995506e-05 -0.00565609263797)
(-3.03840475915e-05 6.16554479786e-05 -0.00555161057487)
(-3.84651868776e-05 6.16409833733e-05 -0.00541696136797)
(-4.66853924025e-05 6.16152728767e-05 -0.00525218781619)
(-5.61852820005e-05 6.06637922524e-05 -0.00505287653983)
(-6.7849944141e-07 -1.28097623169e-06 -0.000326159176339)
(-2.52471144049e-07 -1.77537662987e-06 -0.000341972806031)
(2.35939465533e-08 -2.06008900851e-06 -0.00035605062668)
(2.01270019727e-07 -2.21732142573e-06 -0.000368100722547)
(2.70808440356e-07 -2.28613677422e-06 -0.000377820061918)
(2.43357440462e-07 -2.30400010896e-06 -0.00038495450633)
(1.42355705448e-07 -2.30119998209e-06 -0.000389319256705)
(9.82976950877e-10 -2.29773743712e-06 -0.000390799744107)
(-1.40185021133e-07 -2.30059531387e-06 -0.000389322848527)
(-2.40750130471e-07 -2.30279795244e-06 -0.000384961807671)
(-2.681441281e-07 -2.28454617072e-06 -0.000377831279303)
(-1.99659462667e-07 -2.21575897626e-06 -0.000368116275907)
(-2.37692442309e-08 -2.05893223123e-06 -0.00035607177661)
(2.50261499735e-07 -1.77557787949e-06 -0.000342004649786)
(6.75644359538e-07 -1.28200790203e-06 -0.000326218040914)
(-2.39605255219e-06 -3.86776720262e-06 -0.000931791770172)
(-1.29395745695e-06 -5.13053878735e-06 -0.000973800258463)
(-5.07071744026e-07 -5.92101069745e-06 -0.0010109560548)
(3.19192317669e-08 -6.38628014553e-06 -0.00104256305507)
(3.12757123003e-07 -6.61690632649e-06 -0.00106793601549)
(3.62239647695e-07 -6.70478715009e-06 -0.00108649766841)
(2.36775515728e-07 -6.72439071484e-06 -0.00109782557958)
(1.55289204285e-08 -6.72506143629e-06 -0.00110165465107)
(-2.05641308575e-07 -6.724302841e-06 -0.00109783481739)
(-3.31576813389e-07 -6.70487133363e-06 -0.0010865165115)
(-2.85097053302e-07 -6.61790674576e-06 -0.00106796519864)
(-1.1941036995e-08 -6.38938679432e-06 -0.00104260407429)
(5.15166520159e-07 -5.92795762785e-06 -0.00101101315027)
(1.28854635265e-06 -5.14393032828e-06 -0.000973888795203)
(2.38177534476e-06 -3.88555469849e-06 -0.000931951480692)
(-4.44954881207e-06 -6.57740870656e-06 -0.00148796462126)
(-2.84857511607e-06 -8.43530770947e-06 -0.00155133866994)
(-1.6364891501e-06 -9.67101460097e-06 -0.00160701441601)
(-7.51450236805e-07 -1.04442797134e-05 -0.00165412441387)
(-1.99075416479e-07 -1.08735152632e-05 -0.00169178969701)
(5.80894676035e-08 -1.10794247034e-05 -0.0017192638233)
(9.34737769152e-08 -1.11600385539e-05 -0.00173599641899)
(8.03977260212e-09 -1.11796740492e-05 -0.001741640421)
(-7.69607218115e-08 -1.11606906291e-05 -0.00173601380224)
(-4.09317135805e-08 -1.1080829223e-05 -0.00171929892192)
(2.1517538967e-07 -1.0876112034e-05 -0.0016918431918)
(7.62512572106e-07 -1.04488412643e-05 -0.00165419800208)
(1.63848540572e-06 -9.67853252818e-06 -0.00160711385185)
(2.83976166196e-06 -8.44790054614e-06 -0.00155148568451)
(4.43448763565e-06 -6.59315553696e-06 -0.00148821548104)
(-6.23314714844e-06 -8.75679308782e-06 -0.00199930390301)
(-4.27216229807e-06 -1.09593922946e-05 -0.00208025302693)
(-2.73324644523e-06 -1.24593333767e-05 -0.00215091890561)
(-1.56622455484e-06 -1.34173913663e-05 -0.0022104466997)
(-7.72406849017e-07 -1.39672342109e-05 -0.00225788431893)
(-3.06627861234e-07 -1.42462167156e-05 -0.0022924072082)
(-8.53554379496e-08 -1.43655932103e-05 -0.0023133988835)
(3.49908384199e-09 -1.43976604053e-05 -0.00232046851178)
(9.29012544061e-08 -1.43672704894e-05 -0.00231342375925)
(3.15212714481e-07 -1.42496101712e-05 -0.00229245712112)
(7.80766322409e-07 -1.39725699409e-05 -0.00225795971527)
(1.5708868138e-06 -1.34250879394e-05 -0.00221054932047)
(2.73037329785e-06 -1.24699480097e-05 -0.00215105544282)
(4.25975285006e-06 -1.09743492588e-05 -0.00208044885951)
(6.21563100897e-06 -8.77404003216e-06 -0.00199962490478)
(-7.67881850118e-06 -1.04013060069e-05 -0.00247206243569)
(-5.46757081057e-06 -1.27555565886e-05 -0.00256788999545)
(-3.6910188275e-06 -1.43678048257e-05 -0.00265108945782)
(-2.30630183657e-06 -1.54014760843e-05 -0.00272093751334)
(-1.31311886784e-06 -1.59986431777e-05 -0.00277646813224)