/*--------------------------------*- C++ -*----------------------------------*\
  =========                 |
  \\      /  F ield         | OpenFOAM: The Open Source CFD Toolbox
   \\    /   O peration     | Website:  https://openfoam.org
    \\  /    A nd           | Version:  7
     \\/     M anipulation  |
\*---------------------------------------------------------------------------*/
FoamFile
{
    version     2.0;
    format      ascii;
    class       volScalarField;
    location    "0.28";
    object      p;
}
// * * * * * * * * * * * * * * * * * * * * * * * * * * * * * * * * * * * * * //

dimensions      [0 2 -2 0 0 0 0];

internalField   nonuniform List<scalar> 
22500
(
-2.49581301386e-05
-2.49593526345e-05
-2.49599125829e-05
-2.49606042838e-05
-2.49615037987e-05
-2.49623497561e-05
-2.4962927133e-05
-2.49631131603e-05
-2.49628925612e-05
-2.49622798071e-05
-2.49613973661e-05
-2.49604599909e-05
-2.4959728423e-05
-2.49591276332e-05
-2.49578485353e-05
-2.498314487e-05
-2.49854981798e-05
-2.49872903465e-05
-2.49890203612e-05
-2.49907414752e-05
-2.49921908594e-05
-2.49931400768e-05
-2.49934546574e-05
-2.49931052869e-05
-2.49921204037e-05
-2.49906339675e-05
-2.4988874151e-05
-2.49871029466e-05
-2.49852688819e-05
-2.49828596211e-05
-2.50059571451e-05
-2.50094241413e-05
-2.50121419177e-05
-2.50147698076e-05
-2.50172098665e-05
-2.50191884235e-05
-2.50204634909e-05
-2.5020890355e-05
-2.50204289766e-05
-2.50191184904e-05
-2.50171031026e-05
-2.50146245376e-05
-2.50119550923e-05
-2.50091944772e-05
-2.50056708712e-05
-2.50241047965e-05
-2.50283001088e-05
-2.50313599386e-05
-2.50344223029e-05
-2.50371861078e-05
-2.50393862769e-05
-2.50407900824e-05
-2.50412604622e-05
-2.50407552238e-05
-2.50393157075e-05
-2.50370783788e-05
-2.50342756263e-05
-2.50311711784e-05
-2.50280680306e-05
-2.50238168783e-05
-2.50376038471e-05
-2.50416949549e-05
-2.50443118183e-05
-2.5047047486e-05
-2.5049467562e-05
-2.50513640449e-05
-2.50525599772e-05
-2.50529575286e-05
-2.50525246319e-05
-2.50512925082e-05
-2.50493585097e-05
-2.5046899197e-05
-2.5044121235e-05
-2.5041460438e-05
-2.50373135757e-05
-2.50450621234e-05
-2.50476894558e-05
-2.50488078641e-05
-2.50501444983e-05
-2.50512959129e-05
-2.50521714618e-05
-2.50527060756e-05
-2.50528751586e-05
-2.50526698709e-05
-2.50520982515e-05
-2.50511844044e-05
-2.50499930886e-05
-2.50486136792e-05
-2.50474510895e-05
-2.50447687435e-05
-2.50446408127e-05
-2.50440535898e-05
-2.50424273599e-05
-2.50411201252e-05
-2.50399493148e-05
-2.50390001828e-05
-2.50383707454e-05
-2.50381400183e-05
-2.50383336432e-05
-2.50389252282e-05
-2.50398353542e-05
-2.50409657247e-05
-2.50422299392e-05
-2.50438115372e-05
-2.50443437755e-05
-2.50347296826e-05
-2.50290297134e-05
-2.50233615718e-05
-2.50181712319e-05
-2.50136467307e-05
-2.50100995239e-05
-2.50078275566e-05
-2.50070349343e-05
-2.50077893193e-05
-2.5010022374e-05
-2.5013529701e-05
-2.50180130341e-05
-2.50231600684e-05
-2.50287833573e-05
-2.50344288386e-05
-2.50142030513e-05
-2.50016017954e-05
-2.49906893178e-05
-2.49805455707e-05
-2.49717915488e-05
-2.49650032997e-05
-2.49606966334e-05
-2.49592103243e-05
-2.4960657197e-05
-2.49649238495e-05
-2.49716713423e-05
-2.49803835764e-05
-2.49904837419e-05
-2.50013511379e-05
-2.50138977294e-05
-2.49825409687e-05
-2.49615784683e-05
-2.49444415606e-05
-2.4928561792e-05
-2.49149522854e-05
-2.4904478558e-05
-2.48978729145e-05
-2.48956051783e-05
-2.48978320947e-05
-2.49043964936e-05
-2.49148284279e-05
-2.49283954807e-05
-2.49442314929e-05
-2.49613231976e-05
-2.49822313359e-05
-2.49398568176e-05
-2.4909551837e-05
-2.48855354154e-05
-2.48634914305e-05
-2.48447000573e-05
-2.4830327821e-05
-2.48213057868e-05
-2.48182195404e-05
-2.48212634773e-05
-2.48302428752e-05
-2.48445722845e-05
-2.48633204305e-05
-2.48853204985e-05
-2.49092915298e-05
-2.4939541918e-05
-2.48866881799e-05
-2.48467720526e-05
-2.48156765641e-05
-2.47874158663e-05
-2.47634193124e-05
-2.47451639805e-05
-2.47337531106e-05
-2.47298606869e-05
-2.47337092054e-05
-2.47450759779e-05
-2.47632871389e-05
-2.4787239685e-05
-2.48154562517e-05
-2.48465063646e-05
-2.48863677279e-05
-2.48234991702e-05
-2.47749713086e-05
-2.47371736077e-05
-2.47029862232e-05
-2.46740536785e-05
-2.46521670475e-05
-2.4638547689e-05
-2.46339153653e-05
-2.46385021154e-05
-2.46520756542e-05
-2.46739169261e-05
-2.47028043375e-05
-2.47369471586e-05
-2.47746995391e-05
-2.48231728418e-05
-2.47520807065e-05
-2.46964401179e-05
-2.46524388075e-05
-2.46128005666e-05
-2.4579539885e-05
-2.45545988718e-05
-2.45391743903e-05
-2.45339444043e-05
-2.45391270937e-05
-2.45545043002e-05
-2.45793981782e-05
-2.46126127159e-05
-2.46522060514e-05
-2.46961618368e-05
-2.47517501561e-05
-2.46829426596e-05
-2.46157161773e-05
-2.45649378198e-05
-2.45198609454e-05
-2.44828735573e-05
-2.44555095654e-05
-2.44387176e-05
-2.44330459198e-05
-2.44386685784e-05
-2.44554115487e-05
-2.44827271412e-05
-2.45196671378e-05
-2.45646978123e-05
-2.46154308471e-05
-2.46826104837e-05
-3.76596715437e-05
-3.7656396065e-05
-3.76519297411e-05
-3.76476394302e-05
-3.76437434816e-05
-3.76406956908e-05
-3.7638755296e-05
-3.7638095941e-05
-3.76387762069e-05
-3.76407365542e-05
-3.76438032489e-05
-3.76477182833e-05
-3.76520314517e-05
-3.76565263185e-05
-3.76598392837e-05
-3.76503380589e-05
-3.76477419744e-05
-3.76438825671e-05
-3.76401845884e-05
-3.76367925839e-05
-3.76341279632e-05
-3.76324267414e-05
-3.76318483097e-05
-3.76324471767e-05
-3.76341678029e-05
-3.76368506264e-05
-3.7640260994e-05
-3.76439812345e-05
-3.76478694447e-05
-3.76505035477e-05
-3.76514145596e-05
-3.76504378766e-05
-3.76479810643e-05
-3.76455636236e-05
-3.76432175898e-05
-3.76413289044e-05
-3.76401032556e-05
-3.76396848033e-05
-3.76401240818e-05
-3.76413698124e-05
-3.76432777375e-05
-3.7645643298e-05
-3.76480833497e-05
-3.76505682816e-05
-3.76515805745e-05
-3.76618274409e-05
-3.76624629169e-05
-3.76612973718e-05
-3.7659975473e-05
-3.76584745926e-05
-3.76571824165e-05
-3.76563098145e-05
-3.76560079273e-05
-3.76563313614e-05
-3.76572248878e-05
-3.7658537235e-05
-3.76600584263e-05
-3.76614030523e-05
-3.76625959652e-05
-3.76619944813e-05
-3.76743071112e-05
-3.7675577779e-05
-3.76748071734e-05
-3.76737241072e-05
-3.76723444595e-05
-3.76710979534e-05
-3.76702349365e-05
-3.76699330367e-05
-3.76702572773e-05
-3.76711421607e-05
-3.76724099787e-05
-3.76738108742e-05
-3.76749168618e-05
-3.7675713683e-05
-3.76744744029e-05
-3.76840557666e-05
-3.76847987851e-05
-3.76835133665e-05
-3.76818659746e-05
-3.76799721236e-05
-3.76783112639e-05
-3.76771803713e-05
-3.7676785566e-05
-3.76772032201e-05
-3.76783566547e-05
-3.76800394675e-05
-3.76819551256e-05
-3.76836253765e-05
-3.76849363787e-05
-3.76842230363e-05
-3.76892681823e-05
-3.76886085753e-05
-3.76862380403e-05
-3.76835581325e-05
-3.76808031131e-05
-3.76784893182e-05
-3.76769517127e-05
-3.7676418552e-05
-3.76769750144e-05
-3.76785357393e-05
-3.76808721886e-05
-3.76836496432e-05
-3.7686352461e-05
-3.76887478602e-05
-3.76894347695e-05
-3.76897929277e-05
-3.76872063285e-05
-3.76834706083e-05
-3.76795440823e-05
-3.76757762753e-05
-3.76727090964e-05
-3.76707077791e-05
-3.76700179102e-05
-3.76707312466e-05
-3.76727559065e-05
-3.7675846054e-05
-3.76796365363e-05
-3.76835860833e-05
-3.76873462511e-05
-3.76899589469e-05
-3.76861196605e-05
-3.76813288811e-05
-3.76760959394e-05
-3.76708320861e-05
-3.76659873232e-05
-3.76621249047e-05
-3.76596364611e-05
-3.76587824343e-05
-3.76596599399e-05
-3.76621718308e-05
-3.76660574264e-05
-3.76709251054e-05
-3.76762119442e-05
-3.7681468929e-05
-3.76862840434e-05
-3.76788754247e-05
-3.76717574718e-05
-3.76649603511e-05
-3.76583257434e-05
-3.76523808895e-05
-3.76477105161e-05
-3.76447292568e-05
-3.76437094784e-05
-3.76447524692e-05
-3.76477569921e-05
-3.76524504324e-05
-3.76584181931e-05
-3.76650757709e-05
-3.76718966485e-05
-3.76790381491e-05
-3.76686452658e-05
-3.7659179964e-05
-3.76507920287e-05
-3.76427933403e-05
-3.76357605567e-05
-3.76302984572e-05
-3.76268376608e-05
-3.76256573126e-05
-3.76268604197e-05
-3.76303440622e-05
-3.76358289814e-05
-3.76428844196e-05
-3.76509058535e-05
-3.76593171689e-05
-3.76688048516e-05
-3.7655957373e-05
-3.7644205551e-05
-3.7634238511e-05
-3.76249205614e-05
-3.76168519715e-05
-3.76106487074e-05
-3.76067451468e-05
-3.76054174599e-05
-3.76067672057e-05
-3.76106929833e-05
-3.76169184247e-05
-3.76250092482e-05
-3.76343496e-05
-3.7644339557e-05
-3.76561132976e-05
-3.76413529985e-05
-3.76274019774e-05
-3.76158900448e-05
-3.76053364557e-05
-3.75963326385e-05
-3.7589482336e-05
-3.75852006831e-05
-3.75837491938e-05
-3.75852217776e-05
-3.75895246387e-05
-3.75963964138e-05
-3.76054216922e-05
-3.76159969785e-05
-3.76275312505e-05
-3.76415030656e-05
-3.76251389472e-05
-3.76090300739e-05
-3.75961243639e-05
-3.75845224498e-05
-3.75747924027e-05
-3.75674724991e-05
-3.75629305892e-05
-3.75613952085e-05
-3.7562950328e-05
-3.75675121928e-05
-3.75748521401e-05
-3.75846026714e-05
-3.75962258748e-05
-3.76091532007e-05
-3.76252819574e-05
-3.76057277781e-05
-3.7589001277e-05
-3.75751430956e-05
-3.75628990148e-05
-3.75528479218e-05
-3.75453760971e-05
-3.75407713346e-05
-3.75392199532e-05
-3.75407892393e-05
-3.754541237e-05
-3.75529028278e-05
-3.75629732597e-05
-3.75752371759e-05
-3.75891169394e-05
-3.76058624094e-05
-2.58724431225e-05
-2.58743186452e-05
-2.58764535403e-05
-2.58786500482e-05
-2.58806267057e-05
-2.58821807775e-05
-2.58831695134e-05
-2.58835058364e-05
-2.58831554773e-05
-2.58821539963e-05
-2.58805900024e-05
-2.58786069887e-05
-2.58764053895e-05
-2.58742698085e-05
-2.58723939137e-05
-2.58738232706e-05
-2.58756604333e-05
-2.58777900945e-05
-2.58799905874e-05
-2.5881979974e-05
-2.58835496532e-05
-2.58845512304e-05
-2.58848926341e-05
-2.58845365747e-05
-2.58835216597e-05
-2.58819414567e-05
-2.58799450931e-05
-2.5877739486e-05
-2.5875609009e-05
-2.58737722356e-05
-2.58731128673e-05
-2.58747853713e-05
-2.58767735378e-05
-2.58788654722e-05
-2.58807764797e-05
-2.58822949492e-05
-2.58832683676e-05
-2.58836010588e-05
-2.5883254075e-05
-2.58822676936e-05
-2.58807389473e-05
-2.58788211564e-05
-2.58767247867e-05
-2.58747355152e-05
-2.58730624815e-05
-2.58722555668e-05
-2.58738395244e-05
-2.58757417635e-05
-2.58777696698e-05
-2.58796383625e-05
-2.58811321543e-05
-2.58820934924e-05
-2.58824227248e-05
-2.58820796418e-05
-2.58811057375e-05
-2.58796018075e-05
-2.58777261998e-05
-2.58756939166e-05
-2.58737906665e-05
-2.5872205861e-05
-2.58718013981e-05
-2.5873384689e-05
-2.58752709522e-05
-2.58772930339e-05
-2.58791656852e-05
-2.58806682869e-05
-2.58816377289e-05
-2.58819703385e-05
-2.58816245635e-05
-2.5880643179e-05
-2.58791309409e-05
-2.58772516426e-05
-2.58752254291e-05
-2.58733379382e-05
-2.5871752661e-05
-2.58717154531e-05
-2.58733672376e-05
-2.58752887489e-05
-2.58773470015e-05
-2.587925597e-05
-2.5880790183e-05
-2.58817814848e-05
-2.58821220477e-05
-2.5881769008e-05
-2.58807663525e-05
-2.58792228066e-05
-2.58773072268e-05
-2.58752447238e-05
-2.58733217788e-05
-2.58716677795e-05
-2.58719684331e-05
-2.58737468853e-05
-2.58757443638e-05
-2.58778717329e-05
-2.58798409845e-05
-2.58814227181e-05
-2.58824447911e-05
-2.58827961891e-05
-2.58824331847e-05
-2.58814005385e-05
-2.58798100319e-05
-2.58778344192e-05
-2.5875702836e-05
-2.58737033798e-05
-2.58719218235e-05
-2.58725608482e-05
-2.58745158049e-05
-2.58766209967e-05
-2.58788399427e-05
-2.58808837215e-05
-2.58825209819e-05
-2.58835775178e-05
-2.58839407882e-05
-2.58835667854e-05
-2.58825004262e-05
-2.5880854893e-05
-2.58788048487e-05
-2.58765815723e-05
-2.58744740178e-05
-2.58725155532e-05
-2.58734786014e-05
-2.58756449125e-05
-2.58778769885e-05
-2.58801970525e-05
-2.5882318278e-05
-2.58840100014e-05
-2.58850988874e-05
-2.58854730593e-05
-2.58850891059e-05
-2.58839912212e-05
-2.58822918062e-05
-2.58801645453e-05
-2.58778400056e-05
-2.58756051133e-05
-2.58734344397e-05
-2.58746855167e-05
-2.58770822883e-05
-2.58794471018e-05
-2.58818641e-05
-2.58840534074e-05
-2.58857889126e-05
-2.58869019322e-05
-2.58872838764e-05
-2.58868930655e-05
-2.58857718435e-05
-2.58840291658e-05
-2.5881834013e-05
-2.5879412437e-05
-2.58770444266e-05
-2.58746430296e-05
-2.58761344454e-05
-2.58787628648e-05
-2.58812535489e-05
-2.58837509725e-05
-2.58859881309e-05
-2.58877482866e-05
-2.58888717488e-05
-2.5889256528e-05
-2.58888637791e-05
-2.58877328717e-05
-2.58859661055e-05
-2.58837233077e-05
-2.58812212608e-05
-2.58787269721e-05
-2.58760934847e-05
-2.58777678378e-05
-2.5880615501e-05
-2.58832168318e-05
-2.58857699881e-05
-2.58880268289e-05
-2.58897858101e-05
-2.58909019128e-05
-2.5891283055e-05
-2.58908947926e-05
-2.58897719877e-05
-2.58880068522e-05
-2.58857446457e-05
-2.58831868682e-05
-2.58805817344e-05
-2.58777287789e-05
-2.58795032923e-05
-2.58825576992e-05
-2.58852576121e-05
-2.58878419012e-05
-2.58900877749e-05
-2.58918176226e-05
-2.58929065029e-05
-2.58932771985e-05
-2.58929001651e-05
-2.58918051555e-05
-2.58900697819e-05
-2.58878187281e-05
-2.58852298761e-05
-2.58825259889e-05
-2.58794659393e-05
-2.5881295534e-05
-2.58845630535e-05
-2.58873401296e-05
-2.58899231623e-05
-2.58921182239e-05
-2.58937834118e-05
-2.58948222621e-05
-2.58951738918e-05
-2.58948165317e-05
-2.58937722755e-05
-2.58921018094e-05
-2.58899020179e-05
-2.58873146457e-05
-2.58845336101e-05
-2.58812605684e-05
-2.58838749621e-05
-2.58870344283e-05
-2.5889731893e-05
-2.58921618104e-05
-2.58941694509e-05
-2.58956680306e-05
-2.58965933816e-05
-2.58969051573e-05
-2.58965882265e-05
-2.58956578946e-05
-2.58941546756e-05
-2.58921426245e-05
-2.58897085197e-05
-2.58870073638e-05
-2.58838428235e-05
-3.14837946902e-05
-3.14826381807e-05
-3.1481329068e-05
-3.14799707128e-05
-3.14787479435e-05
-3.14777845253e-05
-3.14771701488e-05
-3.14769601076e-05
-3.14771761712e-05
-3.14777953244e-05
-3.14787614356e-05
-3.14799835968e-05
-3.14813395536e-05
-3.14826458e-05
-3.14838048481e-05
-3.14834423067e-05
-3.14823289662e-05
-3.14810426931e-05
-3.14796989293e-05
-3.14784830341e-05
-3.14775213498e-05
-3.14769063375e-05
-3.14766956916e-05
-3.14769126908e-05
-3.14775326322e-05
-3.14784968666e-05
-3.14797118306e-05
-3.14810524177e-05
-3.14823356389e-05
-3.14834511216e-05
-3.14843754324e-05
-3.14833813837e-05
-3.14822054799e-05
-3.14809502237e-05
-3.14798017133e-05
-3.14788859578e-05
-3.14782972656e-05
-3.14780948667e-05
-3.14783030635e-05
-3.14788963341e-05
-3.14798146511e-05
-3.14809629065e-05
-3.14822157049e-05
-3.14833894021e-05
-3.14843845309e-05
-3.14852541928e-05
-3.14843320151e-05
-3.14832308134e-05
-3.14820362207e-05
-3.14809329313e-05
-3.14800473631e-05
-3.14794757038e-05
-3.14792786237e-05
-3.14794809995e-05
-3.14800568256e-05
-3.14809446853e-05
-3.14820478706e-05
-3.14832405277e-05
-3.14843401357e-05
-3.1485263569e-05
-3.14858264243e-05
-3.1484927228e-05
-3.14838611373e-05
-3.14826968488e-05
-3.1481615516e-05
-3.14807439208e-05
-3.14801795565e-05
-3.14799845608e-05
-3.14801842695e-05
-3.14807523925e-05
-3.14816262776e-05
-3.14827079394e-05
-3.14838711107e-05
-3.14849361045e-05
-3.14858360176e-05
-3.14861848469e-05
-3.14852790274e-05
-3.14842237938e-05
-3.14830711023e-05
-3.14819981718e-05
-3.14811316213e-05
-3.1480569706e-05
-3.1480375297e-05
-3.14805739361e-05
-3.14811392292e-05
-3.1482007786e-05
-3.14830810968e-05
-3.14842329339e-05
-3.14852877309e-05
-3.14861942297e-05
-3.148638379e-05
-3.14854494167e-05
-3.14843880017e-05
-3.14832355377e-05
-3.14821635984e-05
-3.14812978796e-05
-3.14807362991e-05
-3.14805418494e-05
-3.14807400117e-05
-3.14813046405e-05
-3.1482172316e-05
-3.14832449701e-05
-3.14843971187e-05
-3.14854585408e-05
-3.14863931648e-05
-3.148644547e-05
-3.14854677677e-05
-3.14843886174e-05
-3.14832294048e-05
-3.14821546325e-05
-3.14812883451e-05
-3.14807269062e-05
-3.14805325289e-05
-3.14807301676e-05
-3.14812943051e-05
-3.1482162368e-05
-3.14832378937e-05
-3.14843971443e-05
-3.14854767288e-05
-3.14864549089e-05
-3.14863924518e-05
-3.14853613716e-05
-3.14842582032e-05
-3.1483090425e-05
-3.1482013768e-05
-3.14811490991e-05
-3.14805898148e-05
-3.14803963396e-05
-3.14805926984e-05
-3.1481154429e-05
-3.14820208673e-05
-3.14830985133e-05
-3.14842666931e-05
-3.14853705682e-05
-3.14864017546e-05
-3.14862491487e-05
-3.14851612601e-05
-3.14840328188e-05
-3.14828590568e-05
-3.14817850574e-05
-3.14809269144e-05
-3.14803736058e-05
-3.14801824717e-05
-3.1480376152e-05
-3.14809316915e-05
-3.14817914975e-05
-3.14828666134e-05
-3.14840410793e-05
-3.14851705645e-05
-3.14862586293e-05
-3.14860398598e-05
-3.14848949913e-05
-3.14837435913e-05
-3.14825700504e-05
-3.14815066519e-05
-3.14806628123e-05
-3.1480121019e-05
-3.14799343035e-05
-3.148012335e-05
-3.14806672295e-05
-3.14815127743e-05
-3.14825773878e-05
-3.14837518776e-05
-3.14849043511e-05
-3.14860491608e-05
-3.14857854086e-05
-3.14845859373e-05
-3.14834162446e-05
-3.148225108e-05
-3.14812085718e-05
-3.14803884122e-05
-3.14798650287e-05
-3.14796851751e-05
-3.14798672091e-05
-3.1480392671e-05
-3.14812143891e-05
-3.1482258306e-05
-3.14834245724e-05
-3.14845954976e-05
-3.14857947775e-05
-3.14855169252e-05
-3.14842616243e-05
-3.1483074434e-05
-3.14819237127e-05
-3.14809110748e-05
-3.14801244536e-05
-3.14796259235e-05
-3.14794556231e-05
-3.14796280977e-05
-3.14801284193e-05
-3.14809169313e-05
-3.1481930787e-05
-3.14830828254e-05
-3.14842711733e-05
-3.14855259909e-05
-3.14852449034e-05
-3.14839223044e-05
-3.1482721695e-05
-3.14815932854e-05
-3.14806230671e-05
-3.14798803934e-05
-3.14794149886e-05
-3.14792566246e-05
-3.14794169882e-05
-3.14798844622e-05
-3.14806285908e-05
-3.14816004363e-05
-3.14827301743e-05
-3.14839321608e-05
-3.14852539587e-05
-3.14845195592e-05
-3.14832599494e-05
-3.14821435511e-05
-3.14811279942e-05
-3.1480277206e-05
-3.14796367914e-05
-3.14792391261e-05
-3.14791048174e-05
-3.14792411832e-05
-3.14796406777e-05
-3.14802829108e-05
-3.14811352548e-05
-3.14821522596e-05
-3.14832699875e-05
-3.14845293105e-05
-2.6006128438e-05
-2.60068571173e-05
-2.60076826059e-05
-2.6008539353e-05
-2.6009310846e-05
-2.60099190438e-05
-2.6010305564e-05
-2.60104364257e-05
-2.6010298386e-05
-2.60099058816e-05
-2.60092937831e-05
-2.60085194531e-05
-2.60076598766e-05
-2.60068339679e-05
-2.60061032208e-05
-2.60062525452e-05
-2.6006953477e-05
-2.60077644176e-05
-2.60086120647e-05
-2.60093797962e-05
-2.60099874996e-05
-2.60103749047e-05
-2.60105063146e-05
-2.60103674546e-05
-2.60099738192e-05
-2.60093619509e-05
-2.6008591065e-05
-2.60077402437e-05
-2.60069285057e-05
-2.60062258015e-05
-2.60055641091e-05
-2.60061883112e-05
-2.60069302532e-05
-2.60077241122e-05
-2.60084508241e-05
-2.60090301335e-05
-2.60094012572e-05
-2.60095275312e-05
-2.60093940726e-05
-2.60090168087e-05
-2.60084332155e-05
-2.60077036173e-05
-2.60069074183e-05
-2.60061646376e-05
-2.60055385344e-05
-2.60049278457e-05
-2.60055051677e-05
-2.60061992393e-05
-2.60069545063e-05
-2.60076520188e-05
-2.60082115491e-05
-2.6008571557e-05
-2.60086943553e-05
-2.60085647163e-05
-2.60081988048e-05
-2.60076349518e-05
-2.60069344457e-05
-2.6006176915e-05
-2.60054821547e-05
-2.60049031062e-05
-2.60044885377e-05
-2.60050458495e-05
-2.60057141415e-05
-2.60064477848e-05
-2.60071288271e-05
-2.6007677219e-05
-2.60080310502e-05
-2.60081520445e-05
-2.60080246592e-05
-2.60076652387e-05
-2.60071126939e-05
-2.60064289127e-05
-2.60056934694e-05
-2.60050246198e-05
-2.60044651537e-05
-2.6004177893e-05
-2.60047309921e-05
-2.60053852401e-05
-2.6006104871e-05
-2.60067746193e-05
-2.60073150613e-05
-2.60076644563e-05
-2.60077841419e-05
-2.60076585425e-05
-2.60073039449e-05
-2.60067595069e-05
-2.60060870327e-05
-2.60053655596e-05
-2.60047107051e-05
-2.60041557229e-05
-2.60039535541e-05
-2.60045106421e-05
-2.60051574595e-05
-2.6005867081e-05
-2.60065275489e-05
-2.60070606749e-05
-2.60074056331e-05
-2.60075239483e-05
-2.60074002661e-05
-2.60070505665e-05
-2.60065137412e-05
-2.60058507746e-05
-2.60051395375e-05
-2.60044919503e-05
-2.6003932688e-05
-2.60037952437e-05
-2.60043615676e-05
-2.60050044022e-05
-2.60057046102e-05
-2.60063550198e-05
-2.60068795082e-05
-2.60072188318e-05
-2.60073353246e-05
-2.60072140289e-05
-2.60068704335e-05
-2.60063425277e-05
-2.60056896695e-05
-2.60049878087e-05
-2.60043440628e-05
-2.60037756429e-05
-2.60036849876e-05
-2.60042614358e-05
-2.60049009033e-05
-2.60055901199e-05
-2.60062278732e-05
-2.60067408769e-05
-2.60070723711e-05
-2.60071862217e-05
-2.60070681275e-05
-2.60067328252e-05
-2.6006216735e-05
-2.60055766918e-05
-2.60048858464e-05
-2.6004245344e-05
-2.60036665025e-05
-2.60036045351e-05
-2.60041905718e-05
-2.60048251356e-05
-2.60054998136e-05
-2.60061205396e-05
-2.60066178646e-05
-2.60069385756e-05
-2.60070486541e-05
-2.60069348563e-05
-2.60066107905e-05
-2.60061106404e-05
-2.60054877317e-05
-2.60048113762e-05
-2.60041756662e-05
-2.60035873905e-05
-2.60035398059e-05
-2.6004132841e-05
-2.6004759689e-05
-2.60054152368e-05
-2.60060134288e-05
-2.60064900251e-05
-2.6006796283e-05
-2.60069012991e-05
-2.60067930283e-05
-2.60064837973e-05
-2.60060046699e-05
-2.60054043963e-05
-2.6004747213e-05
-2.60041190694e-05
-2.60035238314e-05
-2.60034790172e-05
-2.60040772576e-05
-2.60046935931e-05
-2.60053249848e-05
-2.60058946019e-05
-2.60063445903e-05
-2.60066324317e-05
-2.60067307941e-05
-2.60066295785e-05
-2.60063391053e-05
-2.60058867395e-05
-2.60053152487e-05
-2.60046822294e-05
-2.60040646239e-05
-2.60034642975e-05
-2.60034074827e-05
-2.60040122685e-05
-2.60046182788e-05
-2.60052228553e-05
-2.60057585978e-05
-2.6006177204e-05
-2.60064425445e-05
-2.6006533189e-05
-2.60064400088e-05
-2.60061721722e-05
-2.60057515887e-05
-2.60052138586e-05
-2.60046078654e-05
-2.60040005732e-05
-2.60033939092e-05
-2.60033137706e-05
-2.6003933784e-05
-2.60045324101e-05
-2.60051084086e-05
-2.60056066218e-05
-2.60059887558e-05
-2.60062290796e-05
-2.60063102263e-05
-2.60062266665e-05
-2.60059842456e-05
-2.60055999346e-05
-2.60051002116e-05
-2.60045225959e-05
-2.60039229279e-05
-2.60033012689e-05
-2.60034239644e-05
-2.60040202386e-05
-2.60045655381e-05
-2.60050677335e-05
-2.60054885459e-05
-2.60058062043e-05
-2.60060034458e-05
-2.60060698788e-05
-2.60060012242e-05
-2.60058018231e-05
-2.60054823887e-05
-2.60050597826e-05
-2.60045563416e-05
-2.60040098857e-05
-2.60034122719e-05
-2.74654199615e-05
-2.74649618172e-05
-2.74644448805e-05
-2.74639129125e-05
-2.74634365548e-05
-2.74630629837e-05
-2.74628265182e-05
-2.74627470097e-05
-2.74628321761e-05
-2.746307313e-05
-2.74634488394e-05
-2.74639246623e-05
-2.74644537763e-05
-2.74649653488e-05
-2.74654205889e-05
-2.74652748389e-05
-2.74648311503e-05
-2.74643208389e-05
-2.74637922338e-05
-2.7463316616e-05
-2.74629425533e-05
-2.74627052342e-05
-2.74626254612e-05
-2.74627113811e-05
-2.74629535179e-05
-2.74633298336e-05
-2.74638046192e-05
-2.74643297486e-05
-2.74648344972e-05
-2.74652747458e-05
-2.74656306337e-05
-2.74652319581e-05
-2.74647637162e-05
-2.7464268661e-05
-2.74638182732e-05
-2.74634611285e-05
-2.74632332467e-05
-2.74631562204e-05
-2.74632386513e-05
-2.74634707851e-05
-2.74638300175e-05
-2.74642799861e-05
-2.74647723091e-05
-2.74652360247e-05
-2.74656307034e-05
-2.74659620096e-05
-2.74655919457e-05
-2.74651526692e-05
-2.74646811277e-05
-2.74642481736e-05
-2.74639026704e-05
-2.74636812253e-05
-2.74636060714e-05
-2.74636860311e-05
-2.74639112312e-05
-2.74642585189e-05
-2.74646909959e-05
-2.74651600599e-05
-2.74655954964e-05
-2.74659622523e-05
-2.74661783203e-05
-2.74658200842e-05
-2.74653966172e-05
-2.74649392738e-05
-2.74645168441e-05
-2.74641781254e-05
-2.74639601615e-05
-2.74638858113e-05
-2.74639641439e-05
-2.74641852039e-05
-2.74645254732e-05
-2.7464947709e-05
-2.74654032864e-05
-2.74658236993e-05
-2.7466178639e-05
-2.74663240426e-05
-2.74659698839e-05
-2.74655553911e-05
-2.74651072456e-05
-2.7464692036e-05
-2.74643582951e-05
-2.74641430642e-05
-2.74640694078e-05
-2.74641464458e-05
-2.74643642524e-05
-2.74646991762e-05
-2.74651140582e-05
-2.74655605676e-05
-2.74659727344e-05
-2.74663240469e-05
-2.74664260413e-05
-2.74660711106e-05
-2.74656618353e-05
-2.74652214394e-05
-2.74648129941e-05
-2.74644843129e-05
-2.74642719854e-05
-2.74641990629e-05
-2.74642746385e-05
-2.74644889916e-05
-2.74648186239e-05
-2.74652269139e-05
-2.7465666199e-05
-2.7466073753e-05
-2.7466425971e-05
-2.74664966617e-05
-2.74661390295e-05
-2.74657329961e-05
-2.74652996235e-05
-2.74648981246e-05
-2.7464575211e-05
-2.74643665614e-05
-2.74642947372e-05
-2.74643686371e-05
-2.74645788394e-05
-2.74649023927e-05
-2.74653036549e-05
-2.74657361182e-05
-2.74661409723e-05
-2.74664965507e-05
-2.74665461051e-05
-2.74661842728e-05
-2.74657809449e-05
-2.74653555468e-05
-2.74649626975e-05
-2.74646473534e-05
-2.74644436767e-05
-2.74643734556e-05
-2.74644452324e-05
-2.74646500563e-05
-2.7464965921e-05
-2.74653586536e-05
-2.74657834389e-05
-2.74661860207e-05
-2.74665458407e-05
-2.74665829268e-05
-2.74662174788e-05
-2.74658174741e-05
-2.74654017511e-05
-2.74650197999e-05
-2.74647141693e-05
-2.74645171461e-05
-2.74644491673e-05
-2.74645182693e-05
-2.74647161392e-05
-2.74650220871e-05
-2.74654039694e-05
-2.74658192924e-05
-2.74662189203e-05
-2.74665828204e-05
-2.74666146722e-05
-2.74662457142e-05
-2.74658501406e-05
-2.74654465569e-05
-2.74650784525e-05
-2.74647854884e-05
-2.74645971323e-05
-2.74645322032e-05
-2.74645979686e-05
-2.74647869544e-05
-2.74650802321e-05
-2.74654482936e-05
-2.74658516947e-05
-2.74662469849e-05
-2.74666144663e-05
-2.74666461624e-05
-2.74662736589e-05
-2.74658840766e-05
-2.74654951072e-05
-2.74651443334e-05
-2.74648668621e-05
-2.74646895134e-05
-2.74646283883e-05
-2.74646901247e-05
-2.74648680731e-05
-2.74651456189e-05
-2.74654965905e-05
-2.74658854827e-05
-2.74662749846e-05
-2.74666460872e-05
-2.74666859961e-05
-2.74663074115e-05
-2.74659231123e-05
-2.74655502697e-05
-2.74652185387e-05
-2.74649597079e-05
-2.74647948055e-05
-2.74647384734e-05
-2.74647954079e-05
-2.7464960505e-05
-2.74652198628e-05
-2.74655513892e-05
-2.7465924547e-05
-2.74663087733e-05
-2.74666859049e-05
-2.74667300034e-05
-2.74663384031e-05
-2.74659619012e-05
-2.74656069274e-05
-2.74652986037e-05
-2.74650604573e-05
-2.74649108999e-05
-2.74648597452e-05
-2.74649113215e-05
-2.74650614774e-05
-2.74652995372e-05
-2.74656083473e-05
-2.74659633199e-05
-2.74663401887e-05
-2.74667300355e-05
-2.74665667779e-05
-2.74662253743e-05
-2.74659016283e-05
-2.74656047259e-05
-2.74653510357e-05
-2.74651583591e-05
-2.74650379944e-05
-2.74649972662e-05
-2.74650386244e-05
-2.74651593578e-05
-2.7465352467e-05
-2.74656062746e-05
-2.74659036156e-05
-2.74662273238e-05
-2.74665677031e-05
-2.45721691692e-05
-2.45724515195e-05
-2.45727694786e-05
-2.45730974668e-05
-2.45733906916e-05
-2.45736208983e-05
-2.45737667783e-05
-2.45738153543e-05
-2.45737612816e-05
-2.45736099425e-05
-2.45733745847e-05
-2.45730774734e-05
-2.45727479097e-05
-2.45724327182e-05
-2.45721524696e-05
-2.45721682924e-05
-2.45724382699e-05
-2.45727486424e-05
-2.45730715654e-05
-2.45733618588e-05
-2.45735906137e-05
-2.45737359838e-05
-2.45737844006e-05
-2.45737302177e-05
-2.45735791166e-05
-2.45733449369e-05
-2.45730505575e-05
-2.45727260116e-05
-2.45724180981e-05
-2.45721504355e-05
-2.45718483404e-05
-2.45720869777e-05
-2.45723683363e-05
-2.4572668696e-05
-2.45729419876e-05
-2.45731591928e-05
-2.45732978594e-05
-2.45733441444e-05
-2.45732922752e-05
-2.45731481414e-05
-2.45729259012e-05
-2.45726488264e-05
-2.45723469317e-05
-2.45720675837e-05
-2.45718312501e-05
-2.45715598012e-05
-2.45717789082e-05
-2.45720400281e-05
-2.45723246408e-05
-2.45725862e-05
-2.45727954846e-05
-2.45729295995e-05
-2.45729744284e-05
-2.45729241445e-05
-2.45727847442e-05
-2.45725707109e-05
-2.45723056579e-05
-2.45720195936e-05
-2.4571760096e-05
-2.45715428714e-05
-2.45713548628e-05
-2.45715652379e-05
-2.45718149935e-05
-2.4572090398e-05
-2.45723451886e-05
-2.45725500165e-05
-2.4572681688e-05
-2.45727258045e-05
-2.45726765226e-05
-2.45725399185e-05
-2.45723307114e-05
-2.45720727265e-05
-2.45717958559e-05
-2.45715474946e-05
-2.45713385191e-05
-2.45712036648e-05
-2.45714112135e-05
-2.45716538283e-05
-2.45719231192e-05
-2.45721730897e-05
-2.4572374566e-05
-2.45725043031e-05
-2.45725478474e-05
-2.45724993752e-05
-2.45723649739e-05
-2.45721594383e-05
-2.45719065313e-05
-2.45716358434e-05
-2.45713941494e-05
-2.45711878897e-05
-2.45710874466e-05
-2.45712947767e-05
-2.45715326116e-05
-2.45717968557e-05
-2.45720423761e-05
-2.45722404938e-05
-2.4572368211e-05
-2.457241117e-05
-2.45723636381e-05
-2.45722316087e-05
-2.45720297655e-05
-2.45717814921e-05
-2.45715158488e-05
-2.45712786149e-05
-2.45710720909e-05
-2.45709967032e-05
-2.45712050651e-05
-2.45714389725e-05
-2.45716981137e-05
-2.45719386931e-05
-2.45721327189e-05
-2.45722578013e-05
-2.45722999377e-05
-2.45722535737e-05
-2.45721245256e-05
-2.45719271042e-05
-2.45716839975e-05
-2.45714234452e-05
-2.45711897427e-05
-2.45709818589e-05
-2.45709230468e-05
-2.45711321254e-05
-2.45713619933e-05
-2.45716150151e-05
-2.45718492423e-05
-2.45720377626e-05
-2.45721592289e-05
-2.45722001816e-05
-2.45721553718e-05
-2.45720303018e-05
-2.45718386494e-05
-2.45716020463e-05
-2.45713475812e-05
-2.45711176446e-05
-2.4570908557e-05
-2.45708583193e-05
-2.45710670219e-05
-2.45712918183e-05
-2.45715370642e-05
-2.45717630219e-05
-2.45719443053e-05
-2.45720608629e-05
-2.45721001979e-05
-2.45720573992e-05
-2.45719375769e-05
-2.45717534899e-05
-2.4571525307e-05
-2.45712785978e-05
-2.45710533718e-05
-2.4570844371e-05
-2.45707960633e-05
-2.4571002708e-05
-2.45712212962e-05
-2.45714567935e-05
-2.45716722448e-05
-2.45718440899e-05
-2.45719542913e-05
-2.45719914257e-05
-2.45719511759e-05
-2.45718380634e-05
-2.45716636299e-05
-2.45714461383e-05
-2.45712091662e-05
-2.45709899834e-05
-2.4570782618e-05
-2.45707315036e-05
-2.45709349492e-05
-2.45711461304e-05
-2.45713699532e-05
-2.45715723544e-05
-2.45717326205e-05
-2.45718347323e-05
-2.45718691486e-05
-2.45718319626e-05
-2.45717271706e-05
-2.45715646878e-05
-2.45713603342e-05
-2.45711351004e-05
-2.45709231542e-05
-2.45707188463e-05
-2.45706590987e-05
-2.4570859613e-05
-2.45710637061e-05
-2.45712747524e-05
-2.45714623303e-05
-2.45716086286e-05
-2.4571701418e-05
-2.45717323834e-05
-2.45716988926e-05
-2.45716038948e-05
-2.45714553919e-05
-2.45712661686e-05
-2.45710537143e-05
-2.45708488518e-05
-2.45706474259e-05
-2.45705695487e-05
-2.45707699602e-05
-2.45709706539e-05
-2.45711699973e-05
-2.45713417368e-05
-2.45714735232e-05