/*--------------------------------*- C++ -*----------------------------------*\
  =========                 |
  \\      /  F ield         | OpenFOAM: The Open Source CFD Toolbox
   \\    /   O peration     | Website:  https://openfoam.org
    \\  /    A nd           | Version:  7
     \\/     M anipulation  |
\*---------------------------------------------------------------------------*/
FoamFile
{
    version     2.0;
    format      ascii;
    class       volVectorField;
    location    "2.08";
    object      U;
}
// * * * * * * * * * * * * * * * * * * * * * * * * * * * * * * * * * * * * * //

dimensions      [0 1 -1 0 0 0 0];

internalField   nonuniform List<vector> 
22500
(
(-1.36976286903e-05 -1.53995490224e-05 -2.33827198822e-05)
(-1.27452041289e-05 -1.75044517459e-05 -2.44954280299e-05)
(-1.12691830094e-05 -1.95777992542e-05 -2.55428475355e-05)
(-9.5152139682e-06 -2.13841040435e-05 -2.65262916538e-05)
(-7.42304886359e-06 -2.28879027658e-05 -2.73799270579e-05)
(-5.09165621469e-06 -2.40107610716e-05 -2.80385989016e-05)
(-2.58728510768e-06 -2.47047384933e-05 -2.84548562167e-05)
(6.5266243859e-09 -2.49394013535e-05 -2.85982218932e-05)
(2.60019588395e-06 -2.47032772287e-05 -2.84495627405e-05)
(5.10415351316e-06 -2.40078922432e-05 -2.80280741398e-05)
(7.4349285627e-06 -2.28837231671e-05 -2.73643049457e-05)
(9.52633309005e-06 -2.13787889393e-05 -2.65057940181e-05)
(1.12793839566e-05 -1.95715311954e-05 -2.55177553737e-05)
(1.27545865667e-05 -1.74974252316e-05 -2.44660784086e-05)
(1.3705401438e-05 -1.53925446789e-05 -2.33497587288e-05)
(-4.06838675434e-05 -4.55769698183e-05 -0.000130866368616)
(-3.77813707876e-05 -5.17115540744e-05 -0.000140181863704)
(-3.34636418148e-05 -5.77433754732e-05 -0.000149050173957)
(-2.82432320704e-05 -6.30230871967e-05 -0.000157126404162)
(-2.2051095065e-05 -6.74162104508e-05 -0.000163962775411)
(-1.51308917614e-05 -7.06990710282e-05 -0.000169155781705)
(-7.69066733788e-06 -7.27298877518e-05 -0.000172401774333)
(1.90420298638e-08 -7.34164542721e-05 -0.000173507657032)
(7.72833248802e-06 -7.27254886599e-05 -0.0001723857882)
(1.51673431174e-05 -7.06904483409e-05 -0.000169123990306)
(2.20856775663e-05 -6.74037016083e-05 -0.000163915572451)
(2.82754714989e-05 -6.30072497823e-05 -0.000157064432719)
(3.349307925e-05 -5.77248750285e-05 -0.000148974264237)
(3.78079542798e-05 -5.16911036197e-05 -0.000140092996218)
(4.07057772837e-05 -4.555650846e-05 -0.000130766322007)
(-6.53864537783e-05 -7.29223262099e-05 -0.000290178253255)
(-6.04942096805e-05 -8.25423528603e-05 -0.000312003049621)
(-5.35394153734e-05 -9.19178872126e-05 -0.000332694559426)
(-4.51178277219e-05 -0.000100118858761 -0.000351343899567)
(-3.52000755976e-05 -0.000106921292882 -0.000366989773471)
(-2.41388583507e-05 -0.000111997244923 -0.000378797736128)
(-1.22651153678e-05 -0.000115134404637 -0.00038614489089)
(2.95328751039e-08 -0.000116194417559 -0.000388639618717)
(1.23235588728e-05 -0.000115127592982 -0.000386119326549)
(2.41954940266e-05 -0.000111983892503 -0.000378746836082)
(3.5253879475e-05 -0.000106901937485 -0.000366914054217)
(4.5168016008e-05 -0.000100094359632 -0.00035124422541)
(5.35852623286e-05 -9.18893689293e-05 -0.000332572082935)
(6.05354094626e-05 -8.2510986305e-05 -0.000311859085628)
(6.54205841264e-05 -7.2890804736e-05 -0.000290015229066)
(-8.74414852971e-05 -9.71583035666e-05 -0.000488329081243)
(-8.06111284011e-05 -0.000109617896213 -0.00052462867405)
(-7.12300567713e-05 -0.000121649348557 -0.000558741524104)
(-5.99073308714e-05 -0.000132147733641 -0.000589178900563)
(-4.66803395051e-05 -0.000140825174959 -0.000614495107596)
(-3.19817630574e-05 -0.000147286533263 -0.000633476443521)
(-1.62417595314e-05 -0.000151274487731 -0.000645233036588)
(3.74795261415e-08 -0.000152620978966 -0.000649213647569)
(1.63159826042e-05 -0.000151266007854 -0.00064519977162)
(3.20538409873e-05 -0.00014726990177 -0.000633410092196)
(4.67490098895e-05 -0.000140801053815 -0.00061439611571)
(5.99715683277e-05 -0.000132117160778 -0.00058904807186)
(7.12889107218e-05 -0.000121613743082 -0.000558579997082)
(8.06640076769e-05 -0.000109578700199 -0.000524437680746)
(8.74856868771e-05 -9.71185840128e-05 -0.00048811103079)
(-0.000106588455777 -0.000118096329815 -0.000710477838461)
(-9.79349025446e-05 -0.000132696222034 -0.000760923462099)
(-8.6354892946e-05 -0.000146662738318 -0.000807784048102)
(-7.24638129831e-05 -0.000158809400134 -0.000849154184148)
(-5.63761562864e-05 -0.000168810860955 -0.000883258384721)
(-3.85804147384e-05 -0.000176240502667 -0.000908654849039)
(-1.95803725786e-05 -0.000180818962311 -0.000924310576861)
(4.29601894782e-08 -0.000182363597418 -0.000929596869038)
(1.96655160073e-05 -0.000180809511936 -0.000924271704558)
(3.86632843797e-05 -0.000176221952838 -0.000908577154424)
(5.64553700674e-05 -0.000168783926284 -0.000883142082425)
(7.25381895208e-05 -0.000158775189912 -0.000848999778556)
(8.64233154889e-05 -0.000146622793939 -0.000807592363993)
(9.79965398263e-05 -0.000132652099367 -0.000760695277317)
(0.000106640545212 -0.000118051142061 -0.000710214973444)
(-0.00012266027854 -0.000135608211305 -0.0009425154441)
(-0.000112340079127 -0.00015163161002 -0.0010050701044)
(-9.88126247925e-05 -0.000166820444468 -0.00106242575373)
(-8.27151196867e-05 -0.000179979199009 -0.00111251919048)
(-6.42380526437e-05 -0.000190770873698 -0.00115344992461)
(-4.39044303585e-05 -0.000198768322861 -0.00118372460128)
(-2.22664003317e-05 -0.000203688922673 -0.00120230086665)
(4.64351822056e-08 -0.00020534769428 -0.00120855689211)
(2.23584995021e-05 -0.000203679069576 -0.00120225824584)
(4.39942632883e-05 -0.000198748964982 -0.00118363924747)
(6.43242034382e-05 -0.000190742724355 -0.00115332174718)
(8.27963281767e-05 -0.000179943361133 -0.00111234827629)
(9.88876746455e-05 -0.000166778460707 -0.00106221244974)
(0.000112407961536 -0.00015158502361 -0.00100481449667)
(0.000122718331298 -0.000135559947537 -0.000942218375587)
(-0.000135631190653 -0.000149690978983 -0.00117280089517)
(-0.00012382648602 -0.000166445168746 -0.00124450772905)
(-0.000108622451344 -0.000182191930264 -0.00130937688698)
(-9.06957714431e-05 -0.000195775569638 -0.00136544965413)
(-7.03040390597e-05 -0.000206871268114 -0.00141088388887)
(-4.79854635573e-05 -0.00021507529009 -0.00144427730382)
(-2.43173904333e-05 -0.000220115523481 -0.00146467851385)
(4.85080789265e-08 -0.000221813417384 -0.00147153252697)
(2.44136648605e-05 -0.000220105688711 -0.00146463353412)
(4.80795490017e-05 -0.000215055950168 -0.00144418708141)
(7.03945369646e-05 -0.00020684310122 -0.00141074804351)
(9.07813978819e-05 -0.00019573962262 -0.00136526786734)
(0.000108701954445 -0.000182149668686 -0.00130914901894)
(0.000123898734719 -0.000166398039028 -0.00124423309085)
(0.000135693707022 -0.000149641565318 -0.00117247915535)
(-0.000145594491849 -0.000160453070885 -0.00139289213654)
(-0.000132499947144 -0.000177298256491 -0.00147058363895)
(-0.000115899850306 -0.00019300888313 -0.00153996148253)
(-9.65216958188e-05 -0.000206498260366 -0.00159937126696)
(-7.46762769925e-05 -0.000217474230601 -0.00164714908429)
(-5.08993885763e-05 -0.000225573058207 -0.00168206669211)
(-2.57734416789e-05 -0.00023054217054 -0.0017033167948)
(4.97541367171e-08 -0.000232215065935 -0.00171044055917)
(2.58722447578e-05 -0.000230532639407 -0.00170327034079)
(5.09961020439e-05 -0.000225554298342 -0.00168197341068)
(7.47695423269e-05 -0.000217446864494 -0.00164700838143)
(9.66102377867e-05 -0.000206463251055 -0.00159918252382)
(0.000115982422681 -0.000192967573507 -0.00153972418048)
(0.000132575347188 -0.000177251958427 -0.00147029634891)
(0.00014566044923 -0.000160403934793 -0.001392553333)
(-0.00015272089277 -0.000168076246381 -0.0015974754058)
(-0.000138533818116 -0.000184439578234 -0.00167826191038)
(-0.000120818585106 -0.000199595288141 -0.00174955848552)
(-0.000100355504766 -0.000212543442633 -0.00181012235127)
(-7.74918048087e-05 -0.000223040560801 -0.00185851458503)
(-5.27450764183e-05 -0.000230772544369 -0.00189370821625)
(-2.66860875851e-05 -0.000235511397078 -0.00191505451502)
(5.06301051163e-08 -0.000237105922275 -0.00192219687673)
(2.67866770239e-05 -0.000235502350027 -0.00191500705316)
(5.28436714668e-05 -0.000230754720093 -0.0018936128578)
(7.75870916464e-05 -0.000223014514172 -0.00185837062015)
(0.000100446230714 -0.000212510035993 -0.00180992900571)
(0.000120903530786 -0.000199555719211 -0.00174931502742)
(0.000138611743584 -0.000184394999982 -0.00167796626085)
(0.000152789723167 -0.000168028369227 -0.00159712495649)
(-0.000157224133005 -0.000172785005242 -0.00178382498419)
(-0.000142137608072 -0.000188163334012 -0.00186534805514)
(-0.000123581834692 -0.000202315079695 -0.00193657627366)
(-0.000102381493773 -0.000214343175696 -0.00199668856657)
(-7.89021314131e-05 -0.000224062856484 -0.00204445751032)
(-5.36298509942e-05 -0.00023121248549 -0.00207904977757)
(-2.71107312173e-05 -0.000235590553215 -0.00209996946667)
(5.14492860636e-08 -0.000237062976528 -0.00210695709568)
(2.72129883973e-05 -0.000235582100541 -0.00209992117756)
(5.37301955354e-05 -0.000231195812918 -0.00207895274487)
(7.89992913079e-05 -0.000224038442331 -0.00204431099611)
(0.000102474241323 -0.000214311768637 -0.00199649178128)
(0.000123668982429 -0.000202277718969 -0.00193632844409)
(0.000142217892384 -0.000188121002244 -0.0018650465404)
(0.000157295644788 -0.000172739008783 -0.00178346625228)
(-0.000159336285096 -0.000174827080857 -0.00195109262269)
(-0.000143534766017 -0.000188779135856 -0.00203160428823)
(-0.000124403420467 -0.000201536955593 -0.00210140069467)
(-0.000102790165468 -0.000212327971207 -0.00215999871766)
(-7.90607025656e-05 -0.000221026407579 -0.00220633536169)
(-5.36605536256e-05 -0.000227418794215 -0.00223975631973)
(-2.71019953299e-05 -0.000231330117625 -0.00225991149226)
(5.23946274553e-08 -0.000232644883996 -0.00226663274859)
(2.72061680204e-05 -0.00023132232949 -0.00225986240169)
(5.37628834229e-05 -0.000227403410108 -0.00223965768729)
(7.91599551445e-05 -0.000221003820345 -0.00220618647604)
(0.000102885137195 -0.000212298803517 -0.00215979887845)
(0.000124492951465 -0.000201502076059 -0.00210114923967)
(0.000143617575012 -0.000188739343621 -0.00203129807436)
(0.000159410579499 -0.00017478333707 -0.00195072728699)
(-0.000159286288291 -0.000174454495754 -0.00209962189949)
(-0.000142948573644 -0.000186584491614 -0.0021779828303)
(-0.000123498850027 -0.000197611205416 -0.00224555035303)
(-0.000101770419479 -0.000206907774657 -0.00230200422005)
(-7.81157087693e-05 -0.000214391340877 -0.00234640939177)
(-5.2938131514e-05 -0.000219886382316 -0.0023782992108)
(-2.67108744079e-05 -0.000223245118927 -0.00239747477089)
(5.35458859308e-08 -0.000224373245982 -0.00240385849211)
(2.6817371418e-05 -0.000223238048924 -0.00239742486204)
(5.30428485286e-05 -0.00021987238956 -0.00237819894193)
(7.82174479185e-05 -0.000214370725273 -0.00234625808283)
(0.000101868000747 -0.000206881020628 -0.00230180130393)
(0.000123591135008 -0.000197578996223 -0.00224529540989)
(0.000143034261942 -0.000186547431008 -0.00217767230552)
(0.000159363660231 -0.000174413279684 -0.00209925052719)
(-0.000157283470497 -0.000171872332248 -0.00223037603161)
(-0.00014061089587 -0.000181835433189 -0.00230609181513)
(-0.000121091373587 -0.000190862768376 -0.00237111940266)
(-9.95074694602e-05 -0.000198473567889 -0.00242507968039)
(-7.62052627611e-05 -0.000204595046046 -0.00246722486942)
(-5.15537556536e-05 -0.000209081008944 -0.00249733333148)
(-2.59827860183e-05 -0.000211816878145 -0.00251537751927)
(5.49063453602e-08 -0.000212734426229 -0.00252137339333)
(2.60920252262e-05 -0.000211810572278 -0.00251532682921)
(5.16612758369e-05 -0.000209068496736 -0.00249723146767)
(7.63099022053e-05 -0.00020457653603 -0.00246707112202)
(9.96080735788e-05 -0.000198449391847 -0.00242487355797)
(0.000121186820251 -0.000190833407296 -0.002370860823)
(0.000140699860648 -0.000181801266157 -0.00230577713125)
(0.000157364250829 -0.00017183391153 -0.00222999911417)
(-0.000153608439065 -0.000167234581415 -0.00234448470565)
(-0.000136841182141 -0.000174786209689 -0.00241798327499)
(-0.000117426937587 -0.000181611865331 -0.00248048778163)
(-9.61749228253e-05 -0.000187409920401 -0.00253167206509)
(-7.34496180257e-05 -0.000192052579695 -0.00257125747637)
(-4.95850103272e-05 -0.000195435114852 -0.00259935977355)
(-2.49563804883e-05 -0.000197488301106 -0.0026161392438)
(5.64293403517e-08 -0.00019817496858 -0.00262170361598)
(2.50686865608e-05 -0.000197482791406 -0.00261608795949)
(4.9695652635e-05 -0.000195424154872 -0.00259925662964)
(7.35574730568e-05 -0.000192036287112 -0.0025711016011)
(9.62788672942e-05 -0.00018738848019 -0.00253146280874)
(0.000117525869674 -0.000181585540493 -0.0024802253091)
(0.000136933749865 -0.000174755117604 -0.0024176645136)
(0.000153693056621 -0.000167199063154 -0.00234410378343)
(-0.000148887277462 -0.000161478595442 -0.00244268883499)
(-0.000132147719164 -0.00016556958052 -0.00251621055661)
(-0.000112771335867 -0.000170152557927 -0.00257591882892)
(-9.19804880358e-05 -0.000173995931431 -0.00262390353577)
(-7.00117060686e-05 -0.00017702788354 -0.00266061881718)
(-4.71488775931e-05 -0.000179208964719 -0.00268652415666)
(-2.36933976652e-05 -0.000180522058535 -0.00270193745626)
(5.80417722078e-08 -0.000180959143133 -0.00270703883972)
(2.38089438502e-05 -0.000180517388634 -0.00270188603371)
(4.72628083049e-05 -0.000179199651936 -0.00268642059045)
(7.01229276047e-05 -0.000177013975587 -0.00266046195045)
(9.20879033622e-05 -0.000173977498158 -0.00262369217377)
(0.00011287388047 -0.000170129685294 -0.00257565295091)
(0.000132243875669 -0.000165542040496 -0.00251588587735)
(0.000148976187855 -0.00016144652252 -0.00244231076304)
(2.75902441183e-07 3.86259701151e-07 -9.52983089688e-05)
(2.20452635545e-07 4.95742985282e-07 -0.000100033407049)
(1.74254527788e-07 5.78255745095e-07 -0.000104331415638)
(1.40052163529e-07 6.4021455854e-07 -0.000108053482385)
(1.03882089846e-07 6.88683908508e-07 -0.000111080543753)
(6.88141862636e-08 7.23080691112e-07 -0.000113313820153)
(3.37088133421e-08 7.43693272572e-07 -0.00011468424778)
(-1.19670244493e-09 7.50474142208e-07 -0.000115149326159)
(-3.6073979475e-08 7.43274125671e-07 -0.00011468381392)
(-7.11194436797e-08 7.22233789698e-07 -0.000113312931367)
(-1.06196229221e-07 6.87384254301e-07 -0.000111079144792)
(-1.42481878457e-07 6.38471755914e-07 -0.000108051467209)
(-1.76867867874e-07 5.76039223011e-07 -0.000104328629647)
(-2.23246001942e-07 4.93161584182e-07 -0.000100029578707)
(-2.78427435434e-07 3.83679180673e-07 -9.52929131187e-05)
(2.2259525043e-06 2.6560021393e-06 -0.000280400702984)
(2.03816591319e-06 3.22130295766e-06 -0.000293860451087)
(1.79988613608e-06 3.73083442645e-06 -0.000306075695042)
(1.53136351333e-06 4.1682686692e-06 -0.000316648107761)
(1.20391427509e-06 4.53070617723e-06 -0.000325241636692)
(8.30668036565e-07 4.80115065749e-06 -0.000331580498285)
(4.22544063933e-07 4.96845854886e-06 -0.000335468789007)
(-3.66687989543e-09 5.02482994496e-06 -0.000336784876052)
(-4.29806955311e-07 4.9672054009e-06 -0.00033546732274)
(-8.37775973059e-07 4.79863621287e-06 -0.000331577507599)
(-1.21097771265e-06 4.5269117636e-06 -0.000325236967702)
(-1.5386198712e-06 4.16326578338e-06 -0.000316641462796)
(-1.80747839921e-06 3.72465883439e-06 -0.000306066634321)
(-2.04601765254e-06 3.21428241707e-06 -0.000293848207743)
(-2.23307488871e-06 2.64896780797e-06 -0.000280384033681)
(5.14045147437e-06 5.9599901342e-06 -0.000458850028389)
(4.7739322598e-06 7.08667646182e-06 -0.000480328065987)
(4.25437731483e-06 8.13729417699e-06 -0.000499794174394)
(3.62568952058e-06 9.05405514897e-06 -0.000516629198328)
(2.85574625223e-06 9.81599852715e-06 -0.000530303960073)
(1.97219989391e-06 1.03860616414e-05 -0.000540386984962)
(1.00486574996e-06 1.07390245055e-05 -0.000546569088616)
(-6.13157579465e-09 1.08580952511e-05 -0.000548658194073)
(-1.01702527935e-06 1.07369966978e-05 -0.000546566389553)
(-1.98411769451e-06 1.0382003662e-05 -0.000540381503185)
(-2.86750603993e-06 9.80992880548e-06 -0.000530295473087)
(-3.63755632196e-06 9.04612995333e-06 -0.000516617276519)
(-4.26653336834e-06 8.12773265035e-06 -0.000499778172537)
(-4.78624986896e-06 7.07601070555e-06 -0.0004803068668)
(-5.1516814469e-06 5.94936746949e-06 -0.000458821895355)
(8.44893372461e-06 9.66730986932e-06 -0.000630446537377)
(7.85277910981e-06 1.13211231651e-05 -0.000659203314565)
(6.9934086984e-06 1.28798270195e-05 -0.000685209960875)
(5.94026192631e-06 1.42394254517e-05 -0.000707676918283)
(4.66648503551e-06 1.53648134225e-05 -0.000725910348954)
(3.21573330705e-06 1.62037989615e-05 -0.000739346850156)
(1.63687114045e-06 1.67217648703e-05 -0.000747580457889)
(-8.52340890643e-09 1.68962786523e-05 -0.000750359439477)
(-1.65380039684e-06 1.6719180586e-05 -0.000747576295533)
(-3.23237554567e-06 1.61986412093e-05 -0.000739338435579)
(-4.68288009945e-06 1.53571424017e-05 -0.00072589743876)
(-5.95664205224e-06 1.42294574161e-05 -0.000707659038968)
(-7.00994546998e-06 1.28679190627e-05 -0.000685186383195)
(-7.86928841618e-06 1.13079203289e-05 -0.000659172733855)
(-8.46403869558e-06 9.65411749285e-06 -0.000630407031388)
(1.16535476051e-05 1.32199886863e-05 -0.000794892574745)
(1.07858711433e-05 1.52703922169e-05 -0.000830146895058)
(9.56512944907e-06 1.72041600254e-05 -0.000861940552007)
(8.0826147711e-06 1.88791717091e-05 -0.00088936952695)
(6.32251331753e-06 2.02553025836e-05 -0.000911606976957)
(4.34265562043e-06 2.12748550773e-05 -0.000927982457392)
(2.20632891034e-06 2.19014396786e-05 -0.000938010925105)
(-1.07592044409e-08 2.21120524886e-05 -0.000941392380922)
(-2.2277286865e-06 2.18985028568e-05 -0.000938005051657)
(-4.36375402434e-06 2.12690074633e-05 -0.000927970641366)
(-6.34330460666e-06 2.02466358007e-05 -0.000911589015291)
(-8.10326910563e-06 1.88679390473e-05 -0.000889345005429)
(-9.58576849317e-06 1.71907926729e-05 -0.000861908800934)
(-1.08062758985e-05 1.52555925245e-05 -0.000830106588401)
(-1.16722972709e-05 1.32050999771e-05 -0.000794841749762)
(1.44551747179e-05 1.6286450245e-05 -0.000951901745247)
(1.32912716832e-05 1.85695015783e-05 -0.000992848936492)
(1.17187236132e-05 2.07111066316e-05 -0.00102965797498)
(9.84276175786e-06 2.25474265102e-05 -0.00106136662672)
(7.66143126731e-06 2.40419195514e-05 -0.00108704611122)
(5.24263017435e-06 2.51407306991e-05 -0.00110594220216)
(2.65752431573e-06 2.58123538004e-05 -0.00111750734767)
(-1.27695004617e-08 2.60374383825e-05 -0.00112140375856)
(-2.68295148044e-06 2.58092289415e-05 -0.00111749951038)
(-5.26776286814e-06 2.51345192577e-05 -0.0011059265108)
(-7.68622156288e-06 2.40327345475e-05 -0.00108702247029)
(-9.8673092565e-06 2.25355406431e-05 -0.00106133478785)
(-1.17430833812e-05 2.0696985908e-05 -0.00102961747042)
(-1.33152054466e-05 1.85538504937e-05 -0.000992798553056)
(-1.44773074901e-05 1.62705890172e-05 -0.000951839546189)
(1.6695272913e-05 1.86961695713e-05 -0.00110126481222)
(1.52316605413e-05 2.10527980082e-05 -0.00114710215968)
(1.33419709682e-05 2.32411898295e-05 -0.00118816597585)
(1.11347513699e-05 2.50956633914e-05 -0.0012234879948)
(8.62220375732e-06 2.65888791921e-05 -0.00125206444778)
(5.87710965689e-06 2.76774562873e-05 -0.00127307710853)
(2.97194465451e-06 2.83388535975e-05 -0.00128593032117)
(-1.45102777761e-08 2.85597740009e-05 -0.00129025764569)
(-3.00086521195e-06 2.83356750089e-05 -0.0012859202749)
(-5.90575700625e-06 2.76711447422e-05 -0.0012730570833)
(-8.65049755501e-06 2.65795598184e-05 -0.00125203452068)
(-1.1162722589e-05 2.50836102345e-05 -0.00122344818301)
(-1.33696128164e-05 2.32268773534e-05 -0.00118811614105)
(-1.52587189187e-05 2.10368943316e-05 -0.00114704130254)
(-1.6720479364e-05 1.86799267733e-05 -0.00110119106185)
(1.83161953486e-05 2.03932843567e-05 -0.00124286414488)
(1.65704675329e-05 2.26899021766e-05 -0.00129280981068)
(1.44162219794e-05 2.47915498865e-05 -0.00133739874359)
(1.19539502056e-05 2.65500516654e-05 -0.0013757016073)
(9.20852649632e-06 2.79495988172e-05 -0.00140666014769)
(6.25245803044e-06 2.89606569488e-05 -0.00142940826606)
(3.15404548509e-06 2.95710793181e-05 -0.00144331510864)
(-1.59648461784e-08 2.97742425442e-05 -0.00144799414535)
(-3.18589035485e-06 2.95679558379e-05 -0.00144330262829)
(-6.28406181793e-06 2.89544579951e-05 -0.001429383484)
(-9.23978772602e-06 2.79404508331e-05 -0.00140662336901)
(-1.19848404533e-05 2.65382183401e-05 -0.00137565319862)
(-1.4446678853e-05 2.47774885483e-05 -0.00133733900098)
(-1.66002333976e-05 2.26742286689e-05 -0.00129273801344)
(-1.83441351625e-05 2.03771272759e-05 -0.00124277852491)
(1.93310952085e-05 2.14021238188e-05 -0.00137665080956)
(1.73381077941e-05 2.35386941574e-05 -0.00142995169973)
(1.4981890323e-05 2.54554380559e-05 -0.00147737582044)
(1.23447173476e-05 2.70377877343e-05 -0.0015180670434)
(9.46152814685e-06 2.82814171069e-05 -0.00155092519429)
(6.40018245355e-06 2.91712742881e-05 -0.00157505005033)
(3.22087083024e-06 2.97049981941e-05 -0.00158978891385)
(-1.71421166157e-08 2.98819610666e-05 -0.00159474464182)
(-3.25508685911e-06 2.97020161397e-05 -0.0015897738045)
(-6.43419606495e-06 2.91653556901e-05 -0.00157502014037)
(-9.49522754675e-06 2.82726800895e-05 -0.00155088105648)
(-1.23780291388e-05 2.70264733352e-05 -0.001518009456)
(-1.50147055541e-05 2.54419665505e-05 -0.00147730559179)
(-1.73701690158e-05 2.3523612272e-05 -0.0014298684159)
(-1.93614208937e-05 2.13864119676e-05 -0.00137655284658)
(1.97967509829e-05 2.17958637454e-05 -0.00150260232854)
(1.76026706256e-05 2.37050429595e-05 -0.00155853487752)
(1.51098672869e-05 2.53728223868e-05 -0.00160814842172)
(1.23746745301e-05 2.67296634317e-05 -0.00165067649121)
(9.43879443883e-06 2.77816065532e-05 -0.00168498041196)
(6.36213959347e-06 2.85267858358e-05 -0.00171014000731)
(3.19441391623e-06 2.89707208159e-05 -0.00172549748151)
(-1.80672168815e-08 2.91173258858e-05 -0.00173065730548)
(-3.2304974219e-06 2.8967948254e-05 -0.00172547958494)
(-6.39806350504e-06 2.85212786798e-05 -0.00171010466017)
(-9.47444668954e-06 2.77734646548e-05 -0.00168492847342)
(-1.24099499691e-05 2.67190936223e-05 -0.00165060918788)
(-1.51446210058e-05 2.5360192099e-05 -0.0016080671248)
(-1.76366406335e-05 2.36908184591e-05 -0.0015584394704)
(-1.98291196554e-05 2.17808598654e-05 -0.00150249137384)
(1.97914202223e-05 2.1671024748e-05 -0.00162067416704)
(1.74474248297e-05 2.33118529224e-05 -0.0016785494145)
(1.48808874584e-05 2.46942279904e-05 -0.00172976274214)
(1.21170923619e-05 2.58003074607e-05 -0.00177361988159)
(9.20061042342e-06 2.66451688578e-05 -0.00180893879829)
(6.18112142974e-06 2.7237458701e-05 -0.0018347999746)
(3.09684457929e-06 2.75879044905e-05 -0.00185056485413)
(-1.87738545403e-08 2.77031502262e-05 -0.00185585642896)
(-3.1343583705e-06 2.75853933956e-05 -0.0018505440537)
(-6.21852050899e-06 2.72324631938e-05 -0.00183475894894)
(-9.23779078934e-06 2.66377616036e-05 -0.00180887868524)
(-1.21539314014e-05 2.57906500925e-05 -0.00177354236345)
(-1.49172151178e-05 2.46826197672e-05 -0.00172966978147)
(-1.74829694027e-05 2.32986723894e-05 -0.00167844115107)
(-1.98255168116e-05 2.16569035756e-05 -0.00162054936816)
(1.93982478643e-05 2.11289130692e-05 -0.00173074805426)
(1.69557111448e-05 2.24776523055e-05 -0.00178994499428)
(1.43732645098e-05 2.355748512e-05 -0.00184225862732)
(1.16413186452e-05 2.4404878888e-05 -0.00188698692688)
(8.80290773768e-06 2.50419884047e-05 -0.00192290418442)
(5.89621103042e-06 2.54840182794e-05 -0.00194913173096)
(2.94821031898e-06 2.57438021595e-05 -0.00196508760072)
(-1.92959744646e-08 2.58288447774e-05 -0.00197043629604)
(-2.98678436058e-06 2.57415931289e-05 -0.00196506382933)
(-5.93471562314e-06 2.54796102771e-05 -0.00194908486508)
(-8.84125481449e-06 2.50354210339e-05 -0.001922835597)
(-1.16793806598e-05 2.43962585446e-05 -0.00188689872496)
(-1.44108575675e-05 2.35470317826e-05 -0.00184215338286)
(-1.69925540115e-05 2.24656534079e-05 -0.00178982307181)
(-1.94338052149e-05 2.1115824251e-05 -0.00173060836648)
(1.86925044954e-05 2.02591896286e-05 -0.00183256919586)
(1.620337423e-05 2.13006283619e-05 -0.00189265704014)
(1.36589359803e-05 2.20747446284e-05 -0.00194572635568)
(1.10102632789e-05 2.26686862692e-05 -0.00199091098584)
(8.29550554837e-06 2.3108557959e-05 -0.00202700028827)
(5.54166496892e-06 2.34107719321e-05 -0.00205323830831)
(2.76589909207e-06 2.35871796679e-05 -0.00206915319741)
(-1.9661402617e-08 2.36446267259e-05 -0.00207447888374)
(-2.80522010994e-06 2.35853001887e-05 -0.00206912645804)
(-5.58096093933e-06 2.34070051272e-05 -0.00205318555577)
(-8.33470890363e-06 2.31029099769e-05 -0.00202692303546)
(-1.10492541783e-05 2.26611994255e-05 -0.00199081166703)
(-1.36975258542e-05 2.20655470619e-05 -0.00194560816369)
(-1.6241271909e-05 2.12899106325e-05 -0.00189252067475)
(-1.87292848461e-05 2.02472658399e-05 -0.00183241369298)
(1.77430024855e-05 1.91290848163e-05 -0.00192565282385)
(1.52672271107e-05 1.98669580457e-05 -0.00198678010595)
(1.28101252868e-05 2.03369902917e-05 -0.0020404545108)
(1.02834301115e-05 2.06935016438e-05 -0.00208564530744)
(7.72362332177e-06 2.09537247174e-05 -0.002121412975)
(5.14767351436e-06 2.1130507286e-05 -0.00214725470044)
(2.56498738385e-06 2.12327357693e-05 -0.00216286765712)
(-1.98925615581e-08 2.12657294867e-05 -0.00216808097048)
(-2.60478365822e-06 2.12311973385e-05 -0.00216283806984)
(-5.18748088552e-06 2.1127408386e-05 -0.00214719622279)
(-7.76339981083e-06 2.09490362385e-05 -0.0021213270936)
(-1.03230792584e-05 2.06872038863e-05 -0.00208553454703)
(-1.28494663097e-05 2.03291160996e-05 -0.00204032258883)
(-1.53059533941e-05 1.98575743237e-05 -0.001986628532)
(-1.77807905636e-05 1.91183632972e-05 -0.00192548125984)
(1.66155524419e-05 1.79504451149e-05 -0.00200945661248)
(1.42383884469e-05 1.82356007934e-05 -0.00207340686124)
(1.18916587164e-05 1.84193138803e-05 -0.00212718154435)
(9.51045725369e-06 1.85558710031e-05 -0.00217163124091)
(7.1232260795e-06 1.86495730859e-05 -0.00220641443836)
(4.73771232511e-06 1.87100432936e-05 -0.00223136687133)
(2.3570795274e-06 1.87435018813e-05 -0.00224637693283)
(-2.00062172016e-08 1.87538348328e-05 -0.00225137696637)
(-2.39711178691e-06 1.87423069541e-05 -0.00224634487575)
(-4.77778278535e-06 1.87076269495e-05 -0.00223130334287)
(-7.16331250282e-06 1.86458801986e-05 -0.00220632069162)
(-9.55048900075e-06 1.85508392171e-05 -0.00217150946371)
(-1.19314987945e-05 1.84128805954e-05 -0.00212703561251)
(-1.42777044549e-05 1.82276937665e-05 -0.00207323796472)
(-1.6654201265e-05 1.79410229804e-05 -0.00200927273382)
(-9.53254001975e-08 -1.63307748858e-07 -0.000113156626234)
(-5.18460398787e-08 -2.21101221631e-07 -0.000118817734941)
(-2.44962597124e-08 -2.5669862057e-07 -0.000123967156683)
(-5.90128787994e-09 -2.79596103349e-07 -0.000128438970636)
(4.48527931288e-09 -2.93440283307e-07 -0.000132079822254)
(7.54210582169e-09 -3.01046616609e-07 -0.000134768160359)
(5.12126566352e-09 -3.0465963649e-07 -0.000136418346532)
(-3.5429088611e-10 -3.05710284734e-07 -0.000136978121824)
(-5.81999654352e-09 -3.04680935329e-07 -0.000136417166762)
(-8.20253613019e-09 -3.01076498711e-07 -0.000134765815031)
(-5.05087677695e-09 -2.93454166665e-07 -0.000132076339777)
(5.48875758146e-09 -2.79572752287e-07 -0.000128434382118)
(2.42847137765e-08 -2.56591757026e-07 -0.000123961458502)
(5.18865092501e-08 -2.20875541479e-07 -0.000118810752926)
(9.5532814252e-08 -1.63020474205e-07 -0.000113147605024)
(-3.88911093285e-07 -5.68764078984e-07 -0.000328934321451)
(-2.71943066451e-07 -7.3431514464e-07 -0.000344605566625)
(-1.86096000637e-07 -8.50211899324e-07 -0.000358845487852)
(-1.20366215609e-07 -9.32081375575e-07 -0.000371189970536)
(-7.18654914448e-08 -9.87183579846e-07 -0.000381227938473)
(-3.85367993915e-08 -1.02154439003e-06 -0.000388633705291)
(-1.65175742636e-08 -1.04006082833e-06 -0.000393176073024)
(-7.88657916872e-10 -1.04587800632e-06 -0.000394712723583)
(1.49652606156e-08 -1.0400668562e-06 -0.000393172446194)
(3.70776042668e-08 -1.02152880939e-06 -0.000388626498923)
(7.06204056483e-08 -9.87097378312e-07 -0.000381217246417)
(1.19476761652e-07 -9.31882588227e-07 -0.000371175903152)
(1.85685441662e-07 -8.49816627898e-07 -0.000358828060461)
(2.72109602911e-07 -7.33663922611e-07 -0.000344584305729)
(3.89472711179e-07 -5.67982564288e-07 -0.000328907533936)
(-7.77168323756e-07 -1.05041798925e-06 -0.000532590505053)
(-5.98260255703e-07 -1.31759045463e-06 -0.000557026659165)
(-4.53047821917e-07 -1.5193673394e-06 -0.000579183519605)
(-3.313509894e-07 -1.66988030395e-06 -0.000598359338478)
(-2.28600645521e-07 -1.77716027166e-06 -0.000613933417722)
(-1.42323583394e-07 -1.848009469e-06 -0.000625414098874)
(-6.82416384426e-08 -1.88808740697e-06 -0.000632450652006)
(-9.44312383838e-10 -1.90102390316e-06 -0.00063482699517)
(6.63848556186e-08 -1.88802292053e-06 -0.000632444542063)
(1.40582756298e-07 -1.84784656106e-06 -0.000625401964274)
(2.27120501343e-07 -1.77684529641e-06 -0.000613915426497)
(3.303137014e-07 -1.66937232701e-06 -0.000598335697416)
(4.52627635456e-07 -1.51859477137e-06 -0.000579154314)
(5.98584864831e-07 -1.31650998916e-06 -0.0005569912705)
(7.78025233089e-07 -1.0492029883e-06 -0.000532546622283)
(-1.17158385716e-06 -1.51569953039e-06 -0.000724521724024)
(-9.40947820319e-07 -1.8625178438e-06 -0.000756573769494)
(-7.40852905306e-07 -2.13506692723e-06 -0.00078555704188)
(-5.63916514577e-07 -2.34385955797e-06 -0.000810599595348)
(-4.0464536903e-07 -2.49659540385e-06 -0.000830914811348)
(-2.6056617081e-07 -2.59986694366e-06 -0.000845878529881)
(-1.2762154554e-07 -2.65936967513e-06 -0.000855043626641)
(-8.66446571475e-10 -2.67875997184e-06 -0.000858134925713)
(1.25922750084e-07 -2.65923468522e-06 -0.000855035029593)
(2.58988592722e-07 -2.59956499292e-06 -0.000845861464749)
(4.03334173289e-07 -2.49607893141e-06 -0.000830889530558)
(5.6306541517e-07 -2.34309485229e-06 -0.000810566422976)
(7.40658158916e-07 -2.1340001629e-06 -0.000785516191225)
(9.41549007374e-07 -1.86112519645e-06 -0.000756524636775)
(1.17276361933e-06 -1.51416206804e-06 -0.000724461738392)
(-1.55147031849e-06 -1.94738395833e-06 -0.000905210977971)
(-1.27800936057e-06 -2.35380481046e-06 -0.000943828153822)