/*--------------------------------*- C++ -*----------------------------------*\
  =========                 |
  \\      /  F ield         | OpenFOAM: The Open Source CFD Toolbox
   \\    /   O peration     | Website:  https://openfoam.org
    \\  /    A nd           | Version:  7
     \\/     M anipulation  |
\*---------------------------------------------------------------------------*/
FoamFile
{
    version     2.0;
    format      ascii;
    class       surfaceScalarField;
    location    "1.74";
    object      phi;
}
// * * * * * * * * * * * * * * * * * * * * * * * * * * * * * * * * * * * * * //

dimensions      [0 3 -1 0 0 0 0];

internalField   nonuniform List<scalar> 
65775
(
5.44794529921e-11
7.86412508738e-09
1.61917598292e-09
-5.83483358372e-14
7.78394660156e-11
8.21650736578e-09
1.79158734036e-09
9.08349210686e-11
8.50717656635e-09
1.95545763858e-09
8.83851398052e-11
8.7581076274e-09
2.10251560574e-09
7.33972505119e-11
8.95657036268e-09
2.22536758577e-09
4.82983314394e-11
9.10124228639e-09
2.3179755584e-09
1.67947659679e-11
9.19212022179e-09
2.37639936178e-09
-1.69759216092e-11
9.22684018119e-09
2.39738716951e-09
-4.84717141278e-11
9.19218517214e-09
2.37640094738e-09
-7.35534858989e-11
9.10137197905e-09
2.31797880172e-09
-8.85097468158e-11
8.95676010207e-09
2.22537212759e-09
-9.09216538069e-11
8.75832953074e-09
2.10252082105e-09
-7.78805152627e-11
8.50741081702e-09
1.95546257544e-09
-5.44894893739e-11
8.21670730764e-09
1.79158883974e-09
7.86424101502e-09
1.61916150715e-09
-4.81290103296e-14
1.35536925251e-10
1.29553988821e-08
3.85979737579e-09
-1.40487302322e-13
2.18177528573e-10
1.34664360592e-08
4.24572953757e-09
2.55793814911e-10
1.38805589803e-08
4.60869459159e-09
2.51082048646e-10
1.42302719361e-08
4.9316345654e-09
2.08933215092e-10
1.45041846544e-08
5.19947245529e-09
1.37635795056e-10
1.47019637543e-08
5.40028563299e-09
4.78289260893e-11
1.48261205927e-08
5.52659000112e-09
-4.82784296623e-11
1.48742268235e-08
5.5719590956e-09
-1.38064469582e-10
1.48262654032e-08
5.52659242286e-09
-2.09317005784e-10
1.47022508201e-08
5.40029127922e-09
-2.51391304339e-10
1.45046019059e-08
5.19948071098e-09
-2.56007918734e-10
1.42307719626e-08
4.93164431795e-09
-2.18286986446e-10
1.38810871471e-08
4.60870383247e-09
-1.35567328047e-10
1.34669047234e-08
4.24573030378e-09
1.29557078342e-08
3.85976315313e-09
-1.24546794184e-13
1.96245742947e-10
1.59984412065e-08
5.39620849434e-09
-2.03496790323e-13
3.24969384352e-10
1.65433137262e-08
5.91967092943e-09
3.80794406497e-10
1.69807527647e-08
6.40788675298e-09
3.73392045048e-10
1.73383922949e-08
6.83942867659e-09
3.10171954329e-10
1.76150837913e-08
7.19535965178e-09
2.0404874076e-10
1.78123689173e-08
7.46109613829e-09
7.08425354594e-11
1.79361603207e-08
7.62776143352e-09
-7.15003760817e-11
1.7985064296e-08
7.68754370295e-09
-2.04674320269e-10
1.79363594381e-08
7.62776420028e-09
-3.10729834e-10
1.781276095e-08
7.46110269568e-09
-3.7384291182e-10
1.76156515085e-08
7.19536944783e-09
-3.81107957748e-10
1.73390804197e-08
6.83944070584e-09
-3.2513577168e-10
1.69814844489e-08
6.4078990094e-09
-1.96296884611e-10
1.65439800239e-08
5.91967377295e-09
1.59989124058e-08
5.39616708939e-09
-1.87978792007e-13
2.43102833306e-10
1.75116158843e-08
6.42808744615e-09
-2.49314964301e-13
4.05255316606e-10
1.80145454355e-08
7.0388754406e-09
4.74741600661e-10
1.84157206833e-08
7.6036777093e-09
4.64468461006e-10
1.87303276369e-08
8.09955904046e-09
3.85038141746e-10
1.89694049268e-08
8.50625422105e-09
2.5289622203e-10
1.91369802281e-08
8.80857923097e-09
8.7721428714e-11
1.92421211444e-08
8.99762155634e-09
-8.85347012543e-11
1.92848486868e-08
9.0653098435e-09
-2.53668024629e-10
1.92423483878e-08
8.99762596226e-09
-3.85724403412e-10
1.91374271661e-08
8.80858719969e-09
-4.65024007939e-10
1.89700498791e-08
8.50626545789e-09
-4.75131834908e-10
1.873111422e-08
8.09957315195e-09
-4.05469979302e-10
1.84165660397e-08
7.60369370856e-09
-2.43178196578e-10
1.80153334371e-08
7.03888467359e-09
1.75122120204e-08
6.42805365503e-09
-2.39208374042e-13
2.77795837239e-10
1.7904684451e-08
7.06235853305e-09
-2.80136579882e-13
4.6398840533e-10
1.8323998921e-08
7.72359075991e-09
5.43556373952e-10
1.86588340534e-08
8.32966315708e-09
5.30829717844e-10
1.89072889475e-08
8.85804810272e-09
4.39309102954e-10
1.90912681488e-08
9.28889914795e-09
2.88150548309e-10
1.92170928295e-08
9.60776109511e-09
9.98720604677e-11
1.92961066513e-08
9.8065116246e-09
-1.00796804309e-10
1.93296337547e-08
9.87752225212e-09
-2.8902683781e-10
1.92963430431e-08
9.80651543203e-09
-4.40087226824e-10
1.92175568595e-08
9.60776831785e-09
-5.31461327028e-10
1.90919367849e-08
9.2889101499e-09
-5.44005651572e-10
1.89081089615e-08
8.85806359382e-09
-4.64245393001e-10
1.86597273997e-08
8.32968381662e-09
-2.77897957443e-10
1.83248473096e-08
7.72361000785e-09
1.7905357379e-08
7.06234124841e-09
-2.83318480628e-13
3.02991321205e-10
1.75021933962e-08
7.38156833437e-09
-2.97729794185e-13
5.05581679446e-10
1.78207601384e-08
8.06686518979e-09
5.9211476994e-10
1.80793830168e-08
8.6894843705e-09
5.77337011871e-10
1.8256933922e-08
9.22847777167e-09
4.77120629029e-10
1.83833415973e-08
9.66548020086e-09
3.12594887125e-10
1.8466510508e-08
9.98748781767e-09
1.08274873278e-10
1.85189066409e-08
1.01875486874e-08
-1.0927343584e-10
1.85427810562e-08
1.02588386545e-08
-3.13540543533e-10
1.85191360272e-08
1.01875519247e-08
-4.77960449736e-10
1.84669602191e-08
9.9874944197e-09
-5.78021802373e-10
1.83839886797e-08
9.66549128195e-09
-5.92609224502e-10
1.82577306303e-08
9.22849529626e-09
-5.05878102662e-10
1.80802600032e-08
8.68951090195e-09
-3.03125050222e-10
1.78216115023e-08
8.06689632896e-09
1.75028976516e-08
7.38157024433e-09
-3.21945491743e-13
3.21231311446e-10
1.65582444985e-08
7.45362021364e-09
-3.03669791595e-13
5.34056234682e-10
1.67759405197e-08
8.14518800521e-09
6.24865328484e-10
1.69611079426e-08
8.76824086761e-09
6.08315569133e-10
1.70738911042e-08
9.30399008698e-09
5.02085405323e-10
1.71489441746e-08
9.73605374039e-09
3.28630976735e-10
1.71948692329e-08
1.00531367177e-08
1.13769607701e-10
1.72240979418e-08
1.02495072077e-08
-1.14811354328e-10
1.723934498e-08
1.03192542206e-08
-3.29617808102e-10
1.72243085204e-08
1.02495101493e-08
-5.02963525359e-10
1.71952817174e-08
1.00531432227e-08
-6.09036706921e-10
1.7149537428e-08
9.73606564465e-09
-6.25396176221e-10
1.70746247406e-08
9.30401055319e-09
-5.34390838756e-10
1.69619241826e-08
8.76827418294e-09
-3.21402134923e-10
1.67767474493e-08
8.14523133565e-09
1.65589341849e-08
7.45364040344e-09
-3.56526369006e-13
3.34270718921e-10
1.52684589217e-08
7.33523749525e-09
-2.9964685e-13
5.52605795237e-10
1.53956920941e-08
8.02208004297e-09
6.45553943068e-10
1.55169972538e-08
8.63614292422e-09
6.27469733113e-10
1.55764745668e-08
9.16094664919e-09
5.17307379585e-10
1.56104261015e-08
9.58219125691e-09
3.3831754303e-10
1.56273193341e-08
9.89023868621e-09
1.17073562113e-10
1.56385608822e-08
1.00804245018e-08
-1.18135842548e-10
1.56468849259e-08
1.01477044856e-08
-3.39325091848e-10
1.56387440431e-08
1.00804274865e-08
-5.18207518388e-10
1.56276778747e-08
9.89024569582e-09
-6.28216413563e-10
1.56109419266e-08
9.58220474475e-09
-6.46116652521e-10
1.55771151508e-08
9.16097078077e-09
-5.52980132239e-10
1.55177174578e-08
8.6361832999e-09
-3.34485048311e-10
1.5396416005e-08
8.02213444277e-09
1.52690998874e-08
7.33527292373e-09
-3.88133178711e-13
3.43304728484e-10
1.37803606578e-08
7.07333008833e-09
-2.87511704136e-13
5.63732768095e-10
1.38328801854e-08
7.74951632662e-09
6.57281561349e-10
1.39026178867e-08
8.35000788488e-09
6.37923327649e-10
1.3921812821e-08
8.86050677231e-09
5.25411080074e-10
1.39258810243e-08
9.26864787754e-09
3.43389391347e-10
1.39224633454e-08
9.56623152897e-09
1.18788845181e-10
1.39211926795e-08
9.7494168686e-09
-1.19857679661e-10
1.39244573527e-08
9.81390674759e-09
-3.44405530482e-10
1.39213431326e-08
9.74942016526e-09
-5.2632447648e-10
1.39227577485e-08
9.5662394839e-09
-6.38691135347e-10
1.39263051185e-08
9.26866341495e-09
-6.57876141696e-10
1.39223423442e-08
8.86053478882e-09
-5.64150724474e-10
1.39032198729e-08
8.3500547603e-09
-3.43567919383e-10
1.38334951183e-08
7.74957945232e-09
1.3780918992e-08
7.07337646471e-09
-4.18618319706e-13
3.49166867753e-10
1.22026544144e-08
6.7058762377e-09
-2.70323652868e-13
5.69405493521e-10
1.21977570088e-08
7.36897799391e-09
6.62628666669e-10
1.22282322591e-08
7.95453086961e-09
6.42323317041e-10
1.22194998121e-08
8.4501414561e-09
5.28618429897e-10
1.22041342359e-08
8.84511816432e-09
3.45304579904e-10
1.21883590765e-08
9.13242375532e-09
1.19418792602e-10
1.21795435384e-08
9.30878609837e-09
-1.20488697828e-10
1.21794744936e-08
9.37051929253e-09
-3.46325276794e-10
1.21796585593e-08
9.30878981575e-09
-5.29543540844e-10
1.218858416e-08
9.13243276317e-09
-6.43113695621e-10
1.22044589676e-08
8.84513568009e-09
-6.63259332931e-10
1.22199081154e-08
8.45017279903e-09
-5.69872753632e-10
1.22287027445e-08
7.95458265969e-09
-3.49485984589e-10
1.21982451932e-08
7.36904637327e-09
1.22031118328e-08
6.70592845694e-09
-4.49359964364e-13
3.52375530443e-10
1.06135595443e-08
6.26285435037e-09
-2.49572543306e-13
5.71169730136e-10
1.05673588013e-08
6.91265568324e-09
6.63789012534e-10
1.05693592898e-08
7.48380868881e-09
6.42938911159e-10
1.0543408946e-08
7.96549584535e-09
5.28806201271e-10
1.05175865686e-08
8.3484186292e-09
3.45272979186e-10
1.04961057717e-08
8.62644170701e-09
1.19376181854e-10
1.04838493608e-08
8.79664296676e-09
-1.20449537588e-10
1.04818963625e-08
8.85582863425e-09
-3.46301628592e-10
1.04839287494e-08
8.7966469806e-09
-5.29748169029e-10
1.04962609416e-08
8.62645139e-09
-6.43758592599e-10
1.05178109288e-08
8.34843727718e-09
-6.64463467018e-10
1.05436931063e-08
7.9655288848e-09
-5.71693777808e-10
1.05696921927e-08
7.48386254548e-09
-3.52756435144e-10
1.0567710145e-08
6.91272468555e-09
1.06138994817e-08
6.26290654818e-09
-4.82871761647e-13
3.53163462393e-10
9.06800425978e-09
5.76732496377e-09
-2.2644773552e-13
5.70457775481e-10
8.99322514974e-09
6.40484672747e-09
6.62870497114e-10
8.97559948568e-09
6.96308520756e-09
6.41816103697e-10
8.94156029438e-09
7.43248599524e-09
5.2755654598e-10
8.91274831612e-09
7.80490538688e-09
3.4426469871e-10
8.89079432552e-09
8.07490533669e-09
1.1898403762e-10
8.87823006353e-09
8.23975175162e-09
-1.20069769858e-10
8.87551501757e-09
8.29665437074e-09
-3.45310918454e-10
8.87827562892e-09
8.23975563746e-09
-5.28525759502e-10
8.8908830652e-09
8.07491468198e-09
-6.42676150514e-10
8.91287638352e-09
7.80492329276e-09
-6.63599201877e-10
8.94172348662e-09
7.43251768402e-09
-5.71047081662e-10
8.97579471079e-09
6.96313670576e-09
-3.53612799663e-10
8.9934341081e-09
6.40491050441e-09
9.06821712615e-09
5.76737047975e-09
-5.20732731129e-13
3.52001793152e-10
7.60312923144e-09
5.23660312242e-09
-2.0179973912e-13
5.69501014555e-10
7.50725381731e-09
5.86343372511e-09
6.62322755466e-10
7.47815207716e-09
6.41054470548e-09
6.40781855661e-10
7.44431140267e-09
6.86939815066e-09
5.26021739573e-10
7.41853615099e-09
7.23284663415e-09
3.42898706165e-10
7.39984773852e-09
7.49601600751e-09
1.18435194548e-10
7.38908734865e-09
7.65625653457e-09
-1.19546829553e-10
7.38638443964e-09
7.71112466124e-09
-3.43976154385e-10
7.38910281834e-09
7.65625953959e-09
-5.27031905255e-10
7.39987718152e-09
7.49602329399e-09
-6.41695438703e-10
7.418576938e-09
7.23286074472e-09
-6.63117186607e-10
7.44436257769e-09
6.86942374363e-09
-5.70164315257e-10
7.47821516532e-09
6.41058751523e-09
-3.5252471261e-10
7.50732165443e-09
5.86348531608e-09
7.60320984977e-09
5.23663533159e-09
-5.61973548739e-13
3.52190638225e-10
6.24004108483e-09
4.68342132022e-09
-1.75888298713e-13
5.72910094397e-10
6.12713821493e-09
5.30131073086e-09
6.64674626128e-10
6.09750785585e-09
5.83897705661e-09
6.40582669465e-10
6.07124724868e-09
6.28878794132e-09
5.24192372896e-10
6.0523321699e-09
6.64453234818e-09
3.41011150153e-10
6.03878997031e-09
6.90182955982e-09
1.17653513045e-10
6.03083311914e-09
7.05805758949e-09
-1.18805949229e-10
6.02856028517e-09
7.11108905715e-09
-3.42134095868e-10
6.03082341339e-09
7.05805872924e-09
-5.25256973743e-10
6.03876935493e-09
6.90183256499e-09
-6.41561258443e-10
6.05229921154e-09
6.64453872386e-09
-6.65543933667e-10
6.07120119301e-09
6.28880117472e-09
-5.73652774963e-10
6.09745227537e-09
5.83900269902e-09
-3.52789975863e-10
6.12707179746e-09
5.30134204313e-09
6.23999438479e-09
4.68343489333e-09
-6.06880685671e-13
3.7878413899e-10
4.11802912855e-09
-1.45401258046e-13
4.96454219833e-09
5.94498182875e-10
4.72853315673e-09
4.87175705194e-09
6.75247080798e-10
5.25781305427e-09
4.85322034166e-09
6.42721634124e-10
5.69944063166e-09
4.83698541316e-09
5.22229694551e-10
6.04815600978e-09
4.82467006209e-09
3.38427842813e-10
6.30006421806e-09
4.81575926267e-09
1.16544085257e-10
6.45256735019e-09
4.8103919011e-09
-1.17749232397e-10
6.50385672327e-09
4.80859323084e-09
-3.39606980272e-10
6.45256592586e-09
4.81036171884e-09
-5.23356493359e-10
6.30006135905e-09
4.81569803972e-09
-6.43770184697e-10
6.04815177324e-09
4.8245770553e-09
-6.76192412091e-10
5.69943639413e-09
4.83686052925e-09
-5.95318078399e-10
5.25781379469e-09
4.85306517526e-09
-3.79454161398e-10
4.72853186272e-09
4.87157477949e-09
4.11802780551e-09
-6.55211192015e-13
4.96438234336e-09
-1.90503108476e-11
7.24004509952e-10
9.14209251635e-10
2.55929586053e-13
-2.46346566086e-11
7.90801343378e-10
1.00675948875e-09
-2.67906549473e-11
8.6389556511e-10
1.09420488727e-09
-2.58333165678e-11
9.29473906981e-10
1.17256014934e-09
-2.14232035198e-11
9.83475206215e-10
1.23791091009e-09
-1.4097454021e-11
1.02388296919e-09
1.28710870319e-09
-4.75712354664e-12
1.04919069485e-09
1.31813066845e-09
5.29212078036e-12
1.05824166822e-09
1.32929959885e-09
1.45969780007e-11
1.0491245712e-09
1.31813471013e-09
2.18477861085e-11
1.02374930277e-09
1.2871162839e-09
2.61387676853e-11
9.83279320772e-10
1.23792125173e-09
2.69496597901e-11
9.2924700236e-10
1.17257164584e-09
2.46352070635e-11
8.63661923515e-10
1.09421503661e-09
1.89355665452e-11
7.90619038157e-10
1.00676306807e-09
7.23885836723e-10
9.14193776805e-10
1.04349070455e-13
-2.75176877133e-11
1.99384399745e-09
2.61729202109e-09
6.10489254194e-13
-3.51119386338e-11
2.1568534847e-09
2.88790936648e-09
-3.68483672408e-11
2.33133060056e-09
3.14376052402e-09
-3.45266166117e-11
2.48653709395e-09
3.37299951266e-09
-2.81091950278e-11
2.61298002104e-09
3.56420455808e-09
-1.82235935786e-11
2.70663955393e-09
3.70816575342e-09
-5.96038992178e-12
2.76504091362e-09
3.79888195237e-09
7.160869098e-12
2.78597357058e-09
3.8314244389e-09
1.9341530459e-11
2.76489910239e-09
3.79889548845e-09
2.90549129624e-11
2.70635430301e-09
3.70819093287e-09
3.52054441511e-11
2.6125616456e-09
3.5642387537e-09
3.71934254599e-11
2.48603828542e-09
3.37303771321e-09
3.51064955419e-11
2.33081649413e-09
3.14379514147e-09
2.72507445783e-11
2.15642586057e-09
2.88792555039e-09
1.99353261357e-09
2.61726089966e-09
2.3874289349e-13
-1.81844099504e-11
3.33745652921e-09
4.0703498105e-09
8.2636740606e-13
-2.03271927219e-11
3.58378783438e-09
4.49545233174e-09
-1.86374538063e-11
3.84216461494e-09
4.89603902634e-09
-1.56541915e-11
4.06979523271e-09
5.25385152715e-09
-1.1786642454e-11
4.25352137817e-09
5.55152689513e-09
-7.15328735259e-12
4.38836507256e-09
5.77520029678e-09
-1.95779771455e-12
4.47207935032e-09
5.91588927726e-09
3.48628669044e-12
4.50213975838e-09
5.96621958182e-09
8.57391934195e-12
4.47189920741e-09
5.91590985451e-09
1.29840987332e-11
4.38800597076e-09
5.7752389233e-09
1.65102423081e-11
4.25299927711e-09
5.55157971876e-09
1.90650996185e-11
4.06917073826e-09
5.25391139904e-09
2.03084600174e-11
3.8415224029e-09
4.89609507554e-09
1.78254126004e-11
3.58323264196e-09
4.49548382764e-09
3.33701756209e-09
4.07031653117e-09
3.12547228347e-13
1.40188324161e-12
4.52404432986e-09
5.23953631783e-09
9.36200875393e-13
9.38683529146e-12
4.82686513797e-09
5.78833528253e-09
1.60052055089e-11
5.13722518504e-09
6.30260838499e-09
1.87739087724e-11
5.40743544789e-09
6.75973980194e-09
1.72388296832e-11
5.6233345905e-09
7.13848377276e-09
1.21654504577e-11
5.78027410492e-09
7.4221535565e-09
4.82727507438e-12
5.87724779167e-09
7.60011658998e-09
-3.21904973819e-12
5.91214548647e-09
7.66361108657e-09
-1.06724894098e-11
5.87705456208e-09
7.60013915066e-09
-1.59839640988e-11
5.77988987885e-09
7.42219810221e-09
-1.78808017322e-11
5.62277746408e-09
7.13854636085e-09
-1.55669088957e-11
5.4067641898e-09
6.75981300432e-09
-9.42453080116e-12
5.1365285445e-09
6.30268053389e-09
-1.81061113673e-12
4.82624270697e-09
5.7883834821e-09
4.52351496052e-09
5.23951417844e-09
3.40725759689e-13
2.63737221086e-11
5.43393163199e-09
6.12547273659e-09
9.70683332667e-13
4.65117973622e-11
5.76451408888e-09
6.76626104845e-09
5.85277303095e-11
6.09300063043e-09
7.362400791e-09
6.02801001267e-11
6.37520006169e-09
7.88903734252e-09
5.17891220813e-11
6.5980490401e-09
8.32311264938e-09
3.49485760317e-11
6.75833015132e-09
8.64690174821e-09
1.2743614684e-11
6.85685301708e-09
8.84939700622e-09
-1.12129276739e-11
6.89240830664e-09
8.92144805992e-09
-3.35298615383e-11
6.85665924735e-09
8.84942050797e-09
-5.06004111117e-11
6.75794654458e-09
8.64694836457e-09
-5.94394589438e-11
6.5974950755e-09
8.32317915611e-09
-5.81256900197e-11
6.37453091708e-09
7.88911752923e-09
-4.65732415116e-11
6.09229875236e-09
7.36248439617e-09
-2.68060445358e-11
5.76387188965e-09
6.76632579084e-09
5.43334890321e-09
6.12546934704e-09
3.33495955089e-13
5.29337145027e-11
6.02310027937e-09
6.73882928968e-09
9.54320100384e-13
8.56960864861e-11
6.35710100689e-09
7.44192826425e-09
1.02907649632e-10
6.67514280763e-09
8.09059299674e-09
1.03039323853e-10
6.94436982119e-09
8.65961762526e-09
8.70220047127e-11
7.15402365025e-09
9.12590418061e-09
5.80101143607e-11
7.30300738579e-09
9.47213691744e-09
2.0701763574e-11
7.39405034116e-09
9.68791624917e-09
-1.93373615521e-11
7.42702667227e-09
9.76447094549e-09
-5.67480902115e-11
7.39386128245e-09
9.68793864984e-09
-8.59692109247e-11
7.30263481204e-09
9.47218180097e-09
-1.02302123633e-10
7.15348782781e-09
9.1259697073e-09
-1.025702118e-10
6.94372062076e-09
8.65969982609e-09
-8.57853253136e-11
6.67445565113e-09
8.0906843702e-09
-5.33763887261e-11
6.35645431527e-09
7.44200844014e-09
6.02248943755e-09
6.73884715931e-09
3.00115924644e-13
7.83461336999e-11
6.29711859656e-09
7.10064019151e-09
9.07780287631e-13
1.23272178951e-10
6.61702748952e-09
7.84069132658e-09
1.4509750645e-10
6.9045769525e-09
8.51737487296e-09
1.43240845717e-10
7.14399903702e-09
9.10659183971e-09
1.19841956421e-10
7.32729966607e-09
9.58650224801e-09
7.93473056845e-11
7.4557381564e-09
9.94117280259e-09
2.80240912432e-11
7.53370108055e-09
1.01614056343e-08
-2.68670023492e-11
7.56207401963e-09
1.02392867702e-08
-7.82803295901e-11
7.53352004477e-09
1.01614258728e-08
-1.18958204055e-10
7.45538297548e-09
9.94121397658e-09
-1.42632713591e-10
7.32679095585e-09
9.58656418978e-09
-1.44840283177e-10
7.14338165843e-09
9.10667321589e-09
-1.23394442502e-10
6.90391822688e-09
8.51747140829e-09
-7.87920708392e-11
6.61639376838e-09
7.84078479184e-09
6.29649470448e-09
7.1006782181e-09
2.5148614073e-13
1.00857909111e-10
6.29132710893e-09
7.23959623321e-09
8.44064572951e-13
1.56939680648e-10
6.58660318407e-09
7.9967344714e-09
1.82639557866e-10
6.8325216375e-09
8.68283712384e-09
1.78670859591e-10
7.03337339669e-09
9.27586216517e-09
1.48521424183e-10
7.18391055109e-09
9.75601199038e-09
9.78763519096e-11
7.28762490786e-09
1.01092366919e-08
3.43512144275e-11
7.35008599656e-09
1.03277670685e-08
-3.34120712435e-11
7.37295619789e-09
1.04047574306e-08
-9.70148175803e-11
7.34991372849e-09
1.03277848538e-08
-1.47816721587e-10
7.28728827345e-09
1.01092735723e-08
-1.78201253428e-10
7.18342994778e-09
9.75606941806e-09
-1.82470417233e-10
7.03278928565e-09
9.2759413126e-09
-1.57099660245e-10
6.83189300455e-09
8.68293671556e-09
-1.01306462976e-10
6.58598551355e-09
7.99683796351e-09
6.29069786478e-09
7.23965067516e-09
1.93702244532e-13
1.19524549076e-10
6.05611420433e-09
7.18849314724e-09
7.73938290904e-13
1.85434047263e-10
6.32198607037e-09
7.9484939063e-09
2.142695961e-10
6.52270411063e-09
8.63127607901e-09
2.08298891966e-10
6.6827999072e-09
9.21732228176e-09
1.72336405253e-10
6.79954856888e-09
9.68921293058e-09
1.13181574539e-10
6.87831667884e-09
1.00349028914e-08
3.95536326839e-11
6.92530481199e-09
1.02480046697e-08
-3.88270342584e-11
6.94264355524e-09
1.03227545954e-08
-1.12521136224e-10
6.92514273255e-09
1.0248020109e-08
-1.71808679397e-10
6.87800063991e-09
1.00349355733e-08
-2.07968833431e-10
6.79909814884e-09
9.68926563408e-09
-2.14192534534e-10
6.68225046384e-09
9.2173982191e-09
-1.85636657659e-10
6.52210664905e-09
8.63137634482e-09
-1.19978095235e-10
6.32138519214e-09
7.94860289115e-09
6.05548127466e-09
7.18855826533e-09
1.31405885837e-13
1.34029915005e-10
5.64655760713e-09
6.98093068472e-09
7.03208976445e-13
2.08259077231e-10
5.88233624034e-09
7.73463378288e-09
2.3959540149e-10
6.0397108869e-09
8.40643143976e-09
2.31946974704e-10
6.1614113581e-09
8.97940894949e-09
1.91276881017e-10
6.24701299419e-09
9.4385312971e-09
1.25316830138e-10
6.30325255135e-09
9.77362985622e-09
4.36624396637e-11
6.33641325836e-09
9.9794915909e-09
-4.31364036408e-11
6.34876807759e-09
1.00513327393e-08
-1.24847124203e-10
6.33626224924e-09
9.97950480437e-09
-1.90918938895e-10
6.3029582717e-09
9.77365838278e-09
-2.31754051241e-10
6.246592729e-09
9.43857881555e-09
-2.3961263452e-10
6.16089585078e-09
8.97948009752e-09
-2.08509644701e-10
6.03914227512e-09
8.40652894322e-09
-1.34493165797e-10
5.88174881215e-09
7.7347422441e-09
5.64591952298e-09
6.98099909481e-09
6.75881285508e-14
1.44513497251e-10
5.11571211044e-09
6.64876709782e-09
6.36808263048e-13
2.25485368678e-10
5.32310154741e-09
7.39112065362e-09
2.58880257151e-10
5.44211531354e-09
8.04821536012e-09
2.50078442848e-10
5.53035640578e-09
8.60554750478e-09
2.05858607554e-10
5.58955092889e-09
9.05027739435e-09
1.34674856886e-10
5.62717459044e-09
9.37386263025e-09
4.68225938867e-11
5.64905059652e-09
9.57199851886e-09
-4.64847295475e-11
5.65729658381e-09
9.64073343882e-09
-1.34384943361e-10
5.64891212387e-09
9.5720093249e-09
-2.05662752187e-10
5.62690430301e-09
9.37388639578e-09
-2.50019208794e-10
5.58916306048e-09
9.05031821408e-09
-2.58993443411e-10
5.52987504681e-09
8.60561083732e-09
-2.25789323716e-10
5.44157403933e-09
8.04830497552e-09
-1.44992013806e-10
5.32252503833e-09
7.39122094306e-09
5.11506433657e-09
6.64882995085e-09
3.62080148123e-15
1.51388642279e-10
4.51080175595e-09
6.22046653513e-09
5.74228623056e-13
2.37631668375e-10
4.69239873001e-09
6.94947903054e-09
2.72990667277e-10
4.77908591667e-09
7.59092867437e-09
2.63751335088e-10
4.83986820403e-09
8.13237772456e-09
2.17063101693e-10
4.87837496203e-09
8.56292092351e-09
1.41931778788e-10
4.90197179756e-09
8.87537393412e-09
4.92738767666e-11
4.91549583156e-09
9.06608866583e-09
-4.91137219757e-11
4.92064607832e-09
9.13180101023e-09
-1.41812108068e-10
4.91537209033e-09
9.06609639454e-09
-2.17022020703e-10
4.9017283338e-09
8.87539132847e-09
-2.63822258936e-10
4.87802166676e-09
8.56295199376e-09
-2.73200313597e-10
4.83942256805e-09
8.13242823413e-09
-2.37993096071e-10
4.77857223249e-09
7.5910032235e-09
-1.51888564457e-10
4.69183344991e-09
6.94956201213e-09
4.51015014136e-09
6.22051389195e-09
-5.9044598991e-14
1.55235443724e-10
3.8715634665e-09
5.72026305639e-09
5.18240232723e-13
2.458616377e-10
4.02928520441e-09
6.43606763355e-09
2.83716657407e-10
4.08924052686e-09
7.06268087224e-09
2.74852780035e-10
4.12892279341e-09
7.58934441501e-09
2.26447289567e-10
4.15288493598e-09
8.00686808225e-09
1.48090114873e-10
4.16725477948e-09
8.30920993179e-09
5.13566917858e-11
4.17540768162e-09
8.49318069199e-09
-5.13650570326e-11
4.17850505933e-09
8.55608788953e-09
-1.48132292954e-10
4.17529969995e-09
8.49318419627e-09
-2.26553724225e-10
4.16704061502e-09
8.30921837516e-09
-2.75048413997e-10
4.15257049553e-09
8.00688485846e-09
-2.84020383477e-10
4.12851663009e-09
7.58937511305e-09
-2.46281229622e-10
4.08875585344e-09
7.06273115764e-09
-1.55758355452e-10
4.02873198695e-09
6.4361233593e-09
3.87091092313e-09
5.72028558816e-09
-1.16141018109e-13
1.56144512892e-10
3.23056803817e-09
5.16796214794e-09
4.68938502404e-13
2.51993534638e-10
3.3627356663e-09
5.87213406159e-09
2.93974773746e-10
3.40072657528e-09
6.48562968888e-09
2.86190608776e-10
3.42645980666e-09
6.99915315479e-09
2.36172784014e-10
3.44239406471e-09
7.40515287449e-09
1.54478814744e-10
3.45229189491e-09
7.69858503602e-09
5.3525079594e-11
3.45793679129e-09
7.87657958953e-09
-5.36924724331e-11
3.45995979824e-09
7.93693410763e-09
-1.54673047643e-10
3.45784478588e-09
7.87657754803e-09
-2.36416168074e-10
3.45210744633e-09
7.69858161677e-09
-2.86501972074e-10
3.44211753369e-09
7.40515027198e-09
-2.94366526194e-10
3.42609353178e-09
6.99915604037e-09
-2.52468117208e-10
3.40027604958e-09
6.48564497406e-09
-1.56690046306e-10
3.36219719322e-09
5.87215247023e-09
3.2299192839e-09
5.16795359229e-09
-1.68333646889e-13
1.41814050001e-10
4.5785573971e-09
4.21743142932e-13
2.62794679165e-09
2.55152528546e-10
5.27386605787e-09
2.7041705711e-09
3.05508186975e-10
5.87613566186e-09
2.73215500914e-09
2.99910912418e-10
6.37832624584e-09
2.75327109247e-09
2.48191250447e-10
6.77442145369e-09
2.76794499931e-09
1.62478525102e-10
7.06021626326e-09
2.77794573564e-09
5.62690711138e-11
7.2330366375e-09
2.78375889045e-09
-5.65828088647e-11
7.29110593758e-09
2.78564181391e-09
-1.62811084827e-10
7.23302840889e-09
2.78367869084e-09
-2.48556898838e-10
7.06019959927e-09
2.77778519535e-09
-3.00320824547e-10
6.77439692611e-09
2.76770169312e-09
-3.05969170242e-10
6.37829644988e-09
2.75294343996e-09
-2.55667824724e-10
5.87610808314e-09
2.731736578e-09
-1.42372711879e-10
5.27383369834e-09
2.70365209958e-09
4.57852455041e-09
-2.12312666678e-13
2.62731012229e-09
8.64938997314e-12
3.60172706933e-11
8.69692571073e-10
3.29651988745e-14
1.66646186833e-11
3.68789859765e-11
9.62125259459e-10
2.11590251672e-11
4.00631035287e-11
1.04994661373e-09
2.17930397263e-11
4.31837824926e-11
1.12902196058e-09
1.86606506475e-11
4.60697668096e-11
1.19522040863e-09
1.25155396152e-11
4.82594126345e-11
1.24519883157e-09
4.40837541704e-12
4.96441436274e-11
1.27676001971e-09
-4.3946587309e-12
5.01299590681e-11
1.28811012888e-09
-1.24992973208e-11
4.95911579116e-11
1.27676585426e-09
-1.86418832203e-11
4.81537378888e-11
1.24521009206e-09
-2.17764639881e-11
4.59153892005e-11
1.19523608828e-09
-2.11520760712e-11
4.29972287415e-11
1.12904004786e-09
-1.66805981339e-11
3.98648683906e-11
1.04996368459e-09
-8.68504504549e-12
3.67129426565e-11
9.62135409712e-10
3.59045202243e-11
8.69684359889e-10
-4.0874360378e-15
2.04426618206e-11
2.43717597336e-10
2.38933581295e-09
1.31067440077e-13
3.87858444171e-11
2.64380182921e-10
2.64249050941e-09
4.93795213074e-11
2.91191992276e-10
2.88251173993e-09
5.07986878155e-11
3.17074200989e-10
3.09813428309e-09
4.34837510971e-11
3.39648751357e-10
3.27832687299e-09
2.91591974915e-11
3.568766948e-10
3.41419293925e-09
1.03062929822e-11
3.67757902913e-10
3.49988298573e-09
-1.01397993454e-11
3.71601378042e-10
3.53061787986e-09
-2.89996281662e-11
3.67634746633e-10
3.49990034903e-09
-4.33431977127e-11
3.56630154061e-10
3.41422637363e-09
-5.0696230851e-11
3.39288151859e-10
3.27837331647e-09
-4.93373933665e-11
3.16632745029e-10
3.0981877564e-09
-3.88257978921e-11
2.90722298765e-10
2.88256235427e-09
-2.05495280712e-11
2.63968183671e-10
2.64252159373e-09
2.43412808784e-10
2.38932066422e-09
-3.15402066943e-16
2.86650196162e-11
6.08775113883e-10
3.67667680639e-09
2.41496812941e-13
5.34746858706e-11
6.65864870798e-10
4.06953484391e-09
6.78024770159e-11
7.32186864126e-10
4.4411306976e-09
6.95518565521e-11
7.95318444233e-10
4.77424977258e-09
5.94503294502e-11
8.49444833394e-10
5.05217562287e-09
3.98429911126e-11
8.90504653684e-10
5.26146721218e-09
1.41183050933e-11
9.16329967393e-10
5.3932796969e-09
-1.37451717876e-11
9.25458164721e-10
5.44042642776e-09
-3.94943520382e-11
9.16160159754e-10
5.39330715036e-09
-5.91556212207e-11
8.90165705945e-10
5.26152001332e-09
-6.93458599913e-11
8.4895183557e-10
5.05224892299e-09
-6.77185513772e-11
7.94716157925e-10
4.77433437042e-09
-5.35332398769e-11
7.31546145826e-10
4.44121179369e-09
-2.8837638286e-11
6.6528590148e-10
4.06958814753e-09
6.08318770828e-10
3.67666463792e-09
1.63854006753e-14
3.58620409666e-11
1.06416009538e-09
4.74821303348e-09
3.48607361866e-13
6.5470576743e-11
1.16417341947e-09
5.26076058899e-09
8.23282392043e-11
1.27443460811e-09
5.74387712771e-09
8.41166287528e-11
1.37793423514e-09
6.17568848691e-09
7.17675291189e-11
1.46549623331e-09
6.53508981268e-09
4.80663049105e-11
1.53139698887e-09
6.80522151628e-09
1.70581983163e-11
1.57263449349e-09
6.97503702798e-09
-1.64935411422e-11
1.58719961127e-09
7.03560566094e-09
-4.75447420754e-11
1.5724397271e-09
6.9750719108e-09
-7.1334999645e-11
1.53101018103e-09
6.80528864016e-09
-8.38211049354e-11
1.46493472365e-09
6.53518323598e-09
-8.22099819998e-11
1.37724617333e-09
6.17579716482e-09
-6.55461200912e-11
1.27369711964e-09
5.7439835921e-09
-3.60916010181e-11
1.16348746488e-09
5.26083635944e-09
1.06358557809e-09
4.74821361689e-09
4.05978810407e-14
4.37039341737e-11
1.54041388764e-09
5.60532275834e-09
4.3836190812e-13
7.77193130645e-11
1.68041993081e-09
6.21629206534e-09
9.66465539224e-11
1.82883852937e-09
6.78938809436e-09
9.82297838039e-11
1.9661536279e-09
7.29953628438e-09
8.36058362546e-11
2.08079074198e-09
7.72270839645e-09
5.59361078811e-11
2.16627849674e-09
8.03991770688e-09
1.98495632173e-11
2.21945565948e-09
8.2388556693e-09
-1.9157656205e-11
2.2382186562e-09
8.30960304477e-09
-5.53013980769e-11
2.21925609171e-09
8.23889469366e-09
-8.30862948263e-11
2.16588348958e-09
8.03999297318e-09
-9.78817139468e-11
2.0802185199e-09
7.72281382054e-09
-9.65133760972e-11
1.96545025318e-09
7.29966061951e-09
-7.78139772265e-11
1.82807689041e-09
6.7895135053e-09
-4.39803196233e-11
1.67969115609e-09
6.21638854121e-09
1.53976398561e-09
5.60534123322e-09
6.11319244469e-14
5.28682932949e-11
1.97604503499e-09
6.25004898932e-09
5.01424622386e-13
9.16165217695e-11
2.14642609759e-09
6.93743299637e-09
1.12560352549e-10
2.32053156678e-09
7.5782345047e-09
1.13712509085e-10
2.4791794314e-09