/*--------------------------------*- C++ -*----------------------------------*\
  =========                 |
  \\      /  F ield         | OpenFOAM: The Open Source CFD Toolbox
   \\    /   O peration     | Website:  https://openfoam.org
    \\  /    A nd           | Version:  7
     \\/     M anipulation  |
\*---------------------------------------------------------------------------*/
FoamFile
{
    version     2.0;
    format      ascii;
    class       volVectorField;
    location    "1.74";
    object      U;
}
// * * * * * * * * * * * * * * * * * * * * * * * * * * * * * * * * * * * * * //

dimensions      [0 1 -1 0 0 0 0];

internalField   nonuniform List<vector> 
22500
(
(3.44120613962e-05 3.8380818735e-05 0.000790406328075)
(3.21591692725e-05 4.30305474809e-05 0.000829413398771)
(2.81291899754e-05 4.78223896036e-05 0.000865048559266)
(2.36748921879e-05 5.18814968773e-05 0.00089572336639)
(1.84144683925e-05 5.52512205499e-05 0.000920520893343)
(1.261385013e-05 5.7759576617e-05 0.00093872795202)
(6.41026939651e-06 5.93078896941e-05 0.000949857411012)
(-2.68519717641e-09 5.98317503078e-05 0.000953617657847)
(-6.41556279074e-06 5.93077939626e-05 0.000949856772099)
(-1.26189049807e-05 5.7759441651e-05 0.000938726674323)
(-1.84189744682e-05 5.52511787298e-05 0.000920519063445)
(-2.36785599657e-05 5.18815939821e-05 0.000895721261996)
(-2.81317427828e-05 4.78228351736e-05 0.000865046461266)
(-3.21606133686e-05 4.30312119208e-05 0.000829411036957)
(-3.4412408353e-05 3.83815043357e-05 0.000790398934723)
(9.85322330321e-05 0.000110304699003 0.00190939804899)
(9.18116859828e-05 0.000123324151628 0.00198359541638)
(8.04999878388e-05 0.000136521578962 0.00205032501498)
(6.75971904304e-05 0.000147796939963 0.00210695834697)
(5.25500228655e-05 0.000157142335783 0.00215218059214)
(3.59667710923e-05 0.000164094237204 0.00218507020855)
(1.82691420364e-05 0.000168384724074 0.00220504466562)
(-6.66795253979e-09 0.00016983551161 0.00221176509153)
(-1.82822962733e-05 0.000168384827857 0.00220504247391)
(-3.59793520018e-05 0.000164094560541 0.00218506588423)
(-5.25614040138e-05 0.00015714312062 0.00215217445955)
(-6.76066807134e-05 0.000147798234859 0.00210695126527)
(-8.0506953649e-05 0.000136523670973 0.00205031796185)
(-9.18160818469e-05 0.00012332661855 0.00198358773215)
(-9.85339413402e-05 0.000110306969008 0.00190937995864)
(0.00014291416864 0.000160060478215 0.00270837282564)
(0.000132426467153 0.000177610537761 0.00279460995695)
(0.000115712348396 0.000195301921995 0.00287102301764)
(9.67565248469e-05 0.00021032647494 0.00293507644651)
(7.49872130706e-05 0.000222712931186 0.00298566213792)
(5.12019932412e-05 0.000231889470891 0.00302213830491)
(2.59699418276e-05 0.000237538306422 0.00304415877944)
(-9.76228627654e-09 0.000239445908451 0.00305153969149)
(-2.59892144959e-05 0.000237538911261 0.00304415542665)
(-5.12204724078e-05 0.000231890815231 0.00302213172208)
(-7.50041197056e-05 0.000222715275069 0.00298565285775)
(-9.67709588934e-05 0.000210329833485 0.00293506575224)
(-0.000115723406749 0.000195306389276 0.00287101258308)
(-0.000132434022427 0.00017761537768 0.00279459940796)
(-0.000142917843595 0.000160064722567 0.00270834933098)
(0.000172762718633 0.000193497508119 0.00328272375699)
(0.000159178628778 0.000212914315549 0.00336814975321)
(0.000138491925762 0.000232504518112 0.00344259581279)
(0.000115293224221 0.000248956686436 0.00350417439422)
(8.90502635057e-05 0.000262441465463 0.00355223279923)
(6.06485234235e-05 0.000272380722524 0.0035865655938)
(3.07127231821e-05 0.000278479630379 0.00360715709941)
(-1.20730319769e-08 0.000280535769122 0.00361403201776)
(-3.07365553343e-05 0.000278480636258 0.00360715322051)
(-6.06713691555e-05 0.000272382874355 0.00358655801939)
(-8.90712499097e-05 0.000262445011942 0.00355222221557)
(-0.000115311376566 0.000248961638748 0.00350416235573)
(-0.00013850621969 0.000232510814605 0.00344258460311)
(-0.000159188920557 0.000212921016195 0.00336813985879)
(-0.000172768434619 0.000193503467389 0.00328270214223)
(0.000192167970687 0.000215293626888 0.00369489790919)
(0.000176102586489 0.000234869715129 0.00377253731999)
(0.000152544057441 0.000254753307898 0.00383891687542)
(0.00012645608984 0.000271234733969 0.00389299330894)
(9.73536511102e-05 0.000284664656491 0.00393463615955)
(6.61409523909e-05 0.000294512559658 0.00396407195807)
(3.34435900195e-05 0.000300536064196 0.00398159519732)
(-1.37318480643e-08 0.000302563351159 0.00398742066361)
(-3.3470683931e-05 0.000300537310403 0.0039815913552)
(-6.61668972171e-05 0.000294515194087 0.00396406451515)
(-9.73775166821e-05 0.000284668906293 0.00393462590556)
(-0.000126476894463 0.000271240624209 0.00389298197585)
(-0.000152560787114 0.000254760730593 0.00383890728291)
(-0.00017611510974 0.000234877599551 0.00377253101717)
(-0.000192175626239 0.000215300817264 0.00369488307966)
(0.000203397522017 0.000227948578721 0.00398825888602)
(0.000185414065069 0.000246498046353 0.00405475257602)
(0.000159900977239 0.000265586293517 0.0041103635915)
(0.00013201944976 0.000281188556606 0.0041548688711)
(0.000101321617049 0.000293828281607 0.00418861504597)
(6.86772514935e-05 0.000303051331494 0.0042121760248)
(3.46768171806e-05 0.000308675579409 0.00422608037885)
(-1.48307259948e-08 0.000310565593695 0.00423068044519)
(-3.47060694873e-05 0.000308676951067 0.00422607698602)
(-6.87052442037e-05 0.000303054208904 0.00421216952814)
(-0.000101347399677 0.000293832866711 0.00418860630643)
(-0.00013204207329 0.000281194886313 0.0041548597633)
(-0.000159919532846 0.000265594249018 0.00411035742814)
(-0.000185428469385 0.000246506507175 0.00405475186712)
(-0.000203406999949 0.000227956450195 0.00398825290075)
(0.000208183923601 0.000233339748018 0.00419424898878)
(0.000188799665055 0.000250071223619 0.00424854052831)
(0.000162107926676 0.000267641939839 0.00429281000613)
(0.000133321987378 0.000281798622461 0.00432750531569)
(0.000102022073747 0.000293202763811 0.00435333799971)
(6.90022235978e-05 0.000301487453635 0.00437111115986)
(3.47950395415e-05 0.000306525830808 0.00438149166735)
(-1.54723634037e-08 0.000308216757971 0.00438490663198)
(-3.48255541249e-05 0.000306527217774 0.00438148897291)
(-6.9031425543e-05 0.000301490347927 0.00437110609904)
(-0.000102049025174 0.000293207336793 0.00435333149903)
(-0.000133345798661 0.000281804918707 0.00432749940409)
(-0.000162127823209 0.00026764984306 0.00429280846478)
(-0.000188815650642 0.000250079656186 0.00424854652881)
(-0.000208195082033 0.000233347723896 0.00419425222637)
(0.000208043934244 0.00023313680748 0.00433625763745)
(0.000187726247301 0.000247587583077 0.0043787316027)
(0.000160499440084 0.000263206881849 0.00441237212177)
(0.000131508935103 0.000275612437189 0.00443809289342)
(0.000100360781277 0.000285554133435 0.00445682872672)
(6.77433851234e-05 0.000292750560722 0.00446949067208)
(3.41192253619e-05 0.000297117641251 0.0044767923682)
(-1.57746943578e-08 0.000298581830823 0.00447917817133)
(-3.41503407088e-05 0.000297118934341 0.00447679048386)
(-6.7773186503e-05 0.000292753249927 0.00446948727013)
(-0.000100388369274 0.00028555836221 0.00445682481754)
(-0.000131533496729 0.000275618257473 0.00443809069982)
(-0.000160520348566 0.000263214194806 0.00441237586483)
(-0.000187743589269 0.000247595388634 0.00437874470527)
(-0.000208056640048 0.00023314433502 0.00433626950284)
(0.000204236745435 0.000228741993004 0.00443187208457)
(0.000183394633415 0.000240694431525 0.00446374758946)
(0.000156155000191 0.000254131883446 0.00448816388199)
(0.000127496959253 0.00026465692698 0.00450628807541)
(9.70554169154e-05 0.000273054820763 0.00451913755178)
(6.53940248299e-05 0.000279120092334 0.00452762643056)
(3.29003747228e-05 0.000282795932675 0.00453244183337)
(-1.58661513543e-08 0.000284027703873 0.00453400157384)
(-3.29316841018e-05 0.000282797027693 0.00453244077619)
(-6.54240618492e-05 0.000279122366749 0.00452762472966)
(-9.7083339681e-05 0.000273058396222 0.00451913633359)
(-0.000127522037224 0.000264661866114 0.00450628980279)
(-0.000156176746997 0.000254138120268 0.00448817316644)
(-0.000183413181008 0.000240701092789 0.00446376763186)
(-0.000204250868887 0.00022874855994 0.00443189141583)
(0.000197764345714 0.000221278602417 0.00449431232621)
(0.000176741867027 0.0002306804585 0.00451721069868)
(0.000149905132825 0.000241834936974 0.00453408522739)
(0.000121984645784 0.000250455539758 0.00454616725357)
(9.26473003436e-05 0.00025731472205 0.004554438006)
(6.23229405582e-05 0.000262267775574 0.00455973637482)
(3.13250110552e-05 0.000265269504659 0.00456267350762)
(-1.58726690478e-08 0.00026627545185 0.00456361325164)
(-3.13563572864e-05 0.000265270309416 0.00456267323902)
(-6.2353089886e-05 0.000262269452572 0.00455973630812)
(-9.26754788695e-05 0.000257317376454 0.0045544394133)
(-0.000122010205232 0.00025045925578 0.004546172868)
(-0.000149927703738 0.000241839698915 0.00453409997021)
(-0.000176761594155 0.000230685547055 0.00451723704159)
(-0.000197779808985 0.000221283781031 0.00449433754679)
(0.000189410410489 0.000211635018265 0.0045334373969)
(0.0001684833252 0.000218530942249 0.00454908524478)
(0.000142375765136 0.000227374538191 0.00456010434525)
(0.000115495193511 0.000234124152237 0.00456764025308)
(8.75376229012e-05 0.000239497547212 0.00457255289881)
(5.88004973464e-05 0.000243389468872 0.00457555733994)
(2.95288014647e-05 0.000245752347235 0.00457716256979)
(-1.59108453302e-08 0.000246544849259 0.00457766592758)
(-2.95602580236e-05 0.00024575278809 0.00457716301116)
(-5.88308595454e-05 0.000243390401703 0.00457555875034)
(-8.75661863562e-05 0.000239499066971 0.00457255669947)
(-0.000115521377729 0.000234126368565 0.00456764943925)
(-0.000142399283319 0.000227377507892 0.00456012403832)
(-0.000168504284006 0.000218534132006 0.00454911667452)
(-0.000189427211512 0.000211638488783 0.00453346637267)
(0.000179777947608 0.000200511848755 0.00455651465948)
(0.00015915859257 0.000204979230289 0.0045665572227)
(0.000134038088547 0.000211518924665 0.00457324650571)
(0.000108420486496 0.000216462896389 0.0045775390478)
(8.20215263627e-05 0.000220429501227 0.0045801270161)
(5.5021633694e-05 0.000223324854733 0.00458158134399)
(2.76082106442e-05 0.00022508960946 0.00458230185072)
(-1.60780089456e-08 0.000225682396121 0.00458251799905)
(-2.76400450981e-05 0.000225089643682 0.00458230286242)
(-5.50524969486e-05 0.000223324958444 0.00458158392224)
(-8.20507825667e-05 0.000220429756856 0.00458013267282)
(-0.00010844759834 0.000216463433355 0.00457755096185)
(-0.000134062795225 0.000211519881267 0.00457326988656)
(-0.000159180914581 0.00020498027416 0.00456659163856)
(-0.000179796141864 0.000200513337327 0.00455654427616)
(0.000169316432291 0.000188427479739 0.00456885212729)
(0.000149191468373 0.000190533077754 0.00457475342493)
(0.000125266110713 0.000194810640939 0.00457838926062)
(0.000101060247751 0.000198044365951 0.00458047995047)
(7.63124661159e-05 0.000200697637796 0.00458154458323)
(5.11206071161e-05 0.000202659711194 0.00458201403754)
(2.56277172706e-05 0.000203861852908 0.00458218533949)
(-1.64430989091e-08 0.000204266263619 0.0045822254356)
(-2.56603317306e-05 0.000203861485762 0.00458218666321)
(-5.1152390458e-05 0.000202658996096 0.00458201717847)
(-7.63428463102e-05 0.000200696628491 0.00458155096744)
(-0.000101088702247 0.000198043195214 0.00458049271942)
(-0.000125292340517 0.000194809504709 0.00457841362924)
(-0.00014921534423 0.000190531859206 0.00457478731447)
(-0.000169336113136 0.000188426846615 0.00456887814591)
(0.000158417519701 0.000175705253456 0.0045743549144)
(0.000139013468791 0.000175521207011 0.00457735223807)
(0.000116383772677 0.00017762016031 0.00457891077711)
(9.36265016572e-05 0.000179295953676 0.00457954705667)
(7.05389744017e-05 0.000180733462842 0.00457964304535)
(4.71693746688e-05 0.000181812846839 0.00457951051827)
(2.36198605911e-05 0.00018247625395 0.00457935696904)
(-1.70280469619e-08 0.000182699400034 0.00457929480705)
(-2.36536960396e-05 0.000182475552568 0.00457935816853)
(-4.72025269991e-05 0.000181811441938 0.00457951317723)
(-7.05709317734e-05 0.000180731372882 0.00457964813658)
(-9.36567322619e-05 0.0001792932687 0.0045795571316)
(-0.000116411870255 0.000177617084569 0.00457893080448)
(-0.000139039097793 0.000175517811029 0.00457737962142)
(-0.000158438849306 0.000175702514443 0.00457437202965)
(0.000147709993512 0.000162404181086 0.00457606531415)
(0.000129177393006 0.000159149143894 0.00457711571591)
(0.000107542424825 0.000159684892821 0.00457720724298)
(8.61774165757e-05 0.000160084650656 0.00457682641507)
(6.471288244e-05 0.000160484525705 0.0045762629726)
(4.31693419845e-05 0.000160789235955 0.00457573497483)
(2.15848724416e-05 0.000160976447256 0.0045753749174)
(-1.77921210276e-08 0.000161039208574 0.00457524896373)
(-2.16202817729e-05 0.000160975531234 0.00457537554588)
(-4.32041952906e-05 0.000160787383411 0.00457573603893)
(-6.47467302979e-05 0.000160481723964 0.00457626450099)
(-8.62097195244e-05 0.000160080924994 0.00457682934057)
(-0.000107572627339 0.000159680388175 0.0045772155443)
(-0.000129204787305 0.000159143916448 0.00457712349992)
(-0.00014773328604 0.000162399549203 0.00457607447288)
(1.22665368463e-06 1.95233194366e-06 0.000486186293845)
(7.63634505047e-07 2.52534658586e-06 0.000510477793965)
(5.55406933866e-07 2.85961399201e-06 0.000532560047088)
(3.44400745217e-07 3.11355136562e-06 0.00055163229169)
(1.82862606247e-07 3.28114422408e-06 0.000567094784244)
(8.31201204256e-08 3.37978219233e-06 0.000578471530045)
(3.11742915939e-08 3.42965829704e-06 0.000585438390249)
(7.97539211124e-09 3.44507230024e-06 0.000587799499568)
(-1.57032421721e-08 3.43070661182e-06 0.000585439834961)
(-6.91370019017e-08 3.38155833197e-06 0.000578474342658)
(-1.71571436539e-07 3.28300437286e-06 0.000567098735762)
(-3.36854968751e-07 3.11472074424e-06 0.000551636841213)
(-5.52256143613e-07 2.8590723066e-06 0.00053256439403)
(-7.64677936217e-07 2.52270580555e-06 0.000510479900085)
(-1.2299527548e-06 1.94821812061e-06 0.000486180309481)
(1.11277638157e-05 1.34393529091e-05 0.00137333074966)
(9.7072061191e-06 1.63256689631e-05 0.00143766870964)
(8.54597127998e-06 1.87832468445e-05 0.0014960220348)
(7.123057743e-06 2.09161001911e-05 0.00154628576643)
(5.49460135469e-06 2.26211577544e-05 0.00158693635603)
(3.73994995799e-06 2.38576925898e-05 0.00161679211166)
(1.89839157959e-06 2.46072585036e-05 0.00163504888951)
(1.79180977994e-08 2.48593451765e-05 0.00164121929773)
(-1.86364568073e-06 2.46093038432e-05 0.0016350529847)
(-3.70857817456e-06 2.38610924184e-05 0.00161680008405)
(-5.46920296124e-06 2.26245422115e-05 0.00158694756678)
(-7.10604536286e-06 2.09178035645e-05 0.00154629877346)
(-8.53879877602e-06 1.8781194574e-05 0.00149603458711)
(-9.70935811094e-06 1.63190049427e-05 0.00143767512926)
(-1.11353315052e-05 1.34290447156e-05 0.00137331702242)
(2.50462400406e-05 2.88232333524e-05 0.00217685228159)
(2.2446650685e-05 3.43430950743e-05 0.00227230037072)
(1.99521628884e-05 3.92878512135e-05 0.00235829838097)
(1.68217587094e-05 4.36232555171e-05 0.00243192166768)
(1.3118760144e-05 4.71419700172e-05 0.00249113966681)
(8.99913914004e-06 4.9726983643e-05 0.00253444617028)
(4.58419328046e-06 5.13085208481e-05 0.00256084433905)
(2.28235490242e-08 5.18420312716e-05 0.00256974155788)
(-4.53991503923e-06 5.13104776279e-05 0.00256085015256)
(-8.95909307612e-06 4.97300749997e-05 0.00253445751408)
(-1.30861402437e-05 4.71445843283e-05 0.00249115573492)
(-1.67996129429e-05 4.36234427335e-05 0.00243194066476)
(-1.99424473047e-05 3.92833797918e-05 0.00235831734416)
(-2.24488297822e-05 3.43329803702e-05 0.00227231160721)
(-2.50558133461e-05 2.88083356146e-05 0.00217683577798)
(4.01347925713e-05 4.50496375352e-05 0.00288856468311)
(3.61288766809e-05 5.29829836814e-05 0.00300452303392)
(3.21094347451e-05 6.01123686931e-05 0.00310791227722)
(2.70777715938e-05 6.63657825111e-05 0.00319561114988)
(2.11330008633e-05 7.14466142172e-05 0.0032655803811)
(1.45020175199e-05 7.51815900953e-05 0.00331642235098)
(7.38520500846e-06 7.74679402356e-05 0.00334727150199)
(2.40218773018e-08 7.8238757919e-05 0.00335763630225)
(-7.33858414047e-06 7.74694628365e-05 0.00334727793356)
(-1.44597980394e-05 7.51838267872e-05 0.00331643497523)
(-2.10984772178e-05 7.14480056926e-05 0.00326559854779)
(-2.7054150908e-05 6.63644196497e-05 0.0031956333575)
(-3.20989220585e-05 6.01061656296e-05 0.00310793582835)
(-3.61310497186e-05 5.29708732408e-05 0.0030045399161)
(-4.01452741499e-05 4.50320533012e-05 0.00288855181579)
(5.45240832312e-05 6.01685372161e-05 0.00350129321668)
(4.89771137783e-05 7.00377229462e-05 0.00362694097703)
(4.34039046187e-05 7.87639091941e-05 0.00373746476537)
(3.65004851526e-05 8.63972061176e-05 0.00383011794929)
(2.84313431347e-05 9.25782734537e-05 0.00390328615612)
(1.94799683268e-05 9.7108492315e-05 0.00395602276031)
(9.90790478881e-06 9.98762052888e-05 0.00398783774293)
(2.28663321772e-08 0.000100807856338 0.00399848965879)
(-9.86351428532e-06 9.98771345054e-05 0.00398784394997)
(-1.94397217751e-05 9.7109625912e-05 0.00395603511119)
(-2.83983257479e-05 9.25782525618e-05 0.0039033044399)
(-3.64777650845e-05 8.63943519183e-05 0.00383014147246)
(-4.33937398488e-05 7.87564052433e-05 0.00373749191847)
(-4.89793290382e-05 7.00245455513e-05 0.00362696461364)
(-5.4534824392e-05 6.01495178141e-05 0.0035012887825)
(6.71575110613e-05 7.31523726151e-05 0.00401379597517)
(6.00366955052e-05 8.4379506699e-05 0.00413959650931)
(5.29867801704e-05 9.40315322583e-05 0.00424848370409)
(4.43781882239e-05 0.0001024385854 0.00433850323497)
(3.4460085011e-05 0.000109206788307 0.0044087395667)
(2.35546942724e-05 0.000114143592968 0.00445887997653)
(1.19608334809e-05 0.000117150054723 0.00448892473311)
(2.03847274186e-08 0.000118160014988 0.00449894503591)
(-1.19212452218e-05 0.000117150277773 0.00448893031109)
(-2.35187485036e-05 0.000114143454826 0.00445889132927)
(-3.44304931e-05 0.000109205209594 0.00440875709921)
(-4.43577293825e-05 0.000102434221513 0.00433852736162)
(-5.29776469476e-05 9.40229157853e-05 0.00424851438892)
(-6.00390170469e-05 8.43657113895e-05 0.00413962801398)
(-6.7168198793e-05 7.31326914437e-05 0.00401380274345)
(7.74550186241e-05 8.3489121232e-05 0.0044307250425)
(6.88264796164e-05 9.54830343463e-05 0.00454930243508)
(6.04531131144e-05 0.000105418090384 0.00465005598101)
(5.03932728917e-05 0.000114025547957 0.00473204216091)
(3.8986209143e-05 0.000120903015473 0.00479513844275)
(2.65745180292e-05 0.000125889633214 0.00483969015374)
(1.34697450981e-05 0.000128914371613 0.0048661803179)
(1.72910113233e-08 0.00012992810916 0.00487497737553)
(-1.34361516138e-05 0.000128913866344 0.00486618522909)
(-2.65439712358e-05 0.000125888193648 0.00483970047235)
(-3.89609872779e-05 0.000120899857972 0.0047951552598)
(-5.03757945883e-05 0.000114019689631 0.00473206710191)
(-6.04454459959e-05 0.000105408450657 0.00465009073278)
(-6.88290059543e-05 9.54688262303e-05 0.00454934266307)
(-7.74654977165e-05 8.34692359702e-05 0.00443074420251)
(8.5179732517e-05 9.10195896158e-05 0.00476097965852)
(7.51949793818e-05 0.000103234082949 0.00486737928634)
(6.57051534523e-05 0.00011290540725 0.00495592850486)
(5.449754013e-05 0.000121231670655 0.00502672256837)
(4.19937230471e-05 0.000127824956972 0.00508037369093)
(2.85399031174e-05 0.000132572965074 0.0051177897208)
(1.44386560417e-05 0.000135440119748 0.00513984296202)
(1.40407173041e-08 0.000136398655744 0.00514713190997)
(-1.44113732554e-05 0.000135438932301 0.00513984739527)
(-2.85150801171e-05 0.000132570305973 0.00511779938282)
(-4.19732114368e-05 0.000127820315575 0.0050803903451)
(-5.4483381904e-05 0.000121224410206 0.0050267490034)
(-6.56992431162e-05 0.000112894817525 0.00495596801945)
(-7.51978888738e-05 0.000103219555531 0.00486742855156)
(-8.51899700951e-05 9.09997136834e-05 0.00476101103748)
(9.03440363193e-05 9.58313686376e-05 0.00501584421697)
(7.92167777898e-05 0.000107796811601 0.00510736213985)
(6.88486667556e-05 0.000116783036651 0.00518179958695)
(5.68150716073e-05 0.000124460777502 0.00524016635905)
(4.36016480778e-05 0.00013047742945 0.00528364855005)
(2.95439769945e-05 0.000134777634891 0.00531355275607)
(1.49185908662e-05 0.000137362044559 0.00533100437531)
(1.08745596006e-08 0.000138223867335 0.00533674191368)
(-1.48974719054e-05 0.000137360256474 0.00533100859599)
(-2.95247958942e-05 0.000134773895139 0.0053135622615)
(-4.35858696327e-05 0.000130471457016 0.00528366570071)
(-5.6804371544e-05 0.000124452232 0.00524019495631)
(-6.88447220244e-05 0.000116771537106 0.00518184425811)
(-7.92202510869e-05 0.000107781942132 0.00510741993632)
(-9.03540719503e-05 9.58115345394e-05 0.00501588635259)
(9.31249122932e-05 9.81672587912e-05 0.00520742322921)
(8.11046052542e-05 0.000109500628879 0.00528320103003)
(7.01068706183e-05 0.000117505747559 0.00534331343191)
(5.75636631238e-05 0.000124278700368 0.00538945897263)
(4.39991778208e-05 0.000129522220275 0.00542318787038)
(2.97262954752e-05 0.0001332393705 0.0054460214117)
(1.49835451423e-05 0.00013546259781 0.00545919642994)
(7.89117310703e-09 0.000136202148865 0.00546350200824)
(-1.4968254662e-05 0.000135460314652 0.00545920064291)
(-2.97125098057e-05 0.000133234731638 0.00544603111062)
(-4.39880295791e-05 0.000129515115098 0.00542320588545)
(-5.75564843775e-05 0.000124269023873 0.00538948989753)
(-7.0105079026e-05 0.000117493384967 0.0053433628539)
(-8.11088443248e-05 0.000109485338855 0.00528326566706)
(-9.31348179367e-05 9.8147387769e-05 0.00520747323313)
(9.37934115749e-05 9.83527630211e-05 0.00534751463965)
(8.11409209188e-05 0.000108752532389 0.0054080554433)
(6.97566053496e-05 0.000115586464122 0.00545480344418)
(5.69991890123e-05 0.000121291798436 0.00548987011976)
(4.34012791185e-05 0.000125646192936 0.00551495887301)
(2.9241879808e-05 0.000128706699399 0.00553163877283)
(1.47145844749e-05 0.00013052886862 0.00554113698968)
(5.09644223788e-09 0.000131133666952 0.00554421944117)
(-1.47047740843e-05 0.000130526207757 0.00554114120844)
(-2.92332309536e-05 0.00012870136596 0.00553164859569)
(-4.33946420567e-05 0.00012563818702 0.00551497741104)
(-5.69955771301e-05 0.000121281174515 0.00548990248722)
(-6.97571503238e-05 0.000115573301233 0.00545485582259)
(-8.11461378167e-05 0.000108736738634 0.0054081235499)
(-9.38032975701e-05 9.83326875825e-05 0.00534756778067)
(9.26552213863e-05 9.67387255187e-05 0.00544691036272)
(7.96246543707e-05 0.000105968244852 0.00549362222649)
(6.80846773468e-05 0.000111516688802 0.00552866490694)
(5.53814590586e-05 0.000116063769505 0.00555428454984)
(4.20229831913e-05 0.000119477622952 0.00557216577724)
(2.82437533747e-05 0.000121857534833 0.00558380141322)
(1.41909927969e-05 0.000123269403176 0.00559032273255)
(2.46066079749e-09 0.000123737200278 0.00559242134864)
(-1.41863684186e-05 0.000123266508761 0.00559032664853)
(-2.8240020334e-05 0.000121851753761 0.00558381059085)
(-4.20207603462e-05 0.000119469008026 0.00557218332782)
(-5.53814643664e-05 0.000116052453564 0.005554315775)
(-6.80877360182e-05 0.000111502869483 0.00552871632312)
(-7.96310903332e-05 0.00010595194183 0.00549368816265)
(-9.26652435629e-05 9.67183896159e-05 0.0054469594861)
(8.99943819963e-05 9.36428007309e-05 0.00551505646331)
(7.68350160561e-05 0.000101509724197 0.00554988826056)
(6.53711021488e-05 0.00010571182886 0.00557519498507)
(5.29653682173e-05 0.000109067517388 0.00559312959562)
(4.00728413232e-05 0.000111545287516 0.00560526311103)
(2.68781361951e-05 0.000113262786607 0.00561294500957)
(1.34876846815e-05 0.00011427996266 0.00561716267357)
(-3.69993344643e-11 0.000114616686458 0.00561850502169)
(-1.34879943962e-05 0.0001142769936 0.00561716555253)
(-2.68791267013e-05 0.000113256847272 0.00561295184258)
(-4.00749287784e-05 0.000111536437611 0.00560527657921)
(-5.29690015371e-05 0.000109055881284 0.00559315470955)
(-6.53767901088e-05 0.000105697614543 0.00557523850647)
(-7.68428361418e-05 0.000101493027055 0.00554994357628)
(-9.00046717266e-05 9.36223008107e-05 0.00551509221439)
(8.60709613442e-05 8.93371348958e-05 0.00555999228909)
(7.30661804521e-05 9.57994391322e-05 0.00558520511434)
(6.19323559242e-05 9.85730944964e-05 0.00560273863942)
(5.00243004085e-05 0.000100738315924 0.00561459965199)
(3.7764169828e-05 0.000102317677408 0.00562226492928)
(2.52888943474e-05 0.00010341118193 0.00562692471969)
(1.26766637823e-05 0.000104059033025 0.00562940461729)
(-2.39513044986e-09 0.000104273293157 0.00563018024418)
(-1.26816345339e-05 0.000104056154776 0.00562940531229)
(-2.52943530746e-05 0.000103405405248 0.00562692660231)
(-3.77703690818e-05 0.000102309011262 0.0056222696081)
(-5.00314766569e-05 0.000100726809658 0.00561461095844)
(-6.19407051649e-05 9.85588972049e-05 0.0056027633003)
(-7.30754754776e-05 9.57825850062e-05 0.00558523772511)
(-8.60816421252e-05 8.93164700736e-05 0.0055600041887)
(8.09667085961e-05 8.54075885776e-05 0.00558857430823)
(6.86542426551e-05 8.94535668007e-05 0.00560665738467)
(5.80732255423e-05 9.05960807213e-05 0.00561796290934)
(4.67962547721e-05 9.15364529253e-05 0.00562499434725)
(3.52728257776e-05 9.21927580296e-05 0.00562916995534)
(2.3590137098e-05 9.26424901851e-05 0.00563151071817)
(1.18139886455e-05 9.29064709302e-05 0.00563267437142)
(-4.56947319813e-09 9.29928990454e-05 0.00563302330388)
(-1.18232523327e-05 9.29038848389e-05 0.00563267175511)
(-2.3599708537e-05 9.26372923965e-05 0.00563150511662)
(-3.52827962386e-05 9.2184889273e-05 0.00562916121172)
(-4.68066606747e-05 9.15258869919e-05 0.00562498364417)
(-5.80840950015e-05 9.05827782284e-05 0.00561795581092)
(-6.86649470655e-05 8.94373539476e-05 0.00560664649491)
(-8.09781451504e-05 8.53876027825e-05 0.00558856145938)
(-9.23181210294e-08 -3.45782220521e-07 0.000337460354242)
(1.5001733511e-07 -5.69542024256e-07 0.000354563389565)
(3.62238159237e-07 -6.93062021709e-07 0.000370185353566)
(4.65584534794e-07 -7.16584983424e-07 0.000383766755328)
(4.67810744078e-07 -6.8290108995e-07 0.000394820859489)
(3.72157451767e-07 -6.27658663965e-07 0.000402977736849)
(2.05489177466e-07 -5.81552214892e-07 0.000407983209073)
(1.96838186023e-10 -5.63975078914e-07 0.000409683027107)
(-2.05022476446e-07 -5.81820101021e-07 0.000407984914618)
(-3.71505800593e-07 -6.28175237289e-07 0.000402981050296)
(-4.66988366083e-07 -6.83643693134e-07 0.000394825506424)
(-4.64731503522e-07 -7.17511494183e-07 0.000383772124747)
(-3.61721823501e-07 -6.94268552796e-07 0.00037019031473)
(-1.50183099158e-07 -5.70996059922e-07 0.000354565635022)
(9.1696077082e-08 -3.47244946112e-07 0.000337454689716)
(1.19953435585e-06 7.83234813398e-07 0.00100850908496)
(1.67586934588e-06 6.1309426278e-07 0.00105862117351)
(2.0609292237e-06 6.84774784517e-07 0.00110448628757)
(2.14206639578e-06 9.66592083941e-07 0.00114435815815)
(1.93404110672e-06 1.33317313893e-06 0.00117681186184)
(1.45588312469e-06 1.68180257077e-06 0.00120076344064)
(7.81763272692e-07 1.92681178691e-06 0.00121545884356)
(2.47143970191e-09 2.01468790402e-06 0.00122043641412)
(-7.76802465069e-07 1.92611597607e-06 0.00121546461962)
(-1.45094219247e-06 1.68037564778e-06 0.00120077464238)
(-1.92939451533e-06 1.33095830355e-06 0.00117682754491)
(-2.13823087021e-06 9.63587954329e-07 0.00114437632544)
(-2.05873528194e-06 6.8078801609e-07 0.00110450340935)
(-1.67591306909e-06 6.08310723935e-07 0.00105863031629)
(-1.20123327312e-06 7.78130455525e-07 0.00100849734009)
(4.11490462941e-06 3.84352136418e-06 0.00166554323912)
(4.61030540346e-06 4.21115328724e-06 0.00174649787961)
(4.92701240167e-06 4.91198242478e-06 0.00182047646872)
(4.74315195197e-06 5.8519660736e-06 0.00188465375161)
(4.08307691858e-06 6.81867747357e-06 0.00193679638907)
(2.98861555929e-06 7.6449357969e-06 0.00197522434644)
(1.58048962402e-06 8.19618640294e-06 0.00199877320766)
(5.5648717254e-09 8.38950910833e-06 0.00200673397338)
(-1.56951700351e-06 8.19512568494e-06 0.00199878291704)
(-2.97818422742e-06 7.642663095e-06 0.00197524318779)
(-4.07381046176e-06 6.81498609679e-06 0.00193682284032)
(-4.73590540304e-06 5.84673100954e-06 0.00188468466982)
(-4.92286068294e-06 4.9050210986e-06 0.00182050638601)
(-4.60982018376e-06 4.2028157146e-06 0.00174651628953)
(-4.11723276845e-06 3.83450371231e-06 0.00166553090171)
(8.70831858145e-06 8.82205067426e-06 0.00229874874368)
(9.04028968735e-06 1.01266358338e-05 0.00240650315525)
(9.06561460835e-06 1.18034433834e-05 0.0025044771919)
(8.37390962629e-06 1.36812162919e-05 0.00258907138371)
(7.00793677525e-06 1.54559165655e-05 0.0026575193249)
(5.03954532175e-06 1.69013109342e-05 0.00270779679352)
(2.63829848779e-06 1.78404548473e-05 0.00273853021128)
(8.44202764623e-09 1.81658555886e-05 0.00274889738278)
(-2.62178880139e-06 1.78392243565e-05 0.00273854297431)
(-5.02420155859e-06 1.6898598682e-05 0.0027078216357)
(-6.99473148119e-06 1.5451358499e-05 0.00265755445849)
(-8.36396401639e-06 1.36745256201e-05 0.00258911312115)
(-9.06009342381e-06 1.17943850745e-05 0.00250451906301)
(-9.03957386462e-06 1.0115573196e-05 0.00240653253435)
(-8.71125062914e-06 8.80973367661e-06 0.00229874180897)
(1.44766834106e-05 1.50916454185e-05 0.00289570954055)
(1.44854735307e-05 1.75159659162e-05 0.00302420265948)
(1.40378950303e-05 2.02888910561e-05 0.00314004381052)
(1.26520311781e-05 2.31761976134e-05 0.00323932639083)
(1.04019534421e-05 2.57913139365e-05 0.00331914196162)
(7.39387009574e-06 2.78646368174e-05 0.00337746545317)
(3.84429798264e-06 2.91907287045e-05 0.00341298287474)
(1.03609913348e-08 2.96467540112e-05 0.00342493342442)
(-3.82412620864e-06 2.91894098252e-05 0.00341299741804)
(-7.37536671025e-06 2.78616924855e-05 0.0033774939267)
(-1.03863444506e-05 2.57862699018e-05 0.00331918273998)
(-1.26405905987e-05 2.31686316426e-05 0.00323937599685)
(-1.40317800642e-05 2.02784906479e-05 0.00314009586049)
(-1.4484869526e-05 1.75030212985e-05 0.00302424369996)
(-1.44801978092e-05 1.50767537997e-05 0.00289571222007)
(2.08449315704e-05 2.19793890605e-05 0.00344425684726)
(2.03971933351e-05 2.5510555486e-05 0.00358602191055)
(1.93418120345e-05 2.92999682386e-05 0.00371234942487)
(1.7142361872e-05 3.30886865653e-05 0.00381955977581)
(1.39173059174e-05 3.64278415141e-05 0.0039050183574)