/*--------------------------------*- C++ -*----------------------------------*\
  =========                 |
  \\      /  F ield         | OpenFOAM: The Open Source CFD Toolbox
   \\    /   O peration     | Website:  https://openfoam.org
    \\  /    A nd           | Version:  7
     \\/     M anipulation  |
\*---------------------------------------------------------------------------*/
FoamFile
{
    version     2.0;
    format      ascii;
    class       volVectorField;
    location    "0.64";
    object      U;
}
// * * * * * * * * * * * * * * * * * * * * * * * * * * * * * * * * * * * * * //

dimensions      [0 1 -1 0 0 0 0];

internalField   nonuniform List<vector> 
22500
(
(4.40446012718e-06 4.99544253632e-06 4.81174700941e-05)
(4.05087472727e-06 5.67294071593e-06 5.04121851865e-05)
(3.51833651916e-06 6.32898843639e-06 5.244395345e-05)
(2.93630612729e-06 6.87629594883e-06 5.4175513828e-05)
(2.26956269266e-06 7.32136258239e-06 5.55693379179e-05)
(1.54788528255e-06 7.64793702982e-06 5.65912359138e-05)
(7.85524610403e-07 7.84771867249e-06 5.72158817061e-05)
(2.12863646818e-09 7.91516258274e-06 5.74274273594e-05)
(-7.81314196502e-07 7.84808452632e-06 5.72158478756e-05)
(-1.54380694232e-06 7.64865298588e-06 5.65911849132e-05)
(-2.26570108067e-06 7.32238937796e-06 5.55692999185e-05)
(-2.93272566912e-06 6.87759031494e-06 5.41755629665e-05)
(-3.51514240644e-06 6.33047236287e-06 5.24443161049e-05)
(-4.04791679042e-06 5.6746964407e-06 5.04137662574e-05)
(-4.40228258515e-06 4.99719569658e-06 4.81237128626e-05)
(1.30305442727e-05 1.47421703821e-05 0.000133842102859)
(1.19808727628e-05 1.6697058634e-05 0.000139610523378)
(1.04481541853e-05 1.85840665989e-05 0.000144655146826)
(8.71914377788e-06 2.01767704182e-05 0.000148913106899)
(6.74733390087e-06 2.14748732109e-05 0.000152315064207)
(4.60381990306e-06 2.24297340168e-05 0.000154796135775)
(2.33682854403e-06 2.3014933373e-05 0.000156307234538)
(5.91538699983e-09 2.32125001883e-05 0.000156817060654)
(-2.32511760787e-06 2.3015904897e-05 0.00015630712284)
(-4.59245505986e-06 2.24316342694e-05 0.000154795959433)
(-6.73653160743e-06 2.14776003644e-05 0.000152314910953)
(-8.70908409686e-06 2.0180204856e-05 0.000148913195745)
(-1.04390673909e-05 1.85880088828e-05 0.000144656148424)
(-1.19725987711e-05 1.67016584556e-05 0.000139615071836)
(-1.30244190951e-05 1.4746854223e-05 0.000133858251466)
(2.02628620122e-05 2.28451466e-05 0.000209760495873)
(1.85611439474e-05 2.57657270258e-05 0.00021811421894)
(1.61734657766e-05 2.85653297409e-05 0.000225336843005)
(1.34690701071e-05 3.09297878677e-05 0.000231381489301)
(1.04097666817e-05 3.28520107004e-05 0.000236179204163)
(7.09515202153e-06 3.42640805246e-05 0.000239661741071)
(3.59905729592e-06 3.5128643425e-05 0.000241775879072)
(9.24537965479e-09 3.54203538806e-05 0.000242487108639)
(-3.58074152458e-06 3.5130072939e-05 0.000241775630222)
(-7.07734764151e-06 3.42668759018e-05 0.000239661317963)
(-1.03927938869e-05 3.28560255584e-05 0.000236178742612)
(-1.34532016783e-05 3.09348351915e-05 0.00023138132314)
(-1.61590315631e-05 2.8571132281e-05 0.000225337958935)
(-1.85480715142e-05 2.5772447285e-05 0.000218120413552)
(-2.02530694515e-05 2.28521339349e-05 0.000209783120168)
(2.63192961367e-05 2.95767955315e-05 0.00027700000175)
(2.40239575927e-05 3.32056544015e-05 0.000287218664705)
(2.09037979968e-05 3.66653343414e-05 0.000295949632666)
(1.73710206282e-05 3.95822864867e-05 0.000303192335637)
(1.34054846132e-05 4.19474794234e-05 0.000308901680691)
(9.12622040249e-06 4.36818703471e-05 0.000313025480634)
(4.62606712979e-06 4.47424929661e-05 0.000315520411198)
(1.2131418121e-08 4.51001226888e-05 0.000316357539489)
(-4.60202398914e-06 4.47443176569e-05 0.000315519926769)
(-9.10282445698e-06 4.3685437342e-05 0.000313024605887)
(-1.33831431846e-05 4.19526054863e-05 0.000308900579411)
(-1.73500828322e-05 3.95887237391e-05 0.000303191399722)
(-2.08846650995e-05 3.6672734552e-05 0.000295949986549)
(-2.40066579901e-05 3.32141699805e-05 0.000287224657311)
(-2.63060849928e-05 2.95857478813e-05 0.000277024707804)
(3.13627692837e-05 3.5145225781e-05 0.000336536727588)
(2.85364240773e-05 3.92674208809e-05 0.000348033154889)
(2.47894648276e-05 4.31790747559e-05 0.000357732782173)
(2.05569777946e-05 4.6469282263e-05 0.000365702872319)
(1.58403116552e-05 4.91298123998e-05 0.000371939212372)
(1.07712171652e-05 5.10772428909e-05 0.000376419403057)
(5.4561440405e-06 5.22666580147e-05 0.000379119984702)
(1.46581511501e-08 5.2667472977e-05 0.000380023794025)
(-5.42708546075e-06 5.22688402564e-05 0.000379119192478)
(-1.0742921255e-05 5.10815083178e-05 0.000376417918477)
(-1.58132605564e-05 4.91359457281e-05 0.000371937193767)
(-2.05315876492e-05 4.64769827794e-05 0.000365700690032)
(-2.47661815652e-05 4.31879266113e-05 0.000357731508209)
(-2.8515364357e-05 3.92775611123e-05 0.000348037289587)
(-3.13463477707e-05 3.51559616266e-05 0.000336560135591)
(3.54665934914e-05 3.96421960821e-05 0.000389214275518)
(3.21725324598e-05 4.40639525951e-05 0.000401507838557)
(2.78969221468e-05 4.82413567976e-05 0.000411740065268)
(2.3085552562e-05 5.17453966526e-05 0.000420060775769)
(1.77614601653e-05 5.45702900365e-05 0.000426518462878)
(1.20634275344e-05 5.66341946307e-05 0.000431129871813)
(6.1065405593e-06 5.78931312414e-05 0.000433898219424)
(1.69079512106e-08 5.83171444547e-05 0.000434822278863)
(-6.07301517813e-06 5.78956478646e-05 0.000433897088801)
(-1.20307648248e-05 5.6639114672e-05 0.000431127698105)
(-1.7730207005e-05 5.45773708771e-05 0.000426515356646)
(-2.30561841855e-05 5.17542909507e-05 0.000420056997229)
(-2.78699070211e-05 4.82515921043e-05 0.000411736468331)
(-3.21480516591e-05 4.4075638486e-05 0.000401508873817)
(-3.54471407292e-05 3.96546315807e-05 0.00038923433743)
(3.86921106858e-05 4.31399487435e-05 0.00043577185643)
(3.4992979964e-05 4.76864107816e-05 0.000448469393649)
(3.02817945673e-05 5.19622614752e-05 0.000458883149472)
(2.50059816815e-05 5.55377090959e-05 0.000467254915155)
(1.92088491281e-05 5.84106650896e-05 0.000473693300018)
(1.30311272345e-05 6.05057299221e-05 0.000478259909007)
(6.59195129283e-06 6.17820341558e-05 0.000480988792267)
(1.89565888014e-08 6.22117017755e-05 0.000481897144706)
(-6.55435768826e-06 6.1784875433e-05 0.000480987342177)
(-1.29944842406e-05 6.05112876835e-05 0.000478257064174)
(-1.91737606781e-05 5.84186750226e-05 0.000473689078291)
(-2.49729747621e-05 5.55477820887e-05 0.000467249382268)
(-3.02513474176e-05 5.19738772413e-05 0.000458876816956)
(-3.49653183081e-05 4.76996364723e-05 0.000448466616614)
(-3.86697657032e-05 4.31540641146e-05 0.000435787534784)
(4.11039377924e-05 4.57135233101e-05 0.000476863557728)
(3.70607721425e-05 5.02291837926e-05 0.000489645046762)
(3.20022849778e-05 5.44550366875e-05 0.000499960501303)
(2.63697332039e-05 5.79763715414e-05 0.000508148971688)
(2.02242389131e-05 6.07958966954e-05 0.000514382600829)
(1.37038791672e-05 6.28482076537e-05 0.000518770263558)
(6.92772542588e-06 6.40969525781e-05 0.000521378589652)
(2.08725179e-08 6.45172065122e-05 0.000522244192954)
(-6.88632559216e-06 6.41001159832e-05 0.000521376902186)
(-1.3663507174e-05 6.28544022975e-05 0.00051876689341)
(-2.01855494584e-05 6.08048418454e-05 0.000514377432384)
(-2.63333003808e-05 5.79876430806e-05 0.000508141805665)
(-3.19685900137e-05 5.44680710736e-05 0.000499951427187)
(-3.70300850387e-05 5.02439951502e-05 0.000489638385911)
(-4.10788058214e-05 4.57293457405e-05 0.000476874726442)
(4.27656580443e-05 4.74363822803e-05 0.000513070316194)
(3.84373172702e-05 5.1783806234e-05 0.000525677277049)
(3.31153238105e-05 5.5828775458e-05 0.000535675455443)
(2.72272801457e-05 5.91863457528e-05 0.000543502909698)
(2.08486493819e-05 6.18650725944e-05 0.000549394751283)
(1.411071174e-05 6.38116419779e-05 0.000553506256459)
(7.12892203285e-06 6.49948233208e-05 0.000555936040814)
(2.27173159692e-08 6.53929613147e-05 0.000556739737377)
(-7.08385427603e-06 6.49983063072e-05 0.000555934280984)
(-1.40667380078e-05 6.38184734524e-05 0.000553502678228)
(-2.0806469521e-05 6.18749630457e-05 0.000549389076118)
(-2.71875132331e-05 5.91988440431e-05 0.00054349462281)
(-3.30784569186e-05 5.58432803764e-05 0.00053566418335)
(-3.84036768942e-05 5.18002677328e-05 0.000525667435436)
(-4.27378049298e-05 4.74539653104e-05 0.000513077789792)
(4.37382008772e-05 4.83786962544e-05 0.00054490509937)
(3.91812106671e-05 5.2436498711e-05 0.000557130368729)
(3.36755753492e-05 5.61855351585e-05 0.000566645432377)
(2.76273769132e-05 5.92844194507e-05 0.000573985075805)
(2.11217759719e-05 6.17483740413e-05 0.000579442253082)
(1.42796662035e-05 6.35365779471e-05 0.000583214274898)
(7.2100562601e-06 6.46227095213e-05 0.00058542878464)
(2.4544346009e-08 6.49882418253e-05 0.000586158678134)
(-7.16135137117e-06 6.46264996533e-05 0.000585427226117)
(-1.42321081627e-05 6.3544027556e-05 0.000583211033935)
(-2.10761049915e-05 6.17591960026e-05 0.000579436878089)
(-2.75842572752e-05 5.92981479357e-05 0.000573976710226)
(-3.36355113072e-05 5.62015395347e-05 0.000566633225154)
(-3.91446073199e-05 5.24546603105e-05 0.00055711899217)
(-4.37076377177e-05 4.83980926587e-05 0.000544910769661)
(4.40802264712e-05 4.86085106183e-05 0.000572810067978)
(3.93488925646e-05 5.22685355939e-05 0.000584488395343)
(3.37363592506e-05 5.5620645206e-05 0.000593402961329)
(2.76178917422e-05 5.83799964679e-05 0.000600176295634)
(2.10824794568e-05 6.05681921947e-05 0.000605148222624)
(1.42379889682e-05 6.21552794828e-05 0.000608549949435)
(7.18514573366e-06 6.31189407713e-05 0.000610532845042)
(2.63956086698e-08 6.34434075945e-05 0.00061118401334)
(-7.13274943038e-06 6.31230047557e-05 0.000610531898501)
(-1.4186776206e-05 6.21632887416e-05 0.000608547883162)
(-2.10332250439e-05 6.05798767329e-05 0.000605144432838)
(-2.75713084221e-05 5.83948952598e-05 0.000600169587449)
(-3.36929867618e-05 5.56381123738e-05 0.000593391996899)
(-3.93092398756e-05 5.22883894965e-05 0.000584478262857)
(-4.40468931169e-05 4.86297285968e-05 0.000572817132895)
(4.38475902002e-05 4.8191713483e-05 0.000597142819023)
(3.89954367439e-05 5.13551541413e-05 0.000608144003092)
(3.33512054547e-05 5.42226392294e-05 0.000616389713124)
(2.72468412532e-05 5.65763723516e-05 0.000622567721729)
(2.07690572677e-05 5.84408523445e-05 0.000627046605099)
(1.40120079527e-05 5.97933527633e-05 0.000630079822746)
(7.06755754064e-06 6.06145344898e-05 0.000631835111575)
(2.82974615738e-08 6.08912333418e-05 0.000632409582183)
(-7.01136192136e-06 6.06188078793e-05 0.000631835346385)
(-1.39570140124e-05 5.98018003391e-05 0.000630080114513)
(-2.07160680248e-05 5.84532411471e-05 0.000627046270201)
(-2.71966219732e-05 5.65922742e-05 0.000622565277487)
(-3.33043557627e-05 5.42414194713e-05 0.000616383296958)
(-3.89525957562e-05 5.13765797675e-05 0.000608139171228)
(-4.38113520374e-05 4.82146636505e-05 0.000597155984358)
(4.30918001248e-05 4.71833598149e-05 0.000618146140895)
(3.8178905916e-05 4.97606706595e-05 0.000628379788449)
(3.25778325587e-05 5.20751428367e-05 0.000635947608166)
(2.65635911377e-05 5.3974667923e-05 0.000641555702203)
(2.0218760748e-05 5.54805667171e-05 0.0006455785036)
(1.36263090975e-05 5.65730541419e-05 0.000648278394344)
(6.8694897787e-06 5.72360217334e-05 0.000649830745953)
(3.02561519369e-08 5.74595873409e-05 0.000650337575934)
(-6.8093760842e-06 5.72403995387e-05 0.000649832884056)
(-1.3567397499e-05 5.65817386531e-05 0.000648282573889)
(-2.01618731081e-05 5.54933815953e-05 0.000645584121254)
(-2.65095491653e-05 5.39912570933e-05 0.000641561145919)
(-3.25273250315e-05 5.20949260777e-05 0.000635950407946)
(-3.81327330826e-05 4.97833946626e-05 0.000628385608371)
(-4.30525395254e-05 4.72077505064e-05 0.000618171185734)
(4.18835487648e-05 4.56217384744e-05 0.000635891736549)
(3.69827643566e-05 4.75684980673e-05 0.000645356852196)
(3.14849773629e-05 4.92750448349e-05 0.000652318252373)
(2.56163582985e-05 5.06897328645e-05 0.000657439396423)
(1.94640021503e-05 5.18102133285e-05 0.000661087984865)
(1.31009361954e-05 5.2620722294e-05 0.000663522795869)
(6.60060366224e-06 5.31112542159e-05 0.000664917216397)
(3.22521330503e-08 5.32767543267e-05 0.000665372339381)
(-6.53649302095e-06 5.3115593147e-05 0.000664922057165)
(-1.30380162121e-05 5.26293617858e-05 0.000663532593631)
(-1.94031035366e-05 5.18230478692e-05 0.000661102509889)
(-2.55583564379e-05 5.07065219503e-05 0.000657457340679)
(-3.14306729797e-05 4.92953413236e-05 0.000652336632956)
(-3.693315081e-05 4.75920725357e-05 0.000645380160648)
(-4.18410651791e-05 4.56472397264e-05 0.000635934558446)
(4.03358374801e-05 4.38304987559e-05 0.000650218086398)
(3.55115870597e-05 4.48192726462e-05 0.000659198691269)
(3.01060487146e-05 4.59087661431e-05 0.000665672787926)
(2.44231614092e-05 4.68050151326e-05 0.000670430503753)
(1.85153874261e-05 4.7506067514e-05 0.00067382328757)
(1.24428350294e-05 4.80072498935e-05 0.000676089582322)
(6.26452691709e-06 4.83083888338e-05 0.000677388735113)
(3.42415184847e-08 4.84100620575e-05 0.000677813976424)
(-6.19643238356e-06 4.83124579249e-05 0.00067739683748)
(-1.23759162525e-05 4.80153809318e-05 0.000676106241196)
(-1.84504715662e-05 4.75182278274e-05 0.000673849000252)
(-2.43611546757e-05 4.6821105531e-05 0.000670465091202)
(-3.00478631798e-05 4.59285243535e-05 0.000665713385209)
(-3.54586344929e-05 4.48427614582e-05 0.000659251103565)
(-4.0289673767e-05 4.38561311722e-05 0.000650277257842)
(5.71227423248e-08 1.02041215477e-07 3.55096910194e-05)
(2.55912793661e-08 1.37757987591e-07 3.7143812135e-05)
(7.41207586577e-09 1.57273527663e-07 3.8546060028e-05)
(-4.0901832081e-09 1.68547697721e-07 3.97157739902e-05)
(-9.565833609e-09 1.74312119434e-07 4.06439610391e-05)
(-9.43880901802e-09 1.76710031662e-07 4.13179427496e-05)
(-5.25324006638e-09 1.77478656451e-07 4.17277458912e-05)
(1.14123869031e-09 1.77698063573e-07 4.18665727503e-05)
(7.53136671234e-09 1.77707135152e-07 4.17281160742e-05)
(1.1704763827e-08 1.77157250062e-07 4.13187075173e-05)
(1.17905518041e-08 1.74950212039e-07 4.06451759204e-05)
(6.18801839182e-09 1.69329707643e-07 3.97175627796e-05)
(-5.57372529842e-09 1.58147804384e-07 3.854872996e-05)
(-2.40519124758e-08 1.38669463727e-07 3.71483354184e-05)
(-5.60882258374e-08 1.02906255436e-07 3.55191554528e-05)
(5.5887246562e-07 7.09994669605e-07 0.000105148861005)
(4.59675122834e-07 8.80059211949e-07 0.000109845567343)
(3.74755331804e-07 1.0132599298e-06 0.000113860811089)
(2.94493757476e-07 1.11871901343e-06 0.000117195838718)
(2.17094838345e-07 1.19830464848e-06 0.000119832369299)
(1.43482526115e-07 1.25367832211e-06 0.000121741962366)
(7.27183380846e-08 1.28643233342e-06 0.000122900744914)
(3.60590466106e-09 1.29750273027e-06 0.000123291789167)
(-6.55358853742e-08 1.28709413314e-06 0.000122901893564)
(-1.36390932207e-07 1.25496600156e-06 0.000121744332322)
(-2.10202647997e-07 1.20013484689e-06 0.000119836130559)
(-2.88023051525e-07 1.12096720981e-06 0.000117201365048)
(-3.69049155221e-07 1.01578478013e-06 0.000113869015946)
(-4.54894179404e-07 8.82737252801e-07 0.00010985929918)
(-5.55564810792e-07 7.12609907367e-07 0.000105175507646)
(1.39804233825e-06 1.67009566371e-06 0.000173184672301)
(1.22244274611e-06 2.02258837256e-06 0.000180775372836)
(1.04409977338e-06 2.32298827494e-06 0.000187241841285)
(8.54177443871e-07 2.57365129568e-06 0.000192595275626)
(6.51776744158e-07 2.77148493647e-06 0.000196815025163)
(4.41198441014e-07 2.91418354003e-06 0.000199864754497)
(2.2503326082e-07 3.0006054603e-06 0.000201712264417)
(6.15140637997e-09 3.02992424081e-06 0.000202334191292)
(-2.12796558974e-07 3.00165837698e-06 0.000201714169569)
(-4.29166452175e-07 2.91622520194e-06 0.000199868682614)
(-6.40146890864e-07 2.77437815378e-06 0.000196821252177)
(-8.43278091361e-07 2.57720308479e-06 0.000192604394836)
(-1.0344275487e-06 2.32698564944e-06 0.000187255249726)
(-1.21429764716e-06 2.02690128162e-06 0.000180797313623)
(-1.39226165339e-06 1.67441476282e-06 0.000173225794288)
(2.47334209965e-06 2.87151720714e-06 0.000239488822345)
(2.21233346763e-06 3.43028582093e-06 0.000249782562426)
(1.9210709568e-06 3.92296383244e-06 0.00025851615547)
(1.59217050592e-06 4.34301443154e-06 0.000265721399392)
(1.22762496962e-06 4.68023787114e-06 0.000271383009344)
(8.36682459606e-07 4.92658165051e-06 0.000275465066448)
(4.27379190926e-07 5.07694606149e-06 0.000277933454562)
(8.73261707207e-09 5.12799841607e-06 0.000278762730439)
(-4.10025556662e-07 5.07835193426e-06 0.00027793604578)
(-8.19673159161e-07 4.92930907432e-06 0.000275470404171)
(-1.21125495048e-06 4.68411234749e-06 0.000271391453545)
(-1.57686206484e-06 4.34779576147e-06 0.000265733700899)
(-1.90742751518e-06 3.92837491088e-06 0.000258534016379)
(-2.20077288816e-06 3.4362003584e-06 0.000249811084413)
(-2.46491972877e-06 2.87753460124e-06 0.000239540700069)
(3.68981473106e-06 4.20938342656e-06 0.000303856450215)
(3.33637481814e-06 4.97809758562e-06 0.000316628137863)
(2.9203015787e-06 5.66563886217e-06 0.000327411538742)
(2.43453381891e-06 6.25800907619e-06 0.00033627264086)
(1.88559668744e-06 6.73738828182e-06 0.000343210729836)
(1.28874470486e-06 7.08959056161e-06 0.000348199398098)
(6.58567950827e-07 7.30529950874e-06 0.000351209853072)
(1.13067199674e-08 7.37854437477e-06 0.000352219448606)
(-6.3611541591e-07 7.30702233173e-06 0.000351213075974)
(-1.26678671385e-06 7.09293968204e-06 0.000348206025203)
(-1.86452689777e-06 6.74216628156e-06 0.000343221166944)
(-2.41485999483e-06 6.26394317982e-06 0.000336287705301)
(-2.90270184139e-06 5.67239916141e-06 0.000327433034981)
(-3.32134819042e-06 4.98555046365e-06 0.000316661653712)
(-3.67859261878e-06 4.21704759052e-06 0.000303915994623)
(4.97553119776e-06 5.60586104447e-06 0.000366040340367)
(4.52464842689e-06 6.57339809633e-06 0.000381027612596)
(3.97756010068e-06 7.44244713917e-06 0.000393609030865)
(3.32583633142e-06 8.19510575525e-06 0.00040390066827)
(2.58162408688e-06 8.80650713343e-06 0.000411926617605)
(1.76675743407e-06 9.25691009324e-06 0.000417679385493)
(9.02880720533e-07 9.53317677432e-06 0.000421143015794)
(1.38356192695e-08 9.6269673311e-06 0.000422302648631)
(-8.75419447196e-07 9.53517936955e-06 0.000421146859363)
(-1.73993897024e-06 9.2608120888e-06 0.000417687269171)
(-2.55593565004e-06 8.81209879925e-06 0.000411938941872)
(-3.30186047824e-06 8.20209247842e-06 0.000403918207712)
(-3.95602890932e-06 7.45046019454e-06 0.000393633496463)
(-4.50611049702e-06 6.58229240286e-06 0.000381064870372)
(-4.96136623082e-06 5.61507254256e-06 0.000366105463101)
(6.269109364e-06 6.99559725067e-06 0.000425784566812)
(5.71781284761e-06 8.13853994355e-06 0.000442691522266)
(5.03830947533e-06 9.16326059095e-06 0.000456790353197)
(4.21911720985e-06 1.00525876749e-05 0.00046826446254)
(3.27848864955e-06 1.07759807632e-05 0.000477172948954)
(2.24492617608e-06 1.13093897599e-05 0.000483535995292)
(1.14710428869e-06 1.16367198771e-05 0.000487357445681)
(1.62861030058e-08 1.17478104972e-05 0.000488634811986)
(-1.11478761018e-06 1.16389613637e-05 0.000487361992007)
(-2.21338855287e-06 1.13137677615e-05 0.000483545272297)
(-3.24830055655e-06 1.07822819772e-05 0.00047718728657)
(-4.19092476193e-06 1.00605061647e-05 0.000468284474608)
(-5.01288150154e-06 9.17239938561e-06 0.000456817481307)
(-5.69573392149e-06 8.14874872629e-06 0.000442731810876)
(-6.25187372633e-06 7.00622067525e-06 0.000425854104464)
(7.51705420116e-06 8.32214899436e-06 0.000482845941813)
(6.86452477499e-06 9.6069116967e-06 0.000501350402989)
(6.05548091866e-06 1.07519203813e-05 0.00051666652922)
(5.07398901864e-06 1.1745579098e-05 0.000529062488067)
(3.94429400242e-06 1.25536026881e-05 0.000538641019172)
(2.7012118224e-06 1.31492945086e-05 0.000545456909353)
(1.37997225028e-06 1.35147618206e-05 0.000549539330787)
(1.86301800941e-08 1.36387444304e-05 0.000550901805074)
(-1.34300665008e-06 1.3517195746e-05 0.000549544771175)
(-2.66514197094e-06 1.31540608435e-05 0.000545467929861)
(-3.90975986781e-06 1.25604930044e-05 0.000538657812875)
(-5.0416890402e-06 1.17542866116e-05 0.000529085391339)
(-6.02620553969e-06 1.07620323445e-05 0.000516696563777)
(-6.83889099406e-06 9.61827622428e-06 0.000501393782122)
(-7.49665003947e-06 8.33403035499e-06 0.000482919704175)
(8.67387390067e-06 9.53798165245e-06 0.000537003860333)
(7.9214729719e-06 1.09229825155e-05 0.000556765599346)
(6.98953987975e-06 1.2146172182e-05 0.000572990562038)
(5.85665876422e-06 1.32058402365e-05 0.000586047261799)
(4.55243740564e-06 1.40662264318e-05 0.000596087156142)
(3.1172795486e-06 1.46998410203e-05 0.0006032034512)
(1.5921260745e-06 1.50882859086e-05 0.000607453949942)
(2.0842808096e-08 1.5219998815e-05 0.000608870442855)
(-1.55076588452e-06 1.50908590551e-05 0.000607460614812)
(-3.07690604567e-06 1.47048943378e-05 0.000603216847572)
(-4.51374389605e-06 1.40735657706e-05 0.000596107278451)
(-5.82038399268e-06 1.32151688026e-05 0.000586074060373)
(-6.95648659221e-06 1.21570770313e-05 0.000573024510135)
(-7.89228837688e-06 1.09353144531e-05 0.00055681312705)
(-8.65022950551e-06 9.55094408765e-06 0.000537082799176)
(9.70201513963e-06 1.06042757808e-05 0.00058805887355)
(8.85325361266e-06 1.20420786266e-05 0.000608727442852)
(7.80835650974e-06 1.32971885825e-05 0.000625556975645)
(6.53974553667e-06 1.43810302828e-05 0.000639026209031)
(5.08141093946e-06 1.52587763117e-05 0.000649334228623)
(3.47832713026e-06 1.59040025442e-05 0.000656612254908)
(1.77601532662e-06 1.62990981407e-05 0.000660947311737)
(2.29007884237e-08 1.6432989328e-05 0.000662390104781)
(-1.73056009617e-06 1.63017494637e-05 0.000660955700718)
(-3.43392026009e-06 1.59092255455e-05 0.000656629008628)
(-5.03878156922e-06 1.52664005711e-05 0.000649359096771)
(-6.49965969843e-06 1.43907822278e-05 0.000639058662477)
(-7.77162175828e-06 1.33086723145e-05 0.000625596822542)
(-8.82055050552e-06 1.20551581595e-05 0.000608781410803)
(-9.67508311301e-06 1.06181165929e-05 0.000588145326088)
(1.05715993835e-05 1.14905717351e-05 0.000635818755468)
(9.63208948443e-06 1.29298884615e-05 0.000657041404231)
(8.48690354743e-06 1.41687393228e-05 0.000674190880344)
(7.10194832758e-06 1.5233568744e-05 0.000687852439873)
(5.51448246063e-06 1.60928121296e-05 0.000698262651996)
(3.77283095538e-06 1.67228347935e-05 0.000705585853392)
(1.92575573826e-06 1.71079943199e-05 0.00070993629741)
(2.47798353006e-08 1.72384306952e-05 0.000711382700266)
(-1.87655313654e-06 1.71106532634e-05 0.000709947100684)
(-3.72470776279e-06 1.67280912651e-05 0.000705607347545)
(-5.46818464958e-06 1.61005288727e-05 0.000698294329164)
(-7.05825574951e-06 1.52435109831e-05 0.000687893224655)
(-8.44662257546e-06 1.41805479082e-05 0.00067423979086)
(-9.59593672257e-06 1.2943458186e-05 0.000657105542434)
(-1.05413634643e-05 1.15050543412e-05 0.000635916727537)
(1.12597032784e-05 1.21736914066e-05 0.000680068145515)
(1.02372385484e-05 1.35612708959e-05 0.000701503478057)
(9.00676743941e-06 1.47358508143e-05 0.000718730931457)
(7.52760808703e-06 1.57391644811e-05 0.000732409968738)
(5.83932360561e-06 1.65448985179e-05 0.000742794921424)
(3.99227439582e-06 1.71337041587e-05 0.000750075901805)
(2.03698581287e-06 1.7492896243e-05 0.000754390897716)
(2.64536834759e-08 1.7614438098e-05 0.000755824546275)
(-1.98443657432e-06 1.74954848408e-05 0.000754404993511)
(-3.9408068451e-06 1.71388405566e-05 0.000750103931155)
(-5.78968214818e-06 1.65524884403e-05 0.000742836170555)
(-7.4805709268e-06 1.57490269088e-05 0.000732462806269)
(-8.96313275333e-06 1.47476871623e-05 0.000718793415976)
(-1.01977615199e-05 1.35750256598e-05 0.000701583025182)
(-1.1226188244e-05 1.21885368839e-05 0.000680183455891)
(1.17494369086e-05 1.2634623791e-05 0.000720513619961)
(1.0654851455e-05 1.39179517298e-05 0.000741872663165)
(9.35618540443e-06 1.49835446443e-05 0.000759016498524)
(7.80664866515e-06 1.58855022626e-05 0.000772600195958)
(6.04789594219e-06 1.66052705518e-05 0.000782878165764)
(4.13105749138e-06 1.7128926239e-05 0.000790062545503)
(2.10681969018e-06 1.74474695178e-05 0.000794311683443)
(2.78953089814e-08 1.75551465237e-05 0.000795723197584)
(-2.05138168976e-06 1.74499060747e-05 0.000794330084237)
(-4.07668026071e-06 1.71337816459e-05 0.000790099227303)
(-5.99530527207e-06 1.66124975145e-05 0.000782932378502)
(-7.75660588873e-06 1.58949896618e-05 0.000772669891872)
(-9.30947111707e-06 1.49950767831e-05 0.000759098555928)
(-1.06122579041e-05 1.39315504337e-05 0.00074197420708)
(-1.17127603496e-05 1.26494887427e-05 0.000720653099887)
(1.20373033122e-05 1.28581736884e-05 0.000756690175648)
(1.08829280884e-05 1.40037921023e-05 0.000777877374183)
(9.5327873515e-06 1.49152388882e-05 0.000794900905127)
(7.93546586935e-06 1.56778449888e-05 0.000808337839404)
(6.13680724852e-06 1.62809955213e-05 0.000818468913186)
(4.18663143718e-06 1.67171128501e-05 0.00082553310063)
(2.13389300994e-06 1.69813638199e-05 0.000829705354275)
(2.90797424632e-08 1.707056871e-05 0.00083109197994)
(-2.07607528704e-06 1.69835730823e-05 0.000829729053286)
(-4.12984000247e-06 1.67215349654e-05 0.000825580574564)
(-6.08173679885e-06 1.62876297901e-05 0.000818539729133)
(-7.88284626145e-06 1.56866582732e-05 0.000808430056487)
(-9.48336688897e-06 1.4926127248e-05 0.00079501027049)
(-1.08375200631e-05 1.40168779077e-05 0.000778008916233)
(-1.19976103572e-05 1.28727533512e-05 0.000756860118518)
(1.21260515675e-05 1.30002765161e-05 0.000787909439085)
(1.0922087032e-05 1.38810428875e-05 0.000809451127107)
(9.5295052107e-06 1.45737951108e-05 0.000826321164452)
(7.90799280854e-06 1.5144372492e-05 0.000839561926078)
(6.10186191617e-06 1.5588999398e-05 0.000849522928532)
(4.15640571103e-06 1.59072865604e-05 0.00085646287972)
(2.11696295097e-06 1.60989013815e-05 0.000860561334726)
(2.99913853425e-08 1.61634588177e-05 0.000861925202377)
(-2.05730987639e-06 1.61007865373e-05 0.000860590834547)
(-4.09773792024e-06 1.59110783497e-05 0.000856522296289)
(-6.04483710893e-06 1.55947366431e-05 0.000849612595586)
(-7.85329479289e-06 1.51520957624e-05 0.000839681081861)
(-9.47783011953e-06 1.45835048363e-05 0.00082646525361)
(-1.08743507894e-05 1.38930568905e-05 0.000809626304262)
(-1.2083422637e-05 1.30139343492e-05 0.000788105644103)
(-2.06318595494e-08 -3.46327172248e-08 2.67951125106e-05)
(-1.23772384886e-08 -4.65738256264e-08 2.80076504467e-05)
(-8.0377670759e-09 -5.41196436594e-08 2.90257819744e-05)
(-4.35828787306e-09 -5.97104949374e-08 2.98639599253e-05)
(-1.97307647344e-09 -6.34760847376e-08 3.05221802076e-05)
(-4.538768362e-10 -6.58917574655e-08 3.09967782895e-05)
(3.07249629767e-10 -6.72082287791e-08 3.12842323159e-05)
(6.20025676053e-10 -6.75954817878e-08 3.13818119725e-05)
(9.09555355529e-10 -6.71154668556e-08 3.12853397029e-05)
(1.60268208198e-09 -6.57090936865e-08 3.0999003613e-05)
(3.02289310149e-09 -6.32073583277e-08 3.05255515708e-05)
(5.33012673134e-09 -5.93572112485e-08 2.98685580142e-05)
(8.8917495612e-09 -5.37475555659e-08 2.90318330432e-05)
(1.30687192781e-08 -4.61826160082e-08 2.8015895561e-05)
(2.1104126065e-08 -3.42990323059e-08 2.68079008049e-05)
(-2.31364112509e-08 -5.37207867341e-08 8.16522674569e-05)
(-2.16970232174e-09 -7.5868703112e-08 8.53531425461e-05)
(8.0537693632e-09 -8.880021152e-08 8.84732845603e-05)
(1.41436827612e-08 -9.70708612511e-08 9.10420435062e-05)
(1.55162724287e-08 -1.01469623007e-07 9.30586376981e-05)
(1.33644258347e-08 -1.03560129629e-07 9.45123449747e-05)
(8.45108136902e-09 -1.04316626085e-07 9.53922671656e-05)
(1.97710569226e-09 -1.0439843823e-07 9.56897714803e-05)
(-4.5597736352e-09 -1.04049150023e-07 9.53956755941e-05)
(-9.65746778398e-09 -1.0303286427e-07 9.45191928082e-05)
(-1.20852167017e-08 -1.00697386184e-07 9.30690091803e-05)
(-1.09965981095e-08 -9.60740471179e-08 9.10561763855e-05)
(-5.28143416324e-09 -8.77229423425e-08 8.84918415323e-05)
(4.45213980113e-09 -7.47272760522e-08 8.53782790495e-05)
(2.47513718842e-08 -5.27034908178e-08 8.16895389226e-05)
(1.64504354968e-08 -2.03263437956e-08 0.000137247917703)
(4.63258684183e-08 -3.96744398082e-08 0.000143485138048)
(5.85739814232e-08 -4.76174124977e-08 0.000148753099093)
(6.18802489159e-08 -4.96038965495e-08 0.000153090773278)
(5.59870080085e-08 -4.73986764198e-08 0.000156495089139)
(4.29970346207e-08 -4.37840007508e-08 0.000158948441007)
(2.46702195165e-08 -4.06753220232e-08 0.000160432608385)
(3.40690792311e-09 -3.93460659977e-08 0.000160933291287)
(-1.79526236239e-08 -4.02587818883e-08 0.000160438348424)
(-3.65615101739e-08 -4.29618455174e-08 0.000158959970418)
(-4.99846737328e-08 -4.61918815351e-08 0.000156512539127)
(-5.63762507962e-08 -4.80540641848e-08 0.000153114506074)
(-5.37107293371e-08 -4.59042450486e-08 0.000148784100779)
(-4.22525728123e-08 -3.78507664072e-08 0.000143526591119)
(-1.34773320011e-08 -1.86272685875e-08 0.000137307770758)
(1.16551927621e-07 8.47523020828e-08 0.000193349979339)
(1.5155184296e-07 8.40977540898e-08 0.000202140613937)
(1.60748669112e-07 9.57892220879e-08 0.000209570864958)
(1.54173940641e-07 1.12974224721e-07 0.000215688897197)
(1.31935760849e-07 1.32488846926e-07 0.000220488579933)
(9.73135539632e-08 1.49874000207e-07 0.000223946055974)
(5.35747985065e-08 1.61870166291e-07 0.000226036467586)
(4.90739071225e-09 1.66317394645e-07 0.000226740579612)
(-4.38870504826e-08 1.6243669695e-07 0.000226044527397)
(-8.79985587802e-08 1.50990110696e-07 0.000223962237311)
(-1.23205608829e-07 1.34120956097e-07 0.000220513041468)
(-1.46164351974e-07 1.15058267721e-07 0.000215722067939)
(-1.53657970485e-07 9.81311647173e-08 0.000209613896343)
(-1.45542314071e-07 8.66146747441e-08 0.000202197290179)
(-1.12038639558e-07 8.71640272715e-08 0.000193429722652)
(2.72563312903e-07 2.54508824087e-07 0.000249712428531)
(3.09003614594e-07 2.85211156468e-07 0.000261037996818)
(3.10218733943e-07 3.28635180287e-07 0.000270609439573)
(2.87162065665e-07 3.75624776223e-07 0.000278488069929)
(2.40240294237e-07 4.21247948047e-07 0.000284665368163)
(1.74132866897e-07 4.58996691056e-07 0.000289112644303)
(9.40427609711e-08 4.83966847638e-07 0.000291799810392)
(6.46665505171e-09 4.92916830393e-07 0.000292703887077)
(-8.12663133904e-08 4.84682174674e-07 0.000291810191475)
(-1.6181739898e-07 4.60402436634e-07 0.000289133468295)
(-2.28658257248e-07 4.23294740613e-07 0.000284696786593)