/*--------------------------------*- C++ -*----------------------------------*\
  =========                 |
  \\      /  F ield         | OpenFOAM: The Open Source CFD Toolbox
   \\    /   O peration     | Website:  https://openfoam.org
    \\  /    A nd           | Version:  7
     \\/     M anipulation  |
\*---------------------------------------------------------------------------*/
FoamFile
{
    version     2.0;
    format      ascii;
    class       surfaceScalarField;
    location    "1.02";
    object      phi;
}
// * * * * * * * * * * * * * * * * * * * * * * * * * * * * * * * * * * * * * //

dimensions      [0 3 -1 0 0 0 0];

internalField   nonuniform List<scalar> 
65775
(
-4.17682696533e-11
-4.25366648992e-09
-3.12905474775e-10
-1.06851848508e-12
-7.39944726155e-11
-4.46819452574e-09
-3.48472688779e-10
-9.10618366708e-11
-4.66189459727e-09
-3.84986880641e-10
-9.11196140805e-11
-4.82872905791e-09
-4.19901581787e-10
-7.62304103772e-11
-4.96206852965e-09
-4.50445470792e-10
-4.93950527748e-11
-5.05949187849e-09
-4.74196786291e-10
-1.49073203235e-11
-5.12047418594e-09
-4.89415463674e-10
2.22479253452e-11
-5.14315315128e-09
-4.94838049754e-10
5.66736454452e-11
-5.11991655755e-09
-4.89300122288e-10
8.34213388022e-11
-5.05841082385e-09
-4.73968979057e-10
9.82498315849e-11
-4.96053553423e-09
-4.50108788593e-10
9.81092894096e-11
-4.82699542296e-09
-4.19459823983e-10
8.09219287996e-11
-4.6601095802e-09
-3.84442253328e-10
4.83738394956e-11
-4.46671322538e-09
-3.47823071829e-10
-4.25247425985e-09
-3.12147780096e-10
4.53496380285e-12
-1.15165531426e-10
-7.56752158691e-09
-9.60642617095e-10
-2.49734952229e-12
-2.08002643094e-10
-7.93234685164e-09
-1.07403061189e-09
-2.56655013071e-10
-8.26801018373e-09
-1.19007284727e-09
-2.58531957373e-10
-8.55412562095e-09
-1.30075526872e-09
-2.17079086081e-10
-8.78134737241e-09
-1.39746007349e-09
-1.40934185346e-10
-8.94615430942e-09
-1.47262486175e-09
-4.24100786163e-11
-9.04884877984e-09
-1.52075078414e-09
6.37892257776e-11
-9.08688890298e-09
-1.53785353505e-09
1.62102191574e-10
-9.0475245466e-09
-1.52042393466e-09
2.37903880481e-10
-8.94361175855e-09
-1.47197837404e-09
2.78974487931e-10
-8.77779484206e-09
-1.39650138874e-09
2.76618722689e-10
-8.55002028518e-09
-1.29949051633e-09
2.27310980599e-10
-8.2638223686e-09
-1.18850412503e-09
1.3318584336e-10
-7.92863624838e-09
-1.07214916827e-09
-7.56426405082e-09
-9.58446947123e-10
1.29602084872e-11
-1.77500622155e-10
-9.98660250716e-09
-1.57426444338e-09
-3.16504963061e-12
-3.17231307673e-10
-1.04410924433e-08
-1.76333020582e-09
-3.90742715387e-10
-1.08630573195e-08
-1.95562949728e-09
-3.93831822475e-10
-1.12187761548e-08
-2.13810884308e-09
-3.30822100609e-10
-1.14991212727e-08
-2.296938765e-09
-2.14740857567e-10
-1.17006701838e-08
-2.42005940199e-09
-6.44043487051e-11
-1.18256183223e-08
-2.49872607952e-09
9.76265338076e-11
-1.18718358643e-08
-2.52661983164e-09
2.47636791437e-10
-1.18237069246e-08
-2.49822514393e-09
3.63144342968e-10
-1.16970266471e-08
-2.41906843612e-09
4.25404609814e-10
-1.14940613706e-08
-2.29546732753e-09
4.21327578956e-10
-1.12128728201e-08
-2.13616340975e-09
3.46440290992e-10
-1.08569988485e-08
-1.95321128132e-09
2.04393544376e-10
-1.04354554506e-08
-1.76042463414e-09
-9.98143430991e-09
-1.57087107227e-09
1.99638177758e-11
-2.28639558685e-10
-1.15935918875e-08
-2.11688470559e-09
-3.39853636473e-12
-4.03349948881e-10
-1.20864985044e-08
-2.37244479861e-09
-4.95369191143e-10
-1.25442567104e-08
-2.63029105855e-09
-4.98749764742e-10
-1.29256210402e-08
-2.87339150003e-09
-4.18824486324e-10
-1.3223221408e-08
-3.08393702487e-09
-2.71853629978e-10
-1.34349370751e-08
-3.24655478801e-09
-8.1629894897e-11
-1.35653860644e-08
-3.35018468648e-09
1.2332887109e-10
-1.3613642676e-08
-3.3868504612e-09
3.13162151297e-10
-1.35630837326e-08
-3.34954787591e-09
4.59415161508e-10
-1.3430567647e-08
-3.24529562088e-09
5.3833078642e-10
-1.32171734146e-08
-3.08206646682e-09
5.33571629985e-10
-1.29185119348e-08
-2.87091635497e-09
4.3962247509e-10
-1.25368596099e-08
-2.62721314244e-09
2.61881387357e-10
-1.2079343934e-08
-2.36874736038e-09
-1.15867624834e-08
-2.11256809998e-09
2.53307544002e-11
-2.6899432463e-10
-1.24947535303e-08
-2.5641929568e-09
-3.41201034773e-12
-4.69690453392e-10
-1.29858858959e-08
-2.8732514169e-09
-5.75031235529e-10
-1.34395108498e-08
-3.18227080116e-09
-5.78070344642e-10
-1.38124245709e-08
-3.47159168106e-09
-4.85171619317e-10
-1.40998471959e-08
-3.72083809877e-09
-3.14957153788e-10
-1.43017724071e-08
-3.91260416839e-09
-9.48875789834e-11
-1.4425280754e-08
-4.03447240751e-09
1.42145062604e-10
-1.44710300493e-08
-4.0774963485e-09
3.61796864444e-10
-1.44227762291e-08
-4.03373159549e-09
5.31217614208e-10
-1.42970319044e-08
-3.91114122886e-09
6.22949159207e-10
-1.40932859887e-08
-3.71866703063e-09
6.18276064142e-10
-1.380465417e-08
-3.46872265614e-09
5.10642798763e-10
-1.34312902797e-08
-3.17871065921e-09
3.06503535249e-10
-1.29776897818e-08
-2.86898633255e-09
-1.24866821816e-08
-2.5592249147e-09
2.91873273447e-11
-3.00155047259e-10
-1.28067428866e-08
-2.90419074962e-09
-3.28126917646e-12
-5.20207191137e-10
-1.32670923981e-08
-3.25288327503e-09
-6.34971490738e-10
-1.36886517755e-08
-3.59831287612e-09
-6.37299210839e-10
-1.40298938551e-08
-3.91949628669e-09
-5.34539401294e-10
-1.42888998544e-08
-4.1947675923e-09
-3.47037182857e-10
-1.44681347589e-08
-4.40577557425e-09
-1.04905679087e-10
-1.45767929542e-08
-4.53951451207e-09
1.55794121995e-10
-1.46171380213e-08
-4.5866179354e-09
3.97484695179e-10
-1.45742454013e-08
-4.53869242295e-09
5.84129123071e-10
-1.44633166608e-08
-4.40415551431e-09
6.85592690311e-10
-1.42822195694e-08
-4.19236986204e-09
6.81432897111e-10
-1.40219177789e-08
-3.91633953132e-09
5.64111110857e-10
-1.36800782028e-08
-3.59441526056e-09
3.40379870472e-10
-1.32582813468e-08
-3.24823967259e-09
-1.27977980495e-08
-2.89880628964e-09
3.18604883273e-11
-3.2396764732e-10
-1.26456099426e-08
-3.13557751174e-09
-3.06647283548e-12
-5.58413373661e-10
-1.30563904974e-08
-3.51120350166e-09
-6.79737956997e-10
-1.34290081288e-08
-3.8799560219e-09
-6.8114857063e-10
-1.3725104428e-08
-4.2205808593e-09
-5.70904122836e-10
-1.39456221844e-08
-4.5111162828e-09
-3.70608664801e-10
-1.40954259927e-08
-4.73307035355e-09
-1.12272387059e-10
-1.41852401334e-08
-4.87338908325e-09
1.65769044231e-10
-1.42186975525e-08
-4.92267853468e-09
4.23625082558e-10
-1.41827643539e-08
-4.87250043632e-09
6.22971546414e-10
-1.40907407621e-08
-4.7313239092e-09
7.31766185905e-10
-1.39391000921e-08
-4.50854234604e-09
7.2831417781e-10
-1.37172410529e-08
-4.21721217593e-09
6.04193021532e-10
-1.34204053556e-08
-3.87582858869e-09
3.65888285926e-10
-1.30473059496e-08
-3.50632628841e-09
-1.26361113595e-08
-3.12996151534e-09
3.37052988498e-11
-3.41982082626e-10
-1.21196451259e-08
-3.26454413514e-09
-2.80838762939e-12
-5.8686743889e-10
-1.24707651127e-08
-3.65654656906e-09
-7.12518455989e-10
-1.27864186561e-08
-4.03804772595e-09
-7.12862966458e-10
-1.30316637518e-08
-4.38826433288e-09
-5.96968269288e-10
-1.32100531817e-08
-4.68564141029e-09
-3.87357951314e-10
-1.33284686395e-08
-4.91210321571e-09
-1.17362077656e-10
-1.33984560044e-08
-5.05491128088e-09
1.73102208374e-10
-1.34246303624e-08
-5.10491914648e-09
4.4255397593e-10
-1.33961175922e-08
-5.05396571778e-09
6.51081081255e-10
-1.33240332691e-08
-4.91025068921e-09
7.65322577338e-10
-1.32038376918e-08
-4.6829253788e-09
7.62681972017e-10
-1.30240780119e-08
-4.38473641072e-09
6.33967450107e-10
-1.2777953023e-08
-4.03376709678e-09
3.85027278504e-10
-1.24615783258e-08
-3.65154020581e-09
-1.21097378755e-08
-3.25883273824e-09
3.504744327e-11
-3.55279181146e-10
-1.13254992588e-08
-3.30158948822e-09
-2.5398106029e-12
-6.07135615053e-10
-1.16138460989e-08
-3.70177830044e-09
-7.35179472925e-10
-1.18710027861e-08
-4.08800854853e-09
-7.34286408014e-10
-1.20653144524e-08
-4.44042568048e-09
-6.14230884773e-10
-1.22025515785e-08
-4.73835265313e-09
-3.98195226918e-10
-1.22910141236e-08
-4.96451843746e-09
-1.20355555703e-10
-1.23423101134e-08
-5.10676023753e-09
1.78387617801e-10
-1.23615696907e-08
-5.15638519974e-09
4.55594020458e-10
-1.2340130167e-08
-5.10576518831e-09
6.70367896176e-10
-1.22868601273e-08
-4.96257518815e-09
7.88511232626e-10
-1.21966737752e-08
-4.73551983625e-09
7.86796829154e-10
-1.20580258199e-08
-4.43677695976e-09
6.55372092172e-10
-1.18626797663e-08
-4.08362979722e-09
3.99220496549e-10
-1.16045521035e-08
-3.69671650479e-09
-1.13152249317e-08
-3.29587933279e-09
3.61321500139e-11
-3.64447782347e-10
-1.03468827411e-08
-3.25909749652e-09
-2.28217100784e-12
-6.19973155125e-10
-1.05745066448e-08
-3.66148236808e-09
-7.48594199118e-10
-1.07759389612e-08
-4.04665990509e-09
-7.46247184404e-10
-1.09229692782e-08
-4.39593618423e-09
-6.23331604099e-10
-1.10230912492e-08
-4.68982953909e-09
-4.03482546747e-10
-1.10852422356e-08
-4.91217039433e-09
-1.21303206181e-10
-1.11203422102e-08
-5.05158557076e-09
1.818948978e-10
-1.11335466009e-08
-5.10000841411e-09
4.63329977532e-10
-1.11183004509e-08
-5.05054826665e-09
6.8169944084e-10
-1.10813233132e-08
-4.91015075006e-09
8.02394900984e-10
-1.10174733962e-08
-4.68690205229e-09
8.01768914338e-10
-1.09158678292e-08
-4.39219800884e-09
6.69398177649e-10
-1.07676181658e-08
-4.04222523943e-09
4.09270720401e-10
-1.0564950475e-08
-3.656418444e-09
-1.03360760067e-08
-3.25345670562e-09
3.71410779405e-11
-3.69609319304e-10
-9.2545949169e-09
-3.14979841748e-09
-2.04175699913e-12
-6.25603049136e-10
-9.42685213241e-09
-3.55030082007e-09
-7.5309759339e-10
-9.57779245804e-09
-3.93048427963e-09
-7.49053654178e-10
-9.68347218021e-09
-4.27288096637e-09
-6.24469271043e-10
-9.75237153508e-09
-4.55944446303e-09
-4.03304974094e-10
-9.79312859286e-09
-4.77537180265e-09
-1.20201466132e-10
-9.81527896303e-09
-4.91028186582e-09
1.83702759771e-10
-9.82356233775e-09
-4.95689133583e-09
4.65933629375e-10
-9.81331795848e-09
-4.90921061355e-09
6.85369345674e-10
-9.78933066414e-09
-4.77329153218e-09
8.07386246683e-10
-9.74684481229e-09
-4.55644484019e-09
8.08048338099e-10
-9.67633923841e-09
-4.269082401e-09
6.76389178648e-10
-9.56921693271e-09
-3.92602960874e-09
4.15437005047e-10
-9.41675143215e-09
-3.54527676852e-09
-9.24299955217e-09
-3.14427697275e-09
3.81874721447e-11
-3.70510857908e-10
-8.10740617624e-09
-2.98594568721e-09
-1.80817449438e-12
-6.24168561307e-10
-8.23068481071e-09
-3.38213934072e-09
-7.49088336552e-10
-8.33747731749e-09
-3.75486833316e-09
-7.43049158743e-10
-8.4091216438e-09
-4.08785402051e-09
-6.17838591858e-10
-8.45370772426e-09
-4.3647291986e-09
-3.97741687451e-10
-8.47853971995e-09
-4.57233435836e-09
-1.17073827668e-10
-8.49127125962e-09
-4.70148399235e-09
1.83825148541e-10
-8.49585437081e-09
-4.74582243069e-09
4.63477756563e-10
-8.48930339491e-09
-4.70038907958e-09
6.81573729527e-10
-8.47468997114e-09
-4.57021240302e-09
8.03840274446e-10
-8.44802131275e-09
-4.36168284071e-09
8.06056032895e-10
-8.4016483713e-09
-4.08402496149e-09
6.7652165549e-10
-8.32829421141e-09
-3.75042776085e-09
4.17502954664e-10
-8.21967310497e-09
-3.37719394874e-09
-8.09468313564e-09
-2.98058597068e-09
3.93351984163e-11
-3.67069101224e-10
-6.95279149129e-09
-2.77896574201e-09
-1.57678207392e-12
-6.1680441193e-10
-7.03167399952e-09
-3.1699067028e-09
-7.37886413604e-10
-7.10165160915e-09
-3.5338781456e-09
-7.29194038254e-10
-7.14765198429e-09
-3.85577725015e-09
-6.04020268319e-10
-7.17519013535e-09
-4.1212676383e-09
-3.8711344773e-10
-7.18954965045e-09
-4.31913934741e-09
-1.12035670533e-10
-7.19624516158e-09
-4.44159381199e-09
1.82305275733e-10
-7.19833381276e-09
-4.48332305386e-09
4.56216075055e-10
-7.19415097873e-09
-4.4404884737e-09
6.70835772894e-10
-7.18541296912e-09
-4.31699969815e-09
7.92665215086e-10
-7.16902873253e-09
-4.11820536169e-09
7.97072188056e-10
-7.13944851386e-09
-3.85195093522e-09
6.7089742041e-10
-7.09142696348e-09
-3.52948646379e-09
4.15360304275e-10
-7.01927516115e-09
-3.16508233829e-09
-6.93847101321e-09
-2.77381906345e-09
4.05239942409e-11
-3.62468885537e-10
-5.82455497591e-09
-2.53936019183e-09
-1.34080319918e-12
-6.08213892041e-10
-5.86205585745e-09
-2.92551705383e-09
-7.23017127689e-10
-5.90548383654e-09
-3.28018024026e-09
-7.09786761258e-10
-5.93483234147e-09
-3.58982707236e-09
-5.84506458483e-10
-5.95211238417e-09
-3.8427028488e-09
-3.72274853769e-10
-5.96076089957e-09
-4.02983157822e-09
-1.05424646907e-10
-5.96438869884e-09
-4.14493398334e-09
1.79373593907e-10
-5.96497999086e-09
-4.18382211359e-09
4.44906584851e-10
-5.96201686443e-09
-4.14383573829e-09
6.5454986428e-10
-5.95606344709e-09
-4.02770611382e-09
7.76086361445e-10
-5.9450795525e-09
-3.83966509327e-09
7.845552722e-10
-5.9254430187e-09
-3.58604405991e-09
6.6418163701e-10
-5.89372422873e-09
-3.27587337402e-09
4.12174063301e-10
-5.84772779219e-09
-2.9208591997e-09
-5.80811802916e-09
-2.53450007746e-09
4.18833684224e-11
-3.73483657652e-10
-2.27668102293e-09
-1.04353860871e-12
-4.73020995009e-09
-6.12049277995e-10
-2.65984528272e-09
-4.74632146922e-09
-7.1471005105e-10
-3.0045706966e-09
-4.77676641976e-09
-6.92949053933e-10
-3.30106463005e-09
-4.79749410702e-09
-5.65459065678e-10
-3.54056399683e-09
-4.81013343128e-09
-3.57180126751e-10
-3.71640973436e-09
-4.81706524971e-09
-9.86044180606e-11
-3.82383889478e-09
-4.82005099678e-09
1.76287968259e-10
-3.85978153633e-09
-4.82001832729e-09
4.33387398762e-10
-3.82277205683e-09
-4.81722682377e-09
6.38783757602e-10
-3.71434423037e-09
-4.81145863618e-09
7.62102495993e-10
-3.53761204597e-09
-4.80176061019e-09
7.78601679395e-10
-3.29738939121e-09
-4.78634866821e-09
6.69824920573e-10
-3.00040400699e-09
-4.7628400269e-09
4.24529514241e-10
-2.65536803114e-09
-4.72947843723e-09
-2.27226028441e-09
4.33052532915e-11
-4.7110748141e-09
4.33849576082e-12
1.46704070584e-10
-4.63777514255e-10
1.37650084551e-12
1.07674141982e-11
1.62418033906e-10
-5.14475170733e-10
1.55386996936e-11
1.77803421401e-10
-5.6393880845e-10
1.70828519331e-11
1.91380970163e-10
-6.09299408176e-10
1.51698980731e-11
2.02317855249e-10
-6.47777301994e-10
1.02330384564e-11
2.10108331557e-10
-6.77088592645e-10
3.31130337326e-12
2.14796853874e-10
-6.95677560734e-10
-4.31984023691e-12
2.1627668196e-10
-7.02340324822e-10
-1.13105419364e-11
2.14178284521e-10
-6.95648524182e-10
-1.64443571219e-11
2.0884833913e-10
-6.77030754269e-10
-1.87760231195e-11
2.00442352051e-10
-6.47689980699e-10
-1.77957704505e-11
1.8919892235e-10
-6.09179556874e-10
-1.36294972016e-11
1.7557763786e-10
-5.63780392078e-10
-7.50002082949e-12
1.60680647191e-10
-5.14262848698e-10
1.45671765183e-10
-4.63473081902e-10
-1.51141936171e-12
1.42865416243e-11
4.1763039951e-10
-1.24641432025e-09
3.36823904779e-12
3.26532968382e-11
4.55691103831e-10
-1.38099786086e-09
4.57379387486e-11
4.92486881438e-10
-1.51213947709e-09
4.98118242387e-11
5.24370584657e-10
-1.63228321449e-09
4.40133674001e-11
5.4941533235e-10
-1.73412619541e-09
2.96135222484e-11
5.67007992215e-10
-1.81166788724e-09
9.4946372293e-12
5.77452766208e-10
-1.8608079855e-09
-1.26703304202e-11
5.80750250158e-10
-1.87837612029e-09
-3.29723794226e-11
5.76087747159e-10
-1.86070398104e-09
-4.78632758319e-11
5.64258486844e-10
-1.81146257211e-09
-5.46272612486e-11
5.45374749124e-10
-1.73382163779e-09
-5.18733647677e-11
5.19561735006e-10
-1.63187776007e-09
-4.01334038382e-11
4.87604082044e-10
-1.51162431416e-09
-2.23677255033e-11
4.51682111522e-10
-1.38033917966e-09
4.14974928614e-10
-1.24553551975e-09
-4.07957188462e-12
2.42630736204e-11
6.93523833268e-10
-1.87610858276e-09
4.34348429496e-12
5.26219421655e-11
7.46789848636e-10
-2.07850492109e-09
7.21317005589e-11
7.97850533119e-10
-2.27535392057e-09
7.77425712875e-11
8.41111443079e-10
-2.45549363364e-09
6.81796723137e-11
8.74232197916e-10
-2.60808721866e-09
4.54623818786e-11
8.96955291585e-10
-2.72421259753e-09
1.39651810428e-11
9.10189254406e-10
-2.79774482973e-09
-2.06589601354e-11
9.14337088635e-10
-2.82396995369e-09
-5.23727341455e-11
9.08351369183e-10
-2.79756730153e-09
-7.56606077085e-11
8.93289068416e-10
-2.72386295134e-09
-8.63081376548e-11
8.68907325007e-10
-2.60757078612e-09
-8.21792309417e-11
8.34757104465e-10
-2.4548119891e-09
-6.40994293487e-11
7.91410362888e-10
-2.27449929407e-09
-3.62311527666e-11
7.41358223499e-10
-2.07743583657e-09
6.89749232239e-10
-1.87472955913e-09
-6.67282694364e-12
3.31222705548e-11
9.12912243668e-10
-2.37168182829e-09
4.86004332173e-12
6.92736083479e-11
9.70447508057e-10
-2.62833751822e-09
9.3434742932e-11
1.02535764667e-09
-2.87732305958e-09
9.9786973879e-11
1.07059069536e-09
-3.10484686349e-09
8.69528081562e-11
1.10412121694e-09
-3.29740691998e-09
5.75719677105e-11
1.12634514942e-09
-3.44385580314e-09
1.71501641329e-11
1.13891950504e-09
-3.53650368625e-09
-2.71929474722e-11
1.14276227319e-09
-3.56946443085e-09
-6.78400690642e-11
1.13681763605e-09
-3.53625162169e-09
-9.77935123561e-11
1.12218895883e-09
-3.44336079867e-09
-1.11679337465e-10
1.09813869609e-09
-3.29667982414e-09
-1.06743221239e-10
1.06343309721e-09
-3.10389660118e-09
-8.3888422125e-11
1.0180506321e-09
-2.87614954992e-09
-4.80246214967e-11
9.64139172419e-10
-2.62690320063e-09
9.08318451366e-10
-2.3698914552e-09
-8.85561060073e-12
4.0261283358e-11
1.05157578609e-09
-2.74585942146e-09
5.14550293406e-12
8.17564604326e-11
1.10407177911e-09
-3.04486786981e-09
1.08748433261e-10
1.15421811602e-09
-3.33404969144e-09
1.15160770954e-10
1.19421244803e-09
-3.59784562889e-09
9.97459887052e-11
1.22264726962e-09
-3.82086235682e-09
6.56198223535e-11
1.24055335729e-09
-3.99034656229e-09
1.90316341575e-11
1.25022715236e-09
-4.09745488149e-09
-3.19722870931e-11
1.25302931338e-09
-4.13545955302e-09
-7.87859819351e-11
1.24802504896e-09
-4.09712851982e-09
-1.13459353081e-10
1.23622777555e-09
-3.98970773082e-09
-1.29840816069e-10
1.21645134657e-09
-3.81992978236e-09
-1.24695308123e-10
1.18678555504e-09
-3.59663945563e-09
-9.881317013e-11
1.14655399311e-09
-3.33258338123e-09
-5.74066361189e-11
1.0973119727e-09
-3.04311550794e-09
1.04647304243e-09
-2.74373625284e-09
-1.06507866746e-11
4.54220483054e-11
1.10972299706e-09
-3.01077386977e-09
5.26179090977e-12
8.98361708481e-11
1.15170812146e-09
-3.34178683602e-09
1.17939165096e-10
1.19212646368e-09
-3.6607968153e-09
1.23854834852e-10
1.22326346232e-09
-3.95120742313e-09
1.06616668916e-10
1.24417956971e-09
-4.1964073235e-09
6.96699573951e-11
1.25634682804e-09
-4.38258022525e-09
1.96301148658e-11
1.26238919234e-09
-4.50009352935e-09
-3.5039368877e-11
1.26392665361e-09
-4.54166989887e-09
-8.52952637693e-11
1.26019936804e-09
-4.49969465689e-09
-1.22744287974e-10
1.25206564713e-09
-4.38180205898e-09
-1.40828836214e-10
1.23807162594e-09
-4.19527848358e-09
-1.35988104693e-10
1.21591414856e-09
-3.94976244889e-09
-1.08757314196e-10
1.18445521185e-09
-3.65906707067e-09
-6.42507177165e-11
1.14474378887e-09
-3.33976240877e-09
1.1042848063e-09
-3.00838338687e-09
-1.2124741599e-11
4.85414197192e-11
1.10043734854e-09
-3.17799536761e-09
5.24723289091e-12
9.36827378434e-11
1.13021445831e-09
-3.53212732602e-09
1.21429224544e-10
1.15951705427e-09
-3.87207860403e-09
1.26437224232e-10
1.18124458697e-09
-4.18081512128e-09
1.08129529859e-10
1.19470145972e-09
-4.44108177503e-09
7.01217138635e-11
1.20150240387e-09
-4.6384725982e-09
1.90677816983e-11
1.20428378017e-09
-4.76289028616e-09
-3.65889801198e-11
1.20470714601e-09
-4.80676809812e-09
-8.78378516266e-11
1.20218998309e-09
-4.76242242023e-09
-1.26281150637e-10
1.19741974624e-09
-4.63756275761e-09
-1.45289440183e-10
1.18888220541e-09
-4.43976991986e-09
-1.41132890804e-10
1.17420085412e-09
-4.17915234772e-09
-1.14007386739e-10
1.1520588848e-09
-3.8701168651e-09
-6.85919251005e-11
1.12325936255e-09
-3.52987431095e-09
1.09478741484e-09
-3.17539380579e-09
-1.33172088124e-11
4.96977359638e-11
1.04152681606e-09
-3.25851914159e-09
5.12221334146e-12
9.37531232962e-11
1.060226128e-09
-3.62824544805e-09
1.19966713981e-10
1.07943489072e-09
-3.98162653076e-09
1.23804033787e-10
1.0931222975e-09
-4.30166401023e-09
1.05120348026e-10
1.10059550016e-09
-4.57094099772e-09
6.75557826047e-11
1.10334810986e-09
-4.77487535002e-09
1.75296271596e-11
1.10377618448e-09
-4.90319860231e-09
-3.68790536537e-11
1.10341500849e-09
-4.94828977311e-09
-8.70671171499e-11
1.10182551461e-09
-4.90266689935e-09
-1.24980514198e-10
1.09954899525e-09
-4.77384438691e-09
-1.44198067443e-10
1.09517458024e-09
-4.56946280997e-09
-1.40966817026e-10
1.08651254422e-09
-4.29980733757e-09
-1.15108120051e-10
1.07231125807e-09
-3.97946504105e-09
-7.06023957908e-11
1.05337599945e-09
-3.6258041615e-09
1.0357019605e-09
-3.255755355e-09
-1.42801129685e-11
4.90769212705e-11
9.50501845161e-10
-3.26277959481e-09
4.91815713664e-12
9.06180809176e-11
9.60793274941e-10
-3.6418469521e-09
1.14424412615e-10
9.72174832225e-10
-4.00242368986e-09
1.16960819353e-10
9.7998998557e-10
-4.32790051898e-09
9.85050781911e-11
9.83397150344e-10
-4.60109781193e-09
6.25994315582e-11
9.83641466814e-10
-4.80762189651e-09
1.52185443559e-11
9.82720283914e-10
-4.93730386648e-09
-3.61812878808e-11
9.81931159916e-10
-4.98268418653e-09
-8.36788282994e-11
9.80940184955e-10
-4.93671480268e-09
-1.19827696594e-10
9.80170622627e-10
-4.80648259006e-09
-1.38631986098e-10
9.78424356229e-10
-4.59947238196e-09
-1.36444862335e-10
9.73858380043e-10
-4.32587544459e-09
-1.12718974096e-10
9.65428637702e-10
-4.00009421797e-09
-7.05537235134e-11
9.54075319414e-10
-3.63925391819e-09
9.44517641074e-10
-3.25989586301e-09
-1.50532633222e-11
4.69240507296e-11
8.42202505638e-10
-3.20069985605e-09
4.65784057978e-12
8.48670466902e-11
8.4718656849e-10
-3.5840636443e-09
1.05669584112e-10
8.53289351005e-10
-3.94680201481e-09
1.06881121566e-10
8.57370563017e-10
-4.27293211402e-09
8.91648939277e-11
8.5846713104e-10
-4.54584089369e-09
5.5854146554e-11
8.57528274737e-10
-4.75165254444e-09
1.23314385404e-11
8.56097778569e-10
-4.88055366497e-09
-3.47487432968e-11
8.55170524953e-10
-4.92544655248e-09
-7.8332224738e-11
8.54491099862e-10
-4.87991469739e-09
-1.11764203809e-10
8.54385903071e-10
-4.7504192011e-09
-1.29630867891e-10
8.53932485855e-10
-4.54408864842e-09
-1.28503103863e-10
8.51700257875e-10
-4.27076440312e-09
-1.07506055434e-10
8.46893316234e-10
-3.9443346894e-09
-6.875633113e-11
8.40567197473e-10
-3.58135116075e-09
8.35984980593e-10
-3.19773220815e-09
-1.56771757646e-11
4.34963023897e-11
7.27897236003e-10
-3.08176594838e-09
4.36248221906e-12
7.70609840471e-11
7.30367141464e-10
-3.46556275112e-09
9.45168393254e-11
7.33387981308e-10
-3.82657172809e-09
9.44835283125e-11
7.35398311524e-10
-4.1495615765e-09
7.79264270923e-11
7.35463958494e-10
-4.41876888733e-09
4.78854064527e-11
7.34274445617e-10
-4.62114906109e-09
9.05524352766e-12
7.32901946423e-10
-4.74749371819e-09
-3.28110101542e-11
7.3203506021e-10
-4.79125476235e-09
-7.16366862231e-11
7.31452871733e-10
-4.74681304972e-09
-1.01663677022e-10
7.31427017308e-10
-4.61983701507e-09
-1.18162820258e-10
7.3131263667e-10
-4.41691079324e-09
-1.18014361678e-10
7.30114360224e-10
-4.14727627872e-09
-1.00093978598e-10
7.27260687427e-10
-3.82399433283e-09
-6.55374329881e-11
7.23770610492e-10
-3.46275916099e-09
7.21355984514e-10
-3.07874451026e-09
-1.61857534073e-11
3.90491574273e-11
6.1541015759e-10
-2.91510890746e-09
4.02380836821e-12
6.77613121976e-11
6.17433984958e-10
-3.29666940104e-09
8.17899679385e-11
6.18842855121e-10
-3.6531492979e-09
8.06939864704e-11
6.19813329163e-10
-3.9700985206e-09
6.56235622353e-11
6.19614353277e-10
-4.23288697629e-09
3.92591316133e-11
6.18690122228e-10
-4.42962440317e-09
5.58525309318e-12
6.17700334394e-10
-4.55195595202e-09
-3.05901607222e-11
6.16977040563e-10
-4.59405745569e-09
-6.41861293362e-11
6.16378638806e-10
-4.55124259234e-09
-9.03923376021e-11
6.16071838169e-10
-4.42825006324e-09
-1.05191500861e-10
6.15748519159e-10
-4.2309444381e-09
-1.05843570125e-10
6.14797064446e-10
-3.96771962324e-09
-9.10892562725e-11
6.12860023749e-10
-3.6504872886e-09
-6.12038631427e-11
6.10753027963e-10
-3.29380104155e-09
6.08469710776e-10
-2.91206038165e-09
-1.66139617539e-11
3.38771918737e-11
5.09772289208e-10
-2.70957824147e-09
3.6449320387e-12
5.76438430626e-11
5.12288304698e-10
-3.08748638365e-09
6.8487671056e-11
5.12746214212e-10
-3.43764309126e-09
6.66027880022e-11
5.13184293624e-10
-3.74639455321e-09
5.32009686668e-11
5.13108398879e-10
-4.00061702746e-09
3.0625134689e-11
5.12712623075e-10
-4.18992822426e-09
2.13333444264e-12
5.12183855e-10
-4.30706653383e-09
-2.83094915169e-11
5.11663732098e-10
-4.34708368386e-09
-5.66480451389e-11
5.1093872387e-10
-4.30633082225e-09
-7.89169860172e-11
5.10228429356e-10
-4.18851005741e-09
-9.1833710129e-11
5.09402603565e-10
-3.99861305402e-09
-9.30214621564e-11
5.08284331923e-10
-3.74394570383e-09
-8.12008713783e-11
5.06743802038e-10
-3.43492005752e-09
-5.60763561071e-11
5.05363828056e-10
-3.08458142008e-09
5.02304948598e-10
-2.706536252e-09
-1.69843244203e-11
2.83915404318e-11
4.13743609734e-10
-2.47378042123e-09
3.21622574329e-12
4.77668240659e-11
4.16243482255e-10
-2.84799157527e-09
5.60293480048e-11
4.15901768882e-10
-3.19080835995e-09
5.36371872375e-11
4.16181852817e-10
-3.48971165468e-09
4.18617746451e-11
4.16478710874e-10
-3.73366001532e-09
2.27346423549e-11
4.16658928777e-10
-3.91413158101e-09
-1.006869578e-12
4.16627709229e-10
-4.02515060565e-09
-2.62705600257e-11
4.16238278912e-10
-4.06275535486e-09
-4.97855040437e-11
4.15397948851e-10
-4.02440543116e-09
-6.84574521182e-11
4.14191944565e-10
-3.91269259067e-09
-7.9551107269e-11
4.12758174693e-10
-3.73162278759e-09
-8.10151202075e-11
4.11198534082e-10
-3.48721912291e-09
-7.15436261171e-11
4.0968894641e-10
-3.18804564076e-09
-5.06169609486e-11
4.08871417762e-10
-2.84508071915e-09
4.05537906258e-10
-2.47079735785e-09
-1.73619493644e-11
2.2911721144e-11
-2.21640883734e-09
2.70421812886e-12
3.28886799884e-10
3.98271784547e-11
-2.58833204129e-09
3.28541835266e-10
4.63547800907e-11
-2.92275118787e-09
3.28232516786e-10
4.35637692285e-11
-3.21034337236e-09
3.28840364271e-10
3.29839973937e-11
-3.44266387697e-09
3.29688588069e-10
1.65274691586e-11
-3.61324973965e-09
3.3043514483e-10
-3.56489769813e-12
-3.71749030138e-09
3.30763164967e-10
-2.47615226938e-11
-3.75245685112e-09
3.30473550484e-10
-4.45579303183e-11
-3.71675423645e-09
3.29466030571e-10
-6.0424240388e-11
-3.6118250159e-09
3.27836560632e-10
-7.01295799223e-11
-3.440639596e-09
3.25757559069e-10
-7.17660473864e-11
-3.20785359767e-09
3.23546695368e-10
-6.38160721541e-11
-2.91998641637e-09
3.21544170385e-10
-4.51726887054e-11
-2.58541909492e-09
3.20484557621e-10
-2.21361396067e-09
-1.77923149077e-11
3.19701671406e-10
9.02434170346e-13
-1.70655093313e-11
-4.47445207861e-10
-6.49919334916e-13
5.49897457435e-13
-1.92762729732e-11
-4.95895968843e-10
7.04303940655e-14
-2.14276121305e-11
-5.43275377782e-10
-3.12157662579e-13
-2.33001090346e-11
-5.868019029e-10
-5.33515333589e-13
-2.47667543067e-11
-6.23762122725e-10
-5.92058155864e-13
-2.57545891054e-11
-6.51931398257e-10
-5.5499506308e-13
-2.6322393474e-11
-6.6979601276e-10
-4.78246594418e-13
-2.64705009885e-11
-6.76190582715e-10
-3.91669840634e-13
-2.61429576896e-11
-6.69739889856e-10
-3.21616547333e-13
-2.53748645518e-11
-6.51820951514e-10
-2.89455616348e-13
-2.4184672654e-11
-6.23600634951e-10
-3.08335827089e-13
-2.26157387468e-11
-5.86593480785e-10
-3.61706701141e-13
-2.07415974798e-11
-5.43022310134e-10
-3.41067003473e-13
-1.87228026955e-11
-4.95591000753e-10
-1.67952479515e-11
-4.4705272467e-10
1.12508334048e-14
1.43710724089e-12
-4.21689496281e-11
-1.22249204051e-09
-1.17572420806e-12
5.34498443644e-13
-4.69202967155e-11
-1.3541383499e-09
-5.94998496018e-13
-5.16032017738e-11
-1.48278664079e-09
-1.4155174275e-12
-5.5652729414e-11
-1.60092968614e-09
-1.75134649226e-12
-5.87483045266e-11
-1.70124205873e-09
-1.61637658001e-12
-6.08368779894e-11
-1.77769668245e-09
-1.17831123243e-12
-6.20194831137e-11
-1.82616345186e-09
-6.19954253596e-13
-6.23119308171e-11
-1.84347125302e-09
-8.5388190331e-14
-6.16057266942e-11
-1.82600777986e-09
2.95119342741e-13
-5.99765291626e-11
-1.77738988095e-09
4.26721571087e-13
-5.74461052736e-11
-1.70079213307e-09
2.77023667552e-13
-5.40720548854e-11
-1.60034597687e-09
-6.56188632035e-14
-5.00070921392e-11
-1.48207318872e-09
-3.02909509222e-13
-4.55950796851e-11
-1.35327316558e-09
-4.13809954468e-11
-1.22139862461e-09
1.18714264528e-13
1.32002625791e-12
-6.39148937186e-11
-1.85499295619e-09
-1.57302999456e-12
-2.6682303091e-13
-7.02408764541e-11
-2.05512493208e-09
-2.03130881274e-12
-7.65893099321e-11
-2.25036400418e-09
-3.18850213235e-12
-8.20948985893e-11
-2.42949320333e-09
-3.44468142307e-12
-8.63142779555e-11
-2.58151203739e-09
-2.837661104e-12
-8.91663708419e-11
-2.69733875255e-09
-1.65107213782e-12
-9.07737406301e-11
-2.77071403364e-09
-2.36961787467e-13
-9.11721584506e-11
-2.79685524999e-09
1.07808128993e-12
-9.02295671603e-11
-2.77046295677e-09
2.00309099456e-12
-8.80508000918e-11
-2.69684475375e-09
2.33571053848e-12
-8.46495056418e-11
-2.58078947285e-09
2.02117006877e-12
-8.00772375048e-11
-2.42855915307e-09
1.2308017535e-12
-7.45383785156e-11
-2.24922887288e-09
4.3541152764e-13
-6.85115581608e-11
-2.05376308948e-09
-6.27899134395e-11
-1.85330736055e-09
3.92614600462e-13
7.28582318414e-13
-8.12827399725e-11
-2.35422765693e-09
-1.68760484252e-12
-1.51030815274e-12
-8.83887941842e-11
-2.60934836449e-09
-3.75465870464e-12
-9.56078020024e-11
-2.8576308332e-09
-5.07744204665e-12
-1.01877281359e-10
-3.08513396475e-09
-5.10898514482e-12
-1.06694035009e-10
-3.27806492936e-09
-3.9188377257e-12
-1.09956660831e-10
-3.42499198343e-09
-1.89421600657e-12
-1.11788585748e-10
-3.51799208539e-09
4.53470796786e-13
-1.12239781279e-10
-3.55104558173e-09
2.61324927301e-12
-1.11177866457e-10
-3.51765292969e-09
4.12804380121e-12
-1.0872236531e-10
-3.4243256294e-09
4.68362827366e-12
-1.048761347e-10
-3.27709263742e-09
4.20074782856e-12
-9.96704513861e-11
-3.08388184815e-09
2.92140317849e-12
-9.33360278778e-11
-2.8561191319e-09
1.4531898454e-12
-8.64219341358e-11
-2.60755740618e-09
-7.98921076291e-11
-2.35205976665e-09
7.0617731163e-13
-1.49515235805e-14
-9.36435077678e-11
-2.73258339795e-09
-1.71510002554e-12
-2.85242169745e-12
-1.00901683289e-10
-3.03078231494e-09
-5.46731117978e-12
-1.08292804867e-10
-3.32011355192e-09
-6.86304541845e-12
-1.1472473296e-10
-3.58478940893e-09