/*--------------------------------*- C++ -*----------------------------------*\
  =========                 |
  \\      /  F ield         | OpenFOAM: The Open Source CFD Toolbox
   \\    /   O peration     | Website:  https://openfoam.org
    \\  /    A nd           | Version:  7
     \\/     M anipulation  |
\*---------------------------------------------------------------------------*/
FoamFile
{
    version     2.0;
    format      ascii;
    class       volVectorField;
    location    "1.02";
    object      U;
}
// * * * * * * * * * * * * * * * * * * * * * * * * * * * * * * * * * * * * * //

dimensions      [0 1 -1 0 0 0 0];

internalField   nonuniform List<vector> 
22500
(
(-1.93978262669e-05 -2.12149070538e-05 -7.67683918744e-05)
(-1.86759309217e-05 -2.3731547901e-05 -8.24054044382e-05)
(-1.70242972861e-05 -2.64722617492e-05 -8.91653888561e-05)
(-1.4734785123e-05 -2.90355318084e-05 -9.62074525145e-05)
(-1.17121677681e-05 -3.1286556994e-05 -0.000102640055253)
(-8.12212427379e-06 -3.30301691445e-05 -0.000107737852025)
(-4.11593688953e-06 -3.4130365287e-05 -0.000110990197943)
(1.08318256605e-07 -3.44987487155e-05 -0.000112090957674)
(4.33084338382e-06 -3.4103460973e-05 -0.000110917377666)
(8.33257500267e-06 -3.29769927421e-05 -0.000107592191308)
(1.19171272822e-05 -3.12080011215e-05 -0.000102420844124)
(1.49340888169e-05 -2.89334387604e-05 -9.59131559469e-05)
(1.72161503488e-05 -2.63482643798e-05 -8.87926794363e-05)
(1.88613677124e-05 -2.35876978821e-05 -8.19488058674e-05)
(1.95572107207e-05 -2.10667458278e-05 -7.62260738797e-05)
(-5.61279508419e-05 -6.13881192786e-05 -0.000315606726861)
(-5.37539924335e-05 -6.86477924469e-05 -0.000340492930056)
(-4.90019612438e-05 -7.64642299414e-05 -0.000368401978835)
(-4.23643343415e-05 -8.37789080349e-05 -0.000396339303693)
(-3.3683679241e-05 -9.01894530528e-05 -0.000421312352722)
(-2.33594170618e-05 -9.51561273258e-05 -0.000440873525375)
(-1.18365710424e-05 -9.82925838562e-05 -0.000453277992497)
(3.15344663721e-07 -9.93432752036e-05 -0.000457473160614)
(1.24621139973e-05 -9.82175449991e-05 -0.000453060785475)
(2.39712422415e-05 -9.50078100456e-05 -0.00044043860694)
(3.42763351148e-05 -8.99705136628e-05 -0.000420656367718)
(4.29347968999e-05 -8.34946707487e-05 -0.000395455522455)
(4.95442376155e-05 -7.61207560403e-05 -0.000367278371881)
(5.42654369518e-05 -6.82533504091e-05 -0.000339111121311)
(5.65644639882e-05 -6.09799768043e-05 -0.000313957875532)
(-8.72154875992e-05 -9.51775130842e-05 -0.000612102101353)
(-8.2937065361e-05 -0.000106174450087 -0.000659431749423)
(-7.53548662566e-05 -0.000117820291868 -0.000710970810705)
(-6.49275788289e-05 -0.000128646180983 -0.00076152117572)
(-5.15060137475e-05 -0.00013806485374 -0.000806116613821)
(-3.56549411462e-05 -0.000145329426224 -0.000840754508375)
(-1.80431820472e-05 -0.00014990246127 -0.000862609168633)
(4.9011257109e-07 -0.000151429167712 -0.000869987803819)
(1.90153062636e-05 -0.000149784274079 -0.000862267704134)
(3.66050021288e-05 -0.000145096879935 -0.000840070079891)
(5.24232987525e-05 -0.000137724345069 -0.00080508096781)
(6.58044610661e-05 -0.000128208062528 -0.000760118778829)
(7.61809981437e-05 -0.000117298683776 -0.000709177189015)
(8.3704348491e-05 -0.000105584726839 -0.000657210738858)
(8.78673415375e-05 -9.45684761683e-05 -0.000609430093772)
(-0.000112690367855 -0.000122782245429 -0.000935840000906)
(-0.00010642562547 -0.000136484876493 -0.00100413728235)
(-9.62752025644e-05 -0.00015077419244 -0.00107698375338)
(-8.26140562771e-05 -0.000163945667671 -0.00114734522473)
(-6.53433953702e-05 -0.000175313537818 -0.00120874345154)
(-4.5135831184e-05 -0.000184032581447 -0.00125607235968)
(-2.28125211144e-05 -0.000189500563156 -0.00128579051646)
(6.1509774202e-07 -0.000191320895473 -0.00129580113718)
(2.40330785742e-05 -0.000189354234019 -0.00128534789182)
(4.63298535201e-05 -0.000183745073019 -0.00125518453427)
(6.64966079961e-05 -0.000174893530398 -0.00120739602902)
(8.37149573734e-05 -0.000163406554791 -0.0011455119656)
(9.7309801279e-05 -0.000150135198948 -0.00107462588189)
(0.000107380811784 -0.00013576560183 -0.00100119859406)
(0.000113505181751 -0.000122035937746 -0.000932274686879)
(-0.000132842997289 -0.000144626359829 -0.00126040230921)
(-0.000124647874598 -0.000160040163867 -0.00134509186105)
(-0.000112214996083 -0.000175891426585 -0.00143398229489)
(-9.5870957766e-05 -0.000190372453148 -0.00151880804935)
(-7.55846796537e-05 -0.000202767229045 -0.00159215911394)
(-5.20893888326e-05 -0.000212217384198 -0.00164833410627)
(-2.62948158621e-05 -0.00021812000618 -0.00168345561999)
(6.96945487937e-07 -0.000220079659229 -0.00169525683035)
(2.76785658416e-05 -0.000217957982977 -0.00168293222819)
(5.34450144785e-05 -0.000211899274426 -0.00164728408811)
(7.68960563329e-05 -0.000202302908 -0.0015905623055)
(9.71240437226e-05 -0.000189776706505 -0.00151662811257)
(0.000113393276139 -0.000175185660396 -0.00143116716226)
(0.000125734621873 -0.00015924561383 -0.00134156631926)
(0.000133777284675 -0.000143794949712 -0.00125609555548)
(-0.000147990488579 -0.000161069956743 -0.00156645948686)
(-0.000138025802037 -0.000177264968013 -0.00166171039768)
(-0.000123641988568 -0.000193722570237 -0.00176046146434)
(-0.000105168395375 -0.000208622421405 -0.001853835147)
(-8.26424187643e-05 -0.000221269882545 -0.00193400590259)
(-5.68194619013e-05 -0.00023085501105 -0.00199508508915)
(-2.86454016178e-05 -0.000236817369335 -0.00203313903348)
(7.50360514021e-07 -0.00023879112878 -0.00204589320271)
(3.01359264835e-05 -0.000236648619299 -0.00203254879024)
(5.82815268597e-05 -0.000230523888008 -0.00199390152416)
(8.40589567107e-05 -0.000220786770109 -0.00193220492389)
(0.000106523802512 -0.000208002528687 -0.00185137322019)
(0.000124918226351 -0.000192987744288 -0.00175727700633)
(0.000139203873871 -0.000176436174398 -0.00165771295156)
(0.000149012378669 -0.000160194407364 -0.00156155456908)
(-0.000158586942037 -0.000172584085813 -0.00184226499084)
(-0.000147078529962 -0.000188744908408 -0.00194241079352)
(-0.000131104799874 -0.000205013461243 -0.00204533892094)
(-0.000111036460245 -0.000219609554525 -0.00214204561468)
(-8.69709278582e-05 -0.000231897176209 -0.00222465569633)
(-5.96555657541e-05 -0.000241154628462 -0.00228735438317)
(-3.00320935416e-05 -0.000246889466106 -0.00232631361781)
(7.88738468701e-07 -0.000248781769794 -0.002339337933)
(3.15994011694e-05 -0.000246720051515 -0.0023256634391)
(6.11942887624e-05 -0.000240822386655 -0.00228605212876)
(8.84633780976e-05 -0.000231412601405 -0.00222267600824)
(0.000112465976451 -0.000218987732591 -0.00213934200664)
(0.000132452628428 -0.00020427567403 -0.00204184571709)
(0.000148324293216 -0.000187910685965 -0.00193802751167)
(0.000159676661195 -0.000171694266764 -0.0018368773624)
(-0.000165172961271 -0.000179727139821 -0.00208240494297)
(-0.000152373589701 -0.000195182085384 -0.00218272779288)
(-0.000135172742808 -0.000210633844725 -0.00228532117967)
(-0.000114003188378 -0.000224369301246 -0.00238135608252)
(-8.90110161692e-05 -0.000235836623802 -0.00246312170879)
(-6.09122744063e-05 -0.000244425299564 -0.00252501890873)
(-3.06147156852e-05 -0.000249723637775 -0.00256340528359)
(8.21797056776e-07 -0.000251465279161 -0.00257620357967)
(3.22480751101e-05 -0.000249557430254 -0.0025626965308)
(6.25166561076e-05 -0.000244099515294 -0.00252360173268)
(9.05680992432e-05 -0.000235361577133 -0.00246097229903)
(0.000115495444315 -0.000223759633329 -0.00237842953946)
(0.000136581079577 -0.000209909695968 -0.0022815535129)
(0.000153676909609 -0.000194361141615 -0.00217801373428)
(0.000166321202737 -0.000178843132597 -0.00207661571977)
(-0.00016830546638 -0.000183081666036 -0.00228597072413)
(-0.000154465584368 -0.000197308979164 -0.00238296739157)
(-0.000136378483499 -0.00021146908084 -0.00248201220109)
(-0.000114546166207 -0.000223932629094 -0.00257458197685)
(-8.91521922624e-05 -0.000234248599195 -0.00265323634739)
(-6.0863598068e-05 -0.000241928546948 -0.00271266918561)
(-3.05322297348e-05 -0.000246645607167 -0.00274946958313)
(8.55622945709e-07 -0.000248188960465 -0.00276170125401)
(3.22330408468e-05 -0.000246485073882 -0.00274870007283)
(6.25346642472e-05 -0.000241613983807 -0.00271113362691)
(9.0774432092e-05 -0.000233789895902 -0.00265091496994)
(0.00011610118852 -0.000223343676955 -0.00257143556686)
(0.000137846979167 -0.000210768540901 -0.00247798367758)
(0.000155826084338 -0.000196512300285 -0.00237795089949)
(0.000169511131639 -0.000182216161136 -0.002279828557)
(-0.000168518888824 -0.000183219399168 -0.00245488100661)
(-0.000153866274568 -0.000195838098323 -0.00254622976622)
(-0.000135196437677 -0.00020836002639 -0.00263965580038)
(-0.000113079311287 -0.000219260199978 -0.00272694608953)
(-8.77255656116e-05 -0.000228199002771 -0.00280098726046)
(-5.97396767673e-05 -0.000234811507062 -0.00285683342158)
(-2.99012465381e-05 -0.000238853631868 -0.00289135498526)
(8.93434869205e-07 -0.000240168241373 -0.00290278487577)
(3.16773817247e-05 -0.000238700464297 -0.00289052077893)
(6.14850136785e-05 -0.000234511364172 -0.00285517224871)
(8.94201616576e-05 -0.000227761077929 -0.00279848528868)
(0.000114703868326 -0.000218697295893 -0.00272357309158)
(0.000136731403932 -0.000207688998129 -0.00263536589992)
(0.000155289794064 -0.000195071932078 -0.00254091919339)
(0.000169786555747 -0.000182379955131 -0.00244840770274)
(-0.000166307311251 -0.000180688085865 -0.00259265888553)
(-0.000151033627052 -0.00019143518407 -0.00267707751809)
(-0.000132040695113 -0.000202070774381 -0.00276371515155)
(-0.000109957529423 -0.000211210797416 -0.00284459781468)
(-8.50110024413e-05 -0.000218631126306 -0.00291300961066)
(-5.77331753314e-05 -0.000224082506942 -0.0029644668194)
(-2.88194082908e-05 -0.000227396670347 -0.00299619827195)
(9.36433240422e-07 -0.00022846579556 -0.0030066499681)
(3.06811948233e-05 -0.000227252198557 -0.00299529509892)
(5.95629946826e-05 -0.000223799278921 -0.00296267174956)
(8.67880265922e-05 -0.000218217344203 -0.00291031585035)
(0.000111661564599 -0.000210677799202 -0.00284098644516)
(0.000133651881403 -0.00020143325164 -0.00275915501214)
(0.000152529734044 -0.000190703330389 -0.00267146838685)
(0.000167645361514 -0.000179879337981 -0.00258585632062)
(-0.000162113448299 -0.000176004862186 -0.00270371176275)
(-0.000146371442587 -0.000184697172087 -0.00278082981932)
(-0.000127275005756 -0.000193266620503 -0.0028601665449)
(-0.000105490489749 -0.000200525128522 -0.00293391199361)
(-8.12500318921e-05 -0.000206354694297 -0.00299591031079)
(-5.50089101957e-05 -0.00021060355025 -0.00304231108338)
(-2.7370279502e-05 -0.000213169116573 -0.00307081282998)
(9.84467350342e-07 -0.000213986812658 -0.00308013281806)
(2.93277879702e-05 -0.00021303460824 -0.00306983733406)
(5.69333192146e-05 -0.000210339611949 -0.00304037510802)
(8.31197241319e-05 -0.000205968242808 -0.00299301411074)
(0.000107284479057 -0.000200025716467 -0.00293004896945)
(0.000128973115037 -0.000192666364526 -0.00285532338948)
(0.000147951027372 -0.00018400326868 -0.00277491213387)
(0.00016353233592 -0.000175231547239 -0.00269657095178)
(-0.000156316333589 -0.00016962102062 -0.00279305888756)
(-0.000140249253128 -0.000176115450142 -0.00286336823763)
(-0.000121238521258 -0.000182495424646 -0.00293529084453)
(-9.99632891914e-05 -0.000187821070068 -0.00300127032112)
(-7.66610433146e-05 -0.000192047387996 -0.00305607598665)
(-5.17143461248e-05 -0.000195095123239 -0.00309674325392)
(-2.56286093899e-05 -0.00019691684043 -0.00312157001853)
(1.03646861158e-06 -0.000197486019023 -0.00312960399965)
(2.76898281227e-05 -0.000196793573631 -0.00312052120201)
(5.37415305686e-05 -0.000194852844562 -0.00309466333182)
(7.86319164523e-05 -0.00019169175508 -0.00305297068995)
(0.000101856239202 -0.000187359394268 -0.00299714403809)
(0.000123033110818 -0.000181936912596 -0.00293015056875)
(0.000141922374213 -0.000175463895802 -0.00285713330473)
(0.000157825817346 -0.0001688895161 -0.00278557822863)
(-0.000149292524376 -0.000161843791067 -0.00286644507068)
(-0.000133092069647 -0.000166013660397 -0.00293134664125)
(-0.000114287779545 -0.000170140762368 -0.00299571512149)
(-9.36562674192e-05 -0.000173568305772 -0.00305304038616)
(-7.14535125366e-05 -0.000176237082063 -0.00309968191563)
(-4.79902161564e-05 -0.00017812520898 -0.0031338358439)
(-2.36662750945e-05 -0.000179233005978 -0.00315449783412)
(1.0908569077e-06 -0.000179564779223 -0.0031610810446)
(2.58360981057e-05 -0.000179122008422 -0.00315337919292)
(5.01251955199e-05 -0.000177906798675 -0.00313161706809)
(7.35309861599e-05 -0.000175915508464 -0.00309637061836)
(9.56543344487e-05 -0.000173148685627 -0.0030486461205)
(0.000116185847029 -0.000169628951805 -0.00299026300817)
(0.00013486655891 -0.000165409679565 -0.0029247859191)
(0.000150903605131 -0.00016115877295 -0.00285865052364)
(-0.000141792831649 -0.000153245348395 -0.00293066950398)
(-0.000125612646298 -0.000154221745297 -0.00299246772971)
(-0.000106887837685 -0.00015629085398 -0.00304811138351)
(-8.69500459772e-05 -0.000157925651164 -0.00309532175398)
(-6.59235666691e-05 -0.000159137334258 -0.00313260768339)
(-4.40440506074e-05 -0.000159952997187 -0.00315941813686)
(-2.15913297505e-05 -0.000160408402662 -0.00317543268124)
(1.14610529247e-06 -0.000160525474448 -0.003180411444)
(2.38713023737e-05 -0.000160311413604 -0.00317425570474)
(4.62882855258e-05 -0.000159761920178 -0.00315708129459)
(6.81089605506e-05 -0.000158855241668 -0.00312911627831)
(8.90545313101e-05 -0.000157555850306 -0.00309067997424)
(0.000108891007259 -0.000155836596641 -0.00304235082224)
(0.000127487448001 -0.000153677298891 -0.00298552758029)
(0.000143516265537 -0.000152621427496 -0.00292270366869)
(3.57850433942e-07 3.4115257312e-07 -0.000186613071856)
(5.31565130079e-07 3.05359598878e-07 -0.000196542608638)
(6.78145670829e-07 3.2779350476e-07 -0.000205996560645)
(7.41403786968e-07 4.10980405633e-07 -0.000214428998267)
(6.87948200333e-07 5.32097475754e-07 -0.000221416065321)
(5.24898590571e-07 6.51882608647e-07 -0.000226633066442)
(2.77485014737e-07 7.37541818392e-07 -0.000229856241672)
(-1.47514269842e-08 7.66095898044e-07 -0.000230951152779)
(-3.07326427254e-07 7.29103662021e-07 -0.000229852115411)
(-5.56619807439e-07 6.34221396908e-07 -0.000226624584126)
(-7.25854657665e-07 5.03269044389e-07 -0.000221402203302)
(-7.90915416682e-07 3.69069559889e-07 -0.000214407230175)
(-7.42445464451e-07 2.69955100957e-07 -0.000205962702949)
(-6.09330533575e-07 2.32378578765e-07 -0.000196488787955)
(-4.34671438182e-07 2.62636885721e-07 -0.000186524083019)
(2.56001711657e-06 2.66288220632e-06 -0.000531645849342)
(2.96188052298e-06 2.87759775748e-06 -0.000558242859196)
(3.21618070014e-06 3.25697380603e-06 -0.000583658397077)
(3.18849663996e-06 3.76467046841e-06 -0.000606382641332)
(2.79714924807e-06 4.32255668469e-06 -0.000625241068069)
(2.06698871009e-06 4.81662295217e-06 -0.000639337666593)
(1.07911179455e-06 5.15256260686e-06 -0.000648050530982)
(-4.63558776088e-08 5.26490210366e-06 -0.000651003807776)
(-1.1728010742e-06 5.12958320003e-06 -0.000648033995638)
(-2.16550211726e-06 4.76857894887e-06 -0.00063930404579)
(-2.90971510856e-06 4.24477783711e-06 -0.000625187558378)
(-3.32744557722e-06 3.65295047056e-06 -0.000606302337291)
(-3.38853566204e-06 3.10557309456e-06 -0.000583539657256)
(-3.16344639823e-06 2.69018005157e-06 -0.000558063602449)
(-2.75891994496e-06 2.4614738562e-06 -0.000531370593205)
(5.52093881591e-06 5.81714923718e-06 -0.000846641311049)
(5.99463799052e-06 6.39067872604e-06 -0.000886895113881)
(6.17949707366e-06 7.20146222542e-06 -0.000925437953736)
(5.89662996478e-06 8.15574202005e-06 -0.000959956010255)
(5.04090913782e-06 9.12755295934e-06 -0.000988632197681)
(3.66076983181e-06 9.95458096921e-06 -0.0010100826497)
(1.8862085373e-06 1.05032110785e-05 -0.00102334340055)
(-9.81203295372e-08 1.06828802572e-05 -0.00102783142638)
(-2.08284360858e-06 1.04606385663e-05 -0.00102330993523)
(-3.86082512965e-06 9.86757357084e-06 -0.00101001514884)
(-5.25339172545e-06 8.99241253601e-06 -0.000988526773776)
(-6.13479962184e-06 7.96992020473e-06 -0.000959803002363)
(-6.45186627744e-06 6.96359591626e-06 -0.000925220553474)
(-6.29590192129e-06 6.10856924159e-06 -0.000886581162228)
(-5.81365872524e-06 5.51928842715e-06 -0.000846181112075)
(8.52499072507e-06 9.02892431658e-06 -0.00113252551609)
(8.93074278832e-06 9.90471556169e-06 -0.00118359395583)
(8.93022532342e-06 1.1054326663e-05 -0.001232564897)
(8.32063801768e-06 1.23308451585e-05 -0.00127649193059)
(6.99323401468e-06 1.35809022569e-05 -0.00131302351626)
(5.01903349734e-06 1.46196522014e-05 -0.00134036882581)
(2.56330039041e-06 1.52980330498e-05 -0.00135727700174)
(-1.47426953042e-07 1.5516866632e-05 -0.00136299179597)
(-2.858103084e-06 1.52404730678e-05 -0.00135722036261)
(-5.31582802726e-06 1.45031762386e-05 -0.00134025550313)
(-7.29960203088e-06 1.34031901431e-05 -0.00131284980137)
(-8.64859867819e-06 1.20912798858e-05 -0.0012762478643)
(-9.28812030696e-06 1.07553642291e-05 -0.00123223217913)
(-9.31285390037e-06 9.55727695817e-06 -0.00118313569695)
(-8.8928914201e-06 8.66429215564e-06 -0.00113188507661)
(1.10641551936e-05 1.17309316161e-05 -0.00139029588469)
(1.12968955052e-05 1.27719791829e-05 -0.00144952319414)
(1.10552081207e-05 1.4092968067e-05 -0.00150640295982)
(1.01220875055e-05 1.55125040836e-05 -0.00155751795246)
(8.39854651074e-06 1.68694563342e-05 -0.00160008189471)
(5.97236129812e-06 1.7978522469e-05 -0.00163196932287)
(3.02781277192e-06 1.8694267265e-05 -0.00165169157536)
(-1.90065520052e-07 1.89214598086e-05 -0.00165834912373)
(-3.40768536958e-06 1.86262676252e-05 -0.00165160549705)
(-6.35334835855e-06 1.78417898811e-05 -0.00163179833701)
(-8.78674934705e-06 1.66629174788e-05 -0.00159982397079)
(-1.05276336467e-05 1.52371516738e-05 -0.00155716544659)
(-1.14853075949e-05 1.37537355974e-05 -0.00150593991315)
(-1.17459429878e-05 1.23817928456e-05 -0.00144891249796)
(-1.14947938406e-05 1.13212916492e-05 -0.00138947862084)
(1.29322583345e-05 1.36925440392e-05 -0.00162105402476)
(1.29295097306e-05 1.47660069732e-05 -0.00168599946363)
(1.24362231451e-05 1.61026329971e-05 -0.0017484879102)
(1.12250262869e-05 1.75111953197e-05 -0.00180477106188)
(9.2139062567e-06 1.88348974597e-05 -0.00185171398804)
(6.49997029442e-06 1.99028035354e-05 -0.00188691859156)
(3.27184039655e-06 2.05847604818e-05 -0.00190870115626)
(-2.26375524633e-07 2.07969920973e-05 -0.00191604513857)
(-3.72425066636e-06 2.05100618572e-05 -0.00190858012578)
(-6.95295469817e-06 1.97532386125e-05 -0.00188667961251)
(-9.67212095852e-06 1.86104449011e-05 -0.00185135814774)
(-1.16965252216e-05 1.72141265244e-05 -0.00180429537838)
(-1.2926671194e-05 1.57395379327e-05 -0.00174788207105)
(-1.34336076371e-05 1.43505635695e-05 -0.0016852294605)
(-1.34158061176e-05 1.32551816778e-05 -0.00162006047392)
(1.41048511016e-05 1.48915010666e-05 -0.00182600615315)
(1.38431178543e-05 1.59023431005e-05 -0.00189445850986)
(1.31184550686e-05 1.71447609973e-05 -0.00196048796361)
(1.16937100131e-05 1.84399798494e-05 -0.00202012762606)
(9.50660821223e-06 1.96410852713e-05 -0.00206996537106)
(6.65675683944e-06 2.05991990962e-05 -0.00210738523347)
(3.3256123711e-06 2.12047078225e-05 -0.00213054882179)
(-2.57442390074e-07 2.13884469498e-05 -0.00213834833991)
(-3.84011589346e-06 2.11264512846e-05 -0.0021303884226)
(-7.17139890737e-06 2.04429802188e-05 -0.00210707001621)
(-1.00247238971e-05 1.94077433622e-05 -0.00206950072665)
(-1.22212620058e-05 1.81326562693e-05 -0.00201951708751)
(-1.3659593399e-05 1.67710828321e-05 -0.0019597293608)
(-1.43927909471e-05 1.54758595376e-05 -0.00189352298603)
(-1.46330531355e-05 1.44404999766e-05 -0.00182483451481)
(1.46533554221e-05 1.54146210577e-05 -0.00200642082523)
(1.41392801929e-05 1.63112643217e-05 -0.0020763990222)
(1.32203647441e-05 1.73991813436e-05 -0.00214412933587)
(1.16495640064e-05 1.85282322463e-05 -0.00220550904985)
(9.38524248809e-06 1.95631679842e-05 -0.00225690782071)
(6.52399255836e-06 2.03796313991e-05 -0.00229554487931)
(3.23215021562e-06 2.08898454897e-05 -0.00231947059262)
(-2.8434894612e-07 2.10396663263e-05 -0.00232751491883)
(-3.80042518033e-06 2.08106416316e-05 -0.00231926754976)
(-7.09198790131e-06 2.02218695885e-05 -0.00229514727242)
(-9.95509387359e-06 1.93282996747e-05 -0.00225632616642)
(-1.22252589673e-05 1.82200037211e-05 -0.00220475465774)
(-1.38045148046e-05 1.70256205086e-05 -0.00214320983452)
(-1.47272625656e-05 1.58853808146e-05 -0.0020752915696)
(-1.52196102524e-05 1.49613070392e-05 -0.00200506674587)
(1.46922213689e-05 1.5396754295e-05 -0.00216360247058)
(1.39516798591e-05 1.61639958305e-05 -0.00223335696161)
(1.28806406009e-05 1.7076631632e-05 -0.00230116958639)
(1.12247209213e-05 1.80233681637e-05 -0.00236285226644)
(8.96234525231e-06 1.8880774792e-05 -0.00241460693822)
(6.18329922919e-06 1.95490089852e-05 -0.00245354599545)
(3.03392755991e-06 1.99611184756e-05 -0.00247766051828)
(-3.08112590983e-07 2.00769750548e-05 -0.00248575370702)
(-3.64965041929e-06 1.98831038398e-05 -0.00247741254085)
(-6.79825820551e-06 1.93938671862e-05 -0.00245306157833)
(-9.57759224825e-06 1.86503596577e-05 -0.00241390212607)
(-1.18425140359e-05 1.77217152094e-05 -0.00236194682064)
(-1.35021533553e-05 1.67116754774e-05 -0.00230008182523)
(-1.45726521644e-05 1.57476057981e-05 -0.00223206991574)
(-1.52916625411e-05 1.49500938163e-05 -0.00216205837573)
(1.43458185787e-05 1.49823323146e-05 -0.00229890796292)
(1.34130329239e-05 1.56287963193e-05 -0.0023669393606)
(1.22289739628e-05 1.63712097462e-05 -0.00243344382471)
(1.0537620734e-05 1.71411581086e-05 -0.00249416205385)
(8.33597086133e-06 1.78280890266e-05 -0.00254517736559)
(5.70456371248e-06 1.83557091782e-05 -0.0025835671439)
(2.76696300329e-06 1.86758943891e-05 -0.00260732952001)
(-3.2956109667e-07 1.87606779934e-05 -0.00261528565017)
(-3.42546675505e-06 1.86008338591e-05 -0.00260703504325)
(-6.36175439654e-06 1.82065967015e-05 -0.00258299267199)
(-8.99195197753e-06 1.7606948432e-05 -0.00254434441167)
(-1.11931480262e-05 1.68520070344e-05 -0.00249309894591)
(-1.28839696367e-05 1.60214659133e-05 -0.00243217984869)
(-1.40633731293e-05 1.52287624611e-05 -0.00236546242638)
(-1.4974980722e-05 1.45491715809e-05 -0.00229716177238)
(1.37285107716e-05 1.43032651055e-05 -0.00241381826248)
(1.26376512508e-05 1.48485105831e-05 -0.00247892784449)
(1.13726132731e-05 1.54376865838e-05 -0.00254298477246)
(9.68378501238e-06 1.60450949226e-05 -0.00260163305776)
(7.58412802946e-06 1.65763083387e-05 -0.00265090158496)
(5.14289033148e-06 1.69771408223e-05 -0.00268793296218)
(2.459519567e-06 1.72155518186e-05 -0.0027108200781)
(-3.49320801286e-07 1.72734391722e-05 -0.00271845819857)
(-3.15738838929e-06 1.7144857071e-05 -0.00271047802475)
(-5.83884028363e-06 1.68367997804e-05 -0.00268726583402)
(-8.27744391757e-06 1.63682960812e-05 -0.00264993576376)
(-1.03740308444e-05 1.57731332993e-05 -0.00260040497926)
(-1.20587095972e-05 1.51082490599e-05 -0.00254153457136)
(-1.33154839301e-05 1.44700265928e-05 -0.0024772467306)
(-1.43854111387e-05 1.38885360083e-05 -0.00241185164593)
(1.29347191569e-05 1.3467269923e-05 -0.00251007494032)
(1.17151591928e-05 1.39309333931e-05 -0.00257146255053)
(1.03941516127e-05 1.43833571197e-05 -0.00263221415821)
(8.73655995684e-06 1.48421840131e-05 -0.00268782340518)
(6.76690058104e-06 1.52335290238e-05 -0.00273438427101)
(4.54082139396e-06 1.55229603428e-05 -0.00276925612226)
(2.13348852616e-06 1.56911182191e-05 -0.00279074215134)
(-3.67782329193e-07 1.57265404227e-05 -0.0027978795535)
(-2.86809052278e-06 1.56259655422e-05 -0.00279035184876)
(-5.27288135693e-06 1.53936057115e-05 -0.00276849412107)
(-7.49505122715e-06 1.50417393378e-05 -0.00273328050671)
(-9.45946532023e-06 1.45911302236e-05 -0.00268642122913)
(-1.11100382189e-05 1.40782867388e-05 -0.00263056435004)
(-1.24199767626e-05 1.3578255708e-05 -0.00256955844202)
(-1.36188724984e-05 1.30757592134e-05 -0.00250786241155)
(1.20349072762e-05 1.25542990296e-05 -0.00258990174717)
(1.07120229321e-05 1.29446291454e-05 -0.00264733375966)
(9.35741299483e-06 1.32677958438e-05 -0.00270420381843)
(7.75482221632e-06 1.35875669858e-05 -0.0027558561181)
(5.93348416549e-06 1.38541655184e-05 -0.002798712982)
(3.93363673661e-06 1.40482066669e-05 -0.0028305780268)
(1.80711014048e-06 1.41576612473e-05 -0.00285010587318)
(-3.85106869877e-07 1.41754621551e-05 -0.00285654943109)
(-2.57620730425e-06 1.40989588537e-05 -0.00284966732803)
(-4.69963411836e-06 1.3931579279e-05 -0.00282971973311)
(-6.69450205728e-06 1.36811546684e-05 -0.00279746608114)
(-8.50894391185e-06 1.33605218268e-05 -0.00275426834642)
(-1.01024187179e-05 1.29904590201e-05 -0.00270233641596)
(-1.14439344875e-05 1.26213430831e-05 -0.00264518440468)
(-1.27465647409e-05 1.21908348636e-05 -0.00258741664377)
(1.1079268063e-05 1.16133226498e-05 -0.00265634853178)
(9.68465943511e-06 1.19266984703e-05 -0.00271043926988)
(8.32359713966e-06 1.21132387545e-05 -0.00276297433716)
(6.79640105868e-06 1.23010385041e-05 -0.0028095893072)
(5.13232525843e-06 1.2457889799e-05 -0.00284757835616)
(3.35533871183e-06 1.25720603983e-05 -0.00287547716219)
(1.49790962568e-06 1.26342393174e-05 -0.00289242974624)
(-4.01406443459e-07 1.26384490186e-05 -0.00289796831006)
(-2.29946443372e-06 1.25825230389e-05 -0.00289194458375)
(-4.15325054538e-06 1.24692769862e-05 -0.00287452369718)
(-5.92445191679e-06 1.23051904262e-05 -0.00284618521518)
(-7.58069969701e-06 1.2099928743e-05 -0.00280780316603)
(-9.0976409776e-06 1.18658959201e-05 -0.00276086448755)
(-1.04442965127e-05 1.16350481459e-05 -0.0027080183027)
(-1.1819275399e-05 1.12809023586e-05 -0.00265357477087)
(1.01085658719e-05 1.07642137792e-05 -0.00271410621231)
(8.70820133061e-06 1.08873817287e-05 -0.00276666419448)
(7.36616098042e-06 1.09248811813e-05 -0.0028136673603)
(5.92604005207e-06 1.09860500789e-05 -0.00285361753678)
(4.41363620292e-06 1.10425861697e-05 -0.00288527300591)
(2.84014449948e-06 1.10854795335e-05 -0.00290810005933)
(1.22289713976e-06 1.11063391366e-05 -0.00292179760808)
(-4.16963975828e-07 1.10992940255e-05 -0.00292620416708)
(-2.05535232104e-06 1.10626028222e-05 -0.00292127172137)
(-3.66834348529e-06 1.09986181855e-05 -0.00290706144326)
(-5.23514440756e-06 1.09132866794e-05 -0.00288374324351)
(-6.73884951969e-06 1.08151355247e-05 -0.00285163278171)
(-8.16843489567e-06 1.07127922785e-05 -0.00281129683115)
(-9.49533340108e-06 1.06332513708e-05 -0.00276390954557)
(-1.08794638381e-05 1.0468508867e-05 -0.00271111166607)
(-4.52350194298e-08 -9.8693514134e-08 -0.000194126648292)
(-4.58446624882e-08 -1.15032088728e-07 -0.000204720471936)
(-5.46677117318e-08 -1.24542529248e-07 -0.00021493191505)
(-5.9397363784e-08 -1.35141500455e-07 -0.000224113649436)
(-5.69853768866e-08 -1.46329743055e-07 -0.00023175403581)
(-4.73497510185e-08 -1.56122972599e-07 -0.000237471937867)
(-3.25489218514e-08 -1.63014151017e-07 -0.000241006608799)
(-1.53360294035e-08 -1.65744245664e-07 -0.00024220285798)
(2.3433960085e-09 -1.63702871093e-07 -0.000240987028621)
(1.8954381492e-08 -1.5695621798e-07 -0.000237432803333)
(3.30558810839e-08 -1.46104012263e-07 -0.000231695414836)
(4.35473936335e-08 -1.32298775048e-07 -0.000224035434389)
(4.97581145266e-08 -1.16974938712e-07 -0.000214832864779)
(5.31150100676e-08 -1.00843299106e-07 -0.000204594693861)
(6.01069372782e-08 -8.02677252016e-08 -0.000193953590847)
(-2.1532258082e-07 -3.31543744206e-07 -0.000551702323193)
(-2.15414430371e-07 -3.85304690158e-07 -0.000579970701071)
(-2.28013574655e-07 -4.28025296492e-07 -0.000607353070007)
(-2.27047980601e-07 -4.73056131201e-07 -0.000632049114624)
(-2.0376992198e-07 -5.1762083578e-07 -0.000652641218256)
(-1.58396110475e-07 -5.55287196611e-07 -0.000668072515399)
(-9.67369721084e-08 -5.81050354181e-07 -0.000677616738353)
(-2.68457639288e-08 -5.90995757334e-07 -0.000680839582431)
(4.40300134951e-08 -5.83279654925e-07 -0.000677556343218)
(1.09368123043e-07 -5.58431214645e-07 -0.000667951937312)
(1.63320242998e-07 -5.18995687738e-07 -0.000652460916365)
(2.01839918276e-07 -4.69362449651e-07 -0.000631809207855)
(2.23533272058e-07 -4.14755217387e-07 -0.000607050516543)
(2.3397667191e-07 -3.58698576397e-07 -0.000579589096903)
(2.48478422364e-07 -2.96516903412e-07 -0.000551193823454)
(-4.53040353868e-07 -6.14947794129e-07 -0.000876275117166)
(-4.54205890302e-07 -7.08578448599e-07 -0.000918889503099)
(-4.64250700388e-07 -7.94068041987e-07 -0.000960298408671)
(-4.47788966897e-07 -8.81567645673e-07 -0.000997732970791)
(-3.9080769232e-07 -9.64615812111e-07 -0.0010289973255)
(-2.94498718481e-07 -1.03294566793e-06 -0.00105245085703)
(-1.68927282727e-07 -1.07799562565e-06 -0.00106696235287)
(-2.82181610701e-08 -1.09346566453e-06 -0.0010718552834)
(1.13521866138e-07 -1.07658717793e-06 -0.00106686019745)
(2.43060320368e-07 -1.02873064465e-06 -0.00105224715167)
(3.48918705857e-07 -9.54945845372e-07 -0.00102869324379)
(4.23515008832e-07 -8.63382837153e-07 -0.000997329294505)
(4.64986073098e-07 -7.63740457121e-07 -0.000959791492289)
(4.83166011849e-07 -6.63181650452e-07 -0.00091825630261)
(5.00346931e-07 -5.60228527817e-07 -0.000875448730838)
(-6.88282908987e-07 -8.7136677208e-07 -0.00116963925225)
(-6.87705556394e-07 -9.94413973211e-07 -0.00122355690473)
(-6.89856401082e-07 -1.11457636257e-06 -0.00127608288754)
(-6.5349856338e-07 -1.23683850765e-06 -0.00132367808676)
(-5.61329208268e-07 -1.35156710843e-06 -0.00136349364231)
(-4.15360367336e-07 -1.44501225658e-06 -0.00139339380157)
(-2.29073033316e-07 -1.50569841133e-06 -0.00141190173194)
(-2.16257986134e-08 -1.52546097169e-06 -0.00141813506732)
(1.86748859741e-07 -1.50094581492e-06 -0.00141175798862)
(3.76613109189e-07 -1.4342914542e-06 -0.00139310750219)
(5.31279890496e-07 -1.33272949016e-06 -0.00136306693921)
(6.39953421671e-07 -1.20757325152e-06 -0.00132311288812)
(7.00475511391e-07 -1.07233634132e-06 -0.00127537623761)
(7.26280925895e-07 -9.37460573976e-07 -0.0012226830522)
(7.45395070651e-07 -8.05308340294e-07 -0.00116852152139)
(-9.0092218002e-07 -1.09275709992e-06 -0.00143338372796)
(-8.95887102976e-07 -1.2346059981e-06 -0.00149580967536)
(-8.87160948172e-07 -1.37843386914e-06 -0.00155676851564)
(-8.29928716812e-07 -1.52475748513e-06 -0.00161213856796)