/*--------------------------------*- C++ -*----------------------------------*\
  =========                 |
  \\      /  F ield         | OpenFOAM: The Open Source CFD Toolbox
   \\    /   O peration     | Website:  https://openfoam.org
    \\  /    A nd           | Version:  7
     \\/     M anipulation  |
\*---------------------------------------------------------------------------*/
FoamFile
{
    version     2.0;
    format      ascii;
    class       surfaceScalarField;
    location    "1.88";
    object      phi;
}
// * * * * * * * * * * * * * * * * * * * * * * * * * * * * * * * * * * * * * //

dimensions      [0 3 -1 0 0 0 0];

internalField   nonuniform List<scalar> 
65775
(
1.70233747853e-11
2.94551637951e-09
4.30195946561e-10
3.57773575393e-15
2.55248316378e-11
3.08386807468e-09
4.760411421e-10
3.00829798002e-11
3.20230846315e-09
5.19563766694e-10
2.94061852063e-11
3.30452174229e-09
5.58654698085e-10
2.4465140616e-11
3.38592523725e-09
5.91336792247e-10
1.61212023907e-11
3.4454559755e-09
6.1598947128e-10
5.62858309443e-12
3.48285188541e-09
6.3154904465e-10
-5.62458889071e-12
3.49701252498e-09
6.37140712115e-10
-1.61174897757e-11
3.48284907366e-09
6.31549101657e-10
-2.44621298092e-11
3.44545022688e-09
6.15989582299e-10
-2.94044249698e-11
3.3859166956e-09
5.91336948996e-10
-3.00829826734e-11
3.30451109137e-09
5.58654878694e-10
-2.55268141091e-11
3.20229725174e-09
5.19563928617e-10
-1.70269462886e-11
3.08385814577e-09
4.76041223667e-10
2.94550984316e-09
4.30195878388e-10
-3.52113853896e-16
4.56082470105e-11
5.04605123263e-09
1.08609247886e-09
1.59405496437e-14
7.54468318692e-11
5.26410191125e-09
1.19718819247e-09
8.9157900551e-11
5.45110291655e-09
1.30178937481e-09
8.78531956697e-11
5.60995216134e-09
1.39511551051e-09
7.32638003657e-11
5.73581575173e-09
1.4727078901e-09
4.83433095511e-11
5.82730847622e-09
1.53099505541e-09
1.68660146498e-11
5.88471653988e-09
1.56768886825e-09
-1.68432262987e-11
5.90657036708e-09
1.58086154798e-09
-4.83219619407e-11
5.88471024229e-09
1.56768898137e-09
-7.32458064688e-11
5.82729593883e-09
1.5309952777e-09
-8.78408875097e-11
5.73579738249e-09
1.47270820633e-09
-8.91533827399e-11
5.60992930082e-09
1.39511587108e-09
-7.5450865221e-11
5.45107839872e-09
1.30178967683e-09
-4.56193692818e-11
5.26408002454e-09
1.19718827963e-09
5.04603602047e-09
1.08609219028e-09
1.6221072679e-15
7.0096653742e-11
6.46907722763e-09
1.57861685418e-09
1.73114416898e-14
1.17672621697e-10
6.72488238845e-09
1.73774234971e-09
1.38867483575e-10
6.94540299774e-09
1.88665070024e-09
1.36730237627e-10
7.12917935556e-09
2.01888074748e-09
1.13893331627e-10
7.27394774665e-09
2.12839255198e-09
7.50816414775e-11
7.37844901928e-09
2.21041694982e-09
2.61701208514e-11
7.44392614445e-09
2.26194119306e-09
-2.61479521184e-11
7.46900414146e-09
2.28040116937e-09
-7.50610808676e-11
7.44391727491e-09
2.2619414395e-09
-1.13876394555e-10
7.37843144432e-09
2.21041742288e-09
-1.36719331972e-10
7.27392226656e-09
2.12839320595e-09
-1.38864742907e-10
7.12914811861e-09
2.01888148106e-09
-1.17678835912e-10
6.9453697269e-09
1.8866513366e-09
-7.01102025175e-11
6.72485220028e-09
1.73774264087e-09
6.46905465556e-09
1.57861655908e-09
4.70350881502e-16
9.17002479717e-11
7.34344651224e-09
1.94517391361e-09
1.91152351516e-14
1.53654391491e-10
7.60771864274e-09
2.14014945887e-09
1.81144883018e-10
7.83639020075e-09
2.32152245497e-09
1.78014403778e-10
8.02317298643e-09
2.48184001556e-09
1.48066484135e-10
8.16914549126e-09
2.61411845466e-09
9.74986225517e-11
8.27366946358e-09
2.71291343074e-09
3.39585855139e-11
8.33903732096e-09
2.77483246887e-09
-3.39348580315e-11
8.36425666281e-09
2.79696541692e-09
-9.74768157869e-11
8.33902634914e-09
2.77483279348e-09
-1.48048826345e-10
8.27364788376e-09
2.71291405799e-09
-1.78003434015e-10
8.16911437325e-09
2.6141193176e-09
-1.81142799271e-10
8.02313492576e-09
2.48184097985e-09
-1.53661960147e-10
7.83634959309e-09
2.32152330044e-09
-9.17157096468e-11
7.60768141647e-09
2.14014988533e-09
7.34341775772e-09
1.94517362699e-09
7.91338439402e-18
1.10294138169e-10
7.7782984145e-09
2.20560139461e-09
2.04366070198e-14
1.84098022386e-10
8.03098854934e-09
2.42670480638e-09
2.16840141543e-10
8.2503715495e-09
2.63112813962e-09
2.12724943241e-10
8.42576498041e-09
2.81095639397e-09
1.7670706521e-10
8.56144804718e-09
2.95876248883e-09
1.16240523709e-10
8.65769209124e-09
3.0688289113e-09
4.04614486635e-11
8.71773764996e-09
3.13764550081e-09
-4.04365290979e-11
8.74110705142e-09
3.1621789554e-09
-1.16217789184e-10
8.71772558124e-09
3.13764587192e-09
-1.76688930812e-10
8.65766841116e-09
3.06882962466e-09
-2.12713992588e-10
8.56141413745e-09
2.95876346529e-09
-2.16838528805e-10
8.42572372647e-09
2.81095748417e-09
-1.84106401553e-10
8.25032761125e-09
2.63112910764e-09
-1.10310722219e-10
8.03094758872e-09
2.42670532488e-09
7.77826515622e-09
2.20560114026e-09
-2.92867740818e-16
1.26180392664e-10
7.86656778059e-09
2.37580254232e-09
2.10454442658e-14
2.09672942511e-10
8.09490348921e-09
2.61521171661e-09
2.46668527699e-10
8.29391739984e-09
2.83516431397e-09
2.41586658264e-10
8.44932708083e-09
3.02768511044e-09
2.0043473891e-10
8.56803739114e-09
3.18529028585e-09
1.31727182758e-10
8.65131270822e-09
3.30229206592e-09
4.58273638914e-11
8.70311407321e-09
3.37525436082e-09
-4.58022114537e-11
8.72348873772e-09
3.40118680878e-09
-1.31704404558e-10
8.70310136528e-09
3.37525474379e-09
-2.00416817223e-10
8.65128788229e-09
3.30229280059e-09
-2.41576135564e-10
8.56800196503e-09
3.1852912907e-09
-2.46667426227e-10
8.44928405532e-09
3.02768623723e-09
-2.09681866116e-10
8.29387139151e-09
2.83516533293e-09
-1.26197602967e-10
8.0948601091e-09
2.61521229758e-09
7.86653147949e-09
2.37580233653e-09
-6.39137781265e-16
1.3974726828e-10
7.68737220332e-09
2.46920618393e-09
2.10570586115e-14
2.31046806964e-10
7.88437509925e-09
2.72068770289e-09
2.71360714255e-10
8.05691848442e-09
2.95024333869e-09
2.65317780028e-10
8.18813505768e-09
3.15013123905e-09
2.19853301341e-10
8.28681446475e-09
3.31309470409e-09
1.4436247613e-10
8.355137538e-09
3.43369052385e-09
5.01982669413e-11
8.39748771175e-09
3.50868510007e-09
-5.0174000844e-11
8.4143603975e-09
3.53524656536e-09
-1.44340668699e-10
8.39747503879e-09
3.50868546626e-09
-2.19836422974e-10
8.35511285082e-09
3.43369122688e-09
-2.65308236553e-10
8.2867793443e-09
3.31309566875e-09
-2.71360346941e-10
8.18809247928e-09
3.15013233125e-09
-2.31056121016e-10
8.05687277413e-09
2.95024435055e-09
-1.39764666053e-10
7.88433128252e-09
2.72068831469e-09
7.68733402725e-09
2.46920602659e-09
-1.09273144675e-15
1.51262385661e-10
7.30786074521e-09
2.49751285615e-09
2.05017799017e-14
2.48756861218e-10
7.47097385464e-09
2.75620619604e-09
2.91571229595e-10
7.61469666642e-09
2.99081974164e-09
2.84590147351e-10
7.72070021496e-09
3.19404438419e-09
2.35539465448e-10
7.79890996792e-09
3.35904297915e-09
1.54534758844e-10
7.85223244093e-09
3.48075446032e-09
5.3710840898e-11
7.88514916081e-09
3.55622106917e-09
-5.36884742713e-11
7.89847142424e-09
3.58284171142e-09
-1.5451484182e-10
7.88513686335e-09
3.55622139543e-09
-2.35524379699e-10
7.85220853443e-09
3.48075508909e-09
-2.84582091032e-10
7.79887601684e-09
3.3590438484e-09
-2.91571855881e-10
7.72065899329e-09
3.19404538332e-09
-2.48766601542e-10
7.61465217807e-09
2.9908206944e-09
-1.51279834653e-10
7.47093056196e-09
2.75620679987e-09
7.30782197146e-09
2.49751272763e-09
-1.69664148674e-15
1.60909846705e-10
6.78465511014e-09
2.4710664376e-09
1.96090771771e-14
2.63242871343e-10
6.91448225e-09
2.73329839615e-09
3.07894855256e-10
7.02969612529e-09
2.96961448726e-09
3.00041512829e-10
7.11165678498e-09
3.17325701103e-09
2.48050774564e-10
7.17074596608e-09
3.33792277128e-09
1.62621080191e-10
7.21032054078e-09
3.45900614106e-09
5.64978857888e-11
7.23464080729e-09
3.53385397596e-09
-5.64783444239e-11
7.24467489647e-09
3.56013347544e-09
-1.6260389707e-10
7.23462925145e-09
3.53385424322e-09
-2.48038180509e-10
7.21029808513e-09
3.45900665996e-09
-3.00035474443e-10
7.17071410717e-09
3.33792349755e-09
-3.07896798095e-10
7.11161799644e-09
3.17325786346e-09
-2.63253180501e-10
7.02965390598e-09
2.96961532689e-09
-1.60927260645e-10
6.91444043307e-09
2.73329894017e-09
6.78461626792e-09
2.47106629685e-09
-2.50764936529e-15
1.68830095162e-10
6.16506939997e-09
2.39903299663e-09
1.83693639358e-14
2.74894483446e-10
6.26425908528e-09
2.66213935737e-09
3.20909842398e-10
6.35299587857e-09
2.89780497361e-09
3.12310581164e-10
6.41347423551e-09
3.09987440724e-09
2.5794809061e-10
6.45592740213e-09
3.26262980376e-09
1.68998909256e-10
6.48380961584e-09
3.3819447777e-09
5.86918792503e-11
6.50086752512e-09
3.45546685102e-09
-5.86759567382e-11
6.50806747565e-09
3.48114332795e-09
-1.6898519395e-10
6.50085689412e-09
3.455467042e-09
-2.57938598833e-10
6.48378898553e-09
3.38194515349e-09
-3.12307057808e-10
6.45589804783e-09
3.26263034026e-09
-3.20913488017e-10
6.41343836576e-09
3.09987505605e-09
-2.74905623282e-10
6.35295644721e-09
2.89780563641e-09
-1.68847655185e-10
6.26421932006e-09
2.66213977226e-09
6.16503137199e-09
2.39903278028e-09
-3.5496597817e-15
1.75124463908e-10
5.48824054289e-09
2.28948922786e-09
1.70062976142e-14
2.84093811281e-10
5.56046999855e-09
2.55164130697e-09
3.31232660805e-10
5.62570834468e-09
2.78512304068e-09
3.22074956524e-10
5.66808192572e-09
2.9843750967e-09
2.65812138571e-10
5.69705016787e-09
3.14426946305e-09
1.7405056629e-10
5.71572698731e-09
3.26114915978e-09
6.04253366871e-11
5.7271056164e-09
3.33293767839e-09
-6.04137305818e-11
5.73202491564e-09
3.35785715849e-09
-1.7404094943e-10
5.72709606948e-09
3.33293777567e-09
-2.6580632714e-10
5.71570841217e-09
3.26114935766e-09
-3.22074413936e-10
5.69702371408e-09
3.14426975815e-09
-3.31238419805e-10
5.66804932149e-09
2.98437547517e-09
-2.84106104258e-10
5.6256720706e-09
2.78512344816e-09
-1.75142370413e-10
5.56043260583e-09
2.55164150473e-09
5.48820357851e-09
2.28948885195e-09
-4.88774051668e-15
1.79854467477e-10
4.78620147986e-09
2.1494767135e-09
1.54978969383e-14
2.91330659092e-10
4.83513498006e-09
2.40952142083e-09
3.39634086521e-10
4.8802982461e-09
2.63993553528e-09
3.30105476362e-10
4.908468032e-09
2.83570020775e-09
2.72252024851e-10
4.92746031177e-09
2.99225369248e-09
1.78156036307e-10
4.93956646731e-09
3.1063814622e-09
6.18267516677e-11
4.94690121835e-09
3.17624836605e-09
-6.18200280518e-11
4.95011809583e-09
3.20033627945e-09
-1.78151057909e-10
4.94689285891e-09
3.17624835175e-09
-2.72250333976e-10
4.93955019368e-09
3.10638144517e-09
-3.3010835941e-10
4.92743687639e-09
2.99225368847e-09
-3.39642339942e-10
4.90843891698e-09
2.83570023776e-09
-2.91344472178e-10
4.8802653466e-09
2.63993559382e-09
-1.79873035772e-10
4.83510028262e-09
2.40952129987e-09
4.78616616273e-09
2.14947608076e-09
-6.53530679726e-15
1.83265838329e-10
4.0846852701e-09
1.98505029187e-09
1.40955330322e-14
2.97596019167e-10
4.11292639512e-09
2.24238235952e-09
3.47229138277e-10
4.14200478253e-09
2.46934398643e-09
3.37270729e-10
4.16035321496e-09
2.66136378096e-09
2.7784326331e-10
4.17295611014e-09
2.81442279048e-09
1.81639085478e-10
4.18099559892e-09
2.92572071776e-09
6.30004093585e-11
4.18579140638e-09
2.99362689417e-09
-6.29989571053e-11
4.18784498773e-09
3.01686287653e-09
-1.81639079854e-10
4.18578429546e-09
2.99362675258e-09
-2.77846084342e-10
4.18098159055e-09
2.92572045166e-09
-3.37277309187e-10
4.1729359221e-09
2.8144224304e-09
-3.47240182718e-10
4.16032768574e-09
2.66136337969e-09
-2.97611630083e-10
4.14197529908e-09
2.46934359389e-09
-1.8328528449e-10
4.11289444521e-09
2.24238181807e-09
4.08465168506e-09
1.98504931789e-09
-8.38900452802e-15
1.86792903487e-10
3.40286654444e-09
1.80133317435e-09
1.26120280024e-14
3.04918400565e-10
3.41230671666e-09
2.05583949986e-09
3.55297992899e-10
3.43084703171e-09
2.27931654531e-09
3.44140127213e-10
3.44394882264e-09
2.46758593291e-09
2.82803345802e-10
3.4532734493e-09
2.61719217793e-09
1.8457754921e-10
3.45926163135e-09
2.72572554462e-09
6.39665512563e-11
3.4627239127e-09
2.79172172822e-09
-6.39705037316e-11
3.46406081161e-09
2.81411875495e-09
-1.84582716908e-10
3.46271795948e-09
2.79172145213e-09
-2.82810699507e-10
3.45924990265e-09
2.72572501115e-09
-3.44150579304e-10
3.45325623089e-09
2.61719142419e-09
-3.5531199452e-10
3.44392678172e-09
2.46758503287e-09
-3.04935984361e-10
3.43082112755e-09
2.27931560474e-09
-1.86813481833e-10
3.41227769167e-09
2.05583845178e-09
3.40283533145e-09
1.8013318202e-09
-1.05930077903e-14
1.96922163819e-10
1.6029308987e-09
1.10404983383e-14
2.74882865566e-09
3.17335318164e-10
1.85504115503e-09
2.74903931633e-09
3.65396985737e-10
2.07501331058e-09
2.76416577104e-09
3.51224811347e-10
2.25953958587e-09
2.77533816284e-09
2.87329908045e-10
2.4057539442e-09
2.78326836108e-09
1.87067018158e-10
2.51160357904e-09
2.78850788533e-09
6.47554653789e-11
2.57575080414e-09
2.7914920105e-09
-6.4764791753e-11
2.59732737691e-09
2.79245924319e-09
-1.87077228001e-10
2.57575040637e-09
2.79148699835e-09
-2.87341762003e-10
2.5116028004e-09
2.78849801217e-09
-3.51238862788e-10
2.40575281982e-09
2.78325384405e-09
-3.65413550639e-10
2.25953819068e-09
2.77531941447e-09
-3.17354571151e-10
2.07501179131e-09
2.76414315274e-09
-1.96943621269e-10
1.85503949539e-09
2.74901338329e-09
1.60292930292e-09
-1.31218072226e-14
2.74880051636e-09
-4.33491104731e-12
1.68138666564e-10
2.66396027705e-10
2.0399930931e-15
-5.5337065776e-12
1.84107317039e-10
2.9314194241e-10
-5.75501977523e-12
2.01477154272e-10
3.18317468808e-10
-5.32603258608e-12
2.17394487919e-10
3.40839393659e-10
-4.30690851716e-12
2.30716046889e-10
3.59606949659e-10
-2.8050762145e-12
2.40761349023e-10
3.73729502931e-10
-9.74942978857e-13
2.47086634262e-10
3.82634290049e-10
9.72698478253e-13
2.49352438977e-10
3.85842253213e-10
2.80314294638e-12
2.4708580121e-10
3.82634377568e-10
4.30538872641e-12
2.4075921699e-10
3.73729660456e-10
5.3246877956e-12
2.3071203839e-10
3.59607141718e-10
5.75318607208e-12
2.17388373953e-10
3.40839569671e-10
5.53101283922e-12
2.01470068034e-10
3.1831757023e-10
4.33130183852e-12
1.84100544482e-10
2.93141911369e-10
1.68134140834e-10
2.66395876836e-10
-1.41293204803e-15
-6.96497517619e-12
4.90612503229e-10
7.70585243988e-10
8.6415004917e-15
-8.94268042107e-12
5.33439352271e-10
8.49849538585e-10
-9.00901461548e-12
5.78818549723e-10
9.24530667071e-10
-8.06659597996e-12
6.20224420051e-10
9.91356623836e-10
-6.36269058521e-12
6.5466552964e-10
1.04706341343e-09
-4.078661459e-12
6.80480041389e-10
1.08899777618e-09
-1.40813370112e-12
6.96684027362e-10
1.11542448663e-09
1.4075579673e-12
7.02492950978e-10
1.12490824015e-09
4.07874706294e-12
6.96681556858e-10
1.11542471414e-09
6.36338653545e-12
6.8047433769e-10
1.08899818115e-09
8.06677418919e-12
6.54655609859e-10
1.04706389559e-09
9.00654077236e-12
6.20210084213e-10
9.91357042281e-10
8.93600077894e-12
5.78802032127e-10
9.2453085826e-10
6.95417356689e-12
5.33423791897e-10
8.49849351578e-10
4.9060171259e-10
7.70584696025e-10
-3.54694836001e-15
-5.43578199588e-12
8.65004761115e-10
1.20966051447e-09
9.63786225803e-15
-6.41785775713e-12
9.35866793602e-10
1.33630961018e-09
-5.7410115723e-12
1.00936725882e-09
1.45543792844e-09
-4.56173447641e-12
1.07606252566e-09
1.56187369757e-09
-3.26099399035e-12
1.13126920913e-09
1.65049532002e-09
-1.95760146275e-12
1.17245074931e-09
1.71714754124e-09
-6.60313196549e-13
1.19823048292e-09
1.75910065753e-09
6.52941932269e-13
1.20747168654e-09
1.77411174505e-09
1.950957049e-12
1.19822631943e-09
1.75910099569e-09
3.25512227593e-12
1.17244174677e-09
1.71714814513e-09
4.55558447146e-12
1.13125459688e-09
1.65049604242e-09
5.73259942791e-12
1.07604251865e-09
1.56187432532e-09
6.40560787983e-12
1.00934440193e-09
1.45543820405e-09
5.4199841358e-12
9.35844934816e-10
1.33630929058e-09
8.64987721063e-10
1.20965959191e-09
-7.10914236457e-15
-9.90304563747e-13
1.23436135377e-09
1.57680580041e-09
1.08726903842e-14
5.00807283652e-13
1.33006418822e-09
1.74447324065e-09
2.39481724242e-12
1.42728105274e-09
1.90172717248e-09
3.55946537243e-12
1.51485521271e-09
2.04189286171e-09
3.61419041318e-12
1.58696244488e-09
2.15837767132e-09
2.6283600869e-12
1.64049847213e-09
2.2458562552e-09
9.44525243032e-13
1.6739197744e-09
2.30083032844e-09
-9.56391509299e-13
1.68589737903e-09
2.32044326771e-09
-2.63961509441e-12
1.67391399783e-09
2.30083073543e-09
-3.62484163027e-12
1.64048635151e-09
2.24585697088e-09
-3.57053708939e-12
1.5869433843e-09
2.15837851503e-09
-2.40815577861e-12
1.51482981324e-09
2.04189357011e-09
-5.17860643601e-13
1.42725220319e-09
1.90172742406e-09
9.69926248574e-13
1.33003637944e-09
1.74447272018e-09
1.23433895725e-09
1.57680446118e-09
-1.01729503896e-14
5.53768139569e-12
1.56066146916e-09
1.87375967143e-09
1.21758561117e-14
1.05325894985e-11
1.67576556256e-09
2.07601835541e-09
1.39910177938e-11
1.78997919552e-09
2.26498097002e-09
1.49293221963e-11
1.89199740462e-09
2.43288363863e-09
1.31136681229e-11
1.97547770822e-09
2.57206848625e-09
8.91259920837e-12
2.03714413651e-09
2.67638833242e-09
3.13686946594e-12
2.07552494068e-09
2.74181895257e-09
-3.15180820339e-12
2.08927481174e-09
2.76509255208e-09
-8.92718375264e-12
2.07551793814e-09
2.74181937233e-09
-1.31280717112e-11
2.03712979265e-09
2.67638906365e-09
-1.49445194366e-11
1.97545592919e-09
2.57206932991e-09
-1.40086496055e-11
1.89196907568e-09
2.43288430434e-09
-1.05538298024e-11
1.78994727556e-09
2.26498110183e-09
-5.56203050744e-12
1.67573411531e-09
2.07601759377e-09
1.5606345543e-09
1.87375792347e-09
-1.28513951947e-14
1.33828471769e-11
1.82058856865e-09
2.10248672782e-09
1.33065079956e-14
2.25910768525e-11
1.94879067088e-09
2.33298736586e-09
2.78527162192e-11
2.07256297517e-09
2.5473278352e-09
2.84088391552e-11
2.18207242427e-09
2.73706136523e-09
2.42961353533e-11
2.27102176836e-09
2.89386445171e-09
1.62741182188e-11
2.33635390057e-09
3.01110825619e-09
5.69958941896e-12
2.37687698046e-09
3.08447977111e-09
-5.71701966248e-12
2.39138586411e-09
3.1104947329e-09
-1.62914955997e-11
2.37686906992e-09
3.08448015774e-09
-2.43137873431e-11
2.3363379341e-09
3.01110891888e-09
-2.84277252188e-11
2.27099789889e-09
2.89386518841e-09
-2.78742089866e-11
2.18204182103e-09
2.73706188186e-09
-2.26161066157e-11
2.0725285771e-09
2.54732777015e-09
-1.34107760468e-11
1.94875641552e-09
2.33298633824e-09
1.82055844725e-09
2.10248460057e-09
-1.52480176318e-14
2.18774874346e-11
2.00222508945e-09
2.26568464477e-09
1.42128403495e-14
3.57474816656e-11
2.13724372035e-09
2.51837178187e-09
4.29552931046e-11
2.26351229445e-09
2.75209302219e-09
4.303030717e-11
2.37404276536e-09
2.95809150182e-09
3.63710781302e-11
2.46303452782e-09
3.12774555714e-09
2.41963378894e-11
2.52797032135e-09
3.25425215508e-09
8.45298702345e-12
2.56808754524e-09
3.33322048657e-09
-8.472943332e-12
2.58243803297e-09
3.36112244271e-09
-2.42165284829e-11
2.56807919837e-09
3.33322079696e-09
-3.63919776554e-11
2.52795367899e-09
3.25425267074e-09
-4.30527996326e-11
2.46301001126e-09
3.12774608807e-09
-4.29804585658e-11
2.37401170885e-09
2.95809177219e-09
-3.57759673695e-11
2.2634773257e-09
2.75209269067e-09
-2.19085198582e-11
2.1372083222e-09
2.5183704677e-09
2.00219251418e-09
2.26568217238e-09
-1.74671432199e-14
3.04830037231e-11
2.10232023917e-09
2.36692548074e-09
1.47894426956e-14
4.92370917319e-11
2.23845740671e-09
2.63624458775e-09
5.84518195948e-11
2.36121453983e-09
2.88390877628e-09
5.79998878886e-11
2.46737425991e-09
3.10116998715e-09
4.86976325132e-11
2.55196171185e-09
3.27942212888e-09
3.22646301876e-11
2.61321668628e-09
3.41194425694e-09
1.12536543564e-11
2.65088376515e-09
3.49443832955e-09
-1.12765248768e-11
2.66433861258e-09
3.52347336341e-09
-3.22879540848e-11
2.65087529848e-09
3.4944385241e-09
-4.87219814498e-11
2.61319990756e-09
3.4119445533e-09
-5.80260355728e-11
2.55193718033e-09
3.27942236266e-09
-5.84805996233e-11
2.4673433178e-09
3.10116992008e-09
-4.92688438184e-11
2.36117966133e-09
2.88390810981e-09
-3.05169268633e-11
2.23842158391e-09
2.6362429586e-09
2.10228657184e-09
2.36692268469e-09
-1.95374191468e-14
3.87899231615e-11
2.12399971712e-09
2.41058691384e-09
1.51419696261e-14
6.24512896002e-11
2.25645594472e-09
2.69164339744e-09
7.36670530458e-11
2.371081091e-09
2.94853682672e-09
7.2691471098e-11
2.46883239368e-09
3.17277845232e-09
6.07782479745e-11
2.54577687295e-09
3.35602411496e-09
4.01612798752e-11
2.60101204026e-09
3.49183045232e-09
1.39925130038e-11
2.63479253178e-09
3.57611618096e-09
-1.40189082338e-11
2.64683241103e-09
3.60565298739e-09
-4.01882690331e-11
2.63478430381e-09
3.57611622354e-09
-6.08064328038e-11
2.60099579968e-09
3.49183046293e-09
-7.27214937295e-11
2.54575324295e-09
3.35602396602e-09
-7.369947147e-11
2.4688026171e-09
3.17277795926e-09
-6.24862063074e-11
2.3710472808e-09
2.94853575226e-09
-3.88264275081e-11
2.25642059127e-09
2.69164140982e-09
2.12396526353e-09
2.41058379358e-09
-2.15863685794e-14
4.65120137251e-11
2.07483948776e-09
2.40167001474e-09
1.5179264012e-14
7.49328062449e-11
2.19985226797e-09
2.69032615723e-09
8.80950615953e-11
2.30317552184e-09
2.95255212292e-09
8.66446863715e-11
2.38986961379e-09
3.1802909674e-09
7.22554211157e-11
2.45716449463e-09
3.36563435981e-09
4.76620966631e-11
2.5050015599e-09
3.50255097672e-09
1.65933769866e-11
2.53407491821e-09
3.58725523794e-09
-1.66239652202e-11
2.54440174138e-09
3.61679304326e-09
-4.76933261428e-11
2.53406713569e-09
3.58725509568e-09
-7.22878507377e-11
2.50498623296e-09
3.50255063999e-09
-8.66788207408e-11
2.45714216044e-09
3.36563374625e-09
-8.81312163253e-11
2.3898414078e-09
3.18028995899e-09
-7.49708587796e-11
2.30314321862e-09
2.95255055916e-09
-4.65510473656e-11
2.19981785773e-09
2.69032374927e-09
2.07480517241e-09
2.40166654498e-09
-2.35935261445e-14
5.34761870508e-11
1.9652757239e-09
2.34556530795e-09
1.50657882853e-14
8.63748681745e-11
2.0801193531e-09
2.63847870968e-09
1.0140612813e-10
2.17028540902e-09
2.90298491137e-09
9.95731402121e-11
2.24453528311e-09
3.13154514285e-09
8.29160338072e-11
2.30130095024e-09
3.31679243694e-09
5.46373463183e-11
2.34124163765e-09
3.45318986383e-09
1.901277875e-11
2.36534974396e-09
3.53728918077e-09
-1.90482056211e-11
2.37386826121e-09
3.56645319371e-09
-5.46733588147e-11
2.36534259769e-09
3.53728882461e-09
-8.2953115457e-11
2.34122752228e-09
3.4531891239e-09
-9.96115980832e-11
2.30128035155e-09
3.31679128118e-09
-1.01446091417e-10
2.24450901975e-09
3.13154352914e-09
-8.64160358103e-11
2.17025490742e-09
2.90298276948e-09
-5.35175917154e-11
2.08008613717e-09
2.63847580437e-09
1.96524148751e-09
2.34556144183e-09
-2.56767685082e-14
5.96079113812e-11
1.80732446737e-09
2.24780815737e-09
1.47123329663e-14
9.66329801055e-11
1.91018761655e-09
2.54243052291e-09
1.13478339361e-10
1.98639034716e-09
2.80698759832e-09
1.11393932124e-10
2.04787224031e-09
3.0344498148e-09
9.27086785645e-11
2.09419516227e-09
3.21804667225e-09
6.10586633282e-11
2.12649081331e-09
3.35278380449e-09
2.12416966208e-11
2.14585057801e-09
3.43556598199e-09
-2.1282455751e-11
2.15263640381e-09
3.46409343748e-09
-6.10998740447e-11
2.14584416318e-09
3.43556538925e-09
-9.27506478876e-11
2.12647811098e-09
3.3527826159e-09
-1.11436839558e-10
2.09417640026e-09
3.21804490688e-09
-1.13522110909e-10
2.0478480464e-09
3.03444751144e-09
-9.6677194133e-11
1.98636175419e-09
2.80698478962e-09
-5.96516565666e-11
1.91015567252e-09
2.54242704145e-09
1.80729071117e-09
2.24780384131e-09
-2.77851821625e-14
6.49706590867e-11
1.61354199654e-09
2.11385047922e-09
1.43044710555e-14
1.05837596084e-10
1.70327752833e-09
2.40842754793e-09
1.24518089251e-10
1.76548219222e-09
2.67157359839e-09
1.22312273539e-10
1.81477340364e-09
2.89667008005e-09
1.01789145667e-10
1.85154820453e-09
3.07759420017e-09
6.70193065864e-11
1.87705099846e-09
3.20993177083e-09
2.33107625059e-11
1.89224682836e-09
3.29094007547e-09
-2.33571042718e-11
1.89750779783e-09
3.3186604325e-09
-6.70658686572e-11
1.89224115725e-09
3.2909392358e-09
-1.01836083719e-10
1.87703967263e-09
3.20993010993e-09
-1.22359528447e-10
1.85153136966e-09
3.07759178322e-09
-1.2456548783e-10
1.81475127251e-09
2.89666702418e-09
-1.05884672453e-10
1.76545532532e-09
2.67157004978e-09
-6.50164872107e-11
1.70324667791e-09
2.40842343458e-09
1.61350836557e-09
2.11384569462e-09
-2.98768783267e-14
6.9755917147e-11
1.39624091704e-09
1.94886691322e-09
1.35842621898e-14
1.14396580062e-10
1.47194751155e-09
2.24253042281e-09
1.35068819014e-10
1.52067349328e-09
2.50345437621e-09
1.32812870864e-10
1.55922104839e-09
2.72539571966e-09
1.1051081524e-10
1.58802826937e-09
2.90301549862e-09
7.27294999358e-11
1.60804409125e-09
3.03251465452e-09
2.52899585181e-11
1.61992364022e-09
3.11148554674e-09
-2.53418060292e-11
1.62396024243e-09
3.13829875034e-09
-7.27812944569e-11
1.61991860608e-09
3.11148447142e-09
-1.10562430591e-10
1.60803393806e-09
3.0325125383e-09
-1.32864164795e-10
1.58801294981e-09
2.90301244064e-09
-1.35119532183e-10
1.55920058336e-09
2.7253918988e-09
-1.14446162858e-10
1.5206482636e-09
2.50345005061e-09
-6.9803623328e-11
1.47191755552e-09
2.24252566812e-09
1.39620750444e-09
1.94886172657e-09
-3.20545626005e-14
6.98792719534e-11
1.75753427709e-09
1.25999109178e-14
1.17174749691e-09
1.21013800825e-10
2.05066875043e-09
1.22518670428e-09
1.44839153858e-10
2.30878605196e-09
1.26307683009e-09
1.4303041827e-10
2.52706198794e-09
1.29350842505e-09
1.19172936412e-10
2.70104578817e-09
1.31659502336e-09
7.8458904819e-11
2.82752239254e-09
1.33284043773e-09
2.72847152776e-11
2.90436139084e-09
1.34248806584e-09
-2.73416999405e-11
2.93022942489e-09
1.34568554009e-09
-7.85155278371e-11
2.90436012689e-09
1.34248328011e-09
-1.19228741681e-10
2.82751990984e-09
1.33283090116e-09
-1.43085071805e-10
2.70104220448e-09
1.31658058915e-09
-1.44892220313e-10
2.52705751161e-09
1.29348910493e-09
-1.21065011612e-10
2.30878102599e-09
1.26305247319e-09
-6.99280554678e-11
2.05066333571e-09
1.2251573802e-09
1.75752902176e-09
-3.41472099011e-14
1.17171442966e-09
2.0949916984e-12
-6.77964764924e-12
2.71084464527e-10
1.35115106603e-15
3.43549669049e-12
-8.02202888371e-12
2.99829638129e-10
4.17478909725e-12
-9.44594484548e-12
3.27030986636e-10
4.21880177186e-12
-1.06782838909e-11
3.51479634205e-10
3.59068931967e-12
-1.16923286816e-11
3.71933400941e-10
2.40393876787e-12
-1.24506850494e-11
3.87372346664e-10
8.45614752933e-13
-1.29259066173e-11
3.97122601073e-10
-8.46780369318e-13
-1.30925149345e-11
4.00629990487e-10
-2.40530716017e-12
-1.29276984691e-11
3.97122555584e-10
-3.59246611452e-12
-1.24539657816e-11
3.87372249087e-10
-4.22096578642e-12
-1.16964205711e-11
3.71933237456e-10
-4.17708502519e-12
-1.06826371973e-11
3.51479383928e-10
-3.43823679502e-12
-9.45093071189e-12
3.27030619191e-10
-2.09799160955e-12
-8.02654371735e-12
2.99829134442e-10
-6.7834501846e-12
2.71083897181e-10
-1.69490664719e-15
5.11527410678e-12
1.5475965863e-11
7.43218981289e-10
4.00456323025e-15
8.67047680208e-12
1.65856288169e-11
8.2169793622e-10
1.06169369483e-11
1.73817648134e-11
8.95768525589e-10
1.07697276362e-11
1.83706158083e-11
9.62165823553e-10
9.18271726802e-12
1.93679840639e-11
1.01760024289e-09
6.15251396825e-12
2.02048164422e-11
1.05938113085e-09
2.16441180014e-12
2.07622760848e-11
1.08573088853e-09
-2.16623148176e-12
2.09662444045e-11
1.09518469902e-09
-6.15505686298e-12
2.07583393182e-11
1.08573071704e-09
-9.18665016774e-12
2.01974647449e-11
1.05938077289e-09
-1.07751374228e-11
1.93582836078e-11
1.01759966577e-09
-1.06234408819e-11
1.83594928116e-11
9.62164976204e-10
-8.67844096279e-12
1.73692084308e-11
8.95767335939e-10
-5.12447045642e-12
1.65739708331e-11
8.21696360725e-10
1.54666950243e-11
7.43217188183e-10
-5.745594084e-15
7.32330182376e-12
7.23730442634e-11
1.14544314014e-09
4.20909211342e-15
1.26262380241e-11
7.9979867238e-11
1.26762073409e-09
1.55299921039e-11
8.72343511038e-11
1.38269005794e-09
1.5780148248e-11
9.43491166617e-11
1.48565347229e-09
1.34630036301e-11
1.00687331114e-10
1.57150123384e-09
9.01984370339e-12
1.05662746352e-10
1.63613979723e-09
3.16963288643e-12
1.08864665975e-10
1.67685382223e-09
-3.18003412347e-12
1.10011516367e-10
1.69141997072e-09
-9.0307925434e-12
1.08859257569e-10
1.67685358772e-09
-1.34749677392e-11
1.05652606118e-10
1.63613929055e-09
-1.57930909355e-11
1.00673819615e-10
1.57150037954e-09
-1.55435021931e-11
9.43336323048e-11
1.48565216403e-09
-1.26403726938e-11
8.72175551457e-11
1.38268816833e-09
-7.33778391275e-12
7.99638266465e-11
1.26761818466e-09
7.2359553852e-11
1.1454401607e-09
-9.98497172187e-15
9.15071295428e-12
1.54522088741e-10
1.48550834855e-09
4.24830360309e-15
1.59464014105e-11
1.71347325709e-10
1.64631826089e-09
1.96805874331e-11
1.87829224584e-10
1.79740687487e-09
2.00221473227e-11
2.03563564072e-10
1.93234527458e-09
1.7089977418e-11
2.17311817313e-10
2.04469302164e-09
1.14494586122e-11
2.27973252716e-10
2.12919266567e-09
4.02055416107e-12
2.34784310065e-10
2.18234450246e-09
-4.03916084724e-12
2.37212279112e-10
2.20130578939e-09
-1.14684444799e-11
2.34777733748e-10
2.18234417921e-09
-1.71096204029e-11
2.27960824123e-10
2.12919196441e-09
-2.00423134287e-11
2.17294908754e-10
2.04469183506e-09
-1.97008310451e-11
2.03543793996e-10
1.93234345551e-09
-1.59665693251e-11
1.87807866327e-10
1.79740425623e-09
-9.17035770188e-12
1.71326868708e-10
1.64631473525e-09
1.54504844352e-10
1.48550416507e-09
-1.42149036935e-14
1.0919782507e-11
2.51872650796e-10
1.76549040711e-09
4.36381312896e-15
1.91193949901e-11
2.79157215231e-10
1.96001447894e-09
2.3625012624e-11
3.06052413301e-10
2.14225815629e-09
2.4040725587e-11
3.31371548988e-10
2.30466602654e-09
2.05192959323e-11
3.53248909353e-10
2.43965855058e-09
1.37437546734e-11
3.70084106012e-10
2.5410579666e-09
4.82327045411e-12
3.80785350673e-10
2.6047422351e-09
-4.84957275056e-12
3.84587986376e-10
2.62739258951e-09
-1.37702907718e-11
3.80778201865e-10
2.60474179826e-09
-2.05462033573e-11
3.70070520833e-10
2.54105702723e-09
-2.40677845755e-11
3.53230330269e-10
2.43965698159e-09
-2.36517196898e-11
3.31349730352e-10
2.30466365659e-09
-1.9145352895e-11
3.06029046839e-10
2.14225479704e-09
-1.09443419115e-11
2.79134582314e-10
1.96001000509e-09
2.51852664577e-10
1.76548506271e-09
-1.82769968307e-14
1.28681451878e-11
3.54144391491e-10
1.98734673569e-09
4.49354031786e-15
2.25180548033e-11
3.91729044173e-10
2.21077077271e-09
2.77971842686e-11
4.28716730295e-10
2.41939004998e-09
2.82616816723e-11