/*--------------------------------*- C++ -*----------------------------------*\
  =========                 |
  \\      /  F ield         | OpenFOAM: The Open Source CFD Toolbox
   \\    /   O peration     | Website:  https://openfoam.org
    \\  /    A nd           | Version:  7
     \\/     M anipulation  |
\*---------------------------------------------------------------------------*/
FoamFile
{
    version     2.0;
    format      ascii;
    class       volVectorField;
    location    "1.88";
    object      U;
}
// * * * * * * * * * * * * * * * * * * * * * * * * * * * * * * * * * * * * * //

dimensions      [0 1 -1 0 0 0 0];

internalField   nonuniform List<vector> 
22500
(
(1.29063676889e-05 1.44611660642e-05 0.00020022294077)
(1.20232995949e-05 1.6295778568e-05 0.000210186931935)
(1.05352449928e-05 1.81499570508e-05 0.000219262042616)
(8.86395628104e-06 1.97277576401e-05 0.000227094673608)
(6.89425039798e-06 2.10346911289e-05 0.000233439582168)
(4.72196210713e-06 2.20063852245e-05 0.000238106118812)
(2.39987315986e-06 2.26057265739e-05 0.000240962375018)
(5.85101307485e-11 2.28084998229e-05 0.000241929017841)
(-2.3997596109e-06 2.26057270153e-05 0.00024096239553)
(-4.72186044551e-06 2.20063837933e-05 0.000238106158694)
(-6.89417283957e-06 2.10346823033e-05 0.000233439638615)
(-8.86391633925e-06 1.97277329494e-05 0.000227094740261)
(-1.05352538322e-05 1.81499055832e-05 0.000219262107203)
(-1.20233591136e-05 1.6295694364e-05 0.000210186970897)
(-1.29064546382e-05 1.44610622663e-05 0.00020022290671)
(3.75538614916e-05 4.21110181278e-05 0.000524299262275)
(3.49091798733e-05 4.73436403139e-05 0.000546595044056)
(3.06786227612e-05 5.25759649279e-05 0.000566670784089)
(2.57820597126e-05 5.70683462769e-05 0.000583834170331)
(2.00598046382e-05 6.07896115615e-05 0.000597624870978)
(1.37372738633e-05 6.35584912079e-05 0.000607704803415)
(6.98129430131e-06 6.52676845929e-05 0.000613847846344)
(3.34979534473e-10 6.58458145749e-05 0.000615919475287)
(-6.98063923085e-06 6.52676697715e-05 0.000613847899661)
(-1.37366692034e-05 6.3558451363e-05 0.00060770490717)
(-2.00593001917e-05 6.07895276603e-05 0.000597625017818)
(-2.57817128711e-05 5.70681916021e-05 0.000583834343254)
(-3.06784825601e-05 5.25757142241e-05 0.000566670949964)
(-3.49092554183e-05 4.73432816034e-05 0.000546595137734)
(-3.75540892636e-05 4.21105909847e-05 0.000524299170917)
(5.65505756716e-05 6.33101804155e-05 0.000785932923023)
(5.23020128057e-05 7.07899989123e-05 0.000815377224651)
(4.58672685012e-05 7.82079684876e-05 0.000841614436472)
(3.84290320987e-05 8.45610667561e-05 0.000863864969019)
(2.98377878362e-05 8.98023979085e-05 0.00088162062596)
(2.03999623449e-05 9.36920449237e-05 0.000894530489285)
(1.03568044134e-05 9.60888998241e-05 0.00090236900864)
(3.26197867047e-10 9.68988485591e-05 0.000905004974018)
(-1.0356166194e-05 9.60888470487e-05 0.00090236910032)
(-2.03993718031e-05 9.36919308521e-05 0.000894530667014)
(-2.98372920443e-05 8.98022061797e-05 0.000881620876123)
(-3.84286871254e-05 8.45607776755e-05 0.000863865263048)
(-4.58671253726e-05 7.82075657334e-05 0.000841614721998)
(-5.23020879163e-05 7.07894889071e-05 0.000815377403945)
(-5.65508108447e-05 6.3309614935e-05 0.000785932833006)
(7.11167885048e-05 7.94723635851e-05 0.000997797288076)
(6.54501341653e-05 8.8330630653e-05 0.00103079266835)
(5.7239713728e-05 9.70713885853e-05 0.00105987288538)
(4.78056073353e-05 0.000104516557071 0.00108433111486)
(3.7032611959e-05 0.000110632761604 0.00110371316054)
(2.52743572218e-05 0.000115156871242 0.00111773036605)
(1.28175872071e-05 0.000117938814941 0.00112620916985)
(3.49941407456e-10 0.000118877795752 0.00112905301891)
(-1.28169026642e-05 0.000117938727294 0.00112620928583)
(-2.52737230003e-05 0.000115156688065 0.00111773059089)
(-3.70320753417e-05 0.000110632469036 0.00110371347727)
(-4.78052256115e-05 0.000104516142064 0.00108433148911)
(-5.72395409039e-05 9.7070844743e-05 0.00105987325533)
(-6.54501893821e-05 8.83299769718e-05 0.00103079291996)
(-7.11170160883e-05 7.94716604318e-05 0.000997797230155)
(8.21587650889e-05 9.16689071654e-05 0.0011693845333)
(7.52626833613e-05 0.000101253442367 0.00120340746136)
(6.56258736216e-05 0.000110682188958 0.00123303863251)
(5.46394420362e-05 0.00011866262998 0.00125773861327)
(4.22288515114e-05 0.0001251893412 0.00127716762521)
(2.87703568038e-05 0.000130000830339 0.00129113860572)
(1.45749558729e-05 0.000132952935718 0.00129955551842)
(3.68255232276e-10 0.000133948156957 0.00130237135961)
(-1.45742361831e-05 0.000132952821197 0.0012995556467)
(-2.87696913577e-05 0.000130000594255 0.00129113885494)
(-4.22282881492e-05 0.000125188972423 0.00127716797799)
(-5.46390370761e-05 0.000118662120376 0.00125773903498)
(-6.56256800021e-05 0.000110681540688 0.00123303906113)
(-7.52627188162e-05 0.000101252682068 0.00120340777898)
(-8.21589784959e-05 9.16680959935e-05 0.00116938453432)
(9.01675115912e-05 0.000100458075386 0.00130804297514)
(8.22272822512e-05 0.000110237017965 0.00134133511042)
(7.14721501703e-05 0.000119842248634 0.00136995427519)
(5.93217198559e-05 0.000127917307959 0.00139357683918)
(4.57408261972e-05 0.000134489704991 0.00141200810086)
(3.11085162027e-05 0.000139318145922 0.00142517857151)
(1.57426712425e-05 0.000142273842354 0.00143307837977)
(3.72239814832e-10 0.000143269082206 0.00143571424938)
(-1.57419449048e-05 0.000142273706824 0.00143307851062)
(-3.11078468177e-05 0.000139317868959 0.00142517882689)
(-4.57402607268e-05 0.000134489278776 0.00141200846586)
(-5.93213118633e-05 0.000127916729332 0.00139357728377)
(-7.14719498e-05 0.000119841525734 0.00136995474443)
(-8.22273047036e-05 0.000110236181226 0.00134133549051)
(-9.01677080963e-05 0.00010045718328 0.00130804305066)
(9.55421977693e-05 0.000106281721135 0.00141962594396)
(8.67385197731e-05 0.000115825423048 0.00145099653196)
(7.51430584288e-05 0.000125196031103 0.00147757949059)
(6.21717405106e-05 0.000133018536706 0.00149928247834)
(4.78252086972e-05 0.000139352598494 0.00151606399861)
(3.24689674515e-05 0.000143989695632 0.00152797190608)
(1.64136345387e-05 0.000146821619311 0.00153507959167)
(3.59509842313e-10 0.000147774056001 0.00153744451402)
(-1.64129342431e-05 0.000146821467081 0.0015350797182)
(-3.24683248451e-05 0.00014398938696 0.0015279721549)
(-4.78246682257e-05 0.000139352128536 0.00151606435953)
(-6.21713511135e-05 0.000133017907134 0.00149928292964)
(-7.51428648624e-05 0.000125195254712 0.00147757998925)
(-8.67385343297e-05 0.000115824533399 0.00145099697189)
(-9.5542376514e-05 0.000106280770975 0.00141962610054)
(9.86621004033e-05 0.000109563509903 0.00150889789356)
(8.91686990824e-05 0.00011853859168 0.00153758762873)
(7.69827354812e-05 0.000127354874206 0.00156151703061)
(6.34900854581e-05 0.000134661186648 0.00158081706149)
(4.87230628583e-05 0.000140545105244 0.00159559069369)
(3.30205270681e-05 0.000144837909521 0.00160599157682)
(1.66747783809e-05 0.000147453568347 0.00161216574148)
(3.31641267991e-10 0.000148332278954 0.00161421379076)
(-1.6674133792e-05 0.000147453404414 0.00161216585934)
(-3.30199391179e-05 0.000144837578987 0.00160599181113)
(-4.8722572253e-05 0.000140544606226 0.00159559104053)
(-6.34897354812e-05 0.000134660524469 0.00158081750969)
(-7.69825653722e-05 0.000127354065164 0.00156151755151)
(-8.91687174092e-05 0.000118537668983 0.00153758812395)
(-9.86622658672e-05 0.000109562522059 0.00150889812848)
(9.98730113808e-05 0.000110692814919 0.00157979748008)
(8.98537726843e-05 0.000118849478852 0.00160537807675)
(7.7300491322e-05 0.000126869533983 0.00162634528294)
(6.35461732738e-05 0.000133465774467 0.0016430288493)
(4.86498717961e-05 0.000138748095586 0.00165565558972)
(3.29137053073e-05 0.000142589741143 0.00166446601045)
(1.66034642874e-05 0.000144925599787 0.0016696635332)
(2.89965165703e-10 0.000145709521768 0.00167138177243)
(-1.66029024081e-05 0.000144925428299 0.0016696636397)
(-3.29131972733e-05 0.000142589396707 0.00166446622519)
(-4.8649453907e-05 0.000138747578927 0.00165565591573)
(-6.35458821013e-05 0.000133465093154 0.00164302928691)
(-7.73003598791e-05 0.000126868706575 0.0016263458184)
(-8.98538054802e-05 0.000118848538231 0.0016053786169)
(-9.98731704648e-05 0.000110691804062 0.00157979777969)
(9.94826264986e-05 0.000110017987069 0.00163561282356)
(8.90890420699e-05 0.000117174886564 0.00165790876674)
(7.63668797592e-05 0.000124219818511 0.00167583702803)
(6.25753633759e-05 0.000129968022875 0.00168989010844)
(4.7793455388e-05 0.000134546054079 0.00170039056082)
(3.2279297269e-05 0.00013786673213 0.00170764288529)
(1.62667642433e-05 0.000139882389046 0.00171189066127)
(2.36470218213e-10 0.000140558300737 0.00171328951965)
(-1.62663083263e-05 0.00013988221431 0.00171189075392)
(-3.22788911264e-05 0.000137866382295 0.00170764307537)
(-4.77931305043e-05 0.000134545530997 0.00170039085813)
(-6.25751499022e-05 0.000129967335756 0.00168989052473)
(-7.63668038004e-05 0.000124218986053 0.00167583756389)
(-8.90891040475e-05 0.000117173940128 0.00165790933039)
(-9.94827886884e-05 0.000110016965532 0.00163561315964)
(9.77636617956e-05 0.000107851043547 0.00167910099099)
(8.71326060159e-05 0.000113878569999 0.00169812685418)
(7.44177940136e-05 0.00011981808836 0.00171310989817)
(6.07830009475e-05 0.000124624722559 0.00172466090927)
(4.63171583973e-05 0.000128435200611 0.0017331666156)
(3.12304543305e-05 0.000131194659182 0.00173897199277)
(1.57224657045e-05 0.000132867824813 0.00174234383611)
(1.72629089547e-10 0.000133428577913 0.00174344926624)
(-1.57221358779e-05 0.000132867650832 0.0017423439109)
(-3.1230169447e-05 0.000131194311274 0.00173897214951)
(-4.63169448319e-05 0.000128434681276 0.00173316686993)
(-6.07828822084e-05 0.00012462404053 0.00172466128347)
(-7.44177894745e-05 0.000119817261988 0.00171311040647)
(-8.71327108403e-05 0.000113877627918 0.00169812740231)
(-9.77638395648e-05 0.000107850021159 0.00167910131519)
(9.49551666022e-05 0.000104471441876 0.00171257142856)
(8.42096444207e-05 0.000109271793208 0.00172848313934)
(7.16610656802e-05 0.000114011978728 0.00174073697687)
(5.83500145593e-05 0.000117820786632 0.00175001029244)
(4.43633847588e-05 0.000120833209492 0.00175672356661)
(2.98645697285e-05 0.000123014440606 0.00176124146636)
(1.50198795e-05 0.000124336372373 0.00176383922821)
(1.00396801849e-10 0.000124779243026 0.00176468632509)
(-1.50196924784e-05 0.000124336204033 0.00176383927806)
(-2.98644219617e-05 0.000123014103917 0.00176124157431)
(-4.43632980884e-05 0.000120832705183 0.00175672375203)
(-5.83500063087e-05 0.000117820122268 0.00175001058652)
(-7.16611479835e-05 0.000114011170515 0.00174073740765)
(-8.42098069065e-05 0.000109270865987 0.00172848360873)
(-9.49553726177e-05 0.00010447042886 0.0017125716661)
(9.12597077137e-05 0.000100110511567 0.00173794522996)
(8.05245531163e-05 0.000103603804216 0.0017510098329)
(6.828934505e-05 0.000107089553476 0.00176083663386)
(5.54396579207e-05 0.000109881271167 0.00176811344291)
(4.20558675407e-05 0.000112093148634 0.00177327349503)
(2.82637737688e-05 0.000113695894057 0.00177668661374)
(1.4199889024e-05 0.000114666490925 0.00177862492193)
(2.24410999964e-11 0.0001149914283 0.00177925281759)
(-1.41998558851e-05 0.000114666333986 0.00177862493608)
(-2.82637749582e-05 0.000113695578138 0.00177668664921)
(-4.20559198364e-05 0.00011209267336 0.00177327357108)
(-5.54397719412e-05 0.000109880639464 0.00176811359596)
(-6.82895262995e-05 0.000107088776984 0.00176083690727)
(-8.05247846398e-05 0.000103602903892 0.00175101013141)
(-9.12599540317e-05 0.000100109517992 0.00173794528299)
(8.68843889886e-05 9.49353418329e-05 0.00175679621531)
(7.63116077012e-05 9.71005439406e-05 0.00176739940322)
(6.449820831e-05 9.93042169396e-05 0.00177515564983)
(5.21952917539e-05 0.000101100529364 0.00178073461458)
(3.94939971291e-05 0.000102527066546 0.00178458736773)
(2.64907595606e-05 0.000103557921496 0.00178708104862)
(1.32930279942e-05 0.000104179665399 0.00178847532471)
(-5.7525715486e-11 0.000104387315916 0.00178892325163)
(-1.32931538665e-05 0.000104179524808 0.00178847529036)
(-2.64909140988e-05 0.000103557636771 0.00178708098288)
(-3.94941937141e-05 0.000102526633868 0.00178458728312)
(-5.21955365974e-05 0.000101099946214 0.00178073454398)
(-6.44984981309e-05 9.93034903325e-05 0.00177515565006)
(-7.63119187826e-05 9.70996863058e-05 0.00176739940518)
(-8.68846877854e-05 9.49343813157e-05 0.00175679597382)
(8.212340435e-05 8.94006174011e-05 0.00177041164203)
(7.1862596531e-05 8.96593193669e-05 0.00177915841877)
(6.04085986811e-05 9.07285522543e-05 0.00178515387627)
(4.86925217525e-05 9.15873102825e-05 0.00178929993295)
(3.67257167492e-05 9.22604329176e-05 0.00179207051961)
(2.45765163732e-05 9.27372126404e-05 0.00179381680252)
(1.23150558884e-05 9.30206503671e-05 0.0017947745177)
(-1.37041127786e-10 9.31146448828e-05 0.00179507899293)
(-1.23153391006e-05 9.302052901e-05 0.00179477442629)
(-2.45768242973e-05 9.27369672403e-05 0.00179381661543)
(-3.67260582797e-05 9.22600570968e-05 0.0017920702352)
(-4.86928969576e-05 9.15868010977e-05 0.00178929956445)
(-6.04090008558e-05 9.07279085661e-05 0.00178515348191)
(-7.18629910101e-05 8.96585414313e-05 0.00177915791935)
(-8.21237807942e-05 8.93997301208e-05 0.0017704111048)
(2.9971377809e-07 4.71338502954e-07 0.000139892639336)
(1.96405824826e-07 6.09265032531e-07 0.000146829660393)
(1.53914491245e-07 6.90136179655e-07 0.000153119176968)
(1.11769304354e-07 7.53868508797e-07 0.000158550391016)
(7.56744153502e-08 8.0025211299e-07 0.000162954672125)
(4.59024536434e-08 8.31316930309e-07 0.000166196482802)
(2.13281595622e-08 8.48999946609e-07 0.00016818246607)
(-3.38183560529e-11 8.54752958154e-07 0.000168855833053)
(-2.13906824058e-08 8.48987827847e-07 0.000168182495883)
(-4.59520963267e-08 8.31293515035e-07 0.000166196540947)
(-7.57101813223e-08 8.00217550984e-07 0.000162954753737)
(-1.11803383204e-07 7.53819455237e-07 0.000158550484534)
(-1.53962753865e-07 6.90070161309e-07 0.000153119261457)
(-1.9647857433e-07 6.0917571183e-07 0.000146829707845)
(-2.99796891905e-07 4.71241508625e-07 0.000139892633257)
(2.62639918213e-06 3.20059391467e-06 0.000401795243365)
(2.29045491062e-06 3.89862068623e-06 0.000420647088929)
(2.02360766568e-06 4.48687996033e-06 0.000437700347793)
(1.70197562256e-06 5.00339206284e-06 0.000452393549613)
(1.32723234732e-06 5.42441703115e-06 0.0004642854331)
(9.09904187336e-07 5.73562858413e-06 0.000473027071998)
(4.62437285247e-07 5.92665107502e-06 0.000478376434052)
(-9.91168146547e-12 5.99116656158e-06 0.000480185244409)
(-4.62445095881e-07 5.92662450463e-06 0.000478376510572)
(-9.09883824261e-07 5.73557007047e-06 0.00047302722101)
(-1.327189505e-06 5.42431627858e-06 0.000464285641198)
(-1.70194953137e-06 5.00323064199e-06 0.000452393784622)
(-2.02365486166e-06 4.48664743667e-06 0.000437700550788)
(-2.29061211889e-06 3.89830611088e-06 0.000420647181885)
(-2.62663594232e-06 3.20023817903e-06 0.000401795175777)
(6.23108328952e-06 7.23766277312e-06 0.00064625042395)
(5.60855236357e-06 8.66180997809e-06 0.000675298774742)
(5.00247477341e-06 9.94315010759e-06 0.0007014833833)
(4.24388894702e-06 1.10839464643e-05 0.000723980480974)
(3.33355850815e-06 1.20261619574e-05 0.000742144016588)
(2.29787164386e-06 1.27291818518e-05 0.000755471614195)
(1.17204903743e-06 1.31634892703e-05 0.000763615609261)
(-1.10786338348e-10 1.33105717014e-05 0.00076636391371)
(-1.17225514519e-06 1.31634200926e-05 0.000763615745684)
(-2.29803865723e-06 1.27290387358e-05 0.0007554718789)
(-3.33368440724e-06 1.20259364136e-05 0.000742144384812)
(-4.24400660937e-06 1.10836273414e-05 0.000723980896863)
(-5.00264005997e-06 9.94273871538e-06 0.000701483747765)
(-5.60880731725e-06 8.66131345069e-06 0.000675298956474)
(-6.23140093948e-06 7.23713549466e-06 0.000646250329957)
(1.05342473046e-05 1.19515531956e-05 0.000873301322767)
(9.5703211445e-06 1.41413984834e-05 0.000910715680349)
(8.54924200255e-06 1.61477558603e-05 0.000944264607695)
(7.25844360902e-06 1.79416813251e-05 0.000972971826726)
(5.70512544764e-06 1.9427612298e-05 0.000996068609056)
(3.93447991265e-06 2.05380198612e-05 0.0010129705832)
(2.00758307164e-06 2.12246583895e-05 0.00102327807834)
(-1.77135789137e-10 2.14572201068e-05 0.00102675000077)
(-2.00792109667e-06 2.12245518109e-05 0.00102327826203)
(-3.93477591259e-06 2.05378022935e-05 0.00101297093818)
(-5.7053740215e-06 1.94272768489e-05 0.000996069100279)
(-7.25867305644e-06 1.79412229521e-05 0.000972972379241)
(-8.54950432007e-06 1.61471835884e-05 0.000944265092063)
(-9.57065975355e-06 1.41407334808e-05 0.00091071592118)
(-1.05346343514e-05 1.19508589494e-05 0.000873301183435)
(1.50791458919e-05 1.68480012165e-05 0.00108221004057)
(1.37326959928e-05 1.97585926221e-05 0.00112601955408)
(1.22571954067e-05 2.24255709977e-05 0.00116502871576)
(1.03917994301e-05 2.48115400212e-05 0.00119822899164)
(8.15813155207e-06 2.67866682556e-05 0.00122481920816)
(5.62108054213e-06 2.82612499928e-05 0.00124420878545)
(2.86672786893e-06 2.91724084676e-05 0.00125600298516)
(-2.2198952703e-10 2.94808142914e-05 0.0012599681299)
(-2.86715735187e-06 2.91722708413e-05 0.00125600320285)
(-5.6214724681e-06 2.82609709137e-05 0.00124420920455)
(-8.15848035996e-06 2.67862433741e-05 0.00122481978546)
(-1.03921286454e-05 2.4810968824e-05 0.00119822963893)
(-1.22575499482e-05 2.24248688631e-05 0.00116502928386)
(-1.3733114033e-05 1.97577878186e-05 0.00112601983354)
(-1.50795998196e-05 1.68471610501e-05 0.00108220985421)
(1.95539246107e-05 2.16022721585e-05 0.00127221853619)
(1.77992425659e-05 2.51361732667e-05 0.00132040292544)
(1.58556684272e-05 2.83439942032e-05 0.00136293839211)
(1.34108154243e-05 3.12094351612e-05 0.00139890158901)
(1.05071190236e-05 3.35754836469e-05 0.00142754523984)
(7.22865509918e-06 3.5337953806e-05 0.00144834199638)
(3.68328209313e-06 3.64252555459e-05 0.00146095319455)
(-2.58000203968e-10 3.67929108659e-05 0.00146518452173)
(-3.6837865651e-06 3.64250926285e-05 0.00146095343127)
(-7.22912948959e-06 3.53376252721e-05 0.00144834245089)
(-1.050755936e-05 3.3574988021e-05 0.00142754586414)
(-1.34112411084e-05 3.12087758035e-05 0.00139890228855)
(-1.5856116551e-05 2.83431903691e-05 0.00136293900881)
(-1.7799743038e-05 2.51352553202e-05 0.00132040322733)
(-1.95544459069e-05 2.16013085994e-05 0.00127221830518)
(2.37259766721e-05 2.59799820777e-05 0.00144290485808)
(2.15533954023e-05 3.00042247154e-05 0.00149351243975)
(1.91488669908e-05 3.36010149712e-05 0.00153773622597)
(1.6149239207e-05 3.68039147031e-05 0.00157484024699)
(1.26214914609e-05 3.94382378739e-05 0.00160420291419)
(8.66724250794e-06 4.13943145114e-05 0.00162541480686)
(4.4113708074e-06 4.25984036989e-05 0.00163823216722)
(-2.94443521055e-10 4.30050411081e-05 0.00164252349246)
(-4.41195158889e-06 4.25982209588e-05 0.00163823240671)
(-8.66780203637e-06 4.13939475077e-05 0.00162541526605)
(-1.26220271132e-05 3.94376870257e-05 0.00160420354447)
(-1.61497656609e-05 3.68031872906e-05 0.00157484095469)
(-1.91494120252e-05 3.36001323045e-05 0.00153773685417)
(-2.15539800757e-05 3.00032195377e-05 0.00149351274353)
(-2.37265664059e-05 2.59789187989e-05 0.00144290458036)
(2.74241474407e-05 2.98131883192e-05 0.00159430678287)
(2.48398563039e-05 3.41729688076e-05 0.00164555799602)
(2.1999109526e-05 3.79928370015e-05 0.00168983252909)
(1.84928957123e-05 4.13788318465e-05 0.00172665929264)
(1.44134831919e-05 4.41495122856e-05 0.00175559255161)
(9.87743081707e-06 4.61986923744e-05 0.00177637617775)
(5.02103326659e-06 4.74567252258e-05 0.00178888486103)
(-3.3665992745e-10 4.78809724002e-05 0.00179306327881)
(-5.0217015871e-06 4.74565281585e-05 0.00178888508597)
(-9.87808589526e-06 4.61982978357e-05 0.00177637660899)
(-1.44141234791e-05 4.41489227432e-05 0.00175559314426)
(-1.84935316847e-05 4.1378057074e-05 0.00172665996071)
(-2.19997601136e-05 3.79918995359e-05 0.00168983312566)
(-2.48405336067e-05 3.41719004152e-05 0.00164555827051)
(-2.74248111205e-05 2.98120501691e-05 0.00159430644262)
(3.0532110954e-05 3.2991673842e-05 0.00172691882858)
(2.75567513123e-05 3.75221673689e-05 0.00177728009948)
(2.43189932184e-05 4.13992921558e-05 0.00182023846236)
(2.03721349695e-05 4.48149096814e-05 0.00185563446727)
(1.58316438779e-05 4.75923410014e-05 0.00188322340766)
(1.08255500604e-05 4.96368912365e-05 0.00190291757954)
(5.49566791191e-06 5.08882293031e-05 0.00191471852618)
(-3.88009072737e-10 5.13095535743e-05 0.0019186508684)
(-5.49644153348e-06 5.08880231332e-05 0.00191471871789)
(-1.08263169236e-05 4.9636479195e-05 0.00190291794731)
(-1.58324028187e-05 4.75917270171e-05 0.00188322391415)
(-2.03728917039e-05 4.48141048852e-05 0.00185563504022)
(-2.4319758495e-05 4.13983199723e-05 0.00182023897245)
(-2.75575281165e-05 3.75210580403e-05 0.0017772802957)
(-3.05328556607e-05 3.29904832105e-05 0.00172691838783)
(3.29808315143e-05 3.54539567164e-05 0.00184162359338)
(2.96472803707e-05 3.99897397368e-05 0.00188984980157)
(2.60629761587e-05 4.37680333571e-05 0.00193043250979)
(2.17538127428e-05 4.70698721986e-05 0.00196353581453)
(1.68539775241e-05 4.97347630252e-05 0.00198911608662)
(1.14986351739e-05 5.16859354763e-05 0.00200725125046)
(5.82936085273e-06 5.28760608053e-05 0.00201806554639)
(-4.49371943395e-10 5.3276098406e-05 0.00202165957576)
(-5.83025908075e-06 5.28758509976e-05 0.00201806568379)
(-1.14995311355e-05 5.16855168202e-05 0.00200725151397)
(-1.68548699166e-05 4.9734139802e-05 0.00198911644947)
(-2.17547032683e-05 4.70690562654e-05 0.0019635362233)
(-2.60638679589e-05 4.37670471573e-05 0.00193043285958)
(-2.96481683725e-05 3.99886102582e-05 0.0018898498448)
(-3.29816660963e-05 3.54527352736e-05 0.00184162298368)
(3.47404078051e-05 3.71783989741e-05 0.00193959252855)
(3.10912230698e-05 4.15601035812e-05 0.00198474444484)
(2.72191212472e-05 4.50984997394e-05 0.00202221059096)
(2.26337147232e-05 4.8158716512e-05 0.00205245099746)
(1.74815733546e-05 5.06070603663e-05 0.00207560131816)
(1.18997833576e-05 5.23890039143e-05 0.0020918898349)
(6.02442718074e-06 5.34719553444e-05 0.00210155109882)
(-5.20416670842e-10 5.38353310749e-05 0.00210475265444)
(-6.0254684967e-06 5.3471747368e-05 0.00210155115733)
(-1.19008250068e-05 5.23885888998e-05 0.00209188994552)
(-1.7482613162e-05 5.06064426027e-05 0.0020756014665)
(-2.26347504017e-05 4.81579067096e-05 0.00205245115304)
(-2.72201498442e-05 4.50975186537e-05 0.00202221068017)
(-3.1092231545e-05 4.1558974302e-05 0.00198474422714)
(-3.47413432506e-05 3.71771663086e-05 0.00193959164279)
(3.58105045243e-05 3.81732178401e-05 0.00202217491534)
(3.18959345222e-05 4.22510615214e-05 0.00206362612918)
(2.78014971791e-05 4.54253277022e-05 0.00209755049034)
(2.30302343736e-05 4.81348992172e-05 0.002124629688)
(1.77334535561e-05 5.02812994198e-05 0.0021451452398)
(1.20444042928e-05 5.18336546145e-05 0.00215945735385)
(6.0894178555e-06 5.27735650791e-05 0.00216789555339)
(-5.98907504593e-10 5.30883874544e-05 0.00217068286978)
(-6.09061658488e-06 5.27733651566e-05 0.00216789550451)
(-1.20456038466e-05 5.18332553653e-05 0.00215945725407)
(-1.7734650955e-05 5.02807033625e-05 0.00214514508683)
(-2.30314241727e-05 4.81341147421e-05 0.00212462947674)
(-2.78026708712e-05 4.54243721351e-05 0.00209755018633)
(-3.18970728385e-05 4.22499520249e-05 0.00206362550558)
(-3.58115505466e-05 3.81719939208e-05 0.00202217360364)
(3.62088877336e-05 3.84603500967e-05 0.00209078213399)
(3.20894353401e-05 4.20967304933e-05 0.00212824776916)
(2.78466640022e-05 4.48028828541e-05 0.00215851381577)
(2.29816800844e-05 4.70745920743e-05 0.00218236532861)
(1.76439582867e-05 4.88554817662e-05 0.00220021387153)
(1.19580548476e-05 5.01355141658e-05 0.00221254280187)
(6.03789032014e-06 5.09076758043e-05 0.00221976235354)
(-6.81239657044e-10 5.11658523474e-05 0.00222213861694)
(-6.03925329023e-06 5.09074904053e-05 0.00221976216681)
(-1.19594180561e-05 5.01351428397e-05 0.00221254242856)
(-1.76453172543e-05 4.88549250566e-05 0.00220021331793)
(-2.29830263201e-05 4.70738537965e-05 0.00218236461339)
(-2.78479853017e-05 4.48019735297e-05 0.00215851295204)
(-3.20907065002e-05 4.20956614939e-05 0.00212824656161)
(-3.62100513841e-05 3.8459154804e-05 0.00209078022049)
(3.59828026596e-05 3.80681653948e-05 0.00214676523859)
(3.17346219181e-05 4.11869822112e-05 0.00218043891905)
(2.74246701612e-05 4.33234467049e-05 0.00220720727538)
(2.25499215105e-05 4.5088266161e-05 0.00222791708303)
(1.72631056049e-05 4.64577343732e-05 0.00224317606834)
(1.16755859805e-05 4.74359925725e-05 0.00225359557776)
(5.88767427245e-06 4.80237286579e-05 0.00225965070559)
(-7.62599392603e-10 4.82198321948e-05 0.00226163592761)
(-5.88919920936e-06 4.80235633423e-05 0.00225965035426)
(-1.1677108259e-05 4.74356597823e-05 0.00225359487346)
(-1.726462011e-05 4.64572322098e-05 0.00224317501758)
(-2.25514191317e-05 4.50875923535e-05 0.00222791571714)
(-2.74261348013e-05 4.332260602e-05 0.00220720565605)
(-3.17360240629e-05 4.11859750435e-05 0.00218043692408)
(-3.59840873931e-05 3.80670176989e-05 0.00214676255733)
(3.51765426228e-05 3.75458040332e-05 0.00219142463395)
(3.09211339154e-05 3.97420406886e-05 0.00222240800528)
(2.66052921658e-05 4.11657379819e-05 0.0022458037727)
(2.17933164964e-05 4.23337306403e-05 0.00226345331001)
(1.66371333773e-05 4.32249214149e-05 0.00227623178248)
(1.12287594321e-05 4.38551813151e-05 0.00228485363733)
(5.65493179711e-06 4.42310535973e-05 0.00228982565555)
(-8.38820743331e-10 4.43559663889e-05 0.00229144938577)
(-5.65660780589e-06 4.42309123306e-05 0.00228982512898)
(-1.12304283299e-05 4.38548978081e-05 0.00228485257706)
(-1.66387875037e-05 4.3224491412e-05 0.00227623018466)
(-2.17949447158e-05 4.23331510046e-05 0.00226345119498)
(-2.66068806269e-05 4.11650049325e-05 0.00224580123256)
(-3.09226477271e-05 3.97411415437e-05 0.00222240493711)
(-3.51779574571e-05 3.75447581215e-05 0.00219142123484)
(-6.75869098695e-08 -1.39157471761e-07 0.000100349855027)
(-1.47943023862e-08 -1.98739547381e-07 0.000105335937075)
(2.17616610646e-08 -2.33863266656e-07 0.000109848575487)
(4.61519518884e-08 -2.5236122502e-07 0.000113758370433)
(5.37919740365e-08 -2.58384796144e-07 0.000116937097081)
(4.60475030906e-08 -2.57680504981e-07 0.000119281945788)
(2.63253669655e-08 -2.5507812485e-07 0.000120720760189)
(-1.73582936284e-11 -2.53825961163e-07 0.000121209339049)
(-2.63620513057e-08 -2.55091688872e-07 0.000120720781739)
(-4.60908544987e-08 -2.57707546359e-07 0.000119281981928)
(-5.38447464135e-08 -2.58424275117e-07 0.000116937134339)
(-4.62077703436e-08 -2.52410278615e-07 0.000113758390319)
(-2.18204585971e-08 -2.33927109612e-07 0.00010984855636)
(1.47260448285e-08 -1.98815562549e-07 0.000105335857908)
(6.75186436274e-08 -1.39242884163e-07 0.000100349730423)
(5.14617698509e-08 -9.41994743976e-08 0.000299850744569)
(1.75841486524e-07 -1.83623857e-07 0.000314454223464)
(2.54469245003e-07 -2.16952745365e-07 0.000327694108197)
(2.90838168158e-07 -2.11030533041e-07 0.000339164591839)
(2.76196175753e-07 -1.80356254161e-07 0.000348491157653)
(2.14716631102e-07 -1.42933593797e-07 0.000355372697237)
(1.17215422429e-07 -1.13743775147e-07 0.000359594767494)
(-2.728065446e-11 -1.02816331938e-07 0.0003610246438)
(-1.17276215889e-07 -1.13795209694e-07 0.000359594819115)
(-2.14797165258e-07 -1.43034807262e-07 0.000355372780335)
(-2.76305064518e-07 -1.80501236367e-07 0.000348491233407)
(-2.90966984179e-07 -2.11211924432e-07 0.000339164607012)
(-2.54614692582e-07 -2.17181617093e-07 0.000327694000715)
(-1.7601844212e-07 -1.83891410627e-07 0.000314453934907)
(-5.16554014696e-08 -9.44925055659e-08 0.000299850303239)
(4.51792863113e-07 2.96708593463e-07 0.000496111045398)
(6.1594323855e-07 2.65636339928e-07 0.000519901157539)
(7.02249435814e-07 3.10748150281e-07 0.000541461971463)
(7.11319790321e-07 4.06716187116e-07 0.0005601291219)
(6.32282790206e-07 5.26293476652e-07 0.000575299598921)
(4.73164449586e-07 6.38252524291e-07 0.000586489473908)
(2.53081958044e-07 7.16858508057e-07 0.000593351909075)
(-1.54193545331e-10 7.450763363e-07 0.000595672225433)
(-2.53391690895e-07 7.16759529378e-07 0.000593351995519)
(-4.73479405345e-07 6.3806028915e-07 0.000586489613202)
(-6.32603514198e-07 5.2602104422e-07 0.000575299725923)
(-7.11633566935e-07 4.06379769892e-07 0.000560129146113)
(-7.02548706847e-07 3.10349988311e-07 0.000541461786117)
(-6.16241763524e-07 2.65198115162e-07 0.000519900660734)
(-4.52080204883e-07 2.96258419764e-07 0.000496110261979)
(1.20840947583e-06 1.10692717916e-06 0.000688211401203)
(1.38355442086e-06 1.22846797385e-06 0.000720595657631)
(1.44014830665e-06 1.43987306784e-06 0.000749888985693)
(1.37541013294e-06 1.70225895364e-06 0.000775213185458)
(1.17787193014e-06 1.97271936748e-06 0.000795768456316)
(8.61189452355e-07 2.20477835075e-06 0.000810916161123)
(4.54705492062e-07 2.36062723338e-06 0.000820198311298)
(-2.75424308548e-10 2.4154899603e-06 0.000823332622319)
(-4.55253312007e-07 2.36048499493e-06 0.000820198413937)
(-8.6172922796e-07 2.20450281077e-06 0.000810916322034)
(-1.17839676977e-06 1.97232918931e-06 0.000795768589067)
(-1.37590468037e-06 1.70177866102e-06 0.000775213168381)
(-1.44060301456e-06 1.43931888131e-06 0.000749888672903)
(-1.38397830507e-06 1.22787037633e-06 0.000720594905117)
(-1.20879165912e-06 1.1063289789e-06 0.000688210212956)
(2.27613002719e-06 2.27362856715e-06 0.000874902987334)
(2.43523106736e-06 2.61596704582e-06 0.000915070964148)
(2.42755183367e-06 3.05663000765e-06 0.000951278662105)
(2.24727290416e-06 3.53865966599e-06 0.000982501560054)
(1.88383912961e-06 4.00189889827e-06 0.00100779149398)
(1.35820836924e-06 4.38402880374e-06 0.00102639782259)
(7.11428633747e-07 4.63505366571e-06 0.00103778489348)
(-3.88965307205e-10 4.72252200677e-06 0.00104162507878)
(-7.1220028349e-07 4.63487703644e-06 0.00103778499192)
(-1.35896212215e-06 4.38368603605e-06 0.00102639796743)
(-1.88456234905e-06 4.00141176222e-06 0.00100779158335)
(-2.24794766781e-06 3.53805796491e-06 0.000982501448738)
(-2.42816546042e-06 3.05594211822e-06 0.000951278172997)
(-2.43578694626e-06 2.61523237998e-06 0.000915069915063)
(-2.27661368734e-06 2.27289810329e-06 0.000874901349626)
(3.59234506823e-06 3.71677957832e-06 0.0010547238625)
(3.71004917202e-06 4.31997766433e-06 0.00110163121183)