/*--------------------------------*- C++ -*----------------------------------*\
  =========                 |
  \\      /  F ield         | OpenFOAM: The Open Source CFD Toolbox
   \\    /   O peration     | Website:  https://openfoam.org
    \\  /    A nd           | Version:  7
     \\/     M anipulation  |
\*---------------------------------------------------------------------------*/
FoamFile
{
    version     2.0;
    format      ascii;
    class       volScalarField;
    location    "2.04";
    object      p;
}
// * * * * * * * * * * * * * * * * * * * * * * * * * * * * * * * * * * * * * //

dimensions      [0 2 -2 0 0 0 0];

internalField   nonuniform List<scalar> 
22500
(
3.85989840117e-05
3.85924442936e-05
3.85899111052e-05
3.85866846214e-05
3.85841995075e-05
3.85823119049e-05
3.8581179425e-05
3.85808523474e-05
3.85813811935e-05
3.85827074889e-05
3.85847738047e-05
3.8587399929e-05
3.85907209553e-05
3.85932585942e-05
3.85997244778e-05
3.85178250429e-05
3.85071382779e-05
3.85010787516e-05
3.84947609057e-05
3.84897711178e-05
3.84860372458e-05
3.84837771613e-05
3.84830734484e-05
3.84839803002e-05
3.84864356707e-05
3.8490348881e-05
3.84954829623e-05
3.85018950206e-05
3.85079616069e-05
3.85185784289e-05
3.8439094502e-05
3.84245329175e-05
3.84154702188e-05
3.84064346371e-05
3.8399276399e-05
3.83939439729e-05
3.8390708194e-05
3.83896746967e-05
3.83909019432e-05
3.83943237199e-05
3.83998260774e-05
3.84071225579e-05
3.84162487852e-05
3.84253235434e-05
3.84398303093e-05
3.83688325531e-05
3.8351073293e-05
3.83397169014e-05
3.83286368287e-05
3.83198577787e-05
3.83133419496e-05
3.83093860052e-05
3.83081076135e-05
3.83095666985e-05
3.83136959272e-05
3.83203692802e-05
3.83292772683e-05
3.83404446733e-05
3.83518183e-05
3.83695419216e-05
3.83033597491e-05
3.82828603146e-05
3.82696300433e-05
3.82569460365e-05
3.82468971966e-05
3.82394662698e-05
3.82349556644e-05
3.82334884355e-05
3.82351227825e-05
3.82397935005e-05
3.82473698225e-05
3.8257538344e-05
3.8270306172e-05
3.8283558107e-05
3.83040375656e-05
3.82418733782e-05
3.82190852913e-05
3.82043354481e-05
3.81904181514e-05
3.81793921532e-05
3.81712668991e-05
3.8166336792e-05
3.81647259846e-05
3.81664898964e-05
3.81715667677e-05
3.8179825242e-05
3.81909617862e-05
3.82049581604e-05
3.82197350322e-05
3.82425177141e-05
3.81846222118e-05
3.81600129709e-05
3.81440609753e-05
3.8129244602e-05
3.8117501556e-05
3.81088756239e-05
3.81036437991e-05
3.8101928895e-05
3.81037830194e-05
3.81091483539e-05
3.811789568e-05
3.81297404082e-05
3.81446313782e-05
3.8160613614e-05
3.81852315284e-05
3.81315620121e-05
3.81055663153e-05
3.80886753664e-05
3.80732388415e-05
3.8060994225e-05
3.8052026023e-05
3.80465887391e-05
3.80448020543e-05
3.80467145795e-05
3.80522725893e-05
3.80613510055e-05
3.80736888628e-05
3.80891955837e-05
3.81061195776e-05
3.81321369e-05
3.8082437926e-05
3.80554486293e-05
3.80378372697e-05
3.80220127017e-05
3.80094463316e-05
3.80002660187e-05
3.79947026499e-05
3.79928709527e-05
3.79948158665e-05
3.80004879997e-05
3.80097680351e-05
3.80224199852e-05
3.80383105677e-05
3.80559576149e-05
3.80829788703e-05
3.80369649142e-05
3.80093428035e-05
3.79912081953e-05
3.79751981072e-05
3.79624682346e-05
3.79531891281e-05
3.79475689002e-05
3.79457156647e-05
3.79476704493e-05
3.79533884183e-05
3.79627576608e-05
3.79755659932e-05
3.79916383761e-05
3.80098107729e-05
3.80374751517e-05
3.79948723661e-05
3.79669536696e-05
3.79484943602e-05
3.79324844489e-05
3.79197380048e-05
3.79104640504e-05
3.79048508841e-05
3.79029978336e-05
3.79049418055e-05
3.79106426678e-05
3.79199980559e-05
3.79328165124e-05
3.79488851604e-05
3.79673839751e-05
3.7995353621e-05
3.79558815883e-05
3.7928012173e-05
3.79094547557e-05
3.78936205908e-05
3.78809956161e-05
3.78718248391e-05
3.78662792231e-05
3.78644474508e-05
3.78663605138e-05
3.78719849381e-05
3.78812293023e-05
3.78939204415e-05
3.79098099708e-05
3.79284078475e-05
3.79563346159e-05
3.7919613265e-05
3.78922796425e-05
3.78739120581e-05
3.78584148915e-05
3.78460382487e-05
3.78370639118e-05
3.78316466385e-05
3.78298560588e-05
3.78317195611e-05
3.78372075458e-05
3.78462485473e-05
3.78586861369e-05
3.78742356477e-05
3.78926446548e-05
3.79200407449e-05
3.78857408967e-05
3.78595364202e-05
3.78416268955e-05
3.78266178584e-05
3.78146319336e-05
3.78059763005e-05
3.78007648791e-05
3.77990452482e-05
3.78008304487e-05
3.78061055659e-05
3.78148221928e-05
3.78268645553e-05
3.78419228259e-05
3.7859874354e-05
3.78861459286e-05
3.78554523305e-05
3.78289888673e-05
3.7811879875e-05
3.7797501594e-05
3.7786149516e-05
3.77780249404e-05
3.77731585109e-05
3.77715544197e-05
3.77732176414e-05
3.77781415229e-05
3.77863213302e-05
3.77977257086e-05
3.78121517653e-05
3.78293017733e-05
3.78558285608e-05
2.8311390985e-05
2.83139813283e-05
2.83159484659e-05
2.83178045929e-05
2.8319417271e-05
2.83206297887e-05
2.83213582771e-05
2.83215357147e-05
2.8321143695e-05
2.83202123942e-05
2.83188246212e-05
2.83170881113e-05
2.83151604335e-05
2.83132001521e-05
2.83106636875e-05
2.83212146892e-05
2.83242972532e-05
2.83267423048e-05
2.83290352093e-05
2.83310143524e-05
2.83325038845e-05
2.83334055752e-05
2.83336420995e-05
2.83331899303e-05
2.83320847077e-05
2.83304195581e-05
2.83283153845e-05
2.83259545492e-05
2.83235147312e-05
2.83204877894e-05
2.83345791479e-05
2.83388068204e-05
2.83422262501e-05
2.83454346939e-05
2.83481941135e-05
2.83502787475e-05
2.83515548812e-05
2.83519209647e-05
2.83513442701e-05
2.83498692867e-05
2.83476126814e-05
2.83447283566e-05
2.83414525672e-05
2.83380332919e-05
2.83338577321e-05
2.83526454684e-05
2.83587775955e-05
2.83637372058e-05
2.83683626963e-05
2.83723218496e-05
2.83753157538e-05
2.83771611492e-05
2.83777235665e-05
2.83769583737e-05
2.83749214798e-05
2.83717612022e-05
2.83676783953e-05
2.83629840701e-05
2.83580196925e-05
2.83519321228e-05
2.83759438444e-05
2.83845528165e-05
2.83914278474e-05
2.8397779871e-05
2.84031811769e-05
2.84072567259e-05
2.84097740982e-05
2.8410567455e-05
2.84095809267e-05
2.84068811078e-05
2.84026461803e-05
2.8397124226e-05
2.83907016522e-05
2.83838166461e-05
2.83752432277e-05
2.84037752144e-05
2.84151668963e-05
2.8424094745e-05
2.84322621784e-05
2.84391560893e-05
2.84443393338e-05
2.84475394723e-05
2.84485671029e-05
2.84473577827e-05
2.84439858882e-05
2.84386518393e-05
2.84316413472e-05
2.84234027068e-05
2.8414457164e-05
2.84030930711e-05
2.84349987267e-05
2.84492239894e-05
2.84601534349e-05
2.84700487055e-05
2.84783398059e-05
2.84845476358e-05
2.84883740984e-05
2.84896164546e-05
2.84882053447e-05
2.8484219098e-05
2.8477870163e-05
2.84694677253e-05
2.8459501369e-05
2.84485473394e-05
2.84343396705e-05
2.84684397779e-05
2.84853436617e-05
2.84980868302e-05
2.85095005291e-05
2.85189971362e-05
2.85260768832e-05
2.85304312164e-05
2.85318546207e-05
2.85302763272e-05
2.85257750644e-05
2.85185646406e-05
2.85089628511e-05
2.84974783596e-05
2.84847045355e-05
2.84678067118e-05
2.85030297012e-05
2.85223052081e-05
2.85365888403e-05
2.85492417187e-05
2.85596999311e-05
2.85674632188e-05
2.85722261861e-05
2.85737899361e-05
2.8572085562e-05
2.85671888581e-05
2.85593056606e-05
2.85487489323e-05
2.85360263691e-05
2.85217065052e-05
2.85024269177e-05
2.85378618356e-05
2.85590990916e-05
2.85746058661e-05
2.85881891372e-05
2.85993472044e-05
2.86075954022e-05
2.86126426622e-05
2.86143043294e-05
2.86125162414e-05
2.86073483719e-05
2.85989910554e-05
2.85877414179e-05
2.85740900674e-05
2.85585424114e-05
2.85372907528e-05
2.85721995059e-05
2.85949293378e-05
2.86113273983e-05
2.86255339204e-05
2.86371359477e-05
2.86456765606e-05
2.86508882699e-05
2.86526069531e-05
2.86507755862e-05
2.86454559556e-05
2.86368167678e-05
2.86251302747e-05
2.86108580423e-05
2.85944157633e-05
2.85716628226e-05
2.86054528802e-05
2.86291827206e-05
2.86461508083e-05
2.86607004172e-05
2.86725128425e-05
2.8681169463e-05
2.86864357084e-05
2.86881737072e-05
2.86863359978e-05
2.86809737845e-05
2.86722286404e-05
2.86603388625e-05
2.8645726568e-05
2.86287127047e-05
2.86049530694e-05
2.86371386234e-05
2.86614110303e-05
2.86786718254e-05
2.8693324944e-05
2.8705139074e-05
2.87137508774e-05
2.87189700064e-05
2.87206929893e-05
2.87188821588e-05
2.871357808e-05
2.87048873156e-05
2.86930027126e-05
2.86782905501e-05
2.86609833867e-05
2.86366763657e-05
2.86671505168e-05
2.86916302049e-05
2.87088522364e-05
2.87233425996e-05
2.87349115678e-05
2.87432860388e-05
2.87483405369e-05
2.87500069124e-05
2.87482633905e-05
2.87431341056e-05
2.87346890495e-05
2.87230565188e-05
2.87085111939e-05
2.86912440031e-05
2.86667254562e-05
2.86970108818e-05
2.87199763178e-05
2.87366932401e-05
2.87506953572e-05
2.87616941809e-05
2.87695890058e-05
2.87743308368e-05
2.8775892743e-05
2.87742633419e-05
2.87694557956e-05
2.87614986507e-05
2.87504425218e-05
2.87363896926e-05
2.87196303761e-05
2.86966242905e-05
2.94412043231e-05
2.94404799756e-05
2.94392581448e-05
2.9437917686e-05
2.94366407621e-05
2.9435624943e-05
2.94349815113e-05
2.94347739756e-05
2.94350232263e-05
2.94357028828e-05
2.94367442045e-05
2.94380362053e-05
2.9439394053e-05
2.94406224372e-05
2.94413567486e-05
2.94423142832e-05
2.94416541589e-05
2.94404976896e-05
2.94392112762e-05
2.94379736994e-05
2.94369820787e-05
2.94363509111e-05
2.94361469583e-05
2.94363926567e-05
2.94370600393e-05
2.94380771218e-05
2.94393296148e-05
2.94406312484e-05
2.94417961726e-05
2.94424651135e-05
2.94438463276e-05
2.94432781076e-05
2.94422018015e-05
2.94409901761e-05
2.94398103529e-05
2.94388583435e-05
2.94382492329e-05
2.94380521324e-05
2.94382906565e-05
2.94389361418e-05
2.94399146074e-05
2.94411106566e-05
2.94423362343e-05
2.94434210352e-05
2.94439964715e-05
2.94449287449e-05
2.94444403946e-05
2.94434231927e-05
2.94422788356e-05
2.94411558692e-05
2.94402465138e-05
2.94396628515e-05
2.94394738973e-05
2.94397036052e-05
2.94403235824e-05
2.94412604863e-05
2.94424011515e-05
2.94435587241e-05
2.94445832589e-05
2.94450786385e-05
2.94457420489e-05
2.94453687039e-05
2.94444357541e-05
2.94433934086e-05
2.94423618364e-05
2.94415243146e-05
2.94409858677e-05
2.94408119701e-05
2.94410256046e-05
2.94415998349e-05
2.94424653142e-05
2.94435156706e-05
2.94445713237e-05
2.94455108315e-05
2.94458913298e-05
2.94466037473e-05
2.94464153336e-05
2.94456219873e-05
2.94447396074e-05
2.94438526709e-05
2.9443129229e-05
2.94426631884e-05
2.9442513608e-05
2.94427014664e-05
2.94432023298e-05
2.94439538009e-05
2.9444860335e-05
2.9445756208e-05
2.94465565417e-05
2.94467512345e-05
2.94477152795e-05
2.94477915665e-05
2.94471964444e-05
2.94465306483e-05
2.94458383608e-05
2.94452672151e-05
2.94448977501e-05
2.94447806601e-05
2.94449342264e-05
2.94453371667e-05
2.94459359466e-05
2.94466483713e-05
2.94473280458e-05
2.94479310647e-05
2.94478609797e-05
2.94491865293e-05
2.9449595452e-05
2.94492461467e-05
2.94488382446e-05
2.94483761496e-05
2.944798358e-05
2.9447726887e-05
2.9447647697e-05
2.94477612788e-05
2.94480498265e-05
2.94484693544e-05
2.94489519537e-05
2.94493743108e-05
2.94497324589e-05
2.94493305377e-05
2.94510603392e-05
2.94518440849e-05
2.94517706066e-05
2.94516410551e-05
2.94514259645e-05
2.94512235798e-05
2.94510864821e-05
2.94510474175e-05
2.94511186142e-05
2.94512857428e-05
2.94515141317e-05
2.94517498239e-05
2.94518945788e-05
2.94519780175e-05
2.94512022703e-05
2.94533250124e-05
2.94544937304e-05
2.94547060745e-05
2.9454854401e-05
2.94548853087e-05
2.94548712044e-05
2.94548520356e-05
2.94548524347e-05
2.94548818245e-05
2.94549290877e-05
2.94549680841e-05
2.94549577232e-05
2.94548252803e-05
2.94546242017e-05
2.94534645641e-05
2.9455929052e-05
2.94574593002e-05
2.94579483686e-05
2.94583574378e-05
2.94586190652e-05
2.94587808376e-05
2.94588714521e-05
2.945890849e-05
2.94588988781e-05
2.9458834354e-05
2.94586962197e-05
2.94584548583e-05
2.94580622013e-05
2.94575856221e-05
2.94560657408e-05
2.94587872909e-05
2.94606262671e-05
2.94613693848e-05
2.94620127015e-05
2.94624812839e-05
2.94628003498e-05
2.94629888176e-05
2.94630584057e-05
2.94630138985e-05
2.94628495095e-05
2.94625527239e-05
2.94621039291e-05
2.94614773437e-05
2.94607476186e-05
2.94589203083e-05
2.94617831936e-05
2.94638682768e-05
2.94648401788e-05
2.94656875253e-05
2.9466334591e-05
2.94667889076e-05
2.94670612871e-05
2.94671587019e-05
2.94670840583e-05
2.94668337608e-05
2.94664002426e-05
2.94657722908e-05
2.94649417191e-05
2.94639838893e-05
2.94619117186e-05
2.94648874198e-05
2.94671668581e-05
2.9468302779e-05
2.94693020902e-05
2.94700798316e-05
2.94706338467e-05
2.94709683729e-05
2.94710861731e-05
2.94709888777e-05
2.94706742836e-05
2.94701394962e-05
2.9469379896e-05
2.94683971857e-05
2.94672758647e-05
2.94650098604e-05
2.94686222732e-05
2.94704511854e-05
2.94716359646e-05
2.94727119667e-05
2.94735529815e-05
2.94741578167e-05
2.94745244867e-05
2.94746526523e-05
2.94745426336e-05
2.94741938657e-05
2.94736064325e-05
2.94727824174e-05
2.94717226285e-05
2.9470553257e-05
2.9468738155e-05
2.57990569124e-05
2.5799521227e-05
2.58001388304e-05
2.58007776336e-05
2.58013647183e-05
2.580182936e-05
2.58021247046e-05
2.58022202229e-05
2.58021052662e-05
2.58017921811e-05
2.58013134639e-05
2.5800719812e-05
2.58000794195e-05
2.57994719461e-05
2.57990131085e-05
2.57994918742e-05
2.57999709976e-05
2.58006061199e-05
2.58012657904e-05
2.58018724313e-05
2.58023536724e-05
2.58026598674e-05
2.58027589267e-05
2.58026393981e-05
2.5802314489e-05
2.58018184566e-05
2.58012045917e-05
2.58005443468e-05
2.57999187353e-05
2.57994476622e-05
2.57997060418e-05
2.5800182193e-05
2.58008167321e-05
2.58014796314e-05
2.58020919825e-05
2.58025801644e-05
2.58028916884e-05
2.5802993017e-05
2.58028719787e-05
2.58025424922e-05
2.58020402207e-05
2.58014205199e-05
2.58007572815e-05
2.58001300294e-05
2.57996622316e-05
2.57999163721e-05
2.58003904292e-05
2.58010266665e-05
2.58016891558e-05
2.58023037366e-05
2.58027957285e-05
2.58031106326e-05
2.58032137102e-05
2.58030922282e-05
2.58027606176e-05
2.58022555863e-05
2.58016338916e-05
2.58009706763e-05
2.58003402206e-05
2.57998732062e-05
2.58001630294e-05
2.58006378816e-05
2.58012801042e-05
2.58019422074e-05
2.58025584846e-05
2.58030533171e-05
2.58033709704e-05
2.58034755468e-05
2.58033538844e-05
2.5803020758e-05
2.58025137771e-05
2.58018907344e-05
2.58012273482e-05
2.58005900237e-05
2.58001208602e-05
2.58004366828e-05
2.58009187573e-05
2.58015721018e-05
2.58022381283e-05
2.58028590993e-05
2.58033590931e-05
2.58036808527e-05
2.5803787467e-05
2.58036652551e-05
2.58033293571e-05
2.58028182522e-05
2.58021908069e-05
2.58015232606e-05
2.58008730518e-05
2.58003964871e-05
2.5800750404e-05
2.58012500466e-05
2.58019243742e-05
2.58026024912e-05
2.58032346735e-05
2.58037444952e-05
2.58040731773e-05
2.58041827774e-05
2.58040591326e-05
2.58037176824e-05
2.58031977608e-05
2.5802559406e-05
2.58018795819e-05
2.58012069374e-05
2.58007121007e-05
2.58011280215e-05
2.5801660045e-05
2.58023665914e-05
2.58030659789e-05
2.58037165969e-05
2.58042411183e-05
2.5804579557e-05
2.58046930404e-05
2.58045671152e-05
2.58042173408e-05
2.58036837201e-05
2.5803027284e-05
2.58023257435e-05
2.58016198222e-05
2.58010912352e-05
2.58015885548e-05
2.58021697708e-05
2.58029172454e-05
2.5803645062e-05
2.58043186823e-05
2.58048604233e-05
2.58052097226e-05
2.58053273629e-05
2.58051988306e-05
2.58048395614e-05
2.58042896854e-05
2.58036105875e-05
2.58028802395e-05
2.58021324089e-05
2.58015535988e-05
2.58021419067e-05
2.58027862163e-05
2.58035784041e-05
2.58043368623e-05
2.58050333896e-05
2.58055910395e-05
2.58059497942e-05
2.58060709759e-05
2.58059403533e-05
2.58055729052e-05
2.58050080322e-05
2.58043063481e-05
2.58035450241e-05
2.58027515508e-05
2.58021086899e-05
2.58027859407e-05
2.58035017495e-05
2.58043367912e-05
2.58051225745e-05
2.58058369427e-05
2.58064051693e-05
2.58067693854e-05
2.58068925726e-05
2.58067612264e-05
2.58063894618e-05
2.58058148361e-05
2.58050956887e-05
2.58043068442e-05
2.58034698784e-05
2.58027547455e-05
2.58035044511e-05
2.58042948508e-05
2.58051669451e-05
2.58059729687e-05
2.58066965352e-05
2.5807267218e-05
2.58076310973e-05
2.58077541096e-05
2.58076240282e-05
2.58072535565e-05
2.58066772288e-05
2.58059492569e-05
2.58051401719e-05
2.58042658539e-05
2.58034756807e-05
2.58042657431e-05
2.58051342875e-05
2.5806038875e-05
2.5806856868e-05
2.58075798026e-05
2.58081437396e-05
2.58085007197e-05
2.58086212142e-05
2.58084945012e-05
2.58081317453e-05
2.58075627671e-05
2.58068358661e-05
2.58060149342e-05
2.5805108074e-05
2.58042394072e-05
2.58050980716e-05
2.58060575216e-05
2.58069661138e-05
2.58077728239e-05
2.58084736421e-05
2.58090133003e-05
2.58093520316e-05
2.5809465805e-05
2.58093464678e-05
2.58090025014e-05
2.58084583021e-05
2.58077538867e-05
2.58069446023e-05
2.58060340843e-05
2.58050742374e-05
2.58065205535e-05
2.58072580284e-05
2.58080496842e-05
2.58087543423e-05
2.58093617842e-05
2.58098247369e-05
2.58101129428e-05
2.58102093128e-05
2.58101077873e-05
2.58098148079e-05
2.58093476677e-05
2.58087370091e-05
2.58080302217e-05
2.58072376095e-05
2.58064994809e-05
2.43726600874e-05
2.43724596705e-05
2.43721724033e-05
2.43718368061e-05
2.43715162229e-05
2.43712550614e-05
2.43710885567e-05
2.4371033708e-05
2.4371095734e-05
2.43712671351e-05
2.43715289037e-05
2.43718486909e-05
2.43721857948e-05
2.43724731237e-05
2.43726854774e-05
2.43729719711e-05
2.43727873959e-05
2.43725167516e-05
2.43721927226e-05
2.43718800487e-05
2.43716237561e-05
2.43714594749e-05
2.4371405149e-05
2.43714664332e-05
2.43716353914e-05
2.43718921587e-05
2.43722034585e-05
2.43725284102e-05
2.4372800281e-05
2.43729960763e-05
2.43733692827e-05
2.43731991565e-05
2.43729471711e-05
2.43726356139e-05
2.43723328948e-05
2.43720829407e-05
2.43719217751e-05
2.43718682934e-05
2.43719286826e-05
2.43720947415e-05
2.43723458514e-05
2.4372647707e-05
2.43729596843e-05
2.43732132273e-05
2.43733928973e-05
2.43736583644e-05
2.43734903052e-05
2.4373246347e-05
2.4372938413e-05
2.43726386279e-05
2.43723901935e-05
2.43722292914e-05
2.43721757115e-05
2.43722361345e-05
2.43724021816e-05
2.43726525832e-05
2.43729520705e-05
2.43732601581e-05
2.43735052153e-05
2.4373681843e-05
2.43738451348e-05
2.43736717758e-05
2.4373430173e-05
2.43731215893e-05
2.43728215855e-05
2.43725726137e-05
2.43724109622e-05
2.4372357e-05
2.43724176938e-05
2.43725846051e-05
2.43728360659e-05
2.43731362671e-05
2.43734450389e-05
2.43736871732e-05
2.43738686106e-05
2.43739657213e-05
2.43737847465e-05
2.43735463108e-05
2.43732380879e-05
2.43729395956e-05
2.43726920352e-05
2.43725311042e-05
2.4372477278e-05
2.43725376068e-05
2.43727037765e-05
2.4372954221e-05
2.43732533333e-05
2.4373561832e-05
2.43738009119e-05
2.43739886099e-05
2.43740465641e-05
2.43738623388e-05
2.43736320801e-05
2.43733299593e-05
2.43730389562e-05
2.43727980078e-05
2.43726413947e-05
2.43725889738e-05
2.43726475984e-05
2.43728093352e-05
2.43730533979e-05
2.43733454326e-05
2.43736479351e-05
2.43738791063e-05
2.43740691526e-05
2.43741129488e-05
2.43739346785e-05
2.4373721203e-05
2.43734349665e-05
2.43731607371e-05
2.43729341978e-05
2.43727870741e-05
2.43727378575e-05
2.43727929034e-05
2.43729449567e-05
2.43731747694e-05
2.43734504587e-05
2.43737373777e-05
2.437395192e-05
2.43741355816e-05
2.43741904476e-05
2.43740303635e-05
2.43738446987e-05
2.43735862948e-05
2.43733397895e-05
2.43731366704e-05
2.43730049552e-05
2.43729609959e-05
2.43730103909e-05
2.43731468058e-05
2.43733532832e-05
2.43736016134e-05
2.437386111e-05
2.4374048009e-05
2.43742130767e-05
2.43743010675e-05
2.43741725762e-05
2.43740260149e-05
2.4373807432e-05
2.43735995588e-05
2.43734286516e-05
2.43733180333e-05
2.43732813017e-05
2.43733230771e-05
2.43734381557e-05
2.43736124838e-05
2.43738225615e-05
2.43740426687e-05
2.43741907523e-05
2.43743236369e-05
2.43744602334e-05
2.43743756813e-05
2.4374277433e-05
2.43741088105e-05
2.43739487103e-05
2.43738173127e-05
2.43737324853e-05
2.43737045989e-05
2.43737371683e-05
2.43738262364e-05
2.43739610832e-05
2.43741237129e-05
2.4374294249e-05
2.43743943141e-05
2.43744827325e-05
2.43746723085e-05
2.43746407e-05
2.43745968278e-05
2.43744857949e-05
2.43743803681e-05
2.43742939417e-05
2.43742383395e-05
2.43742204792e-05
2.43742427098e-05
2.43743023454e-05
2.43743922708e-05
2.43745004888e-05
2.43746137993e-05
2.43746596432e-05
2.43746946378e-05
2.43749295104e-05
2.43749557827e-05
2.43749699345e-05
2.43749214599e-05
2.43748756197e-05
2.43748378407e-05
2.43748136897e-05
2.43748066301e-05
2.4374817767e-05
2.43748458086e-05
2.43748870619e-05
2.43749359617e-05
2.43749869862e-05
2.43749749571e-05
2.43749515674e-05
2.43752515416e-05
2.43753392899e-05
2.43753977045e-05
2.43754060921e-05
2.43754161458e-05
2.43754240475e-05
2.43754292955e-05
2.4375432219e-05
2.43754331101e-05
2.4375431533e-05
2.43754271128e-05
2.43754202188e-05
2.43754147594e-05
2.43753586583e-05
2.43752727946e-05
2.437587387e-05
2.4375861864e-05
2.43759043473e-05
2.43759300645e-05
2.43759656585e-05
2.43759957937e-05
2.4376015604e-05
2.43760235546e-05
2.43760191664e-05
2.43760029049e-05
2.43759762059e-05
2.43759440177e-05
2.43759215929e-05
2.43758823643e-05
2.43758956482e-05
2.20875268762e-05
2.20876120122e-05
2.20877256653e-05
2.20878375758e-05
2.208794098e-05
2.20880226307e-05
2.20880743661e-05
2.20880911678e-05
2.20880716996e-05
2.20880179286e-05
2.20879353081e-05
2.20878317611e-05
2.20877197226e-05
2.20876099356e-05
2.20875253996e-05
2.2087727849e-05
2.20878235939e-05
2.20879474068e-05
2.2088069991e-05
2.20881827946e-05
2.20882717803e-05
2.20883281297e-05
2.20883463836e-05
2.20883249789e-05
2.20882661247e-05
2.20881757953e-05
2.2088062675e-05
2.20879402699e-05
2.20878199473e-05
2.20877263491e-05
2.20878939113e-05
2.20879964604e-05
2.20881269299e-05
2.2088257234e-05
2.20883772951e-05
2.20884723423e-05
2.20885327784e-05
2.20885526065e-05
2.20885299995e-05
2.20884673871e-05
2.20883712446e-05
2.20882509232e-05
2.20881210667e-05
2.20879928974e-05
2.20878928862e-05
2.20880466763e-05
2.20881550249e-05
2.20882925104e-05
2.20884291468e-05
2.20885554238e-05
2.20886555748e-05
2.20887195228e-05
2.20887407907e-05
2.20887173012e-05
2.20886516622e-05
2.20885507632e-05
2.20884244676e-05
2.20882883606e-05
2.20881525964e-05
2.20880461346e-05
2.20882002536e-05
2.20883150362e-05
2.20884602418e-05
2.20886025234e-05
2.2088734317e-05
2.2088838903e-05
2.20889059054e-05
2.20889284127e-05
2.20889041808e-05
2.20888359236e-05
2.20887308755e-05
2.20885992802e-05
2.20884574653e-05
2.20883137829e-05
2.20882003639e-05
2.20883552634e-05
2.20884777509e-05
2.20886304201e-05
2.20887780933e-05
2.20889148116e-05
2.20890233333e-05
2.20890930124e-05
2.20891166327e-05
2.20890917697e-05
2.20890212406e-05
2.20889125456e-05
2.2088776236e-05
2.20886291998e-05
2.20884774026e-05
2.20883565789e-05
2.20885126942e-05
2.20886433561e-05
2.2088803932e-05
2.20889566981e-05
2.20890979214e-05
2.20892100655e-05
2.20892822011e-05
2.20893068485e-05
2.20892814097e-05
2.20892088023e-05
2.20890967426e-05
2.20889560709e-05
2.20888040846e-05
2.20886439307e-05
2.20885150135e-05
2.20886744897e-05
2.20888141147e-05
2.2088983333e-05
2.20891411968e-05
2.20892869324e-05
2.20894027029e-05
2.2089477295e-05
2.20895029401e-05
2.20894769042e-05
2.2089402181e-05
2.20892867135e-05
2.20891416605e-05
2.20889846132e-05
2.20888156262e-05
2.20886774572e-05
2.20888427169e-05
2.20889931763e-05
2.20891717505e-05
2.20893350917e-05
2.20894856069e-05
2.20896052605e-05
2.20896824507e-05
2.20897091167e-05
2.20896823941e-05
2.20896053518e-05
2.20894861727e-05
2.20893364111e-05
2.20891738689e-05
2.20889953989e-05
2.20888463528e-05
2.20890201965e-05
2.20891833893e-05
2.20893718852e-05
2.20895411793e-05
2.20896968232e-05
2.20898206653e-05
2.20899006016e-05
2.20899283117e-05
2.20899007983e-05
2.20898212141e-05
2.20896979781e-05
2.20895431206e-05
2.20893745897e-05
2.20891860709e-05
2.20890242922e-05
2.20892087815e-05
2.2089386451e-05
2.20895850923e-05
2.20897605695e-05
2.20899215047e-05
2.20900496105e-05
2.20901322861e-05
2.20901609917e-05
2.20901326419e-05
2.20900504551e-05
2.20899230228e-05
2.20897629051e-05
2.20895881622e-05
2.20893894938e-05
2.20892133046e-05
2.20894075561e-05
2.20896009808e-05
2.20898095567e-05
2.20899914083e-05
2.20901576694e-05
2.20902899944e-05
2.2090375245e-05
2.20904048348e-05
2.20903756752e-05
2.20902909492e-05
2.20901593573e-05
2.2089993903e-05
2.20898128165e-05
2.20896043155e-05
2.20894125444e-05
2.20896120156e-05
2.20898217384e-05
2.20900404178e-05
2.20902291555e-05
2.20904013054e-05
2.20905378724e-05
2.20906255788e-05
2.20906559287e-05
2.2090625967e-05
2.20905388107e-05
2.20904028933e-05
2.20902316259e-05
2.20900436737e-05
2.20898252621e-05
2.20896172733e-05
2.20898421625e-05
2.20900718645e-05
2.20902907662e-05
2.20904810112e-05
2.20906544844e-05
2.20907914366e-05
2.20908787381e-05
2.20909088012e-05
2.20908790225e-05
2.2090792102e-05
2.20906557889e-05
2.20904831034e-05
2.20902938654e-05
2.20900755494e-05
2.20898476184e-05
2.20903151512e-05
2.209045805e-05
2.20906244646e-05
2.20907778985e-05
2.20909217105e-05
2.20910347775e-05
2.20911064112e-05
2.20911309503e-05
2.20911065132e-05
2.20910351628e-05
2.20909225883e-05
2.2090779647e-05
2.20906273921e-05
2.20904623304e-05
2.20903208791e-05
2.02217649743e-05
2.02217326216e-05
2.0221671748e-05
2.02215961406e-05
2.02215247529e-05
2.02214671966e-05
2.02214302831e-05
2.02214179896e-05
2.02214315088e-05
2.02214690222e-05
2.0221526035e-05
2.02215948872e-05
2.02216662287e-05
2.02217236398e-05
2.02217627482e-05
2.02219130037e-05
2.02218874007e-05
2.0221834597e-05
2.02217655992e-05
2.02216994504e-05
2.02216455624e-05
2.02216108252e-05
2.02215992258e-05
2.0221611989e-05
2.02216472441e-05
2.02217004071e-05
2.02217637969e-05
2.02218283272e-05
2.02218779862e-05
2.02219098526e-05
2.02220682826e-05
2.0222047477e-05
2.02220024964e-05
2.02219396264e-05
2.02218783959e-05
2.02218277796e-05
2.02217949189e-05
2.02217839282e-05
2.02217960776e-05
2.0221829452e-05
2.02218793813e-05
2.02219380998e-05
2.02219968647e-05
2.02220393639e-05
2.02220653493e-05
2.0222186343e-05
2.02221670498e-05
2.02221261525e-05
2.02220664444e-05
2.0222007527e-05
2.0221958272e-05
2.02219261425e-05
2.02219153636e-05
2.02219272601e-05
2.02219598755e-05
2.02220084477e-05
2.02220650872e-05
2.02221212736e-05
2.02221598592e-05
2.0222183889e-05
2.0222274503e-05
2.02222547611e-05
2.02222160134e-05
2.02221577219e-05
2.0222099782e-05
2.02220510485e-05
2.02220191496e-05
2.0222008403e-05
2.02220201754e-05
2.02220525058e-05
2.02221005727e-05
2.02221564228e-05
2.022221171e-05
2.02222481831e-05
2.02222724828e-05
2.02223432398e-05
2.02223218358e-05
2.02222851215e-05
2.02222278531e-05
2.02221707523e-05
2.02221225812e-05
2.02220909768e-05
2.02220802744e-05
2.0222091853e-05
2.02221237843e-05
2.02221712827e-05
2.02222264586e-05
2.02222811894e-05
2.02223160109e-05
2.022234126e-05
2.0222398636e-05
2.02223763369e-05
2.02223422257e-05
2.0222286522e-05
2.02222310823e-05
2.02221842712e-05
2.02221535265e-05
2.02221430633e-05
2.02221542306e-05
2.02221851933e-05
2.02222313461e-05
2.02222850637e-05
2.02223385688e-05
2.02223712186e-05
2.02223969032e-05
2.02224464783e-05
2.02224251445e-05
2.02223948207e-05
2.02223422635e-05
2.02222900785e-05
2.02222460261e-05
2.02222170895e-05
2.02222071992e-05
2.02222176094e-05
2.02222466518e-05
2.02222900774e-05
2.02223407957e-05
2.0222391562e-05
2.02224207075e-05
2.02224452814e-05
2.02224927348e-05
2.02224746275e-05
2.02224499415e-05
2.02224026629e-05
2.02223558324e-05
2.0222316405e-05
2.02222905364e-05
2.02222816765e-05
2.02222908995e-05
2.02223167932e-05
2.02223556664e-05
2.02224012838e-05
2.0222447183e-05
2.02224709164e-05
2.02224920804e-05
2.02225423869e-05
2.02225300173e-05
2.02225131354e-05
2.02224735353e-05
2.0222434509e-05
2.02224017883e-05
2.02223804033e-05
2.0222373074e-05
2.02223806477e-05
2.0222402018e-05
2.02224342842e-05
2.02224724055e-05
2.02225110143e-05
2.02225272057e-05
2.02225422906e-05
2.02225990825e-05
2.02225949119e-05
2.02225877637e-05
2.02225582008e-05
2.02225293883e-05
2.02225054979e-05
2.0222490003e-05
2.02224847311e-05
2.02224901909e-05
2.02225056766e-05
2.02225292594e-05
2.0222557452e-05
2.02225863653e-05
2.02225930495e-05
2.02225995688e-05
2.0222663451e-05
2.02226693621e-05
2.02226735117e-05
2.02226563485e-05
2.02226402633e-05
2.02226272862e-05
2.02226191062e-05
2.02226163659e-05
2.02226192939e-05
2.02226275381e-05
2.02226403549e-05
2.02226561281e-05
2.02226729451e-05
2.02226684439e-05
2.02226645121e-05
2.02227325208e-05
2.02227493066e-05
2.02227664571e-05
2.02227642914e-05
2.0222763669e-05
2.02227639338e-05
2.02227643966e-05
2.02227647527e-05
2.0222764641e-05
2.02227643141e-05
2.02227641081e-05
2.02227646598e-05
2.02227667605e-05
2.02227493555e-05
2.02227341075e-05
2.02228168538e-05
2.02228466628e-05
2.02228721716e-05
2.02228838373e-05
2.02228984962e-05
2.02229115219e-05
2.02229204037e-05
2.02229235859e-05
2.02229207156e-05
2.0222912115e-05
2.02228992701e-05
2.02228848239e-05
2.02228733608e-05
2.02228477621e-05
2.02228186574e-05
2.02230435284e-05
2.02230209492e-05
2.02230247953e-05
2.02230292798e-05
2.02230422032e-05
2.02230547656e-05
2.02230633885e-05
2.02230666188e-05
2.02230638614e-05
2.02230556871e-05
2.02230435758e-05
2.02230311492e-05
2.0223027254e-05
2.02230239036e-05
2.02230464392e-05
1.82659278758e-05
1.82659329927e-05
1.82659382228e-05
1.82659369331e-05
1.82659346597e-05
1.82659319532e-05
1.82659299734e-05
1.82659289253e-05
1.82659289111e-05
1.82659297835e-05
1.82659312809e-05
1.82659326368e-05
1.82659333974e-05
1.82659300186e-05
1.82659263415e-05
1.82660209767e-05
1.82660322968e-05
1.82660429923e-05
1.82660471448e-05
1.82660494333e-05
1.82660501664e-05
1.82660503063e-05
1.82660499195e-05
1.82660490683e-05
1.82660476357e-05
1.82660454932e-05
1.82660420925e-05
1.82660373976e-05
1.82660282603e-05
1.82660194315e-05
1.82661164768e-05
1.82661326224e-05
1.82661483204e-05
1.82661577593e-05
1.8266164657e-05
1.82661689902e-05
1.82661713746e-05
1.82661717977e-05
1.82661702691e-05
1.82661667432e-05
1.82661612271e-05
1.82661533822e-05
1.82661436605e-05
1.82661289072e-05
1.82661153945e-05
1.82661986932e-05
1.82662176187e-05
1.82662373699e-05
1.8266250468e-05
1.82662607857e-05
1.82662678295e-05
1.82662719433e-05
1.82662730239e-05
1.82662710412e-05
1.82662660127e-05
1.82662580617e-05
1.82662470124e-05
1.82662337166e-05
1.82662146193e-05
1.82661978566e-05
1.82662713936e-05
1.82662924197e-05
1.82663156691e-05