/*--------------------------------*- C++ -*----------------------------------*\
  =========                 |
  \\      /  F ield         | OpenFOAM: The Open Source CFD Toolbox
   \\    /   O peration     | Website:  https://openfoam.org
    \\  /    A nd           | Version:  7
     \\/     M anipulation  |
\*---------------------------------------------------------------------------*/
FoamFile
{
    version     2.0;
    format      ascii;
    class       volScalarField;
    location    "1.62";
    object      p;
}
// * * * * * * * * * * * * * * * * * * * * * * * * * * * * * * * * * * * * * //

dimensions      [0 2 -2 0 0 0 0];

internalField   nonuniform List<scalar> 
22500
(
-7.19685640424e-06
-7.1974527398e-06
-7.19631035369e-06
-7.19543988879e-06
-7.1945391795e-06
-7.19384890138e-06
-7.19341289701e-06
-7.19327875279e-06
-7.19344808832e-06
-7.1939185318e-06
-7.19464294837e-06
-7.19557455048e-06
-7.19647406122e-06
-7.19763046208e-06
-7.19705556479e-06
-7.21771174209e-06
-7.2194244459e-06
-7.21917704545e-06
-7.21907126078e-06
-7.21877877319e-06
-7.2185286575e-06
-7.21835922492e-06
-7.2183141527e-06
-7.21839652465e-06
-7.21860253389e-06
-7.21888849595e-06
-7.2192139257e-06
-7.21934923866e-06
-7.21961156228e-06
-7.2179203999e-06
-7.23829028041e-06
-7.24107793319e-06
-7.24163829538e-06
-7.24224886022e-06
-7.24251472545e-06
-7.2426698039e-06
-7.24274465161e-06
-7.24278033297e-06
-7.24278063358e-06
-7.24274106948e-06
-7.24262029672e-06
-7.24238622222e-06
-7.24180398211e-06
-7.24125895397e-06
-7.23849589216e-06
-7.25692645432e-06
-7.26064408829e-06
-7.26188565971e-06
-7.26309274852e-06
-7.26382513653e-06
-7.26431755817e-06
-7.26459565628e-06
-7.26469810193e-06
-7.26462936237e-06
-7.26438436898e-06
-7.26392391682e-06
-7.26322113704e-06
-7.26204094735e-06
-7.26081453954e-06
-7.25712473897e-06
-7.27466821738e-06
-7.27922030828e-06
-7.28107218347e-06
-7.28279448472e-06
-7.28393491298e-06
-7.28472076447e-06
-7.28517576133e-06
-7.28533625258e-06
-7.28520731622e-06
-7.28478330593e-06
-7.28402732292e-06
-7.28291448245e-06
-7.28121753784e-06
-7.27938029408e-06
-7.27485752957e-06
-7.29169120376e-06
-7.29697331769e-06
-7.29936209341e-06
-7.30151593439e-06
-7.30300249653e-06
-7.30403538053e-06
-7.30463944e-06
-7.30484868062e-06
-7.30466885533e-06
-7.30409374145e-06
-7.30308866736e-06
-7.30162781606e-06
-7.29949742559e-06
-7.2971232731e-06
-7.29187175937e-06
-7.30785395443e-06
-7.31374459039e-06
-7.31658714645e-06
-7.31908323515e-06
-7.32084823469e-06
-7.32207824337e-06
-7.32280134936e-06
-7.32304944237e-06
-7.32282882086e-06
-7.32213275958e-06
-7.3209287053e-06
-7.31918770806e-06
-7.31671336344e-06
-7.31388496149e-06
-7.30802640937e-06
-7.32308678756e-06
-7.32945978023e-06
-7.33267443444e-06
-7.33542608304e-06
-7.33740366702e-06
-7.33878313735e-06
-7.33959666054e-06
-7.33987421647e-06
-7.33962240808e-06
-7.33883421509e-06
-7.33747910156e-06
-7.33552400796e-06
-7.33279256216e-06
-7.32959186132e-06
-7.32325234484e-06
-7.33738302527e-06
-7.34411344327e-06
-7.34762187567e-06
-7.35054887764e-06
-7.3526785268e-06
-7.35416463785e-06
-7.35504312257e-06
-7.35534184264e-06
-7.35506744427e-06
-7.35421289906e-06
-7.35274980878e-06
-7.35064151939e-06
-7.34773342146e-06
-7.34423908844e-06
-7.33754327306e-06
-7.35075423587e-06
-7.35771994591e-06
-7.3614456986e-06
-7.3644757265e-06
-7.36670368961e-06
-7.36825996422e-06
-7.36918190488e-06
-7.36949484863e-06
-7.36920513223e-06
-7.36830607911e-06
-7.36677186001e-06
-7.3645644214e-06
-7.36155244833e-06
-7.35784124417e-06
-7.35091163638e-06
-7.36321931314e-06
-7.37029859771e-06
-7.37416419448e-06
-7.37723394028e-06
-7.379515832e-06
-7.38111382672e-06
-7.38206285621e-06
-7.38238475593e-06
-7.38208534173e-06
-7.38115849867e-06
-7.37958197647e-06
-7.37732021461e-06
-7.37426809367e-06
-7.3704178941e-06
-7.36337654171e-06
-7.3748121487e-06
-7.38186397663e-06
-7.38578239585e-06
-7.38884061712e-06
-7.39114589964e-06
-7.39276833685e-06
-7.39373459854e-06
-7.39406252436e-06
-7.39375665824e-06
-7.39281231201e-06
-7.39121116437e-06
-7.38892607961e-06
-7.38588560133e-06
-7.38198383576e-06
-7.37497175672e-06
-7.38560228346e-06
-7.39239332628e-06
-7.3962578011e-06
-7.39927937405e-06
-7.40160150457e-06
-7.40324659153e-06
-7.40422932916e-06
-7.40456261312e-06
-7.40425135236e-06
-7.40329045559e-06
-7.40166701681e-06
-7.39936569474e-06
-7.39636270081e-06
-7.39251663305e-06
-7.38576738693e-06
-7.39542172604e-06
-7.40165700751e-06
-7.40546502702e-06
-7.40849587165e-06
-7.41087159527e-06
-7.41255953539e-06
-7.41356745688e-06
-7.41390957067e-06
-7.41358965051e-06
-7.41260397216e-06
-7.41093846992e-06
-7.40858498122e-06
-7.40557429097e-06
-7.401787265e-06
-7.39559449053e-06
-7.40245981043e-06
-7.40957667209e-06
-7.41346914992e-06
-7.41665729331e-06
-7.41914534237e-06
-7.42089806001e-06
-7.42194068265e-06
-7.42229343839e-06
-7.42196349241e-06
-7.42094379743e-06
-7.41921468045e-06
-7.41675091644e-06
-7.41358670107e-06
-7.40971879618e-06
-7.40263837892e-06
-8.70145917012e-06
-8.70071577189e-06
-8.70004389316e-06
-8.69942068336e-06
-8.69890267464e-06
-8.69851496403e-06
-8.69827264365e-06
-8.6981861973e-06
-8.69825914882e-06
-8.69848976291e-06
-8.69887025959e-06
-8.699387019e-06
-8.70000991731e-06
-8.70068388665e-06
-8.70142777744e-06
-8.69862721599e-06
-8.69780773944e-06
-8.69706181577e-06
-8.69637192447e-06
-8.69579307899e-06
-8.69535739695e-06
-8.69508429348e-06
-8.69498718237e-06
-8.69507090765e-06
-8.69533251211e-06
-8.6957612639e-06
-8.69633943246e-06
-8.69703081268e-06
-8.69777815724e-06
-8.69859858249e-06
-8.69547165909e-06
-8.69449853192e-06
-8.6936308805e-06
-8.69282871891e-06
-8.69215135935e-06
-8.69164026932e-06
-8.6913197657e-06
-8.69120657932e-06
-8.69130680727e-06
-8.69161603832e-06
-8.69211987316e-06
-8.69279551957e-06
-8.69359908494e-06
-8.69446698686e-06
-8.69544231671e-06
-8.69200493284e-06
-8.69075498218e-06
-8.6896823677e-06
-8.68869691666e-06
-8.68786449473e-06
-8.68723701013e-06
-8.68684432553e-06
-8.68670682082e-06
-8.68683188864e-06
-8.68721355661e-06
-8.68783336634e-06
-8.68866280145e-06
-8.68964887214e-06
-8.69072125556e-06
-8.69197443743e-06
-8.68782121179e-06
-8.68615595213e-06
-8.68478410806e-06
-8.68353648679e-06
-8.68248749061e-06
-8.68169941234e-06
-8.68120800075e-06
-8.68103732339e-06
-8.68119608312e-06
-8.68167681024e-06
-8.68245702193e-06
-8.68350223885e-06
-8.68474954944e-06
-8.68612085071e-06
-8.68778990635e-06
-8.68277531644e-06
-8.68057127932e-06
-8.67881849876e-06
-8.67724295741e-06
-8.67592705739e-06
-8.67494323536e-06
-8.67433243217e-06
-8.67412184053e-06
-8.67432119778e-06
-8.67492182565e-06
-8.67589783948e-06
-8.67720941477e-06
-8.67878395256e-06
-8.6805352803e-06
-8.68274449893e-06
-8.67688486985e-06
-8.67404471679e-06
-8.67185197395e-06
-8.66990368726e-06
-8.66828828134e-06
-8.66708698239e-06
-8.66634451878e-06
-8.66609007701e-06
-8.66633407555e-06
-8.66706700104e-06
-8.66826079125e-06
-8.66987162616e-06
-8.67181850058e-06
-8.67400896292e-06
-8.67685525562e-06
-8.67023064994e-06
-8.66669143934e-06
-8.66402475671e-06
-8.66168204074e-06
-8.65975377209e-06
-8.65832756238e-06
-8.65745004068e-06
-8.65715084169e-06
-8.65744053383e-06
-8.65830932619e-06
-8.65972848929e-06
-8.6616521732e-06
-8.66399304698e-06
-8.66665709272e-06
-8.67020264179e-06
-8.66292655299e-06
-8.65866341978e-06
-8.65551393253e-06
-8.65277877813e-06
-8.65054317809e-06
-8.64889830175e-06
-8.64789053573e-06
-8.64754838214e-06
-8.64788200758e-06
-8.64888193991e-06
-8.65052039813e-06
-8.65275168467e-06
-8.65548479197e-06
-8.6586314051e-06
-8.66290139074e-06
-8.65510682307e-06
-8.65013194212e-06
-8.64651536086e-06
-8.64341128928e-06
-8.64089076293e-06
-8.63904558996e-06
-8.63791965365e-06
-8.63753877999e-06
-8.6379121681e-06
-8.63903120973e-06
-8.64087067606e-06
-8.64338725752e-06
-8.64648924138e-06
-8.65010291136e-06
-8.65508504357e-06
-8.64691263309e-06
-8.64127411959e-06
-8.63722985688e-06
-8.63379891386e-06
-8.63103014884e-06
-8.62901286227e-06
-8.62778658983e-06
-8.62737304161e-06
-8.62778007361e-06
-8.62900032823e-06
-8.63101263753e-06
-8.63377798856e-06
-8.63720701866e-06
-8.64124856359e-06
-8.64689512378e-06
-8.63849378252e-06
-8.63227138126e-06
-8.62785800959e-06
-8.62415493721e-06
-8.6211844257e-06
-8.61903003558e-06
-8.61772501575e-06
-8.61728613101e-06
-8.61771927581e-06
-8.61901903751e-06
-8.62116906254e-06
-8.62413672778e-06
-8.62783823308e-06
-8.63224949995e-06
-8.63848076192e-06
-8.63001079091e-06
-8.62329541918e-06
-8.61858231332e-06
-8.61467182719e-06
-8.61155436203e-06
-8.60930350331e-06
-8.60794453716e-06
-8.60748841652e-06
-8.6079393334e-06
-8.60929342483e-06
-8.61154044535e-06
-8.61465548123e-06
-8.61856493121e-06
-8.62327668557e-06
-8.63000192607e-06
-8.62144452732e-06
-8.61433413756e-06
-8.60947208388e-06
-8.60546311327e-06
-8.60228851912e-06
-8.60000528587e-06
-8.59863008876e-06
-8.59816930688e-06
-8.5986250641e-06
-8.59999562965e-06
-8.60227512229e-06
-8.60544772874e-06
-8.60945599648e-06
-8.61431815789e-06
-8.62143882912e-06
-8.61190340522e-06
-8.60538196402e-06
-8.60064325647e-06
-8.59670302228e-06
-8.59360844394e-06
-8.59138913724e-06
-8.59005424733e-06
-8.58960720318e-06
-8.59004936218e-06
-8.59137957201e-06
-8.59359516457e-06
-8.59668769078e-06
-8.60062805122e-06
-8.6053685511e-06
-8.61189911082e-06
-7.61172539099e-06
-7.61178003222e-06
-7.61180226819e-06
-7.61184424732e-06
-7.61187989333e-06
-7.61191410042e-06
-7.61194053449e-06
-7.61195339245e-06
-7.61194934263e-06
-7.61193053308e-06
-7.61190151221e-06
-7.61186907773e-06
-7.61183647079e-06
-7.61181834876e-06
-7.61177313205e-06
-7.61120594169e-06
-7.6112413419e-06
-7.6112515176e-06
-7.61128136443e-06
-7.61130783977e-06
-7.61133482151e-06
-7.61135671905e-06
-7.61136814814e-06
-7.61136598177e-06
-7.61135220792e-06
-7.61133089126e-06
-7.61130815925e-06
-7.61128669483e-06
-7.61128198393e-06
-7.61125518086e-06
-7.61053997177e-06
-7.61055202698e-06
-7.61054094287e-06
-7.61055355257e-06
-7.61056662388e-06
-7.61058331136e-06
-7.61059847805e-06
-7.61060745016e-06
-7.61060744643e-06
-7.61060028011e-06
-7.61058951702e-06
-7.61058070606e-06
-7.61057559813e-06
-7.61059248545e-06
-7.61058887866e-06
-7.61003231508e-06
-7.61003791134e-06
-7.61001560355e-06
-7.61002129697e-06
-7.6100294478e-06
-7.61004232464e-06
-7.61005471359e-06
-7.61006247376e-06
-7.61006316876e-06
-7.61005849152e-06
-7.61005177759e-06
-7.61004834667e-06
-7.61004945466e-06
-7.61007705092e-06
-7.61008099572e-06
-7.6096776594e-06
-7.60968690128e-06
-7.60966062161e-06
-7.60966589779e-06
-7.60967378151e-06
-7.60968613998e-06
-7.60969789017e-06
-7.60970521991e-06
-7.60970591356e-06
-7.60970157842e-06
-7.60969539338e-06
-7.60969248525e-06
-7.60969372967e-06
-7.60972470812e-06
-7.60972594354e-06
-7.60942433233e-06
-7.60943744285e-06
-7.60940849099e-06
-7.60941305709e-06
-7.60942010448e-06
-7.60943138485e-06
-7.60944209896e-06
-7.60944885993e-06
-7.60944969251e-06
-7.60944609615e-06
-7.6094409768e-06
-7.60943906819e-06
-7.60944065829e-06
-7.60947436651e-06
-7.60947167831e-06
-7.60923131741e-06
-7.60924211817e-06
-7.6092058338e-06
-7.60920468112e-06
-7.60920634183e-06
-7.60921295358e-06
-7.60922041832e-06
-7.60922587323e-06
-7.60922762884e-06
-7.60922697362e-06
-7.60922641773e-06
-7.60922998255e-06
-7.60923699732e-06
-7.60927808775e-06
-7.60927797376e-06
-7.60906120038e-06
-7.60905683867e-06
-7.60900432751e-06
-7.60898909393e-06
-7.60897833557e-06
-7.60897500161e-06
-7.60897595595e-06
-7.60897902125e-06
-7.60898282699e-06
-7.60898840788e-06
-7.60899771964e-06
-7.60901381158e-06
-7.60903471827e-06
-7.60909198046e-06
-7.60910750709e-06
-7.6088778414e-06
-7.60884031936e-06
-7.60876036493e-06
-7.60872112486e-06
-7.60868987869e-06
-7.60867073422e-06
-7.60866167735e-06
-7.60866121923e-06
-7.6086682776e-06
-7.60868364108e-06
-7.60870865172e-06
-7.60874530519e-06
-7.60879016967e-06
-7.60887485928e-06
-7.60892386086e-06
-7.60864840089e-06
-7.60855764144e-06
-7.6084388236e-06
-7.60836622131e-06
-7.60830732346e-06
-7.60826732748e-06
-7.60824525732e-06
-7.60824030051e-06
-7.60825163669e-06
-7.60827983208e-06
-7.60832564408e-06
-7.60839005682e-06
-7.60846829864e-06
-7.60859195188e-06
-7.60869434463e-06
-7.60834631598e-06
-7.60818315624e-06
-7.60801599618e-06
-7.60790328058e-06
-7.60781192092e-06
-7.60774775713e-06
-7.60771078956e-06
-7.60770069469e-06
-7.60771697942e-06
-7.60775992162e-06
-7.60782985152e-06
-7.60792685463e-06
-7.60804525113e-06
-7.60821739516e-06
-7.60839235632e-06
-7.60795524531e-06
-7.6077030231e-06
-7.60748127374e-06
-7.60732537405e-06
-7.60719972263e-06
-7.60711030756e-06
-7.60705772907e-06
-7.60704234108e-06
-7.60706373653e-06
-7.60712217098e-06
-7.60721732399e-06
-7.60734870437e-06
-7.60751037111e-06
-7.60773715505e-06
-7.60800117987e-06
-7.60746556518e-06
-7.60710919747e-06
-7.60683207856e-06
-7.60663580423e-06
-7.60647813538e-06
-7.60636464138e-06
-7.60629725371e-06
-7.6062766358e-06
-7.60630308249e-06
-7.6063761742e-06
-7.60649530532e-06
-7.60665880768e-06
-7.60686089061e-06
-7.60714317844e-06
-7.60751129209e-06
-7.60679280046e-06
-7.60633174093e-06
-7.60603897012e-06
-7.6058272319e-06
-7.60565378704e-06
-7.60552678961e-06
-7.60545020205e-06
-7.60542647987e-06
-7.60545584395e-06
-7.6055378662e-06
-7.60567045428e-06
-7.60584966786e-06
-7.6060672858e-06
-7.60636553154e-06
-7.60683764976e-06
-7.60553019449e-06
-7.60531580383e-06
-7.60511376138e-06
-7.60494332846e-06
-7.60479091855e-06
-7.60467432131e-06
-7.60460274974e-06
-7.60458033299e-06
-7.60460819275e-06
-7.60468510332e-06
-7.60480705338e-06
-7.60496527545e-06
-7.60514188056e-06
-7.60535024748e-06
-7.60557425745e-06
-7.95070277761e-06
-7.95057571301e-06
-7.95042415459e-06
-7.95027052613e-06
-7.95013209477e-06
-7.950021785e-06
-7.94995032901e-06
-7.94992398459e-06
-7.94994543768e-06
-7.95001282017e-06
-7.95012112695e-06
-7.9502620495e-06
-7.95042033109e-06
-7.95058120017e-06
-7.95071021893e-06
-7.95040578469e-06
-7.95027683385e-06
-7.95012061161e-06
-7.9499645521e-06
-7.94982249722e-06
-7.94970893797e-06
-7.94963503158e-06
-7.94960759924e-06
-7.94962955833e-06
-7.94969888423e-06
-7.9498101611e-06
-7.94995462732e-06
-7.95011646792e-06
-7.95028171232e-06
-7.95041501193e-06
-7.95020361884e-06
-7.95007920686e-06
-7.94992391357e-06
-7.94977105126e-06
-7.9496305362e-06
-7.94951839834e-06
-7.94944539892e-06
-7.94941847246e-06
-7.94944050041e-06
-7.94950942173e-06
-7.9496195901e-06
-7.94976210997e-06
-7.94992069532e-06
-7.95008333651e-06
-7.95021324829e-06
-7.95004476937e-06
-7.94992376693e-06
-7.94976919969e-06
-7.94961937002e-06
-7.94948115382e-06
-7.94937118162e-06
-7.9492997163e-06
-7.94927361142e-06
-7.94929564879e-06
-7.94936378672e-06
-7.94947228927e-06
-7.94961231318e-06
-7.94976726192e-06
-7.9499281344e-06
-7.95005460211e-06
-7.94990280544e-06
-7.94978506466e-06
-7.94963060599e-06
-7.94948368364e-06
-7.94934814524e-06
-7.94924050172e-06
-7.94917074774e-06
-7.94914544865e-06
-7.94916736284e-06
-7.9492344149e-06
-7.94934093015e-06
-7.94947821742e-06
-7.94962956657e-06
-7.94978980215e-06
-7.94991281777e-06
-7.94978047761e-06
-7.94966770062e-06
-7.94951230646e-06
-7.94936901658e-06
-7.94923672817e-06
-7.94913206737e-06
-7.94906441062e-06
-7.94904010194e-06
-7.94906173789e-06
-7.94912732003e-06
-7.94923129284e-06
-7.94936526216e-06
-7.94951258911e-06
-7.9496725385e-06
-7.94979140174e-06
-7.94968081321e-06
-7.9495725149e-06
-7.94941564989e-06
-7.94927590087e-06
-7.9491469183e-06
-7.94904529809e-06
-7.94897980769e-06
-7.94895649942e-06
-7.94897778537e-06
-7.94904175385e-06
-7.94914305298e-06
-7.94927363943e-06
-7.9494171276e-06
-7.94957755634e-06
-7.94969234715e-06
-7.94960014628e-06
-7.94949371489e-06
-7.94933384972e-06
-7.94919606984e-06
-7.94906955169e-06
-7.94897034129e-06
-7.94890671443e-06
-7.94888428294e-06
-7.94890532481e-06
-7.94896798812e-06
-7.94906720438e-06
-7.9491952844e-06
-7.94933629512e-06
-7.94949909241e-06
-7.94961179268e-06
-7.94953030154e-06
-7.94942158033e-06
-7.94925566383e-06
-7.94911739579e-06
-7.94899156399e-06
-7.94889345364e-06
-7.94883088372e-06
-7.94880903736e-06
-7.94883004245e-06
-7.94889212319e-06
-7.94899050626e-06
-7.94911785188e-06
-7.94925889948e-06
-7.94942718015e-06
-7.94954220506e-06
-7.94946155631e-06
-7.94934354819e-06
-7.94916759423e-06
-7.94902569317e-06
-7.94889828377e-06
-7.9487996845e-06
-7.948737179e-06
-7.94871558789e-06
-7.94873682641e-06
-7.94879924363e-06
-7.94889835564e-06
-7.949027183e-06
-7.94917144018e-06
-7.94934919503e-06
-7.94947352598e-06
-7.94938162563e-06
-7.94924520483e-06
-7.9490553991e-06
-7.94890701658e-06
-7.94877611332e-06
-7.94867554644e-06
-7.94861223188e-06
-7.9485905341e-06
-7.9486122575e-06
-7.94867580777e-06
-7.94877704901e-06
-7.94890935096e-06
-7.94905974994e-06
-7.94925101717e-06
-7.94939383264e-06
-7.94927937036e-06
-7.94911371258e-06
-7.94890695803e-06
-7.94875022665e-06
-7.94861444969e-06
-7.94851096335e-06
-7.94844611419e-06
-7.94842409138e-06
-7.94844640972e-06
-7.94851170968e-06
-7.9486160284e-06
-7.94875314023e-06
-7.94891170265e-06
-7.94911978227e-06
-7.94929199629e-06
-7.94914412283e-06
-7.94893711173e-06
-7.94871237453e-06
-7.94854738083e-06
-7.94840648827e-06
-7.94829939026e-06
-7.94823269916e-06
-7.94821004251e-06
-7.94823315259e-06
-7.9483004668e-06
-7.94840839566e-06
-7.94855069376e-06
-7.94871737894e-06
-7.94894349564e-06
-7.94915713424e-06
-7.94891607753e-06
-7.94866290622e-06
-7.94844236622e-06
-7.94828181828e-06
-7.94814301916e-06
-7.94803714611e-06
-7.9479710043e-06
-7.94794873561e-06
-7.94797157118e-06
-7.94803828168e-06
-7.9481451094e-06
-7.94828522299e-06
-7.94844752493e-06
-7.94866975697e-06
-7.94892963773e-06
-7.94829329935e-06
-7.94817736645e-06
-7.94804314594e-06
-7.94793592131e-06
-7.94783302563e-06
-7.9477516226e-06
-7.94770020672e-06
-7.94768278218e-06
-7.94770078851e-06
-7.94775289297e-06
-7.94783514644e-06
-7.94793946149e-06
-7.94804862766e-06
-7.94818519576e-06
-7.94830687352e-06
-7.3158493709e-06
-7.31588308401e-06
-7.31589776133e-06
-7.31591980201e-06
-7.31593488132e-06
-7.31594644465e-06
-7.31595572704e-06
-7.31596076688e-06
-7.31595996198e-06
-7.31595355043e-06
-7.31594224027e-06
-7.31592768708e-06
-7.31590979631e-06
-7.31589510415e-06
-7.31586921973e-06
-7.31567598661e-06
-7.31570211486e-06
-7.31571364481e-06
-7.31573227634e-06
-7.31574494836e-06
-7.31575517659e-06
-7.31576363903e-06
-7.31576842634e-06
-7.31576799786e-06
-7.31576257066e-06
-7.31575286694e-06
-7.31574059951e-06
-7.31572576931e-06
-7.31571557353e-06
-7.31569664928e-06
-7.31543793179e-06
-7.31545353191e-06
-7.3154570222e-06
-7.3154691825e-06
-7.3154776647e-06
-7.31548530471e-06
-7.31549206492e-06
-7.31549618019e-06
-7.3154962802e-06
-7.31549263092e-06
-7.31548596868e-06
-7.31547812564e-06
-7.31546898491e-06
-7.31546722285e-06
-7.31545798048e-06
-7.31523932729e-06
-7.31525003263e-06
-7.31524761868e-06
-7.31525625e-06
-7.31526283799e-06
-7.31526973614e-06
-7.31527589298e-06
-7.31527967532e-06
-7.31527990076e-06
-7.31527690082e-06
-7.31527150479e-06
-7.31526575295e-06
-7.3152594908e-06
-7.31526323067e-06
-7.31525890043e-06
-7.31508236215e-06
-7.31509232166e-06
-7.31508640362e-06
-7.31509417593e-06
-7.31510076331e-06
-7.31510809204e-06
-7.31511447167e-06
-7.31511824163e-06
-7.31511831109e-06
-7.31511507252e-06
-7.31510951035e-06
-7.31510390889e-06
-7.3150981647e-06
-7.31510481794e-06
-7.31510150587e-06
-7.31495586375e-06
-7.31496637615e-06
-7.31495903598e-06
-7.31496730978e-06
-7.31497496085e-06
-7.31498347541e-06
-7.31499053829e-06
-7.31499445625e-06
-7.314994188e-06
-7.31499020655e-06
-7.31498366863e-06
-7.31497711307e-06
-7.31497055395e-06
-7.31497867663e-06
-7.31497411881e-06
-7.31485323722e-06
-7.31486584981e-06
-7.31485779586e-06
-7.31486720183e-06
-7.3148764146e-06
-7.31488633714e-06
-7.31489425957e-06
-7.31489839225e-06
-7.31489771575e-06
-7.31489276615e-06
-7.3148848947e-06
-7.31487687067e-06
-7.31486889209e-06
-7.31487781036e-06
-7.31487088292e-06
-7.31476992088e-06
-7.31478481438e-06
-7.31477584484e-06
-7.31478644417e-06
-7.31479720645e-06
-7.31480844559e-06
-7.31481716372e-06
-7.31482148796e-06
-7.31482041793e-06
-7.31481454506e-06
-7.31480540824e-06
-7.31479596901e-06
-7.31478668708e-06
-7.31479649819e-06
-7.31478735776e-06
-7.31470073517e-06
-7.31471629378e-06
-7.31470549964e-06
-7.31471660032e-06
-7.31472826679e-06
-7.31474026749e-06
-7.31474945848e-06
-7.31475386183e-06
-7.31475250788e-06
-7.3147460215e-06
-7.3147361092e-06
-7.31472587168e-06
-7.31471610757e-06
-7.31472774688e-06
-7.31471797394e-06
-7.31463897206e-06
-7.31465187837e-06
-7.31463777889e-06
-7.31464812695e-06
-7.31465969449e-06
-7.31467165347e-06
-7.31468076959e-06
-7.31468508547e-06
-7.31468362532e-06
-7.31467706741e-06
-7.31466720478e-06
-7.31465719522e-06
-7.31464827602e-06
-7.31466333985e-06
-7.31465608711e-06
-7.31457709133e-06
-7.3145828026e-06
-7.31456354636e-06
-7.31457169321e-06
-7.31458198705e-06
-7.31459285238e-06
-7.31460126017e-06
-7.3146052312e-06
-7.31460392924e-06
-7.31459795546e-06
-7.3145891463e-06
-7.31458055256e-06
-7.31457391277e-06
-7.31459430667e-06
-7.31459412651e-06
-7.31450806723e-06
-7.31450069655e-06
-7.31447442624e-06
-7.31447920865e-06
-7.3144869379e-06
-7.31449568743e-06
-7.31450254019e-06
-7.31450596194e-06
-7.31450504643e-06
-7.31450049803e-06
-7.3144938421e-06
-7.31448785571e-06
-7.31448470413e-06
-7.31451212748e-06
-7.31452483642e-06
-7.31442246124e-06
-7.31439589284e-06
-7.31436252126e-06
-7.31436380433e-06
-7.31436827153e-06
-7.31437358142e-06
-7.31437823601e-06
-7.31438064121e-06
-7.31438058987e-06
-7.31437821676e-06
-7.31437485614e-06
-7.3143723385e-06
-7.31437266682e-06
-7.31440727297e-06
-7.31443888921e-06
-7.31427968607e-06
-7.31423324798e-06
-7.31420704455e-06
-7.31421262499e-06
-7.31421714054e-06
-7.31422131644e-06
-7.31422445419e-06
-7.31422645562e-06
-7.31422675057e-06
-7.31422567907e-06
-7.31422361689e-06
-7.31422089744e-06
-7.31421713968e-06
-7.31424457974e-06
-7.31429548322e-06
-7.31392714551e-06
-7.31396381343e-06
-7.31398955485e-06
-7.31402237288e-06
-7.31404213446e-06
-7.31405503992e-06
-7.31406309068e-06
-7.31406648347e-06
-7.31406532352e-06
-7.31405945529e-06
-7.31404852824e-06
-7.31403084008e-06
-7.31399991146e-06
-7.31397593611e-06
-7.31394258716e-06
-7.21500464942e-06
-7.214955451e-06
-7.21489830243e-06
-7.21483797527e-06
-7.21478269416e-06
-7.21473790147e-06
-7.21470778555e-06
-7.2146952995e-06
-7.21470189635e-06
-7.2147268672e-06
-7.21476815019e-06
-7.21482231983e-06
-7.2148831864e-06
-7.21494488278e-06
-7.21499347028e-06
-7.21486857362e-06
-7.21481906684e-06
-7.21475976701e-06
-7.21469871687e-06
-7.21464232101e-06
-7.21459642596e-06
-7.21456541887e-06
-7.21455247097e-06
-7.21455910787e-06
-7.21458460549e-06
-7.21462680312e-06
-7.21468216779e-06
-7.21474438167e-06
-7.21480798221e-06
-7.21485883792e-06
-7.2147635761e-06
-7.2147151751e-06
-7.21465482637e-06
-7.214594654e-06
-7.21453868873e-06
-7.21449342619e-06
-7.21446297158e-06
-7.21445041187e-06
-7.21445717025e-06
-7.21448254572e-06
-7.21452435295e-06
-7.21457910381e-06
-7.21464038848e-06
-7.2147036151e-06
-7.21475423978e-06
-7.21467922271e-06
-7.21463088217e-06
-7.21456989125e-06
-7.21451044756e-06
-7.21445528227e-06
-7.21441094205e-06
-7.21438128948e-06
-7.21436926905e-06
-7.21437616732e-06
-7.21440131931e-06
-7.2144425647e-06
-7.21449651654e-06
-7.21455672353e-06
-7.21461982074e-06
-7.2146700473e-06
-7.21460384682e-06
-7.21455551225e-06
-7.21449381423e-06
-7.21443487457e-06
-7.21438051107e-06
-7.21433703614e-06
-7.21430817656e-06
-7.21429663612e-06
-7.21430363544e-06
-7.21432850308e-06
-7.21436915465e-06
-7.21442232471e-06
-7.21448157512e-06
-7.21454501626e-06
-7.21459491981e-06
-7.21453644305e-06
-7.21448913652e-06
-7.21442602286e-06
-7.21436797364e-06
-7.2143146035e-06
-7.21427218346e-06
-7.21424418905e-06
-7.21423315993e-06
-7.21424019523e-06
-7.21426466844e-06
-7.21430457788e-06
-7.21435682984e-06
-7.21441505672e-06
-7.21447902177e-06
-7.21452845025e-06
-7.2144784128e-06
-7.21443189963e-06
-7.21436741535e-06
-7.21431030525e-06
-7.21425797491e-06
-7.21421667685e-06
-7.2141895969e-06
-7.21417908372e-06
-7.21418610797e-06
-7.21421008801e-06
-7.21424914042e-06
-7.21430036622e-06
-7.21435754995e-06
-7.21442220092e-06
-7.21447114336e-06
-7.21442907275e-06
-7.21438247283e-06
-7.21431661914e-06
-7.2142602477e-06
-7.21420900865e-06
-7.2141688617e-06
-7.21414273448e-06
-7.21413272346e-06
-7.21413970507e-06
-7.2141631285e-06
-7.21420127238e-06
-7.21425145407e-06
-7.21430771214e-06
-7.21437335123e-06
-7.21442216325e-06
-7.21438618621e-06
-7.2143388984e-06
-7.21427127903e-06
-7.21421538194e-06
-7.21416513674e-06
-7.21412607332e-06
-7.21410086272e-06
-7.21409131827e-06
-7.21409822663e-06
-7.2141210716e-06
-7.21415831476e-06
-7.21420751739e-06
-7.21426310501e-06
-7.21433020168e-06
-7.21437981523e-06
-7.21434767387e-06
-7.21429808725e-06
-7.21422811003e-06
-7.21417243042e-06
-7.21412308396e-06
-7.21408509542e-06
-7.21406074732e-06
-7.214051653e-06
-7.21405845199e-06
-7.21408070561e-06
-7.2141170583e-06
-7.21416534202e-06
-7.21422053624e-06
-7.21428969359e-06
-7.2143416941e-06
-7.21431000821e-06
-7.21425587669e-06
-7.21418317121e-06
-7.21412762027e-06
-7.21407929431e-06
-7.2140423607e-06
-7.21401889358e-06
-7.21401019324e-06
-7.2140168565e-06
-7.2140384596e-06
-7.2140738609e-06
-7.21412116105e-06
-7.21417607433e-06
-7.21424783072e-06
-7.21430458199e-06
-7.21426984889e-06
-7.21420806218e-06
-7.21413238455e-06
-7.21407723308e-06
-7.21403002807e-06
-7.21399431706e-06
-7.21397165346e-06
-7.21396336909e-06
-7.2139698197e-06
-7.21399075021e-06
-7.21402509995e-06
-7.21407122766e-06
-7.21412570419e-06
-7.21420042304e-06
-7.21426509714e-06
-7.21422289464e-06
-7.21414957405e-06
-7.21407144202e-06
-7.21401737053e-06
-7.21397180933e-06
-7.21393709921e-06
-7.21391534982e-06
-7.21390728398e-06
-7.21391362623e-06
-7.21393386425e-06
-7.21396713826e-06
-7.21401181089e-06
-7.21406510066e-06
-7.21414239817e-06
-7.21421880199e-06
-7.21414171841e-06
-7.21405612099e-06
-7.21398558794e-06
-7.21393871774e-06
-7.21389779064e-06
-7.21386652625e-06
-7.21384655228e-06
-7.21383930389e-06
-7.21384497932e-06
-7.21386336441e-06
-7.2138934556e-06
-7.21393332641e-06
-7.21397962573e-06
-7.21404949046e-06
-7.21413856012e-06
-7.2138962807e-06
-7.21387318638e-06
-7.21384651369e-06
-7.21382808698e-06
-7.21380719247e-06
-7.21378967972e-06
-7.21377820386e-06
-7.21377371423e-06
-7.21377666331e-06
-7.213786748e-06
-7.2138029742e-06
-7.2138230348e-06
-7.21384089118e-06
-7.21386732426e-06
-7.21389322182e-06
-6.78750506847e-06
-6.78750770834e-06
-6.7874947782e-06
-6.78748522218e-06
-6.78747757006e-06
-6.78747292291e-06
-6.78747028907e-06
-6.78746966922e-06
-6.78747092546e-06
-6.78747408073e-06
-6.78747902055e-06
-6.78748568606e-06
-6.78749290413e-06
-6.78750203989e-06
-6.78750505014e-06
-6.78740739371e-06
-6.7874062195e-06
-6.78739178232e-06
-6.78738066251e-06
-6.78737188108e-06
-6.78736644266e-06
-6.78736340901e-06
-6.78736269457e-06
-6.78736415582e-06
-6.78736782021e-06
-6.78737355171e-06
-6.78738132425e-06
-6.78738997962e-06
-6.78740123857e-06
-6.78740744642e-06
-6.78729626982e-06
-6.78729097685e-06
-6.78727467911e-06
-6.78726205684e-06
-6.78725210011e-06
-6.78724574009e-06
-6.78724215926e-06
-6.78724125736e-06
-6.78724287343e-06
-6.78724701731e-06
-6.78725356217e-06
-6.78726255127e-06
-6.78727279002e-06
-6.78728674256e-06
-6.78729615095e-06
-6.78720580057e-06
-6.78719920425e-06
-6.7871815516e-06
-6.78716880917e-06
-6.78715856283e-06
-6.78715194358e-06
-6.7871482378e-06
-6.78714727654e-06
-6.78714886671e-06
-6.7871529979e-06
-6.7871595942e-06
-6.78716881441e-06
-6.78717947452e-06
-6.78719499217e-06
-6.78720575118e-06
-6.7871333392e-06
-6.78712704331e-06
-6.78710869114e-06
-6.78709667423e-06
-6.78708688e-06
-6.78708062541e-06
-6.78707717102e-06
-6.7870762719e-06
-6.78707769474e-06
-6.78708144596e-06
-6.78708752052e-06
-6.7870962246e-06
-6.7871064302e-06
-6.78712261859e-06
-6.7871331972e-06
-6.7870747217e-06
-6.78706888246e-06
-6.78705081994e-06
-6.78704000786e-06
-6.7870311317e-06
-6.78702558676e-06
-6.78702259469e-06
-6.78702181794e-06
-6.78702298096e-06
-6.78702611486e-06
-6.78703130499e-06
-6.78703902027e-06
-6.78704823776e-06
-6.78706456846e-06
-6.78707407486e-06
-6.78702722808e-06
-6.78702266506e-06
-6.78700514035e-06
-6.78699568996e-06
-6.78698805041e-06
-6.78698346865e-06
-6.78698109631e-06
-6.78698048388e-06
-6.78698133734e-06
-6.78698370349e-06
-6.78698780453e-06
-6.78699426476e-06
-6.78700221295e-06
-6.7870183962e-06
-6.78702633012e-06
-6.78698895387e-06
-6.78698599633e-06
-6.78696888807e-06
-6.78696092934e-06
-6.78695467107e-06
-6.78695114359e-06
-6.78694943433e-06
-6.78694899842e-06
-6.78694951805e-06
-6.78695107189e-06
-6.78695402172e-06
-6.78695915518e-06
-6.78696581195e-06
-6.78698183328e-06
-6.78698822074e-06
-6.78695803158e-06
-6.78695604658e-06
-6.78693905173e-06
-6.78693240279e-06
-6.78692744672e-06
-6.78692494986e-06
-6.78692388759e-06
-6.78692363472e-06
-6.78692383183e-06
-6.78692462484e-06
-6.78692649907e-06
-6.78693041472e-06
-6.78693598587e-06
-6.78695210083e-06
-6.78695751131e-06
-6.78693171952e-06
-6.78692940248e-06
-6.78691211238e-06
-6.78690645612e-06
-6.78690266572e-06
-6.7869010693e-06
-6.78690058127e-06
-6.78690047953e-06
-6.78690041207e-06
-6.7869005523e-06
-6.78690152086e-06
-6.78690443001e-06
-6.78690925761e-06
-6.78692592592e-06
-6.78693158226e-06
-6.78690707424e-06
-6.78690262954e-06
-6.78688447258e-06
-6.78687945956e-06
-6.7868766085e-06
-6.78687575663e-06
-6.78687572788e-06
-6.7868757589e-06
-6.7868754968e-06
-6.78687513459e-06
-6.78687541241e-06
-6.78687754263e-06
-6.7868819392e-06
-6.78689970394e-06
-6.78690739353e-06
-6.78688136264e-06
-6.78687228699e-06
-6.78685267963e-06
-6.78684810421e-06
-6.78684600726e-06
-6.78684565522e-06
-6.78684593801e-06
-6.78684605051e-06
-6.7868456849e-06
-6.78684505536e-06
-6.78684488049e-06
-6.78684644715e-06
-6.78685060572e-06
-6.78686988639e-06
-6.78688205766e-06
-6.78685071161e-06
-6.78683413357e-06
-6.78681325131e-06
-6.7868094085e-06
-6.78680789149e-06
-6.78680780548e-06
-6.78680810644e-06
-6.78680824415e-06
-6.78680791199e-06
-6.78680727138e-06
-6.78680698937e-06
-6.78680810639e-06
-6.78681167917e-06
-6.7868323073e-06
-6.78685174854e-06
-6.78679526196e-06
-6.78677080081e-06
-6.78675589803e-06
-6.78675673386e-06
-6.78675784687e-06
-6.78675901748e-06