/*--------------------------------*- C++ -*----------------------------------*\
  =========                 |
  \\      /  F ield         | OpenFOAM: The Open Source CFD Toolbox
   \\    /   O peration     | Website:  https://openfoam.org
    \\  /    A nd           | Version:  7
     \\/     M anipulation  |
\*---------------------------------------------------------------------------*/
FoamFile
{
    version     2.0;
    format      ascii;
    class       volVectorField;
    location    "0.66";
    object      U;
}
// * * * * * * * * * * * * * * * * * * * * * * * * * * * * * * * * * * * * * //

dimensions      [0 1 -1 0 0 0 0];

internalField   nonuniform List<vector> 
22500
(
(8.4639791517e-06 9.60706107675e-06 0.000110818570438)
(7.77600117721e-06 1.09035783872e-05 0.000116094246554)
(6.7349130863e-06 1.21588568043e-05 0.000120781201681)
(5.61116993192e-06 1.31985435441e-05 0.000124786267673)
(4.33049742532e-06 1.40409126467e-05 0.000128017419391)
(2.95058273768e-06 1.4657114335e-05 0.00013039012927)
(1.49663536185e-06 1.50333377156e-05 0.000131841709424)
(4.49947126592e-09 1.51601871968e-05 0.000132333239862)
(-1.48775999765e-06 1.50339366681e-05 0.000131841643116)
(-2.94204873017e-06 1.46582691555e-05 0.000130390024405)
(-4.32253977155e-06 1.40425010425e-05 0.000128017300186)
(-5.60399605379e-06 1.32004417328e-05 0.000124786208594)
(-6.72886653241e-06 1.21608053966e-05 0.000120781583518)
(-7.77082295039e-06 1.09057944321e-05 0.000116097180787)
(-8.4606006918e-06 9.60919471494e-06 0.000110833497894)
(2.49145346965e-05 2.82209234308e-05 0.000299585249171)
(2.28860546987e-05 3.19347251637e-05 0.000312064029111)
(1.99102706125e-05 3.55158944138e-05 0.000322972364247)
(1.65880890243e-05 3.85196959949e-05 0.000332184039986)
(1.2818831564e-05 4.09598906413e-05 0.000339549794032)
(8.73831942767e-06 4.27498749296e-05 0.000344924892282)
(4.43321226685e-06 4.38449206111e-05 0.000348199403448)
(1.19897706639e-08 4.4214107644e-05 0.000349303979452)
(-4.40952746548e-06 4.38462690856e-05 0.000348199194599)
(-8.7154807998e-06 4.27524704229e-05 0.000344924541754)
(-1.27974017343e-05 4.09634590857e-05 0.000339549348451)
(-1.6568610634e-05 3.85239525609e-05 0.00033218369012)
(-1.98934606471e-05 3.55203053129e-05 0.000322973206034)
(-2.28716448154e-05 3.19397948649e-05 0.000312072156621)
(-2.49049431507e-05 2.82259555711e-05 0.000299622323894)
(3.82928832143e-05 4.3244790272e-05 0.000459925050898)
(3.50341758964e-05 4.86995503541e-05 0.000477159820024)
(3.04434870557e-05 5.39225266918e-05 0.000492001771909)
(2.53023760555e-05 5.83020623597e-05 0.00050440367662)
(1.95223657829e-05 6.18488659425e-05 0.000514242093909)
(1.32907354671e-05 6.44457856264e-05 0.000521381668141)
(6.73733521698e-06 6.60323545618e-05 0.000525714655107)
(1.80223095126e-08 6.65667518578e-05 0.00052717181949)
(-6.70168797036e-06 6.60340167897e-05 0.000525714123156)
(-1.32562491142e-05 6.44489785222e-05 0.00052138069933)
(-1.94898069788e-05 6.18532499036e-05 0.000514240724227)
(-2.52724866825e-05 5.83072552309e-05 0.00050440213463)
(-3.04172126031e-05 5.39279534336e-05 0.000492001531779)
(-3.50113984755e-05 4.87059210517e-05 0.00047716936668)
(-3.82772183814e-05 4.32514746734e-05 0.000459974498298)
(4.91259644661e-05 5.53210715039e-05 0.000596245170066)
(4.47675967736e-05 6.19732520189e-05 0.000616390269629)
(3.88275300274e-05 6.83098956029e-05 0.000633466361024)
(3.21870017265e-05 7.36062966831e-05 0.00064757526576)
(2.47882333459e-05 7.78811617047e-05 0.00065867381525)
(1.68510849635e-05 8.10033329895e-05 0.000666680059671)
(8.53448273977e-06 8.29075611068e-05 0.000671519550721)
(2.28183288753e-08 8.3548303561e-05 0.000673142287265)
(-8.48931800994e-06 8.29094548283e-05 0.000671518369126)
(-1.68073159211e-05 8.10069683932e-05 0.000666677796239)
(-2.47467787786e-05 7.78861679921e-05 0.000658670446169)
(-3.21487229294e-05 7.36122253511e-05 0.000647570928199)
(-3.8793473232e-05 6.83161538122e-05 0.000633462472087)
(-4.4737767969e-05 6.19806576179e-05 0.000616396048304)
(-4.91046564088e-05 5.53290583164e-05 0.000596294558784)
(5.78377677798e-05 6.49732834264e-05 0.000712125409507)
(5.25121905725e-05 7.23884272555e-05 0.000733778081881)
(4.54460444749e-05 7.94231086628e-05 0.000751816219738)
(3.75772559621e-05 8.52790849739e-05 0.000766532247033)
(2.88847716249e-05 8.99885684109e-05 0.000777998799988)
(1.96071651608e-05 9.34191876202e-05 0.000786214942086)
(9.92146564248e-06 9.55078155757e-05 0.000791158938662)
(2.66179284474e-08 9.62099322677e-05 0.000792811702547)
(-9.86875910899e-06 9.55099475189e-05 0.00079115684473)
(-1.9556032952e-05 9.34232849613e-05 0.000786210821651)
(-2.88362435429e-05 8.99942428585e-05 0.000777992492428)
(-3.75322677237e-05 8.52858460847e-05 0.000766523618211)
(-4.54056374639e-05 7.94303235617e-05 0.000751806181927)
(-5.24764545145e-05 7.23969775563e-05 0.000733775555151)
(-5.78112725212e-05 6.49826134716e-05 0.000712165475439)
(6.46352361115e-05 7.24488378517e-05 0.000810503431637)
(5.84725605576e-05 8.02500599663e-05 0.000832595590627)
(5.04832691396e-05 8.76249985216e-05 0.000850643689323)
(4.16343212705e-05 9.37361288774e-05 0.000865152742289)
(3.19412679323e-05 9.86311978512e-05 0.00087633275533)
(2.16497642213e-05 0.000102187317887 0.000884280097516)
(1.09452359822e-05 0.000104348335371 0.000889037066405)
(2.96631041567e-08 0.000105074139149 0.000890622007233)
(-1.08864824984e-05 0.000104350749696 0.000889033892039)
(-2.1592720315e-05 0.000102191969195 0.00088427373861)
(-3.1887040537e-05 9.86376864725e-05 0.000876322820887)
(-4.15838892754e-05 9.37439313402e-05 0.000865138632628)
(-5.04375971829e-05 8.76334494229e-05 0.000850625444486)
(-5.84317666539e-05 8.02600389783e-05 0.000832581384174)
(-6.46040182017e-05 7.24597843856e-05 0.00081052885569)
(6.96910145514e-05 7.79451814959e-05 0.000893846827802)
(6.28181514672e-05 8.58063101775e-05 0.000915573192979)
(5.40944497315e-05 9.32129008535e-05 0.000932928756082)
(4.44944871335e-05 9.93195102771e-05 0.000946639253545)
(3.40675882736e-05 0.000104189534644 0.000957062707417)
(2.3056311315e-05 0.000107717608372 0.000964400589262)
(1.16459198522e-05 0.000109857541997 0.000968764444101)
(3.21757870415e-08 0.000110575697608 0.000970212745204)
(-1.15821761419e-05 0.000109860322463 0.000968760116689)
(-2.2994381764e-05 0.000107722981854 0.00096439180071)
(-3.40086334932e-05 0.000104197094948 0.000957048742393)
(-4.44395061419e-05 9.93286977457e-05 0.000946618873934)
(-5.40443040923e-05 9.32230179953e-05 0.000932900888331)
(-6.27729408375e-05 8.58181640548e-05 0.000915545268174)
(-6.96554874788e-05 7.7958164301e-05 0.000893855064587)
(7.31807634667e-05 8.16628756006e-05 0.000964268435025)
(6.57203840471e-05 8.9308096295e-05 0.000985036193994)
(5.64378289446e-05 9.64854031223e-05 0.00100119722133)
(4.62967520683e-05 0.00010237093312 0.00101369648812)
(3.53759102966e-05 0.000107042713583 0.00102304180205)
(2.39058585107e-05 0.000110417925739 0.00102954059417)
(1.20644592675e-05 0.000112461456109 0.00103337390348)
(3.43533240933e-08 0.000113146835616 0.0010346400179)
(-1.19963888771e-05 0.000112464708317 0.00103336845728)
(-2.38396833245e-05 0.000110424237633 0.00102952940678)
(-3.53128292496e-05 0.000107051669899 0.00102302375814)
(-4.62377753408e-05 0.000102381936691 0.00101366958691)
(-5.63837073806e-05 9.6497708234e-05 0.00100115917201)
(-6.56712131875e-05 8.93223911681e-05 0.000984993999731)
(-7.31412958397e-05 8.16784123279e-05 0.000964259198414)
(7.52730211455e-05 8.37945846423e-05 0.00102360034971)
(6.73426614528e-05 9.09938264155e-05 0.0010429906015)
(5.76646451836e-05 9.77239227514e-05 0.00105761907924)
(4.71743071193e-05 0.000103210727179 0.00106864169737)
(3.59738787573e-05 0.000107545250098 0.00107671010267)
(2.42742583973e-05 0.000110669101359 0.00108223227141)
(1.2240118179e-05 0.0001125575263 0.00108545457132)
(3.63754794473e-08 0.00011319067312 0.00108651224607)
(-1.21680248591e-05 0.000112561362278 0.00108544817592)
(-2.42041223211e-05 0.000110676579863 0.00108221900567)
(-3.59069273436e-05 0.00010755594704 0.00107668841316)
(-4.71115635999e-05 0.000103224003075 0.00106860876389)
(-5.76067710278e-05 9.77389687544e-05 0.00105757141431)
(-6.72897912551e-05 9.10111564845e-05 0.00104293528651)
(-7.52299125474e-05 8.38132389326e-05 0.00102357548848)
(7.61249044598e-05 8.45199053927e-05 0.00107343680456)
(6.78365117647e-05 9.10822987739e-05 0.00109117147102)
(5.79157172297e-05 9.71844963046e-05 0.0011040646386)
(4.72518464011e-05 0.00010212912554 0.00111346911663)
(3.59624818132e-05 0.000106017970366 0.00112016657449)
(2.42326157543e-05 0.000108815491935 0.00112465363501)
(1.22096516092e-05 0.00011050487092 0.00112723347501)
(3.84033276218e-08 0.000111071333947 0.00112807307629)
(-1.2133516406e-05 0.00011050938274 0.00112722648812)
(-2.4158479335e-05 0.000108824326304 0.00112463901941)
(-3.58915977435e-05 0.000106030702216 0.00112014235856)
(-4.71852614847e-05 0.000102145074377 0.00111343168285)
(-5.78540478525e-05 9.72027777972e-05 0.00110400941585)
(-6.77799967051e-05 9.11032125362e-05 0.00109110622272)
(-7.60783290971e-05 8.45422195191e-05 0.00107340051006)
(7.58825071247e-05 8.4006933896e-05 0.00111514914529)
(6.73424063801e-05 8.97726617544e-05 0.00113105928736)
(5.73228290671e-05 9.5097607014e-05 0.00114212710965)
(4.6646898863e-05 9.93870883204e-05 0.00114988023962)
(3.54368308125e-05 0.000102749551223 0.00115520639742)
(2.38475621428e-05 0.000105166731184 0.00115867129028)
(1.20073523813e-05 0.000106625976978 0.0011606216714)
(4.05740322676e-08 0.000107115603676 0.00116124867659)
(-1.1926880467e-05 0.000106631210039 0.00116061471621)
(-2.37691071647e-05 0.000105177022627 0.00115865663298)
(-3.53616711871e-05 0.000102764489784 0.00115518175282)
(-4.65761284862e-05 9.9405969471e-05 0.00114984130432)
(-5.72570815762e-05 9.51194677265e-05 0.00114206837937)
(-6.72820982819e-05 8.97975703149e-05 0.00113098980818)
(-7.58324650505e-05 8.40333265259e-05 0.00111510848367)
(7.46800275374e-05 8.2412412328e-05 0.0011498703565)
(6.59913664492e-05 8.72424799446e-05 0.00116386516338)
(5.60118975323e-05 9.16680974339e-05 0.00117311665611)
(4.54720193951e-05 9.52188846703e-05 0.00117928768416)
(3.44868368702e-05 9.80000716933e-05 0.00118333295183)
(2.31811019385e-05 0.000100001149956 0.00118585827054)
(1.1664789216e-05 0.000101209759384 0.00118723560003)
(4.2992030262e-08 0.000101615811518 0.00118767026956)
(-1.15794746388e-05 0.00010121568735 0.00118722965443)
(-2.30977948671e-05 0.000100012853324 0.00118584566121)
(-3.44068419532e-05 9.80171840009e-05 0.00118331131358)
(-4.53965061116e-05 9.52407127019e-05 0.00117925226036)
(-5.59415956792e-05 9.1693624737e-05 0.00117306110608)
(-6.59269490823e-05 8.72715402088e-05 0.00116380016433)
(-7.46263165557e-05 8.24430969599e-05 0.00114983589497)
(7.2637014715e-05 7.98671625391e-05 0.00117843908643)
(6.3913401722e-05 8.36397779463e-05 0.00119048468733)
(5.41109801861e-05 8.70795314329e-05 0.00119803221726)
(4.38374502687e-05 8.98406122404e-05 0.00120280059457)
(3.31964481761e-05 9.20096237302e-05 0.00120575231595)
(2.22890480245e-05 9.35730770257e-05 0.00120749434218)
(1.12097828754e-05 9.45178166416e-05 0.00120840065407)
(4.57186185718e-08 9.48357763516e-05 0.0012086787529)
(-1.11190024046e-05 9.45243106744e-05 0.00120839710768)
(-2.22002386851e-05 9.35859509854e-05 0.00120748679425)
(-3.31109346764e-05 9.20285876911e-05 0.00120573876175)
(-4.3756511527e-05 8.98650517096e-05 0.00120277630294)
(-5.40355319118e-05 8.7108437242e-05 0.0011979899925)
(-6.38444590484e-05 8.36727876416e-05 0.00119043621762)
(-7.25793719608e-05 7.99019168596e-05 0.00117842422346)
(6.989688505e-05 7.64662043769e-05 0.00120128349514)
(6.12777947472e-05 7.91305496677e-05 0.00121143449489)
(5.17625883436e-05 8.15247660356e-05 0.00121753017)
(4.18461144384e-05 8.34789046012e-05 0.00122120608722)
(3.16360055684e-05 8.50186898382e-05 0.00122336063016)
(2.1215264678e-05 8.61276960262e-05 0.00122455614648)
(1.06635586912e-05 8.67967114287e-05 0.00122514258508)
(4.87517988113e-08 8.70222970917e-05 0.00122531643205)
(-1.05666900128e-05 8.68035323231e-05 0.00122514316101)
(-2.11203122002e-05 8.61412723313e-05 0.00122455745119)
(-3.1544304789e-05 8.5038833913e-05 0.00122336176575)
(-4.17590720174e-05 8.3505168029e-05 0.00122120344248)
(-5.16813912609e-05 8.15563027178e-05 0.00121751603558)
(-6.12038944239e-05 7.91668613563e-05 0.00121141875383)
(-6.98348410719e-05 7.65045640811e-05 0.00120130268219)
(6.66769651521e-05 7.27055246542e-05 0.00121823408951)
(5.82960274796e-05 7.37394743283e-05 0.00122687650809)
(4.90461749286e-05 7.51400097787e-05 0.00123194020109)
(3.95433133682e-05 7.62794617961e-05 0.00123497694282)
(2.98320463274e-05 7.71687921323e-05 0.00123674372533)
(1.99762901841e-05 7.78018577382e-05 0.00123771031176)
(1.00344162881e-05 7.81810345487e-05 0.00123817649518)
(5.20236268542e-08 7.83093055153e-05 0.0012383144294)
(-9.93098538285e-06 7.81877434091e-05 0.00123818260333)
(-1.98747211118e-05 7.78152589971e-05 0.00123772362388)
(-2.97336618562e-05 7.71888123153e-05 0.0012367653237)
(-3.94496054424e-05 7.63058901855e-05 0.00123500631138)
(-4.89586466527e-05 7.51722908301e-05 0.00123197061897)
(-5.82170291634e-05 7.37775059191e-05 0.00122692182378)
(-6.66095695508e-05 7.27459277241e-05 0.00121828587145)
(1.4306974549e-07 2.68043436089e-07 7.49036388966e-05)
(5.34411985673e-08 3.63731959016e-07 7.82920342787e-05)
(3.54760380172e-09 4.13598789929e-07 8.11687303049e-05)
(-2.89237787912e-08 4.41168006369e-07 8.35552028241e-05)
(-4.24669747539e-08 4.53102755801e-07 8.54442496403e-05)
(-3.86935825268e-08 4.56166827902e-07 8.68146501954e-05)
(-2.20147751325e-08 4.5577746173e-07 8.76475908222e-05)
(1.73003902243e-09 4.55392406495e-07 8.79295662136e-05)
(2.55404451502e-08 4.56133760469e-07 8.76476569132e-05)
(4.24176042974e-08 4.56877996637e-07 8.68148339371e-05)
(4.64336877789e-08 4.54129206064e-07 8.54446647704e-05)
(3.29062848738e-08 4.42416420942e-07 8.3556116015e-05)
(4.64508228151e-11 4.1500989818e-07 8.1170883995e-05)
(-5.04283524704e-08 3.65172679594e-07 7.82980706524e-05)
(-1.41228809051e-07 2.69460553875e-07 7.49224597519e-05)
(1.47482195398e-06 1.88784772433e-06 0.000220967200837)
(1.19318740634e-06 2.3425628926e-06 0.000230637611294)
(9.60174201943e-07 2.69416832393e-06 0.000238806674839)
(7.40233882676e-07 2.96973103789e-06 0.000245546985592)
(5.35239290607e-07 3.17335182311e-06 0.000250858447342)
(3.47214817732e-07 3.31236135365e-06 0.00025470006898)
(1.72615885336e-07 3.39325549992e-06 0.000257029758791)
(5.73266893764e-09 3.42017215839e-06 0.00025781518221)
(-1.61026928237e-07 3.39426907988e-06 0.000257029894372)
(-3.35271838758e-07 3.31434756119e-06 0.000254700491271)
(-5.22915939536e-07 3.17617582344e-06 0.000250859508332)
(-7.28046596093e-07 2.97316451724e-06 0.00024554949512)
(-9.49143960836e-07 2.69804787019e-06 0.000238812846249)
(-1.18393328194e-06 2.34667893173e-06 0.000230655200212)
(-1.46895139993e-06 1.89203397807e-06 0.000221017556532)
(3.6577725748e-06 4.38635641688e-06 0.000363040240927)
(3.15937031709e-06 5.3139287446e-06 0.000378574101277)
(2.673718621e-06 6.09525229954e-06 0.000391633092546)
(2.16239653863e-06 6.74048746188e-06 0.000402359237177)
(1.63228679047e-06 7.24182032267e-06 0.00041077813056)
(1.0942209095e-06 7.59869148974e-06 0.000416849775388)
(5.52578672575e-07 7.81257231809e-06 0.000420523855811)
(1.00517947618e-08 7.88443128256e-06 0.000421759028865)
(-5.3235802437e-07 7.81415879551e-06 0.000420523836835)
(-1.07368355189e-06 7.6017641579e-06 0.000416849970187)
(-1.61149384021e-06 7.24613264019e-06 0.000410779095466)
(-2.14204021211e-06 6.74568686183e-06 0.000402362241419)
(-2.65520669146e-06 6.10108658846e-06 0.000391641497558)
(-3.1437634671e-06 5.32035219819e-06 0.000378599410915)
(-3.64751366524e-06 4.39315427769e-06 0.00036311329655)
(6.39998234256e-06 7.44439940325e-06 0.000500471853142)
(5.65988195226e-06 8.89122567767e-06 0.000521325928868)
(4.87343586843e-06 1.01498195957e-05 0.000538750394554)
(4.00016691526e-06 1.12113331919e-05 0.000552983385997)
(3.05714225918e-06 1.20513227907e-05 0.000564100562287)
(2.06765633796e-06 1.2657677588e-05 0.000572088730414)
(1.04824748586e-06 1.30244491105e-05 0.000576909549074)
(1.44984932963e-08 1.31479939186e-05 0.000578526082322)
(-1.01918765719e-06 1.3026539756e-05 0.000576908965322)
(-2.03845773484e-06 1.26617204887e-05 0.000572087846791)
(-3.028010521e-06 1.20570066697e-05 0.000564100072462)
(-3.97193255211e-06 1.12182426312e-05 0.000552984858272)
(-4.84771263641e-06 1.01576088551e-05 0.0005387578779)
(-5.63806101123e-06 8.90001649938e-06 0.000521353173285)
(-6.38508837099e-06 7.45390996117e-06 0.000500555678448)
(9.43226832274e-06 1.07664526732e-05 0.000632354344222)
(8.43266398964e-06 1.27244452798e-05 0.000657840794708)
(7.31962088145e-06 1.44467682885e-05 0.000678968011231)
(6.04643046334e-06 1.59139070692e-05 0.000696105972628)
(4.64475500959e-06 1.70842363558e-05 0.000709410750527)
(3.15253472695e-06 1.79340381329e-05 0.00071892589988)
(1.60051408749e-06 1.84499858411e-05 0.000724648932417)
(1.89298041586e-08 1.86239211161e-05 0.000726563015793)
(-1.56267357669e-06 1.84525310508e-05 0.000724647394924)
(-3.11481209805e-06 1.79389729102e-05 0.00071892312516)
(-4.60752679495e-06 1.70912235403e-05 0.00070940746661)
(-6.01064787196e-06 1.59225013488e-05 0.000696103817983)
(-7.28698954803e-06 1.44565449804e-05 0.000678971203981)
(-8.40474644026e-06 1.27356056041e-05 0.000657864308019)
(-9.41252379458e-06 1.07786806946e-05 0.000632438842493)
(1.25570123021e-05 1.4141198997e-05 0.000757728817314)
(1.12875170219e-05 1.65643622047e-05 0.000787036765812)
(9.83857284472e-06 1.8696488826e-05 0.000811093377025)
(8.15204528238e-06 2.05209286119e-05 0.000830441235036)
(6.27702061289e-06 2.19810520527e-05 0.000845349764518)
(4.26700396516e-06 2.3043769267e-05 0.000855949873395)
(2.16744082075e-06 2.36898971809e-05 0.000862299232202)
(2.32381550192e-08 2.39077466453e-05 0.000864416866592)
(-2.12107761275e-06 2.36928583087e-05 0.000862296451511)
(-4.22104593111e-06 2.30495314409e-05 0.000855944609903)
(-6.23201794516e-06 2.19892744131e-05 0.000845342657189)
(-8.10904637915e-06 2.05311511192e-05 0.00083043373067)
(-9.79931329932e-06 1.87082306811e-05 0.000811089375077)
(-1.12536018474e-05 1.65778518397e-05 0.000787051924439)
(-1.25322312265e-05 1.41560493815e-05 0.000757806889296)
(1.56134263413e-05 1.74006016088e-05 0.000875743250112)
(1.40711406378e-05 2.02136942424e-05 0.000907983515619)
(1.22906014371e-05 2.26731474536e-05 0.00093413504975)
(1.01977635922e-05 2.47802352123e-05 0.000954953634668)
(7.86009770727e-06 2.64674210571e-05 0.000970853015639)
(5.34637600716e-06 2.7695822179e-05 0.000982078582387)
(2.7160055094e-06 2.84427969675e-05 0.000988769408882)
(2.73504013789e-08 2.86945970555e-05 0.000990994017792)
(-2.66151143159e-06 2.84461423859e-05 0.000988765264656)
(-5.29256798686e-06 2.77023563225e-05 0.000982070590454)
(-7.80768566188e-06 2.647681114e-05 0.000970841610298)
(-1.0147872381e-05 2.47920182509e-05 0.000954939823023)
(-1.22449511878e-05 2.26867903582e-05 0.00093412203063)
(-1.40313325999e-05 2.02294442379e-05 0.000907987373579)
(-1.55834473609e-05 1.7417922077e-05 0.000875810655462)
(1.84691699919e-05 2.04084082263e-05 0.000985734743872)
(1.66587756126e-05 2.35143086696e-05 0.00101999076408)
(1.45626919901e-05 2.61998172025e-05 0.00104739482221)
(1.20879164305e-05 2.8497984314e-05 0.00106895300764)
(9.3193208523e-06 3.03356550036e-05 0.00108524748059)
(6.3395442918e-06 3.16723174722e-05 0.00109665767364)
(3.22025041958e-06 3.24845984001e-05 0.00110341914253)
(3.12305296856e-08 3.27583107602e-05 0.00110565951688)
(-3.15808213725e-06 3.24882966807e-05 0.00110341391753)
(-6.27831610821e-06 3.16795662802e-05 0.00109664743029)
(-9.25987806007e-06 3.03461369119e-05 0.00108523231358)
(-1.20314436458e-05 2.85112411845e-05 0.00106893324252)
(-1.45108590301e-05 2.62152726975e-05 0.00104737263764)
(-1.66131715053e-05 2.35322061166e-05 0.00101998270122)
(-1.84339073441e-05 2.04280561668e-05 0.00098579020962)
(2.10194538883e-05 2.30584757638e-05 0.00108725582465)
(1.89528851476e-05 2.63451578031e-05 0.00112262900495)
(1.65673036958e-05 2.91453986593e-05 0.0011504840758)
(1.37491748026e-05 3.1534499912e-05 0.00117210631212)
(1.05980319054e-05 3.34395700652e-05 0.0011882588217)
(7.20805253795e-06 3.48225788765e-05 0.00119946356909)
(3.66075245564e-06 3.56620142498e-05 0.00120605907214)
(3.48601918467e-08 3.59447449502e-05 0.00120823619214)
(-3.5913964916e-06 3.56660199383e-05 0.00120605341771)
(-7.13984617371e-06 3.4830458633e-05 0.00119945231796)
(-1.05319275355e-05 3.34510338219e-05 0.00118824162084)
(-1.36864021782e-05 3.15491022827e-05 0.00117208260678)
(-1.65094751632e-05 2.9162539262e-05 0.00115045479191)
(-1.89015731721e-05 2.63650512086e-05 0.00112261132882)
(-2.09788707465e-05 2.30802900365e-05 0.00108730146258)
(2.31855420024e-05 2.52726284544e-05 0.00118005734248)
(2.0881379485e-05 2.86195872457e-05 0.00121570138196)
(1.82405808504e-05 3.14204719568e-05 0.00124328733417)
(1.51287010205e-05 3.37987217567e-05 0.00126439397121)
(1.16558966282e-05 3.56876500004e-05 0.00127996109944)
(7.92479195388e-06 3.70552651606e-05 0.00129064761335)
(4.0239073232e-06 3.78840256714e-05 0.00129689121324)
(3.82320903105e-08 3.81630203032e-05 0.0012989438278)
(-3.94786212229e-06 3.78882753243e-05 0.00129688624496)
(-7.85005399111e-06 3.70636554008e-05 0.00129063756457)
(-1.1583496948e-05 3.56999306135e-05 0.00127994511528)
(-1.50599008522e-05 3.38144761497e-05 0.00126437047696)
(-1.81769377418e-05 3.14390986173e-05 0.00124325582514)
(-2.08244679159e-05 2.8641268874e-05 0.00121567995338)
(-2.31396315458e-05 2.52964064554e-05 0.00118009925554)
(2.49125487431e-05 2.69980823254e-05 0.00126403471118)
(2.23952949394e-05 3.0281889977e-05 0.0012991777339)
(1.95400115069e-05 3.29721755736e-05 0.00132588999646)
(1.61918593459e-05 3.52415995887e-05 0.00134603175249)
(1.24668584107e-05 3.70350937671e-05 0.00136069244961)
(8.47243460202e-06 3.83293436963e-05 0.00137064626769)
(4.30107069611e-06 3.91121402327e-05 0.00137641544694)
(4.13347253631e-08 3.93755309914e-05 0.00137830434955)
(-4.21885713372e-06 3.91165406586e-05 0.00137641282822)
(-8.39163271596e-06 3.83380663381e-05 0.00137064078554)
(-1.23885474461e-05 3.7047942568e-05 0.00136068278504)
(-1.61173208369e-05 3.5258212675e-05 0.00134601524897)
(-1.94707590336e-05 3.29919815527e-05 0.0013258645322)
(-2.23329257925e-05 3.03050613575e-05 0.00129916254301)
(-2.48613482044e-05 2.70235431392e-05 0.00126408372365)
(2.61659784886e-05 2.82033347918e-05 0.00133913586327)
(2.34655552636e-05 3.13022410222e-05 0.00137309795569)
(2.04416317452e-05 3.37779097946e-05 0.00139848432268)
(1.69197295862e-05 3.58488434524e-05 0.00141737473885)
(1.30169970485e-05 3.74756559173e-05 0.00143095399923)
(8.84182588325e-06 3.86451383885e-05 0.00144007486877)
(4.48768838781e-06 3.93509052201e-05 0.00144531967675)
(4.41436965868e-08 3.95882577742e-05 0.00144703069688)
(-4.39987776058e-06 3.93553325046e-05 0.00144532165969)
(-8.75548468514e-06 3.86539475979e-05 0.00144007858407)
(-1.29332255892e-05 3.7488725774e-05 0.00143095785856)
(-1.6839813142e-05 3.58658933836e-05 0.00141737507837)
(-2.03670480606e-05 3.37984468213e-05 0.00139847710531)
(-2.33979492199e-05 3.13264556832e-05 0.00137310342062)
(-2.61095745586e-05 2.82300792651e-05 0.00133920798558)
(2.69270739267e-05 2.88692180156e-05 0.00140521922846)
(2.40806437849e-05 3.1668963783e-05 0.0014374580438)
(2.0938786765e-05 3.38394166271e-05 0.00146127454812)
(1.73078057311e-05 3.56345025514e-05 0.00147882155259)
(1.33031345213e-05 3.70347746846e-05 0.00149130732334)
(9.03084508513e-06 3.8036937537e-05 0.00149961855747)
(4.5826581742e-06 3.86401159072e-05 0.00150436637186)
(4.66193048102e-08 3.88428589174e-05 0.00150591180357)
(-4.48991015688e-06 3.86444163991e-05 0.00150437572218)
(-8.93959095717e-06 3.8045533238e-05 0.0014996372549)
(-1.3214470974e-05 3.70476253785e-05 0.00149133397733)
(-1.7223005892e-05 3.5651448848e-05 0.00147885190416)
(-2.0859292004e-05 3.38600909085e-05 0.00146130220141)
(-2.40081610287e-05 3.16936354736e-05 0.0014375027813)
(-2.68657191698e-05 2.88966597319e-05 0.00140533394886)
(2.72059681991e-05 2.89882219194e-05 0.00146183823983)
(2.42571965955e-05 3.14229271793e-05 0.00149213465782)
(2.10482971984e-05 3.32002789375e-05 0.00151442340597)
(1.73672683078e-05 3.46518815482e-05 0.0015307425555)
(1.33325758811e-05 3.57742649034e-05 0.00154228642542)
(9.04375306771e-06 3.65728589401e-05 0.00154993279415)
(4.58789174194e-06 3.70517185336e-05 0.00155428611704)
(4.87082396104e-08 3.72125476557e-05 0.00155570371921)
(-4.49097249891e-06 3.70557297813e-05 0.00155430578881)
(-8.94834147558e-06 3.65809120697e-05 0.00154997277184)
(-1.3239747665e-05 3.57864025019e-05 0.00154234639954)
(-1.72782644274e-05 3.4668087925e-05 0.00153081896339)
(-2.09645050765e-05 3.32203931468e-05 0.00151450765215)
(-2.41803642407e-05 3.14473492352e-05 0.00149224172029)
(-2.7139936715e-05 2.9015790048e-05 0.00146201500858)
(2.70184467123e-05 2.89416858931e-05 0.00150803975745)
(2.40231552628e-05 3.07170031042e-05 0.00153713244051)
(2.07786691468e-05 3.19796123781e-05 0.00155810789149)
(1.71029172017e-05 3.299732853e-05 0.00157345924686)
(1.31088085537e-05 3.37712118161e-05 0.00158434149768)
(8.88276745336e-06 3.43158129778e-05 0.00159156670624)
(4.50442957875e-06 3.46399759988e-05 0.0015956894361)
(5.03622024314e-08 3.47486679821e-05 0.00159703740203)
(-4.40421425193e-06 3.46434733021e-05 0.00159572146882)
(-8.78407633474e-06 3.4322868533e-05 0.00159163239831)
(-1.30126927612e-05 3.37819387045e-05 0.00158444269074)
(-1.70105542797e-05 3.30118549038e-05 0.00157359562839)
(-2.0691349313e-05 3.1997984945e-05 0.00155827064096)
(-2.39428721416e-05 3.0739994143e-05 0.00153733913674)
(-2.69478333552e-05 2.89679970983e-05 0.00150827470677)
(-4.11119703224e-08 -6.82719509528e-08 5.22673574175e-05)
(-2.59231208129e-08 -9.17500619491e-08 5.45457569249e-05)
(-1.81690456207e-08 -1.07096066034e-07 5.63958645213e-05)
(-1.07860174677e-08 -1.19029044814e-07 5.78822518896e-05)
(-5.71750623629e-09 -1.27203707421e-07 5.9029211769e-05)
(-1.94862671602e-09 -1.32591068183e-07 5.98462968497e-05)
(4.63719439557e-10 -1.35577287082e-07 6.03375023397e-05)
(2.00509936359e-09 -1.36440455227e-07 6.0503653198e-05)
(3.46579981312e-09 -1.3529054126e-07 6.03385797783e-05)
(5.64585422018e-09 -1.32018471425e-07 5.98484942915e-05)
(9.10190679979e-09 -1.26335352065e-07 5.90326365279e-05)
(1.40012768216e-08 -1.17832430053e-07 5.78871971738e-05)
(2.11139488532e-08 -1.0579043108e-07 5.64030960473e-05)
(2.84025092605e-08 -9.03029415435e-08 5.45575534204e-05)
(4.29054066045e-08 -6.69706132791e-08 5.22907279809e-05)
(4.69957200931e-08 2.83760649831e-10 0.000161013017019)
(7.96104845789e-08 -2.15006410021e-08 0.000168142206196)
(8.79781047955e-08 -2.75850699995e-08 0.000173980418661)
(8.76447282624e-08 -2.7489142466e-08 0.000178683043263)
(7.67027841182e-08 -2.25406415645e-08 0.000182316808555)
(5.82637710997e-08 -1.66080550462e-08 0.000184907803141)
(3.38431852472e-08 -1.18879170411e-08 0.000186465277805)
(5.97926189953e-09 -9.85731797386e-09 0.000186989618865)
(-2.20790361774e-08 -1.10810883815e-08 0.000186468439317)
(-4.70595621427e-08 -1.49912441974e-08 0.000184914269203)
(-6.62773814132e-08 -2.00998426385e-08 0.000182326933288)
(-7.78622088596e-08 -2.42014046941e-08 0.0001786977377)
(-7.90478258356e-08 -2.39057014973e-08 0.000174001983413)
(-7.20237840595e-08 -1.74055003724e-08 0.000168177357033)
(-4.14491342647e-08 4.11253043218e-09 0.000161078569014)
(3.21651115025e-07 2.88681811342e-07 0.000272752802905)
(3.58922529427e-07 3.1680233727e-07 0.000284963193502)
(3.50631011291e-07 3.62414140778e-07 0.000295006264021)
(3.18933644015e-07 4.12342127891e-07 0.000303109303805)
(2.63336827421e-07 4.61507297283e-07 0.000309374466734)
(1.90000623082e-07 5.02047807025e-07 0.000313842740112)
(1.0353162373e-07 5.28840541795e-07 0.000316527708366)
(9.87662568585e-09 5.38584475496e-07 0.00031742927397)
(-8.40492652432e-08 5.3006375414e-07 0.000316532718407)
(-1.71300926439e-07 5.04507560667e-07 0.000313853021368)
(-2.45772585689e-07 4.6523582892e-07 0.00030939063428)
(-3.02509682913e-07 4.17332486992e-07 0.000303132842633)
(-3.35693618618e-07 3.68132644209e-07 0.000295040737168)
(-3.46098984168e-07 3.23168601776e-07 0.000285018718515)
(-3.12142079749e-07 2.94902319005e-07 0.00027285373884)
(8.20843072028e-07 8.35351778707e-07 0.000386671715058)
(8.50413471288e-07 9.65622489615e-07 0.00040407297116)
(8.06199902965e-07 1.11246712561e-06 0.000418417973635)
(7.15897410359e-07 1.25632620889e-06 0.000429999477203)
(5.81175119506e-07 1.38645304167e-06 0.00043895239417)
(4.12545882528e-07 1.48927143538e-06 0.000445334718567)
(2.19589664104e-07 1.55534204486e-06 0.000449167073276)
(1.36745060539e-08 1.57863781212e-06 0.000450451397828)
(-1.92568299393e-07 1.55697950479e-06 0.000449173545546)
(-3.86475486827e-07 1.49255604932e-06 0.000445348052197)
(-5.56541140747e-07 1.39140309471e-06 0.000438973455312)
(-6.92903090988e-07 1.26289245843e-06 0.000430030215176)
(-7.85357175607e-07 1.12011979301e-06 0.000418462819744)
(-8.32397892163e-07 9.74203142692e-07 0.000404144297621)
(-8.07235482173e-07 8.43989213518e-07 0.000386798859907)
(1.5202024169e-06 1.60739547655e-06 0.000501854655106)
(1.53037875467e-06 1.87925232988e-06 0.000524414213136)
(1.43267677879e-06 2.16529153029e-06 0.000543016938492)
(1.25947891278e-06 2.43648879268e-06 0.000558027806617)
(1.01505776039e-06 2.67514723303e-06 0.000569618633909)
(7.15415792642e-07 2.86081258597e-06 0.000577871642764)
(3.7668061781e-07 2.97886307015e-06 0.000582821517102)
(1.73909458403e-08 3.02000345482e-06 0.000584477554136)
(-3.42274951429e-07 2.98090831962e-06 0.000582829103786)
(-6.82108656032e-07 2.86489816254e-06 0.000577887324286)
(-9.83462582541e-07 2.68125887399e-06 0.000569643473796)
(-1.23000104386e-06 2.44453734624e-06 0.0005580640399)
(-1.40599599465e-06 2.1747756162e-06 0.000543069418374)
(-1.50722075067e-06 1.89000161797e-06 0.000524496775826)
(-1.50236393185e-06 1.61837108244e-06 0.000502000201934)
(2.38809120909e-06 2.56428197408e-06 0.000617291689825)