/*--------------------------------*- C++ -*----------------------------------*\
  =========                 |
  \\      /  F ield         | OpenFOAM: The Open Source CFD Toolbox
   \\    /   O peration     | Website:  https://openfoam.org
    \\  /    A nd           | Version:  7
     \\/     M anipulation  |
\*---------------------------------------------------------------------------*/
FoamFile
{
    version     2.0;
    format      ascii;
    class       volVectorField;
    location    "0.46";
    object      U;
}
// * * * * * * * * * * * * * * * * * * * * * * * * * * * * * * * * * * * * * //

dimensions      [0 1 -1 0 0 0 0];

internalField   nonuniform List<vector> 
22500
(
(3.28075698888e-06 3.6303306686e-06 3.77280719358e-05)
(3.10388999427e-06 4.07129865691e-06 3.9707299153e-05)
(2.76955703298e-06 4.53516859804e-06 4.15625818675e-05)
(2.36155741308e-06 4.94799183081e-06 4.31931482198e-05)
(1.85655670104e-06 5.30011249204e-06 4.45281906988e-05)
(1.28035640871e-06 5.56755900986e-06 4.55164171114e-05)
(6.52219001728e-07 5.73464611529e-06 4.61235525261e-05)
(-3.00416499825e-09 5.79135801377e-06 4.63293543145e-05)
(-6.58157574762e-07 5.73407375987e-06 4.61232733978e-05)
(-1.28609551482e-06 5.56644114818e-06 4.55158407819e-05)
(-1.86197467924e-06 5.29850601383e-06 4.45272780499e-05)
(-2.36656758236e-06 4.94596708816e-06 4.31918104157e-05)
(-2.7740394534e-06 4.5328303321e-06 4.15605798172e-05)
(-3.10803776086e-06 4.0685919511e-06 3.97037571558e-05)
(-3.28386764879e-06 3.62767086998e-06 3.77198081185e-05)
(9.54256897604e-06 1.057352379e-05 0.000103943340256)
(8.99442951527e-06 1.18439836802e-05 0.000108899208683)
(8.03765417553e-06 1.31646929421e-05 0.000113544571547)
(6.84461009552e-06 1.43459648671e-05 0.000117623414865)
(5.3818802217e-06 1.53522214255e-05 0.000120957597607)
(3.71119593543e-06 1.61165613414e-05 0.000123421923762)
(1.89042760132e-06 1.65943161866e-05 0.000124933955697)
(-8.6702991419e-09 1.67564425135e-05 0.000125445238518)
(-1.90757598455e-06 1.65927074506e-05 0.000124933068304)
(-3.72778774079e-06 1.61134221792e-05 0.00012342010206)
(-5.39757958661e-06 1.53477140591e-05 0.000120954731169)
(-6.85915615344e-06 1.43402987811e-05 0.000117619246621)
(-8.05075811486e-06 1.31581752259e-05 0.00011353840162)
(-9.00629271135e-06 1.18365741991e-05 0.000108888495454)
(-9.55150514562e-06 1.05661192976e-05 0.00010392065286)
(1.45366315222e-05 1.60753087611e-05 0.000161403024718)
(1.36289626383e-05 1.79300335216e-05 0.00016852744612)
(1.21579865936e-05 1.98417964508e-05 0.000175202617342)
(1.03292336751e-05 2.15503347869e-05 0.000181059937594)
(8.11039066322e-06 2.30017126603e-05 0.000185842686366)
(5.58653802416e-06 2.41026192496e-05 0.000189373882445)
(2.84345952116e-06 2.47901257005e-05 0.000191538378817)
(-1.39073333721e-08 2.50232653223e-05 0.000192269098907)
(-2.87097920829e-06 2.47876394115e-05 0.000191536869248)
(-5.61319868638e-06 2.40977700927e-05 0.000189370796863)
(-8.13567237576e-06 2.29947519311e-05 0.000185837860682)
(-1.03527184698e-05 2.15416019875e-05 0.000181052987522)
(-1.21792333487e-05 1.98317670626e-05 0.000175192519037)
(-1.36480513042e-05 1.79187397502e-05 0.000168510531809)
(-1.45511584823e-05 1.60638502843e-05 0.000161368828995)
(1.85131021204e-05 2.04273654481e-05 0.000211248544489)
(1.72717467747e-05 2.26757134978e-05 0.000219891506209)
(1.53732122949e-05 2.49801477781e-05 0.000227984498976)
(1.3029334079e-05 2.70348033321e-05 0.000235083373963)
(1.02141504735e-05 2.87757157266e-05 0.000240875592408)
(7.02710504531e-06 3.00940272145e-05 0.000245148655456)
(3.57357330871e-06 3.09163925478e-05 0.000247765833566)
(-1.87621051947e-08 3.11950059965e-05 0.000248648301919)
(-3.61071236699e-06 3.0913133935e-05 0.000247763717782)
(-7.06311801168e-06 3.00876745264e-05 0.000245144353379)
(-1.02483514823e-05 2.87665996221e-05 0.000240868917249)
(-1.30611581182e-05 2.70233829129e-05 0.000235073885115)
(-1.54020842214e-05 2.49670528709e-05 0.000227971037955)
(-1.72975929345e-05 2.26610518706e-05 0.000219869862603)
(-1.85330798386e-05 2.04123547546e-05 0.000211206656858)
(2.16422741076e-05 2.38339842014e-05 0.000254411917888)
(2.00991667071e-05 2.6323759817e-05 0.000264044935927)
(1.78452121776e-05 2.88647824681e-05 0.000273060114874)
(1.50871679806e-05 3.11245736956e-05 0.000280967698434)
(1.18072955291e-05 3.30342577018e-05 0.000287417112301)
(8.11280000697e-06 3.44778696714e-05 0.000292172351285)
(4.12189182808e-06 3.53773097719e-05 0.000295083096379)
(-2.33103121718e-08 3.56817192288e-05 0.000296063622165)
(-4.1680465524e-06 3.53733637729e-05 0.000295080359363)
(-8.15758868509e-06 3.44701784135e-05 0.000292166823899)
(-1.18498804168e-05 3.30232213492e-05 0.000287408630984)
(-1.51268439862e-05 3.11107567689e-05 0.000280955862224)
(-1.78812914357e-05 2.88489510621e-05 0.000273043835361)
(-2.01314307827e-05 2.63060858024e-05 0.000264019850986)
(-2.16676344175e-05 2.38157669836e-05 0.000254365219529)
(2.40207724774e-05 2.64063976718e-05 0.000291679829305)
(2.22106348078e-05 2.9007462621e-05 0.000301872514779)
(1.96660626267e-05 3.16531941663e-05 0.000311409229641)
(1.65838098118e-05 3.40001218195e-05 0.000319777528915)
(1.29548835513e-05 3.59778371128e-05 0.000326602285026)
(8.88914323699e-06 3.74701712607e-05 0.000331632722412)
(4.51181302108e-06 3.83987362594e-05 0.000334710595374)
(-2.76273852075e-08 3.87126368172e-05 0.000335746629411)
(-4.56652941693e-06 3.83941761574e-05 0.000334707177296)
(-8.94227699658e-06 3.74612817965e-05 0.00033162587506)
(-1.30054576088e-05 3.5965076045e-05 0.000326591923825)
(-1.66309870367e-05 3.39841437078e-05 0.000319763399391)
(-1.97090637477e-05 3.16348767907e-05 0.000311390498236)
(-2.22491205834e-05 2.89870377041e-05 0.000301844874582)
(-2.40514986866e-05 2.63852307813e-05 0.000291629964544)
(2.57301498917e-05 2.82354631491e-05 0.000323726763637)
(2.36888559202e-05 3.08373760929e-05 0.000334129801609)
(2.09130868627e-05 3.34767516841e-05 0.000343866361118)
(1.75874027336e-05 3.58120796445e-05 0.000352417814956)
(1.37116869592e-05 3.77739296469e-05 0.000359394137137)
(9.39448760249e-06 3.92514219812e-05 0.000364535978973)
(4.76305201162e-06 4.01694091123e-05 0.000367681153045)
(-3.17801360743e-08 4.04793191988e-05 0.000368739151595)
(-4.82600908147e-06 4.01642997927e-05 0.000367676940578)
(-9.45566773082e-06 3.92414565821e-05 0.000364527611279)
(-1.37699857643e-05 3.77596088942e-05 0.00035938166771)
(-1.76418604774e-05 3.5794131274e-05 0.000352401240681)
(-2.09628489236e-05 3.34561416396e-05 0.000343845251998)
(-2.37334806868e-05 3.08143955366e-05 0.00033409996968)
(-2.57662803419e-05 2.82115479332e-05 0.000323674418215)
(2.68496397798e-05 2.94096843141e-05 0.000351137260355)
(2.46127845444e-05 3.19214076906e-05 0.000361469601138)
(2.16599508735e-05 3.44630556665e-05 0.00037115097073)
(1.81626652791e-05 3.67058122285e-05 0.000379667094933)
(1.41296774575e-05 3.85833683238e-05 0.000386619355836)
(9.66520090215e-06 3.99943637128e-05 0.000391744203572)
(4.89429724579e-06 4.08696106498e-05 0.000394878468103)
(-3.58253777164e-08 4.11646300433e-05 0.000395932144234)
(-4.96528828484e-06 4.08640151224e-05 0.000394873281055)
(-9.73424472454e-06 3.99834383319e-05 0.000391733979408)
(-1.41955550484e-05 3.85676401476e-05 0.000386604341425)
(-1.82243032252e-05 3.66860614733e-05 0.000379647631718)
(-2.1716429803e-05 3.44403147423e-05 0.000371127141468)
(-2.46635596444e-05 3.189602436e-05 0.000361437299996)
(-2.68912578788e-05 2.93831805888e-05 0.000351082232506)
(2.74537991851e-05 3.00127857384e-05 0.000374424346483)
(2.50555186495e-05 3.23611896853e-05 0.000384464010104)
(2.19744261069e-05 3.47314002628e-05 0.00039389246997)
(1.83689413559e-05 3.68162170294e-05 0.000402204599858)
(1.42564623125e-05 3.85546265135e-05 0.000408996802016)
(9.73457646746e-06 3.98579182216e-05 0.000414004772342)
(4.92265398079e-06 4.06648810457e-05 0.000417067062484)
(-3.9809128275e-08 4.09363772034e-05 0.000418095823789)
(-5.00156589593e-06 4.06588679391e-05 0.000417060636763)
(-9.8113987721e-06 3.98461582227e-05 0.000413992181434)
(-1.43298756153e-05 3.85376525516e-05 0.000408978529886)
(-1.84377668965e-05 3.67948371835e-05 0.000402181407032)
(-2.20376814951e-05 3.47066889021e-05 0.000393865025974)
(-2.51125399361e-05 3.23335462544e-05 0.00038442818852)
(-2.75010342226e-05 2.998383117e-05 0.000374365501128)
(2.76118272497e-05 3.01229806409e-05 0.000394046667177)
(2.50838296465e-05 3.22507742655e-05 0.00040362519261)
(2.19179419571e-05 3.43909943729e-05 0.000412653557498)
(1.82599026729e-05 3.62658082938e-05 0.000420634868858)
(1.41350939515e-05 3.78219274013e-05 0.000427162617746)
(9.63271682533e-06 3.89853745578e-05 0.000431975627398)
(4.86359032448e-06 3.97042609643e-05 0.000434917616676)
(-4.37639362695e-08 3.99455756902e-05 0.0004359050273)
(-4.95037694266e-06 3.96979144152e-05 0.000434909585576)
(-9.71730481185e-06 3.89729345743e-05 0.00043195994198)
(-1.42160796414e-05 3.7803907823e-05 0.000427140021711)
(-1.83360099201e-05 3.62430137851e-05 0.000420606591628)
(-2.19881192337e-05 3.43645113767e-05 0.000412620904004)
(-2.51472666907e-05 3.22210397698e-05 0.000403583871802)
(-2.76648625158e-05 3.0091718304e-05 0.000393981795668)
(2.73881126804e-05 2.98141705489e-05 0.00041042645188)
(2.47587498812e-05 3.16770779298e-05 0.000419427708586)
(2.1546335494e-05 3.35409591333e-05 0.000427954752897)
(1.78843580776e-05 3.51648776235e-05 0.000435512416427)
(1.38047487778e-05 3.65057373705e-05 0.000441694212728)
(9.38699838218e-06 3.75051616121e-05 0.00044624859344)
(4.73117148514e-06 3.81212321855e-05 0.000449029884544)
(-4.77042852776e-08 3.83274430448e-05 0.000449962003368)
(-4.82581731283e-06 3.81146625456e-05 0.000449019763483)
(-9.47937499738e-06 3.74922470257e-05 0.000446228829217)
(-1.38933875069e-05 3.64869436617e-05 0.000441665796074)
(-1.79678931101e-05 3.51409660685e-05 0.000435477061991)
(-2.16236344341e-05 3.3512989554e-05 0.000427914442588)
(-2.48288269272e-05 3.16454976845e-05 0.000419377832537)
(-2.74471944249e-05 2.97807972046e-05 0.000410352063145)
(2.6841989422e-05 2.91565421003e-05 0.000423971210484)
(2.41359967533e-05 3.07189722824e-05 0.000432336327442)
(2.09110177394e-05 3.22692075537e-05 0.000440303391744)
(1.72874559926e-05 3.36110227826e-05 0.000447368618744)
(1.3301607341e-05 3.47128412942e-05 0.000453134733151)
(9.02261192013e-06 3.55312361811e-05 0.00045737223082)
(4.53831689496e-06 3.6034255504e-05 0.000459954729576)
(-5.16210452509e-08 3.62019858371e-05 0.00046081821365)
(-4.64078885463e-06 3.60276081863e-05 0.000459941915082)
(-9.12278493847e-06 3.55181236809e-05 0.000457347132678)
(-1.33979693486e-05 3.46936491658e-05 0.000453098516407)
(-1.73785609996e-05 3.3586419992e-05 0.000447323443028)
(-2.09956370811e-05 3.22401743984e-05 0.000440251983605)
(-2.42129428647e-05 3.06859313852e-05 0.000432273704105)
(-2.69074109688e-05 2.91213782248e-05 0.0004238824033)
(2.60260674025e-05 2.82116576907e-05 0.000435103576562)
(2.3268164416e-05 2.94423321162e-05 0.000442845473559)
(2.00619368994e-05 3.06504078814e-05 0.000450230113691)
(1.65126836793e-05 3.1688732431e-05 0.000456741331483)
(1.26599500826e-05 3.25367011546e-05 0.000462017961965)
(8.56314472088e-06 3.31636968697e-05 0.000465874456714)
(4.29706635012e-06 3.3547497494e-05 0.000468215862577)
(-5.5476562201e-08 3.36747537521e-05 0.00046899586427)
(-4.40725330861e-06 3.35409567419e-05 0.000468199667078)
(-8.67103924559e-06 3.31507430867e-05 0.000465842553768)
(-1.27640205631e-05 3.25176113378e-05 0.000461971515982)
(-1.66114163817e-05 3.16640265692e-05 0.000456682778094)
(-2.01539897286e-05 3.0620916207e-05 0.000450163031272)
(-2.33521223612e-05 2.94083934344e-05 0.000442764896702)
(-2.60980199615e-05 2.81752747887e-05 0.000434994694732)
(2.49962882838e-05 2.70242562654e-05 0.000444305480264)
(2.2217846595e-05 2.79065439698e-05 0.000451540164583)
(1.905378507e-05 2.87481276806e-05 0.000458331323996)
(1.56033693922e-05 2.94730899417e-05 0.000464202050345)
(1.19124919577e-05 3.00603699223e-05 0.000468889784098)
(8.03071241683e-06 3.04911332265e-05 0.000472282876104)
(4.01866854483e-06 3.07529478235e-05 0.000474330349956)
(-5.92011772985e-08 3.08389122505e-05 0.000475008605457)
(-4.13631557428e-06 3.0746722643e-05 0.000474310112131)
(-8.14609495232e-06 3.0478751959e-05 0.000472242697734)
(-1.20240795472e-05 3.00419852308e-05 0.000468830500381)
(-1.57095994629e-05 2.94490210111e-05 0.000464125885313)
(-1.91531987603e-05 2.87189546048e-05 0.000458242600073)
(-2.23087915477e-05 2.7872450727e-05 0.000451435346654)
(-2.50750020943e-05 2.69872157871e-05 0.00044417140306)
(2.38331971457e-05 2.57475046462e-05 0.000452223703919)
(2.10678750525e-05 2.61016200805e-05 0.000459217128488)
(1.79304382613e-05 2.6584776202e-05 0.000465299200448)
(1.45940775916e-05 2.69936258969e-05 0.000470364987553)
(1.10859133861e-05 2.73183578285e-05 0.000474317451717)
(7.44418221153e-06 2.75523185085e-05 0.000477138361046)
(3.71304259727e-06 2.76925246684e-05 0.000478825571645)
(-6.26995848732e-08 2.77375613347e-05 0.000479379770882)
(-3.83769767163e-06 2.76869103822e-05 0.000478801030405)
(-7.56660506392e-06 2.75411062418e-05 0.000477089244856)
(-1.12045902682e-05 2.7301582455e-05 0.00047424386566)
(-1.47074300038e-05 2.69713905684e-05 0.000470268009215)
(-1.80369126533e-05 2.65573740127e-05 0.00046518317245)
(-2.11653042595e-05 2.60687389587e-05 0.000459077056682)
(-2.391915288e-05 2.57112676485e-05 0.000452068524368)
(4.79234957316e-08 6.2453496865e-08 3.46932881073e-05)
(4.39213524537e-08 7.67070053445e-08 3.65316759049e-05)
(4.49840276722e-08 8.74585211335e-08 3.82748372834e-05)
(4.2799200694e-08 9.88457461106e-08 3.98241666555e-05)
(3.65489555834e-08 1.09824607679e-07 4.11041889437e-05)
(2.64456916564e-08 1.18941855384e-07 4.20576942705e-05)
(1.34060031606e-08 1.24927279702e-07 4.26457695606e-05)
(-1.1708684057e-09 1.26945690088e-07 4.28452028219e-05)
(-1.57357440335e-08 1.24695147362e-07 4.2644404516e-05)
(-2.87392560171e-08 1.1848773687e-07 4.20549576851e-05)
(-3.87663601337e-08 1.09174882371e-07 4.11000603183e-05)
(-4.48678949168e-08 9.80427620821e-08 3.98185797544e-05)
(-4.67924794353e-08 8.65568805231e-08 3.82675816206e-05)
(-4.54546958565e-08 7.57517181974e-08 3.65219685639e-05)
(-4.8979390869e-08 6.15555128979e-08 3.46785121518e-05)
(2.98230292219e-07 3.47993517585e-07 9.89475240222e-05)
(2.82659222431e-07 4.17220721664e-07 0.000103884839874)
(2.72162089189e-07 4.82543794202e-07 0.000108580076776)
(2.4789554177e-07 5.47848970588e-07 0.000112761688359)
(2.05797126104e-07 6.07585254123e-07 0.00011622070178)
(1.46825080077e-07 6.5559018111e-07 0.000118799599015)
(7.49302920228e-08 6.86595978149e-07 0.000120390567196)
(-3.84479875973e-09 6.97118140761e-07 0.000120928992368)
(-8.25674138138e-08 6.859042592e-07 0.000120386297838)
(-1.54301791864e-07 6.54242590241e-07 0.000118791049128)
(-2.12972824871e-07 6.05662803158e-07 0.000116207821911)
(-2.54565092385e-07 5.45471081423e-07 0.000112744298657)
(-2.7803151667e-07 4.7986424254e-07 0.000108557577682)
(-2.87625994871e-07 4.1435771059e-07 0.000103854973442)
(-3.01768831535e-07 3.45222654909e-07 9.89041552636e-05)
(6.73747450936e-07 7.64027552762e-07 0.000157927873346)
(6.40485373872e-07 9.06946411817e-07 0.000165447646542)
(6.06194851914e-07 1.04852694804e-06 0.000172609554047)
(5.44053827028e-07 1.1877994489e-06 0.000178997364457)
(4.47004137444e-07 1.3132445553e-06 0.000184286445153)
(3.17046039718e-07 1.41295188363e-06 0.00018823236326)
(1.6188726879e-07 1.47696618671e-06 0.000190667119696)
(-6.75227045134e-09 1.49871622105e-06 0.000191490055789)
(-1.75286711837e-07 1.47584323446e-06 0.000190659828915)
(-3.30125450956e-07 1.41076953613e-06 0.000188217778105)
(-4.59510745665e-07 1.3101372724e-06 0.000184264511877)
(-5.55665233558e-07 1.18395760876e-06 0.000178967840976)
(-6.16472951403e-07 1.04418758507e-06 0.000172571591265)
(-6.49217721568e-07 9.02260976365e-07 0.000165397970639)
(-6.80137780765e-07 7.5939277327e-07 0.000157857787789)
(1.11062626623e-06 1.24078489588e-06 0.000211974845816)
(1.05348346748e-06 1.46170093666e-06 0.000221605386069)
(9.8709480917e-07 1.68391734106e-06 0.000230785208507)
(8.77810635343e-07 1.90094203394e-06 0.000238983373641)
(7.16365153565e-07 2.09486579825e-06 0.000245777459274)
(5.05962618528e-07 2.2480608751e-06 0.000250849169197)
(2.58100759805e-07 2.34605951621e-06 0.000253979093369)
(-9.83787596833e-09 2.37934930573e-06 0.000255036000604)
(-2.77610453173e-07 2.34453282387e-06 0.000253968710477)
(-5.24968561808e-07 2.24509362989e-06 0.000250828425244)
(-7.34493383665e-07 2.09063488254e-06 0.000245746333763)
(-8.94626373989e-07 1.89569438231e-06 0.000238941642708)
(-1.00204599465e-06 1.67796593452e-06 0.000230731964035)
(-1.06625705164e-06 1.45521977304e-06 0.000221536844582)
(-1.1202142022e-06 1.23428884932e-06 0.000211880843652)
(1.56844134599e-06 1.73455236891e-06 0.000261331965039)
(1.48203524361e-06 2.0302580701e-06 0.000272631921859)
(1.37806621181e-06 2.32843126028e-06 0.000283407125248)
(1.21665599765e-06 2.61824647042e-06 0.000293041145317)
(9.87396003576e-07 2.87576704721e-06 0.000301031597368)
(6.94810670533e-07 3.07829683055e-06 0.000306999414479)
(3.53853788976e-07 3.20749055955e-06 0.000310682826707)
(-1.30420621726e-08 3.25134285428e-06 0.000311925667908)
(-3.79707229623e-07 3.2055905908e-06 0.000310669268632)
(-7.19966605052e-07 3.07460014854e-06 0.000306972369819)
(-1.01135716748e-06 2.87048234694e-06 0.000300991132312)
(-1.23887940132e-06 2.61166580964e-06 0.000292987161509)
(-1.39790744715e-06 2.32093318606e-06 0.00028333886828)
(-1.49910306623e-06 2.02204159047e-06 0.000272545454342)
(-1.58155046118e-06 1.72624669175e-06 0.000261216298842)
(2.01993657454e-06 2.21698885481e-06 0.000306195265849)
(1.89977580393e-06 2.57970254471e-06 0.000318749497965)
(1.75464407466e-06 2.94381386645e-06 0.000330722019791)
(1.53907373479e-06 3.29622973376e-06 0.000341437866567)
(1.24262541157e-06 3.60783328549e-06 0.000350331948087)
(8.71235966556e-07 3.85192614456e-06 0.000356977405266)
(4.42763440351e-07 4.00722523542e-06 0.000361079336028)
(-1.63031562798e-08 4.05987734626e-06 0.000362462384331)
(-4.75075147866e-07 4.00499023159e-06 0.000361062485615)
(-9.02659459031e-07 3.84757150025e-06 0.000356943855023)
(-1.27254474872e-06 3.60158979642e-06 0.000350281916477)
(-1.56684531405e-06 3.28842406058e-06 0.000341371503797)
(-1.77954645288e-06 2.93487626921e-06 0.00033063893039)
(-1.92135957959e-06 2.56985549514e-06 0.000318645798943)
(-2.036859514e-06 2.20697815605e-06 0.000306059327948)
(2.44398588054e-06 2.66658690127e-06 0.000346737833924)
(2.28660259049e-06 3.08514467944e-06 0.000360157705227)
(2.09830053163e-06 3.5015905057e-06 0.000372955798455)
(1.82894573808e-06 3.90287684813e-06 0.000384422226523)
(1.46908867275e-06 4.25590470255e-06 0.000393945157005)
(1.02613873126e-06 4.53133369228e-06 0.000401062536334)
(5.20155682268e-07 4.7060918428e-06 0.000405455624691)
(-1.95599889052e-08 4.76525227634e-06 0.000406935704393)
(-5.58921834223e-07 4.70356954511e-06 0.000405435314155)
(-1.06384071482e-06 4.52641100331e-06 0.000401022177116)
(-1.50500238643e-06 4.24882480116e-06 0.000393885191812)
(-1.862337018e-06 3.89398908898e-06 0.000384343181611)
(-2.12838481624e-06 3.49136346478e-06 0.000372857819578)
(-2.3128804582e-06 3.07381525913e-06 0.000360037052674)
(-2.46498082636e-06 2.65502081895e-06 0.000346582277958)
(2.82448575497e-06 3.06720501164e-06 0.000383125177601)
(2.6275718848e-06 3.52807282488e-06 0.000397051319354)
(2.39551901615e-06 3.98110229058e-06 0.000410333316899)
(2.07476513669e-06 4.41536938665e-06 0.00042224547883)
(1.65771334566e-06 4.79526930729e-06 0.000432143251705)
(1.15325394331e-06 5.0903511961e-06 0.000439541494896)
(5.8285163577e-07 5.27701366605e-06 0.000444107054169)
(-2.27547206957e-08 5.34008630343e-06 0.000445643852664)
(-6.27956099511e-07 5.2742614913e-06 0.000444083046467)
(-1.19714237069e-06 5.0849692947e-06 0.00043949388372)
(-1.69956880537e-06 4.78750289663e-06 0.000432072774963)
(-2.11377507086e-06 4.40557720723e-06 0.000422153160943)
(-2.43084936927e-06 3.96977507784e-06 0.000410219998717)
(-2.65867393381e-06 3.51545325978e-06 0.000396913402864)
(-2.8497628765e-06 3.05426539102e-06 0.000382949877808)
(3.15002730619e-06 3.40766853065e-06 0.000415527026433)
(2.912493734e-06 3.89587822577e-06 0.000429634055072)
(2.63740061313e-06 4.36877051871e-06 0.000443093289035)
(2.26926656048e-06 4.81911901883e-06 0.00045517655878)
(1.80301290814e-06 5.2105050624e-06 0.000465218347663)
(1.24893315226e-06 5.51296446748e-06 0.000472722367482)
(6.29054690238e-07 5.70363564454e-06 0.000477350988272)
(-2.58326029489e-08 5.76791780165e-06 0.000478907210907)
(-6.80274529997e-07 5.70072117337e-06 0.000477322958759)
(-1.29881694528e-06 5.50725233154e-06 0.000472666879685)
(-1.85067010577e-06 5.20223078715e-06 0.000465136495404)
(-2.31382081002e-06 4.80863608721e-06 0.000455069972659)
(-2.67797921423e-06 4.35657216378e-06 0.000442963631136)
(-2.94849810334e-06 3.88220247891e-06 0.000429477798777)
(-3.17974866719e-06 3.39357052166e-06 0.000415330948586)
(3.41333392346e-06 3.68111797606e-06 0.000444128027442)
(3.13529485672e-06 4.18100656959e-06 0.000458131529812)
(2.81903709304e-06 4.65689060942e-06 0.000471502183029)
(2.40885635956e-06 5.10626271741e-06 0.000483515329524)
(1.90261679127e-06 5.49373949869e-06 0.00049349444708)
(1.31180859339e-06 5.79141014006e-06 0.000500944999925)
(6.58174802323e-07 5.97832269818e-06 0.000505536178524)
(-2.8742399974e-08 6.04116989659e-06 0.000507077372222)
(-7.1518627831e-07 5.97532324442e-06 0.000505503700579)
(-1.36740091277e-06 5.78551624599e-06 0.000500880792688)
(-1.95584770591e-06 5.4851649785e-06 0.000493399998225)
(-2.45880266909e-06 5.09533887986e-06 0.000483392960474)
(-2.86479817521e-06 4.64409135652e-06 0.000471354481668)
(-3.1762186482e-06 4.16654937827e-06 0.000457954915812)
(-3.44761256178e-06 3.66610988727e-06 0.000443909031544)
(3.61065549357e-06 3.8843611709e-06 0.000469139749221)
(3.29336560656e-06 4.3800425114e-06 0.000482806904757)
(2.93891106171e-06 4.84233117922e-06 0.000495870792858)
(2.49309539716e-06 5.27408250505e-06 0.000507607280899)
(1.95685484929e-06 5.64288328408e-06 0.000517339343044)
(1.34249710948e-06 5.92428537897e-06 0.000524590529549)
(6.70673043257e-07 6.10019697482e-06 0.000529050831672)
(-3.14356635246e-08 6.15916204023e-06 0.000530544728933)
(-7.33056274856e-07 6.09719889308e-06 0.00052901337338)
(-1.40341731645e-06 5.91837639593e-06 0.000524516523962)
(-2.01534216517e-06 5.6342438538e-06 0.000517230667412)
(-2.54819832229e-06 5.26300330315e-06 0.000507466994689)
(-2.9897118214e-06 4.82924297595e-06 0.000495702510394)
(-3.33915695824e-06 4.36512053561e-06 0.000482606840789)
(-3.64954903291e-06 3.86872841636e-06 0.000468894364)
(3.74101718899e-06 4.01709393067e-06 0.000490816977847)
(3.38691064009e-06 4.49254744704e-06 0.00050398405915)
(2.99843030711e-06 4.92504698753e-06 0.000516577693801)
(2.52436774872e-06 5.32340076645e-06 0.00052786237192)
(1.96850125576e-06 5.65999164426e-06 0.000537178494495)
(1.34340939194e-06 5.9148913065e-06 0.000544091781653)
(6.67956069301e-07 6.07346111022e-06 0.000548331115966)
(-3.38675743885e-08 6.12642630767e-06 0.000549746400731)
(-7.35201132664e-07 6.07055581899e-06 0.000548288061199)
(-1.4091854977e-06 5.90914636994e-06 0.000544006688679)
(-2.03183483298e-06 5.65154324528e-06 0.000537053550072)
(-2.58429956071e-06 5.31248184419e-06 0.000527701349772)
(-3.05403764478e-06 4.91201926395e-06 0.000516385369151)
(-3.43743170438e-06 4.47752151057e-06 0.000503756403974)
(-3.78451676714e-06 4.00116326104e-06 0.000490540349326)
(3.80530151748e-06 4.0802826537e-06 0.000509482544867)
(3.41863124662e-06 4.51903791418e-06 0.000522086681836)
(3.00199495616e-06 4.90632549508e-06 0.00053410397876)
(2.50800959691e-06 5.25702482042e-06 0.000544778580063)
(1.94282902598e-06 5.54990528865e-06 0.000553510430325)
(1.31873901838e-06 5.76997780749e-06 0.000559944382511)
(6.52351362892e-07 5.90618648943e-06 0.000563870397861)
(-3.59995856133e-08 5.95150000092e-06 0.000565174973009)
(-7.23868551093e-07 5.90346459424e-06 0.000563821116725)
(-1.38881384153e-06 5.76457525364e-06 0.000559846824814)
(-2.01050641061e-06 5.54190872804e-06 0.000553366879793)
(-2.5723425713e-06 5.24659364224e-06 0.000544593331526)
(-3.06206969504e-06 4.89372962462e-06 0.000533883147655)
(-3.47363742246e-06 4.50429627074e-06 0.00052182652148)
(-3.85328426331e-06 4.06443996909e-06 0.000509169444345)
(3.808093986e-06 4.07333184425e-06 0.000525566441989)
(3.39606414224e-06 4.46329852977e-06 0.000537710301622)
(2.95894680584e-06 4.78972436363e-06 0.000549078959671)
(2.4533597909e-06 5.08058088763e-06 0.000558963343785)
(1.88809678309e-06 5.32070567904e-06 0.000566918222961)
(1.27462803864e-06 5.49975056452e-06 0.000572715448204)
(6.27136206929e-07 5.60997989559e-06 0.000576227528527)
(-3.78033303263e-08 5.64647576571e-06 0.000577386838424)
(-7.02277467276e-07 5.6075209064e-06 0.000576171542874)
(-1.34837701336e-06 5.4948500811e-06 0.000572604284996)
(-1.95953401391e-06 5.31340023235e-06 0.000566753848615)
(-2.52156805603e-06 5.070948482e-06 0.000558749961366)
(-3.02303687399e-06 4.77791881386e-06 0.00054882390813)
(-3.45519780895e-06 4.44922693461e-06 0.000537411945608)
(-3.86039117343e-06 4.05792253795e-06 0.00052521310878)
(3.75933807097e-06 4.05222562874e-06 0.00053973288824)
(3.33338826952e-06 4.34795067311e-06 0.000551801013466)
(2.88196235027e-06 4.59296052071e-06 0.000562314829323)
(2.37223864781e-06 4.80863514297e-06 0.000571131491699)
(1.81422367761e-06 4.98435661412e-06 0.000578064393915)
(1.21819209902e-06 5.11422972936e-06 0.000583042852949)
(5.96029923978e-07 5.19365818459e-06 0.000586029974057)
(-3.92665435251e-08 5.21976929809e-06 0.000587006832238)
(-6.74119699136e-07 5.1915655686e-06 0.000585967458294)
(-1.29495749902e-06 5.11003996832e-06 0.0005829182567)
(-1.88879215573e-06 4.97806003985e-06 0.000577878844299)
(-2.44373811939e-06 4.8002300777e-06 0.000570887891167)
(-2.94954047904e-06 4.58249427829e-06 0.000562020783091)
(-3.39609804109e-06 4.33513142397e-06 0.000551453334246)
(-3.81583459525e-06 4.03788394375e-06 0.000539348174882)
(-2.14347997787e-08 -3.71461658577e-08 2.93334795705e-05)
(-1.15251775197e-08 -5.02995727265e-08 3.08989120675e-05)
(-5.63651692817e-09 -5.83472282409e-08 3.2389465525e-05)
(-1.40528315558e-09 -6.3657716733e-08 3.37220974887e-05)
(9.46642513565e-10 -6.6924164779e-08 3.48279097285e-05)
(1.63106087001e-09 -6.87479447047e-08 3.56543441072e-05)
(1.05859399084e-09 -6.96265507821e-08 3.61650138057e-05)
(-2.06540501033e-10 -6.98871790868e-08 3.63380796493e-05)
(-1.46337434654e-09 -6.96437489648e-08 3.6162852789e-05)
(-2.01141370399e-09 -6.87833146549e-08 3.56500391399e-05)
(-1.29274574636e-09 -6.69802881649e-08 3.48214860928e-05)
(1.07458275758e-09 -6.37404547108e-08 3.37135564343e-05)
(5.34422746134e-09 -5.84222873308e-08 3.23786966364e-05)
(1.130393315e-08 -5.03745551063e-08 3.08853384359e-05)
(2.13035586555e-08 -3.71929373577e-08 2.9315030692e-05)
(-7.3990714232e-08 -1.14309883753e-07 8.4688926203e-05)
(-4.72509016885e-08 -1.49685698687e-07 8.89881203087e-05)
(-2.91842436082e-08 -1.73607033025e-07 9.30968937291e-05)
(-1.57389382092e-08 -1.90193193529e-07 9.67790199327e-05)
(-6.93749242482e-09 -2.00949704254e-07 9.98399876689e-05)
(-2.23690154528e-09 -2.07359816571e-07 0.000102130717756)
(-6.34724991105e-10 -2.10659433165e-07 0.000103547061363)
(-7.36413029563e-10 -2.11676853779e-07 0.00010402605601)
(-8.15626160272e-10 -2.10705835506e-07 0.000103540373904)
(8.52968897119e-10 -2.07455978554e-07 0.000102117402933)
(5.65079602005e-09 -2.01101538132e-07 9.98201367888e-05)
(1.45372348599e-08 -1.90408743459e-07 9.67526617192e-05)
(2.81160621239e-08 -1.73818429102e-07 9.30637365443e-05)
(4.6392682433e-08 -1.49907176515e-07 8.8946525552e-05)
(7.34175962682e-08 -1.14468565848e-07 8.46341296092e-05)
(-1.37955827136e-07 -1.97479840653e-07 0.000136309297946)
(-9.71039048927e-08 -2.52196142676e-07 0.000142958277882)
(-6.70874057633e-08 -2.91716776758e-07 0.000149324947)
(-4.34943124446e-08 -3.20192785374e-07 0.000155040062273)
(-2.6160309434e-08 -3.39447984505e-07 0.000159797350613)
(-1.43447468248e-08 -3.51458581723e-07 0.000163361019195)
(-6.71057971494e-09 -3.57909982789e-07 0.00016556530622)
(-1.37423482949e-09 -3.59947872707e-07 0.00016630982431)
(3.9970942019e-09 -3.57974857136e-07 0.000165553951797)
(1.17346321468e-08 -3.51594319086e-07 0.000163338424695)
(2.37081306035e-08 -3.39665626347e-07 0.00015976369855)
(4.12136104744e-08 -3.20499696815e-07 0.000154995461892)
(6.50517434691e-08 -2.92039577478e-07 0.000149269058472)
(9.54050255434e-08 -2.52541529594e-07 0.000142888796394)
(1.36739242512e-07 -1.9776422088e-07 0.000136219556893)
(-1.93104429862e-07 -2.65468619527e-07 0.000184294306129)
(-1.4064076423e-07 -3.32866673815e-07 0.000192926831889)
(-1.00214767915e-07 -3.82654915015e-07 0.000201202179867)
(-6.77184631529e-08 -4.18774586335e-07 0.000208641667603)
(-4.29199383135e-08 -4.4326483649e-07 0.000214841769221)
(-2.49293522626e-08 -4.58556012686e-07 0.000219490282757)
(-1.21062503142e-08 -4.66772150924e-07 0.000222366643184)
(-2.11583643665e-09 -4.69371251379e-07 0.000223337238656)
(7.92302830731e-09 -4.66865827635e-07 0.000222350526661)
(2.08892155767e-08 -4.58749669145e-07 0.000219458233598)
(3.91053901681e-08 -4.43569379182e-07 0.000214794096322)
(6.4178313915e-08 -4.19194202662e-07 0.000208578637618)
(9.70494266948e-08 -3.83121358414e-07 0.000201123580088)
(1.37941367521e-07 -3.33379727874e-07 0.000192830120131)
(1.91072782238e-07 -2.6592800733e-07 0.000184171801502)
(-2.37964605696e-07 -3.18075961608e-07 0.000228725467909)
(-1.76286502499e-07 -3.92604890814e-07 0.00023898885425)
(-1.27263914122e-07 -4.47789614681e-07 0.000248833886101)
(-8.73458597293e-08 -4.87534150319e-07 0.000257696422009)
(-5.63934701339e-08 -5.14138316571e-07 0.00026509056337)
(-3.3426280599e-08 -5.30483428633e-07 0.000270638565597)
(-1.65298226655e-08 -5.39132390164e-07 0.0002740725691)
(-2.95126480925e-09 -5.41852080742e-07 0.000275230405225)
(1.06909044538e-08 -5.39265387281e-07 0.000274051594591)
(2.77752566349e-08 -5.30753997938e-07 0.000270596890647)