/*--------------------------------*- C++ -*----------------------------------*\
  =========                 |
  \\      /  F ield         | OpenFOAM: The Open Source CFD Toolbox
   \\    /   O peration     | Website:  https://openfoam.org
    \\  /    A nd           | Version:  7
     \\/     M anipulation  |
\*---------------------------------------------------------------------------*/
FoamFile
{
    version     2.0;
    format      ascii;
    class       volScalarField;
    location    "1.9";
    object      p;
}
// * * * * * * * * * * * * * * * * * * * * * * * * * * * * * * * * * * * * * //

dimensions      [0 2 -2 0 0 0 0];

internalField   nonuniform List<scalar> 
22500
(
3.35620844994e-05
3.35546656713e-05
3.35524441854e-05
3.35492885796e-05
3.35469155979e-05
3.35450650575e-05
3.35439094029e-05
3.35434900736e-05
3.3543866766e-05
3.35449819397e-05
3.35467962169e-05
3.35491407732e-05
3.3552278731e-05
3.35544996828e-05
3.35619345581e-05
3.34591267527e-05
3.34463902962e-05
3.34396710762e-05
3.34325777174e-05
3.34270181373e-05
3.34228242833e-05
3.34202382383e-05
3.3419340671e-05
3.34201958259e-05
3.34227415102e-05
3.34268991779e-05
3.34324300606e-05
3.34395057735e-05
3.34462240919e-05
3.34589759582e-05
3.33583852842e-05
3.33405910036e-05
3.33299888306e-05
3.33193902969e-05
3.33110436874e-05
3.33048032077e-05
3.33009722164e-05
3.32996586419e-05
3.33009314893e-05
3.33047237477e-05
3.33109296021e-05
3.33192486513e-05
3.3329830122e-05
3.33404305287e-05
3.33582377545e-05
3.3268232833e-05
3.32462277165e-05
3.32326547805e-05
3.32194085318e-05
3.32089747619e-05
3.32012170098e-05
3.31964676509e-05
3.31948483522e-05
3.31964291195e-05
3.32011418721e-05
3.32088669381e-05
3.32192745231e-05
3.32325041728e-05
3.32460744864e-05
3.3268089915e-05
3.3183962937e-05
3.31583179417e-05
3.31423057657e-05
3.31269641445e-05
3.31148803078e-05
3.31059375163e-05
3.31004744546e-05
3.30986189616e-05
3.31004384184e-05
3.31058672357e-05
3.3114779457e-05
3.31268386775e-05
3.31421642814e-05
3.31581729319e-05
3.3183825517e-05
3.31046056956e-05
3.30758840114e-05
3.30578704536e-05
3.30408919333e-05
3.30275152823e-05
3.30176556876e-05
3.30116424666e-05
3.300960567e-05
3.30116089893e-05
3.30175903868e-05
3.30274215133e-05
3.30407750717e-05
3.30577381717e-05
3.30757473747e-05
3.31044742944e-05
3.30305369781e-05
3.29993227855e-05
3.29796991105e-05
3.29614934969e-05
3.29471395256e-05
3.29365967784e-05
3.29301749002e-05
3.29280040388e-05
3.29301440892e-05
3.29365366543e-05
3.29470531178e-05
3.29613856009e-05
3.29795764834e-05
3.29991950609e-05
3.30304119594e-05
3.29617020901e-05
3.2928540105e-05
3.29076247264e-05
3.28885330885e-05
3.28734619109e-05
3.28624263861e-05
3.28557110465e-05
3.28534445142e-05
3.28556828241e-05
3.28623712858e-05
3.28733826275e-05
3.28884338347e-05
3.29075114237e-05
3.29284211114e-05
3.29615836495e-05
3.28977608147e-05
3.2863146774e-05
3.28412032048e-05
3.28215112757e-05
3.28059413831e-05
3.27945710493e-05
3.27876580888e-05
3.27853278285e-05
3.27876323815e-05
3.2794520822e-05
3.28058690142e-05
3.28214204199e-05
3.28410989608e-05
3.28630362778e-05
3.28976487744e-05
3.28383489014e-05
3.28027446902e-05
3.27800155894e-05
3.27599771337e-05
3.27441050131e-05
3.27325400885e-05
3.27255149789e-05
3.27231494471e-05
3.27254916129e-05
3.27324944128e-05
3.27440390755e-05
3.2759894111e-05
3.27799198335e-05
3.28026422388e-05
3.28382431409e-05
3.2783133932e-05
3.27469826331e-05
3.27237192114e-05
3.27035715394e-05
3.26875828739e-05
3.2675954587e-05
3.26688976097e-05
3.26665237397e-05
3.26688764124e-05
3.26759131015e-05
3.26875229144e-05
3.27034957675e-05
3.27236313597e-05
3.27468876951e-05
3.27830340526e-05
3.27317941528e-05
3.26955658844e-05
3.26720586632e-05
3.26520264642e-05
3.26360960672e-05
3.26245277432e-05
3.26175154209e-05
3.26151588989e-05
3.26174961924e-05
3.26244900779e-05
3.2636041485e-05
3.26519573123e-05
3.26719780635e-05
3.26954779969e-05
3.27317001073e-05
3.26839267499e-05
3.26482696497e-05
3.2624881225e-05
3.26051638656e-05
3.25894478392e-05
3.25780552669e-05
3.25711609284e-05
3.25688472516e-05
3.25711434206e-05
3.2578020909e-05
3.25893981062e-05
3.26051006197e-05
3.2624807163e-05
3.26481881447e-05
3.26838379704e-05
3.26392288097e-05
3.26049168077e-05
3.25819772362e-05
3.25627494309e-05
3.25474159648e-05
3.25363426195e-05
3.25296616125e-05
3.25274228948e-05
3.25296455313e-05
3.2536311184e-05
3.25473702474e-05
3.25626913309e-05
3.25819091054e-05
3.26048412686e-05
3.26391451274e-05
3.25991936541e-05
3.25646904755e-05
3.25426052653e-05
3.25240082625e-05
3.25093396635e-05
3.24988378675e-05
3.24925310996e-05
3.2490422793e-05
3.24925162741e-05
3.24988088792e-05
3.25092977154e-05
3.25239549384e-05
3.25425424821e-05
3.25646207911e-05
3.25991157364e-05
2.11880919565e-05
2.11914973712e-05
2.11942494661e-05
2.1196967608e-05
2.11994060011e-05
2.12013187315e-05
2.12025540691e-05
2.12029958459e-05
2.1202606267e-05
2.1201420498e-05
2.11995511129e-05
2.1197145152e-05
2.11944462332e-05
2.11916962057e-05
2.11882795011e-05
2.12011787399e-05
2.12052514473e-05
2.12086426002e-05
2.12119379364e-05
2.12148697763e-05
2.12171564145e-05
2.12186266384e-05
2.1219148886e-05
2.12186778071e-05
2.12172560206e-05
2.1215011573e-05
2.12121113051e-05
2.12088344195e-05
2.12054460361e-05
2.12013630233e-05
2.12198494627e-05
2.12255521253e-05
2.12303179188e-05
2.12348890816e-05
2.12389080763e-05
2.1242017929e-05
2.12440032007e-05
2.12447005779e-05
2.12440531175e-05
2.12421151728e-05
2.1239046763e-05
2.1235059224e-05
2.12305064871e-05
2.12257440961e-05
2.12200313104e-05
2.12454023446e-05
2.12537901857e-05
2.12607002011e-05
2.12672236807e-05
2.12728846105e-05
2.12772281007e-05
2.12799797477e-05
2.12809366497e-05
2.12800279599e-05
2.12773220624e-05
2.12730188028e-05
2.12673888001e-05
2.1260883772e-05
2.12539778597e-05
2.12455810454e-05
2.12782414681e-05
2.12900614367e-05
2.12995827109e-05
2.13084346143e-05
2.13160220234e-05
2.13217973686e-05
2.132543112e-05
2.1326685486e-05
2.13254772672e-05
2.13218873414e-05
2.13161507446e-05
2.13085934724e-05
2.12997600405e-05
2.12902435355e-05
2.12784157776e-05
2.13171895845e-05
2.1332801038e-05
2.13450699508e-05
2.13563182999e-05
2.13658537925e-05
2.1373059228e-05
2.13775658076e-05
2.13791129674e-05
2.13776095065e-05
2.13731444453e-05
2.13659757968e-05
2.13564692663e-05
2.13452391334e-05
2.13329760102e-05
2.13173583778e-05
2.13605400001e-05
2.13799571216e-05
2.1394855272e-05
2.14083390802e-05
2.14196573602e-05
2.14281537387e-05
2.14334399066e-05
2.14352470385e-05
2.14334809073e-05
2.14282337295e-05
2.14197720297e-05
2.14084813853e-05
2.13950154354e-05
2.13801239641e-05
2.13607021808e-05
2.14066077226e-05
2.14295729589e-05
2.14468117381e-05
2.14622221988e-05
2.14750436417e-05
2.14846109741e-05
2.14905355813e-05
2.14925540409e-05
2.14905736675e-05
2.14846852971e-05
2.14751503077e-05
2.14623549216e-05
2.14469618969e-05
2.14297306231e-05
2.14067627769e-05
2.14539156438e-05
2.14799793225e-05
2.14991731327e-05
2.15161243318e-05
2.15301160115e-05
2.15404997362e-05
2.15469025525e-05
2.15490776306e-05
2.1546937654e-05
2.15405682755e-05
2.15302145216e-05
2.15162472816e-05
2.14993129488e-05
2.14801273592e-05
2.14540626478e-05
2.15012500007e-05
2.15298450774e-05
2.15505663953e-05
2.15686488775e-05
2.15834678267e-05
2.15944103616e-05
2.16011312404e-05
2.16034085177e-05
2.16011633358e-05
2.1594473079e-05
2.1583558101e-05
2.15687619219e-05
2.1550695694e-05
2.15299832041e-05
2.15013889126e-05
2.15476633317e-05
2.15781610321e-05
2.15999750093e-05
2.16187919552e-05
2.16341123801e-05
2.16453716931e-05
2.16522611821e-05
2.16545901202e-05
2.16522903763e-05
2.16454287789e-05
2.16341947194e-05
2.16188953801e-05
2.16000939757e-05
2.1578289249e-05
2.15477936584e-05
2.15924254327e-05
2.16241775823e-05
2.16466702814e-05
2.16658657362e-05
2.16813962345e-05
2.16927551899e-05
2.16996794665e-05
2.17020147349e-05
2.1699705927e-05
2.16928069898e-05
2.16814710496e-05
2.16659600395e-05
2.1646779369e-05
2.16242961378e-05
2.15925474112e-05
2.16349573737e-05
2.16673680098e-05
2.16901821274e-05
2.170945324e-05
2.17249359527e-05
2.17361985804e-05
2.17430359558e-05
2.17453365649e-05
2.17430599336e-05
2.17362455471e-05
2.17250039315e-05
2.17095391581e-05
2.16902819782e-05
2.16674774083e-05
2.16350709471e-05
2.16751678255e-05
2.17077965377e-05
2.17304984561e-05
2.17495072234e-05
2.17646350195e-05
2.17755664567e-05
2.1782173775e-05
2.17843914203e-05
2.17821955549e-05
2.17756091182e-05
2.17646967889e-05
2.1749585487e-05
2.17305900169e-05
2.17078975488e-05
2.16752736321e-05
2.1714964313e-05
2.17456012273e-05
2.17676011626e-05
2.17859557442e-05
2.18003357823e-05
2.18106438203e-05
2.18168460872e-05
2.18189231906e-05
2.18168658716e-05
2.18106826932e-05
2.18003921316e-05
2.17860274185e-05
2.17676852682e-05
2.17456950445e-05
2.17150636553e-05
2.27823073674e-05
2.27814957951e-05
2.27799877778e-05
2.27783264016e-05
2.27767359467e-05
2.27754587881e-05
2.27746371292e-05
2.27743611355e-05
2.27746634285e-05
2.27755106095e-05
2.27768114201e-05
2.2778421376e-05
2.27800937644e-05
2.2781605279e-05
2.27824106696e-05
2.27840810308e-05
2.27833597685e-05
2.27819390794e-05
2.27803574447e-05
2.27788243249e-05
2.27775838279e-05
2.27767815074e-05
2.27765110619e-05
2.27768067359e-05
2.27776335471e-05
2.27788968012e-05
2.27804487798e-05
2.27820414997e-05
2.27834656748e-05
2.27841817336e-05
2.27863086353e-05
2.27857144282e-05
2.27843952906e-05
2.27829166051e-05
2.27814602953e-05
2.27802736243e-05
2.27795023425e-05
2.27792418041e-05
2.27795269125e-05
2.27803220233e-05
2.27815307832e-05
2.27830054539e-05
2.27844954449e-05
2.27858181264e-05
2.27864075224e-05
2.27879207873e-05
2.27874529991e-05
2.27862177719e-05
2.2784840577e-05
2.27834672243e-05
2.27823437057e-05
2.27816114651e-05
2.27813638802e-05
2.27816351717e-05
2.27823903546e-05
2.27835350164e-05
2.27849259214e-05
2.27863142716e-05
2.27875533766e-05
2.27880170168e-05
2.27892439778e-05
2.27889719969e-05
2.27878677309e-05
2.27866505464e-05
2.27854171525e-05
2.27844037013e-05
2.27837414066e-05
2.27835174882e-05
2.27837640942e-05
2.27844483033e-05
2.27854818983e-05
2.27867320266e-05
2.2787960118e-05
2.27890684937e-05
2.27893368419e-05
2.27907284164e-05
2.27907675821e-05
2.27898771563e-05
2.27889061339e-05
2.27878903498e-05
2.27870474502e-05
2.27864937224e-05
2.27863066603e-05
2.2786515198e-05
2.27870896265e-05
2.27879514495e-05
2.27889829427e-05
2.27899643914e-05
2.279085904e-05
2.2790817276e-05
2.279264459e-05
2.27931128749e-05
2.27925185417e-05
2.27918713838e-05
2.27911409944e-05
2.27905197043e-05
2.27901064182e-05
2.27899670374e-05
2.27901266052e-05
2.27905593121e-05
2.27911982871e-05
2.27919433426e-05
2.27926004117e-05
2.27931989148e-05
2.27927287509e-05
2.27951251331e-05
2.27961159984e-05
2.27958806048e-05
2.27956083741e-05
2.27952067326e-05
2.27948382686e-05
2.27945843515e-05
2.27944989981e-05
2.27946031582e-05
2.27948751229e-05
2.2795259943e-05
2.27956750928e-05
2.27959565777e-05
2.27961960992e-05
2.27952041545e-05
2.27982041357e-05
2.27997689361e-05
2.27999278416e-05
2.28000497454e-05
2.27999924778e-05
2.27998865778e-05
2.27997973185e-05
2.27997676895e-05
2.279981473e-05
2.27999206556e-05
2.28000416011e-05
2.28001112509e-05
2.27999978798e-05
2.27998429797e-05
2.27982776196e-05
2.28018411132e-05
2.28039825679e-05
2.28045427351e-05
2.28050485428e-05
2.2805326195e-05
2.2805473873e-05
2.28055429507e-05
2.28055667927e-05
2.28055589663e-05
2.28055051888e-05
2.28053712459e-05
2.28051048613e-05
2.28046068561e-05
2.28040505225e-05
2.28019091414e-05
2.28059459708e-05
2.28086177532e-05
2.28095606716e-05
2.28104179513e-05
2.2811002368e-05
2.28113812017e-05
2.28115940447e-05
2.28116663918e-05
2.28116087288e-05
2.28114098733e-05
2.28110435661e-05
2.28104693553e-05
2.28096191994e-05
2.28086798905e-05
2.28060085856e-05
2.28103895666e-05
2.28135048857e-05
2.28147946597e-05
2.28159593917e-05
2.28168119238e-05
2.28173919843e-05
2.28177296946e-05
2.28178440709e-05
2.2817743154e-05
2.2817418244e-05
2.28168495616e-05
2.28160063181e-05
2.28148480759e-05
2.28135617661e-05
2.28104472819e-05
2.28150060478e-05
2.28184668187e-05
2.2820064165e-05
2.2821488345e-05
2.28225646744e-05
2.28233126315e-05
2.28237542824e-05
2.28239037819e-05
2.282376668e-05
2.28233367485e-05
2.28225992601e-05
2.28215313537e-05
2.28201131645e-05
2.28185191258e-05
2.28150593343e-05
2.28197558782e-05
2.28234781457e-05
2.28252860762e-05
2.28268926209e-05
2.28281240165e-05
2.28289901458e-05
2.28295062936e-05
2.28296808789e-05
2.28295177957e-05
2.28290125674e-05
2.28281560104e-05
2.28269324567e-05
2.28253315144e-05
2.282352687e-05
2.28198056742e-05
2.28253873329e-05
2.28284117856e-05
2.28302713508e-05
2.28319629123e-05
2.28332623019e-05
2.28341863889e-05
2.28347406408e-05
2.28349283831e-05
2.28347514751e-05
2.28342074416e-05
2.28332924047e-05
2.28320003609e-05
2.28303142331e-05
2.28284582023e-05
2.28254350161e-05
1.90463302481e-05
1.90469283515e-05
1.90477332537e-05
1.9048584567e-05
1.90493697777e-05
1.90499999907e-05
1.90504085613e-05
1.9050555127e-05
1.90504248311e-05
1.90500327009e-05
1.90494188876e-05
1.90486486926e-05
1.90478100886e-05
1.90470126729e-05
1.90464184128e-05
1.90470817584e-05
1.90477016779e-05
1.90485338222e-05
1.90494134592e-05
1.90502274973e-05
1.90508824797e-05
1.90513078911e-05
1.90514606308e-05
1.90513245296e-05
1.9050915732e-05
1.90502769718e-05
1.90494774412e-05
1.90486095834e-05
1.90477845665e-05
1.90471681526e-05
1.90476345954e-05
1.90482628365e-05
1.90491079615e-05
1.90500003021e-05
1.90508293637e-05
1.90514981959e-05
1.90519332648e-05
1.90520894389e-05
1.90519496687e-05
1.90515309526e-05
1.90508780515e-05
1.90500633595e-05
1.90491825992e-05
1.90483448647e-05
1.9047719819e-05
1.90481617502e-05
1.90488016132e-05
1.9049661957e-05
1.90505635807e-05
1.90514028517e-05
1.90520812248e-05
1.90525229956e-05
1.90526815311e-05
1.90525391137e-05
1.90521133352e-05
1.90514504154e-05
1.90506250816e-05
1.9049734732e-05
1.90488817812e-05
1.90482453975e-05
1.90487184889e-05
1.90493752781e-05
1.9050257781e-05
1.90511717958e-05
1.90520230049e-05
1.9052711938e-05
1.90531608655e-05
1.90533218548e-05
1.90531766061e-05
1.90527432501e-05
1.90520693389e-05
1.90512316603e-05
1.90503286722e-05
1.90494534106e-05
1.90488001174e-05
1.90493172747e-05
1.90500035226e-05
1.9050920911e-05
1.90518573799e-05
1.90527287639e-05
1.90534343188e-05
1.90538941842e-05
1.90540588705e-05
1.9053909493e-05
1.90534647066e-05
1.90527735658e-05
1.90519151219e-05
1.90509891547e-05
1.90500789339e-05
1.90493962347e-05
1.90499918816e-05
1.90507296976e-05
1.90516998705e-05
1.90526749475e-05
1.90535794809e-05
1.9054310975e-05
1.90547873107e-05
1.90549574675e-05
1.90548020675e-05
1.9054340243e-05
1.90536225713e-05
1.90527304481e-05
1.90517654294e-05
1.90508022333e-05
1.90500678949e-05
1.90507853717e-05
1.90516036258e-05
1.90526450429e-05
1.90536747862e-05
1.90546243476e-05
1.90553896636e-05
1.9055886894e-05
1.90560639037e-05
1.90559010277e-05
1.90554176507e-05
1.9054665462e-05
1.90537276417e-05
1.90527074524e-05
1.90516727606e-05
1.90508581864e-05
1.9051729554e-05
1.90526563204e-05
1.90537822608e-05
1.90548769421e-05
1.90558776553e-05
1.90566796971e-05
1.90571988827e-05
1.90573829458e-05
1.90572123415e-05
1.905670632e-05
1.90559167368e-05
1.90549271464e-05
1.90538415246e-05
1.90527220072e-05
1.9051798828e-05
1.90528363229e-05
1.90538937178e-05
1.90551085262e-05
1.90562690351e-05
1.90573183355e-05
1.9058153016e-05
1.9058690775e-05
1.90588805597e-05
1.9058703521e-05
1.90581782166e-05
1.90573552621e-05
1.90563164403e-05
1.90551644785e-05
1.90539558227e-05
1.90529020421e-05
1.90540990069e-05
1.90552982646e-05
1.90565961929e-05
1.90578136912e-05
1.90589004698e-05
1.90597572443e-05
1.90603060604e-05
1.90604988897e-05
1.90603181217e-05
1.90597810587e-05
1.90589353532e-05
1.90578583966e-05
1.9056648947e-05
1.90553567812e-05
1.90541609902e-05
1.90554896814e-05
1.90568322836e-05
1.90582010643e-05
1.9059459926e-05
1.90605671536e-05
1.90614307736e-05
1.90619803934e-05
1.90621725982e-05
1.90619918056e-05
1.90614533252e-05
1.90606000545e-05
1.9059502097e-05
1.9058250756e-05
1.90568874126e-05
1.90555480935e-05
1.90569593265e-05
1.90584486584e-05
1.90598765086e-05
1.90611576308e-05
1.90622646601e-05
1.90631178518e-05
1.90636564679e-05
1.90638440973e-05
1.90636673443e-05
1.90631391861e-05
1.90622958931e-05
1.90611974369e-05
1.90599234194e-05
1.90585005954e-05
1.90570142561e-05
1.90585516488e-05
1.90602003509e-05
1.90616363954e-05
1.90628969178e-05
1.90639666396e-05
1.90647805454e-05
1.90652905434e-05
1.90654673881e-05
1.90653008901e-05
1.90648009811e-05
1.9063996259e-05
1.9062934759e-05
1.90616808374e-05
1.90602496077e-05
1.90586034392e-05
1.90609714549e-05
1.90622722723e-05
1.90635516495e-05
1.90646742404e-05
1.90656176514e-05
1.90663298239e-05
1.90667734823e-05
1.90669272335e-05
1.90667834655e-05
1.9066349368e-05
1.90656460745e-05
1.90647103787e-05
1.90635941475e-05
1.90623194273e-05
1.90610211729e-05
1.76063729854e-05
1.76061765221e-05
1.76059156955e-05
1.76055948847e-05
1.76052897562e-05
1.76050395884e-05
1.76048782853e-05
1.76048259618e-05
1.76048901612e-05
1.76050635959e-05
1.7605326313e-05
1.76056433928e-05
1.76059740105e-05
1.76062426501e-05
1.76064414121e-05
1.76069451348e-05
1.76067713818e-05
1.76065308208e-05
1.76062257691e-05
1.76059320597e-05
1.76056889637e-05
1.76055312448e-05
1.76054798363e-05
1.76055426446e-05
1.76057120693e-05
1.76059673344e-05
1.7606272659e-05
1.76065872159e-05
1.76068352355e-05
1.76070115901e-05
1.76075881389e-05
1.76074330457e-05
1.76072134688e-05
1.760692232e-05
1.76066386025e-05
1.76064011971e-05
1.76062463145e-05
1.76061956694e-05
1.76062574481e-05
1.76064237132e-05
1.76066728901e-05
1.7606968008e-05
1.76072688034e-05
1.76074956899e-05
1.76076536117e-05
1.76080600462e-05
1.76079063836e-05
1.76076952607e-05
1.76074053966e-05
1.76071217497e-05
1.7606883049e-05
1.76067268689e-05
1.76066756056e-05
1.76067376797e-05
1.76069048804e-05
1.76071548727e-05
1.76074494618e-05
1.76077487211e-05
1.76079670816e-05
1.76081238478e-05
1.76083856169e-05
1.76082238699e-05
1.76080149992e-05
1.76077210504e-05
1.76074338596e-05
1.76071917622e-05
1.76070331693e-05
1.76069809605e-05
1.76070436258e-05
1.76072128321e-05
1.76074657474e-05
1.76077634594e-05
1.76080665773e-05
1.76082825611e-05
1.76084474301e-05
1.76086167304e-05
1.76084471439e-05
1.76082422255e-05
1.76079465827e-05
1.76076591337e-05
1.76074170261e-05
1.76072584892e-05
1.76072062148e-05
1.76072685649e-05
1.760743729e-05
1.76076896794e-05
1.76079870758e-05
1.76082914026e-05
1.76085031139e-05
1.76086761582e-05
1.7608794467e-05
1.76086251692e-05
1.76084332464e-05
1.76081459457e-05
1.76078680517e-05
1.76076343447e-05
1.76074814665e-05
1.76074310958e-05
1.76074911573e-05
1.76076537918e-05
1.76078972593e-05
1.76081845575e-05
1.76084801109e-05
1.7608678419e-05
1.76088512112e-05
1.76089596614e-05
1.76088070388e-05
1.76086431166e-05
1.76083798783e-05
1.76081260485e-05
1.76079126979e-05
1.76077732798e-05
1.76077275298e-05
1.76077825815e-05
1.7607931314e-05
1.76081538781e-05
1.76084164802e-05
1.76086873974e-05
1.76088572739e-05
1.76090134803e-05
1.76091532717e-05
1.76090390664e-05
1.76089213614e-05
1.76087010225e-05
1.76084879537e-05
1.76083082634e-05
1.76081908078e-05
1.76081526077e-05
1.76081997174e-05
1.76083260392e-05
1.76085144207e-05
1.76087356667e-05
1.7608963119e-05
1.76090863344e-05
1.76092040039e-05
1.76094105804e-05
1.76093589208e-05
1.76093051912e-05
1.76091458745e-05
1.76089891089e-05
1.76088551452e-05
1.76087672968e-05
1.76087392296e-05
1.76087758144e-05
1.76088720985e-05
1.76090142164e-05
1.76091785709e-05
1.76093444054e-05
1.7609403182e-05
1.76094583048e-05
1.76097567238e-05
1.76097891032e-05
1.76098131974e-05
1.76097292453e-05
1.76096406571e-05
1.76095614757e-05
1.76095087901e-05
1.76094927703e-05
1.76095169317e-05
1.76095776246e-05
1.76096644919e-05
1.76097601017e-05
1.7609850053e-05
1.76098305228e-05
1.76098014785e-05
1.7610199263e-05
1.76103319667e-05
1.76104424285e-05
1.76104429663e-05
1.76104299841e-05
1.761041089e-05
1.76103966786e-05
1.7610393736e-05
1.76104044783e-05
1.76104263304e-05
1.76104526231e-05
1.76104721931e-05
1.76104771422e-05
1.76103708634e-05
1.76102413308e-05
1.76107270263e-05
1.7610972168e-05
1.76111727533e-05
1.76112613876e-05
1.76113267227e-05
1.76113698916e-05
1.76113951126e-05
1.76114057751e-05
1.76114026439e-05
1.7611384685e-05
1.76113484515e-05
1.76112891654e-05
1.76112056924e-05
1.76110088977e-05
1.76107667142e-05
1.76113797779e-05
1.76117449117e-05
1.76120071449e-05
1.76121678483e-05
1.76123008896e-05
1.7612398162e-05
1.76124582654e-05
1.76124806442e-05
1.76124655736e-05
1.76124126111e-05
1.76123218257e-05
1.76121946893e-05
1.76120386672e-05
1.7611780028e-05
1.76114175011e-05
1.76125596532e-05
1.76127325831e-05
1.76129552871e-05
1.76131258147e-05
1.76132812599e-05
1.76134006327e-05
1.76134757481e-05
1.76135035774e-05
1.76134830222e-05
1.76134148585e-05
1.76133019407e-05
1.76131520057e-05
1.76129861222e-05
1.76127667814e-05
1.76125961821e-05
1.54545665178e-05
1.54546791725e-05
1.54548286137e-05
1.54549765936e-05
1.54551113059e-05
1.54552167377e-05
1.54552848075e-05
1.54553100239e-05
1.54552909752e-05
1.54552298811e-05
1.54551326893e-05
1.54550075555e-05
1.54548700457e-05
1.54547299285e-05
1.54546258081e-05
1.54549700584e-05
1.54550984308e-05
1.54552640327e-05
1.54554267181e-05
1.54555748396e-05
1.5455691093e-05
1.54557663436e-05
1.54557943162e-05
1.54557731697e-05
1.54557053344e-05
1.54555973907e-05
1.54554584798e-05
1.54553055485e-05
1.54551487414e-05
1.54550283083e-05
1.54553602931e-05
1.5455502663e-05
1.54556836707e-05
1.54558593118e-05
1.54560193978e-05
1.54561449542e-05
1.5456226199e-05
1.54562562664e-05
1.54562330893e-05
1.54561592709e-05
1.54560419783e-05
1.54558910617e-05
1.54557250645e-05
1.54555529452e-05
1.5455418038e-05
1.5455709129e-05
1.54558644641e-05
1.54560596291e-05
1.54562457714e-05
1.54564155237e-05
1.54565486346e-05
1.54566347986e-05
1.54566666408e-05
1.54566418702e-05
1.54565632245e-05
1.5456438308e-05
1.54562774745e-05
1.54561006258e-05
1.54559141304e-05
1.54557662493e-05
1.54560401795e-05
1.54562083688e-05
1.5456418116e-05
1.5456614277e-05
1.54567931098e-05
1.54569332148e-05
1.54570238658e-05
1.54570573094e-05
1.54570310776e-05
1.54569480105e-05
1.54568160801e-05
1.54566460278e-05
1.54564589346e-05
1.54562575508e-05
1.54560964485e-05
1.54563640531e-05
1.54565464044e-05
1.54567718434e-05
1.54569780179e-05
1.5457165851e-05
1.54573129338e-05
1.54574081033e-05
1.54574431912e-05
1.54574155275e-05
1.54573280526e-05
1.54571890681e-05
1.54570097143e-05
1.54568121218e-05
1.54565947142e-05
1.54564190856e-05
1.54566861274e-05
1.54568851101e-05
1.54571280535e-05
1.54573456033e-05
1.54575434892e-05
1.54576983424e-05
1.54577984669e-05
1.54578353084e-05
1.54578060028e-05
1.5457713627e-05
1.5457566818e-05
1.54573772207e-05
1.54571679174e-05
1.54569326011e-05
1.54567398341e-05
1.54570135926e-05
1.54572336553e-05
1.54574968154e-05
1.54577278804e-05
1.54579375221e-05
1.54581015131e-05
1.54582074675e-05
1.54582463559e-05
1.54582150966e-05
1.545811691e-05
1.54579608374e-05
1.54577591915e-05
1.54575359395e-05
1.54572799619e-05
1.54570658378e-05
1.54573550788e-05
1.54576016787e-05
1.5457888409e-05
1.54581359896e-05
1.54583597724e-05
1.54585347516e-05
1.5458647625e-05
1.5458688909e-05
1.54586552815e-05
1.54585501429e-05
1.54583829854e-05
1.54581669673e-05
1.545792683e-05
1.54576468264e-05
1.54574056222e-05
1.54577190325e-05
1.5457998943e-05
1.54583124636e-05
1.54585793424e-05
1.54588193107e-05
1.54590067435e-05
1.54591274354e-05
1.54591713777e-05
1.54591350641e-05
1.5459022047e-05
1.54588422533e-05
1.54586097951e-05
1.54583499783e-05
1.54580427431e-05
1.54577678633e-05
1.54581132247e-05
1.54584327643e-05
1.54587749726e-05
1.54590628511e-05
1.54593199534e-05
1.5459520517e-05
1.54596492844e-05
1.54596959721e-05
1.54596568714e-05
1.5459535682e-05
1.54593426324e-05
1.54590927528e-05
1.54588115928e-05
1.54584751534e-05
1.545816013e-05
1.54585399133e-05
1.54589046588e-05
1.54592760884e-05
1.5459585208e-05
1.54598592916e-05
1.54600723965e-05
1.54602088771e-05
1.54602580699e-05
1.54602163909e-05
1.54600874414e-05
1.54598815857e-05
1.54596145538e-05
1.54593117612e-05
1.54589456635e-05
1.54585849336e-05
1.54589955025e-05
1.54594108021e-05
1.54598108184e-05
1.54601401542e-05
1.54604296196e-05
1.54606542491e-05
1.54607972173e-05
1.54608486699e-05
1.54608047235e-05
1.54606690499e-05
1.54604517073e-05
1.54601688241e-05
1.54598455966e-05
1.54594504151e-05
1.54590385889e-05
1.54595255668e-05
1.54599969708e-05
1.54604023903e-05
1.54607370778e-05
1.54610314632e-05
1.54612587107e-05
1.54614030709e-05
1.54614546941e-05
1.54614104742e-05
1.54612735053e-05
1.54610531036e-05
1.54607653242e-05
1.54604362133e-05
1.54600353891e-05
1.545956676e-05
1.5460495625e-05
1.54608000975e-05
1.54611185279e-05
1.54613979993e-05
1.54616502106e-05
1.54618458631e-05
1.54619699324e-05
1.54620146752e-05
1.54619773609e-05
1.54618604712e-05
1.54616717021e-05
1.54614256582e-05
1.5461151679e-05
1.54608374135e-05
1.54605355817e-05
1.36520699584e-05
1.36520619544e-05
1.36520510635e-05
1.36520257218e-05
1.36519998173e-05
1.36519772475e-05
1.36519632976e-05
1.36519609483e-05
1.36519715785e-05
1.36519942112e-05
1.36520258965e-05
1.36520609179e-05
1.36520941733e-05
1.36521110383e-05
1.3652120495e-05
1.36523870586e-05
1.36523915551e-05
1.36523924715e-05
1.36523770279e-05
1.3652358983e-05
1.36523419802e-05
1.36523312961e-05
1.36523299087e-05
1.36523391781e-05
1.36523581001e-05
1.36523837322e-05
1.36524104474e-05
1.36524335952e-05
1.36524386303e-05
1.36524360482e-05
1.36527057707e-05
1.36527198703e-05
1.36527308653e-05
1.36527230066e-05
1.36527111693e-05
1.36526985152e-05
1.36526903631e-05
1.365268974e-05
1.36526980215e-05
1.36527141909e-05
1.36527352764e-05
1.36527555774e-05
1.36527710098e-05
1.36527658009e-05
1.36527539561e-05
1.36529585085e-05
1.36529765286e-05
1.3652993466e-05
1.36529886582e-05
1.36529792513e-05
1.36529680761e-05
1.36529606769e-05
1.36529601935e-05
1.36529680354e-05
1.36529831371e-05
1.36530024345e-05
1.36530200199e-05
1.36530321825e-05
1.36530209079e-05
1.36530052856e-05
1.36531625196e-05
1.36531815893e-05
1.36532024971e-05
1.36531984838e-05
1.36531896889e-05
1.36531787252e-05
1.36531713482e-05
1.36531707761e-05
1.36531784331e-05
1.36531932131e-05
1.36532119515e-05
1.36532285673e-05
1.36532396121e-05
1.36532242819e-05
1.36532077579e-05
1.36533342236e-05
1.36533539604e-05
1.36533785268e-05
1.36533750589e-05
1.36533667679e-05
1.36533560653e-05
1.36533487755e-05
1.36533481416e-05
1.36533555559e-05
1.36533699015e-05
1.36533879887e-05
1.36534036914e-05
1.36534138488e-05
1.36533945894e-05
1.36533777457e-05
1.36534838912e-05
1.3653505593e-05
1.36535352306e-05
1.36535336433e-05
1.36535271557e-05
1.36535179019e-05
1.36535115294e-05
1.36535111454e-05
1.36535180423e-05
1.36535311467e-05
1.36535473884e-05
1.36535608341e-05
1.36535687299e-05
1.36535441622e-05
1.36535254992e-05
1.36536215111e-05
1.3653648583e-05
1.3653686045e-05
1.36536891229e-05
1.36536870402e-05
1.36536814168e-05
1.36536774008e-05
1.36536777706e-05
1.36536836434e-05
1.36536940719e-05
1.36537062941e-05
1.36537149041e-05
1.36537177351e-05
1.36536850653e-05
1.36536611638e-05
1.36537574643e-05
1.36537949648e-05
1.36538441015e-05
1.36538556948e-05
1.36538614707e-05
1.36538623261e-05
1.36538625413e-05
1.365386432e-05
1.36538685271e-05
1.36538744192e-05
1.36538797716e-05
1.36538800863e-05
1.36538740124e-05
1.36538294315e-05
1.36537951275e-05
1.36539016665e-05
1.36539558085e-05
1.36540208103e-05
1.36540451686e-05
1.36540626265e-05
1.36540731018e-05
1.36540795738e-05
1.36540834733e-05
1.36540853244e-05
1.36540846715e-05
1.36540800657e-05
1.3654068304e-05
1.36540490979e-05
1.36539883731e-05
1.36539374656e-05
1.36540626691e-05
1.36541398445e-05
1.36542245804e-05
1.3654265634e-05
1.36542983256e-05
1.365432129e-05
1.3654335893e-05
1.3654342555e-05
1.36543414212e-05
1.36543323849e-05
1.36543149668e-05
1.3654287631e-05
1.36542514166e-05
1.36541707392e-05
1.36540967078e-05
1.3654244647e-05
1.3654350908e-05
1.3654458379e-05
1.36545194285e-05
1.36545704332e-05
1.36546084535e-05
1.36546327795e-05
1.36546427806e-05
1.36546381329e-05
1.36546191393e-05
1.36545864518e-05
1.3654540513e-05
1.36544840371e-05
1.36543804148e-05
1.36542772171e-05
1.36544469375e-05
1.36545877254e-05
1.36547201033e-05
1.36548035942e-05
1.36548756869e-05
1.36549309144e-05
1.36549664548e-05
1.36549802464e-05
1.36549716767e-05
1.36549414046e-05
1.36548912663e-05
1.36548240756e-05
1.36547449497e-05
1.36546162246e-05
1.36544783443e-05
1.36547046158e-05
1.36548846121e-05
1.36550267372e-05
1.36551253499e-05
1.36552142836e-05
1.36552839515e-05
1.36553287396e-05
1.3655345782e-05
1.36553339932e-05
1.36552943675e-05
1.36552297985e-05
1.36551455841e-05
1.36550511475e-05
1.36549124304e-05
1.36547349464e-05
1.36552876103e-05
1.36553452754e-05
1.36554301375e-05
1.36555011395e-05
1.3655574909e-05
1.36556349977e-05
1.36556743523e-05
1.36556896117e-05
1.36556797073e-05
1.36556456633e-05
1.36555906357e-05
1.36555215249e-05
1.36554546577e-05
1.36553730806e-05
1.36553174212e-05
1.18723896762e-05
1.18724073018e-05
1.18724271287e-05
1.18724376824e-05
1.18724443237e-05
1.18724471885e-05
1.18724481504e-05
1.18724482239e-05
1.18724480454e-05
1.1872447498e-05
1.18724461537e-05
1.1872442705e-05
1.18724375367e-05
1.18724249199e-05
1.18724172041e-05
1.18726251425e-05
1.18726519681e-05
1.18726811217e-05
1.18726999974e-05
1.18727139962e-05
1.18727225915e-05
1.1872727231e-05
1.18727286801e-05
1.18727274828e-05
1.18727235824e-05
1.18727167383e-05
1.18727059325e-05
1.18726921e-05
1.18726696692e-05
1.18726519432e-05
1.18728765905e-05
1.1872912498e-05
1.18729517437e-05
1.18729786554e-05
1.18729996041e-05
1.18730133614e-05
1.18730212505e-05
1.18730238515e-05
1.18730216253e-05
1.18730145523e-05
1.18730025385e-05
1.18729847524e-05
1.18729628024e-05
1.18729303272e-05
1.1872903103e-05
1.18730892665e-05
1.18731314131e-05
1.18731781065e-05
1.18732101817e-05
1.18732356589e-05
1.18732528153e-05
1.18732628612e-05
1.18732662425e-05
1.18732633485e-05
1.1873254179e-05
1.1873238728e-05
1.18732162415e-05
1.18731888727e-05
1.18731487154e-05
1.1873115225e-05
1.18732732636e-05
1.18733196476e-05
1.18733726313e-05