/*--------------------------------*- C++ -*----------------------------------*\
  =========                 |
  \\      /  F ield         | OpenFOAM: The Open Source CFD Toolbox
   \\    /   O peration     | Website:  https://openfoam.org
    \\  /    A nd           | Version:  7
     \\/     M anipulation  |
\*---------------------------------------------------------------------------*/
FoamFile
{
    version     2.0;
    format      ascii;
    class       surfaceScalarField;
    location    "1.9";
    object      phi;
}
// * * * * * * * * * * * * * * * * * * * * * * * * * * * * * * * * * * * * * //

dimensions      [0 3 -1 0 0 0 0];

internalField   nonuniform List<scalar> 
65775
(
5.34508561415e-11
7.97645363763e-09
1.64214569421e-09
1.98187035881e-13
7.59638277293e-11
8.33413697317e-09
1.81656906418e-09
8.87074133421e-11
8.62884612675e-09
1.98218266623e-09
8.63612223837e-11
8.88324456751e-09
2.13074091363e-09
7.18073018197e-11
9.08438798039e-09
2.25482354228e-09
4.73624455507e-11
9.2309530714e-09
2.34835037897e-09
1.66514425018e-11
9.32297872709e-09
2.40735269063e-09
-1.62887842935e-11
9.35808746191e-09
2.42855051464e-09
-4.70224531364e-11
9.32288272252e-09
2.40735256241e-09
-7.1513252642e-11
9.2307640646e-09
2.34835040367e-09
-8.61418964257e-11
9.0841112327e-09
2.25482422545e-09
-8.85843862894e-11
8.88291081268e-09
2.13074239312e-09
-7.59565004824e-11
8.62848339061e-09
1.98218425566e-09
-5.35372168587e-11
8.33382447624e-09
1.81657001801e-09
7.97626357348e-09
1.64214708766e-09
7.1951913428e-14
1.33211713662e-10
1.31428126316e-08
3.91479005535e-09
5.58132685536e-13
2.14438240911e-10
1.36618101239e-08
4.30514082917e-09
2.51546122518e-10
1.40817447139e-08
4.67178615742e-09
2.47107715217e-10
1.44363150653e-08
4.99781576456e-09
2.05860575398e-10
1.47139074656e-08
5.26814896057e-09
1.35902530982e-10
1.49142344126e-08
5.47080774565e-09
4.76950670378e-11
1.50399030102e-08
5.59826933483e-09
-4.67484309262e-11
1.50884872799e-08
5.64406035029e-09
-1.35017493245e-10
1.50396998271e-08
5.59826858344e-09
-2.05098777864e-10
1.49138326426e-08
5.47080708055e-09
-2.46536913639e-10
1.4713321976e-08
5.26814965154e-09
-2.5122423484e-10
1.44355979536e-08
4.99781807777e-09
-2.14406985782e-10
1.40809745536e-08
4.67178836275e-09
-1.3342488223e-10
1.36611240469e-08
4.30514101258e-09
1.31423446183e-08
3.9147902837e-09
2.21977795275e-13
1.93332074411e-10
1.62313664712e-08
5.47479895013e-09
6.58868265839e-13
3.20339155125e-10
1.67849661148e-08
6.00436965173e-09
3.75430737188e-10
1.72285641842e-08
6.49754359436e-09
3.68332504308e-10
1.75911574375e-08
6.93317652206e-09
3.06237195301e-10
1.78715368638e-08
7.29237218416e-09
2.01826300156e-10
1.80713212718e-08
7.56050549758e-09
7.06774272383e-11
1.8196564795e-08
7.72866842352e-09
-6.95205385747e-11
1.82458939117e-08
7.78899873363e-09
-2.0074352867e-10
1.81962838739e-08
7.7286722404e-09
-3.05304827875e-10
1.80707680844e-08
7.56051363283e-09
-3.67631646466e-10
1.78707361494e-08
7.29238532785e-09
-3.75034174236e-10
1.75901760631e-08
6.93319360074e-09
-3.20288635852e-10
1.72275156549e-08
6.49756071347e-09
-1.9357670611e-10
1.67840161747e-08
6.00438238056e-09
1.6230684803e-08
5.47480874739e-09
2.52974201456e-13
2.39894248616e-10
1.77672415757e-08
6.52328494807e-09
7.27394824269e-13
4.00171132461e-10
1.82784477851e-08
7.14127122394e-09
4.6876815328e-10
1.86853172492e-08
7.71177606046e-09
4.58778587411e-10
1.90042673517e-08
8.21227485513e-09
3.80588386272e-10
1.92465218151e-08
8.62260367037e-09
2.50382328537e-10
1.94161953183e-08
8.92757094808e-09
8.75519067035e-11
1.95225250527e-08
9.11825431232e-09
-8.62555327492e-11
1.95655647102e-08
9.18654234968e-09
-2.49169695022e-10
1.95221946807e-08
9.11826035801e-09
-3.7954540383e-10
1.94155471753e-08
8.92758318293e-09
-4.57993261451e-10
1.92455895957e-08
8.62262234729e-09
-4.68318328232e-10
1.90031268879e-08
8.21229822256e-09
-4.00097832413e-10
1.86840967096e-08
7.71179939342e-09
-2.40144826466e-10
1.82773257673e-08
7.14128904295e-09
1.77663932375e-08
6.52329811792e-09
2.85232308815e-13
2.74440664557e-10
1.81661240135e-08
7.16812491068e-09
7.61136582794e-13
4.58669848781e-10
1.85926069485e-08
7.83713777617e-09
5.37230833912e-10
1.8932338181e-08
8.4492167042e-09
5.2474307392e-10
1.9184265721e-08
8.98236261089e-09
4.3451767102e-10
1.93707392413e-08
9.41690111081e-09
2.85434014162e-10
1.94981586447e-08
9.73841636028e-09
9.96910223707e-11
1.95780473025e-08
9.93880545079e-09
-9.83235782244e-11
1.96117646672e-08
1.00104155316e-08
-2.84155688218e-10
1.95776923326e-08
9.9388116904e-09
-4.33418742463e-10
1.94974647448e-08
9.73842875816e-09
-5.2391335258e-10
1.93697457184e-08
9.41691971841e-09
-5.36747265396e-10
1.91830529492e-08
8.98238565332e-09
-4.58571524429e-10
1.8931035026e-08
8.44923967022e-09
-2.74677781309e-10
1.85913946042e-08
7.83715512587e-09
1.81651677083e-08
7.16813719893e-09
3.11220244634e-13
2.99581034625e-10
1.77576093457e-08
7.49280555796e-09
7.67218759489e-13
5.00138663828e-10
1.80819956257e-08
8.18608852209e-09
5.85558781294e-10
1.83446856232e-08
8.81471007466e-09
5.70961276986e-10
1.85248795631e-08
9.35834700406e-09
4.72062337682e-10
1.86531548325e-08
9.79888126119e-09
3.09705878744e-10
1.87374772328e-08
1.01233998934e-08
1.08062623614e-10
1.87904822494e-08
1.03250014698e-08
-1.06675640211e-10
1.88144505236e-08
1.03968552814e-08
-3.08409647556e-10
1.87901232238e-08
1.03250065861e-08
-4.70947643876e-10
1.87367772023e-08
1.01234099307e-08
-5.7011582789e-10
1.86521561676e-08
9.79889627142e-09
-5.85055800927e-10
1.85236621424e-08
9.35836558186e-09
-5.00013231685e-10
1.83433731426e-08
8.81472851446e-09
-2.99790735248e-10
1.80807552317e-08
8.18610204805e-09
1.77565949543e-08
7.49281470162e-09
3.29777003187e-13
3.17838398929e-10
1.67998599733e-08
7.56622882465e-09
7.53324360904e-13
5.28551455448e-10
1.7022068804e-08
8.26575489685e-09
6.1814336053e-10
1.7210626527e-08
8.89463182515e-09
6.01703958929e-10
1.73254073006e-08
9.43476938832e-09
4.96793802199e-10
1.74018662773e-08
9.87010433928e-09
3.25577207059e-10
1.74486401548e-08
1.0189482499e-08
1.13505835047e-10
1.74783033835e-08
1.03872511374e-08
-1.12136704785e-10
1.74935865283e-08
1.04575093664e-08
-3.24297529042e-10
1.74779570205e-08
1.03872545113e-08
-4.95691774014e-10
1.7447966113e-08
1.01894890346e-08
-6.00862749709e-10
1.74009071909e-08
9.87011422498e-09
-6.17630618256e-10
1.7324238789e-08
9.43478175334e-09
-5.28399087151e-10
1.72093613946e-08
8.89464397224e-09
-3.18010992566e-10
1.70208568765e-08
8.26576312881e-09
1.67988335272e-08
7.5662339185e-09
3.43531077666e-13
3.30954102148e-10
1.54915804094e-08
7.44610791975e-09
7.23905058777e-13
5.4708805099e-10
1.56222157662e-08
8.14077842852e-09
6.38714387545e-10
1.57464343228e-08
8.76042970932e-09
6.2066407578e-10
1.58074900782e-08
9.2893314726e-09
5.1181057046e-10
1.5842577025e-08
9.71356595134e-09
3.35107699674e-10
1.58601648301e-08
1.00236813499e-08
1.16744784718e-10
1.58717641141e-08
1.02151167132e-08
-1.154194609e-10
1.58801060065e-08
1.02828521682e-08
-3.3386829092e-10
1.58714423223e-08
1.02151182807e-08
-5.10740440701e-10
1.58595396612e-08
1.00236843162e-08
-6.19840378159e-10
1.58416885891e-08
9.7135706768e-09
-6.38198457679e-10
1.58064074133e-08
9.28933761224e-09
-5.46908888831e-10
1.57452563798e-08
8.76043551051e-09
-3.31083856058e-10
1.56210724112e-08
8.14078130672e-09
1.54905785712e-08
7.44610901818e-09
3.52429501835e-13
3.40117615297e-10
1.39824746198e-08
7.18024934399e-09
6.84042007286e-13
5.58260253627e-10
1.40375276851e-08
7.86413102751e-09
6.50391185697e-10
1.41098716959e-08
8.47000260073e-09
6.30989179507e-10
1.4130423604e-08
8.98434532183e-09
5.19760499731e-10
1.41355203621e-08
9.39522999677e-09
3.40051518802e-10
1.41327713478e-08
9.69468295474e-09
1.18394243505e-10
1.41318631268e-08
9.87898734108e-09
-1.17129983884e-10
1.41351597204e-08
9.94388249583e-09
-3.38867941204e-10
1.41315743341e-08
9.87898738769e-09
-5.18734872924e-10
1.41322106709e-08
9.69468294507e-09
-6.30191535312e-10
1.41347240119e-08
9.39523043436e-09
-6.49876702433e-10
1.4129451245e-08
8.98434627514e-09
-5.58055367426e-10
1.41088075892e-08
8.47000306283e-09
-3.40202276835e-10
1.40364801021e-08
7.86412938331e-09
1.39815272886e-08
7.18024708356e-09
3.57299142378e-13
3.46169938247e-10
1.23826863437e-08
6.8073720703e-09
6.36808703021e-13
5.64070585254e-10
1.23796502323e-08
7.47809732347e-09
6.55806947872e-10
1.241252497e-08
8.06889917805e-09
6.35384570221e-10
1.24050679149e-08
8.56817659619e-09
5.22917845687e-10
1.23907440634e-08
8.9657172731e-09
3.41904191678e-10
1.2375703984e-08
9.25474379263e-09
1.1897568266e-10
1.23673141163e-08
9.43212548337e-09
-1.17783135816e-10
1.23673132143e-08
9.49422386478e-09
-3.40786032465e-10
1.23670629161e-08
9.4321244318e-09
-5.21944363465e-10
1.23752163594e-08
9.2547416491e-09
-6.34618577058e-10
1.23900506416e-08
8.96571462351e-09
-6.55297359671e-10
1.24042187916e-08
8.56817377838e-09
-5.63842069688e-10
1.24115886197e-08
8.0688957118e-09
-3.46209025182e-10
1.23787146993e-08
7.47809236212e-09
1.23818120168e-08
6.80736735646e-09
3.57986648716e-13
3.49646600555e-10
1.0771290699e-08
6.35800468556e-09
5.85226974517e-13
5.66126675295e-10
1.07263875782e-08
7.01544298339e-09
6.57246224062e-10
1.07306070094e-08
7.59181168516e-09
6.36217123704e-10
1.07059378949e-08
8.0770857164e-09
5.23243115379e-10
1.06812490605e-08
8.46247679572e-09
3.41932991232e-10
1.06606286052e-08
8.74213521381e-09
1.18925857778e-10
1.06488950031e-08
8.91329429696e-09
-1.17810953962e-10
1.06470596749e-08
8.97281781601e-09
-3.40885576285e-10
1.0648683261e-08
8.91329255632e-09
-5.22326346681e-10
1.06602173649e-08
8.74213174004e-09
-6.3548640008e-10
1.06806631217e-08
8.46247219908e-09
-6.56744922892e-10
1.07052165051e-08
8.07708048014e-09
-5.65877764222e-10
1.07298040244e-08
7.59180567664e-09
-3.49642274214e-10
1.07255716124e-08
7.01543593968e-09
1.07705008442e-08
6.35799847268e-09
3.54545085462e-13
3.50814494102e-10
9.20367934435e-09
5.85555230988e-09
5.29059597185e-13
5.65963422571e-10
9.12964479916e-09
6.50079864973e-09
6.56957060839e-10
9.11403995899e-09
7.06431655857e-09
6.35674789724e-10
9.08134785746e-09
7.53733223581e-09
5.22436574972e-10
9.05381078552e-09
7.91222348291e-09
3.41185767143e-10
9.03286606182e-09
8.18384946954e-09
1.18598376477e-10
9.02093458859e-09
8.34963910823e-09
-1.17563641365e-10
9.01838686795e-09
8.40686809905e-09
-3.40211339628e-10
9.02076263723e-09
8.34963698766e-09
-5.21578647221e-10
9.03253103344e-09
8.18384527111e-09
-6.34982049852e-10
9.05333103702e-09
7.91221779727e-09
-6.56467424022e-10
9.08075326442e-09
7.53732561816e-09
-5.6569851757e-10
9.11337025678e-09
7.06430911346e-09
-3.50771129823e-10
9.12895193472e-09
6.50079056727e-09
9.20298540396e-09
5.85554547584e-09
3.46722198296e-13
3.50217587972e-10
7.71726119461e-09
5.3174624036e-09
4.71229688167e-13
5.659746337e-10
7.62150683351e-09
5.95213416767e-09
6.57578751366e-10
7.59423913133e-09
6.50467507868e-09
6.3575927895e-10
7.56187023443e-09
6.9672947766e-09
5.21787533576e-10
7.53752714545e-09
7.33334229303e-09
3.40372675262e-10
7.51998542971e-09
7.59822720425e-09
1.18217857094e-10
7.50994141592e-09
7.75945836583e-09
-1.17262711345e-10
7.50745210909e-09
7.81466256061e-09
-3.39471110858e-10
7.50980759986e-09
7.75945606314e-09
-5.20989075381e-10
7.51972343036e-09
7.59822266553e-09
-6.35105861209e-10
7.5371507055e-09
7.33333607445e-09
-6.5710400642e-10
7.56139835551e-09
6.96728746561e-09
-5.65698357795e-10
7.59369866716e-09
6.50466696897e-09
-3.50139873908e-10
7.62093500746e-09
5.95212581364e-09
7.71666716774e-09
5.31745565171e-09
3.35224584385e-13
3.51316691876e-10
6.33333481793e-09
4.75638327129e-09
4.11894111615e-13
5.70986360198e-10
6.21995270941e-09
5.38218881136e-09
6.61816381246e-10
6.19210340364e-09
5.92552188617e-09
6.37350590653e-10
6.16747288902e-09
6.37940468498e-09
5.21391174778e-10
6.1500874642e-09
6.73803620865e-09
3.39392531579e-10
6.13773627465e-09
6.99726972615e-09
1.17737197245e-10
6.13052050468e-09
7.15461953704e-09
-1.1685839922e-10
6.12847452362e-09
7.20802551373e-09
-3.38561335709e-10
6.13042205191e-09
7.15461718386e-09
-5.20649811544e-10
6.13754289825e-09
6.99726511007e-09
-6.36736903636e-10
6.14980589908e-09
6.73802983816e-09
-6.61359305206e-10
6.16711549606e-09
6.37939717744e-09
-5.7070343376e-10
6.19168659412e-09
5.92551369455e-09
-3.51210004508e-10
6.21949729261e-09
5.38218075603e-09
6.33283865835e-09
4.75637706046e-09
3.18362183274e-13
3.79565720203e-10
4.18225319623e-09
3.47187577655e-13
5.03780598456e-09
5.94938475091e-10
4.80065781245e-09
4.9447832751e-09
6.74973429545e-10
5.33597417139e-09
4.92805695707e-09
6.41904597186e-10
5.78217638222e-09
4.91345289083e-09
5.21373351244e-10
6.13426435807e-09
4.90254027011e-09
3.38065141014e-10
6.38849089305e-09
4.8946791489e-09
1.17052682885e-10
6.54235100214e-09
4.88994961403e-09
-1.16245196379e-10
6.59408916774e-09
4.88835332179e-09
-3.37298831744e-10
6.54234872e-09
4.88988170866e-09
-5.20685050969e-10
6.38848643814e-09
4.89454534082e-09
-6.41325594211e-10
6.13425820126e-09
4.90234381575e-09
-6.74529176654e-10
5.78216915813e-09
4.91319965085e-09
-5.94647200096e-10
5.33596644609e-09
4.92775244738e-09
-3.79430569338e-10
4.80065078488e-09
4.9444376368e-09
4.18224734959e-09
2.94572738906e-13
5.03741046644e-09
-2.00202113956e-11
7.41733654139e-10
9.20530897707e-10
-5.51845676693e-14
-2.6485650616e-11
8.09858051371e-10
1.01323697778e-09
-2.91847522019e-11
8.84351478977e-10
1.10053957294e-09
-2.83541688707e-11
9.51267839757e-10
1.17863161332e-09
-2.36800383227e-11
1.00640093128e-09
1.24370220221e-09
-1.57607511153e-11
1.04772532618e-09
1.29266438131e-09
-5.60355888731e-12
1.0736468694e-09
1.32353361045e-09
5.35841804986e-12
1.08294911131e-09
1.33465224149e-09
1.55403320449e-11
1.07366410505e-09
1.32353852576e-09
2.3507120252e-11
1.04775323123e-09
1.29267398778e-09
2.82422784255e-11
1.00642331073e-09
1.24371573071e-09
2.91254994238e-11
9.51265070556e-10
1.17864763995e-09
2.64694508442e-11
8.84339649223e-10
1.10055601339e-09
2.0021076961e-11
8.09822286765e-10
1.01325161548e-09
7.41714887213e-10
9.20544581116e-10
-3.73376913979e-14
-2.95111145339e-11
2.04421031791e-09
2.64216944357e-09
-2.5882752869e-13
-3.94118220759e-11
2.21061975599e-09
2.91435849478e-09
-4.26355716199e-11
2.38847939716e-09
3.17090327785e-09
-4.07494619925e-11
2.54677918249e-09
3.40038893596e-09
-3.37401219525e-11
2.675840239e-09
3.59163568689e-09
-2.23991983486e-11
2.77157796209e-09
3.73556399776e-09
-8.09863538719e-12
2.83135672127e-09
3.82624775706e-09
7.30688038196e-12
2.8528435523e-09
3.85878820727e-09
2.16707824357e-11
2.83136228944e-09
3.8262616742e-09
3.31394687619e-11
2.771572385e-09
3.7355911015e-09
4.03264950619e-11
2.67579329467e-09
3.59167386851e-09
4.23988451759e-11
2.54666291811e-09
3.40043414421e-09
3.93452313922e-11
2.38832073365e-09
3.17094938406e-09
2.95572765684e-11
2.21043958062e-09
2.91439920877e-09
2.04408183991e-09
2.6422051569e-09
-1.40203796542e-13
-2.08889128113e-11
3.4238759418e-09
4.11628094543e-09
-1.76662674774e-13
-2.62309874188e-11
3.67548827801e-09
4.54490368309e-09
-2.66170716237e-11
3.93884560449e-09
4.9475793621e-09
-2.4225724184e-11
4.17086632709e-09
5.30666493765e-09
-1.94878810971e-11
4.35828335885e-09
5.60513675689e-09
-1.27688246868e-11
4.49602020393e-09
5.82930540204e-09
-4.6766218852e-12
4.58164362882e-09
5.97028497853e-09
3.99860897982e-12
4.61246414625e-09
6.02073151749e-09
1.21501843666e-11
4.5816300614e-09
5.97030477214e-09
1.89837579436e-11
4.49597475118e-09
5.82934389869e-09
2.38714607278e-11
4.35817428562e-09
5.6051909063e-09
2.64097669736e-11
4.17066794122e-09
5.30672891264e-09
2.61430411368e-11
3.93858420624e-09
4.94764433805e-09
2.08748892045e-11
3.67520896269e-09
4.54496058949e-09
3.42365217238e-09
4.11632961209e-09
-1.41440344482e-13
-1.5775101472e-12
4.64288859606e-09
5.30602932986e-09
-1.04581975994e-13
2.69655634456e-12
4.95224336195e-09
5.86029884016e-09
6.84862233988e-12
5.26838709974e-09
6.37809693773e-09
8.89275557799e-12
5.54350367939e-09
6.83756856373e-09
8.37378946138e-12
5.76347782763e-09
7.21789161271e-09
5.76259730897e-12
5.92357910153e-09
7.50260128412e-09
1.84512043207e-12
6.02263438673e-09
7.68118668683e-09
-2.39539499467e-12
6.05835975112e-09
7.74491894185e-09
-6.2636738173e-12
6.02259962102e-09
7.68120966096e-09
-8.78267957389e-12
5.9234934448e-09
7.50264597607e-09
-9.18550302215e-12
5.76331452643e-09
7.21795439345e-09
-7.03302270754e-12
5.54324436038e-09
6.83764258181e-09
-2.8010392566e-12
5.26805439251e-09
6.37817188104e-09
1.51643123864e-12
4.95188972788e-09
5.86036384656e-09
4.64258651873e-09
5.30608325133e-09
-1.33215181469e-13
2.34503253478e-11
5.57777125305e-09
6.20989033109e-09
-3.34624168382e-14
3.96779924836e-11
5.9154244846e-09
6.85777935751e-09
4.90180238097e-11
6.24965649716e-09
7.45861419979e-09
4.99394805124e-11
6.5365072078e-09
7.98841860954e-09
4.24991792639e-11
6.76314694619e-09
8.4246465623e-09
2.82809982454e-11
6.92634852316e-09
8.74985443547e-09
9.7378019736e-12
7.02680111059e-09
8.95319382045e-09
-1.01482314729e-11
7.06313252203e-09
9.02556193246e-09
-2.86555938286e-11
7.0267496177e-09
8.95321735695e-09
-4.28085045038e-11
6.92623294008e-09
8.74990020909e-09
-5.01694240196e-11
6.76294808932e-09
8.42471077248e-09
-4.91791602685e-11
6.53621228521e-09
7.98849416374e-09
-3.97943475937e-11
6.2492862025e-09
7.4586904719e-09
-2.35500508613e-11
5.91502161546e-09
6.85784504949e-09
5.57740936832e-09
6.20994354738e-09
-1.17205467123e-13
5.03054901512e-11
6.18303099806e-09
6.83727044437e-09
3.29317474936e-14
7.91979108796e-11
6.52402141155e-09
7.54863942302e-09
9.3674253773e-11
6.84712870773e-09
8.2027739544e-09
9.28900360829e-11
7.12018345352e-09
8.77544762498e-09
7.78690488913e-11
7.33286986151e-09
9.24416925823e-09
5.1465730074e-11
7.48417597175e-09
9.59197744648e-09
1.78341606377e-11
7.57677250485e-09
9.8086808958e-09
-1.81154560911e-11
7.61039241787e-09
9.88558038902e-09
-5.17245598138e-11
7.57670990997e-09
9.80870272884e-09
-7.80883329687e-11
7.48404176246e-09
9.59201993917e-09
-9.30641171156e-11
7.33265106598e-09
9.24422885998e-09
-9.38143280986e-11
7.11987259239e-09
8.77551773462e-09
-7.93239622015e-11
6.84674236332e-09
8.20284464438e-09
-5.04353073259e-11
6.52359549953e-09
7.54869998278e-09
6.18262637136e-09
6.8373187666e-09
-9.73832956954e-14
7.61659811331e-11
6.46433003914e-09
7.20872974778e-09
9.04654715734e-14
1.17448409731e-10
6.79075768147e-09
7.95777031386e-09
1.36593703573e-10
7.08230658559e-09
8.64032286182e-09
1.33756606435e-10
7.32443792602e-09
9.23335133101e-09
1.11232495524e-10
7.5097787403e-09
9.71571916257e-09
7.31997153289e-11
7.63977338973e-09
1.00719276479e-08
2.53956829522e-11
7.71880929963e-09
1.02930422854e-08
-2.55730338986e-11
7.74765563697e-09
1.03712514383e-08
-7.33660733004e-11
7.7187423641e-09
1.02930609093e-08
-1.11380846987e-10
7.63963348308e-09
1.00719639672e-08
-1.33887549337e-10
7.50955731771e-09
9.71577018298e-09
-1.36718137976e-10
7.32413069875e-09
9.23341143862e-09
-1.17582293187e-10
7.08192394061e-09
8.6403834865e-09
-7.63190484218e-11
6.79032872581e-09
7.95782205337e-09
6.46389829805e-09
7.2087707183e-09
-7.65478957559e-14
9.92161093915e-11
6.45804247836e-09
7.35308588972e-09
1.37564870331e-13
1.5201827664e-10
6.75918077507e-09
8.11958351001e-09
1.75182656482e-10
7.00790733655e-09
8.81168117515e-09
1.70190344367e-10
7.21030808275e-09
9.4084621101e-09
1.40746724527e-10
7.36187570863e-09
9.89092208743e-09
9.23170735225e-11
7.46637734149e-09
1.02455246282e-08
3.202262725e-11
7.52943019696e-09
1.04648184172e-08
-3.21262377328e-11
7.55260231545e-09
1.05420919187e-08
-9.24184792796e-11
7.52936432535e-09
1.04648331366e-08
-1.40846356936e-10
7.46624140516e-09
1.02455534396e-08
-1.70292890508e-10
7.36166387183e-09
9.89096270164e-09
-1.7529855138e-10
7.21001708446e-09
9.40851012463e-09
-1.52159146576e-10
7.00754320076e-09
8.81172965783e-09
-9.93873867164e-11
6.75876367338e-09
8.11962471583e-09
6.45760728904e-09
7.35311841177e-09
-5.63280138055e-14
1.18470474363e-10
6.21604627279e-09
7.30363735608e-09
1.7525709829e-13
1.81569366821e-10
6.48708713023e-09
8.07315091758e-09
2.08089267732e-10
6.68949720272e-09
8.76191007438e-09
2.01075714794e-10
6.8501197318e-09
9.35156029499e-09
1.65617866185e-10
6.96702874362e-09
9.82555013959e-09
1.08354468039e-10
7.04592900139e-09
1.0172417034e-08
3.75638297125e-11
7.09309917288e-09
1.03861395931e-08
-3.76233059929e-11
7.11059178716e-09
1.04611180446e-08
-1.08417822674e-10
7.09303890041e-09
1.0386150375e-08
-1.65690376774e-10
7.04580523465e-09
1.01724382651e-08
-2.01164423449e-10
6.9668366989e-09
9.82558024306e-09
-2.08203547319e-10
6.84985562311e-09
9.35159607756e-09
-1.81717775627e-10
6.68916240101e-09
8.76194624164e-09
-1.18654476985e-10
6.48669489552e-09
8.07318143372e-09
6.21561920611e-09
7.30366137305e-09
-3.81091407606e-14
1.33591991648e-10
5.79499563544e-09
7.09465329631e-09
2.03669125993e-13
2.05567739345e-10
6.03529983655e-09
7.85792804138e-09
2.34877751486e-10
6.19344674416e-09
8.5356568526e-09
2.26196456017e-10
6.31489507653e-09
9.11209955141e-09
1.85807065875e-10
6.40001425445e-09
9.5731414551e-09
1.21348198855e-10
6.45590931376e-09
9.90924826364e-09
4.20435403728e-11
6.48895177519e-09
1.01156099974e-08
-4.20846005798e-11
6.50134973753e-09
1.01876316565e-08
-1.21396772857e-10
6.48889986681e-09
1.01156172256e-08
-1.85871105428e-10
6.45580247475e-09
9.90926263381e-09
-2.26283943478e-10
6.39984756394e-09
9.57316201859e-09
-2.34996806508e-10
6.31466362621e-09
9.11212418317e-09
-2.05724315923e-10
6.19314829588e-09
8.53568173132e-09
-1.33785833374e-10
6.03494148932e-09
7.85794871211e-09
5.79459359623e-09
7.09466943103e-09
-2.13083509619e-14
1.44716452943e-10
5.24941939087e-09
6.75865895692e-09
2.25424133184e-13
2.24072848997e-10
5.46077062414e-09
7.51063170433e-09
2.55800927035e-10
5.57988150038e-09
8.1736659221e-09
2.46010101196e-10
5.6673710698e-09
8.73441956894e-09
2.01829735909e-10
5.72569873173e-09
9.18099532319e-09
1.31693111334e-10
5.7626980273e-09
9.50551112176e-09
4.56095252191e-11
5.78427685107e-09
9.70408557408e-09
-4.56531357737e-11
5.79249436501e-09
9.77297294221e-09
-1.31745814252e-10
5.78423482649e-09
9.70408980569e-09
-2.01900371239e-10
5.76261067314e-09
9.50551967929e-09
-2.46106400077e-10
5.72556026314e-09
9.18100775996e-09
-2.55929673896e-10
5.6671747267e-09
8.73443464287e-09
-2.2423825745e-10
5.5796218424e-09
8.17368106864e-09
-1.44916784228e-10
5.46045083922e-09
7.51064385138e-09
5.24904841053e-09
6.75866820029e-09
-6.23614687313e-15
1.52263061695e-10
4.62782210392e-09
6.3246613555e-09
2.42003101892e-13
2.37602765198e-10
4.81288351378e-09
7.06336001763e-09
2.71725937677e-10
4.89923727902e-09
7.71085418644e-09
2.61578258418e-10
4.95903984068e-09
8.25583126037e-09
2.14672826923e-10
4.99654220008e-09
8.68830912435e-09
1.40072230678e-10
5.01942275074e-09
9.00175319087e-09
4.85059259305e-11
5.03257887722e-09
9.19293533909e-09
-4.85681853174e-11
5.0376683238e-09
9.25880312326e-09
-1.40143384927e-10
5.03254693307e-09
9.19293713202e-09
-2.1476116893e-10
5.01935474909e-09
9.00175698471e-09
-2.61690518795e-10
4.99643167533e-09
8.68831485121e-09
-2.71867659294e-10
4.95887749666e-09
8.25583838057e-09
-2.37776722014e-10
4.89901560813e-09
7.71086120122e-09
-1.52467811841e-10
4.81260122351e-09
7.06336504776e-09
4.62748554133e-09
6.32466482966e-09
8.63200518601e-15
1.56811652402e-10
3.97099817337e-09
5.81723585196e-09
2.55268673644e-13
2.47312307682e-10
4.13174124373e-09
6.54278961833e-09
2.84427596353e-10
4.19115338491e-09
7.17566106124e-09
2.74768353888e-10
4.22986603181e-09
7.7061471947e-09
2.25877423338e-10
4.25289728512e-09
8.12590194178e-09
1.4747606723e-10
4.26660501695e-09
8.42947312239e-09
5.10734723054e-11
4.27441288801e-09
8.61405707515e-09
-5.11659379e-11
4.27743919247e-09
8.67716333071e-09
-1.47575849287e-10
4.27438971084e-09
8.61405691964e-09
-2.25990610648e-10
4.26655480857e-09
8.42947307839e-09
-2.74900784346e-10
4.25281151514e-09
8.12590220242e-09
-2.84583276652e-10
4.22973483125e-09
7.70614777289e-09
-2.47494249311e-10
4.19096535851e-09
7.17566136705e-09
-1.5701792353e-10
4.13149339857e-09
6.54278882421e-09
3.97069256996e-09
5.8172346809e-09
2.42489415992e-14
1.58401660245e-10
3.31244103512e-09
5.25629057735e-09
2.65851956247e-13
2.54950353985e-10
3.44718668185e-09
5.9702091559e-09
2.96737900226e-10
3.48461188114e-09
6.59029193599e-09
2.88296863271e-10
3.50957955914e-09
7.10815318813e-09
2.37521269825e-10
3.5248086362e-09
7.51692305537e-09
1.55184750843e-10
3.53420717134e-09
7.81203013846e-09
5.37445401068e-11
3.53958020993e-09
7.99092042372e-09
-5.38748054998e-11
3.54154858725e-09
8.05156533034e-09
-1.55318868614e-10
3.53956381524e-09
7.99091877346e-09
-2.37663519192e-10
3.53416955351e-09
7.81202711642e-09
-2.88450402576e-10
3.52474234495e-09
7.5169190187e-09
-2.96907586746e-10
3.50947266944e-09
7.1081485466e-09
-2.55138418525e-10
3.48445346341e-09
6.59028685468e-09
-1.58607827588e-10
3.44696727786e-09
5.97020374623e-09
3.31215949426e-09
5.25628581646e-09
4.20297391114e-14
1.44292302601e-10
4.65667147848e-09
2.73217865682e-13
2.69347627458e-09
2.59387083148e-10
5.36162496174e-09
2.77113987395e-09
3.10144138596e-10
5.9709745439e-09
2.79887263436e-09
3.04067843615e-10
6.47826369779e-09
2.81958745177e-09
2.51369383529e-10
6.87791982525e-09
2.83387463403e-09
1.64452508655e-10
7.16604608259e-09
2.84359362943e-09
5.69754082879e-11
7.34018382836e-09
2.84925086576e-09
-5.71458237712e-11
7.39868326809e-09
2.8511034263e-09
-1.64623802959e-10
7.34018115609e-09
2.84923724615e-09
-2.5154164798e-10
7.16604100749e-09
2.84356304191e-09
-3.04243456286e-10
6.87791278614e-09
2.83381956826e-09
-3.10326051511e-10
6.47825535974e-09
2.81949851693e-09
-2.59580493026e-10
5.970965624e-09
2.79873656812e-09
-1.44497908002e-10
5.36161641805e-09
2.77094515761e-09
4.65666416732e-09
6.29538155316e-14
2.69320587741e-09
8.24468789819e-12
4.02118564492e-11
8.7215878796e-10
-2.97605272998e-14
1.59114442297e-11
4.12619746601e-11
9.64342590939e-10
2.01795236345e-11
4.47262963559e-11
1.05158208079e-09
2.07684855399e-11
4.8109528452e-11
1.12994837491e-09
1.77771662362e-11
5.12744006365e-11
1.19545840187e-09
1.19207642074e-11
5.37055778118e-11
1.24487483188e-09
4.18861091701e-12
5.52562921732e-11
1.27607099853e-09
-4.21372171525e-12
5.58148577341e-11
1.28729405838e-09
-1.19491952367e-11
5.52462127982e-11
1.27607523158e-09
-1.78086354786e-11
5.36930001905e-11
1.24488291138e-09
-2.07937147059e-11
5.12702216432e-11
1.19546958835e-09
-2.01846202269e-11
4.81137124748e-11
1.12996164153e-09
-1.59042843903e-11
4.47147577228e-11
1.05159597391e-09
-8.22686997479e-12
4.12519284582e-11
9.64355700044e-10
4.0188963606e-11
8.72172459298e-10
-1.21039640124e-14
1.94634548971e-11
2.6018566986e-10
2.40300482159e-09
-1.93737296846e-13
3.66767913812e-11
2.81962903311e-10
2.65650765451e-09
4.64851094332e-11
3.09972082572e-10
2.89589780133e-09
4.76497919289e-11
3.36951803545e-10
3.11042284264e-09
4.06619183775e-11
3.60543155478e-10
3.2894258142e-09
2.71536281415e-11
3.78597721572e-10
3.42427391954e-09
9.43084269879e-12
3.90029877717e-10
3.50929135676e-09
-9.77392605758e-12
3.94098340116e-10
3.5397944104e-09
-2.74850038909e-11
3.89989299237e-10
3.50930477935e-09
-4.09608244646e-11
3.7852826216e-10
3.42429933899e-09
-4.78799301855e-11
3.60465057353e-10
3.2894606741e-09
-4.66107577764e-11
3.36873971737e-10
3.11046360594e-09
-3.67030208127e-11
3.0987249234e-10
2.89593986685e-09
-1.94112357736e-11
2.81865406871e-10
2.65654665585e-09
2.60091988764e-10
2.40304254533e-09
-1.02924895406e-13
2.71468153742e-11
6.43519040275e-10
3.70603005947e-09
-1.63476649378e-13
5.019565719e-11
7.03189813956e-10
4.10068168323e-09
6.32805242125e-11
7.72015284533e-10
4.47248712134e-09
6.46138192254e-11
8.37363141112e-10
4.80495772316e-09
5.50187059082e-11
8.93427740529e-10
5.08191037405e-09
3.67086414145e-11
9.3601933792e-10
5.29027665954e-09
1.28003368733e-11
9.62852183272e-10
5.4214550183e-09
-1.30592392052e-11
9.72380362679e-10
5.46838565067e-09
-3.69627952917e-11
9.62792056582e-10
5.42147415134e-09
-5.52539612038e-11
9.3591255706e-10
5.29031308465e-09
-6.47993189782e-11
8.93298571153e-10
5.08196058076e-09
-6.33843192395e-11
8.37225907305e-10
4.80501660156e-09
-5.02195176217e-11
7.71856056663e-10
4.4725478413e-09
-2.71112611528e-11
7.03029026999e-10
4.10073746176e-09
6.43372797592e-10
3.70608240866e-09
-9.98369275971e-14
3.40168690032e-11
1.1201943051e-09
4.7955372337e-09
-1.41717535795e-13
6.13594802387e-11
1.2244016234e-09
5.31178848908e-09
7.65712194086e-11
1.33846933302e-09
5.79646580733e-09
7.77676303397e-11
1.44521353667e-09
6.22856265478e-09
6.60298256384e-11
1.53549562149e-09
6.58762133861e-09
4.39917611301e-11
1.60349665437e-09
6.85723492866e-09
1.53508951932e-11
1.64610178456e-09
7.02665188193e-09
-1.55734278264e-11
1.66120362277e-09
7.08708868109e-09
-4.42119309244e-11
1.64602762072e-09
7.02667512181e-09
-6.62367461221e-11
1.60336155819e-09
6.85727924128e-09
-7.79359560972e-11
1.53532346042e-09
6.58768246115e-09
-7.66736708779e-11
1.44502300707e-09
6.22863413779e-09
-6.13951281212e-11
1.33825878329e-09
5.79653896651e-09
-3.4001974388e-11
1.22419031787e-09
5.31185455098e-09
1.12000185672e-09
4.7955966913e-09
-1.0341531166e-13
4.17568806264e-11
1.61764848169e-09
5.67084257199e-09
-1.12674722722e-13
7.31852002331e-11
1.76325066172e-09
6.28753199478e-09
9.01739022428e-11
1.91643378725e-09
6.86368915161e-09
9.1007818029e-11
2.05762895431e-09
7.37520392839e-09
7.70295133337e-11
2.1753850432e-09
7.79878646419e-09
5.12465879553e-11
2.26322303533e-09
8.1159736175e-09
1.78898874615e-11
2.31791532149e-09
8.31480128636e-09
-1.80722309876e-11
2.33727036658e-09
8.3855183154e-09
-5.1429339359e-11
2.31783197067e-09
8.31482654074e-09
-7.7205779004e-11
2.26306887534e-09
8.11602187003e-09
-9.11584360029e-11
2.17518333718e-09
7.79885304364e-09
-9.02765685328e-11
2.05740080179e-09
7.37528155283e-09
-7.32367983397e-11
1.91618614089e-09
6.8637679522e-09
-4.17669285512e-11
1.76300511955e-09
6.28760196207e-09
1.61741792547e-09
5.67090310933e-09
-1.04088846849e-13
5.10446254944e-11
2.07171542325e-09
6.33227387483e-09
-7.68505912758e-14
8.7099023838e-11
2.24864055422e-09
7.02722193072e-09
1.05949750431e-10
2.42792547104e-09
7.67245699362e-09
1.06230707677e-10
2.59056239195e-09