/*--------------------------------*- C++ -*----------------------------------*\
  =========                 |
  \\      /  F ield         | OpenFOAM: The Open Source CFD Toolbox
   \\    /   O peration     | Website:  https://openfoam.org
    \\  /    A nd           | Version:  7
     \\/     M anipulation  |
\*---------------------------------------------------------------------------*/
FoamFile
{
    version     2.0;
    format      ascii;
    class       volScalarField;
    location    "0.08";
    object      p;
}
// * * * * * * * * * * * * * * * * * * * * * * * * * * * * * * * * * * * * * //

dimensions      [0 2 -2 0 0 0 0];

internalField   nonuniform List<scalar> 
22500
(
1.12547209286e-05
1.1253047128e-05
1.12526710757e-05
1.1252020436e-05
1.12515566785e-05
1.12511966306e-05
1.12509764557e-05
1.12508995634e-05
1.12509802056e-05
1.12512040193e-05
1.12515675929e-05
1.12520343412e-05
1.12526875246e-05
1.1253064332e-05
1.12547384012e-05
1.1232188152e-05
1.12293615064e-05
1.12280178684e-05
1.12265228362e-05
1.12253735476e-05
1.12245092315e-05
1.12239810539e-05
1.12238014753e-05
1.12239849797e-05
1.12245169749e-05
1.12253849533e-05
1.12265374256e-05
1.12280350255e-05
1.12293794876e-05
1.12322064055e-05
1.12105641307e-05
1.12066846493e-05
1.12045199369e-05
1.12022861238e-05
1.12005483906e-05
1.11992510468e-05
1.119845909e-05
1.1198191318e-05
1.11984628634e-05
1.11992584853e-05
1.12005593172e-05
1.12023001239e-05
1.12045363984e-05
1.12067020081e-05
1.12105820829e-05
1.1191325241e-05
1.11865788304e-05
1.11837618295e-05
1.11809535391e-05
1.11787596759e-05
1.11771296188e-05
1.11761356364e-05
1.11758004122e-05
1.11761391554e-05
1.11771365585e-05
1.11787698468e-05
1.11809665666e-05
1.11837772083e-05
1.1186595163e-05
1.11913426022e-05
1.11734034336e-05
1.11679166685e-05
1.1164548041e-05
1.11612765927e-05
1.11587137119e-05
1.11568178147e-05
1.11556630469e-05
1.11552743468e-05
1.11556663258e-05
1.11568242784e-05
1.11587231791e-05
1.11612887181e-05
1.11645624043e-05
1.11679320095e-05
1.11734200835e-05
1.11565458263e-05
1.11504433898e-05
1.11466158197e-05
1.11429827151e-05
1.11401307072e-05
1.11380298042e-05
1.11367516877e-05
1.11363221173e-05
1.11367547203e-05
1.11380357885e-05
1.11401394677e-05
1.11429939448e-05
1.11466291318e-05
1.11504577583e-05
1.11565617726e-05
1.11408146987e-05
1.11342277867e-05
1.11300335427e-05
1.11261371133e-05
1.11230735877e-05
1.11208259589e-05
1.11194602299e-05
1.11190017881e-05
1.11194630338e-05
1.11208314941e-05
1.11230816922e-05
1.11261475139e-05
1.11300458896e-05
1.11342412031e-05
1.11408299581e-05
1.11262219922e-05
1.11192776132e-05
1.11148017493e-05
1.11107309613e-05
1.11075261156e-05
1.11051836268e-05
1.11037619717e-05
1.11032852697e-05
1.11037645628e-05
1.11051887418e-05
1.11075336138e-05
1.11107405961e-05
1.11148132048e-05
1.1119290165e-05
1.11262366464e-05
1.11127293161e-05
1.11055457346e-05
1.11008652773e-05
1.10966984584e-05
1.10934141143e-05
1.10910215268e-05
1.10895711725e-05
1.10890853002e-05
1.10895735766e-05
1.10910262752e-05
1.1093421082e-05
1.10967074365e-05
1.11008759666e-05
1.11055575647e-05
1.11127434437e-05
1.11002840496e-05
1.10929698867e-05
1.10881564855e-05
1.10839627509e-05
1.10806533112e-05
1.1078249094e-05
1.10767932938e-05
1.10763059887e-05
1.1076795538e-05
1.10782535307e-05
1.10806598315e-05
1.10839711771e-05
1.10881665479e-05
1.10929811455e-05
1.11002978418e-05
1.10888265809e-05
1.10814813575e-05
1.10766054383e-05
1.10724465574e-05
1.10691599146e-05
1.10667770253e-05
1.10653355767e-05
1.10648534191e-05
1.10653376909e-05
1.10667812077e-05
1.10691660768e-05
1.10724545507e-05
1.10766150185e-05
1.10814922068e-05
1.10888401905e-05
1.10782767654e-05
1.10710051359e-05
1.10661454236e-05
1.10620775447e-05
1.10588549014e-05
1.10565210211e-05
1.1055110553e-05
1.1054639103e-05
1.10551125632e-05
1.10565250116e-05
1.10588607934e-05
1.10620852268e-05
1.1066154674e-05
1.10710157411e-05
1.107829033e-05
1.10684969116e-05
1.10614691029e-05
1.10567280399e-05
1.10527983345e-05
1.10496715532e-05
1.10474087732e-05
1.10460431186e-05
1.10455870622e-05
1.10460450572e-05
1.10474126159e-05
1.10496772621e-05
1.10528058215e-05
1.10567371178e-05
1.10614796478e-05
1.10685105969e-05
1.10594500816e-05
1.10528882729e-05
1.10483221415e-05
1.10445506193e-05
1.10415382863e-05
1.10393658284e-05
1.10380586671e-05
1.10376229238e-05
1.10380605483e-05
1.10393695744e-05
1.10415438836e-05
1.10445580356e-05
1.10483312122e-05
1.10528989693e-05
1.1059464017e-05
1.10522027064e-05
1.10450833082e-05
1.10406989939e-05
1.10370606367e-05
1.10341881152e-05
1.10321398016e-05
1.10309150196e-05
1.10305078712e-05
1.10309168704e-05
1.1032143489e-05
1.10341936585e-05
1.10370680639e-05
1.10407082643e-05
1.10450944093e-05
1.10522166513e-05
8.61677291805e-06
8.61731600123e-06
8.61770845351e-06
8.61805461081e-06
8.61834146398e-06
8.61855659775e-06
8.61869066396e-06
8.61873547607e-06
8.61868828884e-06
8.61855202102e-06
8.61833512945e-06
8.61804732706e-06
8.61770066606e-06
8.61730864707e-06
8.61676624184e-06
8.6191710006e-06
8.61980279516e-06
8.62028692097e-06
8.62071645086e-06
8.62107366049e-06
8.62134147714e-06
8.62150823581e-06
8.62156422061e-06
8.62150581719e-06
8.62133681923e-06
8.62106721514e-06
8.62070902558e-06
8.62027912934e-06
8.61979538568e-06
8.61916437029e-06
8.62179718793e-06
8.62259286601e-06
8.62321776846e-06
8.62378066455e-06
8.62425247846e-06
8.62460761416e-06
8.62482916435e-06
8.62490390446e-06
8.6248268254e-06
8.62460310793e-06
8.6242462228e-06
8.6237733794e-06
8.62321013086e-06
8.62258547396e-06
8.62179059451e-06
8.62486755495e-06
8.62594977308e-06
8.62680599647e-06
8.62758345027e-06
8.6282388983e-06
8.62873394186e-06
8.62904321534e-06
8.62914792078e-06
8.62904099504e-06
8.62872965881e-06
8.62823291845e-06
8.62757639026e-06
8.62679852497e-06
8.62594245567e-06
8.62486099507e-06
8.62870843504e-06
8.6302025588e-06
8.63138039455e-06
8.63245064876e-06
8.63335396937e-06
8.63403658366e-06
8.63446285605e-06
8.63460739416e-06
8.63446076014e-06
8.63403253868e-06
8.63334829625e-06
8.63244388904e-06
8.63137315384e-06
8.630195395e-06
8.62870195408e-06
8.63337726639e-06
8.6353831019e-06
8.63694827248e-06
8.63836549558e-06
8.63955915935e-06
8.64045975714e-06
8.64102120565e-06
8.64121162148e-06
8.64101925339e-06
8.64045598565e-06
8.63955384893e-06
8.63835910679e-06
8.63694135684e-06
8.63537611235e-06
8.63337096503e-06
8.63879885224e-06
8.64138104814e-06
8.64337015647e-06
8.64516019719e-06
8.64666219296e-06
8.6477922903e-06
8.6484951549e-06
8.64873340651e-06
8.64849335917e-06
8.64778881678e-06
8.6466572871e-06
8.64515424677e-06
8.64336365572e-06
8.64137434676e-06
8.63879278242e-06
8.64485042162e-06
8.64803631884e-06
8.65045788809e-06
8.65261979295e-06
8.6544255387e-06
8.6557795617e-06
8.65661942292e-06
8.65690384666e-06
8.65661779415e-06
8.65577640781e-06
8.65442106809e-06
8.65261432897e-06
8.65045184441e-06
8.64802997914e-06
8.64484460197e-06
8.65138847291e-06
8.65516937956e-06
8.65800698153e-06
8.66051691006e-06
8.6626029997e-06
8.66416139498e-06
8.66512522098e-06
8.66545123968e-06
8.66512376129e-06
8.66415856594e-06
8.66259897588e-06
8.66051195964e-06
8.6580014412e-06
8.6551634586e-06
8.65138298771e-06
8.65826289528e-06
8.66259772361e-06
8.66581400159e-06
8.66863024297e-06
8.6709589857e-06
8.67269181545e-06
8.67376026939e-06
8.67412118543e-06
8.67375897578e-06
8.67268930538e-06
8.67095540408e-06
8.66862580756e-06
8.66580897732e-06
8.66259225359e-06
8.65825776639e-06
8.66532690851e-06
8.67014685859e-06
8.67368785064e-06
8.67675656328e-06
8.67928082615e-06
8.68115137802e-06
8.68230105474e-06
8.68268881055e-06
8.68229991668e-06
8.68114916684e-06
8.67927766381e-06
8.67675262873e-06
8.67368334751e-06
8.67014187401e-06
8.66532219958e-06
8.67243634681e-06
8.67765168161e-06
8.68145362145e-06
8.68471614762e-06
8.68738475187e-06
8.68935325234e-06
8.69055888811e-06
8.69096480411e-06
8.69055788803e-06
8.68935130731e-06
8.6873819647e-06
8.68471267222e-06
8.68144961625e-06
8.6776472045e-06
8.67243211802e-06
8.67944595647e-06
8.68496447694e-06
8.68896453791e-06
8.69236260098e-06
8.69512308174e-06
8.69714833271e-06
8.69838377713e-06
8.69879889522e-06
8.69838288998e-06
8.69714660408e-06
8.69512060986e-06
8.6923595187e-06
8.6889609806e-06
8.68496047723e-06
8.67944219611e-06
8.68633644009e-06
8.69208118558e-06
8.69617592396e-06
8.6996278053e-06
8.70240634372e-06
8.7044315875e-06
8.70566171243e-06
8.70607410629e-06
8.70566091086e-06
8.70443002591e-06
8.70240410412e-06
8.69962503129e-06
8.69617274213e-06
8.69207765724e-06
8.686333096e-06
8.69375889979e-06
8.69907546479e-06
8.70307245782e-06
8.70644421464e-06
8.70912158368e-06
8.71105881217e-06
8.71223037943e-06
8.71262229889e-06
8.71222964826e-06
8.71105738841e-06
8.70911954535e-06
8.70644169932e-06
8.70306962276e-06
8.69907245631e-06
8.6937559825e-06
9.17550613393e-06
9.17533156322e-06
9.1751312041e-06
9.17491237144e-06
9.17471074665e-06
9.17454977646e-06
9.17444655127e-06
9.17441111748e-06
9.17444740901e-06
9.17455136529e-06
9.17471281225e-06
9.17491469104e-06
9.17513417447e-06
9.17533477513e-06
9.17550996939e-06
9.17567392808e-06
9.17551166933e-06
9.17532077377e-06
9.17510963501e-06
9.17491370914e-06
9.17475643587e-06
9.17465518452e-06
9.17462034152e-06
9.17465606662e-06
9.17475807557e-06
9.1749158517e-06
9.17511205963e-06
9.17532376593e-06
9.17551500324e-06
9.17567783153e-06
9.17603577651e-06
9.17589528416e-06
9.17572550962e-06
9.17553115281e-06
9.17534839646e-06
9.17520031612e-06
9.17510443186e-06
9.17507133642e-06
9.17510530132e-06
9.17520194384e-06
9.17535055868e-06
9.175533648e-06
9.17572851624e-06
9.17589865054e-06
9.17603969209e-06
9.17630252403e-06
9.17617089674e-06
9.17601247241e-06
9.17582665993e-06
9.17565060828e-06
9.17550715806e-06
9.17541393505e-06
9.17538169753e-06
9.17541477766e-06
9.17550875043e-06
9.17565276892e-06
9.17582920289e-06
9.17601548315e-06
9.17617422178e-06
9.17630647039e-06
9.17645724084e-06
9.17632642988e-06
9.1761733729e-06
9.1759919403e-06
9.17581985214e-06
9.17567944051e-06
9.17558809465e-06
9.17555648883e-06
9.17558891315e-06
9.17568099659e-06
9.17582199115e-06
9.17599449682e-06
9.17617638897e-06
9.17632971535e-06
9.17646121294e-06
9.17654715302e-06
9.1764170821e-06
9.17627006085e-06
9.17609486241e-06
9.175929157e-06
9.17579411137e-06
9.17570629755e-06
9.1756759213e-06
9.17570708693e-06
9.17579562137e-06
9.17593125927e-06
9.17609740793e-06
9.17627305153e-06
9.17642034692e-06
9.17655110975e-06
9.17660877724e-06
9.17648487382e-06
9.17634853492e-06
9.17618494959e-06
9.176030906e-06
9.1759056363e-06
9.1758242829e-06
9.17579616391e-06
9.17582504184e-06
9.17590709429e-06
9.17603295554e-06
9.17618746137e-06
9.17635148486e-06
9.17648810766e-06
9.17661273158e-06
9.17666984846e-06
9.17656092252e-06
9.17644199183e-06
9.17629694799e-06
9.1761609527e-06
9.1760505868e-06
9.1759790143e-06
9.17595430394e-06
9.17597974023e-06
9.17605198789e-06
9.17616294148e-06
9.17629941575e-06
9.17644489703e-06
9.17656411819e-06
9.1766738192e-06
9.1767532542e-06
9.17666952043e-06
9.17657524107e-06
9.17645563917e-06
9.17634379798e-06
9.17625311174e-06
9.17619436272e-06
9.17617410843e-06
9.17619505486e-06
9.17625445355e-06
9.1763457186e-06
9.17645805104e-06
9.17657809972e-06
9.17667268142e-06
9.17675723221e-06
9.17687619626e-06
9.17682734264e-06
9.17676401364e-06
9.17667540678e-06
9.17659247759e-06
9.17652511527e-06
9.17648147418e-06
9.17646645602e-06
9.17648213345e-06
9.17652639845e-06
9.17659433021e-06
9.17667776196e-06
9.17676682695e-06
9.17683048068e-06
9.17688018731e-06
9.17704927024e-06
9.17704269711e-06
9.17701452992e-06
9.17696032008e-06
9.17690911895e-06
9.17686719448e-06
9.17683996227e-06
9.17683061894e-06
9.17684058796e-06
9.17686841717e-06
9.17691089916e-06
9.17696261164e-06
9.17701729122e-06
9.17704580792e-06
9.17705326889e-06
9.17727469194e-06
9.1773145423e-06
9.17732341084e-06
9.17730492042e-06
9.17728648411e-06
9.17727076434e-06
9.17726038228e-06
9.17725685958e-06
9.17726097315e-06
9.17727192526e-06
9.17728818888e-06
9.17730714099e-06
9.17732611273e-06
9.17731761123e-06
9.17727867221e-06
9.1775487249e-06
9.1776365317e-06
9.17768203261e-06
9.17769823209e-06
9.17771185001e-06
9.17772183376e-06
9.17772796788e-06
9.17773013552e-06
9.17772852228e-06
9.17772292812e-06
9.17771346847e-06
9.17770036808e-06
9.17768465759e-06
9.17763954441e-06
9.17755266239e-06
9.17790089916e-06
9.17803483891e-06
9.17809953234e-06
9.17813934853e-06
9.17817689886e-06
9.1782066331e-06
9.17822552095e-06
9.17823209812e-06
9.17822603742e-06
9.17820765005e-06
9.17817841972e-06
9.17814137667e-06
9.1781020577e-06
9.17803778524e-06
9.17790473145e-06
9.1785135605e-06
9.17853624627e-06
9.17857206766e-06
9.17860760434e-06
9.17864828886e-06
9.1786822933e-06
9.17870428346e-06
9.17871196785e-06
9.17870476504e-06
9.17868325043e-06
9.17864972254e-06
9.17860954189e-06
9.17857452908e-06
9.17853920634e-06
9.17851728324e-06
7.89139328263e-06
7.89151785774e-06
7.89166400485e-06
7.89181112015e-06
7.8919429306e-06
7.89204589146e-06
7.89211126383e-06
7.89213350993e-06
7.89211048712e-06
7.89204439112e-06
7.8919408445e-06
7.89180878957e-06
7.89166163471e-06
7.89151594728e-06
7.89139157008e-06
7.89149972116e-06
7.89162361349e-06
7.89177129483e-06
7.89192055489e-06
7.89205487816e-06
7.89216016782e-06
7.89222717827e-06
7.89225002206e-06
7.89222635715e-06
7.89215858186e-06
7.8920526794e-06
7.89191808973e-06
7.89176886069e-06
7.89162161409e-06
7.89149808412e-06
7.89147094335e-06
7.89158443084e-06
7.89172365456e-06
7.89186609702e-06
7.89199559414e-06
7.89209775739e-06
7.89216304995e-06
7.89218537236e-06
7.89216227624e-06
7.89209626475e-06
7.89199352829e-06
7.89186375655e-06
7.89172136079e-06
7.89158246007e-06
7.89146938965e-06
7.89143096341e-06
7.89153597472e-06
7.8916681669e-06
7.89180400293e-06
7.89192858352e-06
7.89202738971e-06
7.89209076313e-06
7.89211248632e-06
7.89209006166e-06
7.89202603888e-06
7.89192671542e-06
7.89180186817e-06
7.89166605567e-06
7.89153411124e-06
7.89142949012e-06
7.89140440395e-06
7.89150284439e-06
7.89162983244e-06
7.89175970518e-06
7.89187957919e-06
7.89197499325e-06
7.89203635786e-06
7.89205743392e-06
7.89203572024e-06
7.89197376817e-06
7.89187788282e-06
7.89175776057e-06
7.89162788258e-06
7.89150110328e-06
7.89140302264e-06
7.89138081697e-06
7.89147314002e-06
7.89159547324e-06
7.89171923141e-06
7.89183399212e-06
7.89192558766e-06
7.89198462179e-06
7.89200493613e-06
7.89198405297e-06
7.89192449519e-06
7.89183248047e-06
7.89171748638e-06
7.89159371156e-06
7.89147149825e-06
7.89137957642e-06
7.89135462747e-06
7.89144106054e-06
7.89155926235e-06
7.89167688356e-06
7.89178631979e-06
7.89187385219e-06
7.89193036519e-06
7.8919498446e-06
7.89192986232e-06
7.89187288609e-06
7.89178498303e-06
7.89167533022e-06
7.8915576881e-06
7.89143953694e-06
7.89135351804e-06
7.89132563886e-06
7.89140697785e-06
7.8915219501e-06
7.89163391873e-06
7.89173831168e-06
7.89182194488e-06
7.89187601647e-06
7.89189468096e-06
7.89187557985e-06
7.89182110649e-06
7.89173714809e-06
7.89163255667e-06
7.89152054685e-06
7.89140557868e-06
7.89132462926e-06
7.89129538416e-06
7.89137323048e-06
7.89148622948e-06
7.89159353254e-06
7.89169358881e-06
7.89177382904e-06
7.89182575194e-06
7.89184369405e-06
7.89182537624e-06
7.89177310774e-06
7.89169258466e-06
7.89159234776e-06
7.89148498787e-06
7.89137195106e-06
7.89129448596e-06
7.89126621791e-06
7.89134290381e-06
7.89145536578e-06
7.89155923423e-06
7.89165587132e-06
7.89173339019e-06
7.89178356189e-06
7.89180091033e-06
7.89178324161e-06
7.89173277513e-06
7.89165501219e-06
7.89155820928e-06
7.89145426895e-06
7.89134173011e-06
7.8912654153e-06
7.89124086036e-06
7.89131929393e-06
7.89143256802e-06
7.89153418249e-06
7.89162828691e-06
7.89170371917e-06
7.89175250789e-06
7.89176937698e-06
7.89175223663e-06
7.89170319834e-06
7.89162755619e-06
7.89153330393e-06
7.89143160856e-06
7.891318233e-06
7.89124016296e-06
7.89122106439e-06
7.89130458768e-06
7.89141983841e-06
7.8915202757e-06
7.89161268431e-06
7.89168662002e-06
7.89173435004e-06
7.89175083752e-06
7.89173412017e-06
7.89168617812e-06
7.89161206329e-06
7.89151952355e-06
7.89141900562e-06
7.89130364745e-06
7.89122048946e-06
7.89120670859e-06
7.89129881298e-06
7.891417229e-06
7.89151770726e-06
7.89160957656e-06
7.89168282481e-06
7.89172993466e-06
7.89174617084e-06
7.89172973736e-06
7.89168244641e-06
7.89160904343e-06
7.89151706259e-06
7.89141651027e-06
7.89129799315e-06
7.89120625284e-06
7.89121472718e-06
7.89131892917e-06
7.89143454062e-06
7.89153227918e-06
7.89162198727e-06
7.89169323563e-06
7.89173880718e-06
7.89175445568e-06
7.89173863603e-06
7.89169290373e-06
7.89162152116e-06
7.89153171778e-06
7.89143392251e-06
7.89131824046e-06
7.89121439458e-06
7.89139891341e-06
7.89144900644e-06
7.89152336426e-06
7.89159123204e-06
7.89165792499e-06
7.89171162218e-06
7.89174605086e-06
7.89175787013e-06
7.89174590495e-06
7.89171134343e-06
7.89165753263e-06
7.89159076801e-06
7.89152287434e-06
7.89144850128e-06
7.89139867475e-06
7.76882478533e-06
7.76875022292e-06
7.76866471645e-06
7.76857392731e-06
7.76849113656e-06
7.76842515308e-06
7.76838289085e-06
7.7683683352e-06
7.76838301905e-06
7.76842531737e-06
7.76849115945e-06
7.76857381033e-06
7.76866467658e-06
7.76875002952e-06
7.76882498774e-06
7.76883884456e-06
7.76876792371e-06
7.76868471774e-06
7.7685954312e-06
7.76851349545e-06
7.76844791863e-06
7.7684057784e-06
7.76839123088e-06
7.76840591308e-06
7.768448098e-06
7.76851354908e-06
7.76859533424e-06
7.76868467427e-06
7.76876781106e-06
7.76883909022e-06
7.76893678266e-06
7.76887441985e-06
7.76879918901e-06
7.76871609613e-06
7.76863894289e-06
7.76857666064e-06
7.76853642088e-06
7.76852248583e-06
7.76853655415e-06
7.76857685055e-06
7.76863904316e-06
7.7687160711e-06
7.76879918174e-06
7.76887437142e-06
7.76893703894e-06
7.7690254413e-06
7.76896852232e-06
7.76889909322e-06
7.76882051376e-06
7.7687468503e-06
7.76868696191e-06
7.76864808594e-06
7.76863458847e-06
7.76864821447e-06
7.76868715881e-06
7.76874699966e-06
7.76882056018e-06
7.7688991272e-06
7.76896849208e-06
7.76902571918e-06
7.76909132579e-06
7.76903704003e-06
7.76897124097e-06
7.76889554396e-06
7.768824148e-06
7.76876581709e-06
7.76872782501e-06
7.76871461208e-06
7.76872794984e-06
7.76876601664e-06
7.76882432563e-06
7.76889563932e-06
7.76897131566e-06
7.76903701773e-06
7.76909163526e-06
7.76914271677e-06
7.76908956679e-06
7.76902639602e-06
7.76895287434e-06
7.76888331276e-06
7.76882631923e-06
7.76878911536e-06
7.76877616247e-06
7.76878923416e-06
7.76882651569e-06
7.76888350868e-06
7.76895300434e-06
7.76902649581e-06
7.76908957557e-06
7.76914302795e-06
7.76918461666e-06
7.76913194609e-06
7.76907097864e-06
7.76899945828e-06
7.76893174718e-06
7.76887621042e-06
7.76883991941e-06
7.76882727885e-06
7.76884003103e-06
7.76887639909e-06
7.76893194792e-06
7.76899960936e-06
7.76907109314e-06
7.76913197953e-06
7.76918495021e-06
7.76921978064e-06
7.76916749413e-06
7.76910872339e-06
7.76903942077e-06
7.76897390726e-06
7.76892021165e-06
7.76888512664e-06
7.76887290843e-06
7.76888522963e-06
7.76892038926e-06
7.76897410731e-06
7.76903958848e-06
7.76910885725e-06
7.76916755048e-06
7.76922016171e-06
7.76925089845e-06
7.76919938842e-06
7.7691431914e-06
7.76907665704e-06
7.76901397518e-06
7.76896273083e-06
7.76892929128e-06
7.76891765588e-06
7.76892938538e-06
7.76896289571e-06
7.76901416901e-06
7.76907683372e-06
7.76914334509e-06
7.76919947035e-06
7.76925132744e-06
7.76928070619e-06
7.7692307744e-06
7.76917779368e-06
7.76911480211e-06
7.76905579859e-06
7.76900778568e-06
7.76897653816e-06
7.76896568317e-06
7.76897662447e-06
7.76900793901e-06
7.76905598729e-06
7.76911499003e-06
7.76917797193e-06
7.76923089418e-06
7.76928118786e-06
7.76931166748e-06
7.76926435966e-06
7.76921531051e-06
7.76915671669e-06
7.76910234322e-06
7.76905843385e-06
7.76902998811e-06
7.76902013106e-06
7.76903006687e-06
7.76905857643e-06
7.76910252538e-06
7.76915691365e-06
7.76921551092e-06
7.76926451786e-06
7.76931220203e-06
7.76934556515e-06
7.76930186766e-06
7.76925731301e-06
7.769203946e-06
7.76915521345e-06
7.76911635307e-06
7.76909136035e-06
7.76908273595e-06
7.76909143302e-06
7.7691164863e-06
7.76915539279e-06
7.76920415191e-06
7.76925753639e-06
7.76930205764e-06
7.76934613998e-06
7.76938455822e-06
7.7693446267e-06
7.7693045223e-06
7.76925691586e-06
7.76921477134e-06
7.76918186033e-06
7.76916094983e-06
7.76915377442e-06
7.76916101687e-06
7.76918198864e-06
7.76921494561e-06
7.76925713176e-06
7.76930476496e-06
7.76934484833e-06
7.7693851686e-06
7.76943621753e-06
7.7693990379e-06
7.76936052354e-06
7.76931761977e-06
7.76928183919e-06
7.76925481254e-06
7.76923792208e-06
7.76923218258e-06
7.7692379871e-06
7.76925493302e-06
7.76928201422e-06
7.7693178389e-06
7.76936078357e-06
7.76939928758e-06
7.76943683953e-06
7.76951596463e-06
7.76946747928e-06
7.7694238889e-06
7.7693830425e-06
7.76935181943e-06
7.76932906406e-06
7.76931509593e-06
7.76931039382e-06
7.76931516452e-06
7.76932919817e-06
7.7693520115e-06
7.76938329503e-06
7.76942419892e-06
7.76946780786e-06
7.76951657207e-06
6.94442755056e-06
6.9444742568e-06
6.94452828515e-06
6.94458367509e-06
6.94463359778e-06
6.94467286048e-06
6.94469781414e-06
6.94470622399e-06
6.9446972451e-06
6.94467176648e-06
6.94463207274e-06
6.94458185334e-06
6.94452626681e-06
6.9444723363e-06
6.94442550011e-06
6.94445808233e-06
6.94450424042e-06
6.9445584854e-06
6.94461437535e-06
6.94466496267e-06
6.94470487431e-06
6.94473029904e-06
6.94473888268e-06
6.94472970859e-06
6.94470373935e-06
6.94466338573e-06
6.94461250443e-06
6.94455645277e-06
6.94450228779e-06
6.94445611547e-06
6.94443804068e-06
6.9444802034e-06
6.94453095643e-06
6.94458416678e-06
6.94463281582e-06
6.94467146939e-06
6.94469620411e-06
6.94470458258e-06
6.9446956446e-06
6.94467039296e-06
6.94463131708e-06
6.94458237364e-06
6.94452901324e-06
6.94447826271e-06
6.94443613387e-06
6.94441574134e-06
6.94445498627e-06
6.94450302274e-06
6.94455394511e-06
6.94460092335e-06
6.94463847365e-06
6.94466260022e-06
6.94467080023e-06
6.9446620843e-06
6.94463747931e-06
6.94459953343e-06
6.9445522702e-06
6.94450118949e-06
6.94445311456e-06
6.94441388445e-06
6.94440084185e-06
6.94443830731e-06
6.94448456666e-06
6.94453375481e-06
6.94457942315e-06
6.94461607642e-06
6.94463969971e-06
6.94464774855e-06
6.94463922079e-06
6.94461515269e-06
6.94457812618e-06
6.94453218435e-06
6.94448282407e-06
6.94443651151e-06
6.94439904394e-06
6.94438960637e-06
6.94442582329e-06
6.94447064016e-06
6.94451824059e-06
6.94456260839e-06
6.94459831665e-06
6.94462138152e-06
6.9446292573e-06
6.94462093994e-06
6.94459746329e-06
6.94456140606e-06
6.94451677688e-06
6.94446900595e-06
6.94442408664e-06
6.94438790892e-06
6.94437971484e-06
6.94441486673e-06
6.94445838826e-06
6.9445043625e-06
6.94454729955e-06
6.94458191227e-06
6.94460430123e-06
6.94461195863e-06
6.94460389431e-06
6.94458112424e-06
6.9445461852e-06
6.94450299682e-06
6.94445685703e-06
6.94441319648e-06
6.94437811055e-06
6.94437031306e-06
6.94440446855e-06
6.94444674832e-06
6.94449098523e-06
6.9445323187e-06
6.9445656562e-06
6.94458723668e-06
6.9445946252e-06
6.94458686317e-06
6.94456493157e-06
6.94453128888e-06
6.9444897146e-06
6.9444453093e-06
6.94440287142e-06
6.94436878243e-06
6.94436079711e-06
6.94439401443e-06
6.94443502885e-06
6.9444773898e-06
6.94451692391e-06
6.94454879641e-06
6.94456942944e-06
6.94457649683e-06
6.94456908625e-06
6.94454812922e-06
6.94451597085e-06
6.94447620531e-06
6.94443367255e-06
6.94439248541e-06
6.94435935247e-06
6.94435073204e-06
6.94438305881e-06
6.94442274331e-06
6.94446307642e-06
6.94450061104e-06
6.94453083265e-06
6.94455038307e-06
6.94455707953e-06
6.94455006758e-06
6.94453021748e-06
6.94449972835e-06
6.94446196977e-06
6.94442146149e-06
6.94438158968e-06
6.94434936797e-06
6.94433987052e-06
6.94437141579e-06
6.94440970418e-06
6.94444786142e-06
6.94448321032e-06
6.94451160502e-06
6.94452994727e-06
6.94453622448e-06
6.94452965598e-06
6.94451103625e-06
6.94448238982e-06
6.94444682665e-06
6.94440849268e-06
6.94437001114e-06
6.94433859635e-06
6.94432801325e-06
6.94435903029e-06
6.94439591452e-06
6.94443181809e-06
6.94446485579e-06
6.94449130023e-06
6.94450833643e-06
6.94451415774e-06
6.94450806635e-06
6.94449077108e-06
6.94446409168e-06
6.94443084759e-06
6.94439477082e-06
6.94435769679e-06
6.94432684039e-06
6.9443146007e-06
6.94434558473e-06
6.94438129529e-06
6.94441509091e-06
6.94444591693e-06
6.94447044085e-06
6.94448617395e-06
6.94449153078e-06
6.94448592145e-06
6.94446994846e-06
6.9444452001e-06
6.94441418149e-06
6.94438021672e-06
6.944344327e-06
6.94431353135e-06
6.94430231444e-06
6.9443342442e-06
6.9443679918e-06
6.94439930482e-06
6.9444276382e-06
6.94444999586e-06
6.94446423373e-06
6.94446906123e-06
6.94446399913e-06
6.94444953284e-06
6.94442696765e-06
6.94439844792e-06
6.94436697919e-06
6.94433306955e-06
6.94430136917e-06
6.94432759188e-06
6.94434764912e-06
6.94437119752e-06
6.94439362045e-06
6.9444143619e-06
6.94443071631e-06
6.94444109285e-06
6.94444458528e-06
6.94444087564e-06
6.94443029114e-06
6.9444137402e-06
6.94439282798e-06
6.9443702596e-06
6.94434656334e-06
6.94432668968e-06
6.55116213285e-06
6.55113567012e-06
6.55110432135e-06
6.55107108982e-06
6.55104090564e-06
6.55101694737e-06
6.55100157079e-06
6.55099622598e-06
6.55100147398e-06
6.55101674293e-06
6.55104057199e-06
6.55107054645e-06
6.55110348649e-06
6.55113451484e-06
6.5511612528e-06
6.55116432778e-06
6.55113900482e-06
6.55110838234e-06
6.55107560286e-06
6.55104564136e-06
6.55102175141e-06
6.55100637308e-06
6.55100101684e-06
6.55100628099e-06
6.55102155601e-06
6.55104531455e-06
6.55107506268e-06
6.55110754411e-06
6.55113787961e-06
6.55116344085e-06
6.55119514491e-06
6.55117264349e-06
6.55114470962e-06
6.55111401447e-06
6.55108562258e-06
6.55106278865e-06
6.55104801527e-06
6.55104285474e-06
6.55104792477e-06
6.55106259502e-06
6.55108529698e-06
6.55111348432e-06
6.55114389325e-06
6.55117159018e-06
6.55119427262e-06
6.55122308729e-06
6.55120240571e-06
6.55117639832e-06
6.55114724959e-06
6.55112000866e-06
6.55109793981e-06
6.55108360136e-06
6.55107858105e-06
6.55108350894e-06
6.5510977404e-06
6.55111967146e-06
6.55114671309e-06
6.55117560276e-06
6.55120138485e-06
6.55122224128e-06
6.55124360607e-06
6.5512238478e-06
6.55119904134e-06
6.5511709147e-06
6.55114444884e-06
6.55112290354e-06
6.55110886307e-06
6.55110393878e-06
6.55110876772e-06
6.55112269811e-06
6.55114410211e-06
6.5511703721e-06
6.55119826322e-06
6.55122284475e-06
6.55124278397e-06
6.55125965205e-06
6.55124034525e-06
6.55121643861e-06
6.55118914018e-06
6.55116334814e-06
6.55114228797e-06
6.55112853499e-06
6.55112370529e-06
6.55112843431e-06
6.55114207187e-06
6.55116298666e-06
6.55118858606e-06
6.55121567032e-06
6.55123937666e-06
6.55125882955e-06
6.55127296814e-06
6.55125394614e-06
6.55123080778e-06
6.55120430044e-06
6.55117921767e-06
6.55115870815e-06
6.55114529949e-06
6.55114058637e-06
6.55114519345e-06
6.55115848206e-06
6.55117884424e-06
6.55120373968e-06
6.55123004532e-06
6.55125300913e-06
6.55127216314e-06
6.55128444915e-06
6.55126569538e-06
6.55124329401e-06
6.55121765185e-06
6.55119339697e-06
6.55117356457e-06
6.55116059472e-06
6.55115603337e-06
6.55116048292e-06
6.55117332836e-06
6.55119301344e-06
6.55121709123e-06
6.55124255008e-06
6.55126479259e-06
6.55128368748e-06
6.55129488148e-06
6.55127647058e-06
6.55125486902e-06
6.55123023484e-06
6.55120698392e-06
6.55118800256e-06
6.55117559736e-06
6.5511712346e-06
6.55117548128e-06
6.55118775987e-06
6.55120659629e-06
6.55122968064e-06
6.55125415096e-06
6.55127560701e-06
6.55129416818e-06
6.55130496036e-06
6.55128703085e-06
6.55126635114e-06
6.55124291358e-06
6.55122088975e-06
6.5512029672e-06
6.55119127443e-06
6.55118716404e-06
6.55119115626e-06
6.55120272242e-06
6.55122050524e-06
6.5512423773e-06
6.55126567056e-06
6.55128622084e-06
6.55130430425e-06
6.55131522341e-06
6.55129793588e-06
6.55127831381e-06
6.55125627923e-06
6.5512357269e-06
6.55121909271e-06
6.55120827492e-06
6.5512044767e-06
6.55120815766e-06
6.55121885129e-06
6.5512353533e-06
6.55125576837e-06
6.55127767558e-06
6.55129718356e-06
6.55131463065e-06
6.55132598738e-06
6.55130944535e-06
6.55129098535e-06
6.55127055886e-06
6.55125173932e-06
6.55123664055e-06
6.55122687261e-06
6.55122345034e-06
6.55122675912e-06
6.5512364094e-06
6.55125138473e-06
6.55127008229e-06
6.55129039703e-06
6.55130874907e-06
6.55132545604e-06
6.55133760829e-06
6.55132173617e-06
6.5513044246e-06
6.55128573162e-06
6.55126886804e-06
6.55125553045e-06
6.55124697231e-06
6.55124398529e-06
6.55124686659e-06
6.55125531453e-06
6.55126854055e-06
6.55128529552e-06
6.55130388917e-06
6.55132109948e-06
6.55133714317e-06
6.55135102986e-06
6.55133550694e-06
6.55131892522e-06
6.55130186049e-06
6.55128700902e-06
6.55127550951e-06
6.55126821913e-06
6.55126568835e-06
6.55126812442e-06
6.55127531549e-06
6.55128671511e-06
6.55130147148e-06
6.55131844623e-06
6.55133493017e-06
6.55135062388e-06
6.55136344007e-06
6.55134663097e-06
6.55133101148e-06
6.55131628163e-06
6.55130408833e-06
6.5512948714e-06
6.55128910061e-06
6.55128711051e-06
6.55128902149e-06
6.55129470965e-06
6.55130384158e-06
6.55131595358e-06
6.55133060605e-06
6.55134613032e-06
6.55136306531e-06
5.91601638473e-06
5.91603040169e-06
5.9160470555e-06
5.91606432304e-06
5.9160799809e-06
5.91609235131e-06
5.91610023841e-06
5.91610287568e-06
5.91609997066e-06
5.91609181526e-06
5.91607917578e-06
5.91606329829e-06
5.91604588532e-06
5.91602929491e-06
5.91601524007e-06
5.91602208588e-06
5.91603592406e-06
5.91605253044e-06
5.91606986484e-06
5.91608565375e-06
5.91609817346e-06
5.91610617618e-06
5.91610885552e-06
5.91610589876e-06
5.91609761834e-06
5.91608482133e-06
5.91606880525e-06
5.91605133102e-06
5.916034767e-06
5.91602098711e-06
5.916014084e-06
5.91602680944e-06
5.91604238426e-06
5.91605897331e-06
5.91607423427e-06
5.91608642599e-06
5.91609425089e-06
5.91609687811e-06
5.91609398136e-06
5.91608588773e-06
5.91607343246e-06
5.91605794953e-06
5.9160412293e-06
5.91602564615e-06
5.91601300308e-06
5.91600642746e-06
5.91601839541e-06
5.91603323533e-06
5.91604923622e-06
5.91606409184e-06
5.91607603495e-06
5.9160837279e-06
5.91608631803e-06
5.91608346995e-06
5.91607552097e-06
5.91606332973e-06
5.91604825819e-06
5.91603211617e-06
5.91601724214e-06
5.91600533158e-06
5.91600153001e-06
5.91601310954e-06