/*--------------------------------*- C++ -*----------------------------------*\
  =========                 |
  \\      /  F ield         | OpenFOAM: The Open Source CFD Toolbox
   \\    /   O peration     | Website:  https://openfoam.org
    \\  /    A nd           | Version:  7
     \\/     M anipulation  |
\*---------------------------------------------------------------------------*/
FoamFile
{
    version     2.0;
    format      ascii;
    class       surfaceScalarField;
    location    "0.42";
    object      phi;
}
// * * * * * * * * * * * * * * * * * * * * * * * * * * * * * * * * * * * * * //

dimensions      [0 3 -1 0 0 0 0];

internalField   nonuniform List<scalar> 
65775
(
-1.40886354886e-11
-1.53903774048e-09
-1.53189217888e-10
3.1992895774e-16
-2.41367922334e-11
-1.61450836102e-09
-1.70130954888e-10
-2.94614535146e-11
-1.68202675319e-09
-1.86823096826e-10
-2.93952671081e-11
-1.7404248913e-09
-2.02257182231e-10
-2.46081861704e-11
-1.78720109016e-09
-2.15435626995e-10
-1.60842462221e-11
-1.82146365856e-09
-2.25519907372e-10
-5.18330544028e-12
-1.84296522749e-09
-2.31929788196e-10
6.54223763035e-12
-1.85103515323e-09
-2.34223045701e-10
1.7418905131e-11
-1.84294144239e-09
-2.31907376408e-10
2.5897443613e-11
-1.82141729097e-09
-2.25475935187e-10
3.0621543515e-11
-1.78713726569e-09
-2.15371485534e-10
3.0606974568e-11
-1.74036150899e-09
-2.02174500478e-10
2.51860471011e-11
-1.68197302083e-09
-1.86722911773e-10
1.50338128973e-11
-1.61448153757e-09
-1.70011321554e-10
-1.53895728438e-09
-1.53040995222e-10
7.34707675697e-13
-3.82366963032e-11
-2.70370092955e-09
-4.22509896711e-10
-1.86370748886e-13
-6.79108107482e-11
-2.82928164609e-09
-4.69196384388e-10
-8.32973554846e-11
-2.94408481541e-09
-5.15196859531e-10
-8.37688114907e-11
-3.04272772324e-09
-5.57746826514e-10
-7.04847916753e-11
-3.12160770707e-09
-5.94094560222e-10
-4.62580525988e-11
-3.17915715134e-09
-6.21920467305e-10
-1.50067874607e-11
-3.21519767502e-09
-6.39603130224e-10
1.8649024702e-11
-3.22871716427e-09
-6.45911819669e-10
4.98490435844e-11
-3.21516240251e-09
-6.39532663089e-10
7.3984229589e-11
-3.17909445027e-09
-6.21782591785e-10
8.7147356253e-11
-3.12153319462e-09
-5.93894207186e-10
8.65217256141e-11
-3.04266799966e-09
-5.57490008118e-10
7.0941621819e-11
-2.94405785834e-09
-5.14888278349e-10
4.09945987934e-11
-2.82928036199e-09
-4.68832709773e-10
-2.70354188036e-09
-4.22073565868e-10
2.08666307538e-12
-5.90488051096e-11
-3.54026881883e-09
-6.49144089527e-10
-1.1807518561e-13
-1.04394896163e-10
-3.69524130202e-09
-7.21284203935e-10
-1.27920632989e-10
-3.83939291628e-09
-7.92254362668e-10
-1.28743341775e-10
-3.96245325172e-09
-8.57851012418e-10
-1.08366422453e-10
-4.06068543399e-09
-9.13864038372e-10
-7.10477431394e-11
-4.13204638656e-09
-9.56735114979e-10
-2.28331891505e-11
-4.176628095e-09
-9.83961252156e-10
2.90892106888e-11
-4.19334064983e-09
-9.93653168557e-10
7.71957541236e-11
-4.17656590761e-09
-9.83854069208e-10
1.14309346909e-10
-4.13193587028e-09
-9.56525077859e-10
1.34396915371e-10
-4.06055159565e-09
-9.13557901815e-10
1.33204701672e-10
-3.96233204483e-09
-8.5745683077e-10
1.09233654481e-10
-3.83931696042e-09
-7.91778398618e-10
6.33227554197e-11
-3.69517784997e-09
-7.20721690184e-10
-3.53998905015e-09
-6.48472212373e-10
3.38946791348e-12
-7.67334566408e-11
-4.09289411703e-09
-8.34720787873e-10
-8.27865252643e-14
-1.34402312263e-10
-4.26102254123e-09
-9.28081267149e-10
-1.64429843072e-10
-4.41922216331e-09
-1.0196717625e-09
-1.65409103465e-10
-4.55355809078e-09
-1.10418711001e-09
-1.39215230425e-10
-4.66051135555e-09
-1.17627635153e-09
-9.12104090332e-11
-4.73786307427e-09
-1.23140968045e-09
-2.91636670754e-11
-4.78605444227e-09
-1.26638846302e-09
3.765016157e-11
-4.80411249994e-09
-1.27881121358e-09
9.9544397385e-11
-4.78595972147e-09
-1.26624770489e-09
1.47255002041e-10
-4.73769274222e-09
-1.23113382312e-09
1.730262598e-10
-4.66029775095e-09
-1.17587415795e-09
1.71505104379e-10
-4.55334419171e-09
-1.10366921524e-09
1.40825654591e-10
-4.41905250826e-09
-1.01904727461e-09
8.23585492626e-11
-4.26084394345e-09
-9.27346923215e-10
-4.09246931656e-09
-8.33853470947e-10
4.55607066796e-12
-9.134580181e-11
-4.40489307036e-09
-9.8004261027e-10
-5.76479585971e-14
-1.58652984491e-10
-4.57376030069e-09
-1.09043090624e-09
-1.93682463933e-10
-4.73384287806e-09
-1.19832258021e-09
-1.94619144437e-10
-4.86912270319e-09
-1.297646556e-09
-1.63709127466e-10
-4.97644754823e-09
-1.38223046889e-09
-1.07169288384e-10
-5.05369871309e-09
-1.44684460437e-09
-3.41200046516e-11
-5.1016776944e-09
-1.48778654068e-09
4.452465838e-11
-5.11965093648e-09
-1.50229127411e-09
1.17384716815e-10
-5.10154825235e-09
-1.487615729e-09
1.73556524459e-10
-5.05346254913e-09
-1.44651005323e-09
2.03933076101e-10
-4.97614154878e-09
-1.38174319655e-09
2.02310393125e-10
-4.86879435618e-09
-1.29702037491e-09
1.66456335245e-10
-4.73354522442e-09
-1.19757064188e-09
9.81629730848e-11
-4.57342849377e-09
-1.0895533985e-09
-4.40430803498e-09
-9.79018888885e-10
5.5980461683e-12
-1.03164623018e-10
-4.5175455944e-09
-1.08687529493e-09
-3.50847847345e-14
-1.77891973863e-10
-4.67810733708e-09
-1.21034423166e-09
-2.16602034081e-10
-4.8310640983e-09
-1.3304823663e-09
-2.17302086836e-10
-4.95968675253e-09
-1.44075937774e-09
-1.8261363609e-10
-5.06126137236e-09
-1.5344794119e-09
-1.19416482764e-10
-5.13398803229e-09
-1.60596684522e-09
-3.78548117106e-11
-5.17899610709e-09
-1.65119567003e-09
4.99213023317e-11
-5.19585107054e-09
-1.66717602851e-09
1.31262319642e-10
-5.17883120962e-09
-1.65099828848e-09
1.940282202e-10
-5.13368267556e-09
-1.60558067983e-09
2.28088467256e-10
-5.06085429064e-09
-1.53391805636e-09
2.26579722047e-10
-4.95922759338e-09
-1.44004044648e-09
1.86899584976e-10
-4.83061198184e-09
-1.32962406451e-09
1.11032538642e-10
-4.67759142981e-09
-1.20935129109e-09
-4.51677738351e-09
-1.08573048001e-09
6.52736025356e-12
-1.12540213546e-10
-4.46925219542e-09
-1.15774998471e-09
-1.34806694328e-14
-1.92826694319e-10
-4.61544015152e-09
-1.2907431112e-09
-2.34079477305e-10
-4.75517377206e-09
-1.41949634648e-09
-2.34368371033e-10
-4.8720194476e-09
-1.53728169022e-09
-1.966948355e-10
-4.96375042758e-09
-1.63714103575e-09
-1.28451442471e-10
-5.02903462458e-09
-1.7131767652e-09
-4.05252290971e-11
-5.0692694024e-09
-1.76119875211e-09
5.40503070338e-11
-5.08432756426e-09
-1.77811493427e-09
1.41728040396e-10
-5.06906773802e-09
-1.76097808284e-09
2.09484358633e-10
-5.02865577352e-09
-1.71274566816e-09
2.46446817199e-10
-4.96323211823e-09
-1.63651602089e-09
2.45242938502e-10
-4.8714115922e-09
-1.53648475879e-09
2.02896133792e-10
-4.75453920332e-09
-1.41855151687e-09
1.21341296487e-10
-4.61470819075e-09
-1.28966010408e-09
-4.46827218917e-09
-1.15651541309e-09
7.35981611104e-12
-1.19785647537e-10
-4.29503589491e-09
-1.19573282967e-09
7.01009693522e-15
-2.04037615129e-10
-4.42332635169e-09
-1.33516905677e-09
-2.46859560023e-10
-4.54624063697e-09
-1.46941576156e-09
-2.46592592014e-10
-4.6483149107e-09
-1.5917558295e-09
-2.06614569368e-10
-4.72785132258e-09
-1.69518658194e-09
-1.3470910043e-10
-4.78406376422e-09
-1.77377816369e-09
-4.22672889753e-11
-4.81853770203e-09
-1.82331296026e-09
5.70982938072e-11
-4.83142268981e-09
-1.84070224267e-09
1.4926612372e-10
-4.81829674428e-09
-1.82307203218e-09
2.20633799289e-10
-4.78360469657e-09
-1.77330828456e-09
2.59826268955e-10
-4.72720873043e-09
-1.69450747492e-09
2.5908400046e-10
-4.6475369121e-09
-1.59089435772e-09
2.15059693552e-10
-4.5453917855e-09
-1.46840225241e-09
1.29426960321e-10
-4.42233916913e-09
-1.33401820204e-09
-4.29379664234e-09
-1.19443558876e-09
8.1133766527e-12
-1.25151711473e-10
-4.02627239347e-09
-1.20421634445e-09
2.59354119507e-14
-2.11963474683e-10
-4.13524193846e-09
-1.34752710245e-09
-2.55515260136e-10
-4.23975628123e-09
-1.48468601492e-09
-2.54580407885e-10
-4.32577792062e-09
-1.60914020953e-09
-2.12896844214e-10
-4.39218324945e-09
-1.71401650625e-09
-1.38535443848e-10
-4.43873986795e-09
-1.79351070411e-09
-4.31882850137e-11
-4.46712514514e-09
-1.84349405699e-09
5.92169818654e-11
-4.47770476012e-09
-1.86097145737e-09
1.54266117193e-10
-4.46684033174e-09
-1.84323567113e-09
2.28042318954e-10
-4.43819013966e-09
-1.79300767438e-09
2.68871585761e-10
-4.39139828026e-09
-1.71329195696e-09
2.68711196789e-10
-4.32480211377e-09
-1.60822617679e-09
2.23859186724e-10
-4.23865368335e-09
-1.4836193849e-09
1.35564985028e-10
-4.13394929273e-09
-1.34632721812e-09
-4.02471751094e-09
-1.20287923809e-09
8.80494495008e-12
-1.28816534527e-10
-3.69061242809e-09
-1.18675168104e-09
4.22209107503e-14
-2.16912502013e-10
-3.78046142755e-09
-1.33188734319e-09
-2.60468867075e-10
-3.86649193264e-09
-1.46991165974e-09
-2.58790341094e-10
-3.93647497088e-09
-1.59453527347e-09
-2.1594329837e-10
-3.98990127943e-09
-1.6991505295e-09
-1.40196684334e-10
-4.02702475812e-09
-1.77821182165e-09
-4.33703810111e-11
-4.04950072397e-09
-1.82778051154e-09
6.05240805632e-11
-4.05783127054e-09
-1.84503327509e-09
1.57029196267e-10
-4.04916527745e-09
-1.82750731245e-09
2.32145283302e-10
-4.02636984143e-09
-1.77768086184e-09
2.74073027248e-10
-3.98895039966e-09
-1.69838835331e-09
2.74575641404e-10
-3.93526680483e-09
-1.59357920231e-09
2.29627879055e-10
-3.86508776488e-09
-1.46880519604e-09
1.3995293886e-10
-3.77880258214e-09
-1.33065399036e-09
-3.68866458859e-09
-1.18539341271e-09
9.45125349021e-12
-1.30872621986e-10
-3.31202063976e-09
-1.14692629553e-09
5.58622136641e-14
-2.1909488992e-10
-3.38404229862e-09
-1.29234789577e-09
-2.62055427362e-10
-3.45248803028e-09
-1.42969851088e-09
-2.59599995763e-10
-3.50737012166e-09
-1.55300095673e-09
-2.16085388198e-10
-3.54877286782e-09
-1.65602278903e-09
-1.39911719908e-10
-3.57727865914e-09
-1.73359547345e-09
-4.28823377018e-11
-3.59439381894e-09
-1.78206252007e-09
6.11131013397e-11
-3.60066809047e-09
-1.79884133715e-09
1.5779862057e-10
-3.59399814866e-09
-1.78177712236e-09
2.33297597794e-10
-3.57649920449e-09
-1.73304160685e-09
2.75830260896e-10
-3.54762616639e-09
-1.65523019958e-09
2.77032285931e-10
-3.50588766565e-09
-1.55201212733e-09
2.32592963391e-10
-3.45072589889e-09
-1.42856353684e-09
1.42699545968e-10
-3.38194644967e-09
-1.29109398768e-09
-3.3095972899e-09
-1.14556200539e-09
1.00659399816e-11
-1.31327927956e-10
-2.91091093109e-09
-1.08828294622e-09
6.64803655048e-14
-2.18723473558e-10
-2.96679295639e-09
-1.23295309977e-09
-2.60661568322e-10
-3.01909757366e-09
-1.36855936061e-09
-2.574271815e-10
-3.06048874048e-09
-1.48944416525e-09
-2.13671820774e-10
-3.09141243565e-09
-1.58985498604e-09
-1.37905137384e-10
-3.11253096664e-09
-1.6651170812e-09
-4.17971945056e-11
-3.1250823176e-09
-1.71194320546e-09
6.10705701239e-11
-3.12958447358e-09
-1.72805236117e-09
1.56811964137e-10
-3.12461379632e-09
-1.71164839829e-09
2.31860201139e-10
-3.11160230832e-09
-1.66454549878e-09
2.74571984703e-10
-3.09003286074e-09
-1.58903902354e-09
2.76476956292e-10
-3.058682266e-09
-1.48843101427e-09
2.32974254876e-10
-3.01691224265e-09
-1.36740577231e-09
1.43817099712e-10
-2.96418140602e-09
-1.23169016654e-09
-2.90792390052e-09
-1.08692567497e-09
1.06584086941e-11
-1.30261282461e-10
-2.50416783891e-09
-1.01427091761e-09
7.27238440945e-14
-2.16343478332e-10
-2.54510144405e-09
-1.157656088e-09
-2.56993405393e-10
-2.58314739591e-09
-1.29085903979e-09
-2.52902467285e-10
-2.61325493586e-09
-1.4085426748e-09
-2.09177072953e-10
-2.63566522089e-09
-1.50557103382e-09
-1.34469679096e-10
-2.65088145288e-09
-1.57788758828e-09
-4.02130575137e-11
-2.65980522073e-09
-1.6226546562e-09
6.04969128919e-11
-2.66287124895e-09
-1.63794319746e-09
1.54363611726e-10
-2.65924727564e-09
-1.6223537385e-09
2.28308616834e-10
-2.64977034433e-09
-1.57730428485e-09
2.70927934478e-10
-2.63400736253e-09
-1.50473936287e-09
2.73613691354e-10
-2.61106462588e-09
-1.40751346245e-09
2.31312824879e-10
-2.58046409255e-09
-1.28969584479e-09
1.43377222048e-10
-2.54188078852e-09
-1.15639606143e-09
-2.50051204999e-09
-1.01293600806e-09
1.12051073412e-11
-1.28667736741e-10
-2.10435381864e-09
-9.28215421562e-10
7.0602784149e-14
-2.13540655273e-10
-2.13091088123e-09
-1.07031217311e-09
-2.52402721593e-10
-2.15754348663e-09
-1.20075409921e-09
-2.47020325297e-10
-2.17908590941e-09
-1.3146559305e-09
-2.0329793119e-10
-2.19513656635e-09
-1.40771045849e-09
-1.30027408157e-10
-2.20600960706e-09
-1.47659922158e-09
-3.82751284073e-11
-2.212282604e-09
-1.51899387689e-09
5.95300278725e-11
-2.21426313532e-09
-1.53335049675e-09
1.50868880021e-10
-2.21161206109e-09
-1.5186912011e-09
2.23330025163e-10
-2.20467491687e-09
-1.47601211252e-09
2.65882981193e-10
-2.19314172355e-09
-1.40687294929e-09
2.69782029567e-10
-2.17644284087e-09
-1.31362014046e-09
2.29186256208e-10
-2.15428068996e-09
-1.19958953268e-09
1.42369893023e-10
-2.12697837078e-09
-1.06906760809e-09
-2.09993432145e-09
-9.26925034184e-10
1.17375370473e-11
-1.30730993899e-10
-8.33396749892e-10
7.48575971154e-14
-1.71658043123e-09
-2.14068718691e-10
-9.74752802988e-10
-1.73276188121e-09
-2.49740385073e-10
-1.10205124267e-09
-1.75228292418e-09
-2.42051968463e-10
-1.21166634258e-09
-1.76810284134e-09
-1.97772209436e-10
-1.30029945396e-09
-1.77993433868e-09
-1.2568879638e-10
-1.36542616594e-09
-1.78805104998e-09
-3.63681351211e-11
-1.40524192767e-09
-1.79267650551e-09
5.85442843405e-11
-1.41859620731e-09
-1.79393425233e-09
1.47423235218e-10
-1.40494418332e-09
-1.79186238237e-09
2.18645231583e-10
-1.36484790377e-09
-1.7864304986e-09
2.61680463976e-10
-1.29947297826e-09
-1.77751900522e-09
2.67797753405e-10
-1.21064127404e-09
-1.76490737031e-09
2.30291428534e-10
-1.10089972182e-09
-1.74832980143e-09
1.4492639782e-10
-9.7352559374e-10
-1.72801784703e-09
-8.32201060865e-10
1.22222970274e-11
-1.7112920715e-09
9.51721939349e-13
9.58813071004e-12
-1.63634415913e-10
1.11520145959e-13
1.89086812951e-12
1.05941469117e-11
-1.81287533706e-10
2.49476215118e-12
1.15312827455e-11
-1.98508653493e-10
2.62589545096e-12
1.23385054648e-11
-2.14297575443e-10
2.27296531604e-12
1.29590543557e-11
-2.27686181952e-10
1.51134883596e-12
1.3381687469e-11
-2.3788136672e-10
4.84684175066e-13
1.36298630086e-11
-2.44345371084e-10
-6.33703760962e-13
1.36992677996e-11
-2.4666220217e-10
-1.6580022075e-12
1.35627848664e-11
-2.44333336298e-10
-2.42153035851e-12
1.32395215629e-11
-2.37857425093e-10
-2.79437247601e-12
1.27339187822e-11
-2.27650441452e-10
-2.70184631556e-12
1.20577679225e-11
-2.14249799882e-10
-2.145436866e-12
1.12376610005e-11
-1.98447712404e-10
-1.23589930903e-12
1.03532995916e-11
-1.8120914833e-10
9.45354864466e-12
-1.63524936931e-10
-1.45377526715e-13
2.5489596617e-12
3.21697526037e-11
-4.47720708926e-10
4.60532461478e-13
5.26426749041e-12
3.50751690163e-11
-4.95781618526e-10
7.04400854414e-12
3.78922018676e-11
-5.4262424656e-10
7.49999181201e-12
4.03529370178e-11
-5.85548024297e-10
6.55965106923e-12
4.22813749315e-11
-6.21937398573e-10
4.42463131776e-12
4.3638998702e-11
-6.49644314098e-10
1.50139882755e-12
4.44470303524e-11
-6.67202778757e-10
-1.7010181269e-12
4.46967501457e-11
-6.73481480473e-10
-4.63707978428e-12
4.43165996019e-11
-6.67169796972e-10
-6.81649082036e-12
4.33665698221e-11
-6.49578545768e-10
-7.86466366936e-12
4.18593629369e-11
-6.21838802245e-10
-7.57994714294e-12
3.98187182443e-11
-5.85415459393e-10
-5.9946669473e-12
3.73290382455e-11
-5.4245396259e-10
-3.40324798982e-12
3.45925252242e-11
-4.955611648e-10
3.18536569996e-11
-4.47420255197e-10
-3.64733728251e-13
4.0931469226e-12
5.83573635041e-11
-6.79578306562e-10
5.16445590685e-13
8.21174109069e-12
6.29221457695e-11
-7.52690259951e-10
1.08642829166e-11
6.74505968964e-11
-8.23816972945e-10
1.14986740264e-11
7.13943820921e-11
-8.88924984199e-10
1.00035238953e-11
7.44817653588e-11
-9.4408691913e-10
6.68635474559e-12
7.66497280449e-11
-9.86069016556e-10
2.15871314562e-12
7.7933810428e-11
-1.01265251352e-09
-2.79459604541e-12
7.83371136333e-11
-1.02213353361e-09
-7.32818876379e-12
7.77528863189e-11
-1.01259021125e-09
-1.06777130719e-11
7.62772598294e-11
-9.85945756528e-10
-1.22639408359e-11
7.39156915489e-11
-9.43904717228e-10
-1.17861534492e-11
7.0681369343e-11
-8.88685287861e-10
-9.31311135064e-12
6.6698934573e-11
-8.23518227788e-10
-5.29465383399e-12
6.22659955853e-11
-7.52318888528e-10
5.78986552456e-11
-6.79097559962e-10
-6.28627714138e-13
5.34903140473e-12
8.1068495545e-11
-8.62999583321e-10
5.70763356229e-13
1.05861539497e-11
8.64231190726e-11
-9.56304701495e-10
1.39305630757e-11
9.18694597898e-11
-1.04684903251e-09
1.47007765428e-11
9.65896729242e-11
-1.12961879274e-09
1.27593666497e-11
1.00261312166e-10
-1.19968710449e-09
8.49340061885e-12
1.02812781926e-10
-1.2529838503e-09
2.67674973801e-12
1.04308421193e-10
-1.28670149831e-09
-3.6851900627e-12
1.04775590795e-10
-1.29869648767e-09
-9.50591561123e-12
1.04092897368e-10
-1.2866114814e-09
-1.37995355481e-11
1.02375033975e-10
-1.25280643594e-09
-1.58217328902e-11
9.96063323733e-11
-1.1994266608e-09
-1.51938031018e-11
9.57692857548e-11
-1.12927997665e-09
-1.20111907085e-11
9.09994747576e-11
-1.04643385767e-09
-6.85175081965e-12
8.56487864813e-11
-9.55801797362e-10
8.04968657333e-11
-8.62371856223e-10
-8.54577828588e-13
6.33080332029e-12
9.69161019366e-11
-1.0024992498e-09
6.07070202804e-13
1.23703150263e-11
1.02134814874e-10
-1.11171785596e-09
1.61905823817e-11
1.07622788982e-10
-1.21738029677e-09
1.7031291252e-11
1.12372938256e-10
-1.31380507646e-09
1.4745652694e-11
1.16036568012e-10
-1.39534714805e-09
9.77838340387e-12
1.18545586923e-10
-1.45732584542e-09
3.01847194072e-12
1.1999519933e-10
-1.49649525805e-09
-4.37187271026e-12
1.2044017296e-10
-1.51039298276e-09
-1.1134814153e-11
1.1976056272e-10
-1.49637925952e-09
-1.61252730375e-11
1.1807394913e-10
-1.45709788921e-09
-1.84796236616e-11
1.15338508225e-10
-1.39501429352e-09
-1.77607655706e-11
1.11502982215e-10
-1.31337585489e-09
-1.40761507316e-11
1.06694613232e-10
-1.21686154719e-09
-8.08945363816e-12
1.01291723897e-10
-1.11110249882e-09
9.62703929228e-11
-1.00175344289e-09
-1.05574357148e-12
7.04283507614e-12
1.05029537362e-10
-1.10234404728e-09
6.23352364136e-13
1.35657748181e-11
1.09418396755e-10
-1.22373478098e-09
1.76388155271e-11
1.14272794559e-10
-1.34075448396e-09
1.84777530738e-11
1.18501827423e-10
-1.44732137596e-09
1.59457210927e-11
1.21736706635e-10
-1.53732086699e-09
1.05262373853e-11
1.23915520325e-10
-1.60566383711e-09
3.17542831654e-12
1.25150775113e-10
-1.64880261919e-09
-4.85430825195e-12
1.25517425583e-10
-1.66406504836e-09
-1.22065170814e-11
1.24908081701e-10
-1.64866249724e-09
-1.76431391122e-11
1.23431693173e-10
-1.60538919795e-09
-2.02282093203e-11
1.21027526824e-10
-1.53692179065e-09
-1.94847772132e-11
1.17621129778e-10
-1.44681087287e-09
-1.55141363081e-11
1.1332818154e-10
-1.34014517966e-09
-9.01528249038e-12
1.08540751439e-10
-1.22302489578e-09
1.04333471862e-10
-1.10150405395e-09
-1.23807018345e-12
7.48368026385e-12
1.06049680985e-10
-1.16658665247e-09
6.22001288815e-13
1.4190030786e-11
1.0924438603e-10
-1.29691363864e-09
1.83051977297e-11
1.1309154217e-10
-1.42204089244e-09
1.90738419185e-11
1.1650739671e-10
-1.53570818051e-09
1.63896308904e-11
1.19108003157e-10
-1.63154642441e-09
1.07572489762e-11
1.20829091946e-10
-1.70423674725e-09
3.15483699795e-12
1.21782867723e-10
-1.7500530351e-09
-5.1392270122e-12
1.22050194725e-10
-1.76621147021e-09
-1.27404552109e-11
1.21541066159e-10
-1.74989077123e-09
-1.838182844e-11
1.20350017449e-10
-1.7039195043e-09
-2.11006053876e-11
1.1841028446e-10
-1.63108757721e-09
-2.03967917954e-11
1.15642429959e-10
-1.53512568264e-09
-1.63471655732e-11
1.1215714921e-10
-1.42135376043e-09
-9.63284723061e-12
1.0836048034e-10
-1.29612561941e-09
1.05322292295e-10
-1.16567284884e-09
-1.40199200047e-12
7.65637293297e-12
1.01404663762e-10
-1.19908337686e-09
6.05245274278e-13
1.427928258e-11
1.03355795118e-10
-1.3355875007e-09
1.82480854297e-11
1.06096426889e-10
-1.46605709695e-09
1.88888216126e-11
1.08637906492e-10
-1.58423038785e-09
1.61416386795e-11
1.10578243078e-10
-1.68366563392e-09
1.0517046129e-11
1.11841582696e-10
-1.75897072044e-09
2.97392465532e-12
1.12522748111e-10
-1.8063522796e-09
-5.240978415e-12
1.12695574106e-10
-1.82300315046e-09
-1.27793975001e-11
1.12286902188e-10
-1.80616994934e-09
-1.84032717015e-11
1.11376521243e-10
-1.75861509111e-09
-2.11647937224e-11
1.09904251135e-10
-1.68315354688e-09
-2.05562862579e-11
1.07803293164e-10
-1.58358502352e-09
-1.66136651589e-11
1.05187643696e-10
-1.46530412614e-09
-9.95043795928e-12
1.02478403224e-10
-1.33473592941e-09
1.00656144548e-10
-1.19811322523e-09
-1.54921548924e-12
7.57366772989e-12
9.27935067851e-11
-1.20351171817e-09
5.77203045997e-13
1.38825105692e-11
9.3679786427e-11
-1.34388716816e-09
1.75470313938e-11
9.54197433652e-11
-1.47739388386e-09
1.80171041784e-11
9.71798256505e-11
-1.5979014676e-09
1.52899854464e-11
9.85429406363e-11
-1.69904588724e-09
9.86819552935e-12
9.94211761903e-11
-1.77549873795e-09
2.65600112403e-12
9.98803996948e-11
-1.82350051376e-09
-5.18066655917e-12
9.99776341828e-11
-1.84030072442e-09
-1.23838057104e-11
9.96539437963e-11
-1.82330024705e-09
-1.77939459706e-11
9.89758363567e-11
-1.77510897696e-09
-2.05141962979e-11
9.78991362405e-11
-1.6984869791e-09
-2.00436611633e-11
9.6381070775e-11
-1.59720190786e-09
-1.63659298309e-11
9.45417844286e-11
-1.47658598592e-09
-9.98455236267e-12
9.28126446165e-11
-1.34298463421e-09
9.20260822493e-11
-1.20250001801e-09
-1.68041754808e-12
7.25601779602e-12
8.18625066937e-11
-1.18338924102e-09
5.40445569531e-13
1.30578315581e-11
8.19916819881e-11
-1.32576694262e-09
1.62946638336e-11
8.29500837446e-11
-1.46044406197e-09
1.65685234841e-11
8.40921422807e-11
-1.58151111779e-09
1.3938570648e-11
8.50050809784e-11
-1.68280476455e-09
8.88472568285e-12
8.55931482807e-11
-1.75918232881e-09
2.22842678143e-12
8.58917037535e-11
-1.80701218125e-09
-4.98387704826e-12
8.59347532146e-11
-1.8236738968e-09
-1.16261906711e-11
8.56756242553e-11
-1.80679614453e-09
-1.66566998678e-11
8.51687134107e-11
-1.75876266765e-09
-1.92586772687e-11
8.43915730077e-11
-1.68220520413e-09
-1.89525085768e-11
8.33282422042e-11
-1.580765358e-09
-1.56647842926e-11
8.2100159118e-11
-1.45959086605e-09
-9.7586131402e-12
8.11304105332e-11
-1.32482401969e-09
8.10675912286e-11
-1.18234825912e-09
-1.7964939529e-12
6.72837605385e-12
7.00162699498e-11
-1.1420934437e-09
4.98409637664e-13
1.18684190855e-11
6.97353668021e-11
-1.28503355143e-09
1.45916429703e-11
7.01580875631e-11
-1.41943413867e-09
1.46645835938e-11
7.08473720613e-11
-1.53965358993e-09
1.22024886079e-11
7.14282048945e-11
-1.63983335742e-09
7.64896438341e-12
7.18100214715e-11
-1.71513102922e-09
1.72109909114e-12
7.19984668555e-11
-1.76213335431e-09
-4.6797582525e-12
7.20058106578e-11
-1.77841816459e-09
-1.05883125169e-11
7.17922323452e-11
-1.76190377707e-09
-1.51065117479e-11
7.14049250077e-11
-1.71468570177e-09
-1.75199797217e-11
7.08412800348e-11
-1.63919904489e-09
-1.7384958616e-11
7.01114755163e-11
-1.53886888415e-09
-1.45760729676e-11
6.93269338887e-11
-1.41854400495e-09
-9.30150006064e-12
6.88698113246e-11
-1.28405909922e-09
6.91803386199e-11
-1.14103316249e-09
-1.89832137991e-12
6.01777716539e-12
5.83377252529e-11
-1.08288163182e-09
4.51265307329e-13
1.03827972723e-11
5.79629094667e-11
-1.22537827803e-09
1.25495776129e-11
5.80495061236e-11
-1.35845593823e-09
1.24406259679e-11
5.84081903713e-11
-1.47675051264e-09
1.02105126559e-11
5.8741117672e-11
-1.57481110867e-09
6.25196774984e-12
5.89714785235e-11
-1.64821283072e-09
1.1673588204e-12
5.90846725033e-11
-1.69385044365e-09
-4.30156459105e-12
5.90654909694e-11
-1.70956313646e-09
-9.36124812957e-12
5.88867600835e-11
-1.69360973265e-09
-1.32726563658e-11
5.85815608935e-11
-1.6477462674e-09
-1.54346703209e-11
5.81734019648e-11
-1.57414787408e-09
-1.54543479351e-11
5.76896607242e-11
-1.47593351253e-09
-1.31704918122e-11
5.72236980267e-11
-1.35753622122e-09
-8.64396992091e-12
5.70783624002e-11
-1.22438036066e-09
5.74485216283e-11
-1.08181078355e-09
-1.98662649025e-12
5.15205213664e-12
4.75935217064e-11
-1.00890871895e-09
4.02013584786e-13
8.68010726341e-12
4.73314125485e-11
-1.15041217484e-09
1.03038117413e-11
4.71894761449e-11
-1.28148923167e-09
1.00581793948e-11
4.72846381256e-11
-1.39705416068e-09
8.11110600798e-12
4.74204308722e-11
-1.49219919052e-09
4.79919070337e-12
4.75349868975e-11
-1.56304547881e-09
6.03109927282e-13
4.75856187436e-11
-1.60688225905e-09
-3.88570105504e-12
4.7549157396e-11
-1.62186515752e-09
-8.05160342912e-12
4.73927382415e-11
-1.60663325667e-09
-1.13051519199e-11
4.71538169255e-11
-1.56256279395e-09
-1.31661386613e-11
4.68627897268e-11
-1.49151338771e-09
-1.3298300397e-11
4.65705191384e-11
-1.39621137015e-09
-1.15297224942e-11
4.63516727321e-11
-1.28054664464e-09
-7.81504996045e-12
4.64079711313e-11
-1.14939960964e-09
4.66321708644e-11
-1.00783862367e-09
-2.05972557299e-12
4.14641404758e-12
3.82742046788e-11
-9.23235969725e-10
3.51836439955e-13
6.86553833043e-12
3.81197137042e-11
-1.06370262316e-09
8.03217274358e-12
3.77638435262e-11
-1.1923864212e-09
7.71678473694e-12
3.76438520164e-11
-1.30459948298e-09
6.08250246814e-12
3.76242781384e-11
-1.39619007768e-09
3.40695034113e-12
3.76414707083e-11
-1.46395426179e-09
7.29213445004e-14
3.76427461421e-11
-1.50564532538e-09
-3.47879824814e-12
3.75847017105e-11
-1.51977547733e-09
-6.77803272624e-12
3.7450758502e-11
-1.50539178498e-09
-9.38472229105e-12
3.72608229588e-11
-1.46346223741e-09
-1.09178364879e-11
3.70627245045e-11
-1.39548997271e-09
-1.10994509484e-11
3.69161771373e-11
-1.30373842902e-09
-9.76356985056e-12
3.68945864915e-11
-1.19142700262e-09
-6.83382103104e-12
3.71322606843e-11
-1.06268533611e-09
3.72133681318e-11
-9.22184824527e-10
-2.12251430985e-12
2.97881190993e-12
-8.28882602057e-10
2.93852154261e-13
3.06302654698e-11
5.11876669407e-12
-9.68838145972e-10
3.01657366747e-11
5.97359694075e-12
-1.0947258337e-09
2.96779046068e-11
5.64576638769e-12
-1.20304330003e-09
2.94317687566e-11
4.30794868222e-12
-1.29058194691e-09
2.93205927059e-11
2.19998140248e-12
-1.35488193171e-09
2.92748512437e-11
-3.87489605517e-13
-1.39418661378e-09
2.92338916299e-11
-3.12247340758e-12
-1.4073807959e-09
2.91596195076e-11
-5.67081237928e-12
-1.39393449415e-09
2.90360799392e-11
-7.70074042301e-12
-1.35439187167e-09
2.88822965462e-11
-8.9225992864e-12
-1.2898825122e-09
2.87381434173e-11
-9.09687603145e-12
-1.20217902767e-09
2.86696059425e-11
-8.0518865613e-12
-1.09376177892e-09
2.87493514589e-11
-5.68103360335e-12
-9.67816672446e-10
2.90873087629e-11
-8.27896589506e-10
-2.17891184647e-12
2.94389840286e-11
-2.7478838318e-13
2.08773405923e-12
-1.65470211004e-10
-5.74106203705e-14
-5.00948979256e-13
2.28045949222e-12
-1.83530999228e-10
-6.29501564628e-13
2.5609124837e-12
-2.01166652164e-10
-6.5062542122e-13
2.85218829537e-12
-2.17351877843e-10
-5.61863035888e-13
3.13664481286e-12
-2.31086805644e-10
-3.81154445758e-13
3.378462656e-12
-2.4155104522e-10
-1.44246514975e-13
3.53980424515e-12
-2.48186287427e-10
1.10963236174e-13
3.60680921052e-12
-2.50561634924e-10
3.46763963268e-13
3.57610733724e-12
-2.48167215512e-10
5.30169812153e-13
3.45922752652e-12
-2.41513710134e-10
6.34878036921e-13
3.26887787723e-12
-2.31032677078e-10
6.43149636321e-13
3.01839497862e-12
-2.17282772366e-10
5.46385367336e-13
2.72842895519e-12
-2.01083837705e-10
3.48185454748e-13
2.41803596545e-12
-1.83432378016e-10
2.14824408628e-12
-1.65343492377e-10
1.63480968889e-14
-5.17736256684e-13
2.82829760365e-12
-4.47725383427e-10
-3.77261342013e-13
-1.24278735493e-12
3.06208815968e-12
-4.96140427513e-10
-1.71709205587e-12
3.42627844813e-12
-5.43374316388e-10
-1.87313602806e-12
3.81815501286e-12
-5.86696061637e-10
-1.69718330656e-12
4.21301459448e-12
-6.23446231594e-10
-1.237181268e-12
4.54777289335e-12
-6.5143859487e-10
-5.93585621377e-13
4.7723009716e-12
-6.69177606521e-10
1.17811699408e-13
4.86706686299e-12
-6.75511629797e-10
7.82280500586e-13
4.82581837983e-12
-6.69118721412e-10
1.30082181545e-12
4.66434543709e-12
-6.51323584519e-10
1.59701413047e-12
4.40028941177e-12
-6.23280127851e-10
1.62101138517e-12
4.05459465771e-12
-5.86485198556e-10
1.35529226161e-12
3.6570881583e-12
-5.43123689774e-10
8.10423140696e-13
3.2429066795e-12
-4.95845813986e-10
2.9079607435e-12
-4.4736223587e-10
-9.46024299978e-15
-9.12021000887e-13
1.62401882823e-12
-6.77285513652e-10
-3.32057822609e-13
-1.9008130613e-12
1.68864472619e-12
-7.50604022081e-10
-2.50901032292e-12
1.90416853459e-12
-8.22014197947e-10
-2.65648223767e-12
2.19182763035e-12
-8.87450138252e-10
-2.33779104403e-12
2.51492617608e-12
-9.42932916098e-10
-1.62902371745e-12
2.80550188864e-12
-9.85180927292e-10
-6.6897327276e-13
3.00834182264e-12
-1.01193620926e-09
3.79955277342e-13
3.10139283441e-12
-1.02146883921e-09
1.35166473079e-12
3.07996938782e-12
-1.01184704147e-09
2.09981936466e-12
2.95788479046e-12
-9.85006446055e-10
2.50979259966e-12
2.753456263e-12
-9.42680098375e-10
2.50862463655e-12
2.48962767275e-12
-8.87127708064e-10
2.07510108176e-12
2.19553139754e-12
-8.2162916969e-10
1.23458554476e-12
1.91133497058e-12
-7.50150918067e-10
1.72404602149e-12
-6.76732707248e-10
5.1037475335e-14
-1.18651963948e-12
-6.41882012256e-13
-8.59384354685e-10
-3.17161811308e-13
-2.39261825734e-12
-8.13669037367e-13
-9.52850478054e-10
-3.1243478251e-12
-8.37978577065e-13
-1.0436666873e-09
-3.28183195156e-12
-7.49336609516e-13
-1.12677861481e-09
-2.86251892289e-12
-5.87229328653e-13
-1.1971971979e-09
-1.9630384737e-12
-4.12780651527e-13
-1.25079211716e-09
-7.5217640695e-13
-2.77607484221e-13
-1.28470540377e-09
5.68385640425e-13
-2.03244550563e-13
-1.29676023099e-09
1.78837396658e-12
-1.92205912296e-13
-1.28458826589e-09
2.72056637332e-12
-2.35561485151e-13
-1.25056286729e-09
3.21817252207e-12
-3.17301380954e-13
-1.19686495534e-09
3.1906716943e-12
-4.15639517626e-13
-1.1263549602e-09
2.6171972013e-12
-5.08394753489e-13
-1.04316181687e-09
1.54554427792e-12
-5.61195115493e-13
-9.52260819829e-10
-5.23827422256e-13
-8.586777865e-10
9.84261402886e-14
-1.38194976472e-12
-3.30270114021e-12
-9.98294552619e-10
-3.06960961027e-13
-2.75084588349e-12
-3.69937719071e-12
-1.1076958858e-09
-3.57816541251e-12
-3.96684938873e-12
-1.21367844572e-09
-3.74737821921e-12
-4.09750905503e-12
-1.31050939174e-09
-3.25591738505e-12
-4.11949228783e-12
-1.39247004087e-09
-2.21440455718e-12