/*--------------------------------*- C++ -*----------------------------------*\
  =========                 |
  \\      /  F ield         | OpenFOAM: The Open Source CFD Toolbox
   \\    /   O peration     | Website:  https://openfoam.org
    \\  /    A nd           | Version:  7
     \\/     M anipulation  |
\*---------------------------------------------------------------------------*/
FoamFile
{
    version     2.0;
    format      ascii;
    class       volScalarField;
    location    "0.96";
    object      p;
}
// * * * * * * * * * * * * * * * * * * * * * * * * * * * * * * * * * * * * * //

dimensions      [0 2 -2 0 0 0 0];

internalField   nonuniform List<scalar> 
22500
(
-1.07301520603e-05
-1.07292665746e-05
-1.07286587204e-05
-1.07279208956e-05
-1.07273115753e-05
-1.0726846048e-05
-1.07265609642e-05
-1.07264686444e-05
-1.07265787439e-05
-1.07268810066e-05
-1.0727362857e-05
-1.07279872882e-05
-1.07287399243e-05
-1.07293593528e-05
-1.07302692645e-05
-1.07231034009e-05
-1.07218673286e-05
-1.07209591163e-05
-1.07199427254e-05
-1.07190932088e-05
-1.07184431119e-05
-1.07180421018e-05
-1.07179109003e-05
-1.07180606784e-05
-1.07184797343e-05
-1.07191471014e-05
-1.07200128038e-05
-1.07210450439e-05
-1.07219656787e-05
-1.07232261024e-05
-1.07164572047e-05
-1.07149154079e-05
-1.07137505999e-05
-1.0712490202e-05
-1.07114328483e-05
-1.07106219145e-05
-1.07101196243e-05
-1.07099542578e-05
-1.07101388629e-05
-1.07106598942e-05
-1.07114888116e-05
-1.07125630761e-05
-1.07138400855e-05
-1.0715017675e-05
-1.07165844595e-05
-1.07105985521e-05
-1.07088067006e-05
-1.0707418471e-05
-1.07059523822e-05
-1.07047184791e-05
-1.07037711674e-05
-1.07031827749e-05
-1.07029883583e-05
-1.07032027202e-05
-1.07038105694e-05
-1.07047765744e-05
-1.07060280664e-05
-1.07075113836e-05
-1.07089125589e-05
-1.07107300075e-05
-1.07051433121e-05
-1.07031330501e-05
-1.07015344381e-05
-1.06998836858e-05
-1.06984895391e-05
-1.0697419196e-05
-1.06967531583e-05
-1.06965326075e-05
-1.06967739159e-05
-1.06974602229e-05
-1.06985500213e-05
-1.06999624232e-05
-1.07016308861e-05
-1.07032426625e-05
-1.07052792689e-05
-1.06999739732e-05
-1.06977726922e-05
-1.06959784019e-05
-1.0694164189e-05
-1.06926272665e-05
-1.06914482305e-05
-1.06907137756e-05
-1.06904703219e-05
-1.06907355055e-05
-1.06914911783e-05
-1.06926905379e-05
-1.06942464522e-05
-1.06960788148e-05
-1.06978865435e-05
-1.07001148624e-05
-1.06950910164e-05
-1.06927275449e-05
-1.06907580614e-05
-1.06888057519e-05
-1.06871481436e-05
-1.06858783987e-05
-1.06850872205e-05
-1.06848249349e-05
-1.06851100344e-05
-1.06859234759e-05
-1.06872144713e-05
-1.06888918325e-05
-1.06908626823e-05
-1.06928459647e-05
-1.06952372527e-05
-1.06904997348e-05
-1.06880034237e-05
-1.06858840361e-05
-1.06838228826e-05
-1.06820710993e-05
-1.068073213e-05
-1.06798982728e-05
-1.06796220533e-05
-1.06799223045e-05
-1.06807795874e-05
-1.06821408341e-05
-1.06839132125e-05
-1.06859933208e-05
-1.06881269591e-05
-1.06906517414e-05
-1.06862006014e-05
-1.0683601016e-05
-1.06813613305e-05
-1.06792242958e-05
-1.06774090203e-05
-1.06760256077e-05
-1.06751652923e-05
-1.06748807861e-05
-1.06751906428e-05
-1.06760756439e-05
-1.06774824495e-05
-1.06793192447e-05
-1.06814757225e-05
-1.06837302722e-05
-1.06863590849e-05
-1.06821915652e-05
-1.06795168562e-05
-1.06771902107e-05
-1.06750139524e-05
-1.06731698893e-05
-1.06717699632e-05
-1.06709014104e-05
-1.06706149727e-05
-1.06709281816e-05
-1.06718227796e-05
-1.06732473373e-05
-1.06751139668e-05
-1.06773102898e-05
-1.06796526099e-05
-1.06823573253e-05
-1.06784621888e-05
-1.06757373623e-05
-1.06733610448e-05
-1.06711862923e-05
-1.06693520201e-05
-1.06679663403e-05
-1.0667109548e-05
-1.06668280858e-05
-1.06671378066e-05
-1.06680220955e-05
-1.06694337482e-05
-1.06712918075e-05
-1.06734874496e-05
-1.06758805297e-05
-1.06786365142e-05
-1.06749783235e-05
-1.06722291384e-05
-1.06698486986e-05
-1.06677218503e-05
-1.06659398136e-05
-1.06646017829e-05
-1.06637781457e-05
-1.06635090739e-05
-1.06638079195e-05
-1.06646605561e-05
-1.066602604e-05
-1.06678332567e-05
-1.06699820973e-05
-1.0672380662e-05
-1.06751625024e-05
-1.06716475471e-05
-1.06689293201e-05
-1.06666110958e-05
-1.0664586703e-05
-1.06629035455e-05
-1.0661649015e-05
-1.06608814291e-05
-1.06606324339e-05
-1.06609126678e-05
-1.0661710739e-05
-1.0662994241e-05
-1.06647041889e-05
-1.06667520439e-05
-1.06690900207e-05
-1.06718423922e-05
-1.06683608955e-05
-1.06657644537e-05
-1.06635820775e-05
-1.06617209288e-05
-1.06601872088e-05
-1.06590559172e-05
-1.06583692172e-05
-1.06581489284e-05
-1.06584017589e-05
-1.06591202944e-05
-1.06602820948e-05
-1.06618443787e-05
-1.06637309341e-05
-1.0665935548e-05
-1.06685658658e-05
-1.06655047744e-05
-1.06626175471e-05
-1.06606383157e-05
-1.06589790273e-05
-1.06576389595e-05
-1.06566680067e-05
-1.06560860266e-05
-1.06559023149e-05
-1.06561200232e-05
-1.06567353424e-05
-1.06577384926e-05
-1.06591093179e-05
-1.06607973081e-05
-1.06628026494e-05
-1.06657191954e-05
-9.8854359982e-06
-9.88550299635e-06
-9.88558730524e-06
-9.88567530761e-06
-9.88575257884e-06
-9.88581018416e-06
-9.88584290963e-06
-9.88584814752e-06
-9.88582497172e-06
-9.88577490065e-06
-9.88570161891e-06
-9.88561158944e-06
-9.8855146691e-06
-9.88542659744e-06
-9.88535909961e-06
-9.88540002331e-06
-9.88546777008e-06
-9.88555389682e-06
-9.88564537327e-06
-9.88572690277e-06
-9.88578855226e-06
-9.88582423997e-06
-9.88583073845e-06
-9.8858069147e-06
-9.88575455092e-06
-9.88567789469e-06
-9.88558419426e-06
-9.88548408631e-06
-9.88539377066e-06
-9.88532494703e-06
-9.88534219524e-06
-9.88540850427e-06
-9.88549313568e-06
-9.88558423257e-06
-9.88566611284e-06
-9.88572860416e-06
-9.88576515177e-06
-9.88577211889e-06
-9.88574819098e-06
-9.88569527205e-06
-9.88561791631e-06
-9.88552382265e-06
-9.8854240124e-06
-9.88533500288e-06
-9.88526771727e-06
-9.88531580933e-06
-9.88537880715e-06
-9.88545985677e-06
-9.88554747492e-06
-9.88562640581e-06
-9.88568680229e-06
-9.88572218932e-06
-9.88572892567e-06
-9.8857056722e-06
-9.88565430577e-06
-9.88557928918e-06
-9.88548819955e-06
-9.88539182119e-06
-9.88530626093e-06
-9.88524212677e-06
-9.88529251145e-06
-9.88534613961e-06
-9.88541811985e-06
-9.88549611645e-06
-9.88556636563e-06
-9.88561994286e-06
-9.88565109056e-06
-9.88565653945e-06
-9.88563510507e-06
-9.8855884699e-06
-9.88552062684e-06
-9.88543839015e-06
-9.88535162041e-06
-9.8852750297e-06
-9.88522000395e-06
-9.88524109167e-06
-9.88527708984e-06
-9.88533287524e-06
-9.88539417768e-06
-9.88544940381e-06
-9.88549114599e-06
-9.88551481963e-06
-9.88551790172e-06
-9.88549946171e-06
-9.88546090003e-06
-9.88540539561e-06
-9.88533849472e-06
-9.88526851276e-06
-9.88520793129e-06
-9.88517016945e-06
-9.88514684142e-06
-9.88515749663e-06
-9.88519084733e-06
-9.88522943876e-06
-9.88526435811e-06
-9.8852901538e-06
-9.88530375418e-06
-9.88530359496e-06
-9.88528906873e-06
-9.88526122628e-06
-9.88522222122e-06
-9.88517599608e-06
-9.88512888198e-06
-9.88509054794e-06
-9.88507782476e-06
-9.88500565794e-06
-9.88498503369e-06
-9.88499159547e-06
-9.88500351415e-06
-9.88501480952e-06
-9.88502215229e-06
-9.88502413796e-06
-9.88502022326e-06
-9.88501017538e-06
-9.88499465158e-06
-9.88497471795e-06
-9.88495256249e-06
-9.88493230049e-06
-9.88492061477e-06
-9.88493868541e-06
-9.88481941693e-06
-9.88476447795e-06
-9.88474216984e-06
-9.88472583318e-06
-9.88471225938e-06
-9.884700292e-06
-9.88469017295e-06
-9.88468234536e-06
-9.88467694119e-06
-9.8846742328e-06
-9.88467424246e-06
-9.88467742643e-06
-9.88468564269e-06
-9.8847027098e-06
-9.88475476368e-06
-9.88459422981e-06
-9.88450478015e-06
-9.88445371428e-06
-9.88440972418e-06
-9.88437196631e-06
-9.8843413716e-06
-9.88431963368e-06
-9.88430808531e-06
-9.88430714212e-06
-9.88431677157e-06
-9.88433606085e-06
-9.88436391216e-06
-9.88440001765e-06
-9.8844457358e-06
-9.88453194101e-06
-9.8843387501e-06
-9.88421746491e-06
-9.88413972798e-06
-9.8840704215e-06
-9.88401067758e-06
-9.88396327953e-06
-9.88393116953e-06
-9.88391631648e-06
-9.88391939595e-06
-9.88394009923e-06
-9.88397681988e-06
-9.88402715628e-06
-9.88408883673e-06
-9.88416113952e-06
-9.88427897393e-06
-9.88406332746e-06
-9.88391515681e-06
-9.88381418811e-06
-9.88372296547e-06
-9.88364438561e-06
-9.88358285892e-06
-9.88354210144e-06
-9.88352457636e-06
-9.88353101067e-06
-9.88356103196e-06
-9.88361250022e-06
-9.88368215094e-06
-9.88376601146e-06
-9.88386149744e-06
-9.88400593143e-06
-9.88377818297e-06
-9.88360981823e-06
-9.88348960532e-06
-9.88338033555e-06
-9.88328670564e-06
-9.88321418749e-06
-9.88316702657e-06
-9.88314748346e-06
-9.88315658371e-06
-9.88319363168e-06
-9.88325665991e-06
-9.88334183009e-06
-9.88344403231e-06
-9.88355874165e-06
-9.88372326769e-06
-9.8834947052e-06
-9.88331164529e-06
-9.88317487666e-06
-9.88305120272e-06
-9.88294692644e-06
-9.88286748565e-06
-9.88281639429e-06
-9.88279592043e-06
-9.88280655362e-06
-9.88284812691e-06
-9.88291866047e-06
-9.88301493646e-06
-9.88313171791e-06
-9.88326298621e-06
-9.88344228353e-06
-9.88324294035e-06
-9.88304067663e-06
-9.88288440081e-06
-9.88274656172e-06
-9.88263392651e-06
-9.88254992624e-06
-9.88249687655e-06
-9.88247590425e-06
-9.88248758993e-06
-9.88253160664e-06
-9.88260714799e-06
-9.88271209238e-06
-9.88284327336e-06
-9.88299372764e-06
-9.88319232635e-06
-9.55755278175e-06
-9.55750840051e-06
-9.55747025859e-06
-9.55743922241e-06
-9.5574162497e-06
-9.5574022818e-06
-9.55739733497e-06
-9.55740108565e-06
-9.55741332213e-06
-9.55743348309e-06
-9.55746071716e-06
-9.55749357739e-06
-9.55753026579e-06
-9.55756685782e-06
-9.55760414366e-06
-9.5575432706e-06
-9.55750038392e-06
-9.5574628878e-06
-9.55743149504e-06
-9.55740783243e-06
-9.55739299751e-06
-9.55738728983e-06
-9.55739055453e-06
-9.55740266549e-06
-9.55742299099e-06
-9.55745056336e-06
-9.55748378963e-06
-9.55752067472e-06
-9.55755717864e-06
-9.55759351702e-06
-9.55757419782e-06
-9.55753523698e-06
-9.5575010813e-06
-9.55747178374e-06
-9.55744960637e-06
-9.55743556646e-06
-9.55743010903e-06
-9.55743323685e-06
-9.55744490014e-06
-9.5574644441e-06
-9.55749083229e-06
-9.55752236924e-06
-9.55755697944e-06
-9.55759043441e-06
-9.55762325733e-06
-9.55760222278e-06
-9.55756579883e-06
-9.55753389049e-06
-9.55750611055e-06
-9.55748496877e-06
-9.55747142831e-06
-9.5574660341e-06
-9.55746894481e-06
-9.55748017826e-06
-9.55749907135e-06
-9.55752453339e-06
-9.55755479804e-06
-9.55758773775e-06
-9.55761904816e-06
-9.55764978408e-06
-9.55762006736e-06
-9.55758500892e-06
-9.55755428739e-06
-9.55752724023e-06
-9.55750647669e-06
-9.55749298606e-06
-9.55748741764e-06
-9.55749002613e-06
-9.5575008763e-06
-9.55751929322e-06
-9.55754415215e-06
-9.55757364889e-06
-9.55760562931e-06
-9.557635819e-06
-9.55766578649e-06
-9.55763176991e-06
-9.55759719815e-06
-9.55756713488e-06
-9.55754043784e-06
-9.55751978823e-06
-9.5575062122e-06
-9.5575004007e-06
-9.55750269291e-06
-9.55751317188e-06
-9.55753116532e-06
-9.5575555295e-06
-9.55758446656e-06
-9.55761582351e-06
-9.55764543946e-06
-9.55767533478e-06
-9.55763958066e-06
-9.55760519144e-06
-9.55757543994e-06
-9.55754882158e-06
-9.5575281089e-06
-9.55751435403e-06
-9.55750827557e-06
-9.5575102492e-06
-9.55752035576e-06
-9.55753793005e-06
-9.5575618338e-06
-9.55759031105e-06
-9.5576212356e-06
-9.55765062829e-06
-9.55768088848e-06
-9.55764442746e-06
-9.55760990909e-06
-9.55758012801e-06
-9.55755345264e-06
-9.55753261776e-06
-9.55751868065e-06
-9.55751235983e-06
-9.55751403512e-06
-9.55752377417e-06
-9.55754092442e-06
-9.55756437826e-06
-9.55759245455e-06
-9.55762308353e-06
-9.55765252964e-06
-9.55768344833e-06
-9.55764694419e-06
-9.5576121349e-06
-9.55758211475e-06
-9.55755530363e-06
-9.55753430891e-06
-9.55752020728e-06
-9.55751368632e-06
-9.55751509189e-06
-9.55752446684e-06
-9.55754117726e-06
-9.55756416998e-06
-9.55759187079e-06
-9.55762229444e-06
-9.55765200433e-06
-9.55768379289e-06
-9.55764775998e-06
-9.5576124129e-06
-9.55758202267e-06
-9.55755505823e-06
-9.55753395694e-06
-9.55751977702e-06
-9.557513129e-06
-9.55751431641e-06
-9.55752333084e-06
-9.5575395771e-06
-9.55756207292e-06
-9.55758938342e-06
-9.55761964525e-06
-9.55764977039e-06
-9.5576825564e-06
-9.55764712989e-06
-9.55761115768e-06
-9.55758036005e-06
-9.55755329965e-06
-9.557532209e-06
-9.55751806358e-06
-9.55751140104e-06
-9.55751242254e-06
-9.55752108724e-06
-9.55753682238e-06
-9.5575587558e-06
-9.55758561328e-06
-9.55761569536e-06
-9.55764631582e-06
-9.5576802065e-06
-9.55764531076e-06
-9.55760859329e-06
-9.55757739933e-06
-9.55755039734e-06
-9.55752949291e-06
-9.55751558175e-06
-9.55750902668e-06
-9.55750996981e-06
-9.55751827561e-06
-9.55753345019e-06
-9.55755471009e-06
-9.55758099228e-06
-9.55761080973e-06
-9.55764192619e-06
-9.55767701145e-06
-9.55764267761e-06
-9.55760504073e-06
-9.55757354225e-06
-9.55754676372e-06
-9.55752626713e-06
-9.5575127234e-06
-9.55750643585e-06
-9.55750734612e-06
-9.55751533449e-06
-9.55752988643e-06
-9.55755039424e-06
-9.55757598001e-06
-9.55760542616e-06
-9.55763701492e-06
-9.55767349924e-06
-9.55763906341e-06
-9.55760032433e-06
-9.55756904997e-06
-9.55754287973e-06
-9.55752302527e-06
-9.55751007742e-06
-9.55750410944e-06
-9.55750508834e-06
-9.55751274211e-06
-9.55752666397e-06
-9.55754630746e-06
-9.55757099249e-06
-9.55759977002e-06
-9.55763136401e-06
-9.55766938318e-06
-9.55761908893e-06
-9.55758489936e-06
-9.55755762184e-06
-9.5575350273e-06
-9.55751814844e-06
-9.55750732366e-06
-9.5575026422e-06
-9.5575039496e-06
-9.55751099343e-06
-9.55752336288e-06
-9.55754059338e-06
-9.55756214928e-06
-9.55758739233e-06
-9.55761535885e-06
-9.55764932518e-06
-8.8577405139e-06
-8.85776508115e-06
-8.8577898481e-06
-8.85781234231e-06
-8.85783095342e-06
-8.85784431145e-06
-8.85785190129e-06
-8.8578534322e-06
-8.8578488472e-06
-8.85783845765e-06
-8.85782289546e-06
-8.85780316151e-06
-8.85778073288e-06
-8.85775790052e-06
-8.85773557769e-06
-8.85776238323e-06
-8.85778645812e-06
-8.85781128048e-06
-8.85783426124e-06
-8.85785334251e-06
-8.85786713655e-06
-8.85787505434e-06
-8.8578767474e-06
-8.85787212276e-06
-8.85786153023e-06
-8.85784565075e-06
-8.85782556839e-06
-8.85780286956e-06
-8.85777989845e-06
-8.85775814267e-06
-8.85775005485e-06
-8.85777111939e-06
-8.85779304651e-06
-8.85781384468e-06
-8.85783123366e-06
-8.85784395489e-06
-8.85785132245e-06
-8.85785292922e-06
-8.85784861639e-06
-8.85783874503e-06
-8.8578240077e-06
-8.85780552046e-06
-8.85778490036e-06
-8.85776449731e-06
-8.85774586142e-06
-8.85773279464e-06
-8.85775099518e-06
-8.85777031697e-06
-8.85778894709e-06
-8.85780471845e-06
-8.85781638139e-06
-8.857823184e-06
-8.85782468861e-06
-8.8578207016e-06
-8.85781158315e-06
-8.8577980286e-06
-8.8577811611e-06
-8.85776259131e-06
-8.85774455977e-06
-8.85772860364e-06
-8.85771774077e-06
-8.85773368649e-06
-8.85775091069e-06
-8.85776761662e-06
-8.85778194193e-06
-8.85779261755e-06
-8.85779890342e-06
-8.85780031047e-06
-8.85779663265e-06
-8.85778821107e-06
-8.85777573875e-06
-8.85776031844e-06
-8.85774352353e-06
-8.85772740595e-06
-8.85771351149e-06
-8.85770293978e-06
-8.85771687338e-06
-8.85773208447e-06
-8.85774704802e-06
-8.85776000712e-06
-8.85776974184e-06
-8.85777549549e-06
-8.85777679335e-06
-8.85777341709e-06
-8.85776570305e-06
-8.85775431817e-06
-8.85774032284e-06
-8.85772521958e-06
-8.85771083368e-06
-8.8576987685e-06
-8.85768738993e-06
-8.85769942762e-06
-8.85771273082e-06
-8.85772595898e-06
-8.85773750349e-06
-8.85774623462e-06
-8.85775141207e-06
-8.85775258188e-06
-8.8577495168e-06
-8.85774253898e-06
-8.85773227585e-06
-8.85771972031e-06
-8.85770627564e-06
-8.85769353179e-06
-8.85768316125e-06
-8.85767085435e-06
-8.85768093733e-06
-8.85769245214e-06
-8.85770398838e-06
-8.85771415914e-06
-8.8577218859e-06
-8.85772647642e-06
-8.85772750109e-06
-8.85772474997e-06
-8.8577185197e-06
-8.85770938993e-06
-8.85769826564e-06
-8.85768642751e-06
-8.85767523637e-06
-8.85766646804e-06
-8.85765312293e-06
-8.85766146765e-06
-8.85767130368e-06
-8.85768121641e-06
-8.85769001794e-06
-8.85769671987e-06
-8.85770070268e-06
-8.85770156712e-06
-8.85769912514e-06
-8.85769364209e-06
-8.85768563468e-06
-8.8576759061e-06
-8.85766559427e-06
-8.85765585871e-06
-8.85764856273e-06
-8.85763421165e-06
-8.85764093158e-06
-8.8576492074e-06
-8.85765761134e-06
-8.85766510416e-06
-8.85767082399e-06
-8.85767420183e-06
-8.85767490714e-06
-8.85767276275e-06
-8.85766800824e-06
-8.85766108501e-06
-8.85765268186e-06
-8.85764378063e-06
-8.85763536553e-06
-8.85762941693e-06
-8.857614033e-06
-8.85761941367e-06
-8.85762635268e-06
-8.85763339801e-06
-8.85763968036e-06
-8.857644439e-06
-8.85764723225e-06
-8.85764776591e-06
-8.85764590649e-06
-8.85764184299e-06
-8.85763594444e-06
-8.85762876947e-06
-8.85762112666e-06
-8.85761386947e-06
-8.85760904686e-06
-8.85759271771e-06
-8.85759709529e-06
-8.85760296647e-06
-8.85760886944e-06
-8.85761402988e-06
-8.85761793376e-06
-8.85762014766e-06
-8.85762053068e-06
-8.85761891801e-06
-8.85761550757e-06
-8.85761054638e-06
-8.85760447241e-06
-8.85759789677e-06
-8.85759153864e-06
-8.85758754158e-06
-8.8575697265e-06
-8.85757386087e-06
-8.85757919e-06
-8.85758424154e-06
-8.85758856535e-06
-8.85759166088e-06
-8.85759345549e-06
-8.85759364978e-06
-8.85759229468e-06
-8.85758941107e-06
-8.85758524391e-06
-8.85758005638e-06
-8.85757424266e-06
-8.85756834336e-06
-8.85756448132e-06
-8.85754532151e-06
-8.85755033156e-06
-8.85755530745e-06
-8.85755980616e-06
-8.85756338982e-06
-8.85756602375e-06
-8.85756739238e-06
-8.85756754529e-06
-8.85756632194e-06
-8.85756386263e-06
-8.85756027762e-06
-8.85755576438e-06
-8.85755049148e-06
-8.85754486104e-06
-8.85754017543e-06
-8.85753582198e-06
-8.85753520059e-06
-8.85753725338e-06
-8.85753896944e-06
-8.8575403415e-06
-8.85754128724e-06
-8.85754173986e-06
-8.85754154345e-06
-8.85754070057e-06
-8.85753924509e-06
-8.85753730716e-06
-8.85753504932e-06
-8.85753252262e-06
-8.85752979059e-06
-8.85753061563e-06
-8.459141079e-06
-8.45911776975e-06
-8.45909648377e-06
-8.45907916396e-06
-8.45906567528e-06
-8.45905660746e-06
-8.45905261594e-06
-8.4590536647e-06
-8.4590596427e-06
-8.45907021913e-06
-8.45908490909e-06
-8.4591029682e-06
-8.45912337346e-06
-8.45914449324e-06
-8.45916594524e-06
-8.45912367967e-06
-8.45910106088e-06
-8.4590800039e-06
-8.4590623993e-06
-8.45904845316e-06
-8.45903893855e-06
-8.45903454665e-06
-8.45903532924e-06
-8.45904123192e-06
-8.45905188861e-06
-8.45906676709e-06
-8.45908506131e-06
-8.45910565264e-06
-8.45912686918e-06
-8.45914784818e-06
-8.45913485793e-06
-8.45911481502e-06
-8.45909598548e-06
-8.45907988974e-06
-8.45906714274e-06
-8.45905847405e-06
-8.45905448488e-06
-8.45905528131e-06
-8.45906086495e-06
-8.45907087879e-06
-8.4590847797e-06
-8.4591017408e-06
-8.45912061752e-06
-8.45913972948e-06
-8.45915815082e-06
-8.45914999578e-06
-8.45913214817e-06
-8.45911521762e-06
-8.4591006554e-06
-8.45908911663e-06
-8.45908128935e-06
-8.45907769451e-06
-8.45907850315e-06
-8.45908375846e-06
-8.45909311726e-06
-8.45910603182e-06
-8.45912167202e-06
-8.45913889187e-06
-8.45915608854e-06
-8.45917234475e-06
-8.45916322689e-06
-8.45914717131e-06
-8.45913166814e-06
-8.45911830537e-06
-8.45910771267e-06
-8.45910054625e-06
-8.45909727026e-06
-8.4590980715e-06
-8.45910302591e-06
-8.45911179633e-06
-8.45912384302e-06
-8.45913834396e-06
-8.45915417382e-06
-8.45916986142e-06
-8.45918447064e-06
-8.45917597877e-06
-8.45916128726e-06
-8.45914707297e-06
-8.45913482035e-06
-8.45912510929e-06
-8.45911856503e-06
-8.45911558862e-06
-8.45911638999e-06
-8.45912105248e-06
-8.45912925268e-06
-8.45914046018e-06
-8.45915388301e-06
-8.45916843525e-06
-8.45918279917e-06
-8.45919600153e-06
-8.45918905844e-06
-8.45917570505e-06
-8.45916266084e-06
-8.45915138024e-06
-8.4591424767e-06
-8.45913651752e-06
-8.45913384405e-06
-8.45913465919e-06
-8.45913903774e-06
-8.45914667143e-06
-8.45915705055e-06
-8.45916942596e-06
-8.45918276923e-06
-8.45919592096e-06
-8.45920784968e-06
-8.45920259924e-06
-8.45919044906e-06
-8.45917843987e-06
-8.45916809001e-06
-8.45915997208e-06
-8.45915458487e-06
-8.45915221955e-06
-8.45915305988e-06
-8.45915716728e-06
-8.45916424637e-06
-8.45917381842e-06
-8.4591851884e-06
-8.45919740052e-06
-8.45920944014e-06
-8.45922022003e-06
-8.45921663349e-06
-8.45920563797e-06
-8.4591945564e-06
-8.45918505446e-06
-8.45917765934e-06
-8.45917281497e-06
-8.45917076365e-06
-8.45917164206e-06
-8.45917549659e-06
-8.4591820414e-06
-8.45919083848e-06
-8.45920125766e-06
-8.45921242495e-06
-8.45922345529e-06
-8.459233186e-06
-8.45923126669e-06
-8.45922121702e-06
-8.45921098239e-06
-8.45920226176e-06
-8.45919554996e-06
-8.4591912403e-06
-8.45918949825e-06
-8.45919043576e-06
-8.45919405353e-06
-8.45920009589e-06
-8.45920816227e-06
-8.45921769751e-06
-8.45922792191e-06
-8.45923804789e-06
-8.45924685156e-06
-8.45924638432e-06
-8.45923718143e-06
-8.45922770676e-06
-8.45921967305e-06
-8.4592136058e-06
-8.4592097976e-06
-8.45920838053e-06
-8.45920938426e-06
-8.4592128008e-06
-8.4592183718e-06
-8.45922576061e-06
-8.45923448812e-06
-8.45924387882e-06
-8.45925322461e-06
-8.45926122139e-06
-8.45926201961e-06
-8.45925344855e-06
-8.45924457348e-06
-8.45923715505e-06
-8.45923166162e-06
-8.45922837106e-06
-8.45922726233e-06
-8.45922837555e-06
-8.45923160201e-06
-8.45923676029e-06
-8.45924352732e-06
-8.45925152788e-06
-8.45926021117e-06
-8.45926893034e-06
-8.45927633564e-06
-8.4592784779e-06
-8.45927009421e-06
-8.4592615733e-06
-8.45925457872e-06
-8.45924964141e-06
-8.45924674996e-06
-8.45924599242e-06
-8.4592471769e-06
-8.45925031171e-06
-8.45925510652e-06
-8.45926136078e-06
-8.45926876659e-06
-8.45927692396e-06
-8.45928530836e-06
-8.45929255894e-06
-8.45929556052e-06
-8.45928670975e-06
-8.4592785116e-06
-8.45927199574e-06
-8.45926743025e-06
-8.45926498552e-06
-8.45926443771e-06
-8.45926579028e-06
-8.45926881832e-06
-8.45927337748e-06
-8.45927922454e-06
-8.45928613242e-06
-8.45929384419e-06
-8.45930191109e-06
-8.45930967502e-06
-8.45930023617e-06
-8.45929631698e-06
-8.45929089821e-06
-8.45928668124e-06
-8.45928405258e-06
-8.45928289228e-06
-8.4592832044e-06
-8.45928481845e-06
-8.45928761671e-06
-8.45929137399e-06
-8.45929586841e-06
-8.45930088969e-06
-8.4593062503e-06
-8.4593117217e-06
-8.45931471826e-06
-7.81499152355e-06
-7.81501054775e-06
-7.81502856715e-06
-7.81504404162e-06
-7.8150563031e-06
-7.81506483193e-06
-7.81506934687e-06
-7.81506967825e-06
-7.81506576206e-06
-7.81505781178e-06
-7.81504625376e-06
-7.81503178901e-06
-7.81501540442e-06
-7.81499865257e-06
-7.81498210907e-06
-7.81500596154e-06
-7.81502469266e-06
-7.81504275224e-06
-7.81505858021e-06
-7.81507119564e-06
-7.81508000136e-06
-7.81508469832e-06
-7.81508510752e-06
-7.81508115658e-06
-7.81507308075e-06
-7.81506133531e-06
-7.81504666465e-06
-7.81503012734e-06
-7.81501330187e-06
-7.81499714183e-06
-7.81499715089e-06
-7.81501380653e-06
-7.81502982748e-06
-7.81504415932e-06
-7.81505565441e-06
-7.81506375949e-06
-7.81506811068e-06
-7.81506848852e-06
-7.81506477853e-06
-7.81505722283e-06
-7.81504628393e-06
-7.81503272495e-06
-7.81501762258e-06
-7.81500255789e-06
-7.81498851996e-06
-7.81498503717e-06
-7.81499965994e-06
-7.81501392192e-06
-7.81502685761e-06
-7.81503734126e-06
-7.81504478086e-06
-7.81504878292e-06
-7.81504911337e-06
-7.81504564264e-06
-7.81503861049e-06
-7.81502848539e-06
-7.81501603e-06
-7.81500231907e-06
-7.81498885927e-06
-7.8149766149e-06
-7.81497450083e-06
-7.81498756382e-06
-7.81500043058e-06
-7.81501214457e-06
-7.81502174543e-06
-7.81502860636e-06
-7.81503232358e-06
-7.81503262955e-06
-7.81502938853e-06
-7.81502283531e-06
-7.81501343692e-06
-7.81500194613e-06
-7.81498941397e-06
-7.81497722616e-06
-7.81496634421e-06
-7.81496426255e-06
-7.81497596107e-06
-7.81498754434e-06
-7.81499823808e-06
-7.8150070769e-06
-7.81501342079e-06
-7.81501685694e-06
-7.81501712733e-06
-7.81501410008e-06
-7.81500801151e-06
-7.8149993172e-06
-7.81498874404e-06
-7.81497730027e-06
-7.81496622753e-06
-7.81495651482e-06
-7.81495372486e-06
-7.81496417255e-06
-7.81497457669e-06
-7.81498425676e-06
-7.81499231534e-06
-7.81499812826e-06
-7.81500128262e-06
-7.81500152505e-06
-7.81499872528e-06
-7.81499311359e-06
-7.8149851298e-06
-7.81497545901e-06
-7.81496505331e-06
-7.81495500569e-06
-7.81494634354e-06
-7.8149427478e-06
-7.81495191322e-06
-7.81496124671e-06
-7.81496999702e-06
-7.81497733868e-06
-7.81498264945e-06
-7.81498552741e-06
-7.8149857375e-06
-7.81498316285e-06
-7.81497802677e-06
-7.81497074318e-06
-7.81496194699e-06
-7.81495251789e-06
-7.81494340896e-06
-7.81493569856e-06
-7.8149311984e-06
-7.81493927636e-06
-7.81494762505e-06
-7.8149554875e-06
-7.8149621177e-06
-7.81496691717e-06
-7.81496952101e-06
-7.81496969913e-06
-7.81496735389e-06
-7.81496269343e-06
-7.81495609635e-06
-7.81494813944e-06
-7.81493961943e-06
-7.81493136357e-06
-7.81492450443e-06
-7.81491910582e-06
-7.81492615499e-06
-7.81493360375e-06
-7.81494065742e-06
-7.81494661781e-06
-7.81495094686e-06
-7.81495327984e-06
-7.81495343436e-06
-7.81495131604e-06
-7.81494712184e-06
-7.81494118775e-06
-7.81493402207e-06
-7.81492632941e-06
-7.81491883419e-06
-7.81491272473e-06
-7.81490637031e-06
-7.81491259044e-06
-7.81491928726e-06
-7.81492560465e-06
-7.81493095206e-06
-7.81493480301e-06
-7.81493688038e-06
-7.81493700314e-06
-7.81493511324e-06
-7.81493137114e-06
-7.81492607189e-06
-7.81491964304e-06
-7.8149126879e-06
-7.81490584507e-06
-7.81490035401e-06
-7.81489306346e-06
-7.81489866775e-06
-7.81490474491e-06
-7.81491044947e-06
-7.81491518834e-06
-7.81491863765e-06
-7.8149204399e-06
-7.81492055785e-06
-7.81491887652e-06
-7.81491558109e-06
-7.81491088301e-06
-7.81490513005e-06
-7.81489880638e-06
-7.81489247391e-06
-7.81488741265e-06
-7.81487881222e-06
-7.81488425362e-06
-7.81489002449e-06
-7.81489521745e-06
-7.81489956937e-06
-7.81490255812e-06
-7.81490422213e-06
-7.8149042822e-06
-7.81490284412e-06
-7.81489993455e-06
-7.81489576798e-06
-7.81489058343e-06
-7.81488472673e-06
-7.81487864119e-06
-7.81487359761e-06
-7.81486377355e-06
-7.81486975429e-06
-7.81487522322e-06
-7.81488013893e-06
-7.8148839936e-06
-7.81488681844e-06
-7.81488824904e-06
-7.81488838873e-06
-7.81488710507e-06
-7.8148845389e-06
-7.81488080742e-06
-7.81487609547e-06
-7.8148706093e-06
-7.814864708e-06
-7.81485910692e-06
-7.81485892152e-06
-7.81486092957e-06
-7.81486438741e-06
-7.81486733566e-06
-7.81486976663e-06
-7.81487145278e-06
-7.81487234913e-06
-7.81487231545e-06
-7.8148713753e-06
-7.81486957994e-06
-7.81486704304e-06
-7.81486393095e-06
-7.81486036212e-06
-7.81485649215e-06
-7.81485463257e-06
-7.37448082798e-06
-7.37446772202e-06
-7.37445362082e-06
-7.37444045904e-06
-7.37442944303e-06
-7.37442125086e-06
-7.37441619584e-06
-7.37441456786e-06
-7.37441653094e-06
-7.37442194562e-06
-7.37443048126e-06
-7.37444156268e-06
-7.37445439819e-06
-7.37446774488e-06
-7.37448116115e-06
-7.3744682836e-06
-7.37445542813e-06
-7.3744413546e-06
-7.37442803739e-06
-7.3744167976e-06
-7.37440837716e-06
-7.3744031483e-06
-7.37440143248e-06
-7.3744034117e-06
-7.37440893112e-06
-7.37441762608e-06
-7.3744288858e-06
-7.37444185379e-06
-7.37445527036e-06
-7.37446838267e-06
-7.37447606804e-06
-7.37446487801e-06
-7.37445240816e-06
-7.3744402981e-06
-7.3744299379e-06
-7.3744220798e-06
-7.37441716235e-06
-7.37441551839e-06
-7.37441733737e-06
-7.37442245182e-06
-7.37443048871e-06
-7.37444082396e-06
-7.37445258821e-06
-7.37446452028e-06
-7.37447584088e-06
-7.37448646193e-06
-7.37447675038e-06
-7.37446564879e-06
-7.37445471332e-06
-7.37444522212e-06
-7.37443795213e-06
-7.37443337639e-06
-7.37443182872e-06
-7.37443349773e-06
-7.37443821217e-06
-7.37444559493e-06
-7.37445502389e-06
-7.37446563235e-06
-7.37447622034e-06
-7.37448603563e-06
-7.37449538569e-06
-7.37448679442e-06
-7.37447670266e-06
-7.37446674283e-06
-7.37445799551e-06
-7.37445124903e-06
-7.37444697999e-06
-7.37444552618e-06
-7.37444706733e-06
-7.37445143277e-06
-7.37445824705e-06
-7.37446689943e-06
-7.37447654348e-06
-7.37448607192e-06
-7.37449473356e-06
-7.3745038459e-06
-7.37449609231e-06
-7.37448693125e-06
-7.37447783815e-06
-7.37446979496e-06
-7.37446356813e-06
-7.37445962547e-06
-7.37445828555e-06
-7.37445971767e-06
-7.3744637518e-06
-7.37447002246e-06
-7.3744779443e-06
-7.37448670602e-06
-7.37449531243e-06
-7.37450297618e-06
-7.37451243808e-06
-7.37450549405e-06
-7.3744971631e-06
-7.3744888742e-06
-7.37448152772e-06
-7.37447583132e-06
-7.3744722289e-06
-7.37447101364e-06
-7.37447234264e-06
-7.37447604824e-06
-7.37448178303e-06
-7.37448899816e-06
-7.37449692771e-06
-7.37450468673e-06
-7.3745114537e-06
-7.3745212768e-06
-7.37451509645e-06
-7.37450752294e-06
-7.3744999988e-06
-7.37449332392e-06
-7.37448815627e-06
-7.37448490259e-06
-7.37448382466e-06
-7.37448505983e-06
-7.37448844568e-06
-7.37449366019e-06
-7.37450019828e-06
-7.37450735085e-06
-7.37451433777e-06
-7.37452027759e-06
-7.37453043748e-06
-7.37452496292e-06
-7.37451807518e-06
-7.37451126611e-06
-7.37450524421e-06
-7.37450060631e-06
-7.37449770549e-06
-7.37449677363e-06
-7.37449792167e-06
-7.37450099984e-06
-7.37450571579e-06
-7.37451161633e-06
-7.37451805512e-06
-7.37452433919e-06
-7.37452953558e-06
-7.37453997717e-06
-7.37453511032e-06
-7.37452886848e-06
-7.37452272575e-06
-7.3745173295e-06
-7.37451320023e-06
-7.37451065211e-06
-7.37450986692e-06
-7.37451093801e-06
-7.37451372487e-06
-7.37451797073e-06
-7.37452328052e-06
-7.37452907695e-06
-7.37453473744e-06
-7.37453926231e-06
-7.37454989429e-06
-7.37454554505e-06
-7.3745398601e-06
-7.37453432031e-06
-7.37452951167e-06
-7.37452588776e-06
-7.37452368705e-06
-7.37452305873e-06
-7.37452406425e-06
-7.37452658028e-06
-7.37453039148e-06
-7.37453516492e-06
-7.3745403991e-06
-7.37454552678e-06
-7.3745494918e-06
-7.37456023207e-06
-7.37455620881e-06
-7.3745509622e-06
-7.37454594973e-06
-7.37454170113e-06
-7.37453854661e-06
-7.3745367049e-06
-7.37453623301e-06
-7.37453719475e-06
-7.37453946716e-06
-7.37454288011e-06
-7.37454717596e-06
-7.37455194059e-06
-7.37455665653e-06
-7.37456022223e-06
-7.37457128656e-06
-7.37456718848e-06
-7.37456214638e-06
-7.37455753409e-06
-7.37455374101e-06
-7.37455105848e-06
-7.37454951476e-06
-7.37454923112e-06
-7.37455016185e-06
-7.37455224069e-06
-7.37455532838e-06
-7.37455923872e-06
-7.37456366763e-06
-7.37456819518e-06
-7.37457173489e-06
-7.37458282258e-06
-7.37457815392e-06
-7.37457327442e-06
-7.3745689926e-06
-7.37456563419e-06
-7.3745632847e-06