/*--------------------------------*- C++ -*----------------------------------*\
  =========                 |
  \\      /  F ield         | OpenFOAM: The Open Source CFD Toolbox
   \\    /   O peration     | Website:  https://openfoam.org
    \\  /    A nd           | Version:  7
     \\/     M anipulation  |
\*---------------------------------------------------------------------------*/
FoamFile
{
    version     2.0;
    format      ascii;
    class       volVectorField;
    location    "1.86";
    object      U;
}
// * * * * * * * * * * * * * * * * * * * * * * * * * * * * * * * * * * * * * //

dimensions      [0 1 -1 0 0 0 0];

internalField   nonuniform List<vector> 
22500
(
(-1.01450970334e-06 -1.75202113136e-06 4.52562269012e-05)
(-3.80181872818e-07 -2.34033723427e-06 4.84639703009e-05)
(1.12480656212e-07 -2.66400460292e-06 5.20698763347e-05)
(3.9480972906e-07 -2.77909152823e-06 5.56064748576e-05)
(4.83421607342e-07 -2.7725803714e-06 5.87084081076e-05)
(3.99992102897e-07 -2.71459880087e-06 6.1104522804e-05)
(1.94820642582e-07 -2.66019658197e-06 6.2608830369e-05)
(-7.34542998488e-08 -2.64298859369e-06 6.31119559255e-05)
(-3.39551566356e-07 -2.67382904458e-06 6.25735658674e-05)
(-5.38412429216e-07 -2.74089999666e-06 6.1034754465e-05)
(-6.11579281425e-07 -2.80968756971e-06 5.86050588965e-05)
(-5.09372930603e-07 -2.82431902266e-06 5.5470363624e-05)
(-2.10082971525e-07 -2.71389416578e-06 5.1901246646e-05)
(2.97410558858e-07 -2.39331346165e-06 4.82604571194e-05)
(9.55509959667e-07 -1.80060085787e-06 4.50089941557e-05)
(-4.39834778669e-06 -6.43083896179e-06 0.00010860752171)
(-2.63476171236e-06 -8.2001215021e-06 0.000115446512488)
(-1.12149082023e-06 -9.28235802303e-06 0.0001236850927)
(-1.05253463584e-07 -9.79157121935e-06 0.000132056710408)
(4.12209503873e-07 -9.93739458445e-06 0.000139548213263)
(4.76885407015e-07 -9.90063916685e-06 0.000145402586111)
(2.13618989856e-07 -9.82684538028e-06 0.000149099046356)
(-2.20601569356e-07 -9.80619090117e-06 0.000150330419748)
(-6.484333906e-07 -9.86789563599e-06 0.000148989190031)
(-8.93037822857e-07 -9.97939847572e-06 0.000145185678785)
(-7.97817930593e-07 -1.00478507834e-05 0.000139227691131)
(-2.39436134346e-07 -9.92549187429e-06 0.000131635808323)
(8.27159691315e-07 -9.42954303069e-06 0.000123165329023)
(2.3898229803e-06 -8.35464909761e-06 0.000114821781641)
(4.22384752219e-06 -6.57566537387e-06 0.000107859541877)
(-9.98249520006e-06 -1.32421228575e-05 0.000144385847599)
(-7.19066705051e-06 -1.63934759666e-05 0.000152184420429)
(-4.59364033079e-06 -1.8532641065e-05 0.000162566033041)
(-2.61132655229e-06 -1.97825628939e-05 0.000173592987413)
(-1.29357858542e-06 -2.04196701558e-05 0.000183693629422)
(-5.95198920842e-07 -2.06854100831e-05 0.000191689342044)
(-3.51532339717e-07 -2.07762687709e-05 0.000196768901908)
(-3.4554186192e-07 -2.08143475146e-05 0.000198453656142)
(-3.29996062502e-07 -2.08392574347e-05 0.000196580801835)
(-5.86132182713e-08 -2.08065621714e-05 0.000191318732389)
(6.84648310953e-07 -2.05904290606e-05 0.000183147323202)
(2.0621389313e-06 -1.99912703234e-05 0.000172877807317)
(4.11771902171e-06 -1.87646380545e-05 0.00016168641227)
(6.79013057166e-06 -1.66399048252e-05 0.000151133176101)
(9.68873221147e-06 -1.34797763367e-05 0.000143138277634)
(-1.70737230565e-05 -2.14854220424e-05 0.000153481807873)
(-1.33512509466e-05 -2.60812824378e-05 0.000159792439326)
(-9.66111971257e-06 -2.94102199673e-05 0.0001700400587)
(-6.57416073274e-06 -3.15820159274e-05 0.000181723594909)
(-4.2035547361e-06 -3.29032160731e-05 0.00019279459749)
(-2.5230221791e-06 -3.36395584411e-05 0.000201715437338)
(-1.35618063907e-06 -3.40083581932e-05 0.000207429732958)
(-4.58445522508e-07 -3.41441249883e-05 0.000209315080521)
(4.51465100142e-07 -3.40902527244e-05 0.000207163772483)
(1.65351570902e-06 -3.37972129423e-05 0.000201192472738)
(3.39085268476e-06 -3.31259950966e-05 0.000192025282484)
(5.83707696844e-06 -3.18555574182e-05 0.000180718985223)
(9.01674197684e-06 -2.97163378335e-05 0.000168808602541)
(1.28051376546e-05 -2.64087206442e-05 0.000158327713552)
(1.66639630027e-05 -2.18067457747e-05 0.000151754555067)
(-2.50973674589e-05 -3.05546657497e-05 0.000137491314002)
(-2.05369206168e-05 -3.6551482905e-05 0.000140208031764)
(-1.57821323099e-05 -4.10811543209e-05 0.000148377371333)
(-1.15248114143e-05 -4.42332656643e-05 0.000159009639383)
(-7.9455370856e-06 -4.63210973811e-05 0.000169646252425)
(-5.0486226161e-06 -4.7609759135e-05 0.000178446182795)
(-2.66761607025e-06 -4.83148123228e-05 0.000184150321027)
(-5.57418253076e-07 -4.85683350142e-05 0.000186019375354)
(1.56699121979e-06 -4.84124008593e-05 0.000183809940113)
(3.98911863426e-06 -4.77978231035e-05 0.000177778014985)
(6.95238340351e-06 -4.65874853998e-05 0.000168664848556)
(1.06200894016e-05 -4.45615331138e-05 0.000157730520095)
(1.49857242249e-05 -4.14505374964e-05 0.000146813685374)
(1.98574516778e-05 -3.69489488829e-05 0.0001383547074)
(2.45770660407e-05 -3.09497472998e-05 0.000135313653656)
(-3.35992648723e-05 -3.99789163683e-05 9.86887375948e-05)
(-2.82826812791e-05 -4.72530269953e-05 9.61636648536e-05)
(-2.25150881646e-05 -5.29030764288e-05 0.000100750884669)
(-1.70765064721e-05 -5.70034455198e-05 0.000109007917403)
(-1.22102551064e-05 -5.98594880541e-05 0.000118114761526)
(-7.95649159125e-06 -6.1718519042e-05 0.000125973337965)
(-4.17460182788e-06 -6.27775004245e-05 0.000131159697088)
(-6.40798813872e-07 -6.31548025668e-05 0.000132842703383)
(2.90860524128e-06 -6.28872415267e-05 0.000130751511936)
(6.73570945437e-06 -6.1930321963e-05 0.000125172910671)
(1.10625893561e-05 -6.01603572284e-05 0.000116940044899)
(1.6026569e-05 -5.7375655447e-05 0.000107478607753)
(2.1584842551e-05 -5.33241474626e-05 9.88849562043e-05)
(2.74833783057e-05 -4.77086687928e-05 9.39568733261e-05)
(3.2975435972e-05 -4.04367730581e-05 9.60979198203e-05)
(-4.2176622097e-05 -4.93420039609e-05 4.00110989322e-05)
(-3.61739125244e-05 -5.77010719029e-05 3.11500139149e-05)
(-2.94617924904e-05 -6.43154568296e-05 3.11687161637e-05)
(-2.2876305242e-05 -6.92578645542e-05 3.61694132156e-05)
(-1.67128645332e-05 -7.28174541044e-05 4.30034280854e-05)
(-1.1046939658e-05 -7.52125416319e-05 4.93549435021e-05)
(-5.77400472152e-06 -7.66096184227e-05 5.36700420346e-05)
(-7.07846675747e-07 -7.71050504534e-05 5.50498295951e-05)
(4.37459227797e-06 -7.67277774951e-05 5.32037923056e-05)
(9.69491619145e-06 -7.54411155545e-05 4.84406361338e-05)
(1.54377771576e-05 -7.31432699175e-05 4.16612775798e-05)
(2.17044699966e-05 -6.96627353877e-05 3.44224123931e-05)
(2.84164338234e-05 -6.47761083961e-05 2.90391782981e-05)
(3.52685545759e-05 -5.82025900246e-05 2.86329732389e-05)
(4.14571656213e-05 -4.98510915636e-05 3.70517104478e-05)
(-5.04682187277e-05 -5.82696137235e-05 -3.50450492624e-05)
(-4.38392834734e-05 -6.7463295058e-05 -5.07267564982e-05)
(-3.62648964684e-05 -7.48243668511e-05 -5.57149821654e-05)
(-2.86059671813e-05 -8.04438799106e-05 -5.4397115953e-05)
(-2.11949890397e-05 -8.45903526319e-05 -5.02261410809e-05)
(-1.41380472915e-05 -8.74458668543e-05 -4.56965930897e-05)
(-7.37201975638e-06 -8.9138414832e-05 -4.24560760422e-05)
(-7.59038778471e-07 -8.97371103356e-05 -4.14457387691e-05)
(5.87021931649e-06 -8.92613890901e-05 -4.29678166642e-05)
(1.26839736669e-05 -8.76844828681e-05 -4.67018714271e-05)
(1.98188350597e-05 -8.49319562373e-05 -5.17042650736e-05)
(2.73349569129e-05 -8.0870579225e-05 -5.63232431189e-05)
(3.51229129895e-05 -7.53129919673e-05 -5.80634630757e-05)
(4.28418979462e-05 -6.79986669093e-05 -5.35059814236e-05)
(4.96617727185e-05 -5.88186149826e-05 -3.8323856246e-05)
(-5.81621475321e-05 -6.64439214677e-05 -0.000122569367171)
(-5.09601860954e-05 -7.61717028692e-05 -0.000144940737092)
(-4.26185295839e-05 -8.40149344533e-05 -0.000154851590563)
(-3.39926755316e-05 -9.01043421562e-05 -0.000157228808414)
(-2.54343609372e-05 -9.46845919532e-05 -0.000155800453831)
(-1.70728585146e-05 -9.7895840929e-05 -0.000153191758533)
(-8.88791554412e-06 -9.98222434949e-05 -0.000151101456512)
(-7.95739243466e-07 -0.000100502743016 -0.000150483557652)
(7.3120744921e-06 -9.99464419542e-05 -0.00015164389663)
(1.55434448517e-05 -9.81378570589e-05 -0.000154262383072)
(2.3981262287e-05 -9.50328678728e-05 -0.00015738025373)
(3.26432158145e-05 -9.05420049394e-05 -0.000159292898409)
(4.13966643885e-05 -8.45195402035e-05 -0.000157371927518)
(4.98837199202e-05 -7.67288863133e-05 -0.000147933595468)
(5.72772708246e-05 -6.70217634349e-05 -0.000126117526979)
(-6.49664786867e-05 -7.35628557483e-05 -0.000218394558285)
(-5.72438991952e-05 -8.34630527168e-05 -0.000246757507858)
(-4.82457336124e-05 -9.14756309764e-05 -0.000261064177187)
(-3.87914798772e-05 -9.77877406908e-05 -0.000266822718379)
(-2.92319562658e-05 -0.000102615326579 -0.00026798459228)
(-1.97109061073e-05 -0.000106050994499 -0.000267238624561)
(-1.02496569878e-05 -0.000108132079779 -0.000266280934626)
(-8.1986527616e-07 -0.000108866676734 -0.000266047372275)
(8.62448450117e-06 -0.00010825390975 -0.000266839512071)
(1.8129431482e-05 -0.000106289670837 -0.000268348940519)
(2.772289775e-05 -0.000102960921249 -0.000269632923744)
(3.73815839569e-05 -9.82251162797e-05 -0.00026898624588)
(4.69587752183e-05 -9.19843584465e-05 -0.000263715746039)
(5.60993598333e-05 -8.40293532936e-05 -0.000249921837947)
(6.40097486658e-05 -7.41572346912e-05 -0.000222164639419)
(-7.06767776168e-05 -7.94059131803e-05 -0.000318677529314)
(-6.25116331734e-05 -8.91002635549e-05 -0.000352036139836)
(-5.29917130211e-05 -9.69640831962e-05 -0.000370042139121)
(-4.28695531727e-05 -0.000103246237356 -0.000378781756803)
(-3.2479125205e-05 -0.000108124121336 -0.000382332335781)
(-2.1974730398e-05 -0.000111639213762 -0.000383356881087)
(-1.14184332921e-05 -0.000113784489681 -0.000383492099426)
(-8.35749889043e-07 -0.000114541558587 -0.000383629243547)
(9.76020010032e-06 -0.000113901318986 -0.000384058552109)
(2.03566941459e-05 -0.000111869301657 -0.000384491404726)
(3.09283018548e-05 -0.000108459678305 -0.000384030299576)
(4.14117673193e-05 -0.000103674517487 -0.000381026250131)
(5.16502713865e-05 -9.74672140849e-05 -0.000372807775343)
(6.13077326216e-05 -8.96660489527e-05 -0.000355358867632)
(6.96550487518e-05 -8.00076847073e-05 -0.000322657296511)
(-7.51325561719e-05 -8.37806496702e-05 -0.000419734602769)
(-6.66231911084e-05 -9.28675592614e-05 -0.000456818410964)
(-5.67405639749e-05 -0.000100264885539 -0.000477799158666)
(-4.61296072101e-05 -0.000106268513507 -0.000489213874178)
(-3.50971155043e-05 -0.000110998600854 -0.00049507701705)
(-2.38088476197e-05 -0.000114442935655 -0.000497890201062)
(-1.23670709767e-05 -0.000116557230513 -0.000499152851796)
(-8.47260810561e-07 -0.000117303243875 -0.000499675148293)
(1.06845065967e-05 -0.000116666896192 -0.000499727391284)
(2.21628638256e-05 -0.000114660286 -0.000499051552774)
(3.3512821996e-05 -0.000111317916194 -0.000496828796993)
(4.46314773725e-05 -0.000106679671384 -0.000491543016802)
(5.53511187985e-05 -0.000100753057505 -0.000480680391195)
(6.53650545112e-05 -9.34227996623e-05 -0.000460299977951)
(7.40492479091e-05 -8.43797883541e-05 -0.000423929192957)
(-7.82160378479e-05 -8.65006215422e-05 -0.000517654982308)
(-6.95037538126e-05 -9.46087721726e-05 -0.000557072713792)
(-5.9436074831e-05 -0.000101266388376 -0.000580512390709)
(-4.85176297544e-05 -0.00010676553403 -0.000594574802974)
(-3.70358824534e-05 -0.00011115319057 -0.000602921138674)
(-2.51754334934e-05 -0.000114371084764 -0.000607724014404)
(-1.30764507935e-05 -0.000116352708032 -0.000610260093475)
(-8.57180156072e-07 -0.000117052062062 -0.000611220616665)
(1.13728246371e-05 -0.000116453355779 -0.000610845869365)
(2.35050154747e-05 -0.000114571659246 -0.000608916736311)
(3.54215758568e-05 -0.000111450088714 -0.000604731646338)
(4.69823347836e-05 -0.000107151570888 -0.000596995568977)
(5.80016014894e-05 -0.000101730380242 -0.000583517633428)
(6.81940581794e-05 -9.51439940554e-05 -0.000560719055853)
(7.70736899701e-05 -8.70863728941e-05 -0.000522070317146)
(-7.99302762064e-05 -8.745108816e-05 -0.000607752152764)
(-7.11721285196e-05 -9.436338977e-05 -0.000648416871038)
(-6.10642801702e-05 -0.000100041980943 -0.000674341447226)
(-4.99911878614e-05 -0.000104817684255 -0.000691477982694)
(-3.82485361469e-05 -0.000108651219159 -0.000702814676323)
(-2.60376581978e-05 -0.000111467251995 -0.000710033967795)
(-1.35275953235e-05 -0.000113201550327 -0.00071411862808)
(-8.67287807798e-07 -0.000113813921176 -0.000715613044715)
(1.18027925593e-05 -0.000113291513552 -0.000714717106802)
(2.43429150247e-05 -0.000111647421383 -0.000711258405999)
(3.66047318263e-05 -0.000108919914602 -0.000704685312016)
(4.84197695486e-05 -0.000105170842451 -0.000693998000849)
(5.95861325563e-05 -0.000100472846472 -0.000677486854325)
(6.98124982208e-05 -9.48691721447e-05 -0.00065223888869)
(7.87281575215e-05 -8.80159805398e-05 -0.000612375950041)
(-8.03864177742e-05 -8.75300941237e-05 -0.000683605918657)
(-7.16352811025e-05 -9.25141648625e-05 -0.000726143343504)
(-6.15209220951e-05 -9.69419571021e-05 -0.000755358256828)
(-5.0447178752e-05 -0.000100673923703 -0.000776534443249)
(-3.86548983957e-05 -0.000103653192616 -0.000791726697503)
(-2.63439417036e-05 -0.000105829780015 -0.000802012373121)
(-1.36958611058e-05 -0.000107166240827 -0.000808041936045)
(-8.78249085958e-07 -0.000107639535017 -0.00081020153898)
(1.19482485047e-05 -0.00010724329453 -0.000808648556035)
(2.46237180972e-05 -0.000105984887134 -0.000803258374762)
(3.69810916702e-05 -0.000103886185399 -0.000793643846458)
(4.88397196761e-05 -0.000100983741994 -0.000779145146613)
(5.99998794137e-05 -9.73256673139e-05 -0.00075864911276)
(7.02302921652e-05 -9.29759359783e-05 -0.000730198499563)
(7.91200581e-05 -8.80571325622e-05 -0.000688306900773)
(1.08466427699e-07 2.33571111427e-07 5.43514610043e-05)
(-5.21442231691e-09 3.44152926699e-07 5.79964599951e-05)
(-9.3311520747e-08 4.06043147204e-07 6.193065637e-05)
(-1.42881031116e-07 4.28772727907e-07 6.56928354311e-05)
(-1.53396118835e-07 4.26818339692e-07 6.8941409176e-05)
(-1.26233315884e-07 4.13161687103e-07 7.1428545559e-05)
(-7.10186221945e-08 3.99647430315e-07 7.29852386633e-05)
(-8.63426738448e-10 3.94249368455e-07 7.35117244778e-05)
(6.86755236301e-08 3.99761349628e-07 7.29690236595e-05)
(1.22315987355e-07 4.13340212135e-07 7.13963086993e-05)
(1.47804664795e-07 4.27131251546e-07 6.88934265712e-05)
(1.36825289735e-07 4.29485599668e-07 6.56291041269e-05)
(8.8617832013e-08 4.07496964026e-07 6.18500178816e-05)
(3.45035354156e-09 3.46801381757e-07 5.7893458035e-05)
(-1.08273938934e-07 2.35977526327e-07 5.42079921798e-05)
(7.17105226688e-07 1.07129662046e-06 0.000140783446722)
(4.14581672595e-07 1.41210916996e-06 0.000149385903183)
(1.50237603134e-07 1.63151290976e-06 0.000159029966516)
(-3.13884049285e-08 1.74659382353e-06 0.000168447076443)
(-1.26278443478e-07 1.79047185568e-06 0.000176680098592)
(-1.37580296518e-07 1.79314271839e-06 0.000183031026656)
(-8.61809980972e-08 1.78257049005e-06 0.000187022094455)
(-1.4311630428e-09 1.77735195319e-06 0.000188370169545)
(8.18879078387e-08 1.78412693023e-06 0.000186971058874)
(1.29673839126e-07 1.79617523472e-06 0.000182929685571)
(1.1449213824e-07 1.79491911447e-06 0.000176529499399)
(1.82444787072e-08 1.75272965889e-06 0.000168247492688)
(-1.60385053755e-07 1.63922170623e-06 0.000158778339403)
(-4.18263941571e-07 1.421753977e-06 0.000149066739838)
(-7.15812664836e-07 1.08015050031e-06 0.00014035449332)
(1.66546363319e-06 2.22592692183e-06 0.000204405206792)
(1.20133198245e-06 2.79885132196e-06 0.00021571737293)
(7.59854606204e-07 3.19501227358e-06 0.000228951421336)
(4.17639869979e-07 3.43286534816e-06 0.000242158245457)
(1.83255093525e-07 3.55704412726e-06 0.000253849098408)
(5.39986011754e-08 3.60791152152e-06 0.000262933801099)
(3.85289165682e-09 3.62230923126e-06 0.000268664705195)
(-4.12525177329e-09 3.62493130602e-06 0.000270598617403)
(-1.35744362443e-08 3.62461862345e-06 0.000268577857007)
(-6.73592071664e-08 3.61268733206e-06 0.000262761475404)
(-2.00258952144e-07 3.56466577753e-06 0.000253593292518)
(-4.35156393043e-07 3.44363622654e-06 0.000241819847611)
(-7.72618793808e-07 3.20846991386e-06 0.000228526459303)
(-1.20514445226e-06 2.81414290057e-06 0.000215183561236)
(-1.66248306271e-06 2.23923015518e-06 0.000203702644293)
(2.79933807294e-06 3.54721015782e-06 0.000246641519815)
(2.19129318138e-06 4.32688635724e-06 0.000258617098888)
(1.5741001504e-06 4.88631332592e-06 0.000273480207579)
(1.05608400907e-06 5.24179829954e-06 0.000288730514745)
(6.51904655244e-07 5.44771477873e-06 0.000302436424137)
(3.61057642603e-07 5.55152840093e-06 0.000313179295049)
(1.5586956462e-07 5.59554918817e-06 0.000319986165356)
(-3.59683812917e-09 5.60783623276e-06 0.000322281147768)
(-1.64355417499e-07 5.59829916621e-06 0.000319863848255)
(-3.72619380613e-07 5.55730171149e-06 0.000312936733538)
(-6.6621327185e-07 5.4570731103e-06 0.00030207664975)
(-1.06983550352e-06 5.25501373977e-06 0.000288255328918)
(-1.58204714705e-06 4.90278346303e-06 0.000272885792845)
(-2.189356066e-06 4.34515877027e-06 0.000257877717856)
(-2.79079426383e-06 3.56328164726e-06 0.000245686924357)
(3.99894057715e-06 4.91038930236e-06 0.000268817744302)
(3.25835801518e-06 5.85402205902e-06 0.000279617076118)
(2.47109334544e-06 6.54338585955e-06 0.000294335002332)
(1.77398681226e-06 6.99095078534e-06 0.000310035403619)
(1.18911634247e-06 7.26098199748e-06 0.000324429990715)
(7.19311358089e-07 7.4067558234e-06 0.000335836504172)
(3.37182570009e-07 7.47464686846e-06 0.00034310337623)
(1.96999990999e-09 7.49474356435e-06 0.000345551023053)
(-3.34315617766e-07 7.47761702911e-06 0.000342946601991)
(-7.18910164959e-07 7.41305667345e-06 0.000335525737949)
(-1.19076049889e-06 7.27119587926e-06 0.000323969326517)
(-1.774759371e-06 7.00528352392e-06 0.000309427887048)
(-2.46644460271e-06 6.56100686475e-06 0.000293578110305)
(-3.24483952719e-06 5.87328629513e-06 0.000278683848844)
(-3.98060868464e-06 4.92742306801e-06 0.00026763167078)
(5.17141165372e-06 6.2148710675e-06 0.00027232277634)
(4.30608706628e-06 7.26751497011e-06 0.000280336860505)
(3.35856985318e-06 8.0389626575e-06 0.000293360546253)
(2.48898495798e-06 8.53890398268e-06 0.000308113933704)
(1.72769685692e-06 8.84215841972e-06 0.00032202878517)
(1.08127770412e-06 9.00810795861e-06 0.000333219598501)
(5.23347433503e-07 9.08699336254e-06 0.000340400578866)
(1.28854586994e-08 9.11059093351e-06 0.000342816101788)
(-4.98498350977e-07 9.09006305593e-06 0.000340210223714)
(-1.05856229195e-06 9.01464969165e-06 0.000332842389756)
(-1.70684821833e-06 8.85270523292e-06 0.000321469956736)
(-2.46778640143e-06 8.55356326114e-06 0.000307378215342)
(-3.33347680103e-06 8.05672650211e-06 0.00029244788282)
(-4.27449910386e-06 7.2868537046e-06 0.000279220380025)
(-5.13829549189e-06 6.23193399972e-06 0.000270920692939)
(6.23492563568e-06 7.36865045359e-06 0.000258570199542)
(5.25191252273e-06 8.46714373277e-06 0.000262424477902)
(4.16069526275e-06 9.26214895634e-06 0.000272442711918)
(3.13624888607e-06 9.76558769697e-06 0.000285065655266)
(2.21669081412e-06 1.00632590018e-05 0.000297508381466)
(1.4117907084e-06 1.02215216265e-05 0.000307734825812)
(6.96166120979e-07 1.0294562398e-05 0.00031436435491)
(2.85896325012e-08 1.03160526688e-05 0.000316589779193)
(-6.39845586808e-07 1.02977049169e-05 0.000314140150965)
(-1.35755481491e-06 1.02282546495e-05 0.000307290736584)
(-2.16469970715e-06 1.00741150898e-05 0.000296851052167)
(-3.08524620292e-06 9.78050446496e-06 0.000284202166042)
(-4.10836571864e-06 9.27997000572e-06 0.000271376793699)
(-5.19653882729e-06 8.48636221054e-06 0.00026113018134)
(-6.18218011893e-06 7.38546829205e-06 0.000256960792441)
(7.12444915477e-06 8.29743903334e-06 0.000228913409252)
(6.03266554649e-06 9.3781419728e-06 0.000227446054978)
(4.82148181484e-06 1.01354178928e-05 0.000233366674327)
(3.66957599676e-06 1.05917686101e-05 0.00024287240925)
(2.62099712392e-06 1.08442130304e-05 0.000253011990242)
(1.68710214255e-06 1.0966424426e-05 0.00026164486895)
(8.43089305538e-07 1.10165895973e-05 0.000267330627468)
(4.75291127653e-08 1.10302893381e-05 0.000269232047599)
(-7.48894306989e-07 1.10197827932e-05 0.000267070221628)
(-1.59516244111e-06 1.09733266234e-05 0.000261129431839)
(-2.53203311424e-06 1.08553360783e-05 0.000252250159676)
(-3.58334098998e-06 1.06069614406e-05 0.00024187457857)
(-4.73690290247e-06 1.01533783676e-05 0.000232141921456)
(-5.94894447842e-06 9.39752584807e-06 0.000225970239284)
(-7.04798068151e-06 8.31407397266e-06 0.000227095736671)
(7.79666656333e-06 8.96188597347e-06 0.000184567608197)
(6.6056576844e-06 9.96673357199e-06 0.000176795164156)
(5.30321235907e-06 1.06303336615e-05 0.000177703437557)
(4.05859291114e-06 1.09965792003e-05 0.000183254094263)
(2.91812962566e-06 1.11721482301e-05 0.000190374254634)
(1.89206486985e-06 1.12368446862e-05 0.000196865631442)
(9.55578146414e-07 1.12517060423e-05 0.000201263605458)
(6.73310293068e-08 1.12534535017e-05 0.000202722409541)
(-8.21760473383e-07 1.12547774822e-05 0.000200962160462)
(-1.76064293011e-06 1.12436058679e-05 0.000196269487485)
(-2.79034672783e-06 1.11831530064e-05 0.000189494963427)
(-3.93514519249e-06 1.10116394731e-05 0.000182106614277)
(-5.18416314003e-06 1.06478312762e-05 0.000176303425631)
(-6.49146939679e-06 9.9859649853e-06 0.000175121809053)
(-7.69398378232e-06 8.97855935126e-06 0.000182527693112)
(8.19012358918e-06 9.30742249973e-06 0.000126586463)
(6.90834114106e-06 1.01616867437e-05 0.000111686909529)
(5.54594474586e-06 1.06676992648e-05 0.000106794327089)
(4.25132834532e-06 1.08978993739e-05 0.000107625330975)
(3.06696983846e-06 1.09657998364e-05 0.000111049510298)
(1.99784538624e-06 1.09540946889e-05 0.000114871238995)
(1.01751502556e-06 1.09233963247e-05 0.000117645351901)
(8.4731718319e-08 1.09097146767e-05 0.000118544401851)
(-8.48724589109e-07 1.09254907126e-05 0.000117296171463)
(-1.83115735003e-06 1.09590267897e-05 0.000114181085484)
(-2.90387352099e-06 1.09743724996e-05 0.00011003403727)
(-4.093166544e-06 1.0910227135e-05 0.000106306999101)
(-5.39391069812e-06 1.0682676513e-05 0.000105198173125)
(-6.76351770618e-06 1.01783906236e-05 0.000109790359485)
(-8.05931773395e-06 9.32184468389e-06 0.000124293935257)
(8.30640657282e-06 9.34400457718e-06 5.68090972587e-05)
(6.96486415274e-06 1.00058835866e-05 3.4502531658e-05)
(5.5814573365e-06 1.03221239893e-05 2.33750375814e-05)
(4.27810539383e-06 1.03945673693e-05 1.89167494794e-05)
(3.09115921224e-06 1.03400852824e-05 1.80517728929e-05)
(2.01975018197e-06 1.02420977924e-05 1.86970129208e-05)
(1.03601010711e-06 1.0160022e-05 1.95099019866e-05)
(9.90683236381e-08 1.01289752929e-05 1.97311818717e-05)
(-8.38281532257e-07 1.01611999617e-05 1.91125322367e-05)
(-1.82350239603e-06 1.02453050274e-05 1.79114109606e-05)
(-2.89794206521e-06 1.03463049353e-05 1.68969908905e-05)
(-4.08973744649e-06 1.04042176309e-05 1.74224467302e-05)
(-5.39988288708e-06 1.03344570418e-05 2.1575545892e-05)
(-6.7921663968e-06 1.00202911652e-05 3.23735875289e-05)
(-8.14965559909e-06 9.35688307521e-06 5.42534098445e-05)
(8.16446740943e-06 9.09328373626e-06 -2.21035034755e-05)
(6.79372704936e-06 9.52789286772e-06 -5.16592534666e-05)
(5.43111620597e-06 9.63627782138e-06 -6.91850844239e-05)
(4.1612650182e-06 9.54750526424e-06 -7.93242649374e-05)
(3.01077587531e-06 9.37478628079e-06 -8.49407802213e-05)
(1.97283877551e-06 9.19673664363e-06 -8.7882564173e-05)
(1.01905775366e-06 9.06796903724e-06 -8.93081425611e-05)
(1.10165480085e-07 9.02126752211e-06 -8.9862784426e-05)
(-7.98779400437e-07 9.06788100698e-06 -8.97563502541e-05)
(-1.7531810404e-06 9.19749905825e-06 -8.87696401912e-05)
(-2.79309886673e-06 9.37763444558e-06 -8.62452994792e-05)
(-3.94757460011e-06 9.55324849696e-06 -8.10100257919e-05)
(-5.22392744971e-06 9.64466879459e-06 -7.12072909278e-05)
(-6.59600096613e-06 9.53882014347e-06 -5.40431464722e-05)
(-7.98369360102e-06 9.10370237006e-06 -2.49474448408e-05)
(7.78877899949e-06 8.58046370518e-06 -0.000106670859959)
(6.42617998735e-06 8.77288766495e-06 -0.000142917283867)
(5.12781309458e-06 8.6782155221e-06 -0.000166879660724)
(3.92965925825e-06 8.44492093459e-06 -0.000183041486334)
(2.84799768163e-06 8.17355241808e-06 -0.000193835654475)
(1.8717140034e-06 7.93192712808e-06 -0.000200743136781)
(9.7379102508e-07 7.76734653562e-06 -0.000204661723351)
(1.1785919825e-07 7.70846139473e-06 -0.000206082581459)
(-7.37766489172e-07 7.76563032895e-06 -0.000205164888852)
(-1.63529794125e-06 7.92951691031e-06 -0.000201740710577)
(-2.6121789468e-06 8.17192973629e-06 -0.00019530525935)
(-3.69640694751e-06 8.44545773563e-06 -0.000184941948722)
(-4.89993698667e-06 8.68146495632e-06 -0.000169154151435)
(-6.20746200965e-06 8.77935090116e-06 -0.000145587338127)
(-7.58679995901e-06 8.58789178079e-06 -0.000109834078266)
(7.21162089273e-06 7.84359731617e-06 -0.000192024686399)
(5.90493223567e-06 7.80433155685e-06 -0.000234377113311)
(4.71061774854e-06 7.53185101299e-06 -0.000264984600771)
(3.61263134472e-06 7.18928903244e-06 -0.00028761701707)
(2.62283990461e-06 6.85141706384e-06 -0.000304070295372)
(1.72886262046e-06 6.57076362181e-06 -0.000315344204023)
(9.06154816467e-07 6.38551343434e-06 -0.000322016159457)
(1.22000817622e-07 6.31962483295e-06 -0.000324393945994)
(-6.61508998035e-07 6.38186047965e-06 -0.000322577333486)
(-1.48290173458e-06 6.56458987358e-06 -0.000316459699028)
(-2.37597895231e-06 6.84446310514e-06 -0.000305720026453)
(-3.36645494314e-06 7.18357511808e-06 -0.000289759835061)
(-4.46806798834e-06 7.52867689697e-06 -0.000267552556903)
(-5.67035496056e-06 7.80537271596e-06 -0.00023737297658)
(-6.99221400346e-06 7.84796683046e-06 -0.000195529068652)
(6.46374856854e-06 6.95999353624e-06 -0.000271194349163)
(5.28244857878e-06 6.64550083965e-06 -0.000320530464147)
(4.21157981637e-06 6.25650264187e-06 -0.000358284157585)
(3.22974301414e-06 5.85863591742e-06 -0.000387981038861)
(2.34754877503e-06 5.49709801442e-06 -0.000410644877858)
(1.55132210973e-06 5.20965273183e-06 -0.000426711070096)
(8.19401199841e-07 5.02390672892e-06 -0.000436401875925)
(1.2248693031e-07 4.95802257837e-06 -0.000439825857173)
(-5.73485995245e-07 5.01859726406e-06 -0.000437018692358)
(-1.30325427988e-06 5.20002565558e-06 -0.000427941064437)
(-2.09725497517e-06 5.48506002381e-06 -0.000412474690789)
(-2.97846629078e-06 5.84634465301e-06 -0.000390379668839)
(-3.96178149826e-06 6.24615145465e-06 -0.000361180677094)
(-5.03904892768e-06 6.64010071941e-06 -0.000323938242717)
(-6.2310440175e-06 6.96018831259e-06 -0.000274963292247)
(-9.02950024477e-08 -1.68765838376e-07 3.09935726404e-05)
(-4.47551918542e-08 -2.27044051385e-07 3.35983919545e-05)
(-1.66438850726e-08 -2.62304047962e-07 3.66559861158e-05)
(1.57239105226e-09 -2.83919002687e-07 3.96872886377e-05)
(1.01593874905e-08 -2.9659386617e-07 4.23543486501e-05)
(1.02098264843e-08 -3.03039207198e-07 4.44174910286e-05)
(4.64089831887e-09 -3.05783710874e-07 4.57157659968e-05)
(-3.58046030058e-09 -3.06489282664e-07 4.61550621295e-05)
(-1.13474982331e-08 -3.05691665476e-07 4.57007453463e-05)
(-1.553261367e-08 -3.02806717318e-07 4.4387560774e-05)
(-1.34770073483e-08 -2.96183564833e-07 4.23096541376e-05)
(-3.12076376806e-09 -2.8326871369e-07 3.96276192076e-05)
(1.68223099514e-08 -2.6069313031e-07 3.65798091718e-05)
(4.66229151181e-08 -2.24371670228e-07 3.34990986876e-05)
(9.3361271368e-08 -1.64471605944e-07 3.08481615419e-05)
(-3.31784564359e-07 -5.38753383998e-07 7.39605008795e-05)
(-2.1131783232e-07 -6.95697531656e-07 7.98041459394e-05)
(-1.2712345665e-07 -7.98741112851e-07 8.71446438168e-05)
(-6.81545325326e-08 -8.65393859141e-07 9.46576628809e-05)
(-3.22091885406e-08 -9.06950416044e-07 0.00010138443127)
(-1.55644457804e-08 -9.30344348982e-07 0.000106641334504)
(-1.15497383958e-08 -9.41781199281e-07 0.000109967537942)
(-1.34121034565e-08 -9.45332440908e-07 0.000111092694525)
(-1.4069144657e-08 -9.42211899327e-07 0.000109921093444)
(-6.38274685168e-09 -9.3087912561e-07 0.000106548790827)
(1.58733525799e-08 -9.07104727323e-07 0.000101246254494)
(5.78094616388e-08 -8.64428820636e-07 9.44733559436e-05)
(1.22935327667e-07 -7.94403712211e-07 8.69099408659e-05)
(2.13628710449e-07 -6.87495867541e-07 7.95001195321e-05)
(3.39643444731e-07 -5.26144684157e-07 7.35334569768e-05)
(-6.33349584104e-07 -9.30783842053e-07 9.78422789287e-05)
(-4.46438600092e-07 -1.1732464997e-06 0.00010505301849)
(-3.02457045803e-07 -1.34182280835e-06 0.000114905140262)
(-1.9374835643e-07 -1.45515126561e-06 0.000125346175597)
(-1.16962282987e-07 -1.5278643455e-06 0.000134867132572)
(-6.65799784296e-08 -1.57045006012e-06 0.000142385313573)
(-3.38544706817e-08 -1.59178601664e-06 0.000147168370403)
(-9.66573822961e-09 -1.5978351221e-06 0.000148786178302)
(1.56093250376e-08 -1.5905801923e-06 0.000147089711215)
(5.16000726158e-08 -1.56802078571e-06 0.000142228657903)
(1.06834884973e-07 -1.52423621758e-06 0.000134633502232)
(1.88503804585e-07 -1.44998081797e-06 0.000125035317431)
(3.01782724246e-07 -1.33335602848e-06 0.000114511399051)
(4.50407143057e-07 -1.16122492797e-06 0.00010454926594)
(6.41860007794e-07 -9.14661681307e-07 9.71526637276e-05)
(-9.12105590011e-07 -1.27422829234e-06 0.000104320121643)
(-6.69611351785e-07 -1.5753853492e-06 0.000111239644062)
(-4.71503469979e-07 -1.78858924498e-06 0.000122001331866)
(-3.16299544171e-07 -1.93226491331e-06 0.00013394535029)
(-2.00358713796e-07 -2.02361555551e-06 0.000145088252728)
(-1.17082998117e-07 -2.07652574269e-06 0.000153997939828)
(-5.61568191342e-08 -2.1026044777e-06 0.000159703004768)
(-6.34772277144e-09 -2.10955312715e-06 0.000161632682584)
(4.4334530817e-08 -2.1000501973e-06 0.00015959183641)
(1.07842433245e-07 -2.07156303718e-06 0.000153776683685)
(1.94855879319e-07 -2.01653526429e-06 0.000144758749191)
(3.14393610853e-07 -1.9230905561e-06 0.000133508271753)
(4.72766798225e-07 -1.77625491075e-06 0.000121451348931)
(6.73942421191e-07 -1.55990880838e-06 0.000110546000752)
(9.2008129439e-07 -1.25557095035e-06 0.000103394666255)
(-1.15996794048e-06 -1.56791999706e-06 9.47651238604e-05)
(-8.72174619723e-07 -1.90631769212e-06 9.9919314881e-05)
(-6.26844132572e-07 -2.14723063646e-06 0.000110145949795)