/*--------------------------------*- C++ -*----------------------------------*\
  =========                 |
  \\      /  F ield         | OpenFOAM: The Open Source CFD Toolbox
   \\    /   O peration     | Website:  https://openfoam.org
    \\  /    A nd           | Version:  7
     \\/     M anipulation  |
\*---------------------------------------------------------------------------*/
FoamFile
{
    version     2.0;
    format      ascii;
    class       surfaceScalarField;
    location    "2.1";
    object      phi;
}
// * * * * * * * * * * * * * * * * * * * * * * * * * * * * * * * * * * * * * //

dimensions      [0 3 -1 0 0 0 0];

internalField   nonuniform List<scalar> 
65775
(
-3.32716623568e-11
-2.37230848285e-09
-2.94116862006e-10
-4.86230266815e-14
-5.78758112987e-11
-2.48685235673e-09
-3.28175297734e-10
-7.10156991148e-11
-2.58951318295e-09
-3.62777361381e-10
-7.12863145871e-11
-2.67801306068e-09
-3.95440161188e-10
-5.99336386203e-11
-2.7487370105e-09
-4.23719907144e-10
-3.92590984363e-11
-2.80042979365e-09
-4.45557735485e-10
-1.25755847017e-11
-2.83285160928e-09
-4.59501680697e-10
1.62001476346e-11
-2.84502083807e-09
-4.64483931565e-10
4.28285633082e-11
-2.83274989992e-09
-4.59460822736e-10
6.34058852884e-11
-2.8002347805e-09
-4.45477561119e-10
7.46307893162e-11
-2.74846842313e-09
-4.23601876227e-10
7.41957732823e-11
-2.67773338292e-09
-3.95284510864e-10
6.08559574506e-11
-2.5892571844e-09
-3.62580236372e-10
3.60201220668e-11
-2.48668152744e-09
-3.27921056157e-10
-2.37200577005e-09
-2.93764839344e-10
2.13408847468e-12
-8.73216358436e-11
-4.05980785307e-09
-7.96528387266e-10
-7.12463390101e-13
-1.56909147322e-10
-4.24060871483e-09
-8.88114379046e-10
-1.94355229874e-10
-4.40717841514e-09
-9.81384536473e-10
-1.96851785272e-10
-4.54979486298e-09
-1.06962425152e-09
-1.6647281217e-10
-4.6633663526e-09
-1.14616090568e-09
-1.09547476314e-10
-4.74591982517e-09
-1.20534222242e-09
-3.5400266095e-11
-4.79756765629e-09
-1.24314389603e-09
4.47009857099e-11
-4.81697073893e-09
-1.25661742218e-09
1.18759248915e-10
-4.79738803566e-09
-1.24300924283e-09
1.75545483021e-10
-4.74559781748e-09
-1.20507945411e-09
2.05766568781e-10
-4.66296160451e-09
-1.14577654082e-09
2.03066745658e-10
-4.54940366923e-09
-1.06912229403e-09
1.65329282402e-10
-4.40687162981e-09
-9.80758502565e-10
9.51947001201e-11
-4.24037974432e-09
-8.8732586215e-10
-4.05914875633e-09
-7.95488942695e-10
5.91880727903e-12
-1.30225124435e-10
-5.16852683944e-09
-1.20490060701e-09
-5.02117348754e-13
-2.33590934532e-10
-5.37725667567e-09
-1.34318769116e-09
-2.89651472084e-10
-5.57460575845e-09
-1.48395278381e-09
-2.93818062209e-10
-5.74242773076e-09
-1.61714245443e-09
-2.48597433539e-10
-5.87550180998e-09
-1.73269563323e-09
-1.63355862044e-10
-5.97153420965e-09
-1.82206295756e-09
-5.21350045335e-11
-6.03139643377e-09
-1.8791280462e-09
6.80200914703e-11
-6.05391044415e-09
-1.89943196915e-09
1.79027182303e-10
-6.03109341514e-09
-1.87893217171e-09
2.63877656415e-10
-5.97099211784e-09
-1.82167954334e-09
3.08559092369e-10
-5.87481493143e-09
-1.73213081257e-09
3.03693389989e-10
-5.74172556263e-09
-1.61639684271e-09
2.46747459541e-10
-5.57400986784e-09
-1.48301152985e-09
1.42121357467e-10
-5.37669144011e-09
-1.3419913516e-09
-5.16735991643e-09
-1.20332606416e-09
9.44871227177e-12
-1.62909076654e-10
-5.79786076048e-09
-1.52401059719e-09
-3.8213555678e-13
-2.90561936645e-10
-6.00608947628e-09
-1.69844404697e-09
-3.60325859626e-10
-6.20759150909e-09
-1.87561653958e-09
-3.65679625885e-10
-6.3779595788e-09
-2.04307608771e-09
-3.09470784271e-10
-6.51224001194e-09
-2.18826833173e-09
-2.03190101331e-10
-6.60826664145e-09
-2.30050582144e-09
-6.43884272904e-11
-6.66782990961e-09
-2.37212257996e-09
8.55732415902e-11
-6.69028101831e-09
-2.39755515771e-09
2.24074262368e-10
-6.66739426373e-09
-2.37186908135e-09
3.29786563468e-10
-6.60748229093e-09
-2.30000948319e-09
3.85182216911e-10
-6.51122724127e-09
-2.18753611932e-09
3.78763852813e-10
-6.37687094186e-09
-2.04210813239e-09
3.07659693285e-10
-6.20658609952e-09
-1.87439572325e-09
1.78214577058e-10
-6.00503892358e-09
-1.69690234764e-09
-5.79610821589e-09
-1.52200951268e-09
1.2470628074e-11
-1.8650476975e-10
-6.04261171408e-09
-1.7573794877e-09
-2.85025121983e-13
-3.30827708586e-10
-6.23056046525e-09
-1.95787330827e-09
-4.0997895047e-10
-6.41689888583e-09
-2.16084521892e-09
-4.16007359697e-10
-6.57357933094e-09
-2.35234819375e-09
-3.52019266255e-10
-6.69602948498e-09
-2.5181982531e-09
-2.30916803537e-10
-6.78255579939e-09
-2.64630148051e-09
-7.26964107425e-11
-6.835862644e-09
-2.72796428185e-09
9.82435895735e-11
-6.85602996557e-09
-2.75690426589e-09
2.56095227887e-10
-6.83529765258e-09
-2.72765671955e-09
3.76488769619e-10
-6.78152889321e-09
-2.64570002937e-09
4.39444511619e-10
-6.69467611297e-09
-2.51731242311e-09
4.32056814545e-10
-6.57206505421e-09
-2.35118107488e-09
3.51199716183e-10
-6.41540608234e-09
-2.15938351976e-09
2.04679749017e-10
-6.2289333825e-09
-1.95604983901e-09
-6.04024083245e-09
-1.75505279666e-09
1.50620826399e-11
-2.02481985666e-10
-5.98973278852e-09
-1.91140814061e-09
-1.93148848767e-13
-3.57383653218e-10
-6.14511667949e-09
-2.12894315887e-09
-4.42312573409e-10
-6.30393562265e-09
-2.34826602354e-09
-4.48531421612e-10
-6.43666875038e-09
-2.55472147471e-09
-3.79362296171e-10
-6.53914234949e-09
-2.73325921475e-09
-2.4856192834e-10
-6.61035353276e-09
-2.87102215517e-09
-7.76804593944e-11
-6.65379768581e-09
-2.95874492501e-09
1.06920383505e-10
-6.67033101743e-09
-2.98976069883e-09
2.77373268043e-10
-6.65311058508e-09
-2.95838610173e-09
4.07341271759e-10
-6.60909090725e-09
-2.87032196771e-09
4.75287345216e-10
-6.53744527438e-09
-2.73223177949e-09
4.67456213826e-10
-6.43470705039e-09
-2.5533764713e-09
3.80514987677e-10
-6.30190579476e-09
-2.34659946067e-09
2.23095352841e-10
-6.14284849918e-09
-2.12689510276e-09
-5.98669748627e-09
-1.90884041931e-09
1.73004639365e-11
-2.12251213427e-10
-5.71650473706e-09
-1.99436090321e-09
-1.05342448187e-13
-3.72831667743e-10
-5.83337970394e-09
-2.2212941113e-09
-4.60560174198e-10
-5.95837400215e-09
-2.44900728693e-09
-4.66523334005e-10
-6.06201177964e-09
-2.66277058602e-09
-3.94247085675e-10
-6.1405360086e-09
-2.84730051973e-09
-2.57913435704e-10
-6.19373247343e-09
-2.98951284001e-09
-7.98932355162e-11
-6.22569193072e-09
-3.07995075523e-09
1.12379453996e-10
-6.23797252283e-09
-3.11184186494e-09
2.89913192278e-10
-6.22488682475e-09
-3.07954274004e-09
4.25296243002e-10
-6.19223570911e-09
-2.98871879069e-09
4.96171204709e-10
-6.1384850305e-09
-2.84614127229e-09
4.88365286669e-10
-6.0595744151e-09
-2.66126582365e-09
3.98355940116e-10
-5.95575285971e-09
-2.44716677759e-09
2.34986216103e-10
-5.83040652744e-09
-2.21906909338e-09
-5.7127515173e-09
-1.9916206139e-09
1.92665055476e-11
-2.16919990817e-10
-5.289892375e-09
-2.01545071075e-09
-2.3327457225e-14
-3.79131773781e-10
-5.3674424621e-09
-2.24560460934e-09
-4.67157464092e-10
-5.45716057213e-09
-2.47530822566e-09
-4.72448904234e-10
-5.53061983229e-09
-2.69023012787e-09
-3.98743126437e-10
-5.5845246799e-09
-2.87535520094e-09
-2.60313934988e-10
-5.61945476637e-09
-3.01780781701e-09
-7.97444416804e-11
-5.63985961798e-09
-3.10825452038e-09
1.15212003014e-10
-5.6478409361e-09
-3.14004945469e-09
2.95235313676e-10
-5.6389352526e-09
-3.10779875903e-09
4.32594059978e-10
-5.61771520295e-09
-3.01692338976e-09
5.04722264891e-10
-5.58209726622e-09
-2.87407167049e-09
4.97366630603e-10
-5.52766487998e-09
-2.68858001348e-09
4.06810606577e-10
-5.45388157458e-09
-2.47331843406e-09
2.41561066309e-10
-5.36368076616e-09
-2.24323957557e-09
-5.28531853534e-09
-2.01259088134e-09
2.1037313945e-11
-2.17259463621e-10
-4.76658229341e-09
-1.98417193909e-09
5.14372726723e-14
-3.77596886741e-10
-4.80793796731e-09
-2.21279666253e-09
-4.63732593318e-10
-4.86452264198e-09
-2.43958005862e-09
-4.67956277422e-10
-4.9096779348e-09
-2.65091114457e-09
-3.94232493279e-10
-4.94068659339e-09
-2.83242863825e-09
-2.56655647797e-10
-4.95885972925e-09
-2.97182134686e-09
-7.75010052413e-11
-4.96875272569e-09
-3.06014626391e-09
1.15821116917e-10
-4.97279743282e-09
-3.09107954757e-09
2.9436623652e-10
-4.96770066544e-09
-3.05964389331e-09
4.30747412111e-10
-4.95685570241e-09
-2.97084917432e-09
5.02713208637e-10
-4.93784323241e-09
-2.83102621543e-09
4.96203610104e-10
-4.90614363103e-09
-2.64912618648e-09
4.07293603901e-10
-4.86049710955e-09
-2.43745918075e-09
2.43678110893e-10
-4.80327500978e-09
-2.21031815024e-09
-4.76106856644e-09
-1.98123154159e-09
2.26761543213e-11
-2.13726948855e-10
-4.19346297195e-09
-1.90988036701e-09
1.16332442248e-13
-3.68983663039e-10
-4.20450295601e-09
-2.13356323938e-09
-4.51248986559e-10
-4.23242764189e-09
-2.35387086089e-09
-4.54041800852e-10
-4.25304315466e-09
-2.55810401614e-09
-3.81559762449e-10
-4.26441721401e-09
-2.73285203802e-09
-2.47484451311e-10
-4.26847102847e-09
-2.86666638157e-09
-7.33232729322e-11
-4.26960296e-09
-2.95123014229e-09
1.14459307025e-10
-4.27033656259e-09
-2.98071207053e-09
2.87943535091e-10
-4.26840786025e-09
-2.95068220123e-09
4.20691242538e-10
-4.26616839757e-09
-2.86560857063e-09
4.91227956723e-10
-4.26110219799e-09
-2.73133456126e-09
4.85921936592e-10
-4.24884834614e-09
-2.55619142209e-09
4.00635776279e-10
-4.2275452476e-09
-2.35163088554e-09
2.41854738942e-10
-4.1988014725e-09
-2.13098847187e-09
-4.18683640293e-09
-1.90688602543e-09
2.42374184953e-11
-2.0648943291e-10
-3.60824188707e-09
-1.80157113932e-09
1.72199910846e-13
-3.53636674636e-10
-3.59635540977e-09
-2.01814103655e-09
-4.30252274308e-10
-3.60119942728e-09
-2.22962210583e-09
-4.31330411102e-10
-3.60198623287e-09
-2.42431554852e-09
-3.61279234235e-10
-3.59780473381e-09
-2.59000388838e-09
-2.33166226127e-10
-3.5909740295e-09
-2.71636891223e-09
-6.73231872312e-11
-3.58546621219e-09
-2.79593686161e-09
1.11289532019e-10
-3.58365110363e-09
-2.82352291196e-09
2.76384462749e-10
-3.58410550852e-09
-2.79534440622e-09
4.03031341319e-10
-3.58832667247e-09
-2.71522724446e-09
4.70942553179e-10
-3.59394675194e-09
-2.58837415523e-09
4.67115971025e-10
-3.59703223525e-09
-2.42227978889e-09
3.87225344987e-10
-3.59533066354e-09
-2.22727022053e-09
2.36302415441e-10
-3.58945724423e-09
-2.01548003832e-09
-3.60032620856e-09
-1.79853952461e-09
2.57598668081e-11
-1.95460777181e-10
-3.04016137477e-09
-1.66779503755e-09
2.19146615846e-13
-3.31748295002e-10
-3.01272170116e-09
-1.87624351702e-09
-4.01271881818e-10
-3.00006343836e-09
-2.07759232087e-09
-4.00488524522e-10
-2.98600576551e-09
-2.26117887511e-09
-3.3399529113e-10
-2.97066481635e-09
-2.41621756101e-09
-2.14108862311e-10
-2.95639732445e-09
-2.53378296838e-09
-5.9639132821e-11
-2.94648522188e-09
-2.60744954459e-09
1.06465154142e-10
-2.9429241598e-09
-2.63281443064e-09
2.60112213125e-10
-2.94493031128e-09
-2.60681430051e-09
3.78388546599e-10
-2.95334894901e-09
-2.53256000245e-09
4.42540239286e-10
-2.96617872731e-09
-2.41447810874e-09
4.40331190963e-10
-2.98017932635e-09
-2.25902227635e-09
3.67267648581e-10
-2.99306169127e-09
-2.0751323805e-09
2.26942321303e-10
-3.00445642473e-09
-1.87350340272e-09
-3.0307754357e-09
-1.66473762913e-09
2.72676043091e-11
-1.80495325757e-10
-2.51050327111e-09
-1.51665733986e-09
2.54162982271e-13
-3.03977318719e-10
-2.47282781004e-09
-1.71706398995e-09
-3.65507480444e-10
-2.44766231549e-09
-1.90782200318e-09
-3.6280613252e-10
-2.42380899783e-09
-2.07939783169e-09
-3.00796548924e-10
-2.40176612483e-09
-2.22273653995e-09
-1.91030947841e-10
-2.38347892648e-09
-2.33056930194e-09
-5.0525267132e-11
-2.37132895639e-09
-2.39770096937e-09
1.00224115627e-10
-2.36679901599e-09
-2.42061987743e-09
2.39829428203e-10
-2.36954426194e-09
-2.39702651757e-09
3.47837999103e-10
-2.3799567299e-09
-2.32927059983e-09
4.07297099737e-10
-2.3965544626e-09
-2.22089250376e-09
4.06754727913e-10
-2.41697986027e-09
-2.07712292235e-09
3.41405498539e-10
-2.43936419883e-09
-1.90525580604e-09
2.13604906257e-10
-2.46299161652e-09
-1.71425418488e-09
-2.49942975437e-09
-1.51359407728e-09
2.86936713825e-11
-1.62690902297e-10
-2.0317661208e-09
-1.35583936924e-09
2.66654582258e-13
-2.73108656856e-10
-1.98558379706e-09
-1.54923442917e-09
-3.26023524606e-10
-1.9531836491e-09
-1.72949162383e-09
-3.20979577384e-10
-1.92483982446e-09
-1.88858936505e-09
-2.63774089607e-10
-1.90045660669e-09
-2.01959425462e-09
-1.65259248112e-10
-1.88131617458e-09
-2.11712205762e-09
-4.04515185775e-11
-1.86888676204e-09
-2.17733408423e-09
9.29969712875e-11
-1.86407228367e-09
-2.19767592569e-09
2.16827877e-10
-1.86682367173e-09
-2.17662789766e-09
3.13431823642e-10
-1.87723704911e-09
-2.11576029462e-09
3.67877539319e-10
-1.89439890728e-09
-2.0176590943e-09
3.69417674704e-10
-1.91686863822e-09
-1.88620409444e-09
3.12405584446e-10
-1.94341882423e-09
-1.72682012017e-09
1.97374920279e-10
-1.97395114647e-09
-1.54636730084e-09
-2.01881385947e-09
-1.35281204344e-09
3.01193110379e-11
-1.51962233433e-10
-1.19276881402e-09
2.97144830737e-13
-1.59914126747e-09
-2.49157172643e-10
-1.38067520972e-09
-1.55187662233e-09
-2.90937932379e-10
-1.55052948379e-09
-1.51976904544e-09
-2.81353805796e-10
-1.69692724546e-09
-1.49216161444e-09
-2.27545955697e-10
-1.81534301099e-09
-1.46924243548e-09
-1.39631327636e-10
-1.90236655165e-09
-1.45187366509e-09
-3.03840011387e-11
-1.95553997479e-09
-1.44071639234e-09
8.57102933778e-11
-1.97327446031e-09
-1.43615162171e-09
1.93893818015e-10
-1.95481799596e-09
-1.4383108432e-09
2.79736665523e-10
-1.90097131486e-09
-1.44710636896e-09
3.30550444157e-10
-1.81335473196e-09
-1.46216695694e-09
3.36352359714e-10
-1.6944668125e-09
-1.48284336037e-09
2.90148313311e-10
-1.54777552767e-09
-1.50830524641e-09
1.88047811285e-10
-1.37773364165e-09
-1.5382363027e-09
-1.1899039402e-09
3.14792870985e-11
-1.58408530994e-09
3.65012409193e-12
1.19515700064e-11
-3.09427532984e-10
3.65073101725e-13
7.22384501872e-12
1.30802544625e-11
-3.43627378904e-10
9.49834945408e-12
1.40470336738e-11
-3.77655224238e-10
1.00088087895e-11
1.46763664073e-11
-4.09246243046e-10
8.70300348706e-12
1.49923645539e-11
-4.36257926716e-10
5.85713800163e-12
1.50616277039e-11
-4.56937743952e-10
2.00277676229e-12
1.5038437737e-11
-4.70082212325e-10
-2.20663781612e-12
1.49641099168e-11
-4.74786486865e-10
-6.06769942182e-12
1.48124068691e-11
-4.70056386011e-10
-8.94872337652e-12
1.45858165582e-11
-4.56885876957e-10
-1.03601613893e-11
1.42447982683e-11
-4.36179175705e-10
-1.00222040063e-11
1.37484994064e-11
-4.09138062011e-10
-7.95108381158e-12
1.30747733275e-11
-3.77511624443e-10
-4.51479958753e-12
1.2275426583e-11
-3.43431764299e-10
1.14926019146e-11
-3.09133374589e-10
-4.53163229206e-13
9.38209342523e-12
4.09240680776e-11
-8.35182307638e-10
1.50705567961e-12
1.9270001361e-11
4.35981410336e-11
-9.26570126374e-10
2.57646345959e-11
4.60056350898e-11
-1.01755154491e-09
2.74752699789e-11
4.75814990328e-11
-1.10208854461e-09
2.41370560818e-11
4.83364017549e-11
-1.17442848136e-09
1.64643048087e-11
4.85215311276e-11
-1.2298455892e-09
5.91267803485e-12
4.84599762671e-11
-1.26507033208e-09
-5.67401709321e-12
4.83028525821e-11
-1.27765257807e-09
-1.63097199367e-11
4.80112576207e-11
-1.26500283473e-09
-2.42108241035e-11
4.75914538262e-11
-1.22970922332e-09
-2.80168897472e-11
4.69066229242e-11
-1.17421940395e-09
-2.69985893248e-11
4.5778110472e-11
-1.10179754593e-09
-2.12763614951e-11
4.40964651096e-11
-1.01715929058e-09
-1.19204330904e-11
4.19370910807e-11
-9.26027973451e-10
3.98090662494e-11
-8.34385792138e-10
-1.05668198283e-12
1.44581251352e-11
7.07465833772e-11
-1.24972081199e-09
1.69084953455e-12
2.90120773183e-11
7.36051489028e-11
-1.38596444165e-09
3.84981206039e-11
7.6160508117e-11
-1.52151909837e-09
4.08961597882e-11
7.74520672726e-11
-1.64747897125e-09
3.57979355274e-11
7.75788985833e-11
-1.75528835746e-09
2.42628486063e-11
7.70389197102e-11
-1.83788971902e-09
8.42723317929e-12
7.63949830258e-11
-1.89037121014e-09
-8.94687922118e-12
7.59709863565e-11
-1.9090704694e-09
-2.48684781989e-11
7.57579899353e-11
-1.89023342656e-09
-3.66402911939e-11
7.57377094882e-11
-1.8376152381e-09
-4.22197262623e-11
7.56157273642e-11
-1.75487752542e-09
-4.05501318891e-11
7.49855795016e-11
-1.64692730978e-09
-3.18791136449e-11
7.35419598623e-11
-1.52080964699e-09
-1.78732183789e-11
7.12714345572e-11
-1.3850394822e-09
6.90592912247e-11
-1.24844804064e-09
-1.73743556415e-12
1.82322197264e-11
9.03121652631e-11
-1.56255545114e-09
1.86312000947e-12
3.62249613646e-11
9.14008451588e-11
-1.73259343828e-09
4.79326480631e-11
9.22573809885e-11
-1.90154807133e-09
5.0854671309e-11
9.16684431581e-11
-2.05850338511e-09
4.44706442624e-11
8.99146854335e-11
-2.19284861632e-09
3.00765007154e-11
8.77485272929e-11
-2.29578682401e-09
1.03091015072e-11
8.59783393766e-11
-2.36115793583e-09
-1.13830180539e-11
8.51081637499e-11
-2.38439507318e-09
-3.12510533013e-11
8.51977523834e-11
-2.36095255884e-09
-4.59074779713e-11
8.61749679928e-11
-2.29538011025e-09
-5.27981814235e-11
8.75762631278e-11
-2.19224623486e-09
-5.06318477859e-11
8.87439021703e-11
-2.05770789623e-09
-3.97646818526e-11
8.91267286542e-11
-1.90054975168e-09
-2.23337107831e-11
8.85439781133e-11
-1.73133678953e-09
8.81142036074e-11
-1.56090202441e-09
-2.2593665084e-12
2.08438319964e-11
9.66263965051e-11
-1.78546084416e-09
1.96534295857e-12
4.10644635451e-11
9.45525151895e-11
-1.97976879834e-09
5.41873170868e-11
9.23970471906e-11
-2.17246018348e-09
5.74169177613e-11
8.89353132372e-11
-2.35135521972e-09
5.01640586456e-11
8.46164946206e-11
-2.50445305173e-09
3.38712220583e-11
8.03970117046e-11
-2.62174887687e-09
1.14974232686e-11
7.72742433729e-11
-2.69619302786e-09
-1.30581307362e-11
7.58949747695e-11
-2.72259099803e-09
-3.55459851862e-11
7.63943031235e-11
-2.69592303161e-09
-5.2119925055e-11
7.86409028706e-11
-2.62121646499e-09
-5.98888879591e-11
8.20340536253e-11
-2.50367051134e-09
-5.74105810695e-11
8.57190177357e-11
-2.3503346118e-09
-4.51155481587e-11
8.89256207062e-11
-2.17120352814e-09
-2.54538603423e-11
9.13105493166e-11
-1.97823015782e-09
9.40180656467e-11
-1.7835078746e-09
-2.6789786808e-12
2.23958569133e-11
9.12428558123e-11
-1.92943240989e-09
1.99588200541e-12
4.37259934246e-11
8.55089330339e-11
-2.13990680308e-09
5.75037628874e-11
7.98849198158e-11
-2.34809345076e-09
6.08234240102e-11
7.33639771086e-11
-2.54117331326e-09
5.30744946281e-11
6.64837365836e-11
-2.70633400072e-09
3.57706338885e-11
6.03200485052e-11
-2.83283367701e-09
1.20263259326e-11
5.59576229648e-11
-2.91305677031e-09
-1.40325500079e-11
5.41212517407e-11
-2.94142877366e-09
-3.78994022708e-11
5.50108972209e-11
-2.91272558352e-09
-5.54923684179e-11
5.84452334079e-11
-2.83218299241e-09
-6.37475053491e-11
6.37518194374e-11
-2.70538397875e-09
-6.11469738471e-11
6.99712830248e-11
-2.53994774798e-09
-4.81527785963e-11
7.61976982469e-11
-2.34660961435e-09
-2.73596526605e-11
8.19831101839e-11
-2.13813217671e-09
8.82913421563e-11
-1.92724489462e-09
-3.02343755092e-12
2.29794397965e-11
7.76345910602e-11
-2.00478455489e-09
1.96742649096e-12
4.44430619229e-11
6.8544258003e-11
-2.22464308679e-09
5.82104275221e-11
5.97674597421e-11
-2.44141693698e-09
6.14275411345e-11
5.0637346263e-11
-2.64215202664e-09
5.35132860079e-11
4.17116706695e-11
-2.81371627453e-09
3.59861946676e-11
3.40804293382e-11
-2.94504298178e-09
1.19708875017e-11
2.8818555146e-11
-3.02824157389e-09
-1.43798265302e-11
2.6655664291e-11
-3.0575786081e-09
-3.8520821364e-11
2.78342837403e-11
-3.02785309025e-09
-5.63340176371e-11
3.21424071806e-11
-2.94428228662e-09
-6.47298884937e-11
3.89050384335e-11
-2.81261247583e-09
-6.21793610583e-11
4.71572879458e-11
-2.64074239619e-09
-4.91333520535e-11
5.5956553953e-11
-2.43973632269e-09
-2.81686250686e-11
6.48339019996e-11
-2.22267368745e-09
7.44096414914e-11
-2.0024161521e-09
-3.29980093554e-12
2.26965545913e-11
5.9648056556e-11
-2.02120869077e-09
1.89046921322e-12
4.3486212205e-11
4.80555348899e-11
-2.24490217314e-09
5.66872414137e-11
3.69191026109e-11
-2.46460328908e-09
5.96473664732e-11
2.60026931423e-11
-2.66761091917e-09
5.18529878742e-11
1.58087944128e-11
-2.84088181085e-09
3.47748683163e-11
7.35265161907e-12
-2.97338241755e-09
1.14242666538e-11
1.62065232746e-12
-3.05720904993e-09
-1.41866767164e-11
-7.09285073923e-13
-3.08666683594e-09
-3.76612098864e-11
6.19396464813e-13
-3.05676752543e-09
-5.50138495647e-11
5.3899000118e-12
-2.9725205182e-09
-6.3254874733e-11
1.29801108129e-11
-2.83963829006e-09
-6.08971079997e-11
2.25003055258e-11
-2.66603770592e-09
-4.83418767154e-11
3.30565793588e-11
-2.46275403409e-09
-2.8007086057e-11
4.42283342471e-11
-2.24277346365e-09
5.62095844032e-11
-2.01870360812e-09
-3.51768234181e-12
2.16706569773e-11
4.06352237954e-11
-1.98783574431e-09
1.77996353977e-12
4.11393516812e-11
2.76325921805e-11
-2.21097613343e-09
5.33368839832e-11
1.51453324743e-11
-2.42911375802e-09
5.59263274772e-11
3.37777962716e-12
-2.6300785966e-09
4.84892004992e-11
-7.27257474735e-12
-2.80124930822e-09
3.24085787031e-11
-1.59138022095e-11
-2.93193713622e-09
1.04840639859e-11
-2.17004090364e-11
-3.01446289139e-09
-1.35486089232e-11
-2.40442548337e-11
-3.04334803818e-09
-3.55908857986e-11
-2.26997749705e-11
-3.01397277212e-09
-5.19271264836e-11
-1.78672246199e-11
-2.93098298059e-09
-5.97680493018e-11
-1.00789495502e-11
-2.79987978861e-09
-5.77110052418e-11
-9.79157014524e-14
-2.62836079957e-09
-4.60781246255e-11
1.12863062863e-11
-2.42712047883e-09
-2.7016033063e-11
2.37444609938e-11
-2.20871711155e-09
3.70380829676e-11
-1.985229472e-09
-3.68235826125e-12
2.00374815706e-11
2.30994896741e-11
-1.91330430423e-09
1.64518030049e-12
3.76875899433e-11
9.77520695348e-12
-2.13261228349e-09
4.85589475514e-11
-3.05864614345e-12
-2.34579246459e-09
5.07024544842e-11
-1.48186347005e-11
-2.54138352698e-09
4.38149656992e-11
-2.52156748491e-11
-2.70745779573e-09
2.91578082601e-11
-3.35082824249e-11
-2.83394871861e-09
9.24660278561e-12
-3.90095462567e-11
-2.91362211662e-09
-1.2562355505e-11
-4.12441675004e-11
-2.94137721398e-09
-3.2581619753e-11
-3.99927678097e-11
-2.91308795993e-09
-4.74696597415e-11
-3.54265774815e-11
-2.83291114879e-09
-5.47134488921e-11
-2.79667578885e-11
-2.70597509983e-09
-5.30291310358e-11
-1.82281961407e-11
-2.5395378471e-09
-4.26405856781e-11
-6.87116919119e-12
-2.34367546912e-09
-2.53445872823e-11
5.87150451774e-12
-2.13024523331e-09
1.93808359574e-11
-1.91062394101e-09
-3.79920388483e-12
1.79331867671e-11
8.60760875467e-12
-1.80583220462e-09
1.49746479705e-12
3.34034990747e-11
-4.10094880562e-12
-2.01910600722e-09
4.27319922984e-11
-1.64279605574e-11
-2.22496048536e-09
4.43947642583e-11
-2.7504103532e-11
-2.41273654858e-09
3.82060334121e-11
-3.71189293395e-11
-2.57143623497e-09
2.52817982987e-11
-4.46747832696e-11
-2.69187554429e-09
7.80235091491e-12
-4.96517233227e-11
-2.76747614391e-09
-1.13232854329e-11
-5.16865178205e-11
-2.79366319267e-09
-2.88981625177e-11
-5.06064208069e-11
-2.76690255019e-09
-4.20241612014e-11
-4.65353457478e-11
-2.6907631416e-09
-4.85180362038e-11
-3.97863404817e-11
-2.56985206143e-09
-4.72413172093e-11
-3.08175412839e-11
-2.41077707188e-09
-3.83158561158e-11
-2.01607119285e-11
-2.22273571864e-09
-2.31456822369e-11
-7.98068344026e-12
-2.01664734262e-09
4.804023309e-12
-1.80309716525e-09
-3.87303505941e-12
1.54857733553e-11
-2.11247309832e-12
-1.67328927829e-09
1.33781214392e-12
2.85384790381e-11
-1.34740438284e-11
-1.87939157975e-09
3.62075589423e-11
-2.46852600547e-11
-2.07649156916e-09
3.73962356101e-11
-3.46300950052e-11
-2.25478106238e-09
3.20196776517e-11
-4.3125208376e-11
-2.40443486559e-09
2.10256194703e-11
-4.9711517945e-11
-2.51741522863e-09
6.23740038605e-12
-5.40129306865e-11
-2.58800443177e-09
-9.92640677292e-12
-5.57997290025e-11
-2.61228792843e-09
-2.4795115632e-11
-5.49269797623e-11
-2.58739634607e-09
-3.59592851151e-11
-5.1494607011e-11
-2.51623675181e-09
-4.1588579371e-11
-4.56854060305e-11
-2.40276009272e-09
-4.07140507421e-11
-3.78218102717e-11
-2.25271932589e-09
-3.33706365828e-11
-2.83102491544e-11
-2.07417125206e-09
-2.05655663425e-11
-1.72958462142e-11
-1.8768546456e-09
-5.9508407439e-12
-1.67051445204e-09
-3.90915428066e-12
1.27972827092e-11
-8.93072351099e-12
-1.5232663344e-09
1.17649286063e-12
2.32973059682e-11
-1.84833100314e-11
-1.72210888316e-09
2.93027861422e-11
-2.82619032725e-11
-1.90982799866e-09
3.0075579404e-11
-3.68552555716e-11
-2.07756818372e-09
2.55902553689e-11
-4.40618753823e-11
-2.21698669008e-09
1.66261700849e-11
-4.95541132049e-11
-2.32146813713e-09
4.62704531008e-12
-5.31275373059e-11
-2.38634573391e-09
-8.45993441869e-12
-5.46268345245e-11
-2.40847831637e-09
-2.05249167075e-11
-5.39912829583e-11
-2.38570925987e-09
-2.962736811e-11
-5.12419205994e-11
-2.32023407942e-09
-3.43136615327e-11
-4.64900814377e-11
-2.21523322031e-09
-3.37860736176e-11
-3.99006896183e-11
-2.07541448835e-09
-2.80309755798e-11
-3.17581401498e-11
-1.90742151898e-09
-1.77215648556e-11
-2.22250048314e-11
-1.71950856725e-09
-1.27675637561e-11
-1.52047395437e-09
-3.91255255557e-12
9.81842819909e-12
-1.19857653555e-11
-1.36311811682e-09
1.01814588953e-12
1.7777490222e-11
-1.97264883426e-11
-1.55557942221e-09
2.22729998659e-11
-2.80645919329e-11
-1.73384040655e-09
2.27589202254e-11
-3.52357986156e-11
-1.89037825207e-09
1.92298929248e-11
-4.10969669052e-11
-2.01874678788e-09
1.2285197131e-11
-4.54851444507e-11
-2.1140084534e-09
3.05069035462e-12
-4.83099688788e-11
-2.17269288444e-09
-7.0231857156e-12
-4.95361584688e-11
-2.19250958639e-09
-1.63111658188e-11
-4.91133453833e-11
-2.17203683195e-09
-2.33642766692e-11
-4.70593620297e-11
-2.1127342626e-09
-2.70501929148e-11
-4.33768979959e-11
-2.01693210212e-09
-2.67479190143e-11
-3.81198041574e-11
-1.88814560892e-09
-2.24282172771e-11
-3.14156364832e-11
-1.73135446564e-09
-1.45919286601e-11
-2.33829763195e-11
-1.55293326779e-09
-1.58195468525e-11
-1.36035087182e-09
-3.89991150703e-12
6.37785534918e-12
-1.19991923754e-09
8.4629186719e-13
-1.16064859482e-11
1.21554332326e-11
-1.38747165806e-09
-1.83889337521e-11
1.54152736307e-11
-1.55627417843e-09
-2.52817108536e-11
1.57367114115e-11
-1.70123755272e-09
-3.09847033319e-11
1.31642877678e-11
-1.81813400965e-09
-3.54945808088e-11
8.16582889805e-12
-1.90383023431e-09
-3.88044674962e-11
1.53631404169e-12
-1.95610313455e-09
-4.09330176505e-11
-5.67727515712e-12
-1.9735374382e-09
-4.18870165147e-11
-1.23494302306e-11
-1.95544308087e-09
-4.16712069703e-11
-1.74322811027e-11
-1.90254526488e-09
-4.02549463781e-11
-2.01200309015e-11
-1.81629624863e-09
-3.76112415631e-11
-1.99233302633e-11
-1.69896211614e-09
-3.36930192807e-11
-1.67743933405e-11
-1.5537343477e-09
-2.84890798594e-11
-1.10466870397e-11
-1.38476838744e-09
-2.19681521422e-11
-1.19730450433e-09
-3.90372536672e-12
-1.54622031835e-11
-9.86120243273e-13
9.68282640758e-12
-3.18203438709e-10
-1.70731865859e-13
-1.80200817125e-12
1.05870308502e-11
-3.53985011214e-10
-2.25440282502e-12
1.17009278717e-11
-3.89601899201e-10
-2.31884814875e-12
1.28215555082e-11
-4.22691785426e-10
-1.99066640332e-12
1.38759936056e-11
-4.5100240512e-10
-1.33785227781e-12
1.47538060187e-11
-4.72685636419e-10
-4.86251169235e-13
1.53350097924e-11
-4.86467403641e-10
4.29469630135e-13
1.55726955785e-11
-4.91390824268e-10
1.27483688812e-12
1.54482136232e-11
-4.86418239408e-10
1.93071463589e-12
1.50049226513e-11
-4.72589347737e-10
2.30103764894e-12
1.42858018086e-11
-4.50862619383e-10
2.31965776097e-12
1.33358607923e-11
-4.22512736504e-10
1.95915483921e-12
1.22198195995e-11
-3.89385523226e-10
1.2256037691e-12
1.1012405486e-11
-3.53721965746e-10
9.86962070607e-12
-3.17851804813e-10
6.68952609868e-14
-1.85567059477e-12
1.94360177625e-11
-8.42417174549e-10
-1.15669733712e-12
-4.32220306813e-12
2.11304226434e-11
-9.35583278291e-10
-5.90689197711e-12
2.30426214112e-11
-1.02841767392e-09
-6.3912111528e-12
2.49260038368e-11
-1.11475095764e-09
-5.7414722825e-12
2.66808321312e-11
-1.18867365584e-09
-4.12971836503e-12
2.81092445877e-11
-1.24532177272e-09
-1.89817410581e-12
2.9050669126e-11
-1.28132254983e-09
5.58641433908e-13
2.94345404342e-11
-1.29415227572e-09
2.84797844262e-12
2.92174687374e-11
-1.28116928975e-09
4.62807570233e-12
2.84712508113e-11
-1.24502244549e-09
5.63201868704e-12
2.7260163604e-11
-1.18824105134e-09
5.68492595517e-12
2.56552652241e-11
-1.11420048234e-09
4.7291423259e-12
2.3752898853e-11
-1.02775884737e-09
2.80906115341e-12
2.16834902033e-11
-9.34794709322e-10
1.96736893713e-11
-8.41412027997e-10
2.3222325544e-14
-3.05796553375e-12
2.57906633676e-11
-1.25247326438e-09
-1.02651925746e-12
-6.34535854255e-12
2.78286258738e-11
-1.39022864346e-09
-8.35940104542e-12
2.99967322224e-11
-1.52746885264e-09
-8.82660755688e-12
3.2142669561e-11
-1.65514810543e-09
-7.73663942686e-12
3.41371064542e-11
-1.76452772553e-09
-5.34861580856e-12
3.57639244384e-11
-1.84837998982e-09
-2.12609962306e-12
3.68464307212e-11
-1.90165946407e-09
1.38903590328e-12
3.72997905257e-11
-1.9206115676e-09
4.64113433318e-12
3.70665289917e-11
-1.90143053464e-09
7.13872650042e-12
3.62309236696e-11
-1.84793175356e-09
8.49400405764e-12
3.48658238565e-11
-1.76387709079e-09
8.46032330593e-12
3.30491891635e-11
-1.65431499718e-09
6.97004075237e-12
3.08788974358e-11
-1.52646512999e-09
4.12904312875e-12
2.84950829346e-11
-1.38902403847e-09
2.60758268572e-11
-1.25095314746e-09
2.22707161276e-13
-3.78824372947e-12
3.01547543589e-11
-1.56261665279e-09
-9.92576299639e-13
-7.66748169216e-12
3.24036159388e-11
-1.73407444307e-09
-1.0029721792e-11
3.46178598323e-11
-1.90470543151e-09
-1.05327134772e-11
3.67840671961e-11
-2.06343697698e-09
-9.16892507755e-12
3.8778269123e-11
-2.19944686354e-09
-6.25302707739e-12
4.04043657133e-11
-2.30373409513e-09
-2.33204412955e-12
4.14982939113e-11
-2.36997408519e-09
1.94124432893e-12
4.19719173096e-11
-2.3934880343e-09
5.88481739892e-12
4.17559700061e-11
-2.36967528717e-09
8.89117012546e-12
4.09381334235e-11
-2.30314881172e-09
1.04821366226e-11
3.95892658127e-11
-2.19859675779e-09
1.03640428534e-11
3.77824694955e-11
-2.06234798235e-09
8.47525687598e-12
3.55958256907e-11
-1.90339554736e-09
4.99835265686e-12
3.31390664342e-11
-1.73251493369e-09
3.04749237208e-11
-1.56068668345e-09
3.79908273063e-13
-4.19559756868e-12
3.34738566205e-11
-1.78406375329e-09
-9.69303011098e-13
-8.42953244899e-12
3.59376191238e-11
-1.97978669733e-09
-1.10113443707e-11
3.81682829282e-11
-2.17421177517e-09