/*--------------------------------*- C++ -*----------------------------------*\
  =========                 |
  \\      /  F ield         | OpenFOAM: The Open Source CFD Toolbox
   \\    /   O peration     | Website:  https://openfoam.org
    \\  /    A nd           | Version:  7
     \\/     M anipulation  |
\*---------------------------------------------------------------------------*/
FoamFile
{
    version     2.0;
    format      ascii;
    class       volScalarField;
    location    "1.3";
    object      p;
}
// * * * * * * * * * * * * * * * * * * * * * * * * * * * * * * * * * * * * * //

dimensions      [0 2 -2 0 0 0 0];

internalField   nonuniform List<scalar> 
22500
(
8.19084731702e-06
8.18736894512e-06
8.18741459144e-06
8.18687830844e-06
8.18669294025e-06
8.18654408411e-06
8.18645688082e-06
8.18640237058e-06
8.18640108666e-06
8.18643457956e-06
8.18653291633e-06
8.18667538682e-06
8.18717766881e-06
8.18712025052e-06
8.1905945265e-06
8.13271388101e-06
8.12621335714e-06
8.12373071118e-06
8.12099213108e-06
8.11902937661e-06
8.11757762859e-06
8.11669624405e-06
8.11637632925e-06
8.11663948993e-06
8.11746611938e-06
8.11886660791e-06
8.12078526957e-06
8.12348976526e-06
8.12595968344e-06
8.13245478901e-06
8.07581216069e-06
8.06643319837e-06
8.06174094731e-06
8.0570130072e-06
8.05347326466e-06
8.05086520684e-06
8.04928148906e-06
8.04872757594e-06
8.04922686356e-06
8.05075788269e-06
8.05331685954e-06
8.05681415671e-06
8.06150939044e-06
8.06618827503e-06
8.07555802018e-06
8.0247752832e-06
8.0129648698e-06
8.00652029942e-06
8.00023454984e-06
7.99546526538e-06
7.99196261946e-06
7.98983748298e-06
7.98910409526e-06
7.98978604751e-06
7.99186153567e-06
7.99531815312e-06
8.00004765977e-06
8.00630227559e-06
8.01273330392e-06
8.02453051895e-06
7.97685017894e-06
7.96291270902e-06
7.9549866269e-06
7.94743146848e-06
7.94165680691e-06
7.93743003865e-06
7.93486813785e-06
7.93399066349e-06
7.9348199499e-06
7.93733534792e-06
7.94151905443e-06
7.94725653798e-06
7.95478224466e-06
7.96269495342e-06
7.97661687008e-06
7.93151047068e-06
7.91576116616e-06
7.90659709166e-06
7.89803283727e-06
7.89145423394e-06
7.88665506456e-06
7.88374875674e-06
7.88275823425e-06
7.8837039068e-06
7.88656688957e-06
7.89132601102e-06
7.89786996993e-06
7.90640679379e-06
7.91555723268e-06
7.93128883206e-06
7.88903564054e-06
7.87181516043e-06
7.86164864409e-06
7.85232249641e-06
7.84513055074e-06
7.83990029427e-06
7.83673514625e-06
7.83566007304e-06
7.83669352089e-06
7.83981844905e-06
7.84501152945e-06
7.85217124309e-06
7.86147181066e-06
7.87162486536e-06
7.8888253118e-06
7.8494721582e-06
7.83110804001e-06
7.82014242085e-06
7.81026966188e-06
7.80262896679e-06
7.79708771456e-06
7.79373623272e-06
7.792600653e-06
7.79369766193e-06
7.79701188632e-06
7.80251862844e-06
7.81012935262e-06
7.81997825957e-06
7.83093039043e-06
7.84927225409e-06
7.81268877179e-06
7.79348395935e-06
7.78189328581e-06
7.7716572669e-06
7.76370740414e-06
7.7579551803e-06
7.75447750607e-06
7.75330128946e-06
7.75444172556e-06
7.75788481833e-06
7.7636049731e-06
7.77152680298e-06
7.7817405221e-06
7.79331744054e-06
7.81249809499e-06
7.77851678085e-06
7.7587525373e-06
7.74669575781e-06
7.7362562276e-06
7.72811899391e-06
7.72224100473e-06
7.7186883349e-06
7.71748834454e-06
7.71865503253e-06
7.72217548867e-06
7.72802353031e-06
7.73613443836e-06
7.74655288221e-06
7.75859546156e-06
7.77833343836e-06
7.74678473367e-06
7.72672918047e-06
7.7143655148e-06
7.70386560864e-06
7.69564905602e-06
7.68971917293e-06
7.68613583568e-06
7.68492672327e-06
7.68610466997e-06
7.68965783319e-06
7.6955595533e-06
7.70375113792e-06
7.71423088516e-06
7.72657967562e-06
7.74660676594e-06
7.71730971809e-06
7.69725285961e-06
7.68476267093e-06
7.67433010774e-06
7.6661267145e-06
7.66020689636e-06
7.65663060674e-06
7.65542476968e-06
7.65660124866e-06
7.66014899054e-06
7.66604208069e-06
7.67422150271e-06
7.6846344566e-06
7.69710886148e-06
7.71713532649e-06
7.68984566997e-06
7.67021917052e-06
7.65782811128e-06
7.64756153716e-06
7.6394387738e-06
7.63357659421e-06
7.63003741853e-06
7.62884548481e-06
7.63000944967e-06
7.63352147077e-06
7.63935786157e-06
7.64745722657e-06
7.65770424187e-06
7.67007829904e-06
7.68967239879e-06
7.66434267038e-06
7.64568576918e-06
7.63353980626e-06
7.6234802758e-06
7.61548147511e-06
7.60972202555e-06
7.6062530952e-06
7.60508608237e-06
7.60622623996e-06
7.60966891569e-06
7.61540311214e-06
7.62337841726e-06
7.63341794976e-06
7.64554522725e-06
7.66416845604e-06
7.64263726706e-06
7.62332568612e-06
7.61151683535e-06
7.60162673326e-06
7.59383352145e-06
7.58827038881e-06
7.58493494543e-06
7.58381549011e-06
7.58490884937e-06
7.58821870925e-06
7.59375681529e-06
7.60152596832e-06
7.61139402989e-06
7.62318209609e-06
7.64246380261e-06
1.94215507075e-06
1.94407876309e-06
1.94558082641e-06
1.94700365377e-06
1.94822073254e-06
1.94915193793e-06
1.94974433763e-06
1.94995623216e-06
1.94977379165e-06
1.94920805004e-06
1.94829719898e-06
1.94709232702e-06
1.94567764279e-06
1.9441786691e-06
1.94225667685e-06
1.94949158444e-06
1.95171541416e-06
1.953509661e-06
1.95519820126e-06
1.95664508792e-06
1.95775145011e-06
1.9584540718e-06
1.95870380126e-06
1.95848319229e-06
1.95780681454e-06
1.95672038673e-06
1.95528506174e-06
1.95360304876e-06
1.95181256143e-06
1.94959033753e-06
1.95894395976e-06
1.96187925128e-06
1.96426162397e-06
1.96650101385e-06
1.96841986012e-06
1.96988473684e-06
1.97081191947e-06
1.97113809633e-06
1.9708405564e-06
1.96993936352e-06
1.96849476105e-06
1.96658848084e-06
1.96435576776e-06
1.96197818951e-06
1.95904355476e-06
1.97110830469e-06
1.9752711832e-06
1.97861272605e-06
1.98172977545e-06
1.98438932476e-06
1.98641207009e-06
1.98768620632e-06
1.9881299578e-06
1.98771413742e-06
1.98646559832e-06
1.98446346785e-06
1.9818176711e-06
1.97870804735e-06
1.97537176863e-06
1.9712088479e-06
1.98668946178e-06
1.9925210078e-06
1.99711448433e-06
2.00135268085e-06
2.00494310486e-06
2.00765973229e-06
2.00936206777e-06
2.00995032204e-06
2.00938907814e-06
2.00771166626e-06
2.00501558512e-06
2.00143953076e-06
1.99720959179e-06
1.99262173912e-06
1.98679000187e-06
2.00550058627e-06
2.01328924197e-06
2.01929608044e-06
2.02477414286e-06
2.02937814346e-06
2.03284193528e-06
2.0350016001e-06
2.03574347619e-06
2.0350273756e-06
2.03289161045e-06
2.02944790741e-06
2.02485853142e-06
2.01938929421e-06
2.01338892662e-06
2.0055992023e-06
2.02694310945e-06
2.03681686677e-06
2.0442739205e-06
2.05099567194e-06
2.05660021101e-06
2.06079274989e-06
2.06339451214e-06
2.06428414588e-06
2.06341876026e-06
2.06083959947e-06
2.05666632235e-06
2.05107627838e-06
2.04436359544e-06
2.03691381858e-06
2.02703852514e-06
2.05031859032e-06
2.06225731745e-06
2.07110060705e-06
2.07897908027e-06
2.08549800039e-06
2.09034748274e-06
2.09334356004e-06
2.0943641436e-06
2.09336602834e-06
2.09039099018e-06
2.08555968913e-06
2.07905484438e-06
2.07118564348e-06
2.06235000079e-06
2.05040995576e-06
2.07494026683e-06
2.08879998835e-06
2.09889169625e-06
2.10777576355e-06
2.11507390283e-06
2.12047413808e-06
2.12379647822e-06
2.12492454062e-06
2.12381704965e-06
2.12051403937e-06
2.11513070719e-06
2.10784592504e-06
2.09897110931e-06
2.08888729614e-06
2.07502621206e-06
2.10018107911e-06
2.11572398462e-06
2.12687637799e-06
2.1365762572e-06
2.14449111956e-06
2.15031786938e-06
2.15388831761e-06
2.15509715759e-06
2.15390694183e-06
2.1503540557e-06
2.14454282146e-06
2.13664048454e-06
2.12694966589e-06
2.11580523767e-06
2.10026096875e-06
2.1254995556e-06
2.14242034531e-06
2.15441448486e-06
2.16472326348e-06
2.17308205888e-06
2.1792054967e-06
2.18294328845e-06
2.18420552421e-06
2.18296003897e-06
2.17923810484e-06
2.17312878026e-06
2.16478153608e-06
2.15448144381e-06
2.14249515162e-06
2.12557263255e-06
2.1504300016e-06
2.16838069802e-06
2.18098605819e-06
2.19170053542e-06
2.20033479188e-06
2.20662884759e-06
2.21045609991e-06
2.21174532811e-06
2.21047117356e-06
2.20665820037e-06
2.20037699295e-06
2.19175330375e-06
2.18104700131e-06
2.16844900729e-06
2.15049617761e-06
2.17455775039e-06
2.19319945743e-06
2.20620054661e-06
2.21713268004e-06
2.22588241884e-06
2.23222643166e-06
2.23606868781e-06
2.23735997748e-06
2.23608232797e-06
2.23225315119e-06
2.22592082074e-06
2.21718083547e-06
2.20625622731e-06
2.19326188955e-06
2.17461736059e-06
2.19780636013e-06
2.21686266862e-06
2.22995450721e-06
2.24087204218e-06
2.24953327566e-06
2.25577547713e-06
2.2595413147e-06
2.2608040175e-06
2.25955387591e-06
2.25580006294e-06
2.24956878519e-06
2.24091648055e-06
2.23000605049e-06
2.21691982396e-06
2.19786015192e-06
2.22162505101e-06
2.23938900833e-06
2.25211958961e-06
2.2627299445e-06
2.27103188079e-06
2.27697583716e-06
2.28054880473e-06
2.28174470874e-06
2.2805603945e-06
2.27699872799e-06
2.27106505351e-06
2.26277173652e-06
2.25216775329e-06
2.23944177881e-06
2.22167523943e-06
3.59189648852e-06
3.5915459612e-06
3.5910064664e-06
3.59038746363e-06
3.58979496657e-06
3.5893112455e-06
3.58899423113e-06
3.58888261222e-06
3.5889916078e-06
3.58930718787e-06
3.5897916343e-06
3.59038591088e-06
3.59099952221e-06
3.59153629156e-06
3.59187734913e-06
3.59299652802e-06
3.59269471137e-06
3.59219710105e-06
3.59161823919e-06
3.59105621151e-06
3.59059399166e-06
3.59028940254e-06
3.59018167775e-06
3.59028633139e-06
3.59058898084e-06
3.59105141138e-06
3.59161466491e-06
3.5921890072e-06
3.59268268453e-06
3.59297599453e-06
3.5944362644e-06
3.59419949367e-06
3.59375917525e-06
3.59323325444e-06
3.59271197171e-06
3.59227940786e-06
3.59199275247e-06
3.59189112679e-06
3.59198992344e-06
3.59227471034e-06
3.59270719543e-06
3.5932292039e-06
3.59375142144e-06
3.59418751815e-06
3.5944161374e-06
3.59547944066e-06
3.59528300094e-06
3.59487739628e-06
3.59438690181e-06
3.59389376105e-06
3.59348262426e-06
3.59320953729e-06
3.59311274559e-06
3.59320713832e-06
3.59347855924e-06
3.59388932189e-06
3.5943827297e-06
3.59487019537e-06
3.5952720855e-06
3.59545963092e-06
3.59622536915e-06
3.59607664345e-06
3.59570921252e-06
3.59526274902e-06
3.59480837491e-06
3.59442832138e-06
3.5941754276e-06
3.59408576762e-06
3.59417334792e-06
3.59442474654e-06
3.5948042866e-06
3.5952586037e-06
3.59570230691e-06
3.59606663619e-06
3.59620593888e-06
3.59689114556e-06
3.59682858591e-06
3.59652617812e-06
3.59615407853e-06
3.59576647534e-06
3.59543970882e-06
3.59522131147e-06
3.59514368679e-06
3.59521949579e-06
3.59543653008e-06
3.59576262938e-06
3.59614989563e-06
3.59651955027e-06
3.59681889245e-06
3.59687243819e-06
3.59763182442e-06
3.59770783691e-06
3.59750789444e-06
3.59724716826e-06
3.59695909482e-06
3.59671072396e-06
3.59654256238e-06
3.59648230342e-06
3.5965409252e-06
3.59670781309e-06
3.59695539883e-06
3.5972428823e-06
3.59750137034e-06
3.59769828925e-06
3.59761341149e-06
3.59855348114e-06
3.59882293904e-06
3.59876299732e-06
3.59864735082e-06
3.59848762066e-06
3.59833900426e-06
3.59823424363e-06
3.59819576743e-06
3.59823270384e-06
3.59833620548e-06
3.59848386189e-06
3.59864269967e-06
3.59875617932e-06
3.5988132082e-06
3.59853482571e-06
3.59972326215e-06
3.60023318027e-06
3.60034378089e-06
3.60039725406e-06
3.60038564382e-06
3.60035079303e-06
3.60031776735e-06
3.60030381731e-06
3.60031623849e-06
3.60034794061e-06
3.60038164329e-06
3.60039204345e-06
3.60033631081e-06
3.60022286027e-06
3.59970408579e-06
3.60117198463e-06
3.60195293288e-06
3.60225324032e-06
3.6024871012e-06
3.60263188012e-06
3.60271585818e-06
3.60275725884e-06
3.60276865151e-06
3.60275564868e-06
3.60271279019e-06
3.60262740741e-06
3.60248105997e-06
3.60224476759e-06
3.60194155154e-06
3.6011519159e-06
3.60289832354e-06
3.60395929656e-06
3.60445504036e-06
3.60486750301e-06
3.6051656158e-06
3.60536507162e-06
3.60547831452e-06
3.60551412076e-06
3.60547656946e-06
3.60536169332e-06
3.60516057308e-06
3.60486051618e-06
3.60444541945e-06
3.6039466545e-06
3.60287709948e-06
3.60486944498e-06
3.60619813222e-06
3.60688332655e-06
3.60746243922e-06
3.60790193567e-06
3.60820694382e-06
3.60838559902e-06
3.60844351761e-06
3.60838370597e-06
3.60820321287e-06
3.60789627169e-06
3.60745450802e-06
3.60687252572e-06
3.60618427177e-06
3.60484719611e-06
3.60702451126e-06
3.60860045087e-06
3.60946184626e-06
3.61018683886e-06
3.6107480788e-06
3.61114384989e-06
3.61137851078e-06
3.61145551265e-06
3.61137647354e-06
3.61113981354e-06
3.61074191963e-06
3.61017809473e-06
3.60945005777e-06
3.60858548507e-06
3.60700129175e-06
3.60940865526e-06
3.61120378106e-06
3.61217068409e-06
3.61298949225e-06
3.6136303282e-06
3.61408722293e-06
3.6143606448e-06
3.61445074507e-06
3.61435848682e-06
3.61408302543e-06
3.61362379675e-06
3.61298023383e-06
3.61215822242e-06
3.61118793346e-06
3.60938504044e-06
3.61264707127e-06
3.61397490001e-06
3.6149013107e-06
3.61572994232e-06
3.6163872418e-06
3.61686305393e-06
3.61715010582e-06
3.61724517704e-06
3.61714787959e-06
3.61685863718e-06
3.61638050131e-06
3.61572031218e-06
3.61488825958e-06
3.61395796973e-06
3.61262336156e-06
1.62704015694e-06
1.62738603724e-06
1.62783587558e-06
1.62830039979e-06
1.62872360163e-06
1.62905977251e-06
1.62927663371e-06
1.62935448193e-06
1.62928554286e-06
1.62907623796e-06
1.62874456709e-06
1.62832041116e-06
1.62785167201e-06
1.62739237915e-06
1.62704398074e-06
1.62758283083e-06
1.62793704156e-06
1.62839987694e-06
1.62887624173e-06
1.62931299732e-06
1.62966120007e-06
1.62988650992e-06
1.62996755129e-06
1.62989582841e-06
1.62967841713e-06
1.62933486773e-06
1.62889714784e-06
1.62841555002e-06
1.62794363205e-06
1.62758485753e-06
1.62793851682e-06
1.62828844619e-06
1.62875246322e-06
1.62922833246e-06
1.62966787516e-06
1.63001915652e-06
1.63024688085e-06
1.63032864789e-06
1.63025561693e-06
1.63003529096e-06
1.62968837287e-06
1.62924825673e-06
1.62876726419e-06
1.62829575535e-06
1.62794029081e-06
1.62824550493e-06
1.62859373863e-06
1.62906081468e-06
1.62953546857e-06
1.62997557573e-06
1.63032765626e-06
1.63055602399e-06
1.63063776282e-06
1.63056390012e-06
1.6303421754e-06
1.62999399086e-06
1.62955352627e-06
1.62907436202e-06
1.62860079713e-06
1.62824713551e-06
1.62854768002e-06
1.62889579591e-06
1.62936850653e-06
1.62984207771e-06
1.63028184623e-06
1.63063386309e-06
1.63086213043e-06
1.6309436086e-06
1.63086921055e-06
1.63064688325e-06
1.63029839242e-06
1.62985833682e-06
1.62938094747e-06
1.62890229742e-06
1.62854909815e-06
1.62883913635e-06
1.62918833508e-06
1.62967077625e-06
1.63014455149e-06
1.63058482674e-06
1.63093710285e-06
1.63116541764e-06
1.63124660107e-06
1.63117160648e-06
1.6309484669e-06
1.63059922218e-06
1.63015872795e-06
1.62968157567e-06
1.62919439925e-06
1.62883956914e-06
1.6291255544e-06
1.62948298468e-06
1.6299814206e-06
1.63046041423e-06
1.63090510731e-06
1.63126050171e-06
1.63149056423e-06
1.63157201441e-06
1.63149586765e-06
1.63127023813e-06
1.63091740887e-06
1.63047255468e-06
1.6299905345e-06
1.62948839662e-06
1.62912519519e-06
1.62942750175e-06
1.62980621641e-06
1.63032970228e-06
1.63082228246e-06
1.63127761297e-06
1.63164062392e-06
1.63187505727e-06
1.6319576535e-06
1.63187945877e-06
1.63164868086e-06
1.63128778263e-06
1.63083231016e-06
1.63033725166e-06
1.62981077353e-06
1.62942672751e-06
1.62976987675e-06
1.63018649338e-06
1.63074539916e-06
1.63126053075e-06
1.63173302157e-06
1.63210813479e-06
1.63234954453e-06
1.63243414807e-06
1.63235310897e-06
1.63211464353e-06
1.63174123077e-06
1.63126860332e-06
1.63075147838e-06
1.63019023004e-06
1.62976848698e-06
1.63017424326e-06
1.63064745879e-06
1.6312507965e-06
1.63179571553e-06
1.63228998014e-06
1.63267992552e-06
1.63292974372e-06
1.63301679042e-06
1.63293254161e-06
1.63268503189e-06
1.63229639931e-06
1.63180203938e-06
1.63125556752e-06
1.63065052022e-06
1.6301723387e-06
1.63065739297e-06
1.63120482732e-06
1.63185776834e-06
1.63243576404e-06
1.63295271873e-06
1.6333574052e-06
1.63361520398e-06
1.63370456005e-06
1.63361736897e-06
1.63336133941e-06
1.63295765655e-06
1.63244056861e-06
1.63186136171e-06
1.6312071238e-06
1.6306547926e-06
1.63122516778e-06
1.6318619697e-06
1.63256562655e-06
1.63317561348e-06
1.63371249174e-06
1.63412882865e-06
1.63439244132e-06
1.63448329707e-06
1.634394121e-06
1.63413187267e-06
1.63371625928e-06
1.63317924585e-06
1.63256822991e-06
1.63186347368e-06
1.63122171533e-06
1.63187114531e-06
1.63261326812e-06
1.63336583779e-06
1.63400219791e-06
1.63455269891e-06
1.63497544915e-06
1.63524115576e-06
1.63533240106e-06
1.63524250419e-06
1.63497785213e-06
1.63455570666e-06
1.6340049602e-06
1.63336769631e-06
1.63261402877e-06
1.63186690378e-06
1.63266684357e-06
1.63352533964e-06
1.63428666837e-06
1.63492165455e-06
1.63546489762e-06
1.63587861832e-06
1.63613729101e-06
1.63622562342e-06
1.63613841185e-06
1.63588072743e-06
1.63546742567e-06
1.63492397413e-06
1.63428804519e-06
1.63352538527e-06
1.63266168891e-06
1.63417005513e-06
1.63477154484e-06
1.63540031342e-06
1.63594187219e-06
1.63641122027e-06
1.63676929691e-06
1.63699279765e-06
1.63706913706e-06
1.63699385345e-06
1.6367712026e-06
1.63641362651e-06
1.6359440085e-06
1.63540141854e-06
1.63477088489e-06
1.6341647384e-06
1.5937103915e-06
1.59359528405e-06
1.59346951981e-06
1.59331265231e-06
1.59316808747e-06
1.59304914004e-06
1.5929692352e-06
1.59293894833e-06
1.59296318809e-06
1.59303860794e-06
1.59315596037e-06
1.59329898529e-06
1.59345093776e-06
1.59357550879e-06
1.59368176983e-06
1.59409920847e-06
1.59400057865e-06
1.59388657027e-06
1.59374007765e-06
1.59360326407e-06
1.59348926651e-06
1.59341221306e-06
1.59338282764e-06
1.5934060507e-06
1.5934784609e-06
1.59359059809e-06
1.59372598429e-06
1.59386791873e-06
1.5939794788e-06
1.59406992618e-06
1.5945859221e-06
1.59450546191e-06
1.59440862457e-06
1.5942751119e-06
1.59414764719e-06
1.59403964054e-06
1.59396619463e-06
1.59393809316e-06
1.59396019765e-06
1.59402895559e-06
1.59413470149e-06
1.59426054799e-06
1.59439028364e-06
1.59448431407e-06
1.59455744911e-06
1.59496795193e-06
1.59489326157e-06
1.59480635426e-06
1.59467803885e-06
1.59455371393e-06
1.59444700614e-06
1.59437435051e-06
1.59434663338e-06
1.59436860893e-06
1.59443658169e-06
1.59454057244e-06
1.59466313362e-06
1.59478833938e-06
1.59487281389e-06
1.59494022072e-06
1.59525127506e-06
1.59517427419e-06
1.59509202967e-06
1.59496367293e-06
1.59483867633e-06
1.59473083185e-06
1.59465744792e-06
1.59462958974e-06
1.59465195886e-06
1.59472074837e-06
1.594825668e-06
1.59494878386e-06
1.59507437462e-06
1.59515472376e-06
1.59522427381e-06
1.59546546538e-06
1.59538394553e-06
1.59530410525e-06
1.59517438205e-06
1.59504803186e-06
1.59493885728e-06
1.59486474532e-06
1.5948367775e-06
1.59485956146e-06
1.5949292326e-06
1.59503533874e-06
1.59515972582e-06
1.59528698712e-06
1.59536485111e-06
1.59543965695e-06
1.59563066872e-06
1.5955451782e-06
1.59546927193e-06
1.59534003009e-06
1.5952143578e-06
1.59510587581e-06
1.5950323981e-06
1.59500481011e-06
1.59502754269e-06
1.59509679399e-06
1.59520219509e-06
1.59532582554e-06
1.5954528555e-06
1.59552666666e-06
1.59560579476e-06
1.59576513879e-06
1.59568049239e-06
1.59561330531e-06
1.59548934076e-06
1.59536890605e-06
1.59526500261e-06
1.59519472631e-06
1.5951684178e-06
1.59519021566e-06
1.59525650341e-06
1.59535733488e-06
1.59547560482e-06
1.59559742783e-06
1.59566249508e-06
1.59574081003e-06
1.59588888495e-06
1.59581425867e-06
1.59576310142e-06
1.59565173436e-06
1.59554316559e-06
1.59544925036e-06
1.59538564488e-06
1.59536181579e-06
1.5953814759e-06
1.59544133322e-06
1.59553223659e-06
1.59563853174e-06
1.59574769488e-06
1.59579668919e-06
1.59586507043e-06
1.59602300186e-06
1.59597081701e-06
1.59594432315e-06
1.59585413722e-06
1.59576490389e-06
1.59568692033e-06
1.5956338137e-06
1.59561375172e-06
1.59562995163e-06
1.59567953736e-06
1.59575453845e-06
1.59584136149e-06
1.59592921258e-06
1.59595340778e-06
1.59599958726e-06
1.59618692703e-06
1.59617092271e-06
1.59617749024e-06
1.59611669122e-06
1.59605383462e-06
1.59599740675e-06
1.59595832177e-06
1.59594325486e-06
1.59595472974e-06
1.59599047815e-06
1.59604398257e-06
1.5961042778e-06
1.59616262858e-06
1.59615359949e-06
1.59616383537e-06
1.59639402618e-06
1.5964279259e-06
1.59647442609e-06
1.59644953092e-06
1.59641890195e-06
1.59638855098e-06
1.59636648926e-06
1.59635734667e-06
1.59636311434e-06
1.5963820035e-06
1.5964094076e-06
1.59643741266e-06
1.59645971765e-06
1.59641075855e-06
1.59637139359e-06
1.5966528371e-06
1.5967491309e-06
1.59683889752e-06
1.59685328454e-06
1.59685847426e-06
1.59685764931e-06
1.59685457005e-06
1.59685221944e-06
1.59685137452e-06
1.59685132839e-06
1.59684933193e-06
1.59684131261e-06
1.59682433212e-06
1.5967320664e-06
1.59663068244e-06
1.59702125307e-06
1.59718488028e-06
1.59729405627e-06
1.59733557192e-06
1.59737056043e-06
1.59739514481e-06
1.59740917452e-06
1.59741263352e-06
1.59740605625e-06
1.59738910593e-06
1.59736154707e-06
1.59732384093e-06
1.59727953617e-06
1.59716790007e-06
1.59699979234e-06
1.59780766949e-06
1.59781654335e-06
1.59786237858e-06
1.59788502559e-06
1.59791827959e-06
1.59794656399e-06
1.5979641415e-06
1.59796917823e-06
1.59796111934e-06
1.59794054649e-06
1.59790942209e-06
1.59787320784e-06
1.59784771938e-06
1.59779897204e-06
1.59778648579e-06
7.35797467419e-07
7.35893141958e-07
7.36015020488e-07
7.36140818776e-07
7.36256240885e-07
7.36348390521e-07
7.36408991732e-07
7.36432306907e-07
7.36415855168e-07
7.36361085298e-07
7.36272672741e-07
7.36158182739e-07
7.36031366283e-07
7.35904510464e-07
7.35809021258e-07
7.36078222777e-07
7.36180090816e-07
7.36309997302e-07
7.3644209439e-07
7.36563741664e-07
7.36661097317e-07
7.3672525514e-07
7.36749948937e-07
7.36732499781e-07
7.36674500838e-07
7.36581047235e-07
7.36460258694e-07
7.36326573545e-07
7.36191965942e-07
7.360884499e-07
7.36323193516e-07
7.36429238273e-07
7.36565618894e-07
7.36701629271e-07
7.36827365851e-07
7.3692773263e-07
7.36993733778e-07
7.37018885877e-07
7.37000497371e-07
7.36940251284e-07
7.36843568135e-07
7.36718884264e-07
7.36581367388e-07
7.36441662895e-07
7.3633315818e-07
7.36533906092e-07
7.36644652332e-07
7.36786929436e-07
7.36926262762e-07
7.3705500373e-07
7.3715746166e-07
7.37224620481e-07
7.37249916397e-07
7.37230715668e-07
7.37168751223e-07
7.37069645983e-07
7.36941985833e-07
7.36801513274e-07
7.36656670682e-07
7.36543793404e-07
7.36729789968e-07
7.36845333517e-07
7.36993730171e-07
7.37136271104e-07
7.37267614051e-07
7.37371852571e-07
7.37439912301e-07
7.37465302193e-07
7.37445404424e-07
7.37382025692e-07
7.37280881046e-07
7.37150614153e-07
7.37007383918e-07
7.36856786938e-07
7.36739471217e-07
7.36914905985e-07
7.37034567014e-07
7.37190040201e-07
7.37335325647e-07
7.37468895198e-07
7.37574534143e-07
7.37643264463e-07
7.37668648344e-07
7.37648153579e-07
7.37583602091e-07
7.37480749769e-07
7.37348203224e-07
7.37202389228e-07
7.37045581457e-07
7.36923696676e-07
7.37089403181e-07
7.37214117607e-07
7.37377088343e-07
7.37525192536e-07
7.37660944337e-07
7.37767887166e-07
7.3783719833e-07
7.37862548945e-07
7.37841506877e-07
7.37775903422e-07
7.37671471975e-07
7.37536740372e-07
7.37388234095e-07
7.37224606614e-07
7.37097480388e-07
7.3725609176e-07
7.37387961046e-07
7.37559143794e-07
7.37710706684e-07
7.37848869325e-07
7.37957280314e-07
7.38027237346e-07
7.38052596195e-07
7.38030995521e-07
7.37964288484e-07
7.37858129887e-07
7.37720958713e-07
7.37569210778e-07
7.37397760071e-07
7.37263798709e-07
7.37419930054e-07
7.37561428734e-07
7.37742169231e-07
7.37898161751e-07
7.3803932981e-07
7.38149650355e-07
7.38220515424e-07
7.3824599218e-07
7.38223785136e-07
7.38155765225e-07
7.38047488874e-07
7.37907310906e-07
7.37751359683e-07
7.37570670318e-07
7.37427108629e-07
7.37586166063e-07
7.37741246168e-07
7.37933176397e-07
7.38094672716e-07
7.38239527053e-07
7.38352214722e-07
7.38424309126e-07
7.38450012982e-07
7.38427147791e-07
7.3835756069e-07
7.38246711978e-07
7.38102881695e-07
7.37941634211e-07
7.37750064309e-07
7.37592959988e-07
7.37761540895e-07
7.3793507669e-07
7.38139417714e-07
7.38307150714e-07
7.38456013177e-07
7.385714046e-07
7.38644900795e-07
7.38670949025e-07
7.38647399619e-07
7.38576122669e-07
7.38462441324e-07
7.38314582944e-07
7.38147277079e-07
7.37943448064e-07
7.37767814193e-07
7.3795132438e-07
7.38149068842e-07
7.38366565453e-07
7.38540665574e-07
7.38693655442e-07
7.3881173633e-07
7.38886764408e-07
7.38913158497e-07
7.38888995813e-07
7.38816003978e-07
7.38699454577e-07
7.3854752382e-07
7.38373915815e-07
7.3815696086e-07
7.37956973504e-07
7.38160136836e-07
7.38388600494e-07
7.38618915948e-07
7.38798670051e-07
7.38955311452e-07
7.39076229027e-07
7.39152622675e-07
7.39179513301e-07
7.39154692612e-07
7.3908009554e-07
7.38960752278e-07
7.38805014951e-07
7.38625867461e-07
7.38395997837e-07
7.38165202096e-07
7.38435844196e-07
7.3869825981e-07
7.38922274988e-07
7.39096282165e-07
7.39249745214e-07
7.3936822349e-07
7.3944323627e-07
7.394694112e-07
7.39445134986e-07
7.39371957417e-07
7.39254814426e-07
7.39102403027e-07
7.38928832294e-07
7.38705107939e-07
7.38440083928e-07
7.39054467953e-07
7.39189812953e-07
7.39334416421e-07
7.39457337301e-07
7.39573972662e-07
7.39666044855e-07
7.39724579856e-07
7.3974524342e-07
7.39726436574e-07
7.39669557014e-07
7.39578921017e-07
7.39463151377e-07
7.39340667435e-07
7.39195930769e-07
7.39058423529e-07
3.21367051377e-07
3.21360533079e-07
3.21365156e-07
3.21359264282e-07
3.21350542459e-07
3.21340417436e-07
3.21332700296e-07
3.21329112104e-07
3.21330544844e-07
3.2133645775e-07
3.21345418468e-07
3.21354641667e-07
3.2136259986e-07
3.21361280632e-07
3.21361506937e-07
3.21588870543e-07
3.21590604179e-07
3.21601177372e-07
3.2160060203e-07
3.2159609394e-07
3.21589004619e-07
3.21583044307e-07
3.21580012358e-07
3.21580799967e-07
3.21584868517e-07
3.21590808179e-07
3.21595844904e-07
3.21598599362e-07
3.21590725347e-07
3.21583311967e-07
3.21823991748e-07
3.21832945915e-07
3.21849087736e-07
3.2185274e-07
3.21851679391e-07
3.21847106155e-07
3.21842648744e-07
3.2184013224e-07
3.21840469528e-07
3.21843131753e-07
3.21846685776e-07
3.21848255514e-07
3.21846713401e-07
3.21832462594e-07
3.21818708037e-07
3.22010521527e-07
3.22021565836e-07
3.22040959173e-07
3.22045604414e-07
3.22045554338e-07
3.22041685553e-07
3.22037610309e-07
3.22035258e-07
3.22035581694e-07
3.22038054313e-07
3.22041147035e-07
3.22041785858e-07
3.22038965053e-07
3.22021237857e-07
3.22005357907e-07
3.22158036426e-07
3.2216821341e-07
3.22189215447e-07
3.22192992708e-07
3.22192391083e-07
3.22188027904e-07
3.2218362097e-07
3.22181213456e-07
3.22181799632e-07
3.22184816856e-07
3.221886141e-07
3.22189887969e-07
3.22187661938e-07
3.22168308011e-07
3.2215318216e-07
3.22276847689e-07
3.22285450754e-07
3.22306794359e-07
3.2230889519e-07
3.22307051288e-07
3.22301734024e-07
3.22296740964e-07
3.22294219019e-07
3.22295192285e-07
3.22299060685e-07
3.223040498e-07
3.22306650681e-07
3.22305860229e-07
3.22285696577e-07
3.22272730266e-07
3.2237345004e-07
3.22379947383e-07
3.22401660872e-07
3.22402210432e-07
3.22399111023e-07
3.2239288655e-07
3.22387366324e-07
3.2238477389e-07
3.22386118802e-07
3.22390787191e-07
3.22396879562e-07
3.22400765105e-07
3.22401390905e-07
3.22380410546e-07
3.22369840964e-07
3.22453546936e-07
3.22458712258e-07
3.224817784e-07
3.22481528112e-07
3.22477837719e-07
3.22471307244e-07
3.22465679801e-07
3.22463169895e-07
3.22464748467e-07
3.22469797358e-07
3.22476357736e-07
3.22480781513e-07
3.22481959827e-07
3.2245931137e-07
3.22450040995e-07
3.22523128327e-07
3.22529446758e-07
3.22555527768e-07
3.22556029982e-07
3.22553062455e-07
3.22547274483e-07
3.22542226167e-07
3.22540022636e-07
3.22541580476e-07
3.22546276489e-07
3.22552195279e-07
3.22555806022e-07
3.22555957188e-07
3.22530031115e-07
3.22519657792e-07
3.22589052392e-07
3.22600280425e-07
3.22631458997e-07
3.22634700225e-07
3.22634092187e-07
3.22630404884e-07
3.22626808277e-07
3.2262521033e-07
3.2262639564e-07
3.2262980878e-07
3.22633670099e-07
3.22634750575e-07
3.22631868195e-07
3.22600551118e-07
3.22585429992e-07
3.22658079724e-07
3.22678795859e-07
3.22717325343e-07
3.22725360704e-07
3.227289004e-07
3.22728760052e-07
3.22727562692e-07
3.22726867401e-07
3.22727298901e-07
3.22728416996e-07
3.2272870118e-07
3.22725455832e-07
3.22717529359e-07
3.22678615638e-07
3.22654206376e-07
3.22735366184e-07
3.22770907446e-07
3.22818898432e-07
3.22833570126e-07
3.22843012611e-07
3.22847954541e-07
3.22850143128e-07
3.22850673573e-07
3.22849950258e-07
3.22847673363e-07
3.22842827141e-07
3.22833471665e-07
3.2281868402e-07
3.22770243442e-07
3.22731289673e-07
3.22825586203e-07
3.22881515561e-07
3.22940055118e-07
3.22962495725e-07
3.2297958999e-07
3.22991186674e-07
3.22997887454e-07
3.22999981539e-07
3.22997652004e-07
3.22990850662e-07
3.22979185316e-07
3.22962019645e-07
3.2293930084e-07
3.22880261022e-07
3.22821296626e-07
3.22963725824e-07
3.23042759408e-07
3.23098917455e-07
3.2312279041e-07
3.23144442735e-07
3.23161037059e-07
3.23171216763e-07
3.2317454377e-07
3.23170876877e-07
3.23160452393e-07
3.23143672513e-07
3.23121732309e-07
3.23097448975e-07
3.2304076025e-07
3.22959255471e-07
3.23340785835e-07
3.23326348783e-07
3.23330147977e-07
3.23326124878e-07
3.23331835114e-07
3.2333852855e-07
3.23343158475e-07
3.23344596056e-07
3.23342608873e-07
3.23337516897e-07
3.23330402971e-07
3.23324175857e-07
3.23327598062e-07
3.23323066172e-07
3.2333574354e-07
-1.70214995595e-07
-1.70199326292e-07
-1.70173741773e-07
-1.70146500232e-07
-1.70119976876e-07
-1.70098360299e-07
-1.70083922147e-07
-1.70077693531e-07
-1.70079978095e-07
-1.70090548918e-07
-1.70108515904e-07
-1.70132651582e-07
-1.70159403172e-07
-1.70188356068e-07
-1.70205684179e-07
-1.70053074702e-07
-1.7003338007e-07
-1.70002545173e-07
-1.6997137633e-07
-1.69941324024e-07
-1.69916980622e-07
-1.69900779235e-07
-1.69893877103e-07
-1.69896646718e-07
-1.69908803389e-07
-1.69929347038e-07
-1.69956888815e-07
-1.69987659871e-07
-1.70021492234e-07
-1.70044515973e-07
-1.69878867748e-07
-1.69853982406e-07
-1.69816847807e-07
-1.6978185614e-07
-1.69748532495e-07
-1.69721950365e-07
-1.69704342696e-07
-1.69697009678e-07
-1.6970034378e-07
-1.69714059987e-07
-1.69737070774e-07
-1.69767931541e-07
-1.69802569386e-07
-1.69841708527e-07
-1.69870314009e-07
-1.69731787037e-07
-1.697028067e-07
-1.69660989203e-07
-1.69623303692e-07
-1.69587970753e-07
-1.69560139635e-07
-1.69541796068e-07
-1.6953428694e-07
-1.69538008305e-07
-1.69552689364e-07
-1.69577215243e-07
-1.69610165514e-07
-1.69647241448e-07
-1.69690506821e-07
-1.69722697337e-07
-1.69605306255e-07