/*--------------------------------*- C++ -*----------------------------------*\
  =========                 |
  \\      /  F ield         | OpenFOAM: The Open Source CFD Toolbox
   \\    /   O peration     | Website:  https://openfoam.org
    \\  /    A nd           | Version:  7
     \\/     M anipulation  |
\*---------------------------------------------------------------------------*/
FoamFile
{
    version     2.0;
    format      ascii;
    class       volVectorField;
    location    "1.98";
    object      U;
}
// * * * * * * * * * * * * * * * * * * * * * * * * * * * * * * * * * * * * * //

dimensions      [0 1 -1 0 0 0 0];

internalField   nonuniform List<vector> 
22500
(
(2.13258217959e-06 2.45317646179e-06 1.83445907814e-05)
(1.92921882551e-06 2.8076380214e-06 1.91465832274e-05)
(1.65092802874e-06 3.13628593459e-06 1.98112358795e-05)
(1.36044779587e-06 3.40199610215e-06 2.03548070755e-05)
(1.0408593047e-06 3.61237386622e-06 2.07812746066e-05)
(7.05053663021e-07 3.7636408201e-06 2.10890664156e-05)
(3.5702604081e-07 3.85499451535e-06 2.1275588291e-05)
(2.74423483987e-09 3.88574868222e-06 2.13386733792e-05)
(-3.51593858079e-07 3.85551155477e-06 2.12756733909e-05)
(-6.99782917182e-07 3.7646551105e-06 2.10892583097e-05)
(-1.03585107745e-06 3.61384113928e-06 2.07816171286e-05)
(-1.35577371201e-06 3.40386356892e-06 2.03554014718e-05)
(-1.64669735358e-06 3.13846918651e-06 1.98123559766e-05)
(-1.92524244185e-06 2.81021352487e-06 1.9149193936e-05)
(-2.12956473367e-06 2.4557503537e-06 1.83520588378e-05)
(6.39738496008e-06 7.319061595e-06 5.30045495284e-05)
(5.80003149698e-06 8.34770905703e-06 5.51743208207e-05)
(4.992673712e-06 9.3041703679e-06 5.69444845534e-05)
(4.11916034675e-06 1.0089595564e-05 5.83716690017e-05)
(3.15850773788e-06 1.07146067582e-05 5.94787462595e-05)
(2.14179711841e-06 1.11660747855e-05 6.027137443e-05)
(1.085094359e-06 1.14395834952e-05 6.07490920791e-05)
(7.88610829012e-09 1.1531697588e-05 6.09097889588e-05)
(-1.06947620804e-06 1.14410271482e-05 6.07493485882e-05)
(-2.12662783284e-06 1.11689047222e-05 6.02719526212e-05)
(-3.1440644359e-06 1.07186966616e-05 5.94797787432e-05)
(-4.10566073072e-06 1.00947848952e-05 5.83734610673e-05)
(-4.98037827639e-06 9.31020953323e-06 5.69478537496e-05)
(-5.78874773361e-06 8.35469946994e-06 5.5182086546e-05)
(-6.38881160173e-06 7.32616078256e-06 5.30246747164e-05)
(1.01685037057e-05 1.15736804606e-05 8.5544912974e-05)
(9.20142520599e-06 1.31487657288e-05 8.88811102318e-05)
(7.926216054e-06 1.46075021988e-05 9.15665627338e-05)
(6.53292905594e-06 1.58100652796e-05 9.37060860789e-05)
(5.00716573756e-06 1.67666323861e-05 9.5349521679e-05)
(3.39366003545e-06 1.74578413694e-05 9.65177224625e-05)
(1.71878638152e-06 1.78766210744e-05 9.72183059014e-05)
(1.25568261478e-08 1.80176512799e-05 9.74529971447e-05)
(-1.69390644127e-06 1.78788386855e-05 9.72186962183e-05)
(-3.36946626367e-06 1.74621873164e-05 9.65186102872e-05)
(-4.98408317553e-06 1.67729127584e-05 9.53511199585e-05)
(-6.51130479323e-06 1.58180174305e-05 9.37088730193e-05)
(-7.90644516354e-06 1.46167418439e-05 9.15717691389e-05)
(-9.18343890617e-06 1.31593537562e-05 8.88928643091e-05)
(-1.01547214495e-05 1.15846042451e-05 8.55745336281e-05)
(1.34914740023e-05 1.52862115972e-05 0.000116028067515)
(1.21860365768e-05 1.72940330139e-05 0.00012034862322)
(1.0497452202e-05 1.91471421892e-05 0.00012378113173)
(8.64285829149e-06 2.06768547572e-05 0.000126483625906)
(6.61999127734e-06 2.18929265018e-05 0.000128538763625)
(4.48406189379e-06 2.27715325839e-05 0.000129988609487)
(2.27025706614e-06 2.33037662862e-05 0.000130853548277)
(1.67969087069e-08 2.34829926087e-05 0.000131142185468)
(-2.23696573525e-06 2.33066638929e-05 0.000130853994893)
(-4.45166360283e-06 2.27772090616e-05 0.00012998964572)
(-6.58904348742e-06 2.1901127191e-05 0.000128540663142)
(-8.61382867187e-06 2.06872210801e-05 0.000126486980018)
(-1.04708521125e-05 1.91591638741e-05 0.000123787399516)
(-1.21619500574e-05 1.73077190155e-05 0.000120362644121)
(-1.34727498199e-05 1.53004620808e-05 0.000116063048666)
(1.64020609985e-05 1.85113543762e-05 0.000144542811682)
(1.47917542735e-05 2.08502023081e-05 0.000149684463114)
(1.2739073067e-05 2.30017305151e-05 0.000153715769081)
(1.04779397432e-05 2.47785041718e-05 0.000156851383577)
(8.02030294446e-06 2.61898388994e-05 0.000159210940866)
(5.42946105945e-06 2.72093142726e-05 0.000160862109785)
(2.74805698958e-06 2.78267690323e-05 0.000161841603707)
(2.06727582468e-08 2.80346988991e-05 0.000162167243486)
(-2.70707499792e-06 2.7830273923e-05 0.000161842059523)
(-5.38955638614e-06 2.721617909e-05 0.00016086318723)
(-7.98215343363e-06 2.61997549961e-05 0.000159212938982)
(-1.04421275576e-05 2.4791027243e-05 0.00015685492034)
(-1.2706203568e-05 2.30162370431e-05 0.000153722328683)
(-1.47620522136e-05 2.08666536835e-05 0.000149699189606)
(-1.63785980553e-05 1.85285989895e-05 0.000144579917139)
(1.8904986261e-05 2.12613629105e-05 0.000171183057047)
(1.70234788372e-05 2.38336874414e-05 0.000176998486585)
(1.46542588266e-05 2.61916993931e-05 0.000181497002337)
(1.20412903197e-05 2.81385488408e-05 0.000184952303892)
(9.21081025432e-06 2.9683224361e-05 0.000187523749211)
(6.23196996857e-06 3.07987164034e-05 0.000189307574189)
(3.15337505327e-06 3.14741897547e-05 0.000190359317873)
(2.42544233813e-08 3.17016896251e-05 0.000190707662592)
(-3.10528426903e-06 3.14782423475e-05 0.000190359785681)
(-6.18512205519e-06 3.08066546396e-05 0.000189308679308)
(-9.16599267219e-06 2.96946939648e-05 0.000187525768739)
(-1.19991920881e-05 2.8153030765e-05 0.000184955782642)
(-1.46155565766e-05 2.62084765529e-05 0.000181503264261)
(-1.69885100369e-05 2.38526712921e-05 0.000177012758558)
(-1.88769439415e-05 2.12813656361e-05 0.000171220284584)
(2.10039109292e-05 2.35439306659e-05 0.000196044002406)
(1.88843003777e-05 2.62560030046e-05 0.000202399451061)
(1.6245182912e-05 2.87322045293e-05 0.000207247817345)
(1.33351402741e-05 3.07750356139e-05 0.000210923678143)
(1.01936032567e-05 3.23935555241e-05 0.000213627581398)
(6.8933051379e-06 3.35620235074e-05 0.000215485897447)
(3.48720414859e-06 3.42694575126e-05 0.000216574388716)
(2.76072334619e-08 3.45077910608e-05 0.000216933533533)
(-3.43245674924e-06 3.42740092374e-05 0.000216574933822)
(-6.83994932697e-06 3.35709429803e-05 0.000215487137904)
(-1.01425261287e-05 3.24064532479e-05 0.000213629719049)
(-1.32871284461e-05 3.07913294977e-05 0.000210927084131)
(-1.62009667067e-05 2.87511020317e-05 0.000207253504712)
(-1.88443064873e-05 2.62773596636e-05 0.000202412653056)
(-2.09713999998e-05 2.35665178997e-05 0.000196080334454)
(2.27065921139e-05 2.53702776924e-05 0.00021921885772)
(2.0381025805e-05 2.81328210336e-05 0.000225991930749)
(1.75177657038e-05 3.06431860019e-05 0.00023108507108)
(1.43650001504e-05 3.27115385574e-05 0.00023489531857)
(1.09734290057e-05 3.43476551367e-05 0.000237664512189)
(7.41703536631e-06 3.55285488349e-05 0.000239549184005)
(3.75148308025e-06 3.62434694342e-05 0.000240645483463)
(3.07901705525e-08 3.64844440609e-05 0.000241005835901)
(-3.69041307324e-06 3.62484765688e-05 0.000240646251692)
(-7.35748834519e-06 3.55383690795e-05 0.000239550827982)
(-1.09163815645e-05 3.43618752812e-05 0.000237667105931)
(-1.4311327904e-05 3.27295281024e-05 0.000234898967814)
(-1.74682403008e-05 3.06640921625e-05 0.000231090365397)
(-2.03361582193e-05 2.81564400489e-05 0.000226004135212)
(-2.26696833411e-05 2.53953227143e-05 0.000219254217392)
(2.40227828719e-05 2.67531572629e-05 0.000240794016202)
(2.15224146629e-05 2.94813054617e-05 0.00024787114124)
(1.84800350188e-05 3.19462222697e-05 0.000253114761933)
(1.51383479547e-05 3.39736768374e-05 0.000256985696042)
(1.15566515381e-05 3.55749129182e-05 0.000259765360942)
(7.80784398632e-06 3.6730614444e-05 0.0002616385682)
(3.94871067271e-06 3.74304049359e-05 0.000262720547499)
(3.38553600205e-08 3.76664601423e-05 0.000263074922831)
(-3.88154674733e-06 3.74358213236e-05 0.000262721787989)
(-7.74231479296e-06 3.67412514448e-05 0.000261641094395)
(-1.14938122682e-05 3.55903481378e-05 0.000259769074674)
(-1.50791557063e-05 3.39932487097e-05 0.000256990361156)
(-1.84252993895e-05 3.1969034522e-05 0.000253120464812)
(-2.14727401085e-05 2.95070930105e-05 0.000247883268877)
(-2.3981503648e-05 2.67805594987e-05 0.000240829339566)
(2.49634316332e-05 2.77061275382e-05 0.000260841476846)
(2.23186793573e-05 3.03191291771e-05 0.000268114593033)
(1.91418016857e-05 3.26634647272e-05 0.000273424387511)
(1.56644289011e-05 3.45880877358e-05 0.00027729556822)
(1.19510714845e-05 3.6106268467e-05 0.000280044545041)
(8.07136379239e-06 3.72024872214e-05 0.000281879999444)
(4.08184347067e-06 3.786659918e-05 0.000282933160033)
(3.68461480191e-08 3.80908669087e-05 0.000283277071689)
(-4.0087262625e-06 3.78723663404e-05 0.000282935251274)
(-7.99996934569e-06 3.72138337651e-05 0.000281884155119)
(-1.18825219209e-05 3.61227812325e-05 0.000280050467799)
(-1.55997565976e-05 3.46090968923e-05 0.000277302623934)
(-1.90818592315e-05 3.2688051003e-05 0.000273432100881)
(-2.22641847534e-05 3.03469721607e-05 0.000268128598874)
(-2.49177537292e-05 2.77357843616e-05 0.000260878881633)
(2.55408209447e-05 2.82441091274e-05 0.000279406336329)
(2.27818544468e-05 3.06647392452e-05 0.000286768821482)
(1.95151736715e-05 3.28180510322e-05 0.000292071388008)
(1.59546688772e-05 3.45831600651e-05 0.000295898545478)
(1.21661132624e-05 3.59750797408e-05 0.000298592340053)
(8.2142015967e-06 3.69812102101e-05 0.000300377645324)
(4.15427207653e-06 3.75912876569e-05 0.000301396585872)
(3.9793614901e-08 3.77976145893e-05 0.000301728746108)
(-4.07527856063e-06 3.75973237397e-05 0.000301400059919)
(-8.13699095643e-06 3.69931141157e-05 0.0003003845033)
(-1.2091860803e-05 3.59924697496e-05 0.000298602089772)
(-1.58844778507e-05 3.46053887168e-05 0.000295910127029)
(-1.94499517287e-05 3.28442036398e-05 0.000292083706464)
(-2.27224561052e-05 3.06944573565e-05 0.000286787884345)
(-2.54906453618e-05 2.82758683482e-05 0.000279449364649)
(2.57682290978e-05 2.83830732414e-05 0.000296485709744)
(2.2926265225e-05 3.0536859341e-05 0.000303829379255)
(1.96153250115e-05 3.24345443002e-05 0.000309067502268)
(1.60230371904e-05 3.3990284486e-05 0.000312828895378)
(1.22127394288e-05 3.52185338695e-05 0.000315464797863)
(8.24368311753e-06 3.61078487132e-05 0.000317205009718)
(4.16963577838e-06 3.664766725e-05 0.00031819550274)
(4.27122810913e-08 3.68305615037e-05 0.000318518505868)
(-4.08481291104e-06 3.66538570095e-05 0.000318201056105)
(-8.16067241123e-06 3.61200903893e-05 0.000317216002653)
(-1.21327540618e-05 3.52365036274e-05 0.000315480603907)
(-1.59472470654e-05 3.40133968951e-05 0.000312848052081)
(-1.9544711218e-05 3.24619298368e-05 0.000309088202947)
(-2.28618417899e-05 3.05681447525e-05 0.000303858012234)
(-2.57133897479e-05 2.84166671487e-05 0.000296539501571)
(2.56594384747e-05 2.8134787892e-05 0.000311992917182)
(2.27711487829e-05 2.99523603903e-05 0.000319214470265)
(1.94624597136e-05 3.15411176351e-05 0.000324361876096)
(1.58862528914e-05 3.28469962179e-05 0.000328068887812)
(1.21027475535e-05 3.38805656099e-05 0.000330672741269)
(8.16709241178e-06 3.46298969271e-05 0.0003323945491)
(4.13138319563e-06 3.50849590833e-05 0.00033337582433)
(4.55961568345e-08 3.52394359353e-05 0.000333696864149)
(-4.04079158291e-06 3.50911468757e-05 0.000333384291932)
(-8.07831311229e-06 3.46421753107e-05 0.000332411432552)
(-1.20170136016e-05 3.38986934819e-05 0.000330697440053)
(-1.58047956401e-05 3.2870499956e-05 0.000328099684854)
(-1.93863578837e-05 3.15692316282e-05 0.000324396114815)
(-2.27016048982e-05 2.99847413896e-05 0.000319258466595)
(-2.55998248532e-05 2.81697150753e-05 0.000312063627801)
(2.52449140487e-05 2.7504842438e-05 0.000325697019846)
(2.23537546116e-05 2.89493747414e-05 0.000332744105828)
(1.90850876949e-05 3.01839148716e-05 0.000337833271165)
(1.5561551459e-05 3.12084735569e-05 0.000341541293442)
(1.18459971891e-05 3.20194386764e-05 0.00034417294016)
(7.98968961094e-06 3.26063494941e-05 0.000345927544678)
(4.04180651861e-06 3.29622283464e-05 0.000346933679958)
(4.84150626412e-08 3.30832753256e-05 0.000347264929013)
(-3.9455692798e-06 3.29682250543e-05 0.000346945928715)
(-7.89524422147e-06 3.26182911105e-05 0.000345952190096)
(-1.1754578893e-05 3.20371834874e-05 0.000344209721408)
(-1.54744413425e-05 3.12317106627e-05 0.000341588705353)
(-1.90034774945e-05 3.02120764025e-05 0.000337887883799)
(-2.22790628892e-05 2.89822066127e-05 0.000332810683577)
(-2.51803277637e-05 2.75406095792e-05 0.000325790640453)
(2.45808422542e-05 2.67147600568e-05 0.000337149725672)
(2.17195876578e-05 2.75765913094e-05 0.000344199734063)
(1.84878125027e-05 2.84274966494e-05 0.000349314319318)
(1.50465884168e-05 2.91294796711e-05 0.000353117288678)
(1.14386993985e-05 2.96793453297e-05 0.000355867349674)
(7.70868351512e-06 3.00736526336e-05 0.000357728155031)
(3.89952218705e-06 3.03115142686e-05 0.000358806563399)
(5.11182054641e-08 3.03926729399e-05 0.000359164526613)
(-3.79786804436e-06 3.03170286247e-05 0.000358823115208)
(-7.60878956581e-06 3.0084672093e-05 0.000357761737006)
(-1.13417851854e-05 2.9695827874e-05 0.000355918430036)
(-1.49539547982e-05 2.91513024124e-05 0.00035318549456)
(-1.84007529288e-05 2.84543418018e-05 0.000349396155106)
(-2.16400116467e-05 2.7608621083e-05 0.000344301222105)
(-2.45107582372e-05 2.6750027773e-05 0.000337263629153)
(1.63268737894e-08 3.53584944632e-08 1.27939945623e-05)
(1.07161637373e-09 5.01270966917e-08 1.32984482881e-05)
(-9.20937424135e-09 5.75600266124e-08 1.36725944499e-05)
(-1.46854913383e-08 6.025115367e-08 1.39506341159e-05)
(-1.5785473043e-08 6.01191445233e-08 1.4153006846e-05)
(-1.27141795748e-08 5.87230452606e-08 1.42912079387e-05)
(-6.59474484759e-09 5.73796205632e-08 1.43722078834e-05)
(1.16734829823e-09 5.69183653478e-08 1.43995926515e-05)
(8.91637715471e-09 5.76112213071e-08 1.4373043626e-05)
(1.49975153164e-08 5.9174802992e-08 1.42928982562e-05)
(1.79898954154e-08 6.07623375436e-08 1.4155598212e-05)
(1.67342116436e-08 6.10401285113e-08 1.39542393772e-05)
(1.09888780531e-08 5.84384622274e-08 1.36775069111e-05)
(4.14660580118e-10 5.10436725606e-08 1.33056141203e-05)
(-1.53105248095e-08 3.62183221774e-08 1.28064082938e-05)
(2.04856198319e-07 2.69081128747e-07 3.94922977155e-05)
(1.58152078669e-07 3.38185258074e-07 4.10885015076e-05)
(1.16048968139e-07 3.89083385395e-07 4.22869374286e-05)
(8.11082429014e-08 4.2496977511e-07 4.3182818262e-05)
(5.29843296448e-08 4.48899742449e-07 4.3836497362e-05)
(3.19870782003e-08 4.63592047052e-07 4.42835365285e-05)
(1.63788577894e-08 4.71512307982e-07 4.45454481224e-05)
(3.708231095e-09 4.74215311201e-07 4.46333568736e-05)
(-9.01363895471e-09 4.72188477983e-07 4.45480581871e-05)
(-2.47768290184e-08 4.64905603551e-07 4.42888102826e-05)
(-4.60658433387e-08 4.50765228834e-07 4.38445728135e-05)
(-7.46915781338e-08 4.2726215452e-07 4.31940296183e-05)
(-1.10432448585e-07 3.91648127383e-07 4.23021484222e-05)
(-1.53454752776e-07 3.40894480183e-07 4.11104710508e-05)
(-2.01544496594e-07 2.71692941131e-07 3.95281528985e-05)
(5.37603156608e-07 6.5418998701e-07 6.71389459249e-05)
(4.57135247888e-07 7.98381574449e-07 6.99103258613e-05)
(3.72998120285e-07 9.15444501271e-07 7.20095463692e-05)
(2.91516209233e-07 1.00645268934e-06 7.35876357915e-05)
(2.13503634288e-07 1.07375207246e-06 7.47424353763e-05)
(1.40758265589e-07 1.11960399209e-06 7.55335081386e-05)
(7.23390626642e-08 1.14635435361e-06 7.59970822885e-05)
(6.36226424944e-09 1.15548712917e-06 7.61521141677e-05)
(-5.97125309475e-08 1.14743288396e-06 7.60015188152e-05)
(-1.28428791617e-07 1.12169485091e-06 7.55424637233e-05)
(-2.01709907854e-07 1.07671778501e-06 7.47561254091e-05)
(-2.8057900918e-07 1.0100999569e-06 7.36065755898e-05)
(-3.63356573652e-07 9.19541233457e-07 7.20350336198e-05)
(-4.49020984741e-07 8.02771307501e-07 6.99464423528e-05)
(-5.31729816622e-07 6.58519107683e-07 6.71959142257e-05)
(9.83089451621e-07 1.15632411873e-06 9.55434084971e-05)
(8.66312507635e-07 1.38835033304e-06 9.95488664264e-05)
(7.3219886249e-07 1.58519079567e-06 0.00010260401319)
(5.90904870706e-07 1.74455421823e-06 0.000104911357253)
(4.45209937683e-07 1.86699581397e-06 0.000106603766108)
(2.99209476778e-07 1.95324195847e-06 0.000107764541649)
(1.53862385718e-07 2.00470007759e-06 0.000108444841286)
(9.09770577282e-09 2.02226496358e-06 0.000108671821933)
(-1.35817811333e-07 2.00614442104e-06 0.000108451110666)
(-2.81621865443e-07 1.95604384779e-06 0.000107777181304)
(-4.28425377885e-07 1.87097944884e-06 0.000106623041524)
(-5.75345984979e-07 1.74947567863e-06 0.000104937893054)
(-7.18411606007e-07 1.59075002545e-06 0.000102639348151)
(-8.54628917328e-07 1.39437413472e-06 9.95978615908e-05)
(-9.74417372697e-07 1.16235071596e-06 9.5618182665e-05)
(1.50541260463e-06 1.73549387485e-06 0.000124521590558)
(1.35033939874e-06 2.05993329777e-06 0.000129794763107)
(1.16115558627e-06 2.34134710904e-06 0.000133837785935)
(9.51219405398e-07 2.57397535877e-06 0.000136902176408)
(7.25786252916e-07 2.75612521414e-06 0.000139153787541)
(4.91821736677e-07 2.88646381917e-06 0.000140699333722)
(2.52974863796e-07 2.96502371282e-06 0.000141605115006)
(1.1879265831e-08 2.99183433864e-06 0.000141906850218)
(-2.29422495906e-07 2.96679756331e-06 0.000141613241672)
(-4.68892978929e-07 2.88991093852e-06 0.000140715690638)
(-7.03934678921e-07 2.76104396559e-06 0.000139178645829)
(-9.30962927615e-07 2.58008465915e-06 0.000136936168364)
(-1.1431229574e-06 2.34829060648e-06 0.000133882473547)
(-1.33493849647e-06 2.06751814709e-06 0.0001298554036)
(-1.49371516383e-06 1.74315707935e-06 0.000124611483752)
(2.0757885481e-06 2.36002302242e-06 0.000153885304646)
(1.88095442956e-06 2.77498326407e-06 0.00016043248731)
(1.63381872418e-06 3.1389076025e-06 0.000165470089745)
(1.3499792196e-06 3.44331071839e-06 0.000169298399155)
(1.03739042061e-06 3.68422163911e-06 0.000172114734552)
(7.06216091208e-07 3.85813084101e-06 0.000174048809908)
(3.63322978442e-07 3.96353895335e-06 0.000175182153618)
(1.46700444701e-08 3.99950634356e-06 0.000175559289774)
(-3.34243500497e-07 3.96560196421e-06 0.00017519220197)
(-6.77923364546e-07 3.86214819489e-06 0.000174068995392)
(-1.01044033375e-06 3.68997635034e-06 0.000172145275561)
(-1.32497619315e-06 3.45049577685e-06 0.00016933981565)
(-1.61145790541e-06 3.14712468e-06 0.000165523755986)
(-1.86169793359e-06 2.78402132966e-06 0.000160503832347)
(-2.06085414643e-06 2.36921813128e-06 0.000153988586537)
(2.66826379993e-06 3.00167137037e-06 0.000183442909947)
(2.43271752915e-06 3.49952637271e-06 0.000191241830109)
(2.1266817845e-06 3.93803831629e-06 0.000197254801215)
(1.76686772293e-06 4.30733854272e-06 0.000201832855437)
(1.3638949009e-06 4.60146726594e-06 0.00020520363021)
(9.31204631805e-07 4.81492004809e-06 0.00020751911057)
(4.7916394224e-07 4.94472857382e-06 0.000208875769958)
(1.74319481114e-08 4.98901582696e-06 0.000209326914994)
(-4.44611106368e-07 4.94703467289e-06 0.00020888786454)
(-8.97588898628e-07 4.81942115468e-06 0.000207543353277)
(-1.33186476445e-06 4.60794056867e-06 0.000205240123475)
(-1.73710409424e-06 4.31546267158e-06 0.000201881879771)
(-2.09993199092e-06 3.94738565113e-06 0.000197317354534)
(-2.40948883659e-06 3.50987706308e-06 0.000191323419887)
(-2.64989747762e-06 3.01225762673e-06 0.000183558669139)
(3.25877114418e-06 3.63439308497e-06 0.000212999604658)
(2.98213367312e-06 4.20241631189e-06 0.000221998788825)
(2.61802546871e-06 4.70261405835e-06 0.000228942364496)
(2.18309672311e-06 5.12544501737e-06 0.000234236191448)
(1.69037004775e-06 5.46346301479e-06 0.000238136906097)
(1.1564213183e-06 5.70956061006e-06 0.000240817257046)
(5.95173253337e-07 5.8595273605e-06 0.000242387677805)
(2.01273912641e-08 5.91068620363e-06 0.000242909770168)
(-5.55273287701e-07 5.86202420234e-06 0.000242402050798)
(-1.11758864927e-06 5.71444632769e-06 0.000240845994689)
(-1.65333228527e-06 5.47051831349e-06 0.000238179917813)
(-2.1486000735e-06 5.13434629629e-06 0.000234293388239)
(-2.5868560416e-06 4.71291902887e-06 0.000229014203326)
(-2.95484205739e-06 4.21390447698e-06 0.000222090842724)
(-3.23680855721e-06 3.64620625249e-06 0.000213127824889)
(3.82538109472e-06 4.23460865403e-06 0.000242354676298)
(3.50789993625e-06 4.85569113574e-06 0.000252472723434)
(3.08816986625e-06 5.40066437817e-06 0.000260278015144)
(2.58161735105e-06 5.86212585595e-06 0.000266236600959)
(2.00323119632e-06 6.23176368447e-06 0.000270631540254)
(1.37240912857e-06 6.5013863205e-06 0.000273653351799)
(7.06483078295e-07 6.66588208995e-06 0.000275424334188)
(2.27182629829e-08 6.72199051448e-06 0.000276013225607)
(-6.6143614138e-07 6.66850950618e-06 0.000275441343717)
(-1.32853277497e-06 6.50654171279e-06 0.000273687265265)
(-1.9613154714e-06 6.23924178672e-06 0.000270682005346)
(-2.54246090012e-06 5.87161376683e-06 0.000266303039634)
(-3.05258765115e-06 5.41172274819e-06 0.000260360201808)
(-3.47648524581e-06 4.86810813493e-06 0.000252576350197)
(-3.79968829091e-06 4.24745784444e-06 0.000242496369566)
(4.34852757219e-06 4.78143288187e-06 0.000271293969495)
(3.99112918613e-06 5.43488174698e-06 0.000282418382919)
(3.51968444647e-06 6.00473196105e-06 0.000290995401098)
(2.94727169972e-06 6.48736183511e-06 0.000297555505864)
(2.29033336792e-06 6.87424248495e-06 0.00030240242224)
(1.57066991745e-06 7.15667708373e-06 0.000305739078455)
(8.08702674202e-07 7.32907523855e-06 0.000307696075716)
(2.51662313932e-08 7.38786887159e-06 0.000308347309644)
(-7.58784002929e-07 7.33176499685e-06 0.000307716223156)
(-1.52199352615e-06 7.16197098919e-06 0.00030577914768)
(-2.24373277194e-06 6.88195985658e-06 0.00030246174738)
(-2.90358322972e-06 6.49721540185e-06 0.000297632916671)
(-3.47974254963e-06 6.01630467542e-06 0.000291089861727)
(-3.95557284287e-06 5.44798490673e-06 0.000282535802546)
(-4.31900278321e-06 4.79509927068e-06 0.000271451413322)
(4.81115954572e-06 5.25681465965e-06 0.000299574852273)
(4.41551187914e-06 5.91920433917e-06 0.000311561025097)
(3.89750681048e-06 6.4920928372e-06 0.000320805090761)
(3.26684906373e-06 6.9768276919e-06 0.000327899213033)
(2.54098407956e-06 7.36524791976e-06 0.000333156056277)
(1.74365815567e-06 7.6487618398e-06 0.000336782577312)
(8.97910869981e-07 7.82178825914e-06 0.000338912587492)
(2.74319047432e-08 7.88077909601e-06 0.000339622363013)
(-8.4347362976e-07 7.82446391208e-06 0.000338936532845)
(-1.69050076097e-06 7.65404652057e-06 0.000336830123586)
(-2.4899623883e-06 7.37299570381e-06 0.000333226208962)
(-3.21882095731e-06 6.98679344513e-06 0.000327990136359)
(-3.85331717577e-06 6.50390311215e-06 0.000320914804425)
(-4.37584722258e-06 5.93271367933e-06 0.000311695761168)
(-4.77774149904e-06 5.27104592414e-06 0.0002997518711)
(5.19871651918e-06 5.64529887726e-06 0.000326898822969)
(4.76733594391e-06 6.29145928301e-06 0.000339573305501)
(4.20892257201e-06 6.84478693815e-06 0.000349379121211)
(3.52901824528e-06 7.31195584475e-06 0.00035694797533)
(2.74587109559e-06 7.68563409498e-06 0.000362581626309)
(1.8847306434e-06 7.95801224022e-06 0.000366480341925)
(9.70632674637e-07 8.12407633047e-06 0.000368775124856)
(2.94754720992e-08 8.18066384694e-06 0.000369541338102)
(-9.121098649e-07 8.12665628074e-06 0.000368803678)
(-1.8274919047e-06 7.96312724462e-06 0.000366537026481)
(-2.69077341975e-06 7.6931826393e-06 0.000362665176007)
(-3.47692271493e-06 7.32175027015e-06 0.000357055880305)
(-4.16067404229e-06 6.85652130854e-06 0.000349508277308)
(-4.72366890092e-06 6.30505231249e-06 0.000339730235333)
(-5.16139772155e-06 5.65980354438e-06 0.000327100915404)
(5.49914894869e-06 5.93292278492e-06 0.00035286325995)
(5.03568912685e-06 6.53763134561e-06 0.000366047294123)
(4.44363337606e-06 7.04981800276e-06 0.000376337793585)
(3.72428476714e-06 7.48008119619e-06 0.000384346599346)
(2.89701625395e-06 7.8228610151e-06 0.000390341770389)
(1.98813653193e-06 8.07193476264e-06 0.000394507503541)
(1.02384505573e-06 8.22346868948e-06 0.000396966382881)
(3.12590578731e-08 8.27506330496e-06 0.000397789499947)
(-9.61748020986e-07 8.2258710961e-06 0.00039700044161)
(-1.92729937135e-06 8.07671847207e-06 0.000394575223949)
(-2.83827714104e-06 7.82997289372e-06 0.00039044180321)
(-3.66848972591e-06 7.48940564344e-06 0.000384475919424)
(-4.39161451753e-06 7.06113801067e-06 0.000376491941096)
(-4.98822434873e-06 6.55095663832e-06 0.000366232461795)
(-5.45802647869e-06 5.94735097121e-06 0.000353096690775)
(5.70695292883e-06 6.10792518758e-06 0.000376878630226)
(5.21455342802e-06 6.65491330529e-06 0.000390486429028)
(4.59456773862e-06 7.10384830474e-06 0.000401255666065)
(3.84511240393e-06 7.47757525483e-06 0.000409703919749)
(2.9878448461e-06 7.7729243967e-06 0.000416066679445)
(2.04908752306e-06 7.98629772865e-06 0.000420508642956)
(1.05502640165e-06 8.11563691266e-06 0.000423139495917)
(3.27503992831e-08 8.15962506864e-06 0.000424022808002)
(-9.89932571317e-07 8.11779009467e-06 0.000423179881031)
(-1.98521012862e-06 7.99060500558e-06 0.000420589211451)
(-2.92598815338e-06 7.77937998448e-06 0.000416186393407)
(-3.78609075337e-06 7.48614186574e-06 0.000409859823387)
(-4.53918388846e-06 7.11442168624e-06 0.000401442011633)
(-5.16360878748e-06 6.66761489287e-06 0.000390707139956)
(-5.6621667337e-06 6.12196644707e-06 0.000377148721924)
(5.81940139714e-06 6.23742807137e-06 0.000398097701758)
(5.29625139867e-06 6.66967550383e-06 0.000412457755423)
(4.65011068533e-06 7.02275794558e-06 0.000423717214837)
(3.88141147985e-06 7.31161804471e-06 0.000432610595283)
(3.01068637863e-06 7.53658099125e-06 0.000439356160739)
(2.06246430207e-06 7.69746131331e-06 0.000444092189022)
(1.06160557587e-06 7.7943721641e-06 0.000446908599989)
(3.39297633541e-08 7.82728888963e-06 0.000447857187198)
(-9.94135363092e-07 7.79618772789e-06 0.000446955545174)
(-1.99615480514e-06 7.70111168269e-06 0.000444186237946)
(-2.94629943581e-06 7.5421003703e-06 0.000439497094848)
(-3.81971511379e-06 7.3190413444e-06 0.000432796722648)
(-4.5918615722e-06 7.03208092298e-06 0.000423942429427)
(-5.24235009496e-06 6.68121554431e-06 0.000412727315006)
(-5.77104927352e-06 6.25047744041e-06 0.000398397852)
(-6.4082444688e-09 -1.01724908772e-08 9.86311191169e-06)
(-4.34275372367e-09 -1.34968909389e-08 1.02354980152e-05)
(-3.45915957968e-09 -1.56450483138e-08 1.04939348352e-05)
(-2.57939404549e-09 -1.74104357226e-08 1.06743396173e-05)
(-1.84657601766e-09 -1.87307450497e-08 1.07979526829e-05)
(-1.08456007355e-09 -1.96848954384e-08 1.08782786798e-05)
(-3.39958425364e-10 -2.02557907273e-08 1.09239103395e-05)
(3.80172232488e-10 -2.04306261368e-08 1.09395523876e-05)
(1.08475068487e-09 -2.02052107687e-08 1.09255272533e-05)
(1.78361958626e-09 -1.95859942694e-08 1.08815124337e-05)
(2.47782016693e-09 -1.85871201515e-08 1.08028104316e-05)
(3.15573676912e-09 -1.72242166872e-08 1.0680869352e-05)
(3.94988267888e-09 -1.54639889186e-08 1.05023187913e-05)
(4.71624534723e-09 -1.3319846628e-08 1.02464325099e-05)
(6.63719374899e-09 -1.00425914398e-08 9.87891303512e-06)
(-6.41310281242e-09 -1.45314514838e-08 3.13736369433e-05)
(-9.75657767738e-10 -2.05325070092e-08 3.26452088513e-05)
(1.10011363334e-09 -2.41856148533e-08 3.3566753126e-05)
(2.28920549121e-09 -2.69569702652e-08 3.42328870914e-05)
(2.58149278603e-09 -2.88311100062e-08 3.47035258302e-05)
(2.4451182199e-09 -3.00922744553e-08 3.50171286384e-05)
(1.95983615766e-09 -3.07972646472e-08 3.51979889481e-05)
(1.25923342728e-09 -3.09804482319e-08 3.52592996664e-05)
(5.15607482242e-10 -3.06557272177e-08 3.52029897131e-05)
(-9.63216647013e-11 -2.98148491188e-08 3.50271249113e-05)
(-4.24459390734e-10 -2.84292799414e-08 3.47185307383e-05)
(-3.327103018e-10 -2.64461136615e-08 3.42530296076e-05)
(5.88103565904e-10 -2.36688574149e-08 3.35925521391e-05)
(2.31699084252e-09 -2.00159509793e-08 3.2678669939e-05)
(7.31049055672e-09 -1.41239645993e-08 3.14201804305e-05)
(7.24660413935e-09 -2.3975042927e-09 5.44362868459e-05)
(1.52218422176e-08 -7.38524696207e-09 5.67486588805e-05)
(1.75302005796e-08 -9.64564270053e-09 5.84668627279e-05)
(1.75106720873e-08 -1.08755811577e-08 5.97347639378e-05)
(1.53389097464e-08 -1.12237079229e-08 6.06459475243e-05)
(1.18136249185e-08 -1.12143381016e-08 6.12611675871e-05)
(7.29889355926e-09 -1.10723226568e-08 6.16187238413e-05)
(2.22780247585e-09 -1.09369521882e-08 6.1739413404e-05)
(-2.90968713768e-09 -1.08595552265e-08 6.16272050839e-05)
(-7.61982186293e-09 -1.07966805415e-08 6.12781119982e-05)
(-1.14479089534e-08 -1.06167041957e-08 6.06713548805e-05)
(-1.39718089865e-08 -1.01082862622e-08 5.97687985263e-05)
(-1.44471252555e-08 -8.84240399018e-09 5.85102518635e-05)
(-1.26923505524e-08 -6.57233162443e-09 5.6804307072e-05)
(-5.45293128748e-09 -1.70726711699e-09 5.4511874016e-05)
(3.93462018704e-08 3.12747043226e-08 7.88721629637e-05)
(4.89242530716e-08 3.17455767906e-08 8.23433494685e-05)
(5.01164090033e-08 3.49318736931e-08 8.4970197178e-05)
(4.68516526057e-08 3.88094103242e-08 8.69383590852e-05)
(3.94716859915e-08 4.29623790036e-08 8.83700917564e-05)
(2.91765531311e-08 4.6501745952e-08 8.93456515857e-05)
(1.67969778058e-08 4.89083303028e-08 8.99156410007e-05)
(3.28491630543e-09 4.98463669814e-08 9.01076072652e-05)
(-1.03159485182e-08 4.91935966892e-08 8.99276601411e-05)
(-2.29567948019e-08 4.70607408203e-08 8.93696469368e-05)
(-3.36641553117e-08 4.37719925251e-08 8.84060192718e-05)
(-4.15547938935e-08 3.98271108295e-08 8.6986346497e-05)
(-4.54711481435e-08 3.60271846979e-08 8.50310056404e-05)
(-4.50321218493e-08 3.28759905379e-08 8.24203333409e-05)
(-3.64592333641e-08 3.22808949763e-08 7.89743070611e-05)
(8.82894752511e-08 8.42503073974e-08 0.000104511337289)
(9.8507743661e-08 9.37050298052e-08 0.000109236033789)
(9.72473186518e-08 1.05693484372e-07 0.000112861401874)
(8.88532505484e-08 1.17621110905e-07 0.000115609936039)
(7.37823418316e-08 1.28724646798e-07 0.000117628022007)
(5.36898664407e-08 1.37644260725e-07 0.000119012586703)
(3.00169833172e-08 1.4347092394e-07 0.000119824780589)
(4.42327170511e-09 1.45605437165e-07 0.000120098000788)
(-2.12815963586e-08 1.43829864183e-07 0.000119840406108)
(-4.52816382396e-08 1.38345826794e-07 0.000119043751985)
(-6.5895872872e-08 1.29736257528e-07 0.000117674594184)