/*--------------------------------*- C++ -*----------------------------------*\
  =========                 |
  \\      /  F ield         | OpenFOAM: The Open Source CFD Toolbox
   \\    /   O peration     | Website:  https://openfoam.org
    \\  /    A nd           | Version:  7
     \\/     M anipulation  |
\*---------------------------------------------------------------------------*/
FoamFile
{
    version     2.0;
    format      ascii;
    class       volScalarField;
    location    "1.54";
    object      p;
}
// * * * * * * * * * * * * * * * * * * * * * * * * * * * * * * * * * * * * * //

dimensions      [0 2 -2 0 0 0 0];

internalField   nonuniform List<scalar> 
22500
(
-8.79628967782e-07
-8.79624200341e-07
-8.79417002064e-07
-8.79252260501e-07
-8.79096234171e-07
-8.78979097881e-07
-8.78906254033e-07
-8.78883025781e-07
-8.78909396155e-07
-8.78985364425e-07
-8.79105636116e-07
-8.79264751068e-07
-8.79432776337e-07
-8.79642821478e-07
-8.79654197063e-07
-8.81286067406e-07
-8.81378792787e-07
-8.81243201344e-07
-8.81137144927e-07
-8.81025761095e-07
-8.80939741216e-07
-8.80885234974e-07
-8.80867972918e-07
-8.80888493018e-07
-8.80946241885e-07
-8.81035508678e-07
-8.81150107739e-07
-8.81259550894e-07
-8.81398093078e-07
-8.81311847927e-07
-8.82933988018e-07
-8.83120275232e-07
-8.83051632335e-07
-8.83003269695e-07
-8.82934733377e-07
-8.82878846411e-07
-8.82842073086e-07
-8.82830603619e-07
-8.82845364408e-07
-8.82885416868e-07
-8.82944583032e-07
-8.83016370842e-07
-8.8306815607e-07
-8.83139703448e-07
-8.82959873511e-07
-8.84467187395e-07
-8.84735127236e-07
-8.84727455219e-07
-8.84730563579e-07
-8.84700883638e-07
-8.84672313501e-07
-8.84651700082e-07
-8.84645524284e-07
-8.84654999744e-07
-8.84678903527e-07
-8.84710757019e-07
-8.84743681583e-07
-8.84743976864e-07
-8.84754441195e-07
-8.84492910354e-07
-8.85967772401e-07
-8.86310203385e-07
-8.86361549647e-07
-8.86412251574e-07
-8.8641938975e-07
-8.86416649136e-07
-8.86411406467e-07
-8.86410283393e-07
-8.86414719776e-07
-8.86423265051e-07
-8.86429293133e-07
-8.86425386153e-07
-8.86378033999e-07
-8.86329366066e-07
-8.85993285442e-07
-8.87449984867e-07
-8.87859840677e-07
-8.87967755049e-07
-8.88061865958e-07
-8.88103289032e-07
-8.88124550471e-07
-8.88133664164e-07
-8.88137275317e-07
-8.88136997519e-07
-8.88131205053e-07
-8.881132369e-07
-8.88075033243e-07
-8.8798419381e-07
-8.8787887582e-07
-8.8747535317e-07
-8.88903432278e-07
-8.89372602799e-07
-8.89533408831e-07
-8.89666000132e-07
-8.89738422873e-07
-8.89781392008e-07
-8.89803559575e-07
-8.89811494115e-07
-8.89806925075e-07
-8.89788106924e-07
-8.89748445917e-07
-8.89679236741e-07
-8.89549836891e-07
-8.89391561345e-07
-8.88928751962e-07
-8.90320358601e-07
-8.90839955173e-07
-8.9104905957e-07
-8.91214767388e-07
-8.91314497063e-07
-8.91376694206e-07
-8.91410508245e-07
-8.91422324483e-07
-8.9141392243e-07
-8.91383501281e-07
-8.91324643974e-07
-8.91228136946e-07
-8.91065550478e-07
-8.90858951414e-07
-8.90345765918e-07
-8.91695214592e-07
-8.9225549598e-07
-8.92507361305e-07
-8.92700591364e-07
-8.92823791942e-07
-8.92902774998e-07
-8.92946876915e-07
-8.92962153837e-07
-8.92950362174e-07
-8.92909720639e-07
-8.92834133135e-07
-8.9271419336e-07
-8.92524040229e-07
-8.9227470741e-07
-8.91720915109e-07
-8.93021652662e-07
-8.93611748821e-07
-8.93899821373e-07
-8.94115022499e-07
-8.94258071648e-07
-8.94351734102e-07
-8.94404999613e-07
-8.94423400646e-07
-8.94408584727e-07
-8.94358877853e-07
-8.94268703213e-07
-8.94128991716e-07
-8.93916871369e-07
-8.93631422184e-07
-8.93047938885e-07
-8.94291679803e-07
-8.94899177647e-07
-8.95215812576e-07
-8.95447917996e-07
-8.95607971072e-07
-8.95714944354e-07
-8.95776729423e-07
-8.95798077799e-07
-8.95780447409e-07
-8.95722356246e-07
-8.95619008473e-07
-8.95462427335e-07
-8.95233473832e-07
-8.94919633796e-07
-8.94318961974e-07
-8.95498794898e-07
-8.96106601096e-07
-8.96441915965e-07
-8.96686852685e-07
-8.96862536707e-07
-8.96982615855e-07
-8.97052953962e-07
-8.97077300187e-07
-8.97056837448e-07
-8.96990370266e-07
-8.96874108024e-07
-8.96702100718e-07
-8.96460477431e-07
-8.96128217716e-07
-8.95527549248e-07
-8.96641274374e-07
-8.97215804567e-07
-8.97556734906e-07
-8.97814035449e-07
-8.98007088241e-07
-8.98141906994e-07
-8.9822178218e-07
-8.98249439797e-07
-8.98225857806e-07
-8.98150058411e-07
-8.9801930309e-07
-8.97830216151e-07
-8.97576510847e-07
-8.9723897446e-07
-8.96671882639e-07
-8.9764798082e-07
-8.98151398419e-07
-8.98513849322e-07
-8.987995627e-07
-8.99021678636e-07
-8.99178264067e-07
-8.9927137863e-07
-8.99303546977e-07
-8.992756549e-07
-8.99186842756e-07
-8.99034605075e-07
-8.9881683852e-07
-8.98535174264e-07
-8.98176682173e-07
-8.97680513967e-07
-8.98048730623e-07
-8.98839607231e-07
-8.99290882249e-07
-8.99651220296e-07
-8.99928652878e-07
-9.00122284677e-07
-9.00237039618e-07
-9.00276425343e-07
-9.00241603409e-07
-9.00131459766e-07
-8.99942549554e-07
-8.99669996648e-07
-8.99314541427e-07
-8.988682282e-07
-8.98083341547e-07
-9.06080194275e-07
-9.06043147659e-07
-9.05998653024e-07
-9.05957326568e-07
-9.05921378287e-07
-9.05894225547e-07
-9.05877277482e-07
-9.0587148493e-07
-9.05877127186e-07
-9.05893976246e-07
-9.05921159926e-07
-9.05957262727e-07
-9.05998761401e-07
-9.06043224801e-07
-9.06080533765e-07
-9.05895948264e-07
-9.05854551737e-07
-9.0580620043e-07
-9.05761725293e-07
-9.05722988717e-07
-9.05693643695e-07
-9.05675297565e-07
-9.05669038843e-07
-9.05675211534e-07
-9.05693524255e-07
-9.05722961817e-07
-9.05761918778e-07
-9.0580663964e-07
-9.05854932157e-07
-9.0589659808e-07
-9.05714059701e-07
-9.0566865434e-07
-9.05616888066e-07
-9.05569923139e-07
-9.05528937369e-07
-9.05497876552e-07
-9.05478447702e-07
-9.05471832005e-07
-9.05478411005e-07
-9.05497846048e-07
-9.0552901547e-07
-9.05570213492e-07
-9.05617438225e-07
-9.05669103278e-07
-9.05714891129e-07
-9.05557973944e-07
-9.05508038607e-07
-9.05452532415e-07
-9.05403072072e-07
-9.05359935063e-07
-9.0532729502e-07
-9.05306895944e-07
-9.05299963535e-07
-9.05306897869e-07
-9.05327330884e-07
-9.05360082915e-07
-9.05403409479e-07
-9.05453124081e-07
-9.05508509851e-07
-9.05558978835e-07
-9.05409003827e-07
-9.05352342737e-07
-9.05291457291e-07
-9.0523823116e-07
-9.05192005502e-07
-9.0515713119e-07
-9.05135381964e-07
-9.05128005183e-07
-9.0513541389e-07
-9.05157219672e-07
-9.05192210428e-07
-9.0523861269e-07
-9.05292079363e-07
-9.05352831729e-07
-9.05410183442e-07
-9.05255800098e-07
-9.05189328745e-07
-9.05120775816e-07
-9.05061887805e-07
-9.05011102768e-07
-9.04972941956e-07
-9.04949217106e-07
-9.04941187407e-07
-9.0494927389e-07
-9.04973074552e-07
-9.0501135663e-07
-9.05062309448e-07
-9.05121425363e-07
-9.05189822735e-07
-9.05257175415e-07
-9.05092646541e-07
-9.05012709082e-07
-9.04933890063e-07
-9.04867135824e-07
-9.0481007175e-07
-9.04767387483e-07
-9.04740947531e-07
-9.04732015984e-07
-9.04741021087e-07
-9.04767549418e-07
-9.04810358926e-07
-9.04867585204e-07
-9.04934558779e-07
-9.05013200715e-07
-9.05094212013e-07
-9.0491528031e-07
-9.04817934694e-07
-9.04726152078e-07
-9.04649248133e-07
-9.04584142933e-07
-9.04535669695e-07
-9.04505760006e-07
-9.0449567398e-07
-9.04505844294e-07
-9.04535850646e-07
-9.04584451065e-07
-9.04649715669e-07
-9.04726826339e-07
-9.04818429979e-07
-9.04917018847e-07
-9.04720351108e-07
-9.04601703101e-07
-9.04494394891e-07
-9.0440526192e-07
-9.0433053901e-07
-9.04275151909e-07
-9.04241102403e-07
-9.04229637155e-07
-9.04241188707e-07
-9.04275336676e-07
-9.04330850545e-07
-9.04405735003e-07
-9.04495065633e-07
-9.04602204459e-07
-9.04722272794e-07
-9.04505531492e-07
-9.04362021525e-07
-9.04237069871e-07
-9.04134123435e-07
-9.04048625545e-07
-9.03985514216e-07
-9.0394684391e-07
-9.03933838284e-07
-9.03946923857e-07
-9.03985687615e-07
-9.04048923272e-07
-9.04134585855e-07
-9.04237726169e-07
-9.04362533261e-07
-9.04507633483e-07
-9.04269417527e-07
-9.04098171274e-07
-9.0395425484e-07
-9.03836685069e-07
-9.03739893208e-07
-9.03668704762e-07
-9.03625208084e-07
-9.03610589174e-07
-9.03625270416e-07
-9.03668846089e-07
-9.03740152333e-07
-9.03837116966e-07
-9.03954885352e-07
-9.04098698713e-07
-9.04271716309e-07
-9.04012236401e-07
-9.0381119604e-07
-9.0364793871e-07
-9.03515809137e-07
-9.03407897857e-07
-9.03328773603e-07
-9.03280527849e-07
-9.03264321495e-07
-9.03280557475e-07
-9.03328857226e-07
-9.0340808408e-07
-9.03516176372e-07
-9.03648518636e-07
-9.03811736375e-07
-9.04014715545e-07
-9.03735383799e-07
-9.03502699557e-07
-9.03320896435e-07
-9.03175521917e-07
-9.03057541165e-07
-9.02971191775e-07
-9.02918609958e-07
-9.02900934143e-07
-9.02918590165e-07
-9.02971177425e-07
-9.03057604065e-07
-9.0317576552e-07
-9.03321379545e-07
-9.0350322024e-07
-9.03737985163e-07
-9.03421960028e-07
-9.03158555687e-07
-9.02968075008e-07
-9.02815857159e-07
-9.02692392298e-07
-9.0260193979e-07
-9.02546825192e-07
-9.0252828902e-07
-9.02546736223e-07
-9.0260179582e-07
-9.02692276435e-07
-9.02815915614e-07
-9.02968399959e-07
-9.03159057521e-07
-9.03424557338e-07
-9.02972791419e-07
-9.02758706069e-07
-9.02586557581e-07
-9.02443317098e-07
-9.02325779126e-07
-9.02239195471e-07
-9.02186308741e-07
-9.02168483122e-07
-9.02186178954e-07
-9.02238965506e-07
-9.02325543934e-07
-9.02443247496e-07
-9.02586851811e-07
-9.02759386613e-07
-9.02975208953e-07
-8.11314207963e-07
-8.11318229009e-07
-8.11319192723e-07
-8.11320035693e-07
-8.11320033637e-07
-8.11319889393e-07
-8.11319721679e-07
-8.11319592612e-07
-8.11319475626e-07
-8.11319378731e-07
-8.11319217578e-07
-8.11318871502e-07
-8.11317897639e-07
-8.11316532656e-07
-8.11312278035e-07
-8.1130419406e-07
-8.1130768844e-07
-8.11308533494e-07
-8.11309321876e-07
-8.11309361817e-07
-8.11309264067e-07
-8.11309137928e-07
-8.1130903946e-07
-8.11308940683e-07
-8.11308852829e-07
-8.11308693107e-07
-8.11308353855e-07
-8.11307423708e-07
-8.11306233225e-07
-8.11302496744e-07
-8.11285547086e-07
-8.11288161858e-07
-8.11288272052e-07
-8.11288576918e-07
-8.11288293971e-07
-8.11287978159e-07
-8.11287720188e-07
-8.11287580701e-07
-8.11287534984e-07
-8.11287594012e-07
-8.11287674738e-07
-8.11287685773e-07
-8.11287220977e-07
-8.1128679059e-07
-8.11283982412e-07
-8.11270815895e-07
-8.11273266705e-07
-8.11273015369e-07
-8.1127319942e-07
-8.11272884959e-07
-8.1127257124e-07
-8.1127231523e-07
-8.11272175779e-07
-8.11272131548e-07
-8.11272194445e-07
-8.11272291274e-07
-8.11272357117e-07
-8.1127200118e-07
-8.11271928569e-07
-8.11269388106e-07
-8.11261449987e-07
-8.11264395419e-07
-8.11264235996e-07
-8.11264710527e-07
-8.11264686182e-07
-8.11264610965e-07
-8.11264508788e-07
-8.11264423014e-07
-8.1126433003e-07
-8.1126424564e-07
-8.11264115995e-07
-8.11263909299e-07
-8.1126326487e-07
-8.11263091829e-07
-8.11260156853e-07
-8.1125647791e-07
-8.11260384291e-07
-8.11260682061e-07
-8.1126174819e-07
-8.11262263657e-07
-8.11262612475e-07
-8.11262779855e-07
-8.11262787508e-07
-8.11262606731e-07
-8.11262260087e-07
-8.11261718423e-07
-8.11260988201e-07
-8.11259752016e-07
-8.11259135345e-07
-8.1125531103e-07
-8.11255378443e-07
-8.11260638259e-07
-8.11261655527e-07
-8.11263545514e-07
-8.11264790213e-07
-8.11265701406e-07
-8.1126622583e-07
-8.11266357018e-07
-8.11266059751e-07
-8.1126536298e-07
-8.11264268441e-07
-8.11262822761e-07
-8.11260764594e-07
-8.11259438967e-07
-8.11254351642e-07
-8.11257774673e-07
-8.11264627586e-07
-8.11266540699e-07
-8.11269408421e-07
-8.1127151309e-07
-8.11273082422e-07
-8.11274022888e-07
-8.11274297821e-07
-8.11273864591e-07
-8.11272759353e-07
-8.11271017072e-07
-8.11268726282e-07
-8.11265695357e-07
-8.11263483089e-07
-8.1125690203e-07
-8.11263131368e-07
-8.11271624653e-07
-8.11274515191e-07
-8.11278430226e-07
-8.11281457291e-07
-8.11283728416e-07
-8.11285111955e-07
-8.11285539728e-07
-8.11284961401e-07
-8.11283421238e-07
-8.11280986651e-07
-8.11277788619e-07
-8.11273719465e-07
-8.11270541535e-07
-8.11262418067e-07
-8.11270723806e-07
-8.1128070084e-07
-8.11284557755e-07
-8.11289517988e-07
-8.11293475303e-07
-8.11296452317e-07
-8.11298278231e-07
-8.11298858757e-07
-8.11298136227e-07
-8.11296162312e-07
-8.112930333e-07
-8.11288921059e-07
-8.11283818194e-07
-8.11279691033e-07
-8.11270177638e-07
-8.11279704145e-07
-8.11290803821e-07
-8.11295546948e-07
-8.11301511965e-07
-8.11306372833e-07
-8.11310025536e-07
-8.11312272858e-07
-8.11312996214e-07
-8.11312138882e-07
-8.11309752045e-07
-8.1130595787e-07
-8.11300959594e-07
-8.11294863883e-07
-8.11289871354e-07
-8.1127933101e-07
-8.11289188094e-07
-8.11300836154e-07
-8.11306356537e-07
-8.1131328441e-07
-8.11318995085e-07
-8.11323268487e-07
-8.11325888184e-07
-8.11326740141e-07
-8.11325760612e-07
-8.113230098e-07
-8.11318605622e-07
-8.11312772468e-07
-8.11305727933e-07
-8.11299976992e-07
-8.11288972917e-07
-8.11297856504e-07
-8.11309427291e-07
-8.11315766209e-07
-8.11323713274e-07
-8.11330233011e-07
-8.11335039946e-07
-8.11337974369e-07
-8.11338920904e-07
-8.11337851943e-07
-8.11334791084e-07
-8.11329859443e-07
-8.11323232279e-07
-8.11315180197e-07
-8.11308635898e-07
-8.11297793485e-07
-8.11301330685e-07
-8.1131283999e-07
-8.11321338828e-07
-8.11331026698e-07
-8.11338670699e-07
-8.11344184976e-07
-8.11347500938e-07
-8.11348581473e-07
-8.11347381803e-07
-8.11343938207e-07
-8.1133830631e-07
-8.11330559425e-07
-8.11320775613e-07
-8.11312101218e-07
-8.11301396869e-07
-8.11287621442e-07
-8.11306863972e-07
-8.11321388121e-07
-8.11334686443e-07
-8.11344542493e-07
-8.11351481732e-07
-8.11355628657e-07
-8.11356974807e-07
-8.11355514995e-07
-8.11351248082e-07
-8.11344189742e-07
-8.11334236967e-07
-8.1132086034e-07
-8.11306173177e-07
-8.11287617911e-07
-8.04544202051e-07
-8.04538879684e-07
-8.04534350633e-07
-8.04530047701e-07
-8.04526396282e-07
-8.04523496794e-07
-8.04521578035e-07
-8.04520777843e-07
-8.04521178169e-07
-8.04522730073e-07
-8.04525350441e-07
-8.04528892357e-07
-8.04533173915e-07
-8.04537792046e-07
-8.04542865992e-07
-8.04539648883e-07
-8.04534587949e-07
-8.0453005441e-07
-8.04525763782e-07
-8.04522063055e-07
-8.04519107987e-07
-8.04517143616e-07
-8.04516323694e-07
-8.04516738381e-07
-8.0451833444e-07
-8.04521017808e-07
-8.0452462785e-07
-8.0452895362e-07
-8.04533574996e-07
-8.04538480482e-07
-8.04542817391e-07
-8.04538522906e-07
-8.0453450053e-07
-8.04530641919e-07
-8.04527249535e-07
-8.04524530184e-07
-8.04522716682e-07
-8.04521958229e-07
-8.04522339831e-07
-8.04523808503e-07
-8.04526267785e-07
-8.04529552224e-07
-8.04533441476e-07
-8.04537495742e-07
-8.04541702929e-07
-8.04546699536e-07
-8.04542945602e-07
-8.04539361515e-07
-8.04535857854e-07
-8.04532742887e-07
-8.0453024044e-07
-8.04528569329e-07
-8.0452787208e-07
-8.04528227122e-07
-8.04529582848e-07
-8.04531841616e-07
-8.0453483682e-07
-8.0453834507e-07
-8.04541930078e-07
-8.04545623619e-07
-8.0454966373e-07
-8.04546239584e-07
-8.0454295724e-07
-8.0453969503e-07
-8.04536782857e-07
-8.04534436497e-07
-8.04532871477e-07
-8.0453221962e-07
-8.04532557558e-07
-8.04533831937e-07
-8.04535946104e-07
-8.04538733543e-07
-8.04541972193e-07
-8.04545242147e-07
-8.0454862292e-07
-8.04552145577e-07
-8.04548971883e-07
-8.0454587446e-07
-8.04542800945e-07
-8.04540047661e-07
-8.04537832881e-07
-8.04536356561e-07
-8.04535745684e-07
-8.04536070758e-07
-8.04537280906e-07
-8.04539279564e-07
-8.0454190512e-07
-8.04544939879e-07
-8.04547986175e-07
-8.04551174035e-07
-8.04554458986e-07
-8.04551438379e-07
-8.04548463538e-07
-8.04545533195e-07
-8.0454290381e-07
-8.0454079632e-07
-8.04539394048e-07
-8.04538818247e-07
-8.04539133018e-07
-8.04540289953e-07
-8.04542194883e-07
-8.04544693566e-07
-8.04547575109e-07
-8.0455046602e-07
-8.04553547121e-07
-8.04556676185e-07
-8.0455371164e-07
-8.04550812059e-07
-8.04547971348e-07
-8.04545436337e-07
-8.04543415551e-07
-8.04542077671e-07
-8.04541532747e-07
-8.04541840414e-07
-8.04542953961e-07
-8.04544784845e-07
-8.04547188442e-07
-8.04549963428e-07
-8.04552761421e-07
-8.04555809287e-07
-8.04558818274e-07
-8.04555861613e-07
-8.04552982961e-07
-8.04550192052e-07
-8.0454772343e-07
-8.04545769853e-07
-8.0454448478e-07
-8.04543966102e-07
-8.04544267912e-07
-8.04545346646e-07
-8.04547120849e-07
-8.04549458292e-07
-8.04552169161e-07
-8.04554931366e-07
-8.04558007921e-07
-8.04560944131e-07
-8.04557939786e-07
-8.04555028175e-07
-8.04552250584e-07
-8.04549821864e-07
-8.04547921229e-07
-8.04546679508e-07
-8.0454618469e-07
-8.0454648164e-07
-8.04547532971e-07
-8.04549265133e-07
-8.04551561322e-07
-8.04554246545e-07
-8.04557026578e-07
-8.0456019024e-07
-8.04563057426e-07
-8.04559951342e-07
-8.0455696398e-07
-8.04554170143e-07
-8.04551765897e-07
-8.04549904661e-07
-8.0454870119e-07
-8.04548225752e-07
-8.04548519291e-07
-8.045495467e-07
-8.04551247923e-07
-8.04553522682e-07
-8.04556214699e-07
-8.04559063799e-07
-8.04562373802e-07
-8.04565159945e-07
-8.04561877478e-07
-8.04558772367e-07
-8.04555941461e-07
-8.04553547239e-07
-8.04551723673e-07
-8.04550551548e-07
-8.04550096859e-07
-8.0455038325e-07
-8.04551391211e-07
-8.04553064962e-07
-8.04555330697e-07
-8.04558056602e-07
-8.04561023198e-07
-8.04564556272e-07
-8.04567320305e-07
-8.04563736255e-07
-8.045604543e-07
-8.04557554894e-07
-8.04555159066e-07
-8.04553351592e-07
-8.04552212047e-07
-8.04551766544e-07
-8.04552055848e-07
-8.04553043613e-07
-8.04554705601e-07
-8.04556981197e-07
-8.04559773142e-07
-8.04562925162e-07
-8.04566810252e-07
-8.04569418147e-07
-8.04565396111e-07
-8.04561961421e-07
-8.04559001464e-07
-8.04556591e-07
-8.04554803353e-07
-8.04553670988e-07
-8.04553245569e-07
-8.04553527954e-07
-8.04554513406e-07
-8.04556169195e-07
-8.04558459444e-07
-8.04561314517e-07
-8.04564630871e-07
-8.04569034327e-07
-8.04568005023e-07
-8.04564801563e-07
-8.04561920668e-07
-8.04559464648e-07
-8.04557475e-07
-8.04555990353e-07
-8.04555057025e-07
-8.04554694612e-07
-8.04554920834e-07
-8.04555717708e-07
-8.04557068052e-07
-8.04558940683e-07
-8.04561291923e-07
-8.04564043815e-07
-8.04567600847e-07
-7.25181849946e-07
-7.25186449572e-07
-7.25190464608e-07
-7.25194299421e-07
-7.25197308204e-07
-7.25199481485e-07
-7.25200850902e-07
-7.25201320386e-07
-7.25200821153e-07
-7.25199381252e-07
-7.25197059449e-07
-7.25193949035e-07
-7.25190197987e-07
-7.25186064687e-07
-7.25181569241e-07
-7.25187853046e-07
-7.25192369508e-07
-7.25196531249e-07
-7.25200462256e-07
-7.25203587199e-07
-7.25205873141e-07
-7.2520731674e-07
-7.25207816319e-07
-7.2520730113e-07
-7.25205803593e-07
-7.25203390267e-07
-7.2520016943e-07
-7.25196313852e-07
-7.25192096376e-07
-7.25187659387e-07
-7.25187768604e-07
-7.2519174073e-07
-7.25195524605e-07
-7.25199104375e-07
-7.25202006534e-07
-7.2520415206e-07
-7.2520550719e-07
-7.25205973378e-07
-7.25205485257e-07
-7.25204078385e-07
-7.25201821779e-07
-7.25198829136e-07
-7.25195285257e-07
-7.25191467058e-07
-7.25187551234e-07
-7.25186538555e-07
-7.25190098087e-07
-7.2519351474e-07
-7.25196758232e-07
-7.251994353e-07
-7.25201439928e-07
-7.25202702137e-07
-7.25203131242e-07
-7.252026698e-07
-7.25201355002e-07
-7.25199257105e-07
-7.25196492211e-07
-7.25193250631e-07
-7.25189787505e-07
-7.25186300451e-07
-7.2518560241e-07
-7.25188887497e-07
-7.25192030343e-07
-7.25195019359e-07
-7.25197517711e-07
-7.25199402795e-07
-7.25200588653e-07
-7.25200988205e-07
-7.25200549129e-07
-7.25199308767e-07
-7.2519733838e-07
-7.25194753828e-07
-7.25191747127e-07
-7.25188535408e-07
-7.25185344061e-07
-7.25184714342e-07
-7.25187750518e-07
-7.2519070346e-07
-7.25193477458e-07
-7.25195821109e-07
-7.25197600827e-07
-7.2519871778e-07
-7.25199091025e-07
-7.25198671856e-07
-7.25197498221e-07
-7.25195640122e-07
-7.25193211329e-07
-7.25190401799e-07
-7.25187384608e-07
-7.25184419913e-07
-7.25183673685e-07
-7.25186531288e-07
-7.25189334769e-07
-7.25191925694e-07
-7.251941332e-07
-7.25195814048e-07
-7.25196867008e-07
-7.25197216222e-07
-7.25196815984e-07
-7.25195703319e-07
-7.25193946277e-07
-7.25191654079e-07
-7.25189011189e-07
-7.25186146157e-07
-7.2518335644e-07
-7.25182465414e-07
-7.25185203775e-07
-7.25187892347e-07
-7.25190339069e-07
-7.25192433101e-07
-7.25194027672e-07
-7.2519502341e-07
-7.25195350939e-07
-7.25194968054e-07
-7.25193910029e-07
-7.25192241559e-07
-7.25190065596e-07
-7.25187558183e-07
-7.25184805873e-07
-7.25182144815e-07
-7.25181108397e-07
-7.25183772045e-07
-7.25186381791e-07
-7.25188720445e-07
-7.25190720263e-07
-7.25192238763e-07
-7.25193184075e-07
-7.25193492097e-07
-7.25193125208e-07
-7.2519211568e-07
-7.25190523484e-07
-7.25188444027e-07
-7.25186041321e-07
-7.25183365514e-07
-7.25180787702e-07
-7.25179602191e-07
-7.25182227561e-07
-7.25184795732e-07
-7.25187058509e-07
-7.25188983295e-07
-7.25190438679e-07
-7.25191338948e-07
-7.25191630744e-07
-7.25191278175e-07
-7.25190312117e-07
-7.25188785236e-07
-7.25186784067e-07
-7.25184457592e-07
-7.2518182461e-07
-7.25179288476e-07
-7.25177961744e-07
-7.25180596588e-07
-7.25183153334e-07
-7.25185363716e-07
-7.25187228645e-07
-7.2518862601e-07
-7.2518948735e-07
-7.25189762747e-07
-7.25189425398e-07
-7.25188498282e-07
-7.25187029521e-07
-7.25185093055e-07
-7.25182818363e-07
-7.25180199748e-07
-7.25177659336e-07
-7.25176206258e-07
-7.25178903015e-07
-7.25181473248e-07
-7.25183654561e-07
-7.25185464671e-07
-7.2518681481e-07
-7.25187635761e-07
-7.25187899999e-07
-7.25187573918e-07
-7.25186687197e-07
-7.25185270275e-07
-7.25183388313e-07
-7.2518114471e-07
-7.25178507439e-07
-7.25175907095e-07
-7.2517422557e-07
-7.25177111468e-07
-7.25179755934e-07
-7.25181930067e-07
-7.25183713513e-07
-7.2518501694e-07
-7.25185817688e-07
-7.25186063341e-07
-7.25185757059e-07
-7.25184896161e-07
-7.25183521583e-07
-7.25181675754e-07
-7.25179433352e-07
-7.25176720595e-07
-7.25173935022e-07
-7.25172266469e-07
-7.25175515996e-07
-7.25178131882e-07
-7.25180266679e-07
-7.25181983396e-07
-7.25183254634e-07
-7.25184015173e-07
-7.25184261992e-07
-7.25183960953e-07
-7.25183136352e-07
-7.25181807447e-07
-7.25180018969e-07
-7.25177820202e-07
-7.25175124528e-07
-7.25171993286e-07
-7.25174767466e-07
-7.25176177756e-07
-7.25177907406e-07
-7.25179334151e-07
-7.25180526863e-07
-7.25181413601e-07
-7.25181959014e-07
-7.2518212454e-07
-7.25181905691e-07
-7.2518130501e-07
-7.25180352556e-07
-7.25179096839e-07
-7.25177593328e-07
-7.25175771959e-07
-7.25174464827e-07
-7.05345029664e-07
-7.05341845747e-07
-7.05339324651e-07
-7.05336919352e-07
-7.05334887694e-07
-7.0533327764e-07
-7.05332210168e-07
-7.05331771071e-07
-7.05332017763e-07
-7.05332923305e-07
-7.05334445808e-07
-7.05336514022e-07
-7.05339041658e-07
-7.0534182878e-07
-7.05344969281e-07
-7.05341930177e-07
-7.05338931913e-07
-7.05336382388e-07
-7.05333964491e-07
-7.05331885378e-07
-7.0533022286e-07
-7.05329111678e-07
-7.05328649979e-07
-7.05328901049e-07
-7.05329835939e-07
-7.05331406579e-07
-7.05333531958e-07
-7.05336106582e-07
-7.05338916293e-07
-7.05341961448e-07
-7.05343846553e-07
-7.05341340506e-07
-7.0533907287e-07
-7.05336909217e-07
-7.05335011318e-07
-7.05333491492e-07
-7.05332474613e-07
-7.05332053464e-07
-7.05332286315e-07
-7.0533314509e-07
-7.05334580669e-07
-7.05336509148e-07
-7.05338817844e-07
-7.05341279682e-07
-7.05343879859e-07
-7.05346372049e-07
-7.05344205324e-07
-7.05342204413e-07
-7.05340257958e-07
-7.05338535723e-07
-7.05337154965e-07
-7.05336232097e-07
-7.0533585397e-07
-7.05336072555e-07
-7.05336861068e-07
-7.0533817007e-07
-7.05339914522e-07
-7.05341979097e-07
-7.05344139034e-07
-7.05346389488e-07
-7.05348430497e-07
-7.05346484244e-07
-7.05344681176e-07
-7.05342886303e-07
-7.05341296148e-07
-7.05340018561e-07
-7.0533916827e-07
-7.05338823002e-07
-7.05339032444e-07
-7.05339768613e-07
-7.05340982528e-07
-7.0534258855e-07
-7.05344471305e-07
-7.0534641633e-07
-7.05348432589e-07
-7.05350255574e-07
-7.05348502742e-07
-7.05346824798e-07
-7.05345162129e-07
-7.05343682974e-07
-7.0534249509e-07
-7.05341705948e-07
-7.05341389646e-07
-7.05341591241e-07
-7.05342284112e-07
-7.05343418637e-07
-7.05344910964e-07
-7.05346647482e-07
-7.05348426514e-07
-7.05350274072e-07
-7.05352043853e-07
-7.05350425154e-07
-7.05348845571e-07
-7.05347289757e-07
-7.05345899628e-07
-7.05344786426e-07
-7.05344049073e-07
-7.0534375784e-07
-7.05343952994e-07
-7.05344608971e-07
-7.0534567652e-07
-7.05347074405e-07
-7.05348692501e-07
-7.05350340667e-07
-7.05352066892e-07
-7.05353830971e-07
-7.05352282426e-07
-7.05350784958e-07
-7.05349307951e-07
-7.05347991492e-07
-7.05346941065e-07
-7.05346248778e-07
-7.05345978954e-07
-7.05346168821e-07
-7.05346793289e-07
-7.05347804868e-07
-7.05349125891e-07
-7.05350650781e-07
-7.05352198815e-07
-7.05353841197e-07
-7.0535561505e-07
-7.05354123367e-07
-7.05352684945e-07
-7.05351264142e-07
-7.05350004347e-07
-7.05349003794e-07
-7.05348349077e-07
-7.05348097023e-07
-7.05348282109e-07
-7.05348879958e-07
-7.05349845466e-07
-7.05351105739e-07
-7.05352560433e-07
-7.05354034026e-07
-7.05355622226e-07
-7.05357444574e-07
-7.05355987992e-07
-7.05354585456e-07
-7.05353202026e-07
-7.05351983292e-07
-7.05351025245e-07
-7.05350401266e-07
-7.05350165402e-07
-7.0535034559e-07
-7.05350920895e-07
-7.05351848723e-07
-7.05353062334e-07
-7.05354467426e-07
-7.05355889464e-07
-7.05357443585e-07
-7.05359332575e-07
-7.05357902964e-07
-7.05356522856e-07
-7.05355158643e-07
-7.05353972589e-07
-7.05353046708e-07
-7.05352450761e-07
-7.0535222722e-07
-7.05352403316e-07
-7.05352957863e-07
-7.05353854624e-07
-7.05355033771e-07
-7.05356408522e-07
-7.05357799488e-07
-7.05359334368e-07
-7.05361314655e-07
-7.05359896825e-07
-7.05358517036e-07
-7.05357157919e-07
-7.05355989888e-07
-7.05355098085e-07
-7.05354523608e-07
-7.05354314768e-07
-7.05354483272e-07
-7.05355019912e-07
-7.05355888799e-07
-7.05357043378e-07
-7.05358407893e-07
-7.05359793922e-07
-7.05361326968e-07
-7.05363510255e-07
-7.05362040621e-07
-7.05360612019e-07
-7.05359220403e-07
-7.05358068169e-07
-7.05357188118e-07
-7.05356642892e-07
-7.0535643766e-07
-7.05356607087e-07
-7.0535712518e-07
-7.05357976099e-07
-7.05359122946e-07
-7.05360510232e-07
-7.05361946622e-07
-7.05363541592e-07
-7.05366039278e-07
-7.05364408239e-07
-7.05362868269e-07
-7.05361419566e-07
-7.05360238796e-07
-7.05359374336e-07
-7.0535882537e-07
-7.0535863504e-07
-7.05358798703e-07
-7.05359316517e-07
-7.05360167466e-07
-7.05361331497e-07
-7.05362782481e-07
-7.05364329229e-07
-7.05366119624e-07
-7.05367107579e-07
-7.05365989176e-07
-7.05364584565e-07
-7.05363317698e-07
-7.05362327357e-07
-7.05361590329e-07
-7.0536113485e-07
-7.05360969489e-07
-7.05361108652e-07
-7.05361542585e-07
-7.05362257195e-07
-7.05363239386e-07
-7.05364499133e-07
-7.05365912937e-07
-7.05367181307e-07
-6.3966184835e-07
-6.39664449973e-07
-6.39666459938e-07
-6.39668394009e-07
-6.39670037811e-07
-6.39671301245e-07
-6.39672084594e-07
-6.39672356935e-07
-6.39672101815e-07
-6.39671341037e-07
-6.39670109638e-07
-6.39668459548e-07
-6.39666469695e-07
-6.396642978e-07
-6.39661903797e-07
-6.396644762e-07
-6.39666985554e-07
-6.39669052566e-07
-6.39671022623e-07
-6.39672716599e-07
-6.39674024983e-07
-6.39674842725e-07
-6.39675130248e-07
-6.39674867452e-07
-6.39674080131e-07
-6.39672806744e-07
-6.39671108522e-07
-6.39669077305e-07
-6.39666880644e-07
-6.39664550219e-07
-6.396637469e-07
-6.39665908956e-07
-6.39667777435e-07
-6.39669559506e-07
-6.39671113804e-07
-6.39672319302e-07
-6.39673076463e-07
-6.3967334331e-07
-6.3967309782e-07
-6.39672365564e-07
-6.39671186293e-07
-6.39669624596e-07
-6.39667778232e-07
-6.39665820738e-07
-6.39663798882e-07
-6.39662511002e-07
-6.39664434262e-07
-6.39666105232e-07
-6.39667721202e-07
-6.39669135846e-07
-6.39670236291e-07
-6.39670931005e-07
-6.39671175667e-07
-6.39670946616e-07
-6.39670267723e-07
-6.39669179568e-07
-6.39667748602e-07
-6.39666075197e-07
-6.39664326304e-07
-6.39662553335e-07
-6.39661531312e-07
-6.39663298824e-07
-6.39664820371e-07
-6.39666312017e-07
-6.39667618137e-07
-6.39668637532e-07
-6.39669283216e-07
-6.39669510087e-07
-6.39669293064e-07
-6.39668655508e-07
-6.39667637991e-07
-6.39666307799e-07
-6.39664765842e-07
-6.39663164213e-07
-6.39661555139e-07
-6.39660652499e-07
-6.39662268296e-07
-6.39663696098e-07
-6.39665083673e-07
-6.39666297024e-07
-6.39667244977e-07
-6.39667846937e-07
-6.39668057543e-07
-6.39667850689e-07
-6.39667249051e-07
-6.39666292207e-07
-6.39665047108e-07
-6.39663613642e-07
-6.39662126586e-07
-6.39660639349e-07
-6.39659737919e-07
-6.3966124786e-07
-6.39662601886e-07
-6.3966389791e-07
-6.39665032816e-07
-6.39665919197e-07
-6.39666482654e-07
-6.39666678234e-07
-6.39666480706e-07
-6.39665910743e-07
-6.39665007724e-07
-6.39663836238e-07
-6.39662493386e-07
-6.39661096654e-07
-6.39659699628e-07
-6.39658764507e-07
-6.39660209493e-07
-6.3966150424e-07
-6.39662730718e-07
-6.39663801609e-07
-6.39664634913e-07
-6.3966516368e-07
-6.39665345485e-07
-6.39665156135e-07
-6.39664614452e-07
-6.39663758348e-07
-6.39662649302e-07
-6.39661380275e-07
-6.39660052866e-07
-6.39658720889e-07
-6.39657739692e-07
-6.39659138311e-07
-6.39660389512e-07
-6.39661563163e-07
-6.39662581678e-07
-6.39663370598e-07
-6.39663869225e-07
-6.396640393e-07
-6.39663857076e-07
-6.39663340961e-07
-6.39662525596e-07
-6.39661469022e-07
-6.39660258178e-07
-6.39658981507e-07
-6.39657691742e-07
-6.39656645407e-07
-6.39658011897e-07
-6.39659238554e-07
-6.39660375142e-07
-6.39661353579e-07
-6.39662104834e-07
-6.39662577278e-07
-6.39662736403e-07
-6.39662561445e-07
-6.39662068262e-07
-6.39661288489e-07
-6.39660275233e-07
-6.39659108342e-07
-6.39657865418e-07
-6.39656600691e-07
-6.39655481011e-07
-6.39656833695e-07
-6.39658047866e-07
-6.39659158293e-07
-6.39660103395e-07
-6.39660822384e-07
-6.39661271276e-07
-6.39661420922e-07
-6.39661253535e-07
-6.3966078164e-07
-6.39660034499e-07
-6.39659057783e-07
-6.39657922021e-07
-6.39656698854e-07
-6.39655440452e-07
-6.3965425015e-07
-6.39655605718e-07
-6.39656817488e-07
-6.39657912201e-07
-6.39658829923e-07
-6.39659518676e-07
-6.39659946281e-07
-6.39660087421e-07
-6.39659927454e-07
-6.39659478286e-07
-6.39658760587e-07
-6.39657815508e-07
-6.3965669998e-07
-6.39655477861e-07
-6.39654205739e-07
-6.39652882208e-07
-6.39654296022e-07
-6.39655538715e-07
-6.39656633898e-07
-6.39657531412e-07
-6.39658199271e-07
-6.39658608112e-07
-6.39658742752e-07
-6.39658591542e-07
-6.39658159231e-07
-6.39657467225e-07
-6.39656543483e-07
-6.39655428846e-07
-6.39654175036e-07
-6.39652832108e-07
-6.39651391458e-07
-6.3965296047e-07
-6.3965422594e-07
-6.39655322686e-07
-6.39656206169e-07
-6.39656855059e-07
-6.39657253399e-07