/*--------------------------------*- C++ -*----------------------------------*\
  =========                 |
  \\      /  F ield         | OpenFOAM: The Open Source CFD Toolbox
   \\    /   O peration     | Website:  https://openfoam.org
    \\  /    A nd           | Version:  7
     \\/     M anipulation  |
\*---------------------------------------------------------------------------*/
FoamFile
{
    version     2.0;
    format      ascii;
    class       volScalarField;
    location    "2.28";
    object      p;
}
// * * * * * * * * * * * * * * * * * * * * * * * * * * * * * * * * * * * * * //

dimensions      [0 2 -2 0 0 0 0];

internalField   nonuniform List<scalar> 
22500
(
1.05969263201e-05
1.05954299665e-05
1.05950737552e-05
1.05944692259e-05
1.05940330989e-05
1.05936944099e-05
1.05934869887e-05
1.05934147329e-05
1.059349072e-05
1.05937017713e-05
1.05940439994e-05
1.05944832205e-05
1.05950905081e-05
1.05954478752e-05
1.0596945598e-05
1.05770905039e-05
1.05745800801e-05
1.05733731189e-05
1.05720258766e-05
1.05709862662e-05
1.05702034648e-05
1.0569724695e-05
1.05695619877e-05
1.05697286048e-05
1.05702111869e-05
1.05709976715e-05
1.05720405668e-05
1.05733906069e-05
1.05745988002e-05
1.05771105818e-05
1.05580864883e-05
1.05546538076e-05
1.05527266486e-05
1.05507313181e-05
1.05491751826e-05
1.05480121007e-05
1.05473016055e-05
1.05470614233e-05
1.05473053825e-05
1.05480195579e-05
1.05491861699e-05
1.05507454878e-05
1.05527435141e-05
1.05546719555e-05
1.05581062755e-05
1.05411935199e-05
1.05370038068e-05
1.05345041055e-05
1.05320049336e-05
1.05300484352e-05
1.05285931949e-05
1.05277052356e-05
1.05274058022e-05
1.05277087891e-05
1.05286002139e-05
1.05300587563e-05
1.05320182363e-05
1.05345199876e-05
1.05370209854e-05
1.0541212688e-05
1.0525470011e-05
1.052063573e-05
1.05176514302e-05
1.05147461208e-05
1.05124656973e-05
1.05107770223e-05
1.05097478264e-05
1.0509401419e-05
1.05097511709e-05
1.05107836261e-05
1.05124754005e-05
1.05147586199e-05
1.05176663827e-05
1.05206519614e-05
1.0525488435e-05
1.05106883298e-05
1.0505319401e-05
1.05019314711e-05
1.04987090319e-05
1.04961747798e-05
1.04943060981e-05
1.04931685695e-05
1.04927862717e-05
1.04931717037e-05
1.04943122914e-05
1.04961838725e-05
1.0498720745e-05
1.05019454728e-05
1.05053347144e-05
1.05107060266e-05
1.04968988151e-05
1.04911103469e-05
1.04873996151e-05
1.04839463715e-05
1.04812265422e-05
1.04792291652e-05
1.04780148011e-05
1.04776071941e-05
1.04780177428e-05
1.04792349783e-05
1.04812350736e-05
1.04839573625e-05
1.04874127467e-05
1.04911247703e-05
1.04969158229e-05
1.04841106679e-05
1.04780140003e-05
1.04740554376e-05
1.04704498292e-05
1.04676064984e-05
1.04655263537e-05
1.04642632489e-05
1.04638397477e-05
1.04642660161e-05
1.04655318195e-05
1.04676145228e-05
1.04704601677e-05
1.04740677809e-05
1.04780276351e-05
1.04841270833e-05
1.04722905239e-05
1.04659893627e-05
1.04618513374e-05
1.0458162791e-05
1.04552509716e-05
1.04531279587e-05
1.0451840417e-05
1.04514091417e-05
1.04518430358e-05
1.04531331318e-05
1.0455258567e-05
1.04581725891e-05
1.0461863024e-05
1.04660023666e-05
1.04723064635e-05
1.04613929493e-05
1.04549824656e-05
1.04507288882e-05
1.04470189642e-05
1.04440873314e-05
1.04419559473e-05
1.04406648482e-05
1.04402327537e-05
1.04406673476e-05
1.04419608865e-05
1.04440945886e-05
1.04470283386e-05
1.04507400745e-05
1.04549950174e-05
1.04614086322e-05
1.04513660928e-05
1.04449332577e-05
1.04406270912e-05
1.04369510621e-05
1.04340426735e-05
1.0431932629e-05
1.04306558434e-05
1.04302288728e-05
1.04306582551e-05
1.04319373971e-05
1.04340496904e-05
1.04369601491e-05
1.04406379493e-05
1.0444945561e-05
1.04513817394e-05
1.04421385032e-05
1.04357748259e-05
1.0431486654e-05
1.04278951258e-05
1.04250472747e-05
1.04229837095e-05
1.04217363439e-05
1.04213195546e-05
1.04217386963e-05
1.04229883741e-05
1.04250541534e-05
1.04279040694e-05
1.04314973741e-05
1.04357871017e-05
1.04421543288e-05
1.04335846591e-05
1.04274411021e-05
1.0423263385e-05
1.04197994438e-05
1.0417041348e-05
1.04150445541e-05
1.04138393087e-05
1.04134369919e-05
1.04138416359e-05
1.04150491656e-05
1.04170481869e-05
1.04198083872e-05
1.04232741712e-05
1.04274535961e-05
1.04336009092e-05
1.04256729046e-05
1.04199476146e-05
1.04159299072e-05
1.04126117856e-05
1.04099602312e-05
1.04080475325e-05
1.04068967004e-05
1.04065132894e-05
1.0406899017e-05
1.04080521431e-05
1.04099671125e-05
1.04126208769e-05
1.0415940973e-05
1.0419960621e-05
1.0425689737e-05
1.04193984491e-05
1.04131383943e-05
1.04092811373e-05
1.04060837411e-05
1.04035590956e-05
1.04017591209e-05
1.04006831205e-05
1.04003256928e-05
1.04006854572e-05
1.04017637776e-05
1.040356609e-05
1.0406093094e-05
1.04092927763e-05
1.0413152313e-05
1.04194156746e-05
8.27010888806e-06
8.27056467807e-06
8.27089130299e-06
8.27117585582e-06
8.27141036438e-06
8.27158571565e-06
8.27169488266e-06
8.27173143473e-06
8.2716931908e-06
8.27158249853e-06
8.27140604303e-06
8.2711711092e-06
8.27088642186e-06
8.27056024743e-06
8.27010504378e-06
8.27216132331e-06
8.27269221586e-06
8.27309706138e-06
8.27345274544e-06
8.27374719488e-06
8.2739673484e-06
8.2741042785e-06
8.27415032061e-06
8.2741025768e-06
8.27396411786e-06
8.2737428621e-06
8.27344799721e-06
8.27309232427e-06
8.27268786837e-06
8.2721576308e-06
8.27436636898e-06
8.27503086172e-06
8.27555118785e-06
8.27601633662e-06
8.27640491556e-06
8.27669678263e-06
8.27687871157e-06
8.27694016088e-06
8.27687707865e-06
8.27669367777e-06
8.27640072382e-06
8.27601166582e-06
8.27554653348e-06
8.27502646849e-06
8.27436269597e-06
8.27690883986e-06
8.27780679609e-06
8.27851635468e-06
8.27915717405e-06
8.27969637302e-06
8.28010312527e-06
8.28035714162e-06
8.28044322489e-06
8.28035560167e-06
8.28010018866e-06
8.27969236816e-06
8.27915261659e-06
8.27851175273e-06
8.27780238067e-06
8.27690517362e-06
8.28007365365e-06
8.28130944832e-06
8.28228390808e-06
8.28316618089e-06
8.28391022925e-06
8.28447223779e-06
8.28482319749e-06
8.28494230095e-06
8.28482175158e-06
8.28446947645e-06
8.28390643483e-06
8.28316180316e-06
8.28227941318e-06
8.2813050813e-06
8.28007003261e-06
8.28391874267e-06
8.2855770989e-06
8.28687296101e-06
8.28804361947e-06
8.28902959425e-06
8.28977358003e-06
8.29023753145e-06
8.29039500561e-06
8.29023619399e-06
8.28977102164e-06
8.28902605732e-06
8.28803948535e-06
8.28686865905e-06
8.28557280351e-06
8.28391526744e-06
8.28839012027e-06
8.29052758999e-06
8.29217782929e-06
8.29366081382e-06
8.29490583387e-06
8.2958430646e-06
8.2964262721e-06
8.29662411278e-06
8.2964250511e-06
8.29584072514e-06
8.29490258654e-06
8.29365697954e-06
8.29217379906e-06
8.29052346256e-06
8.28838683838e-06
8.29339280988e-06
8.29603545434e-06
8.29804989823e-06
8.29984692486e-06
8.30134931112e-06
8.30247676984e-06
8.30317656682e-06
8.30341373181e-06
8.30317547e-06
8.30247466636e-06
8.30134637922e-06
8.29984343357e-06
8.29804617774e-06
8.29603156987e-06
8.29338973527e-06
8.29881263935e-06
8.3019565687e-06
8.30432404591e-06
8.30641746514e-06
8.3081595181e-06
8.30946223497e-06
8.31026856579e-06
8.31054150872e-06
8.31026759243e-06
8.30946036804e-06
8.3081569085e-06
8.30641434066e-06
8.30432067724e-06
8.30195298174e-06
8.29880985475e-06
8.30452785224e-06
8.3081417627e-06
8.31083312439e-06
8.31318982357e-06
8.31514138368e-06
8.31659527455e-06
8.31749252295e-06
8.31779582373e-06
8.31749166858e-06
8.31659363613e-06
8.31513908998e-06
8.31318706555e-06
8.31083011931e-06
8.30813850527e-06
8.30452537867e-06
8.31041748736e-06
8.31444621726e-06
8.31741775779e-06
8.31999382518e-06
8.32211623478e-06
8.32369105765e-06
8.32465988426e-06
8.32498687143e-06
8.32465913648e-06
8.32368962423e-06
8.3221142301e-06
8.31999141653e-06
8.31741511808e-06
8.31444331776e-06
8.31041538538e-06
8.31636068093e-06
8.32073073743e-06
8.32392993094e-06
8.32667684828e-06
8.32892753685e-06
8.33059006323e-06
8.33160929089e-06
8.33195267824e-06
8.33160862935e-06
8.33058879853e-06
8.32892577152e-06
8.32667474087e-06
8.32392762528e-06
8.32072820734e-06
8.31635898106e-06
8.32223364273e-06
8.326868976e-06
8.33024375293e-06
8.3331129118e-06
8.3354478433e-06
8.33716332448e-06
8.33821082941e-06
8.33856301381e-06
8.33821022794e-06
8.33716217063e-06
8.33544624795e-06
8.33311102504e-06
8.33024171785e-06
8.32686676877e-06
8.32223230772e-06
8.32802166378e-06
8.3328587993e-06
8.33632111001e-06
8.33924286671e-06
8.34159897303e-06
8.34331874223e-06
8.34436429731e-06
8.34471501706e-06
8.34436372445e-06
8.34331764804e-06
8.34159745767e-06
8.33924110883e-06
8.33631925384e-06
8.33285689646e-06
8.32802059582e-06
8.33430346382e-06
8.33877402227e-06
8.34215454391e-06
8.34501034146e-06
8.34728248043e-06
8.34892874728e-06
8.34992520894e-06
8.35025870772e-06
8.34992466123e-06
8.3489276944e-06
8.34728102706e-06
8.34500866628e-06
8.34215286254e-06
8.33877249389e-06
8.33430261251e-06
8.75180994859e-06
8.75165433503e-06
8.75147990429e-06
8.75129104126e-06
8.75111787882e-06
8.75097998607e-06
8.75089169226e-06
8.75086137209e-06
8.75089232596e-06
8.7509811409e-06
8.75111932825e-06
8.75129260253e-06
8.75148206182e-06
8.75165667172e-06
8.75181297616e-06
8.75192613291e-06
8.75178042395e-06
8.75161332964e-06
8.75143031166e-06
8.75126143252e-06
8.7511262694e-06
8.75103940422e-06
8.75100950546e-06
8.75104007423e-06
8.75112749909e-06
8.75126299334e-06
8.75143202198e-06
8.75161555426e-06
8.75178293684e-06
8.75192928295e-06
8.75221873746e-06
8.75209174543e-06
8.75194285316e-06
8.75177419846e-06
8.75161660443e-06
8.75148931198e-06
8.75140703906e-06
8.75137863423e-06
8.75140770025e-06
8.75149053758e-06
8.75161819765e-06
8.75177599645e-06
8.75194510608e-06
8.7520943082e-06
8.75222192984e-06
8.75243542199e-06
8.75231589073e-06
8.75217677337e-06
8.75201537127e-06
8.7518634488e-06
8.75174004226e-06
8.75165998671e-06
8.75163229274e-06
8.75166062409e-06
8.75174123874e-06
8.75186505147e-06
8.75201723261e-06
8.7521790449e-06
8.75231842464e-06
8.75243867869e-06
8.75255658021e-06
8.7524368658e-06
8.75230182867e-06
8.75214355612e-06
8.75199445275e-06
8.75187317266e-06
8.75179441106e-06
8.75176714919e-06
8.75179502966e-06
8.75187434301e-06
8.75199604819e-06
8.75214544826e-06
8.75230412188e-06
8.75243937225e-06
8.752559898e-06
8.75262037046e-06
8.75249938945e-06
8.75236825451e-06
8.75221395323e-06
8.75206909174e-06
8.7519514357e-06
8.75187507356e-06
8.75184865046e-06
8.75187567107e-06
8.7519525752e-06
8.75207067168e-06
8.75221585978e-06
8.75237054719e-06
8.75250189924e-06
8.75262371001e-06
8.75265650395e-06
8.75253780464e-06
8.75241374179e-06
8.75226725778e-06
8.7521305153e-06
8.75201978154e-06
8.75194803327e-06
8.751923231e-06
8.75194861064e-06
8.75202088831e-06
8.75213206865e-06
8.75226916103e-06
8.75241602265e-06
8.75254031086e-06
8.75265988483e-06
8.75268754776e-06
8.75257762758e-06
8.75246566199e-06
8.75233229392e-06
8.75220862638e-06
8.7521088426e-06
8.75204433556e-06
8.75202206924e-06
8.7520448923e-06
8.75210991579e-06
8.75221015111e-06
8.75233419147e-06
8.75246793641e-06
8.75258013087e-06
8.75269099345e-06
8.75273249975e-06
8.75263927903e-06
8.75254506752e-06
8.75243031442e-06
8.7523246461e-06
8.75223970806e-06
8.75218494307e-06
8.75216607722e-06
8.7521854796e-06
8.75224074805e-06
8.75232613837e-06
8.75243219884e-06
8.75254733902e-06
8.75264178864e-06
8.75273600607e-06
8.75280608302e-06
8.75273737024e-06
8.75266600947e-06
8.75257448179e-06
8.75249082372e-06
8.7524238473e-06
8.75238079554e-06
8.75236600725e-06
8.75238131401e-06
8.75242485657e-06
8.75249228688e-06
8.7525763566e-06
8.75266828493e-06
8.75273990496e-06
8.75280965639e-06
8.75291782621e-06
8.7528798812e-06
8.75283494563e-06
8.75276966864e-06
8.75271059658e-06
8.75266355652e-06
8.752633452e-06
8.75262315941e-06
8.75263395233e-06
8.75266453458e-06
8.7527120281e-06
8.75277153021e-06
8.75283722244e-06
8.75288244366e-06
8.75292146598e-06
8.75307050274e-06
8.75306715621e-06
8.75305042152e-06
8.75301283765e-06
8.75297958709e-06
8.75295344485e-06
8.75293686674e-06
8.75293126661e-06
8.75293734656e-06
8.75295438894e-06
8.75298098275e-06
8.75301467703e-06
8.75305269264e-06
8.75306973299e-06
8.75307418176e-06
8.75326234682e-06
8.75329517316e-06
8.75330653241e-06
8.75329622384e-06
8.75328869035e-06
8.75328341944e-06
8.75328034246e-06
8.75327940728e-06
8.75328079885e-06
8.7532843217e-06
8.75329003426e-06
8.75329802313e-06
8.75330877624e-06
8.75329774878e-06
8.75326603795e-06
8.75351876152e-06
8.7535865423e-06
8.75361206684e-06
8.75362041553e-06
8.7536324102e-06
8.7536434439e-06
8.75365093972e-06
8.75365367443e-06
8.7536513698e-06
8.75364428975e-06
8.75363368725e-06
8.75362214436e-06
8.75361425512e-06
8.75358910615e-06
8.75352238727e-06
8.75398575945e-06
8.75396512235e-06
8.75396570015e-06
8.75397013387e-06
8.75398479133e-06
8.75399940871e-06
8.75400949373e-06
8.75401315157e-06
8.75400990333e-06
8.75400022312e-06
8.75398601903e-06
8.75397182072e-06
8.75396788569e-06
8.75396778182e-06
8.75398930607e-06
7.5730804075e-06
7.5731888532e-06
7.57331382293e-06
7.57343930418e-06
7.57355136365e-06
7.57363874519e-06
7.57369415226e-06
7.57371296916e-06
7.57369339148e-06
7.5736372844e-06
7.57354935725e-06
7.57343711038e-06
7.57331164268e-06
7.57318712868e-06
7.57307875626e-06
7.57316263746e-06
7.57326994985e-06
7.57339586853e-06
7.57352292786e-06
7.57363691154e-06
7.57372611102e-06
7.57378280756e-06
7.5738020972e-06
7.57378200591e-06
7.57372457282e-06
7.57363480708e-06
7.57352062491e-06
7.57339366466e-06
7.57326818068e-06
7.57316113123e-06
7.57311925489e-06
7.5732164493e-06
7.57333399707e-06
7.57345435694e-06
7.57356349108e-06
7.57364949534e-06
7.5737044062e-06
7.57372314922e-06
7.57370366003e-06
7.57364806431e-06
7.57356153448e-06
7.57345218799e-06
7.57333193917e-06
7.57321470262e-06
7.57311785593e-06
7.57306683887e-06
7.5731558085e-06
7.57326633969e-06
7.57338030611e-06
7.57348463052e-06
7.57356733296e-06
7.57362034438e-06
7.57363849429e-06
7.57361967661e-06
7.57356605406e-06
7.57348288275e-06
7.5733783493e-06
7.57326446406e-06
7.57315416463e-06
7.57306554109e-06
7.57302809624e-06
7.57311078013e-06
7.57321607067e-06
7.57332438554e-06
7.57342423792e-06
7.57350371933e-06
7.57355482334e-06
7.57357236035e-06
7.57355422312e-06
7.57350257217e-06
7.57342266636e-06
7.57332261888e-06
7.57321434882e-06
7.57310925049e-06
7.57302690739e-06
7.57299336702e-06
7.57307033596e-06
7.57317094104e-06
7.57327357179e-06
7.5733686712e-06
7.57344461165e-06
7.57349355675e-06
7.57351039055e-06
7.57349302698e-06
7.57344359953e-06
7.57336728607e-06
7.5732720035e-06
7.57316940295e-06
7.57306889782e-06
7.57299234458e-06
7.57295733935e-06
7.5730288183e-06
7.57312519187e-06
7.57322211661e-06
7.57331226813e-06
7.57338443801e-06
7.57343104536e-06
7.5734471066e-06
7.57343058136e-06
7.57338355093e-06
7.57331105418e-06
7.57322073212e-06
7.57312383042e-06
7.57302748507e-06
7.57295646813e-06
7.57291936769e-06
7.57298592938e-06
7.57307877915e-06
7.57317033173e-06
7.57325570681e-06
7.57332418603e-06
7.57336848464e-06
7.57338377577e-06
7.57336808522e-06
7.57332342291e-06
7.57325465951e-06
7.57316912886e-06
7.57307757577e-06
7.57298470959e-06
7.57291861274e-06
7.57288020626e-06
7.57294301278e-06
7.5730332971e-06
7.57312020458e-06
7.57320131242e-06
7.57326645875e-06
7.57330865103e-06
7.57332323412e-06
7.57330830937e-06
7.57326580597e-06
7.57320041367e-06
7.57311916461e-06
7.5730322377e-06
7.57294189858e-06
7.57287957865e-06
7.57284131731e-06
7.57290206665e-06
7.57299089505e-06
7.57307410319e-06
7.57315165243e-06
7.57321398631e-06
7.57325437754e-06
7.57326835018e-06
7.57325408706e-06
7.57321343142e-06
7.57315088691e-06
7.57307320742e-06
7.57298996213e-06
7.57290104314e-06
7.57284079947e-06
7.57280452874e-06
7.57286538572e-06
7.57295384056e-06
7.57303430614e-06
7.57310903564e-06
7.57316909211e-06
7.57320799814e-06
7.57322145743e-06
7.57320775018e-06
7.57316861955e-06
7.57310838102e-06
7.57303353624e-06
7.57295302211e-06
7.5728644585e-06
7.57280412888e-06
7.57277102866e-06
7.57283452888e-06
7.57292360388e-06
7.57300227905e-06
7.57307495543e-06
7.57313329192e-06
7.57317102342e-06
7.57318406693e-06
7.5731708102e-06
7.57313288525e-06
7.57307439319e-06
7.57300161342e-06
7.57292288851e-06
7.572833704e-06
7.57277075893e-06
7.57274044065e-06
7.57280924406e-06
7.57290006781e-06
7.57297815988e-06
7.57304992721e-06
7.57310734951e-06
7.57314436345e-06
7.57315712435e-06
7.57314417567e-06
7.57310699406e-06
7.57304943203e-06
7.57297757935e-06
7.57289944046e-06
7.57280852078e-06
7.57274029254e-06
7.57272497463e-06
7.57280201646e-06
7.57289054162e-06
7.57296639546e-06
7.57303638477e-06
7.57309215883e-06
7.57312789482e-06
7.57314017225e-06
7.57312772787e-06
7.57309183492e-06
7.5730359396e-06
7.57296587266e-06
7.57288998778e-06
7.57280140209e-06
7.57272494982e-06
7.5728469778e-06
7.57288328926e-06
7.572939313e-06
7.57299118004e-06
7.5730425459e-06
7.57308405528e-06
7.57311072455e-06
7.57311987913e-06
7.57311057876e-06
7.57308377907e-06
7.57304216068e-06
7.57299073843e-06
7.57293886828e-06
7.57288284042e-06
7.57284699439e-06
7.4589567989e-06
7.45888848907e-06
7.45881080228e-06
7.45872943626e-06
7.45865552097e-06
7.45859680367e-06
7.4585592709e-06
7.4585463429e-06
7.45855933198e-06
7.45859682634e-06
7.45865531406e-06
7.45872901759e-06
7.45881043713e-06
7.45888789268e-06
7.45895659368e-06
7.45895273583e-06
7.45888723119e-06
7.45881112988e-06
7.45873068559e-06
7.45865718931e-06
7.45859859033e-06
7.45856101903e-06
7.45854805019e-06
7.4585610929e-06
7.45859864096e-06
7.45865703303e-06
7.45873031066e-06
7.45881078571e-06
7.45888675694e-06
7.45895261358e-06
7.45902816157e-06
7.45897034396e-06
7.4589013165e-06
7.45882640103e-06
7.45875718325e-06
7.45870154861e-06
7.45866568974e-06
7.45865327243e-06
7.45866576218e-06
7.45870161201e-06
7.45875708137e-06
7.45882610747e-06
7.45890100858e-06
7.45896993921e-06
7.45902805462e-06
7.4590992553e-06
7.4590465982e-06
7.45898287803e-06
7.45891220574e-06
7.45884629162e-06
7.45879295315e-06
7.45875841058e-06
7.4587464161e-06
7.45875847642e-06
7.45879302197e-06
7.45884624205e-06
7.45891198834e-06
7.45898260962e-06
7.45904620787e-06
7.45909917533e-06
7.45915224099e-06
7.45910233817e-06
7.45904203619e-06
7.45897423253e-06
7.45891059816e-06
7.45885885579e-06
7.45882523184e-06
7.4588135344e-06
7.45882529245e-06
7.45885892557e-06
7.4589105772e-06
7.45897406453e-06
7.45904180402e-06
7.45910194645e-06
7.45915219604e-06
7.45919405385e-06
7.45914560021e-06
7.45908784761e-06
7.45902231159e-06
7.45896059486e-06
7.45891026716e-06
7.45887748455e-06
7.45886606505e-06
7.45887753759e-06
7.45891033179e-06
7.4589605918e-06
7.45902217853e-06
7.45908763796e-06
7.45914523882e-06
7.45919401267e-06
7.45922891742e-06
7.45918131902e-06
7.45912570182e-06
7.45906224932e-06
7.45900243749e-06
7.4589536034e-06
7.45892175511e-06
7.4589106539e-06
7.45892179983e-06
7.45895365837e-06
7.45900243795e-06
7.45906213615e-06
7.45912550215e-06
7.45918097893e-06
7.45922890433e-06
7.45925893672e-06
7.45921200901e-06
7.45915842271e-06
7.45909715549e-06
7.4590394752e-06
7.45899240613e-06
7.4589617064e-06
7.45895100507e-06
7.4589617416e-06
7.45899244869e-06
7.45903947446e-06
7.45909705984e-06
7.45915824246e-06
7.4592116926e-06
7.45925898292e-06
7.45928609525e-06
7.45924000029e-06
7.45918862849e-06
7.45912988769e-06
7.45907477033e-06
7.45902989913e-06
7.45900066797e-06
7.45899048464e-06
7.45900069374e-06
7.45902992861e-06
7.45907476347e-06
7.45912980256e-06
7.45918846969e-06
7.45923971193e-06
7.45928620377e-06
7.45931238962e-06
7.4592675741e-06
7.45921880384e-06
7.45916309545e-06
7.45911113198e-06
7.45906902067e-06
7.45904165805e-06
7.4590321399e-06
7.45904167631e-06
7.45906903901e-06
7.45911112183e-06
7.45916302521e-06
7.4592186749e-06
7.45926733103e-06
7.45931256781e-06
7.45933957814e-06
7.4592966597e-06
7.45925094024e-06
7.45919883842e-06
7.45915070806e-06
7.45911199145e-06
7.45908694884e-06
7.4590782569e-06
7.45908696077e-06
7.45911200163e-06
7.45915069511e-06
7.45919878386e-06
7.45925084071e-06
7.45929646483e-06
7.45933982993e-06
7.45936896297e-06
7.4593284621e-06
7.45928612208e-06
7.45923818943e-06
7.45919461864e-06
7.45915999676e-06
7.45913775722e-06
7.45913006982e-06
7.45913776465e-06
7.45916000066e-06
7.45919460915e-06
7.45923815081e-06
7.45928605448e-06
7.45932830827e-06
7.45936927455e-06
7.45940231331e-06
7.45936399683e-06
7.45932486693e-06
7.45928142347e-06
7.45924307945e-06
7.45921318981e-06
7.45919421578e-06
7.45918768523e-06
7.45919421973e-06
7.45921319496e-06
7.45924307025e-06
7.4592814057e-06
7.45932482762e-06
7.45936388543e-06
7.45940268015e-06
7.4594442536e-06
7.4594069996e-06
7.45936929769e-06
7.45932973687e-06
7.45929653994e-06
7.45927140297e-06
7.45925566817e-06
7.45925030513e-06
7.45925567508e-06
7.45927140527e-06
7.45929654377e-06
7.45932973098e-06
7.45936928863e-06
7.45940692689e-06
7.45944465448e-06
7.45949437039e-06
7.45945344295e-06
7.45941483833e-06
7.45937905002e-06
7.45935102638e-06
7.45933037912e-06
7.4593176417e-06
7.45931332895e-06
7.45931765696e-06
7.45933040771e-06
7.45935105927e-06
7.45937909653e-06
7.459414894e-06
7.45945346215e-06
7.45949474954e-06
6.68138458524e-06
6.68142723063e-06
6.68147578263e-06
6.68152545829e-06
6.68157007791e-06
6.68160510035e-06
6.68162730235e-06
6.68163472564e-06
6.68162662582e-06
6.68160380418e-06
6.6815682837e-06
6.68152334034e-06
6.68147346674e-06
6.68142503148e-06
6.68138217672e-06
6.68140610327e-06
6.68144794148e-06
6.68149642461e-06
6.68154634361e-06
6.68159138075e-06
6.68162684617e-06
6.68164938097e-06
6.68165692739e-06
6.68164867865e-06
6.68162550177e-06
6.68158952735e-06
6.68154417312e-06
6.68149410125e-06
6.68144571844e-06
6.68140381228e-06
6.68137815894e-06
6.68141581334e-06
6.68146057189e-06
6.68150762591e-06
6.68155053776e-06
6.68158459513e-06
6.68160634223e-06
6.68161365211e-06
6.68160567893e-06
6.68158332382e-06
6.68154877971e-06
6.68150554553e-06
6.68145834486e-06
6.68141359229e-06
6.68137593353e-06
6.68134872982e-06
6.68138326545e-06
6.68142506879e-06
6.68146967116e-06
6.68151075627e-06
6.68154358851e-06
6.68156464945e-06
6.6815717567e-06
6.68156403805e-06
6.68154241423e-06
6.6815091254e-06
6.68146772468e-06
6.68142295963e-06
6.68138111262e-06
6.68134655486e-06
6.6813269869e-06
6.68135955182e-06
6.68139933446e-06
6.68144206327e-06
6.68148171359e-06
6.68151355428e-06
6.68153405384e-06
6.68154099241e-06
6.6815334869e-06
6.68151246415e-06
6.68148019095e-06
6.68144023333e-06
6.68139731863e-06
6.68135747206e-06
6.68132487098e-06
6.68130919632e-06
6.68134035485e-06
6.68137845979e-06
6.6814195066e-06
6.68145777619e-06
6.68148861477e-06
6.68150852169e-06
6.68151527762e-06
6.68150799774e-06
6.68148760524e-06
6.68145636073e-06
6.68141779463e-06
6.68137655952e-06
6.6813383317e-06
6.68130718963e-06
6.68129309618e-06
6.68132305281e-06
6.68135964862e-06
6.68139901628e-06
6.68143581826e-06
6.68146554045e-06
6.68148476175e-06
6.68149129823e-06
6.68148427772e-06
6.68146460523e-06
6.68143450094e-06
6.68139740974e-06
6.6813578542e-06
6.6813210911e-06
6.68129118839e-06
6.68127781468e-06
6.68130663876e-06
6.68134180384e-06
6.68137942207e-06
6.68141462856e-06
6.68144309046e-06
6.68146151692e-06
6.68146779101e-06
6.6814610703e-06
6.68144222569e-06
6.68141340395e-06
6.68137791727e-06
6.68134010446e-06
6.68130474892e-06
6.68127598367e-06
6.68126268083e-06
6.68129042123e-06
6.68132415361e-06
6.68135992123e-06
6.68139337706e-06
6.68142042018e-06
6.68143793346e-06
6.68144389964e-06
6.68143752023e-06
6.6814196183e-06
6.68139223445e-06
6.68135850578e-06
6.68132253625e-06
6.68128859547e-06
6.68126094259e-06
6.68124717032e-06
6.68127383004e-06
6.68130608886e-06
6.68133989404e-06
6.68137143986e-06
6.68139691006e-06
6.6814133936e-06
6.68141900872e-06
6.68141301073e-06
6.68139616424e-06
6.68137037236e-06
6.68133855893e-06
6.68130454539e-06
6.68127206086e-06
6.68124551902e-06
6.68123090593e-06
6.68125652314e-06
6.68128727849e-06
6.68131902039e-06
6.68134851474e-06
6.68137226483e-06
6.68138761197e-06
6.68139283297e-06
6.68138725498e-06
6.68137156844e-06
6.68134751155e-06
6.68131775848e-06
6.6812858035e-06
6.68125481633e-06
6.68122935538e-06
6.68121360668e-06
6.68123832998e-06
6.6812676163e-06
6.68129726463e-06
6.68132461125e-06
6.68134653984e-06
6.68136066141e-06
6.68136545692e-06
6.68136032755e-06
6.68134588488e-06
6.68132366817e-06
6.68129606736e-06
6.68126620829e-06
6.68123669325e-06
6.68121216993e-06
6.68119460202e-06
6.68121882513e-06
6.68124693494e-06
6.68127467045e-06
6.68129997588e-06
6.68132009733e-06
6.68133299665e-06
6.68133735219e-06
6.68133268145e-06
6.6813194846e-06
6.68129908115e-06
6.68127353922e-06
6.68124559223e-06
6.68121726589e-06
6.68119328411e-06
6.68117480507e-06
6.68119945768e-06
6.6812262935e-06
6.68125213535e-06
6.68127534662e-06
6.68129360586e-06
6.68130519841e-06
6.68130909734e-06
6.68130490507e-06
6.68129302363e-06
6.68127450659e-06
6.68125105802e-06
6.68122502099e-06
6.68119798311e-06
6.68117363608e-06
6.68117989006e-06
6.68119747804e-06
6.6812177062e-06
6.68123713481e-06
6.68125462124e-06
6.68126827483e-06
6.68127689531e-06
6.68127976092e-06
6.68127661975e-06
6.68126773593e-06
6.68125383092e-06
6.68123612674e-06
6.68121650644e-06
6.68119608709e-06
6.68117875251e-06
6.31945008514e-06
6.3194243542e-06
6.31939418687e-06
6.31936272607e-06
6.31933432692e-06
6.31931189386e-06
6.31929752675e-06
6.31929253782e-06
6.31929743803e-06
6.31931170675e-06
6.31933402227e-06
6.31936221285e-06
6.31939336973e-06
6.31942316237e-06
6.31944919584e-06
6.31944466021e-06
6.31941978621e-06
6.31939007362e-06
6.31935882838e-06
6.31933046641e-06
6.31930797223e-06
6.31929352891e-06
6.31928850506e-06
6.31929344773e-06
6.31930779989e-06
6.31933017588e-06
6.31935832683e-06
6.31938926011e-06
6.31941864165e-06
6.31944377575e-06
6.31946836911e-06
6.31944616464e-06
6.3194189649e-06
6.31938967475e-06
6.31936278046e-06
6.31934127449e-06
6.3193273986e-06
6.31932255806e-06
6.31932731745e-06
6.31934110016e-06
6.31936248408e-06
6.31938917457e-06
6.3194181633e-06
6.3194450929e-06
6.31946749156e-06
6.31949116974e-06
6.31947082094e-06
6.31944550199e-06
6.31941776587e-06
6.31939203038e-06
6.31937130297e-06
6.31935787422e-06
6.31935317795e-06
6.31935778856e-06
6.31937111674e-06
6.31939171123e-06
6.31941724414e-06
6.31944470609e-06
6.31946977135e-06
6.31949031421e-06
6.31950799209e-06
6.31948870408e-06
6.31946461147e-06
6.31943797857e-06
6.31941308593e-06
6.31939293855e-06
6.31937984511e-06
6.31937525705e-06
6.31937975316e-06
6.31939273897e-06
6.31941274561e-06
6.31943743573e-06
6.31946381899e-06
6.3194876588e-06
6.31950715066e-06
6.3195214063e-06
6.31950275139e-06
6.31947962622e-06
6.31945393319e-06
6.31942980598e-06
6.3194102146e-06
6.31939745411e-06
6.31939297511e-06
6.31939735315e-06
6.31940999669e-06
6.31942943834e-06
6.31945336267e-06
6.31947882724e-06
6.31950173132e-06
6.3195205509e-06
6.31953294307e-06
6.31951477224e-06
6.31949248765e-06
6.31946769791e-06
6.31944437009e-06
6.31942539526e-06
6.31941301957e-06
6.31940866939e-06
6.31941290938e-06
6.31942515952e-06
6.31944397882e-06
6.31946710661e-06
6.31949167968e-06
6.31951377348e-06
6.31953209439e-06
6.31954330327e-06
6.31952557823e-06
6.31950408201e-06
6.31948024345e-06
6.31945780678e-06
6.31943954981e-06
6.31942763564e-06
6.31942344316e-06
6.31942751591e-06
6.31943929634e-06
6.31945739427e-06
6.31947963918e-06
6.31950328007e-06
6.31952460496e-06
6.31954249306e-06
6.31955307702e-06
6.31953581092e-06
6.31951512165e-06
6.31949232652e-06
6.31947090991e-06
6.31945350375e-06
6.31944214889e-06
6.31943815133e-06
6.31944202163e-06
6.31945323746e-06
6.31947048465e-06
6.31949171913e-06
6.31951433691e-06
6.31953487085e-06
6.31955231182e-06
6.31956276278e-06
6.31954600577e-06
6.31952618867e-06
6.31950456055e-06
6.31948432529e-06
6.3194679236e-06
6.31945723979e-06
6.31945347799e-06
6.31945710766e-06
6.31946765008e-06
6.31948389599e-06
6.31950396394e-06
6.31952543584e-06
6.31954511686e-06
6.3195620559e-06
6.31957272683e-06
6.31955653492e-06
6.31953766323e-06
6.31951733726e-06
6.31949845682e-06
6.31948322824e-06
6.3194733363e-06
6.31946985599e-06
6.31947320342e-06
6.31948295462e-06
6.31949803443e-06
6.31951676212e-06
6.31953694987e-06
6.31955570292e-06
6.31957208597e-06
6.31958319259e-06
6.31956755212e-06
6.31954966806e-06
6.31953077328e-06
6.31951342831e-06
6.31949954695e-06
6.31949057393e-06
6.31948742187e-06
6.31949044378e-06
6.31949928271e-06
6.31951302265e-06
6.31953023105e-06
6.31954900405e-06
6.31956677546e-06
6.3195826151e-06
6.31959448939e-06
6.3195792055e-06
6.31956223902e-06
6.31954482312e-06
6.31952913672e-06
6.31951674276e-06
6.31950878799e-06
6.31950600434e-06
6.31950866638e-06
6.31951649289e-06
6.31952875943e-06
6.31954432177e-06
6.31956162822e-06
6.31957848855e-06
6.31959397938e-06
6.31960671626e-06
6.31959139024e-06
6.31957522549e-06
6.31955929368e-06
6.31954534861e-06
6.31953451867e-06
6.3195276436e-06
6.31952524826e-06
6.31952753367e-06
6.31953429375e-06
6.31954500664e-06
6.31955884308e-06
6.31957467416e-06
6.3195907351e-06
6.31960627515e-06
6.31961128541e-06
6.31959754242e-06
6.31958383632e-06
6.31957097887e-06
6.31956005653e-06
6.31955170922e-06
6.31954645443e-06
6.31954463239e-06
6.31954636181e-06
6.31955151892e-06
6.31955976613e-06
6.31957059373e-06
6.31958336005e-06
6.31959695835e-06
6.31961087278e-06
5.71240184388e-06
5.71241604447e-06
5.71243254485e-06
5.71244954882e-06
5.71246487504e-06
5.71247694558e-06
5.71248462312e-06
5.71248717307e-06
5.71248431014e-06
5.71247631886e-06
5.71246393521e-06
5.71244836131e-06
5.71243121088e-06
5.71241482487e-06
5.7124005969e-06
5.71240537716e-06
5.71241927815e-06
5.71243561028e-06
5.71245257955e-06
5.71246794614e-06
5.7124800946e-06
5.71248784137e-06
5.71249041619e-06
5.71248751483e-06
5.71247944144e-06
5.71246696886e-06
5.71245134558e-06
5.71243423733e-06
5.71241799552e-06
5.7124041886e-06
5.7123936493e-06
5.71240619311e-06
5.71242124388e-06
5.71243727009e-06
5.71245194198e-06
5.71246363974e-06
5.71247113175e-06
5.71247362864e-06
5.71247081409e-06
5.71246300577e-06
5.71245099981e-06
5.71243607531e-06
5.71241991606e-06
5.71240488967e-06
5.71239246952e-06
5.71238240638e-06
5.71239397426e-06
5.71240806873e-06
5.71242333007e-06
5.7124374509e-06
5.7124487931e-06
5.71245608663e-06
5.71245852435e-06
5.71245578237e-06
5.71244818732e-06
5.71243655477e-06
5.71242218707e-06
5.71240677679e-06
5.71239267236e-06
5.71238119455e-06
5.71237425604e-06
5.71238525946e-06
5.71239873127e-06