/*--------------------------------*- C++ -*----------------------------------*\
  =========                 |
  \\      /  F ield         | OpenFOAM: The Open Source CFD Toolbox
   \\    /   O peration     | Website:  https://openfoam.org
    \\  /    A nd           | Version:  7
     \\/     M anipulation  |
\*---------------------------------------------------------------------------*/
FoamFile
{
    version     2.0;
    format      ascii;
    class       volVectorField;
    location    "2.28";
    object      U;
}
// * * * * * * * * * * * * * * * * * * * * * * * * * * * * * * * * * * * * * //

dimensions      [0 1 -1 0 0 0 0];

internalField   nonuniform List<vector> 
22500
(
(1.06451295846e-05 1.19067210484e-05 0.00015561620264)
(9.93684209222e-06 1.34113783103e-05 0.000163419515073)
(8.72992180594e-06 1.49394300917e-05 0.000170547964215)
(7.3584742952e-06 1.6248337696e-05 0.000176710602009)
(5.73183119515e-06 1.73369092927e-05 0.000181706508004)
(3.92946407582e-06 1.81487186993e-05 0.000185382303327)
(1.99759897086e-06 1.86503648741e-05 0.000187632666024)
(-1.52133684874e-09 1.88201955241e-05 0.00018839440702)
(-2.00058997263e-06 1.86502169569e-05 0.000187632647795)
(-3.93231100093e-06 1.81484440477e-05 0.000185382264018)
(-5.73442132229e-06 1.73365667238e-05 0.000181706448115)
(-7.36069690718e-06 1.62479826778e-05 0.000176710518088)
(-8.73161769162e-06 1.49391913343e-05 0.000170547791351)
(-9.93801658708e-06 1.34112223985e-05 0.000163418796153)
(-1.0645654391e-05 1.19066578361e-05 0.000155612741202)
(3.10078581753e-05 3.47102923008e-05 0.000411809879577)
(2.88754789916e-05 3.90145472528e-05 0.000429679754044)
(2.54365543583e-05 4.33387864436e-05 0.000445849981062)
(2.14150302929e-05 4.70734334677e-05 0.00045971576133)
(1.6685991618e-05 5.01787076061e-05 0.000470876001836)
(1.143740472e-05 5.24959166016e-05 0.00047904187836)
(5.8140539646e-06 5.39288454596e-05 0.000484021672339)
(-3.96651245985e-09 5.44138916721e-05 0.000485701577715)
(-5.82186568165e-06 5.39285776528e-05 0.000484021571223)
(-1.1444864698e-05 5.24954290928e-05 0.000479041678594)
(-1.66928399594e-05 5.01781243924e-05 0.000470875721377)
(-2.14209843909e-05 4.70728708291e-05 0.000459715411787)
(-2.54412645193e-05 4.33384854721e-05 0.000445849393227)
(-2.88788935556e-05 3.90143947199e-05 0.000429677630115)
(-3.10095643882e-05 3.47103004753e-05 0.000411801236479)
(4.68614148379e-05 5.23652022393e-05 0.000621797651185)
(4.34175581242e-05 5.85543424757e-05 0.000645818528106)
(3.8170437794e-05 6.47197745075e-05 0.000667367967967)
(3.20423383007e-05 7.00331888867e-05 0.00068571987355)
(2.4917850691e-05 7.44343133815e-05 0.000700402710471)
(1.70537449316e-05 7.77106030844e-05 0.000711096253774)
(8.66090851683e-06 7.97334390952e-05 0.000717595906312)
(-5.86835848018e-09 8.04176335051e-05 0.000719782743857)
(-8.67248408699e-06 7.97332275415e-05 0.000717595757732)
(-1.70648454436e-05 7.77102379245e-05 0.000711095969958)
(-2.49281317647e-05 7.44339348982e-05 0.000700402337845)
(-3.20514207165e-05 7.0032934651e-05 0.000685719455781)
(-3.81778522451e-05 6.47198619618e-05 0.000667367308759)
(-4.34231814005e-05 5.85545615314e-05 0.000645815856074)
(-4.6864533547e-05 5.23654868572e-05 0.00062178608038)
(5.91662040893e-05 6.59857652078e-05 0.000794348767845)
(5.45515720908e-05 7.33650906641e-05 0.000821725121573)
(4.78343115569e-05 8.06763980318e-05 0.000846064544766)
(4.00345958984e-05 8.69471835324e-05 0.000866649777898)
(3.1066069219e-05 9.2120868024e-05 0.000883021886343)
(2.12265938749e-05 9.59609361772e-05 0.000894890583278)
(1.07692658643e-05 9.83273715653e-05 0.000902080684978)
(-7.32436597651e-09 9.91269782896e-05 0.000904494088496)
(-1.07837249944e-05 9.83272205382e-05 0.000902080582952)
(-2.12404878398e-05 9.59606949949e-05 0.000894890409446)
(-3.10789952592e-05 9.21206744621e-05 0.000883021725533)
(-4.00461250646e-05 8.69471802438e-05 0.00086664972802)
(-4.78439215845e-05 8.06767651393e-05 0.000846064470613)
(-5.45591002079e-05 7.33655514655e-05 0.000821723147324)
(-5.91707395723e-05 6.59862224454e-05 0.00079433719495)
(6.86173420535e-05 7.6396846113e-05 0.000936148002645)
(6.29787688662e-05 8.44366229025e-05 0.000964861591085)
(5.50687831443e-05 9.23735774967e-05 0.000990146190176)
(4.59539703821e-05 9.91435053473e-05 0.00101137604798)
(3.55823875852e-05 0.000104706031323 0.0010281569517)
(2.42727594561e-05 0.000108822198945 0.00104026324425)
(1.23024403109e-05 0.000111353724359 0.00104757208256)
(-8.43012431148e-09 0.000112208209202 0.00105001980097)
(-1.23190895533e-05 0.000111353606059 0.00104757211637)
(-2.42887774105e-05 0.000108822022143 0.00104026336588)
(-3.55973328315e-05 0.000104705924262 0.00102815729757)
(-4.59673906711e-05 9.91436050498e-05 0.00101137680182)
(-5.50801571974e-05 9.23740448573e-05 0.000990147364431)
(-6.29879146701e-05 8.44371323019e-05 0.000964861424305)
(-6.86232468454e-05 7.6397318718e-05 0.000936138600929)
(7.5591775499e-05 8.40285343591e-05 0.0010524517451)
(6.9075630531e-05 9.2290635772e-05 0.0010810499869)
(6.0219016985e-05 0.000100428051166 0.00110597599049)
(5.01033062881e-05 0.000107328528006 0.00112674309215)
(3.87102245015e-05 0.000112973241989 0.00114305110993)
(2.63630623545e-05 0.000117137264318 0.00115475571522)
(1.33485131987e-05 0.000119692901678 0.00116179627627)
(-9.26635892138e-09 0.000120554597124 0.00116414888114)
(-1.33668205451e-05 0.000119692782942 0.00116179651413)
(-2.63806938791e-05 0.000117137083385 0.00115475627599)
(-3.87267172535e-05 0.000112973115368 0.00114305219726)
(-5.01182025644e-05 0.000107328583731 0.0011267450108)
(-6.02318319818e-05 0.0001004284339 0.00110597896978)
(-6.90861849495e-05 9.22910017364e-05 0.00108105246194)
(-7.55989757012e-05 8.40288389218e-05 0.00105244574584)
(8.03972862888e-05 8.92222026197e-05 0.00114749955246)
(7.31475815364e-05 9.73470322505e-05 0.00117495680506)
(6.35676645242e-05 0.000105337892482 0.00119862796994)
(5.27305677863e-05 0.000112073089709 0.00121818705691)
(4.064903464e-05 0.000117556430977 0.00123343949488)
(2.76375146204e-05 0.000121588657583 0.00124432607388)
(1.39796742793e-05 0.000124058135471 0.00125084901523)
(-9.90555758501e-09 0.000124889873839 0.00125302371221)
(-1.39992506656e-05 0.000124057973214 0.00125084949964)
(-2.76563882648e-05 0.0001215883868 0.00124432716553)
(-4.06667340032e-05 0.000117556155561 0.00123344148074)
(-5.27466427675e-05 0.000112072931468 0.0012181903947)
(-6.35816782513e-05 0.00010533798462 0.00119863314945)
(-7.31593770762e-05 9.7347045321e-05 0.00117496243687)
(-8.04057046652e-05 8.922214003e-05 0.00114749753379)
(8.33276083105e-05 9.23062129657e-05 0.00122477735727)
(7.54835538001e-05 0.000100008888901 0.0012503978356)
(6.53822374707e-05 0.000107578042287 0.00127223157821)
(5.40697892491e-05 0.000113917783039 0.00129011534409)
(4.15866841558e-05 0.000119053125619 0.00130395800596)
(2.8227744684e-05 0.000122817631045 0.00131377989545)
(1.4263699209e-05 0.000125118272938 0.00131964027853)
(-1.04109692935e-08 0.000125892311325 0.00132158950809)
(-1.42842814541e-05 0.00012511802118 0.00131964102201)
(-2.82476120863e-05 0.000122817177405 0.00131378154822)
(-4.1605366398e-05 0.000119052564842 0.00130396095138)
(-5.40868505043e-05 0.000113917233167 0.00129012021593)
(-6.53972937432e-05 0.000107577635652 0.00127223914202)
(-7.54964658453e-05 0.000100008325761 0.00125040678799)
(-8.33371676314e-05 9.23055779567e-05 0.00122477937576)
(8.46523707332e-05 9.35842598788e-05 0.00128719321436)
(7.63458403227e-05 0.000100645691554 0.001310539196)
(6.5904630493e-05 0.000107580067477 0.00133019649671)
(5.43320398641e-05 0.000113349861703 0.0013461518898)
(4.16922075032e-05 0.000117998934262 0.00135840532437)
(2.82519152957e-05 0.000121396817118 0.00136704470271)
(1.4261329393e-05 0.000123469262875 0.00137217643071)
(-1.08398611836e-08 0.000124165808938 0.0013738791318)
(-1.42827687643e-05 0.000123468876508 0.00137217740953)
(-2.8272639875e-05 0.000121396090018 0.00136704687089)
(-4.17117555911e-05 0.000117997955212 0.00135840916755)
(-5.43499921359e-05 0.000113348749881 0.00134615822767)
(-6.59206502731e-05 0.000107578963059 0.00133020636022)
(-7.63597926757e-05 0.000100644344883 0.00131055123729)
(-8.46630016259e-05 9.35828513355e-05 0.00128719884166)
(8.46138639966e-05 9.33307800712e-05 0.00133719847356)
(7.59672347206e-05 9.95868089061e-05 0.00135803506288)
(6.53484752963e-05 0.000105724564242 0.00137536579065)
(5.37034935416e-05 0.000110795514415 0.00138930319272)
(4.11144145402e-05 0.000114859974558 0.00139991914114)
(2.78137701582e-05 0.00011782281194 0.00140735367029)
(1.40257825993e-05 0.000119626790191 0.00141174854352)
(-1.1242726245e-08 0.00012023253734 0.00141320300373)
(-1.40480310786e-05 0.000119626232566 0.00141174968666)
(-2.78353151389e-05 0.000117821738249 0.00140735620713)
(-4.11348066361e-05 0.000114858468373 0.00139992365353)
(-5.37223297505e-05 0.000110793700382 0.00138931067974)
(-6.53654538266e-05 0.00010572259773 0.00137537751948)
(-7.59822074877e-05 9.95845026432e-05 0.00135804949079)
(-8.46255264778e-05 9.33284203542e-05 0.00133720675225)
(8.34294929605e-05 9.17948490061e-05 0.00137687417621)
(7.45537112844e-05 9.7123836241e-05 0.00139512660715)
(6.39022969465e-05 0.000102343466115 0.00141012609454)
(5.23485256248e-05 0.000106623774748 0.00142207717138)
(3.99843012894e-05 0.000110038381928 0.00143110152078)
(2.70041804016e-05 0.000112522755288 0.00143737571512)
(1.36034951084e-05 0.000114033409632 0.00144106543103)
(-1.16622767979e-08 0.000114540241172 0.00144228315053)
(-1.36265897788e-05 0.000114032659074 0.0014410666035)
(-2.70265929783e-05 0.000112521290218 0.00143737833537)
(-4.00055969687e-05 0.000110036280487 0.00143110624193)
(-5.23683124512e-05 0.000106621166298 0.00142208514585)
(-6.39202916536e-05 0.000102340526729 0.00141013878958)
(-7.45697321508e-05 9.7120445552e-05 0.00139514213784)
(-8.34421886297e-05 9.17914103154e-05 0.00137688349358)
(8.12923975521e-05 8.92029311294e-05 0.00140799617146)
(7.2287407838e-05 9.35102602237e-05 0.0014237196098)
(6.17344284304e-05 9.77210548079e-05 0.00143649452021)
(5.0413913166e-05 0.000101150745997 0.00144657558766)
(3.84176657256e-05 0.000103878511346 0.00145411512)
(2.59025089298e-05 0.000105861383128 0.00145931463288)
(1.30346947819e-05 0.000107065897135 0.00146235472571)
(-1.21308057649e-08 0.000107469672099 0.00146335496889)
(-1.30587374744e-05 0.000107064952516 0.00146235570907)
(-2.59258998676e-05 0.000105859524749 0.00145931686767)
(-3.84399848622e-05 0.000103875805875 0.00145411927553)
(-5.04347726808e-05 0.000101147322502 0.00144658291537)
(-6.17535426409e-05 9.77171061936e-05 0.00143650666494)
(-7.23045400905e-05 9.35057319484e-05 0.00142373425777)
(-8.13061699151e-05 8.91983359008e-05 0.00140800410525)
(7.83683381796e-05 8.57449424322e-05 0.00143208900965)
(6.93358657816e-05 8.89519183352e-05 0.00144545625802)
(5.90030863612e-05 9.20961903002e-05 0.00145619697549)
(4.80341105455e-05 9.46472667001e-05 0.00146457306821)
(3.65168692316e-05 9.66761520878e-05 0.00147076307104)
(2.45769830408e-05 9.81501027993e-05 0.00147499053723)
(1.23534352575e-05 9.90440832466e-05 0.00147744568671)
(-1.26679590923e-08 9.93433267369e-05 0.00147825056435)
(-1.23785640503e-05 9.90429713692e-05 0.00147744616677)
(-2.46014971072e-05 9.8147901197e-05 0.00147499170208)
(-3.65403641472e-05 9.66729105738e-05 0.00147076550146)
(-4.8056192672e-05 9.46430996663e-05 0.00146457800122)
(-5.90234462345e-05 9.20912947476e-05 0.00145620623811)
(-6.93541911164e-05 8.89462938286e-05 0.00144546725033)
(-7.83832388509e-05 8.57392202017e-05 0.00143209247379)
(7.4829966656e-05 8.15591427226e-05 0.0014504763597)
(6.58940018459e-05 8.36392918163e-05 0.0014618015065)
(5.5871721565e-05 8.56815610409e-05 0.00147074755252)
(4.53299061583e-05 8.73612353191e-05 0.00147758726605)
(3.43666079235e-05 8.86960838949e-05 0.00148255744618)
(2.30815800695e-05 8.96615975438e-05 0.00148590973776)
(1.15861709032e-05 9.02443496293e-05 0.00148784069212)
(-1.32747247448e-08 9.04387427543e-05 0.0014884708905)
(-1.16125271456e-05 9.02431252121e-05 0.00148784027801)
(-2.31073605995e-05 8.9659160059e-05 0.00148590896766)
(-3.43914239285e-05 8.86924626925e-05 0.00148255663338)
(-4.53533513043e-05 8.7356510682e-05 0.00147758737208)
(-5.58934410799e-05 8.56758976658e-05 0.00147075050494)
(-6.59135924198e-05 8.36327305818e-05 0.00146180508262)
(-7.48460892771e-05 8.15524051375e-05 0.00145047200901)
(7.09225519619e-05 7.70596804493e-05 0.00146438065073)
(6.22058645678e-05 7.75039022249e-05 0.00147421750634)
(5.24440860073e-05 7.85458896726e-05 0.00148152524828)
(4.23688521168e-05 7.93892221899e-05 0.00148693480399)
(3.2011744108e-05 8.00483264127e-05 0.00149077582062)
(2.14460388333e-05 8.05154593678e-05 0.00149332573995)
(1.07481818591e-05 8.07933097227e-05 0.00149477961367)
(-1.39341631557e-08 8.08851532789e-05 0.00149525135492)
(-1.07758682602e-05 8.07920690351e-05 0.00149477798986)
(-2.14731833772e-05 8.05129790228e-05 0.00149332232181)
(-3.20379757316e-05 8.00446138496e-05 0.00149077044391)
(-4.2393759463e-05 7.93843091372e-05 0.00148692768384)
(-5.24672536454e-05 7.85398849812e-05 0.00148151805774)
(-6.22266875848e-05 7.74967613583e-05 0.00147420703465)
(-7.09400821866e-05 7.70522871439e-05 0.00146436888903)
(2.32087899373e-07 3.52886034034e-07 0.000113011133126)
(1.64143799513e-07 4.51916278952e-07 0.000118686796635)
(1.38961799336e-07 5.12118974945e-07 0.000123876088901)
(1.10995129589e-07 5.62322632547e-07 0.000128379926453)
(8.2765042022e-08 6.01505573521e-07 0.000132043197729)
(5.47474660614e-08 6.29435564894e-07 0.000134744452236)
(2.71041416096e-08 6.46117030255e-07 0.000136400943354)
(-5.95190471169e-11 6.51669408582e-07 0.00013696277067)
(-2.72695112636e-08 6.46056594828e-07 0.000136400993584)
(-5.50560632692e-08 6.2930009039e-07 0.000134744528189)
(-8.32989227265e-08 6.01279284899e-07 0.000132043250176)
(-1.11727368245e-07 5.62010728451e-07 0.000128379864593)
(-1.39788730121e-07 5.1169247819e-07 0.000123875721135)
(-1.64975722322e-07 4.5142952727e-07 0.000118685499308)
(-2.3267893238e-07 3.5236236542e-07 0.000113006882253)
(1.95707758166e-06 2.36604723646e-06 0.000324391734445)
(1.73246583996e-06 2.87331418338e-06 0.000339799547565)
(1.55423374995e-06 3.30846695144e-06 0.000353867387706)
(1.32731145447e-06 3.69866434597e-06 0.000366058747596)
(1.04849695556e-06 4.02343692243e-06 0.00037596073095)
(7.25679292418e-07 4.26734341304e-06 0.000383255248461)
(3.70777627155e-07 4.41864261862e-06 0.000387724498592)
(-5.81803488129e-10 4.46995392077e-06 0.000389236434849)
(-3.72042161113e-07 4.41843299864e-06 0.000387724633041)
(-7.27248789911e-07 4.26690422481e-06 0.000383255446663)
(-1.0505311618e-06 4.02275113477e-06 0.000375960848227)
(-1.32976380624e-06 3.69775105849e-06 0.000366058520921)
(-1.55683585937e-06 3.30728315284e-06 0.00035386625655)
(-1.73496626833e-06 2.8719530802e-06 0.00033979569899)
(-1.9588578997e-06 2.36457292255e-06 0.000324380323823)
(4.64348105989e-06 5.36891705218e-06 0.000521384342122)
(4.22151224141e-06 6.41495763459e-06 0.000545118935491)
(3.80363782185e-06 7.37066730077e-06 0.000566734054847)
(3.25925311955e-06 8.23538460622e-06 0.000585428961544)
(2.58176529462e-06 8.9604210994e-06 0.000600586416414)
(1.79056973791e-06 9.50756631184e-06 0.000611737626228)
(9.16233439044e-07 9.84808377559e-06 0.000618562223715)
(-1.42511179415e-09 9.96372646766e-06 0.000620866829204)
(-9.19202024027e-07 9.84769788637e-06 0.0006185624482)
(-1.79389058301e-06 9.50678611837e-06 0.000611737970047)
(-2.5856103747e-06 8.95925697121e-06 0.000600586663121)
(-3.26356430452e-06 8.23388860801e-06 0.0005854287152)
(-3.80805843669e-06 7.36883090534e-06 0.000566732472595)
(-4.22565127901e-06 6.41282859174e-06 0.000545113343039)
(-4.64646860053e-06 5.36659068606e-06 0.000521367742324)
(7.86865847872e-06 8.90063321653e-06 0.000704386883139)
(7.20768746351e-06 1.05225879955e-05 0.000735019164884)
(6.49151708974e-06 1.20312352323e-05 0.000762805002826)
(5.55613559609e-06 1.33995419637e-05 0.000786766997268)
(4.39701864996e-06 1.454778352e-05 0.000806145730209)
(3.04737530699e-06 1.54143045042e-05 0.000820374410542)
(1.55877150887e-06 1.59535456752e-05 0.000829069167994)
(-2.48464417557e-09 1.61366241087e-05 0.000832000619666)
(-1.56385102098e-06 1.59530001936e-05 0.000829069522591)
(-3.05277643967e-06 1.54132171624e-05 0.000820374998693)
(-4.40288157657e-06 1.45461873467e-05 0.000806146299811)
(-5.56237930397e-06 1.33975083487e-05 0.000786767081384)
(-6.49774703891e-06 1.20287995395e-05 0.00076280359904)
(-7.2134204374e-06 1.05197456557e-05 0.000735013086868)
(-7.87287593854e-06 8.89750388987e-06 0.000704367790158)
(1.13016376814e-05 1.26021815842e-05 0.000873178232452)
(1.03690705448e-05 1.47747288262e-05 0.000909211950326)
(9.32167332979e-06 1.67972265634e-05 0.000941721713843)
(7.95963155298e-06 1.86310853077e-05 0.000969648228566)
(6.28660671537e-06 2.01677935917e-05 0.000992157977935)
(4.35052542639e-06 2.13256771488e-05 0.00100864237822)
(2.22338619182e-06 2.20454173074e-05 0.00101869599187)
(-3.66558818797e-09 2.22895843469e-05 0.00102208028994)
(-2.2308030005e-06 2.20447282993e-05 0.00101869651664)
(-4.35818494748e-06 2.13243124846e-05 0.00100864331197)
(-6.29459270984e-06 2.01658003765e-05 0.000992159076654)
(-7.96782938895e-06 1.86285484261e-05 0.000969649027986)
(-9.32967633497e-06 1.67942184533e-05 0.000941721187045)
(-1.03763668324e-05 1.47712271633e-05 0.000909206641742)
(-1.13071118125e-05 1.25983003099e-05 0.00087315892099)
(1.47139038798e-05 1.62345933163e-05 0.00102742557046)
(1.34874859813e-05 1.88927968682e-05 0.00106733911528)
(1.20942106175e-05 2.13476280983e-05 0.00110311000174)
(1.02969166471e-05 2.35692779659e-05 0.00113369056946)
(8.11260287076e-06 2.54257215017e-05 0.00115823979986)
(5.60383396891e-06 2.68211063184e-05 0.00117616050681)
(2.86067883115e-06 2.76869760143e-05 0.0011870648326)
(-4.89520786294e-09 2.79804059988e-05 0.00119072965854)
(-2.87052077384e-06 2.76861552293e-05 0.0011870655499)
(-5.61381388609e-06 2.68194863776e-05 0.00117616185183)
(-8.1227371114e-06 2.5423359621e-05 0.00115824158055)
(-1.03070551457e-05 2.35662714206e-05 0.00113369239991)
(-1.21039445562e-05 2.13440785005e-05 0.00110311095414)
(-1.34963213525e-05 1.88886780542e-05 0.00106733559946)
(-1.47206698631e-05 1.62300224078e-05 0.00102740761927)
(1.7931596726e-05 1.96213683871e-05 0.00116693499313)
(1.63999566327e-05 2.26722988393e-05 0.00120924851571)
(1.4661021066e-05 2.54516811158e-05 0.0012468763852)
(1.24415148843e-05 2.79589921045e-05 0.00127886612152)
(9.7751549374e-06 3.00459731136e-05 0.00130442708862)
(6.73825301969e-06 3.16096914032e-05 0.0013230179551)
(3.43537569434e-06 3.25778928482e-05 0.00133430032583)
(-6.120980268e-09 3.29055888389e-05 0.00133808595461)
(-3.4476317999e-06 3.25769525028e-05 0.00133430122251)
(-6.75053492135e-06 3.16078380424e-05 0.00132301970341)
(-9.7874110756e-06 3.00432717342e-05 0.00130442958821)
(-1.24535599871e-05 2.79555492344e-05 0.00127886913397)
(-1.46724534707e-05 2.5447626793e-05 0.00124687918191)
(-1.64103093627e-05 2.26675995642e-05 0.00120924742205)
(-1.79396936072e-05 1.96161751445e-05 0.00116691932886)
(2.08232728065e-05 2.26320119406e-05 0.0012917568681)
(1.89859836541e-05 2.59641783493e-05 0.0013350972889)
(1.69144230486e-05 2.89467866352e-05 0.00137330451789)
(1.43032868524e-05 3.16253262671e-05 0.00140558774556)
(1.12043839281e-05 3.38439005722e-05 0.00143125047274)
(7.70615935804e-06 3.54998715024e-05 0.00144983941452)
(3.92337120359e-06 3.6522537744e-05 0.00146108791277)
(-7.30953643767e-09 3.68681712708e-05 0.00146485567869)
(-3.93796836315e-06 3.65214908681e-05 0.00146108891878)
(-7.72067494535e-06 3.54978081961e-05 0.00144984143977)
(-1.12187040202e-05 3.38408909788e-05 0.00143125354054)
(-1.43171925496e-05 3.16214839571e-05 0.00140559182222)
(-1.6927526165e-05 2.89422647727e-05 0.00137330914792)
(-1.8997843149e-05 2.59589427296e-05 0.00133509870321)
(-2.08327242513e-05 2.26262451147e-05 0.00129174371522)
(2.3295857928e-05 2.51766063056e-05 0.00140220924364)
(2.11627210955e-05 2.86683669412e-05 0.00144536163599)
(1.8782341053e-05 3.17295142511e-05 0.00148304783436)
(1.58237851712e-05 3.44622115345e-05 0.00151468276176)
(1.23563844368e-05 3.67122145396e-05 0.00153969059184)
(8.47840897142e-06 3.83841183638e-05 0.00155772500036)
(4.31016701606e-06 3.94135646964e-05 0.0015686035749)
(-8.44085884534e-09 3.97609340023e-05 0.00157224082926)
(-4.32699518746e-06 3.941242749e-05 0.00156860453969)
(-8.49506190617e-06 3.83818749127e-05 0.00155772700862)
(-1.23726947837e-05 3.6708935249e-05 0.00153969381125)
(-1.58395037421e-05 3.44580136705e-05 0.00151468740578)
(-1.87970908943e-05 3.1724565254e-05 0.00148305377186)
(-2.11760839315e-05 2.86626389607e-05 0.00144536495592)
(-2.33066816609e-05 2.51703094305e-05 0.00140219802558)
(2.52899219887e-05 2.72001072552e-05 0.00149885579188)
(2.28796971124e-05 3.072657193e-05 0.00154079866466)
(2.02229823723e-05 3.37454818301e-05 0.00157707293633)
(1.69711849232e-05 3.64196398542e-05 0.00160731630146)
(1.32088860126e-05 3.86058900153e-05 0.0016310823085)
(9.04115406639e-06 4.02220538843e-05 0.001648138861)
(4.58918585472e-06 4.12138865127e-05 0.00165839234582)
(-9.50374435934e-09 4.15479794235e-05 0.00166181394879)
(-4.60811414389e-06 4.12126803092e-05 0.00165839301407)
(-9.05983166125e-06 4.0219670035e-05 0.00164814033922)
(-1.32271025016e-05 3.86023935568e-05 0.0016310849137)
(-1.69886649449e-05 3.64151452713e-05 0.00160732052009)
(-2.02393563241e-05 3.3740161296e-05 0.00157707899898)
(-2.28945573525e-05 3.07204035641e-05 0.0015408024528)
(-2.5302133621e-05 2.71933279028e-05 0.00149884499132)
(2.67744797984e-05 2.86766382299e-05 0.00158246055833)
(2.41133451826e-05 3.21147204646e-05 0.00162238876348)
(2.12195479215e-05 3.4978816189e-05 0.00165658735969)
(1.77354486142e-05 3.74906284607e-05 0.00168490136014)
(1.3757204509e-05 3.95271175006e-05 0.00170700738022)
(9.39289822719e-06 4.10238835204e-05 0.00172278791761)
(4.76021547569e-06 4.19391415723e-05 0.00173223823763)
(-1.04897125747e-08 4.22468641366e-05 0.00173538506128)
(-4.78109664123e-06 4.19378959644e-05 0.00173223822771)
(-9.41347321947e-06 4.10214147564e-05 0.00172278808598)
(-1.3777231516e-05 3.95234788296e-05 0.00170700817493)
(-1.77546305333e-05 3.74859215504e-05 0.00168490354674)
(-2.12375172499e-05 3.49732058363e-05 0.0016565915696)
(-2.41296917336e-05 3.21081835105e-05 0.0016223906126)
(-2.67880865304e-05 2.86694377352e-05 0.00158244754771)
(2.77406202153e-05 2.96027373273e-05 0.00165393263642)
(2.48610912304e-05 3.28340145697e-05 0.00169127891338)
(2.17753394572e-05 3.54408003562e-05 0.00172297485928)
(1.81243267749e-05 3.76983935427e-05 0.00174901814373)
(1.40110073338e-05 3.95114238789e-05 0.00176919770405)
(9.54214493858e-06 4.08356847374e-05 0.00178351294056)
(4.8281588873e-06 4.16424040748e-05 0.00179204803981)
(-1.13888229352e-08 4.19131020721e-05 0.00179488307727)
(-4.85082544383e-06 4.16411574281e-05 0.00179204683368)
(-9.5644682741e-06 4.08332053068e-05 0.00178351072516)
(-1.4032725442e-05 3.95077453301e-05 0.00176919500232)
(-1.81451274949e-05 3.76935946591e-05 0.00174901597364)
(-2.17948544953e-05 3.54350224337e-05 0.00172297431894)
(-2.48788954631e-05 3.28272244984e-05 0.00169127538084)
(-2.77556220166e-05 2.95952154621e-05 0.00165391357401)
(2.81937968226e-05 2.99856820869e-05 0.00171426726876)
(2.51370098508e-05 3.28985135447e-05 0.00174874957034)
(2.19118267719e-05 3.51588295946e-05 0.00177775784404)
(1.81619733117e-05 3.70852447385e-05 0.0018013554498)
(1.39928995858e-05 3.86166470357e-05 0.00181945905319)
(9.50617366096e-06 3.97281765768e-05 0.00183220141206)
(4.80232332546e-06 4.04026967294e-05 0.00183975855956)
(-1.21872817968e-08 4.06285690369e-05 0.00184226132049)
(-4.82657793417e-06 4.04014950738e-05 0.00183975552196)
(-9.53006241233e-06 3.97257756556e-05 0.00183219547464)
(-1.40161500663e-05 3.86130577885e-05 0.00181945069292)
(-1.81842652262e-05 3.70805097082e-05 0.00180134583)
(-2.19327913412e-05 3.51530508511e-05 0.00177774863033)
(-2.51561996337e-05 3.28916299294e-05 0.00174873624617)
(-2.82101499586e-05 2.99779954737e-05 0.0017142375209)
(2.81643077907e-05 2.98368600443e-05 0.00176448444773)
(2.49836012505e-05 3.23650990962e-05 0.00179625398176)
(2.16776849848e-05 3.41905098062e-05 0.00182260372719)
(1.78923756688e-05 3.57218040654e-05 0.00184367332324)
(1.37392450974e-05 3.69266982531e-05 0.00185961309504)
(9.31076687426e-06 3.77956624927e-05 0.00187072162608)
(4.69604664963e-06 3.83207735509e-05 0.00187726795821)
(-1.2867369296e-08 3.8496190625e-05 0.00187942821642)
(-4.72165536306e-06 3.83196645601e-05 0.00187726241719)
(-9.33599290067e-06 3.77934360848e-05 0.0018707105234)
(-1.37638135562e-05 3.69233408325e-05 0.00185959664278)
(-1.79159670263e-05 3.57173153599e-05 0.00184365251409)
(-2.16999363757e-05 3.41849301008e-05 0.0018225807509)
(-2.50040461577e-05 3.23583206525e-05 0.00179622545899)
(-2.81819546552e-05 2.98291623351e-05 0.00176443945774)
(2.76866748598e-05 2.95765486609e-05 0.00180571129438)
(2.44652658777e-05 3.1402860021e-05 0.00183575083616)
(2.11231526411e-05 3.2669165304e-05 0.00185936456075)
(1.73592374363e-05 3.37218421274e-05 0.00187776216337)
(1.32857283149e-05 3.4537501734e-05 0.00189144213913)
(8.9809714893e-06 3.51202637916e-05 0.00190086898895)
(4.5222409875e-06 3.54700420113e-05 0.00190638521868)
(-1.34109507527e-08 3.55864077133e-05 0.00190819809259)
(-4.54893001155e-06 3.54690875266e-05 0.0019063767308)
(-9.00726170002e-06 3.5118338679e-05 0.00190085174537)
(-1.33113433032e-05 3.4534571238e-05 0.00189141582743)
(-1.73838677438e-05 3.37178656503e-05 0.00187772699186)
(-2.11464587309e-05 3.26641199493e-05 0.0018593227688)
(-2.44867093776e-05 3.1396527723e-05 0.00183569842069)
(-2.77055883843e-05 2.9569233469e-05 0.00180565217213)
(-5.85902263801e-08 -1.18567317658e-07 8.30920569178e-05)
(-1.49356011197e-08 -1.68072692778e-07 8.7288203376e-05)
(1.46152417424e-08 -1.97128447116e-07 9.11324118226e-05)
(3.45161393236e-08 -2.12733266125e-07 9.44893976622e-05)
(4.10480428856e-08 -2.18287477887e-07 9.72330367519e-05)
(3.52607770642e-08 -2.18272627332e-07 9.92638440159e-05)
(1.9922009615e-08 -2.16537358021e-07 0.000100512395677)
(-6.57790192424e-10 -2.15683324826e-07 0.000100936489444)
(-2.12016933819e-08 -2.16641576235e-07 0.000100512038424)
(-3.64394604538e-08 -2.18478864175e-07 9.9263122809e-05)
(-4.2098871691e-08 -2.18598543277e-07 9.72319288698e-05)
(-3.55074153838e-08 -2.1316087646e-07 9.44878324632e-05)
(-1.55381389106e-08 -1.97598679385e-07 9.1130205512e-05)
(1.41358093243e-08 -1.68596748102e-07 8.72848506194e-05)
(5.79923771811e-08 -1.19035515713e-07 8.3086030273e-05)
(-2.14343284908e-08 -1.51411554431e-07 0.000246813429162)
(8.56962748861e-08 -2.39222427124e-07 0.000258963397863)
(1.55278299208e-07 -2.79727553996e-07 0.000270113960984)
(1.9233141786e-07 -2.87194398353e-07 0.000279853888691)
(1.89509561606e-07 -2.72776521072e-07 0.000287817236718)
(1.49827462918e-07 -2.50311615739e-07 0.000293714194827)
(8.17236167607e-08 -2.31550655487e-07 0.000297339828312)
(-1.91826272354e-09 -2.24437937962e-07 0.000298568363645)
(-8.54770538927e-08 -2.31850719508e-07 0.000297338780169)
(-1.53348122158e-07 -2.50908935199e-07 0.000293712073354)
(-1.92727768068e-07 -2.73673668473e-07 0.00028781396226)
(-1.95337728283e-07 -2.88396820645e-07 0.000279849237887)
(-1.58063125528e-07 -2.81075930564e-07 0.000270107382921)
(-8.81211068022e-08 -2.40717284771e-07 0.000258953397933)
(1.96061041074e-08 -1.52797606264e-07 0.000246796358934)
(1.8700731017e-07 3.33867920274e-08 0.00040652803318)
(3.35249563111e-07 -3.33256729262e-08 0.000426158796735)
(4.22956671017e-07 -3.51124846487e-08 0.000444171737575)
(4.52951382204e-07 8.07456295279e-09 0.000459901430193)
(4.15577133616e-07 7.60989771814e-08 0.000472760001845)
(3.16285640014e-07 1.452806217e-07 0.000482281524789)
(1.69514880887e-07 1.95685234007e-07 0.00048813431698)
(-3.10738595268e-09 2.13938727876e-07 0.000490114665966)
(-1.75619963197e-07 1.95219918426e-07 0.000488132639516)
(-3.22082879648e-07 1.44349079973e-07 0.000482278120373)
(-4.20958023297e-07 7.46934524634e-08 0.000472754727078)
(-4.57971729509e-07 6.20526831541e-09 0.000459893918497)
(-4.27580579728e-07 -3.7249241332e-08 0.000444161137488)
(-3.39308855429e-07 -3.56759360141e-08 0.000426142847437)
(-1.90103432724e-07 3.11205827243e-08 0.000406501452259)
(6.31558551873e-07 5.00525630867e-07 0.000561768288501)
(8.00628642156e-07 5.21689513432e-07 0.000588324578541)
(8.81449819015e-07 6.20576738478e-07 0.000612656277931)
(8.73697804169e-07 7.68262052554e-07 0.000633884509631)
(7.66237501056e-07 9.33697845525e-07 0.000651226024958)
(5.67994049379e-07 1.08187290607e-06 0.000664060758021)
(3.00612654164e-07 1.18366653109e-06 0.000671946224315)
(-4.2472260001e-09 1.21970699856e-06 0.000674611377766)
(-3.08982709554e-07 1.18304476331e-06 0.00067194400716)
(-5.76013161954e-07 1.08062928592e-06 0.000664056247623)
(-7.73760575648e-07 9.31830851937e-07 0.000651219016219)
(-8.80720007632e-07 7.65801112748e-07 0.000633874521782)
(-8.87887743329e-07 6.17724166379e-07 0.000612642256044)
(-8.06307222542e-07 5.18538385799e-07 0.000588303747333)
(-6.35959267807e-07 4.97399624729e-07 0.000561734275281)
(1.28751830532e-06 1.2134599131e-06 0.000711858792917)
(1.45822299732e-06 1.37273711163e-06 0.000744665489028)
(1.50841271529e-06 1.61904426863e-06 0.000774642134022)
(1.43466694743e-06 1.91105982922e-06 0.000800751662592)
(1.22515806003e-06 2.20553119893e-06 0.000822052448139)
(8.93308369348e-07 2.45549523043e-06 0.00083780152778)
(4.68942958015e-07 2.62239243299e-06 0.000847469520463)
(-5.35785701717e-09 2.68079351625e-06 0.000850733824558)
(-4.79524872228e-07 2.6216248786e-06 0.000847466837627)
(-9.03509512259e-07 2.45396476079e-06 0.000837796063666)
(-1.23479882884e-06 2.20324885533e-06 0.000822043951915)
(-1.44367712379e-06 1.90807169422e-06 0.000800739587312)
(-1.5166531286e-06 1.61554667958e-06 0.000774625331128)
(-1.46550543813e-06 1.3688334503e-06 0.000744640845054)
(-1.2932612817e-06 1.20952745391e-06 0.000711819128452)
(2.11807788794e-06 2.12351442987e-06 0.000855978560885)