/*--------------------------------*- C++ -*----------------------------------*\
  =========                 |
  \\      /  F ield         | OpenFOAM: The Open Source CFD Toolbox
   \\    /   O peration     | Website:  https://openfoam.org
    \\  /    A nd           | Version:  7
     \\/     M anipulation  |
\*---------------------------------------------------------------------------*/
FoamFile
{
    version     2.0;
    format      ascii;
    class       volScalarField;
    location    "0.92";
    object      p;
}
// * * * * * * * * * * * * * * * * * * * * * * * * * * * * * * * * * * * * * //

dimensions      [0 2 -2 0 0 0 0];

internalField   nonuniform List<scalar> 
22500
(
3.81213103891e-06
3.81137163705e-06
3.80988368021e-06
3.80870304491e-06
3.80761182804e-06
3.80674292146e-06
3.80611034111e-06
3.8057399853e-06
3.80563277571e-06
3.80581467963e-06
3.80629232895e-06
3.80710051596e-06
3.80815034637e-06
3.80970010966e-06
3.81077557021e-06
3.80702974599e-06
3.80613519759e-06
3.80428727869e-06
3.8027120487e-06
3.80124215094e-06
3.80006958391e-06
3.79924641714e-06
3.79881584279e-06
3.79878937885e-06
3.79918242175e-06
3.79998379972e-06
3.8011847455e-06
3.80263905724e-06
3.80454749203e-06
3.80574447632e-06
3.80364830119e-06
3.80272470092e-06
3.80072015373e-06
3.79891449872e-06
3.79719408074e-06
3.79581155202e-06
3.7948535266e-06
3.79438240013e-06
3.79441881271e-06
3.79496882052e-06
3.79600069466e-06
3.79746691462e-06
3.79916023176e-06
3.80122284565e-06
3.8024368237e-06
3.80257364789e-06
3.80173134959e-06
3.79980428981e-06
3.79795728899e-06
3.79615162314e-06
3.7946823711e-06
3.79366491902e-06
3.79318063421e-06
3.79325857492e-06
3.79389557048e-06
3.79503895941e-06
3.796608666e-06
3.79835185096e-06
3.80033274803e-06
3.80144565508e-06
3.80343645597e-06
3.80282816228e-06
3.80119254509e-06
3.7994837919e-06
3.79775298044e-06
3.79631875571e-06
3.79531952155e-06
3.79485040686e-06
3.79494674676e-06
3.79559775551e-06
3.79673452906e-06
3.79825030359e-06
3.79986422996e-06
3.80154924374e-06
3.80240388043e-06
3.80621424793e-06
3.80607750328e-06
3.80496719804e-06
3.80361454957e-06
3.80215397695e-06
3.80090678402e-06
3.80002332685e-06
3.79960453027e-06
3.79968861678e-06
3.80025997739e-06
3.80124141056e-06
3.80251036662e-06
3.80377847617e-06
3.80493328517e-06
3.80528763324e-06
3.8110634669e-06
3.81173308172e-06
3.81142009488e-06
3.81068984231e-06
3.80973846688e-06
3.80886593828e-06
3.80821870001e-06
3.80789272164e-06
3.80792511183e-06
3.80829911352e-06
3.80893967118e-06
3.80972436499e-06
3.81038100958e-06
3.81073463782e-06
3.81025270687e-06
3.81819338615e-06
3.8200850534e-06
3.82087584056e-06
3.82107287037e-06
3.82090321607e-06
3.82061971584e-06
3.82034583632e-06
3.82016051371e-06
3.82009529184e-06
3.8201365398e-06
3.82022319723e-06
3.82025214228e-06
3.81999327404e-06
3.81923993022e-06
3.81750649265e-06
3.82782399666e-06
3.83139686479e-06
3.8336175946e-06
3.83506153574e-06
3.83595824474e-06
3.83648737131e-06
3.8367291924e-06
3.83673359015e-06
3.83652232336e-06
3.83608900925e-06
3.8353985984e-06
3.83438748035e-06
3.83289432454e-06
3.83070897627e-06
3.82726956183e-06
3.84013534523e-06
3.84583600998e-06
3.84980546959e-06
3.85280047589e-06
3.85503476558e-06
3.85658888159e-06
3.85748075186e-06
3.85772083749e-06
3.85731726263e-06
3.85627476958e-06
3.85459481598e-06
3.8522725809e-06
3.84924176516e-06
3.84530708271e-06
3.83971913982e-06
3.85520729625e-06
3.86341483528e-06
3.86940889499e-06
3.87421285188e-06
3.87801699705e-06
3.88077735082e-06
3.88243308443e-06
3.88294715554e-06
3.88231178108e-06
3.88054524856e-06
3.87769356058e-06
3.87382768128e-06
3.86900220406e-06
3.8630442516e-06
3.85493613273e-06
3.87306124725e-06
3.88397451225e-06
3.89215982939e-06
3.8989543828e-06
3.90450041919e-06
3.90860054372e-06
3.91110195504e-06
3.911916919e-06
3.9110207072e-06
3.90844629013e-06
3.9042879607e-06
3.8987057828e-06
3.8919048658e-06
3.88375924032e-06
3.8729387464e-06
3.89374600618e-06
3.90710133475e-06
3.91748229329e-06
3.92637756887e-06
3.93377131555e-06
3.93928337373e-06
3.94266935717e-06
3.94379637062e-06
3.94262484487e-06
3.93920066371e-06
3.93366136965e-06
3.92625605919e-06
3.91737037716e-06
3.90703436972e-06
3.89376946415e-06
3.91611768146e-06
3.93159619946e-06
3.94438260254e-06
3.95556748537e-06
3.96489803693e-06
3.97184310975e-06
3.97610996733e-06
3.97754336592e-06
3.9760973021e-06
3.97182288562e-06
3.96487791131e-06
3.95555891715e-06
3.94439983819e-06
3.93166745618e-06
3.9162749324e-06
3.93432014265e-06
3.95569300433e-06
3.9716860605e-06
3.98562523365e-06
3.99703518073e-06
4.00543742892e-06
4.01057478479e-06
4.01230597959e-06
4.0105888023e-06
4.00546914383e-06
3.99709063842e-06
3.9857124865e-06
3.97181647054e-06
3.95588885359e-06
3.93458813155e-06
-1.05439209684e-06
-1.05362788376e-06
-1.05217145216e-06
-1.05054831915e-06
-1.04892408518e-06
-1.04753350055e-06
-1.04652927388e-06
-1.04600795449e-06
-1.04600313261e-06
-1.04649620578e-06
-1.04742077809e-06
-1.04868821593e-06
-1.05012759287e-06
-1.05163555012e-06
-1.05268742921e-06
-1.05023691222e-06
-1.04949738352e-06
-1.04803929424e-06
-1.04642403112e-06
-1.04480176308e-06
-1.04341600476e-06
-1.04241923265e-06
-1.04190393717e-06
-1.04190376922e-06
-1.04240086381e-06
-1.04333270639e-06
-1.04460396119e-06
-1.04603729955e-06
-1.04753837471e-06
-1.04855018551e-06
-1.0484731951e-06
-1.04803235158e-06
-1.04681652786e-06
-1.04544147073e-06
-1.04402031235e-06
-1.04279136722e-06
-1.04189648061e-06
-1.0414206278e-06
-1.04139557575e-06
-1.04180610654e-06
-1.04259643694e-06
-1.04367629285e-06
-1.04487156908e-06
-1.04612047778e-06
-1.04681567726e-06
-1.04948281976e-06
-1.04950069414e-06
-1.04866818994e-06
-1.04766419629e-06
-1.04655931025e-06
-1.04557474834e-06
-1.04483556141e-06
-1.04441864555e-06
-1.04435396821e-06
-1.04462856571e-06
-1.04519302626e-06
-1.04596856083e-06
-1.04679370047e-06
-1.04764643795e-06
-1.04786080492e-06
-1.05202819085e-06
-1.05245966222e-06
-1.0519696468e-06
-1.05129182978e-06
-1.05046567023e-06
-1.049695464e-06
-1.04909327842e-06
-1.04873006672e-06
-1.04863440834e-06
-1.04879481407e-06
-1.04916563996e-06
-1.04967611566e-06
-1.05017599653e-06
-1.05067119345e-06
-1.05044685393e-06
-1.05505875907e-06
-1.05570762081e-06
-1.05539808664e-06
-1.05488899999e-06
-1.05420964674e-06
-1.05355348333e-06
-1.05302643333e-06
-1.05269679729e-06
-1.05259295213e-06
-1.05270326127e-06
-1.05298244692e-06
-1.05336081244e-06
-1.05369319141e-06
-1.05399146183e-06
-1.05352205731e-06
-1.05780685745e-06
-1.05840418457e-06
-1.05807128641e-06
-1.05754040664e-06
-1.05685274544e-06
-1.056195352e-06
-1.05567320592e-06
-1.05535425006e-06
-1.05526736746e-06
-1.05539973539e-06
-1.05570401951e-06
-1.05610661992e-06
-1.05646244581e-06
-1.05676801302e-06
-1.05631913765e-06
-1.05975605327e-06
-1.06003383617e-06
-1.05948817136e-06
-1.05876625701e-06
-1.05793570031e-06
-1.05717923617e-06
-1.05660299143e-06
-1.05627551283e-06
-1.05622601935e-06
-1.05644044313e-06
-1.05686836033e-06
-1.05743045407e-06
-1.05797967565e-06
-1.05848219815e-06
-1.05832150911e-06
-1.06062863968e-06
-1.06036116688e-06
-1.05945502265e-06
-1.05841587838e-06
-1.05734378811e-06
-1.05641787292e-06
-1.05574548113e-06
-1.0553957044e-06
-1.05539796775e-06
-1.0557368463e-06
-1.0563589979e-06
-1.05717951971e-06
-1.05804928551e-06
-1.05889782246e-06
-1.05925100501e-06
-1.06033366475e-06
-1.05935554089e-06
-1.05798589279e-06
-1.05654613017e-06
-1.05516807081e-06
-1.05402703181e-06
-1.05323138002e-06
-1.05285025895e-06
-1.05291322317e-06
-1.05340345963e-06
-1.05426529047e-06
-1.05540890656e-06
-1.05668344727e-06
-1.05798293153e-06
-1.05901622646e-06
-1.05889644309e-06
-1.05710399491e-06
-1.05520566638e-06
-1.05331669565e-06
-1.051595017e-06
-1.05021278439e-06
-1.04927832361e-06
-1.04886066678e-06
-1.04898900555e-06
-1.04964547404e-06
-1.05077231217e-06
-1.05227622555e-06
-1.05400502723e-06
-1.05582325558e-06
-1.0576427817e-06
-1.05641191754e-06
-1.05375619264e-06
-1.05129198059e-06
-1.04893109637e-06
-1.04684941352e-06
-1.0452151163e-06
-1.04413595213e-06
-1.04367920343e-06
-1.04387425599e-06
-1.04470151572e-06
-1.04610310098e-06
-1.0479833516e-06
-1.05019020291e-06
-1.05256741529e-06
-1.05522723957e-06
-1.05304248997e-06
-1.04949221866e-06
-1.04643935982e-06
-1.04360486055e-06
-1.04116712018e-06
-1.03928665137e-06
-1.0380651818e-06
-1.03757100036e-06
-1.03782917744e-06
-1.03882316755e-06
-1.04049243827e-06
-1.04274452865e-06
-1.04543204791e-06
-1.04839383457e-06
-1.05192883232e-06
-1.04887422847e-06
-1.04439990593e-06
-1.04079386426e-06
-1.03752812232e-06
-1.03477813531e-06
-1.03268338888e-06
-1.03134174454e-06
-1.03081398188e-06
-1.03112890246e-06
-1.03226523241e-06
-1.03416796376e-06
-1.03674752908e-06
-1.03987536675e-06
-1.04338949122e-06
-1.04783113206e-06
-1.04319034106e-06
-1.03853819995e-06
-1.03451524316e-06
-1.03093226445e-06
-1.0279735425e-06
-1.02574116326e-06
-1.02432134405e-06
-1.02377587242e-06
-1.02412814613e-06
-1.02536189487e-06
-1.02742011541e-06
-1.03022322459e-06
-1.03367748575e-06
-1.03761295127e-06
-1.04221745122e-06
2.57698664552e-06
2.57668310058e-06
2.57616828564e-06
2.57551789493e-06
2.57484250804e-06
2.57423643627e-06
2.57376908259e-06
2.57347710966e-06
2.57337538717e-06
2.57345850631e-06
2.57370907306e-06
2.57409537039e-06
2.57457035922e-06
2.57506801772e-06
2.5755377224e-06
2.57631729737e-06
2.57601033848e-06
2.57548786702e-06
2.57483399729e-06
2.57415704163e-06
2.5735522141e-06
2.57308731019e-06
2.57279893782e-06
2.57270280019e-06
2.57279326627e-06
2.57305246926e-06
2.57344713405e-06
2.57392816878e-06
2.57442929596e-06
2.57488818867e-06
2.57644073308e-06
2.57618959211e-06
2.57571789058e-06
2.57510969042e-06
2.57447206908e-06
2.57389819807e-06
2.57345355901e-06
2.57317492364e-06
2.57307855521e-06
2.57315853735e-06
2.57339620337e-06
2.57375811287e-06
2.57419473205e-06
2.57464058685e-06
2.57503199912e-06
2.57671829877e-06
2.57650797406e-06
2.57607755379e-06
2.57551134316e-06
2.57491173511e-06
2.57436893939e-06
2.57394563774e-06
2.57367836129e-06
2.5735836754e-06
2.57365557907e-06
2.5738747935e-06
2.57420773435e-06
2.57460468757e-06
2.57500268749e-06
2.5753386084e-06
2.57695922882e-06
2.57676952601e-06
2.57636390402e-06
2.57582794135e-06
2.57525795664e-06
2.57474079769e-06
2.57433646856e-06
2.57408085954e-06
2.57399053543e-06
2.57405946595e-06
2.57426786373e-06
2.57458194892e-06
2.57495185278e-06
2.57531775753e-06
2.57561724786e-06
2.57717648773e-06
2.57699053159e-06
2.57659833092e-06
2.57608387769e-06
2.57553747539e-06
2.57504217332e-06
2.57465514799e-06
2.57441150299e-06
2.5743276301e-06
2.57439747456e-06
2.57460088787e-06
2.5749038888e-06
2.57525655577e-06
2.57560187528e-06
2.57587918101e-06
2.57737486699e-06
2.5771784103e-06
2.57678942709e-06
2.57628743343e-06
2.57575802678e-06
2.57528007776e-06
2.57490816971e-06
2.57467636042e-06
2.57460071015e-06
2.57467510526e-06
2.57487914631e-06
2.57517864822e-06
2.57552371453e-06
2.57585927449e-06
2.57612860623e-06
2.57754311687e-06
2.57732108476e-06
2.57692409312e-06
2.57642531606e-06
2.57590592402e-06
2.57544050289e-06
2.5750811063e-06
2.57486066234e-06
2.57479469244e-06
2.57487711952e-06
2.57508735164e-06
2.57539109405e-06
2.57573860138e-06
2.57607569772e-06
2.57635210661e-06
2.57766973589e-06
2.57740767738e-06
2.57699236605e-06
2.57648777923e-06
2.57597137777e-06
2.57551369818e-06
2.57516418426e-06
2.57495439146e-06
2.57489918647e-06
2.57499250299e-06
2.57521377059e-06
2.57552882194e-06
2.57588828787e-06
2.57623797052e-06
2.57653698405e-06
2.57774779424e-06
2.57743162246e-06
2.5769889859e-06
2.57647092206e-06
2.57595206286e-06
2.57549858735e-06
2.57515702525e-06
2.57495731566e-06
2.5749134209e-06
2.57501942446e-06
2.57525511291e-06
2.57558687726e-06
2.57596617073e-06
2.57633832074e-06
2.57667410436e-06
2.57777176781e-06
2.57739099619e-06
2.57691421316e-06
2.57637732428e-06
2.57585267382e-06
2.57540158789e-06
2.57506724228e-06
2.57487727877e-06
2.57484464815e-06
2.57496362031e-06
2.57521490975e-06
2.5755662732e-06
2.57597083787e-06
2.57637341278e-06
2.57675842612e-06
2.57774237574e-06
2.57728899484e-06
2.57677257704e-06
2.57621394831e-06
2.57568270683e-06
2.57523450172e-06
2.57490791972e-06
2.57472778328e-06
2.57470560546e-06
2.57483617759e-06
2.57510189512e-06
2.57547307271e-06
2.57590596283e-06
2.57634557193e-06
2.57679000618e-06
2.57767680242e-06
2.57713841418e-06
2.57657496856e-06
2.57599246289e-06
2.57545558604e-06
2.57501207549e-06
2.57469461821e-06
2.57452462911e-06
2.57451152607e-06
2.57465139759e-06
2.5749287586e-06
2.57531830249e-06
2.57578175464e-06
2.5762669983e-06
2.57678570575e-06
2.57758411798e-06
2.57693981235e-06
2.57632793195e-06
2.57572406034e-06
2.5751863168e-06
2.57475151087e-06
2.57444588594e-06
2.5742862122e-06
2.57428078329e-06
2.57442597461e-06
2.57471008106e-06
2.57511262892e-06
2.57560448021e-06
2.57613789901e-06
2.57675258176e-06
2.57714445336e-06
2.57654546636e-06
2.57593684156e-06
2.57536179367e-06
2.57486452107e-06
2.57446786971e-06
2.57419098247e-06
2.57404720939e-06
2.57404231855e-06
2.57417476446e-06
2.57443520183e-06
2.57480926564e-06
2.57527974833e-06
2.57581070679e-06
2.5763699061e-06
-4.4095177259e-07
-4.40660738977e-07
-4.40308548564e-07
-4.39915755331e-07
-4.39539779407e-07
-4.39213687967e-07
-4.38971053454e-07
-4.38835899647e-07
-4.38820852221e-07
-4.38923878852e-07
-4.39133426351e-07
-4.39428913558e-07
-4.39781253487e-07
-4.40142912847e-07
-4.40499060884e-07
-4.40717108935e-07
-4.40434484662e-07
-4.40082510348e-07
-4.39688412619e-07
-4.39309714335e-07
-4.38983183648e-07
-4.38741584041e-07
-4.38608392133e-07
-4.38596089286e-07
-4.38702032885e-07
-4.38914140352e-07
-4.39210995036e-07
-4.39562445027e-07
-4.39920551286e-07
-4.40262657061e-07
-4.41030785409e-07
-4.40792600817e-07
-4.40482307103e-07
-4.40122665736e-07
-4.39771694809e-07
-4.39466389978e-07
-4.3923885851e-07
-4.39111885778e-07
-4.39097857342e-07
-4.39193847707e-07
-4.39387719268e-07
-4.39657878524e-07
-4.39974260423e-07
-4.40288569901e-07
-4.40579702837e-07
-4.41374326306e-07
-4.41165726311e-07
-4.40886099185e-07
-4.40553639921e-07
-4.40225058647e-07
-4.39937643173e-07
-4.39722751201e-07
-4.39602170114e-07
-4.39587858798e-07
-4.39676669266e-07
-4.39856371282e-07
-4.40105251438e-07
-4.40393480999e-07
-4.40673534294e-07
-4.40928142805e-07
-4.4163538381e-07
-4.41438565596e-07
-4.41174935e-07
-4.40859105867e-07
-4.40545267203e-07
-4.40270627332e-07
-4.40065428176e-07
-4.39950704516e-07
-4.39937789083e-07
-4.40023368378e-07
-4.40194981093e-07
-4.40430884244e-07
-4.40701478964e-07
-4.40960793346e-07
-4.41195636681e-07
-4.41845905309e-07
-4.41649462252e-07
-4.41392935785e-07
-4.41086350295e-07
-4.40781995765e-07
-4.40516515077e-07
-4.40319170851e-07
-4.40209947549e-07
-4.40199565731e-07
-4.40284387588e-07
-4.40451807974e-07
-4.40680110943e-07
-4.40939999499e-07
-4.41187339543e-07
-4.41412897537e-07
-4.42022679274e-07
-4.41817509937e-07
-4.41560857257e-07
-4.41258122068e-07
-4.40959596898e-07
-4.40700802046e-07
-4.4050988298e-07
-4.4040581046e-07
-4.40398701492e-07
-4.40484619504e-07
-4.40650854373e-07
-4.40875828182e-07
-4.41130584377e-07
-4.41372937017e-07
-4.41597667523e-07
-4.42169125326e-07
-4.419487387e-07
-4.41685578548e-07
-4.41382021514e-07
-4.41085698003e-07
-4.40831120792e-07
-4.4064513483e-07
-4.40545790792e-07
-4.40542417834e-07
-4.40630909068e-07
-4.4079846973e-07
-4.41023792738e-07
-4.41278313953e-07
-4.41521847947e-07
-4.41752825688e-07
-4.42288221681e-07
-4.42046278748e-07
-4.41771524361e-07
-4.41463398848e-07
-4.41166670226e-07
-4.40914557553e-07
-4.40732452014e-07
-4.40637432755e-07
-4.40638056179e-07
-4.4073009072e-07
-4.40900835703e-07
-4.41129396995e-07
-4.41387702631e-07
-4.416376038e-07
-4.41881101813e-07
-4.42382933073e-07
-4.42115246862e-07
-4.41825400628e-07
-4.41510013615e-07
-4.41211044069e-07
-4.40960100057e-07
-4.4078117186e-07
-4.40690098482e-07
-4.40694705987e-07
-4.40790693666e-07
-4.40965676349e-07
-4.41199401186e-07
-4.414644792e-07
-4.41724932422e-07
-4.41985545473e-07
-4.42456432661e-07
-4.42159939737e-07
-4.41852665859e-07
-4.415285857e-07
-4.41226599722e-07
-4.40976644848e-07
-4.40800743406e-07
-4.40713498609e-07
-4.40721797541e-07
-4.40821528393e-07
-4.4100084105e-07
-4.41240512759e-07
-4.41514194908e-07
-4.41788103993e-07
-4.420697979e-07
-4.42511031155e-07
-4.42184529327e-07
-4.41858654683e-07
-4.41525464027e-07
-4.41220962863e-07
-4.40972376502e-07
-4.40800127448e-07
-4.40716598343e-07
-4.40728195004e-07
-4.40830660843e-07
-4.41013510999e-07
-4.41258844591e-07
-4.4154199428e-07
-4.41831714703e-07
-4.42137241354e-07
-4.42557985079e-07
-4.4219792305e-07
-4.41850864838e-07
-4.41507860446e-07
-4.41200867508e-07
-4.40955144818e-07
-4.40786524149e-07
-4.40707276983e-07
-4.40721022563e-07
-4.40825483311e-07
-4.41010599508e-07
-4.41261233451e-07
-4.41555242808e-07
-4.41864240473e-07
-4.42198729967e-07
-4.42604100847e-07
-4.42202262459e-07
-4.41833499175e-07
-4.41480933245e-07
-4.41173883112e-07
-4.40931347953e-07
-4.40768427334e-07
-4.40692452281e-07
-4.40708356598e-07
-4.40812726424e-07
-4.40998461916e-07
-4.41252762885e-07
-4.4155782236e-07
-4.41888187109e-07
-4.42260815421e-07
-4.42452523565e-07
-4.42073175367e-07
-4.41721353805e-07
-4.41395462623e-07
-4.41117375788e-07
-4.40900652986e-07
-4.40754754234e-07
-4.40686896152e-07
-4.40699300131e-07
-4.4079066537e-07
-4.40955019127e-07
-4.41183380088e-07
-4.41464170137e-07
-4.4177867045e-07
-4.4212814118e-07
1.33134005347e-06
1.33115420823e-06
1.33087912509e-06
1.33054651253e-06
1.33021573121e-06
1.32992652021e-06
1.32970681823e-06
1.32957113053e-06
1.32952584229e-06
1.32956783077e-06
1.32968793174e-06
1.32987079181e-06
1.33009590319e-06
1.33032863021e-06
1.33056054251e-06
1.3312000377e-06
1.3310184144e-06
1.33074575803e-06
1.33041651038e-06
1.33008786439e-06
1.32980046129e-06
1.32958243923e-06
1.32944860595e-06
1.32940566205e-06
1.32945011003e-06
1.32957242352e-06
1.3297566674e-06
1.32998149169e-06
1.33021176667e-06
1.33043346527e-06
1.3314568649e-06
1.33130635243e-06
1.33106394496e-06
1.33076025342e-06
1.33045312245e-06
1.33018218563e-06
1.32997480335e-06
1.32984575342e-06
1.32980191065e-06
1.32983973113e-06
1.32994964632e-06
1.33011555421e-06
1.33031610847e-06
1.33051555811e-06
1.33070117202e-06
1.33171927695e-06
1.331588254e-06
1.33136838297e-06
1.33108634662e-06
1.33079812186e-06
1.33054201453e-06
1.33034455173e-06
1.33022054222e-06
1.3301769304e-06
1.33021019554e-06
1.33031072145e-06
1.33046230556e-06
1.33064371034e-06
1.33081934823e-06
1.33097964939e-06
1.33191136505e-06
1.33178832281e-06
1.33158150897e-06
1.3313142777e-06
1.33104000525e-06
1.33079547028e-06
1.33060635262e-06
1.33048728575e-06
1.3304452421e-06
1.33047671067e-06
1.33057203943e-06
1.33071499848e-06
1.33088451036e-06
1.33104573025e-06
1.33119235325e-06
1.33205965146e-06
1.33193613313e-06
1.33173723198e-06
1.33148125278e-06
1.33121853477e-06
1.33098411467e-06
1.33080265484e-06
1.330688669e-06
1.33064905677e-06
1.33068037043e-06
1.33077293907e-06
1.33091065346e-06
1.33107267628e-06
1.33122520309e-06
1.3313651087e-06
1.33217974257e-06
1.33205141178e-06
1.33185663141e-06
1.33160883966e-06
1.33135573296e-06
1.33113030664e-06
1.33095610801e-06
1.33084734404e-06
1.33081076858e-06
1.33084301888e-06
1.33093449745e-06
1.33106932921e-06
1.33122700779e-06
1.331374976e-06
1.33151304557e-06
1.33227762878e-06
1.33214082001e-06
1.33194686897e-06
1.33170530353e-06
1.33146050685e-06
1.33124331175e-06
1.33107607907e-06
1.33097261969e-06
1.33093948374e-06
1.33097342998e-06
1.33106502199e-06
1.33119875565e-06
1.33135454858e-06
1.33150124286e-06
1.33164122514e-06
1.33235848135e-06
1.33221129644e-06
1.33201585096e-06
1.33177883199e-06
1.33154115121e-06
1.33133156858e-06
1.33117113941e-06
1.33107303961e-06
1.33104356606e-06
1.33107961389e-06
1.33117203407e-06
1.33130585008e-06
1.3314615044e-06
1.33160941106e-06
1.33175390814e-06
1.33242825352e-06
1.33226893597e-06
1.33207053507e-06
1.33183698434e-06
1.33160579489e-06
1.33140361995e-06
1.33124994482e-06
1.33115728409e-06
1.33113147637e-06
1.33116968822e-06
1.33126316515e-06
1.33139765054e-06
1.33155428658e-06
1.33170515695e-06
1.33185588728e-06
1.33249097242e-06
1.33231948165e-06
1.33211728897e-06
1.33188647894e-06
1.33166153999e-06
1.33146675026e-06
1.33132005802e-06
1.33123284226e-06
1.33121058576e-06
1.33125061473e-06
1.33134487956e-06
1.33148005132e-06
1.33163822338e-06
1.33179326526e-06
1.33195123591e-06
1.33255113552e-06
1.33236744314e-06
1.33216057496e-06
1.33193216773e-06
1.33171346171e-06
1.3315266087e-06
1.33138715273e-06
1.33130555865e-06
1.33128638982e-06
1.33132762262e-06
1.33142190722e-06
1.33155730119e-06
1.33171728073e-06
1.33187753674e-06
1.33204378172e-06
1.33261693269e-06
1.33241940507e-06
1.33220570786e-06
1.33197822848e-06
1.33176583883e-06
1.33158681475e-06
1.33145510519e-06
1.33137883877e-06
1.33136253672e-06
1.33140414715e-06
1.33149776205e-06
1.3316332251e-06
1.33179608636e-06
1.33196409226e-06
1.33214124091e-06
1.33269780627e-06
1.33248015861e-06
1.33225614275e-06
1.33202839703e-06
1.3318213573e-06
1.33165070711e-06
1.33152629763e-06
1.33145552918e-06
1.3314413373e-06
1.3314827302e-06
1.33157507012e-06
1.33171049083e-06
1.3318777556e-06
1.33205698453e-06
1.33225190641e-06
1.33267619027e-06
1.33246308538e-06
1.33225005611e-06
1.33204305587e-06
1.33186027848e-06
1.33171051985e-06
1.33160148528e-06
1.33153809625e-06
1.33152302353e-06
1.33155572372e-06
1.33163297309e-06
1.33174978229e-06
1.3318996172e-06
1.33206918281e-06
1.33225694889e-06
-2.90834375778e-07
-2.90687438205e-07
-2.90529238192e-07
-2.90363415744e-07
-2.90211139376e-07
-2.90085080656e-07
-2.89995993612e-07
-2.8995330877e-07
-2.89963786578e-07
-2.90028009844e-07
-2.90141976656e-07
-2.90296699028e-07
-2.90478988795e-07
-2.90665826062e-07
-2.90851799844e-07
-2.90726404444e-07
-2.90582860592e-07
-2.90423271153e-07
-2.90255105135e-07
-2.90100555642e-07
-2.89973406888e-07
-2.89884648631e-07
-2.89843348948e-07
-2.89855788854e-07
-2.89922041446e-07
-2.90037744378e-07
-2.90193561911e-07
-2.90375778622e-07
-2.90561232243e-07
-2.90740634375e-07
-2.90893032552e-07
-2.90771369723e-07
-2.90632577127e-07
-2.90481082274e-07
-2.90339757549e-07
-2.90222162094e-07
-2.90139643721e-07
-2.90101118e-07
-2.90112705001e-07
-2.90174160946e-07
-2.90280993241e-07
-2.90423750276e-07
-2.90588760187e-07
-2.90752648019e-07
-2.90906983409e-07
-2.91068914458e-07
-2.90962222488e-07
-2.90838015615e-07
-2.90698953768e-07
-2.90567505712e-07
-2.90457420631e-07
-2.90380183434e-07
-2.90344407834e-07
-2.90355862984e-07
-2.90414026141e-07
-2.90514207857e-07
-2.90646875066e-07
-2.90798430296e-07
-2.90945874606e-07
-2.9108273667e-07
-2.91199596911e-07
-2.91098658522e-07
-2.90981717628e-07
-2.90849976671e-07
-2.90724597041e-07
-2.9061943669e-07
-2.90545899435e-07
-2.90512463526e-07
-2.9052451012e-07
-2.90581246078e-07
-2.90677749202e-07
-2.90804409309e-07
-2.90947721253e-07
-2.91085482455e-07
-2.91213107494e-07
-2.91304102491e-07
-2.91203758569e-07
-2.91090021764e-07
-2.90961815489e-07
-2.90839843537e-07
-2.90737900047e-07
-2.9066725754e-07
-2.90636004907e-07
-2.90649116648e-07
-2.90705476754e-07
-2.90799968635e-07
-2.90922967445e-07
-2.91061107575e-07
-2.91193221484e-07
-2.91316324481e-07
-2.91393108958e-07
-2.91289803703e-07
-2.91176257115e-07
-2.91049725949e-07
-2.90929939289e-07
-2.90830385471e-07
-2.90762077789e-07
-2.90732758379e-07
-2.90747044595e-07
-2.9080355584e-07
-2.90897005589e-07
-2.91017839326e-07
-2.91152864408e-07
-2.91282103402e-07
-2.91403917224e-07
-2.91470740003e-07
-2.91362810495e-07
-2.9124712557e-07
-2.91120571147e-07
-2.91001671658e-07
-2.90903685104e-07
-2.90837230859e-07
-2.90809653322e-07
-2.90825144846e-07
-2.90882115504e-07
-2.90975174555e-07
-2.91094906696e-07
-2.9122836899e-07
-2.91356881618e-07
-2.91479736369e-07
-2.9154065149e-07
-2.91425961989e-07
-2.91306595397e-07
-2.91179109327e-07
-2.91060604135e-07
-2.90963901914e-07
-2.90899041666e-07
-2.90873012136e-07
-2.90889584598e-07
-2.90947033765e-07
-2.91039975553e-07
-2.91159219959e-07
-2.91292153387e-07
-2.91421499522e-07
-2.91547108095e-07
-2.91605452393e-07
-2.91483423273e-07
-2.91359540368e-07
-2.91230572946e-07
-2.91112192785e-07
-2.91016534755e-07
-2.90953189124e-07
-2.9092852797e-07
-2.90945979168e-07
-2.91003720247e-07
-2.91096486767e-07
-2.91215447729e-07
-2.91348443607e-07
-2.91479672437e-07
-2.91609073822e-07
-2.91667966757e-07
-2.91537827086e-07
-2.91408862921e-07
-2.91278417516e-07
-2.9116029148e-07
-2.9106607057e-07
-2.91004349268e-07
-2.90981046211e-07
-2.90999073636e-07
-2.91056698077e-07
-2.91148880448e-07
-2.91267340715e-07
-2.91400552377e-07
-2.9153426887e-07
-2.91668294353e-07
-2.91729482646e-07
-2.91590965994e-07
-2.91456937777e-07
-2.91325187796e-07
-2.91208106201e-07
-2.9111558927e-07
-2.91056015677e-07
-2.91033962831e-07
-2.9105231358e-07
-2.91109135451e-07
-2.91200040982e-07
-2.91317449661e-07
-2.9145077394e-07
-2.91587424573e-07
-2.91726818855e-07
-2.91794856344e-07
-2.91646408705e-07
-2.91506283221e-07
-2.91373383856e-07
-2.91257014138e-07
-2.9116737399e-07
-2.91109668319e-07
-2.91089293709e-07
-2.91107326159e-07
-2.91162942038e-07
-2.91251942995e-07
-2.91367992556e-07
-2.91501809976e-07
-2.91642657133e-07
-2.91789493198e-07
-2.91864585242e-07
-2.91702435687e-07
-2.9155703469e-07
-2.91422760312e-07
-2.91309010372e-07
-2.91221669872e-07
-2.91167219075e-07
-2.91147797657e-07
-2.91165631781e-07
-2.91219173036e-07
-2.91305521628e-07
-2.91419480097e-07
-2.91553621043e-07
-2.91698832043e-07
-2.91857080953e-07
-2.91831257174e-07
-2.91689891346e-07
-2.91560883677e-07
-2.91445512348e-07
-2.91348891262e-07
-2.91276340464e-07
-2.91230844641e-07
-2.91215146491e-07
-2.91229912237e-07
-2.91274542854e-07
-2.91346801983e-07
-2.91443081804e-07
-2.91558422886e-07
-2.91686533098e-07
-2.9182419581e-07
4.85978622889e-07
4.85876504221e-07
4.85739964824e-07
4.85582943836e-07
4.85431491772e-07
4.85303424616e-07
4.85210325005e-07
4.85158437873e-07
4.85149913201e-07
4.85182272034e-07
4.85250460429e-07
4.85346418026e-07
4.85459970355e-07
4.85573403901e-07
4.85682930185e-07
4.85922671144e-07
4.85822942417e-07
4.85687355792e-07
4.85531962736e-07
4.85382407259e-07
4.85255998324e-07
4.85164160654e-07
4.85113271666e-07
4.85105716879e-07
4.85139006266e-07
4.85207948154e-07
4.85304287459e-07
4.8541742697e-07
4.85529456245e-07
4.85634005945e-07
4.86068079853e-07
4.85984235902e-07
4.85864533403e-07
4.85722525534e-07
4.85584098305e-07
4.85465895853e-07
4.85379331605e-07
4.85330708707e-07
4.85322479771e-07
4.85352147753e-07
4.85414549373e-07
4.85501387184e-07
4.85602117772e-07
4.85698467355e-07
4.85784999763e-07
4.86212512536e-07
4.86139264323e-07
4.8603156653e-07
4.85900774631e-07
4.85771898137e-07
4.85660993231e-07
4.85579301909e-07
4.85533034176e-07
4.8552466901e-07
4.85551767205e-07
4.85609181171e-07
4.8568861447e-07
4.85779612404e-07
4.85863922416e-07
4.85938111786e-07
4.86319320312e-07
4.86250625054e-07
4.86150076283e-07
4.86027145661e-07
4.85905366476e-07
4.85800153302e-07
4.85722425483e-07
4.85678353535e-07
4.85670428389e-07
4.85696287315e-07
4.85750801292e-07
4.85825698669e-07
4.85910657181e-07
4.85987679217e-07
4.86055419117e-07
4.86402551797e-07
4.86334047249e-07
4.86238274625e-07
4.86121146292e-07
4.86005120017e-07
4.85904791483e-07
4.85830684797e-07
4.85788841512e-07
4.85781764778e-07
4.858071749e-07
4.85859986307e-07
4.85932027573e-07
4.86013154329e-07
4.86085806919e-07
4.86150571044e-07
4.86470828794e-07
4.86400520933e-07
4.86307519844e-07
4.861947419e-07
4.86083539881e-07
4.8598752438e-07
4.85916751518e-07
4.85877108043e-07
4.85871095881e-07
4.85896525776e-07
4.85948392743e-07
4.86018693039e-07
4.86097493452e-07
4.86167758182e-07
4.86231963597e-07
4.86527965915e-07
4.864543874e-07
4.86362623674e-07
4.86253144638e-07
4.86145943809e-07
4.86053740958e-07
4.85986062781e-07
4.85948590905e-07
4.85943777106e-07
4.8596952767e-07
4.86020965437e-07
4.86090311584e-07
4.86167893457e-07
4.86237325047e-07
4.86302597045e-07
4.86577486055e-07
4.86499883287e-07
4.86408237396e-07
4.86301226805e-07
4.86197422596e-07
4.86108684882e-07
4.86043900262e-07
4.86008537199e-07
4.86004921996e-07
4.86031101611e-07
4.86082362431e-07
4.86151226977e-07
4.86228325344e-07
4.86297987598e-07
4.86365432598e-07
4.86622890316e-07
4.86540917073e-07
4.86448826298e-07
4.8634371037e-07
4.86242880662e-07
4.86157288329e-07
4.86095265464e-07
4.86061890135e-07
4.86059390454e-07
4.86085925855e-07
4.8613701812e-07
4.86205579718e-07
4.8628260201e-07
4.86353218616e-07
4.86423301305e-07
4.86666983638e-07
4.86581041434e-07
4.86488018611e-07
4.8638439719e-07
4.86286236598e-07
4.86203731464e-07
4.86144375919e-07
4.86112918728e-07
4.86111338757e-07
4.86137980828e-07
4.86188694408e-07
4.86256885338e-07
4.86334010771e-07
4.86406035633e-07
4.86478960842e-07
4.86712489312e-07
4.86622919651e-07
4.86528607398e-07
4.86426143383e-07
4.8633062598e-07
4.86251107623e-07
4.86194526091e-07
4.86164828534e-07
4.86163915587e-07
4.86190248422e-07
4.86240123114e-07
4.86307669445e-07
4.86384980718e-07
4.86458827436e-07
4.86534647003e-07
4.86763845128e-07
4.86670330248e-07
4.86573535325e-07
4.8647146736e-07
4.86378085818e-07
4.86301751351e-07
4.86247666314e-07
4.86219713262e-07
4.86219058588e-07
4.86244622879e-07
4.86293285197e-07
4.86360090192e-07
4.86438157772e-07
4.86515070848e-07
4.86594696831e-07
4.86827467249e-07
4.8672773546e-07
4.86625951971e-07
4.86522695298e-07
4.86431047925e-07
4.86357081601e-07
4.86305551877e-07
4.86278809837e-07
4.86278198287e-07
4.86302698653e-07
4.86350009982e-07
4.86416369645e-07
4.86496530263e-07
4.86579263348e-07
4.86665633005e-07
4.86858256347e-07
4.86756555524e-07
4.86656798839e-07
4.86561062504e-07
4.86478561989e-07
4.8641279364e-07
4.86366585054e-07
4.863420528e-07
4.86339900474e-07
4.86359612065e-07
4.86399600612e-07
4.86457563087e-07
4.8653088305e-07
4.86612269435e-07
4.86701637129e-07
-4.19048532702e-07
-4.18988324854e-07
-4.18911615597e-07
-4.18822836701e-07
-4.18733847548e-07
-4.18656637523e-07
-4.18600906534e-07
-4.18573394218e-07
-4.1857752432e-07
-4.18612912678e-07
-4.18676583231e-07
-4.18763185611e-07
-4.18864893467e-07
-4.18969482859e-07
-4.19071121672e-07
-4.1897722716e-07
-4.18916637408e-07
-4.18838165984e-07
-4.18747967486e-07
-4.18658596339e-07
-4.18581721882e-07
-4.18526616753e-07
-4.18499822512e-07