/*--------------------------------*- C++ -*----------------------------------*\
  =========                 |
  \\      /  F ield         | OpenFOAM: The Open Source CFD Toolbox
   \\    /   O peration     | Website:  https://openfoam.org
    \\  /    A nd           | Version:  7
     \\/     M anipulation  |
\*---------------------------------------------------------------------------*/
FoamFile
{
    version     2.0;
    format      ascii;
    class       volVectorField;
    location    "0.92";
    object      U;
}
// * * * * * * * * * * * * * * * * * * * * * * * * * * * * * * * * * * * * * //

dimensions      [0 1 -1 0 0 0 0];

internalField   nonuniform List<vector> 
22500
(
(-1.72500268914e-05 -1.99251104427e-05 7.21189205026e-05)
(-1.55017450022e-05 -2.304446542e-05 7.77180680321e-05)
(-1.33394805388e-05 -2.58581245965e-05 8.43459310184e-05)
(-1.09928493387e-05 -2.8183151572e-05 9.1025926393e-05)
(-8.43167279511e-06 -3.00262722894e-05 9.69870448772e-05)
(-5.73863880252e-06 -3.13584042208e-05 0.00010163492659)
(-2.95188029804e-06 -3.21679750253e-05 0.000104553876531)
(-1.16444781901e-07 -3.24478175087e-05 0.00010552256641)
(2.72034783071e-06 -3.21934011328e-05 0.000104469925897)
(5.51108513889e-06 -3.14087280419e-05 0.000101466331559)
(8.20996210602e-06 -3.01005478535e-05 9.67333988379e-05)
(1.07787007243e-05 -2.82796541312e-05 9.06905234415e-05)
(1.3136517567e-05 -2.59749412042e-05 8.39304701681e-05)
(1.53110638646e-05 -2.31794698444e-05 7.72210942179e-05)
(1.70920672478e-05 -2.00631047471e-05 7.15419071414e-05)
(-5.29523155428e-05 -6.05135627228e-05 7.03753281284e-05)
(-4.76721307735e-05 -6.97780432406e-05 7.21222074513e-05)
(-4.11255294862e-05 -7.82327832289e-05 7.76215773959e-05)
(-3.38867050203e-05 -8.52751520992e-05 8.47992043342e-05)
(-2.59945274488e-05 -9.08688814405e-05 9.19699011466e-05)
(-1.76745133259e-05 -9.49195160671e-05 9.78599060549e-05)
(-9.06202563206e-06 -9.7383408051e-05 0.000101613841003)
(-2.99134250634e-07 -9.82346458913e-05 0.00010282093856)
(8.46709019006e-06 -9.74607026801e-05 0.000101359432975)
(1.70888887751e-05 -9.50730025222e-05 9.73489888004e-05)
(2.54215479613e-05 -9.10958412277e-05 9.11993828232e-05)
(3.33274105722e-05 -8.55700200541e-05 8.3779756667e-05)
(4.0584964307e-05 -7.85898358103e-05 7.63583645294e-05)
(4.71552881462e-05 -7.01889779045e-05 7.0611226707e-05)
(5.25091719454e-05 -6.09383440017e-05 6.86197018362e-05)
(-8.89295705785e-05 -0.000100853676106 -7.55937949431e-05)
(-8.01427093944e-05 -0.0001159727969 -9.1249882031e-05)
(-6.93402692202e-05 -0.000129785637895 -9.99285737445e-05)
(-5.72370013781e-05 -0.000141374124318 -0.000104029365507)
(-4.39915478549e-05 -0.000150618454478 -0.000105527102466)
(-2.99540341212e-05 -0.000157340154007 -0.000105822644966)
(-1.53738375001e-05 -0.000161442354899 -0.000105796710794)
(-5.12247529745e-07 -0.000162859537892 -0.000105881997402)
(1.43574478792e-05 -0.000161564053167 -0.000106182277149)
(2.89614786322e-05 -0.000157580279945 -0.000106598905196)
(4.30362453121e-05 -0.000150969372682 -0.000106696473786)
(5.63290148648e-05 -0.000141823345856 -0.000105587484778)
(6.84914573405e-05 -0.00013031693864 -0.000101876466214)
(7.93641224651e-05 -0.000116569562943 -9.36053350882e-05)
(8.82795267405e-05 -0.000101464735427 -7.83670748702e-05)
(-0.000123401045438 -0.00013903291513 -0.000341713216544)
(-0.000111245800842 -0.000159261091388 -0.000382750167124)
(-9.63969427051e-05 -0.000177683215615 -0.000412971344596)
(-7.96313590072e-05 -0.000193204973216 -0.00043480630123)
(-6.12527431682e-05 -0.000205618769431 -0.00045025654374)
(-4.17161157658e-05 -0.000214668227195 -0.00046065174727)
(-2.13847491084e-05 -0.00022019893088 -0.000466757157891)
(-6.41145765507e-07 -0.000222106180097 -0.000468927036497)
(2.01126129416e-05 -0.000220348314752 -0.000467230029352)
(4.04743086881e-05 -0.000214962976486 -0.000461608515959)
(6.00597001657e-05 -0.000206048910097 -0.00045170533874)
(7.8502270015e-05 -0.000193754443138 -0.000436752011605)
(9.53477694402e-05 -0.00017832983976 -0.000415426106171)
(0.000110292444583 -0.000159983093978 -0.000385751212409)
(0.000122603197265 -0.000139774458557 -0.000345297653617)
(-0.000154862085073 -0.00017358490793 -0.000689744175691)
(-0.000139585064986 -0.000197879890905 -0.000757299691683)
(-0.000121007124589 -0.000219876738188 -0.000809657104153)
(-9.99623648598e-05 -0.000238451264211 -0.00084947827489)
(-7.68987677862e-05 -0.000253326273543 -0.000878901738779)
(-5.23539404888e-05 -0.00026418860413 -0.000899298027054)
(-2.67908698929e-05 -0.000270833024244 -0.000911420166429)
(-6.996012723e-07 -0.000273119273492 -0.000915610348138)
(2.54017942934e-05 -0.000270993769132 -0.000911937922307)
(5.0995541038e-05 -0.000264506322305 -0.000900352261616)
(7.55905217633e-05 -0.000253790755961 -0.000880508844741)
(9.87213525025e-05 -0.000239045930081 -0.000851654334804)
(0.000119851160228 -0.000220578060121 -0.000812427999302)
(0.000138533378106 -0.000198664621467 -0.00076072486182)
(0.000153972056989 -0.000174399431631 -0.000693895980872)
(-0.000182393924907 -0.000203659697761 -0.00107897259592)
(-0.000164303145738 -0.000230864493343 -0.00116885710992)
(-0.000142386439652 -0.000255329803026 -0.00123903470162)
(-0.000117563426806 -0.000276008268767 -0.00129284590112)
(-9.04065516169e-05 -0.000292581834714 -0.00133283117196)
(-6.15123359537e-05 -0.000304702134912 -0.00136061593583)
(-3.14219097508e-05 -0.000312121470642 -0.00137710838253)
(-7.10835140145e-07 -0.000314669296727 -0.00138274583024)
(3.00093754234e-05 -0.000312282133317 -0.00137764131629)
(6.01277720065e-05 -0.000305020359963 -0.00136170735762)
(8.90682977712e-05 -0.000293048273874 -0.00133450518286)
(0.000116288387468 -0.000276607493693 -0.00129512893655)
(0.000141192554515 -0.000256039529458 -0.00124196537361)
(0.000163211424382 -0.000231662563937 -0.00117251570305)
(0.000181456821138 -0.000204499302047 -0.00108346813072)
(-0.000205544005531 -0.000228861885327 -0.00147523818941)
(-0.000184977923181 -0.000257823248598 -0.0015807182285)
(-0.000160156797401 -0.000283701128337 -0.00166244604604)
(-0.000132121392891 -0.000305576579343 -0.00172482837478)
(-0.000101536788972 -0.000323122803058 -0.0017709951522)
(-6.90342880474e-05 -0.000335973565445 -0.00180295064031)
(-3.52092038603e-05 -0.000343846482342 -0.00182184440478)
(-6.9768831707e-07 -0.000346545961728 -0.00182826161353)
(3.38217724645e-05 -0.000344000410239 -0.00182237765945)
(6.76713828286e-05 -0.000336279007509 -0.0018040469633)
(0.000100214894398 -0.000323571606178 -0.0017726841809)
(0.000130856307066 -0.000306155047987 -0.0017271438549)
(0.000158965425233 -0.000284389354814 -0.0016654355135)
(0.000183881906544 -0.000258601458562 -0.00158447841999)
(0.000204589991541 -0.000229692312983 -0.00147991037811)
(-0.000224210104181 -0.000249119869669 -0.00185510679043)
(-0.000201516693806 -0.000278749626912 -0.00196939120522)
(-0.000174246502938 -0.000305082866134 -0.00205682015503)
(-0.000143588461781 -0.000327334315616 -0.00212302349802)
(-0.000110261667586 -0.000345199086141 -0.00217172380465)
(-7.49087084088e-05 -0.000358305221716 -0.00220527401374)
(-3.8156249547e-05 -0.000366342520741 -0.00222503596801)
(-6.77310187699e-07 -0.000369095610766 -0.00223172331436)
(3.68085610243e-05 -0.000366486665448 -0.00222556575908)
(7.35825776673e-05 -0.000358591639183 -0.00220636537294)
(0.000108971877978 -0.000345620782483 -0.00217340927418)
(0.000142349547246 -0.000327879293141 -0.00212534043582)
(0.000173073992728 -0.000305733832098 -0.0020598203229)
(0.000200432030745 -0.000279489323349 -0.00197318261342)
(0.000223254511293 -0.000249920287436 -0.00185985514244)
(-0.000238516021283 -0.000264564643627 -0.00220569277739)
(-0.000214039875281 -0.000293858804267 -0.00232335894188)
(-0.00018478141007 -0.000319789915847 -0.00241222578274)
(-0.000152085721642 -0.000341686343344 -0.00247905825441)
(-0.000116685922905 -0.000359290009934 -0.00252800495108)
(-7.92140906777e-05 -0.000372230012324 -0.00256162040541)
(-4.0308952226e-05 -0.000380174682786 -0.00258137490195)
(-6.60106867686e-07 -0.000382894671191 -0.00258804887857)
(3.89949493395e-05 -0.000380308182271 -0.00258190377495)
(7.79195221699e-05 -0.000372495530643 -0.00256271040035)
(0.000115424350732 -0.00035968153034 -0.00252968943876)
(0.000150870679277 -0.000342193386917 -0.00248137511836)
(0.000183627165722 -0.000320397573053 -0.00241522696348)
(0.000212967263373 -0.000294552392984 -0.00232715964797)
(0.000237561948027 -0.00026532458501 -0.00221047473152)
(-0.000248699780244 -0.00027542672676 -0.00252208889046)
(-0.000222776781382 -0.000303460328778 -0.00263947785105)
(-0.000191988844579 -0.000328210606831 -0.00272727040845)
(-0.000157819633224 -0.000349099258449 -0.00279309860957)
(-0.000120978916746 -0.000365927073776 -0.00284126692659)
(-8.2070629234e-05 -0.000378325139407 -0.00287433654181)
(-4.17314155088e-05 -0.00038594676378 -0.00289376361026)
(-6.51047193061e-07 -0.000388555912744 -0.00290032722464)
(4.04350621392e-05 -0.000386069758799 -0.00289429661566)
(8.07923448279e-05 -0.0003785699454 -0.00287543458575)
(0.000119731501979 -0.000366288491061 -0.00284296308427)
(0.000156616009299 -0.000349568185513 -0.00279542934747)
(0.000190842372315 -0.00032877428379 -0.00273028512202)
(0.000221707745665 -0.000304106539812 -0.00264329686786)
(0.000247741889554 -0.000276142655998 -0.00252690354853)
(-0.000255037214775 -0.000281970547394 -0.00280421867325)
(-0.000227995630688 -0.000307878501465 -0.00291919889363)
(-0.000196134811296 -0.000330727481113 -0.00300481604016)
(-0.000161027562171 -0.000350024548475 -0.00306917362952)
(-0.000123330024434 -0.000365617846011 -0.00311642053358)
(-8.36088885738e-05 -0.000377135191422 -0.00314893983554)
(-4.2490540083e-05 -0.000384223636439 -0.00316807241306)
(-6.51545955407e-07 -0.000386650612757 -0.00317454424385)
(4.11928818408e-05 -0.000384336445947 -0.00316861469184)
(8.23284340371e-05 -0.000377359870832 -0.00315005616691)
(0.00012207914268 -0.000365949999798 -0.00311814353104)
(0.000159818849393 -0.000350456436773 -0.00307153757489)
(0.000194981107691 -0.000331248408424 -0.00300786616589)
(0.000226916691984 -0.000308478850913 -0.0029230601994)
(0.000254064904623 -0.000282642530285 -0.00280908993941)
(-0.000257790528574 -0.000284443795946 -0.00305412935572)
(-0.000229966850999 -0.000307402371132 -0.00316565983495)
(-0.000197494366713 -0.000327691832362 -0.00324898538224)
(-0.000161949514939 -0.00034488824936 -0.00331214437539)
(-0.000123923474232 -0.000358841257782 -0.00335882898782)
(-8.39517661689e-05 -0.00036916904679 -0.0033911104981)
(-4.26473946124e-05 -0.000375528623244 -0.0034101548405)
(-6.61041241322e-07 -0.000377706480862 -0.00341660792394)
(4.1330528198e-05 -0.000375631296713 -0.00341071027683)
(8.26514703115e-05 -0.000369373723937 -0.0033922533131)
(0.000122651827682 -0.000359144495616 -0.00336059202724)
(0.00016071896989 -0.00034528369519 -0.00331456013415)
(0.000196317534568 -0.000328170938346 -0.00325209382676)
(0.000228863098823 -0.000307958152754 -0.00316958958059)
(0.000256790691813 -0.000285071715731 -0.00305908943707)
(-0.000257190135233 -0.000282980964959 -0.00327400687613)
(-0.00022898340287 -0.000302262742202 -0.00338186652382)
(-0.000196355588155 -0.000319450373705 -0.0034634897516)
(-0.000160814275517 -0.000334131865919 -0.00352613863264)
(-0.000122921442302 -0.000346088070307 -0.00357284617531)
(-8.32022177622e-05 -0.000354938783883 -0.00360531987164)
(-4.22516676742e-05 -0.000360383322754 -0.00362453649548)
(-6.78009865137e-07 -0.000362247420641 -0.00363105855477)
(4.09006522795e-05 -0.000360475509882 -0.00362510683117)
(8.18670975631e-05 -0.000355122961431 -0.00360649344068)
(0.000121614069483 -0.000346361637036 -0.00357465761511)
(0.000159547077679 -0.000334490220845 -0.00352862063209)
(0.000195141148013 -0.000319887134324 -0.00346667647749)
(0.000227840886088 -0.000302773842391 -0.00338588407202)
(0.000256150262435 -0.000283562857857 -0.00327907402679)
(-0.0002536456928 -0.000277715466795 -0.00346473399022)
(-0.000225500739182 -0.000292783927157 -0.00356986624142)
(-0.00019302981896 -0.000306455508688 -0.00365094376687)
(-0.000157815196412 -0.000318279912047 -0.00371394994823)
(-0.000120444882193 -0.000327893263627 -0.0037613171865)
(-8.1434515547e-05 -0.000334978938274 -0.00379441833045)
(-4.13390018611e-05 -0.000339322329892 -0.00381405877952)
(-7.00583259747e-07 -0.000340808808306 -0.00382073126978)
(3.9942486568e-05 -0.000339403539924 -0.00381464270491)
(8.00531377136e-05 -0.00033514149591 -0.00379562105771)
(0.00011909011649 -0.000328135700878 -0.0037631773666)
(0.000156499420889 -0.000318599276837 -0.00371650504088)
(0.000191765826139 -0.000306847836846 -0.00365422491007)
(0.000224307775997 -0.000293248110601 -0.00357398558183)
(0.00025255211595 -0.000278249700467 -0.00346989339421)
(-0.000248242867291 -0.000270254622627 -0.00362414667149)
(-0.000220254198244 -0.000279415363911 -0.0037304618386)
(-0.000187863928152 -0.000289361738631 -0.00381233348477)
(-0.000153218664605 -0.000297880892555 -0.00387665046537)
(-0.000116709278589 -0.000304722834075 -0.00392538724741)
(-7.88084379279e-05 -0.000309714884373 -0.00395959969972)
(-3.99947165795e-05 -0.000312756770727 -0.00397993698111)
(-7.27300566903e-07 -0.000313798472203 -0.00398684406413)
(3.85446145942e-05 -0.000312826076584 -0.0039805282578)
(7.73727542923e-05 -0.00030985390373 -0.00396081993879)
(0.00011529928221 -0.000304930890581 -0.00392728044317)
(0.000151846923944 -0.000298156256585 -0.00387926509731)
(0.000186543560999 -0.000289702095939 -0.00381570641506)
(0.000219007278904 -0.000279823692509 -0.00373473082714)
(0.000247083461471 -0.000270729373901 -0.00362927473313)
(6.76475075732e-07 1.09594509587e-06 -4.41674085175e-05)
(3.01814666691e-07 1.53940153662e-06 -4.54538936253e-05)
(-6.69267294373e-09 1.82423283675e-06 -4.60173078264e-05)
(-1.94380943579e-07 1.9754424088e-06 -4.61577012756e-05)
(-2.77678637648e-07 2.04021830483e-06 -4.6079952609e-05)
(-2.54925892882e-07 2.05399405416e-06 -4.59218981896e-05)
(-1.53482342009e-07 2.04849853385e-06 -4.577925897e-05)
(-9.26824016057e-09 2.04492409697e-06 -4.57279667134e-05)
(1.35806034341e-07 2.05046830674e-06 -4.57864427524e-05)
(2.4083020606e-07 2.05896655416e-06 -4.59355536553e-05)
(2.7281786453e-07 2.05074029134e-06 -4.60989071748e-05)
(2.05578404306e-07 1.99496377733e-06 -4.61842470021e-05)
(3.79855664148e-08 1.85721209583e-06 -4.60547190145e-05)
(-2.51946913277e-07 1.58726135727e-06 -4.55095739843e-05)
(-6.22693154724e-07 1.15089339751e-06 -4.42598784869e-05)
(5.29251987244e-06 6.64291420084e-06 -0.000154334822424)
(4.20388934222e-06 8.42342267898e-06 -0.000160399652753)
(3.10293814379e-06 9.84356776512e-06 -0.000164229945842)
(2.17863163502e-06 1.08875444991e-05 -0.000166569546032)
(1.41156241383e-06 1.16212355134e-05 -0.00016793483505)
(8.16572789329e-07 1.20953647509e-05 -0.00016865735077)
(3.49332811211e-07 1.23572515586e-05 -0.000168964559601)
(-4.84034372866e-08 1.24432290372e-05 -0.000169059150057)
(-4.42775631461e-07 1.23656797145e-05 -0.000168988165814)
(-8.97068959867e-07 1.21155551038e-05 -0.000168702575044)
(-1.46180559239e-06 1.166044535e-05 -0.000167996206306)
(-2.17621355007e-06 1.09543394628e-05 -0.000166655156733)
(-3.03294951401e-06 9.95002875636e-06 -0.000164349278054)
(-4.06918027914e-06 8.57123936135e-06 -0.000160574102441)
(-5.13249972956e-06 6.8119506862e-06 -0.000154609726783)
(1.20680934767e-05 1.45755301504e-05 -0.000284305897662)
(1.02796424714e-05 1.78244723359e-05 -0.000297004124978)
(8.30072499759e-06 2.05752461552e-05 -0.00030585969825)
(6.43449013928e-06 2.2733454036e-05 -0.000311954425933)
(4.66669749489e-06 2.43583470588e-05 -0.000316042446803)
(3.02940094149e-06 2.54819071939e-05 -0.000318625749338)
(1.48892145824e-06 2.61427090398e-05 -0.000320036898256)
(6.81181045263e-10 2.63673770357e-05 -0.00032049954162)
(-1.48529264544e-06 2.6164944252e-05 -0.000320071648515)
(-3.01620916993e-06 2.55291935619e-05 -0.00031869372124)
(-4.62931216392e-06 2.44362111962e-05 -0.000316143346212)
(-6.35230438544e-06 2.28483142788e-05 -0.000312096588976)
(-8.1583791596e-06 2.07338618352e-05 -0.000306057969819)
(-1.00799308335e-05 1.80254798428e-05 -0.000297291278229)
(-1.18514647994e-05 1.47954775702e-05 -0.000284748455416)
(1.962825708e-05 2.32224896399e-05 -0.000431840997035)
(1.71017247747e-05 2.77357340817e-05 -0.000452634005147)
(1.41823688087e-05 3.16555094926e-05 -0.000467894933546)
(1.12756377196e-05 3.47981215437e-05 -0.000478967345125)
(8.38405866891e-06 3.72149925592e-05 -0.000486781175503)
(5.55982077894e-06 3.89182899186e-05 -0.000491961700385)
(2.7880043758e-06 3.99349348447e-05 -0.00049491849401)
(4.51477600988e-08 4.02830616685e-05 -0.000495898340436)
(-2.6961103331e-06 3.99688280189e-05 -0.000494966646335)
(-5.46080889286e-06 3.89883726293e-05 -0.000492056915738)
(-8.26594347767e-06 3.73250834931e-05 -0.000486925561363)
(-1.11203200451e-05 3.49521101719e-05 -0.000479170222999)
(-1.39750253102e-05 3.18555040678e-05 -0.00046817464217)
(-1.68442429238e-05 2.79767751588e-05 -0.000453030674988)
(-1.935975231e-05 2.3479185337e-05 -0.000432435066265)
(2.67101318146e-05 3.11765216991e-05 -0.000594229830622)
(2.34200171108e-05 3.65227086373e-05 -0.000624145509605)
(1.95854036341e-05 4.12026409206e-05 -0.000646773394136)
(1.5685486477e-05 4.49647478296e-05 -0.000663675848216)
(1.17456329128e-05 4.78680571673e-05 -0.000675913969143)
(7.83437748017e-06 4.99211752273e-05 -0.000684205000184)
(3.95060184378e-06 5.11502522289e-05 -0.000689015894095)
(8.33425532126e-08 5.15718951713e-05 -0.00069061671008)
(-3.78249927409e-06 5.11919008123e-05 -0.000689080049965)
(-7.66024784191e-06 5.00062739809e-05 -0.000684332165914)
(-1.15555131631e-05 4.7999255825e-05 -0.000676106926725)
(-1.54638276155e-05 4.51440963567e-05 -0.000663944188215)
(-1.93188598981e-05 4.14293718326e-05 -0.000647136643504)
(-2.31096209808e-05 3.67893273346e-05 -0.000624647599858)
(-2.63929766124e-05 3.14571100391e-05 -0.000594960017549)
(3.25772664865e-05 3.76298600445e-05 -0.000768774308564)
(2.85358786449e-05 4.33218002746e-05 -0.000808477134884)
(2.38869903285e-05 4.82889297413e-05 -0.000839093975023)
(1.91406801912e-05 5.22531732395e-05 -0.000862387712628)
(1.43452099461e-05 5.52967650294e-05 -0.000879517113126)
(9.57629528389e-06 5.74413202243e-05 -0.000891266230391)
(4.83660546049e-06 5.87227430746e-05 -0.00089814299674)
(1.15214449873e-07 5.9162728655e-05 -0.000900436683003)
(-4.60462959068e-06 5.87689775535e-05 -0.000898226430643)
(-9.3384330805e-06 5.75352025636e-05 -0.000891431357835)
(-1.40930413613e-05 5.54401385304e-05 -0.000879766021085)
(-1.88610538825e-05 5.24468247315e-05 -0.000862728740267)
(-2.35684574161e-05 4.85302627235e-05 -0.000839545221629)
(-2.81790292369e-05 4.36021878993e-05 -0.000809083403984)
(-3.22157775472e-05 3.79235405172e-05 -0.000769630899435)
(3.6893925814e-05 4.22329133505e-05 -0.000953116618862)
(3.21663687401e-05 4.78388341426e-05 -0.00100301578399)
(2.68623508445e-05 5.267303031e-05 -0.00104201462227)
(2.14739472581e-05 5.64810541717e-05 -0.00107207314786)
(1.60674750443e-05 5.93748131415e-05 -0.00109441825685)
(1.0714703968e-05 6.13985171646e-05 -0.00110987487915)
(5.41276855209e-06 6.26025557462e-05 -0.00111897367353)
(1.41035114008e-07 6.30165241345e-05 -0.00112201429699)
(-5.12884269551e-06 6.26507653317e-05 -0.00111908016375)
(-1.04244859626e-05 6.14960913658e-05 -0.00111008523745)
(-1.57636613127e-05 5.95230324147e-05 -0.00109473262795)
(-2.1145611266e-05 5.66799716728e-05 -0.00107249680814)
(-2.64999088069e-05 5.29189731335e-05 -0.00104256166481)
(-3.17704014387e-05 4.81229097212e-05 -0.00100372977343)
(-3.64941117979e-05 4.2530524225e-05 -0.000954096480238)
(3.96125331983e-05 4.49644885738e-05 -0.00114531386437)
(3.43136785522e-05 5.01600632219e-05 -0.00120562989385)
(2.85470373098e-05 5.45485171021e-05 -0.00125323728943)
(2.2741054375e-05 5.79462668606e-05 -0.00129030037772)
(1.69721606739e-05 6.04917406329e-05 -0.00131808573467)
(1.12989193399e-05 6.22537164735e-05 -0.00133743093783)
(5.70691424343e-06 6.32959451757e-05 -0.00134886884848)
(1.61140873365e-07 6.3655140374e-05 -0.0013526978019)
(-5.38236514743e-06 6.33439106662e-05 -0.00134900223976)
(-1.09673248911e-05 6.2350657119e-05 -0.00133769431408)
(-1.66270059436e-05 6.06386431202e-05 -0.00131847628408)
(-2.2373371967e-05 5.81427648945e-05 -0.00129081858878)
(-2.81491578421e-05 5.47905918627e-05 -0.00125389102551)
(-3.38862059168e-05 5.04389723005e-05 -0.00120646067574)
(-3.91810842981e-05 4.52582144651e-05 -0.0011464203192)
(4.08693719479e-05 4.60114813184e-05 -0.00134368562522)
(3.51474189944e-05 5.05883101626e-05 -0.00141444788843)
(2.91183676299e-05 5.43348303739e-05 -0.00147072025922)
(2.31101581742e-05 5.71737649092e-05 -0.00151489135677)
(1.7201499919e-05 5.92617369378e-05 -0.0015482370205)
(1.1431952917e-05 6.06881674842e-05 -0.001571577623)
(5.77329824905e-06 6.15258188589e-05 -0.00158542689784)
(1.76132094819e-07 6.18156889526e-05 -0.00159007050855)
(-5.41833107151e-06 6.15717318206e-05 -0.00158559083965)
(-1.1069030073e-05 6.07809327253e-05 -0.00157190139491)
(-1.68246494489e-05 5.94022392827e-05 -0.00154871456747)
(-2.27120243932e-05 5.73615564046e-05 -0.00151551698125)
(-2.86930543152e-05 5.45660542145e-05 -0.00147149415007)
(-3.46957918966e-05 5.08550501195e-05 -0.0014154094037)
(-4.04128576016e-05 4.62948057475e-05 -0.00134492994394)
(4.0892474392e-05 4.56614404264e-05 -0.00154654799832)
(3.49085334625e-05 4.95105351114e-05 -0.00162753478588)
(2.88041431754e-05 5.25185252237e-05 -0.0016923195008)
(2.27823992019e-05 5.47356109309e-05 -0.00174354218343)
(1.69171706014e-05 5.63268182087e-05 -0.00178244596708)
(1.12268187695e-05 5.73951101079e-05 -0.00180980006486)
(5.67030954128e-06 5.80165548976e-05 -0.00182607896054)
(1.86803385887e-07 5.82331287269e-05 -0.00183154571998)
(-5.29358489957e-06 5.80589596939e-05 -0.00182627788176)
(-1.08411965273e-05 5.74808542297e-05 -0.00181019331818)
(-1.65169843277e-05 5.6456824539e-05 -0.00178302425746)
(-2.23616164006e-05 5.49096218234e-05 -0.00174429281064)
(-2.83584042106e-05 5.27332385693e-05 -0.00169323289843)
(-3.44392182153e-05 4.97593353325e-05 -0.00162864689346)
(-4.04169270219e-05 4.59292065544e-05 -0.00154795061486)
(3.99357200154e-05 4.42248388671e-05 -0.00175191439112)
(3.38455054163e-05 4.73094605615e-05 -0.00184257592982)
(2.78273187437e-05 4.95559111809e-05 -0.0019154934363)
(2.19468095898e-05 5.11488419753e-05 -0.00197355100218)
(1.62665158391e-05 5.22524822994e-05 -0.00201788890986)
(1.07843350481e-05 5.29746996074e-05 -0.00204918573179)
(5.44944067206e-06 5.33890539988e-05 -0.00206785816311)
(1.94063811326e-07 5.35352725845e-05 -0.002074138594)
(-5.05783734323e-06 5.34267864758e-05 -0.00206809786931)
(-1.03829962565e-05 5.30510971832e-05 -0.00204965994518)
(-1.58499088155e-05 5.23686188413e-05 -0.00201858427302)
(-2.15098059268e-05 5.13048681446e-05 -0.00197444691525)
(-2.73667422684e-05 4.97495416221e-05 -0.00191656938487)
(-3.33633219213e-05 4.75358004316e-05 -0.0018438645977)
(-3.94457748064e-05 4.44734796775e-05 -0.00175350362006)
(3.82368754373e-05 4.19904889818e-05 -0.00195717017962)
(3.21791893236e-05 4.43159814034e-05 -0.00205659916873)
(2.63800367407e-05 4.58262335118e-05 -0.00213710532867)
(2.07621234905e-05 4.68329293108e-05 -0.00220167620343)
(1.53705430314e-05 4.74904025365e-05 -0.00225123729649)
(1.01858508568e-05 4.79012814435e-05 -0.00228633832459)
(5.15178550392e-06 4.81305978425e-05 -0.00230732558423)
(1.98724967414e-07 4.82139372654e-05 -0.00231439582406)
(-4.75059122889e-06 4.81626593568e-05 -0.0023076116761)
(-9.77420829554e-06 4.79664388378e-05 -0.00228690475571)
(-1.49428825008e-05 4.7590026202e-05 -0.00225206682841)
(-2.03138774451e-05 4.69677791035e-05 -0.00220274032023)
(-2.59087951197e-05 4.59952842139e-05 -0.00213837144036)
(-3.16873110328e-05 4.45162978215e-05 -0.00205809647905)
(-3.77353730409e-05 4.22163335918e-05 -0.0019589829072)
(3.59889982551e-05 3.91905672666e-05 -0.00215866156126)
(3.00885222584e-05 4.07825875751e-05 -0.002265761597)
(2.46195630098e-05 4.16152323099e-05 -0.00235335526054)
(1.93561751337e-05 4.21025031732e-05 -0.00242411845727)
(1.43247056755e-05 4.23780798617e-05 -0.00247865832394)
(9.49411476298e-06 4.25272948947e-05 -0.00251738906644)
(4.80868793466e-06 4.260267423e-05 -0.00254058791713)
(2.01431652784e-07 4.26329100633e-05 -0.00254841561336)
(-4.40184430393e-06 4.26283789716e-05 -0.0025409254724)
(-9.07618762138e-06 4.25799254241e-05 -0.00251805816456)
(-1.38900108253e-05 4.24592536154e-05 -0.00247963950331)
(-1.89004023864e-05 4.22138413287e-05 -0.00242537682081)
(-2.41407039435e-05 4.1757173929e-05 -0.00235484507333)
(-2.95891279916e-05 4.09541715286e-05 -0.00226750482624)
(-3.54775390108e-05 3.93899535998e-05 -0.00216073773029)
(3.33417942479e-05 3.59855512765e-05 -0.00235107749066)
(2.77331604443e-05 3.69121739323e-05 -0.00246538960959)
(2.26880348613e-05 3.71370895435e-05 -0.0025599425162)
(1.78372214758e-05 3.71931894792e-05 -0.00263663278207)
(1.3205443113e-05 3.71639867161e-05 -0.00269589192294)
(8.75796447831e-06 3.71082242542e-05 -0.00273805677629)
(4.44392460533e-06 3.70633793603e-05 -0.00276334986792)
(2.02707187056e-07 3.70519457948e-05 -0.00277189717623)
(-4.034329393e-06 3.70824002694e-05 -0.00276374212981)
(-8.33682093792e-06 3.7147638477e-05 -0.00273883624504)
(-1.27667800904e-05 3.72258706119e-05 -0.0026970402411)
(-1.73765702471e-05 3.72799702677e-05 -0.00263811344252)
(-2.22035678189e-05 3.72505312237e-05 -0.00256169801433)
(-2.72277517053e-05 3.70534579561e-05 -0.00246742247887)
(-3.28213780686e-05 3.61563417831e-05 -0.00235344915906)
(3.04032766574e-05 3.28126408723e-05 -0.00252706610575)
(2.52942254374e-05 3.28198925298e-05 -0.0026514648169)
(2.07041717991e-05 3.25488236911e-05 -0.00275266616963)
(1.62843842018e-05 3.2267943114e-05 -0.00283479479089)
(1.20650385286e-05 3.20004325808e-05 -0.00289839092306)
(8.00895503985e-06 3.17850836346e-05 -0.00294373349764)
(4.07293552962e-06 3.16465037356e-05 -0.00297097455223)
(2.03251120892e-07 3.16022191944e-05 -0.00298019336607)
(-3.66222593665e-06 3.16588023438e-05 -0.00297141975424)
(-7.58658961861e-06 3.18109016647e-05 -0.00294462137081)
(-1.16251212476e-05 3.20420943467e-05 -0.00289970857846)
(-1.58225109884e-05 3.23279748641e-05 -0.00283651342118)
(-2.02179729018e-05 3.26300716558e-05 -0.00275472419384)
(-2.47867578705e-05 3.2925254107e-05 -0.00265386940645)
(-2.9875082168e-05 3.29474415686e-05 -0.0025296861125)
(-3.15766381489e-07 -5.26717638228e-07 -0.000115491364778)
(-1.46050910415e-07 -7.34491483901e-07 -0.000120293113468)
(-3.05335832451e-08 -8.61270778845e-07 -0.000124049973566)
(4.77753504104e-08 -9.3637956476e-07 -0.000126990526754)
(8.54060834503e-08 -9.74927500014e-07 -0.000129219975864)
(8.59187608166e-08 -9.90664309485e-07 -0.000130790748341)
(5.91793381776e-08 -9.94627630174e-07 -0.000131729822903)
(1.80199220239e-08 -9.94103906068e-07 -0.000132049480677)
(-2.36911809916e-08 -9.91650663662e-07 -0.00013174085578)
(-5.26303059091e-08 -9.85219666755e-07 -0.000130812936223)
(-5.74529521633e-08 -9.68430929266e-07 -0.000129253660077)
(-2.93716555124e-08 -9.31050559031e-07 -0.000127036637014)
(3.65709698717e-08 -8.59896793206e-07 -0.000124110880579)
(1.39829617226e-07 -7.39955616363e-07 -0.000120376618571)
(3.03194674599e-07 -5.37512973373e-07 -0.000115622392123)
(-1.18452788285e-06 -1.67656751315e-06 -0.000346028507829)
(-7.12117807946e-07 -2.24646861301e-06 -0.000360126595816)
(-3.48693882938e-07 -2.63271072323e-06 -0.000371123026828)
(-8.46190874237e-08 -2.88033347854e-06 -0.000379662822948)
(7.35541819892e-08 -3.02252080226e-06 -0.000386090269523)
(1.34982390711e-07 -3.09445900766e-06 -0.000390592587381)
(1.25244394586e-07 -3.12360611471e-06 -0.000393272294072)
(7.73779021301e-08 -3.12881396549e-06 -0.000394178830891)
(2.70869022441e-08 -3.11723408896e-06 -0.000393304943339)
(8.34394865661e-09 -3.08380637133e-06 -0.000390658182243)
(4.96736790163e-08 -3.01219114139e-06 -0.000386189786295)
(1.72839273935e-07 -2.87671545509e-06 -0.000379798972832)
(3.8971939938e-07 -2.64504198081e-06 -0.000371302984282)
(7.0306907019e-07 -2.28273060618e-06 -0.000360373399969)
(1.14175235662e-06 -1.73089682431e-06 -0.000346401507279)
(-2.20524778461e-06 -3.01985704514e-06 -0.000573913947998)
(-1.50415310628e-06 -3.89051479874e-06 -0.000596976852108)
(-9.38594804824e-07 -4.50970952073e-06 -0.000614908778044)
(-5.06739770533e-07 -4.92663814123e-06 -0.000628761244616)
(-2.13086458089e-07 -5.18579907394e-06 -0.000639131915061)
(-4.33212668599e-08 -5.33231544969e-06 -0.000646364827422)
(3.56181809616e-08 -5.40273246556e-06 -0.000650655924521)
(6.6026522404e-08 -5.42189264152e-06 -0.000652104107201)
(9.46447391098e-08 -5.39879807833e-06 -0.000650715876502)
(1.66603796749e-07 -5.32606832995e-06 -0.000646484840689)
(3.19876769214e-07 -5.18083173871e-06 -0.000639312738086)
(5.83428788996e-07 -4.92830212916e-06 -0.000629005629796)
(9.73044203088e-07 -4.52506819182e-06 -0.000615225533992)
(1.49309747942e-06 -3.92647353779e-06 -0.000597397524748)
(2.16411968703e-06 -3.07176992351e-06 -0.000574521084152)
(-3.17162335562e-06 -4.21464591379e-06 -0.000798212549383)
(-2.28477183812e-06 -5.29487909895e-06 -0.000829898782654)
(-1.54260106774e-06 -6.08215098892e-06 -0.0008544728092)
(-9.5686225893e-07 -6.62383917017e-06 -0.000873380467974)
(-5.30854225204e-07 -6.97053316827e-06 -0.000887475557031)
(-2.46884610666e-07 -7.17412184684e-06 -0.000897270590426)
(-6.68641541976e-08 -7.27703805968e-06 -0.000903065882104)
(5.76446201517e-08 -7.30770207889e-06 -0.000905017813737)
(1.80760485333e-07 -7.27625089946e-06 -0.000903152976665)
(3.55186628454e-07 -7.17386627783e-06 -0.000897444540004)
(6.25479414479e-07 -6.97359132662e-06 -0.000887736561743)
(1.02556597631e-06 -6.63427099598e-06 -0.000873730718814)
(1.57358302975e-06 -6.10518642719e-06 -0.000854921209999)
(2.27361728932e-06 -5.33541824058e-06 -0.000830480760413)
(3.13182028301e-06 -4.26824526006e-06 -0.000799023164072)
(-4.04021211961e-06 -5.23559174418e-06 -0.00101881153836)
(-3.00902568051e-06 -6.44840751797e-06 -0.00105886710103)
(-2.12087087653e-06 -7.34345125582e-06 -0.0010898869422)