/*--------------------------------*- C++ -*----------------------------------*\
  =========                 |
  \\      /  F ield         | OpenFOAM: The Open Source CFD Toolbox
   \\    /   O peration     | Website:  https://openfoam.org
    \\  /    A nd           | Version:  7
     \\/     M anipulation  |
\*---------------------------------------------------------------------------*/
FoamFile
{
    version     2.0;
    format      ascii;
    class       surfaceScalarField;
    location    "1.22";
    object      phi;
}
// * * * * * * * * * * * * * * * * * * * * * * * * * * * * * * * * * * * * * //

dimensions      [0 3 -1 0 0 0 0];

internalField   nonuniform List<scalar> 
65775
(
-6.12030975586e-12
-1.75407044306e-11
-3.90084776342e-11
4.31999307533e-14
-1.0748451701e-11
-1.71579617748e-11
-4.4054917752e-11
-1.30993761298e-11
-1.69643844762e-11
-4.94327753946e-11
-1.31108508935e-11
-1.6636077517e-11
-5.46230024886e-11
-1.09885680856e-11
-1.62646935878e-11
-5.91683453175e-11
-7.19372493676e-12
-1.59112919844e-11
-6.27000601367e-11
-2.33224299511e-12
-1.56692689234e-11
-6.49593048531e-11
2.89544276767e-12
-1.55932307186e-11
-6.57634218754e-11
7.74663678876e-12
-1.56829765255e-11
-6.49548281298e-11
1.15222990889e-11
-1.59383081206e-11
-6.26911199596e-11
1.36173393539e-11
-1.63057011722e-11
-5.91548320828e-11
1.35733783657e-11
-1.6690815925e-11
-5.46044059213e-11
1.11861290414e-11
-1.70326203495e-11
-4.94074256007e-11
6.52552112949e-12
-1.72319202806e-11
-4.40168802298e-11
-1.75430450176e-11
-3.89392847019e-11
3.42518962664e-13
-1.49927231271e-11
2.93880030434e-11
-9.16390207108e-11
9.21213031937e-14
-2.69717170808e-11
3.51410106995e-11
-1.03125144059e-10
-3.35015706146e-11
3.95045432151e-11
-1.15630628862e-10
-3.39328560042e-11
4.34600749675e-11
-1.27860166699e-10
-2.86637674812e-11
4.69017124964e-11
-1.38658491177e-10
-1.88322645568e-11
4.96293530864e-11
-1.47091334292e-10
-6.06655667475e-12
5.13995545045e-11
-1.52498848756e-10
7.70920764952e-12
5.20260680863e-11
-1.54420659499e-10
2.04454695168e-11
5.13716736754e-11
-1.52485316457e-10
3.02208840659e-11
4.95732974636e-11
-1.47064404757e-10
3.54102797066e-11
4.68152692147e-11
-1.38617908713e-10
3.48800320619e-11
4.33411834864e-11
-1.27804551214e-10
2.82378593079e-11
3.93516180444e-11
-1.15555329737e-10
1.6123198875e-11
3.49811192922e-11
-1.03013814442e-10
2.93806590976e-11
-9.14505554632e-11
9.64339260592e-13
-2.078067281e-11
1.16602080901e-10
-1.23206319856e-10
1.200222326e-13
-3.79389651643e-11
1.30772078802e-10
-1.38313090342e-10
-4.76892987734e-11
1.41641182371e-10
-1.55096996474e-10
-4.86996298541e-11
1.50997277779e-10
-1.71718185811e-10
-4.13517324349e-11
1.58868669369e-10
-1.8651286281e-10
-2.72217051768e-11
1.64948540605e-10
-1.981252084e-10
-8.6993679373e-12
1.6885896227e-10
-2.05589135928e-10
1.13391961414e-11
1.70264866057e-10
-2.08237855884e-10
2.9814812757e-11
1.68828406267e-10
-2.05567138219e-10
4.3854873695e-11
1.64885697584e-10
-1.98081517947e-10
5.10739177994e-11
1.58768768845e-10
-1.86447209646e-10
4.99005025282e-11
1.50854282852e-10
-1.71628694623e-10
3.99597046207e-11
1.41449575762e-10
-1.54977235704e-10
2.25607336085e-11
1.30580144687e-10
-1.38140429708e-10
1.16617599748e-10
-1.2292551131e-10
1.52658987729e-12
-2.41398460833e-11
2.25885123099e-10
-1.38972540785e-10
1.36104597173e-13
-4.45652736041e-11
2.49925883259e-10
-1.55605341349e-10
-5.65814649159e-11
2.68431708371e-10
-1.74505104928e-10
-5.81986492153e-11
2.83909386161e-10
-1.93484483137e-10
-4.96428174998e-11
2.96669434937e-10
-2.1053040266e-10
-3.27248708615e-11
3.06382764382e-10
-2.23985638979e-10
-1.03524103938e-11
3.1259338523e-10
-2.32657635154e-10
1.39084531538e-11
3.1483993636e-10
-2.35731155212e-10
3.62184868872e-11
3.12571719084e-10
-2.32628096131e-10
5.30152553399e-11
3.06335717701e-10
-2.23927102791e-10
6.13960147454e-11
2.96589497149e-10
-2.10442762812e-10
5.95549399632e-11
2.83786416322e-10
-1.93365871527e-10
4.72719087951e-11
2.68254799186e-10
-1.74348691547e-10
2.65130916014e-11
2.49759884748e-10
-1.55386134477e-10
2.25954891398e-10
-1.3862950758e-10
2.04508793623e-12
-2.54666421584e-11
3.42523829409e-10
-1.42052511209e-10
1.44222096737e-13
-4.75262299078e-11
3.76607989625e-10
-1.58536223841e-10
-6.09113758278e-11
4.028644352e-10
-1.77798132084e-10
-6.30829049276e-11
4.24363053609e-10
-1.97469531907e-10
-5.40365030639e-11
4.41799905009e-10
-2.15326485556e-10
-3.56502608429e-11
4.54921682813e-10
-2.29516446441e-10
-1.11268484022e-11
4.63267643353e-10
-2.38691985986e-10
1.55276301725e-11
4.66295219397e-10
-2.41940247229e-10
3.99741236457e-11
4.63265663899e-10
-2.38655673442e-10
5.82102014484e-11
4.54912294199e-10
-2.29444683715e-10
6.70381298889e-11
4.41772824231e-10
-2.15219600202e-10
6.45855572672e-11
4.24304281455e-10
-1.97326286599e-10
5.0862750966e-11
4.02756949648e-10
-1.77612636992e-10
2.83897663104e-11
3.76526467885e-10
-1.58283609631e-10
3.42688193498e-10
-1.41670651284e-10
2.5306136261e-12
-2.51049441434e-11
4.54902871319e-10
-1.35200178893e-10
1.47057887103e-13
-4.74003249785e-11
4.98182617096e-10
-1.50228230424e-10
-6.13260297452e-11
5.31484183449e-10
-1.68464406957e-10
-6.39413888905e-11
5.58286391325e-10
-1.87492336834e-10
-5.49887365867e-11
5.79717037608e-10
-2.04994792038e-10
-3.62809403598e-11
5.95682143021e-10
-2.19016713202e-10
-1.11150198458e-11
6.05784620872e-10
-2.28120190867e-10
1.63002960787e-11
6.0945445811e-10
-2.31339502511e-10
4.13758403649e-11
6.05812808459e-10
-2.28077622039e-10
5.99063590138e-11
5.95731579716e-10
-2.18932846425e-10
6.85999449593e-11
5.79775259066e-10
-2.048707146e-10
6.56503918683e-11
5.58335439357e-10
-1.87328093027e-10
5.13231302233e-11
5.31500904381e-10
-1.68256146544e-10
2.85451983467e-11
4.98242425369e-10
-1.49952499528e-10
4.55207244452e-10
-1.34795336298e-10
2.9884119369e-12
-2.33409059049e-11
5.5414165525e-10
-1.20865860304e-10
1.46402337758e-13
-4.46720537942e-11
6.04987140589e-10
-1.33457990021e-10
-5.83801947506e-11
6.44011473065e-10
-1.49607682148e-10
-6.12902692999e-11
6.74969432491e-10
-1.66953658406e-10
-5.29050437725e-11
6.99414598966e-10
-1.83182672714e-10
-3.48710287129e-11
7.17460462405e-10
-1.96317713899e-10
-1.04000130857e-11
7.28822043765e-10
-2.04888630833e-10
1.63200792062e-11
7.32951360092e-10
-2.07916532131e-10
4.06881540373e-11
7.28889826642e-10
-2.04840039828e-10
5.85196022746e-11
7.17588136879e-10
-1.9622230303e-10
6.66079880985e-11
6.99588128381e-10
-1.83042597736e-10
6.33149046822e-11
6.75167061791e-10
-1.66770851722e-10
4.91476882529e-11
6.44203372707e-10
-1.49381141533e-10
2.72732465866e-11
6.05244134509e-10
-1.33166152655e-10
5.546354587e-10
-1.20448285766e-10
3.42380174227e-12
-2.04002973573e-11
6.33772987056e-10
-1.01237934009e-10
1.43116843865e-13
-3.97302922071e-11
6.9000311137e-10
-1.1070433229e-10
-5.25312061174e-11
7.33006425421e-10
-1.23999151743e-10
-5.55653520358e-11
7.66717981266e-10
-1.38890003186e-10
-4.8134632368e-11
7.93056481347e-10
-1.5314617284e-10
-3.16423340261e-11
8.12345308044e-10
-1.64838615159e-10
-9.05483979763e-12
8.24430457013e-10
-1.72518180414e-10
1.56692787939e-11
8.28822181618e-10
-1.75228483535e-10
3.81421598461e-11
8.24545973881e-10
-1.72463446205e-10
5.44084747768e-11
8.12568225297e-10
-1.6473153209e-10
6.15075043208e-11
7.93371762737e-10
-1.52990242501e-10
5.80457448089e-11
7.67100634116e-10
-1.38689511245e-10
4.47339099075e-11
7.33419802572e-10
-1.23756474875e-10
2.48053670117e-11
6.9050946948e-10
-1.10399842387e-10
6.34507796187e-10
-1.0081318773e-10
3.84059728049e-12
-1.64556706158e-11
6.89468492029e-10
-7.82831633335e-11
1.38054421511e-13
-3.28750520456e-11
7.48567715911e-10
-8.41958828204e-11
-4.4140971212e-11
7.93580947689e-10
-9.4128990432e-11
-4.71222804609e-11
8.28556626864e-10
-1.0602660282e-10
-4.09706365253e-11
8.55661486113e-10
-1.17803253577e-10
-2.67848876568e-11
8.75382202427e-10
-1.2763952841e-10
-7.14281751835e-12
8.87681456828e-10
-1.34157128724e-10
1.44190787041e-11
8.92147845888e-10
-1.36454983096e-10
3.39358220589e-11
8.87851006461e-10
-1.34095666817e-10
4.7874048356e-11
8.75713628775e-10
-1.27519646947e-10
5.36621456716e-11
8.56139786584e-10
-1.17630053328e-10
5.0212454908e-11
8.29154249268e-10
-1.05807191896e-10
3.8388297694e-11
7.94255439772e-10
-9.38695370654e-11
2.13185200826e-11
7.49370583995e-10
-8.38785445371e-11
6.90495018094e-10
-7.78526361941e-11
4.24197470444e-12
-1.16350196393e-11
7.18812096228e-10
-5.37860228392e-11
1.31700505495e-13
-2.43266537515e-11
7.78135818427e-10
-5.59579839028e-11
-3.34856924068e-11
8.23162192076e-10
-6.22560010012e-11
-3.62474115947e-11
8.57983562438e-10
-7.08268245522e-11
-3.16604863289e-11
8.84838433654e-10
-7.97821764788e-11
-2.04647679064e-11
9.04284159027e-10
-8.74691693822e-11
-4.72048017876e-12
9.16360611717e-10
-9.26285713379e-11
1.26321822125e-11
9.20739780802e-10
-9.44455189221e-11
2.82413630308e-11
9.16588141583e-10
-9.2559351093e-11
3.91698908534e-11
9.04732786129e-10
-8.73344825273e-11
4.33641548402e-11
8.85494359839e-10
-7.95889572434e-11
4.00966792348e-11
8.58818410164e-10
-7.05853191224e-11
3.03354055186e-11
8.24129171927e-10
-6.19764624798e-11
1.69436352913e-11
7.79275360666e-10
-5.56242233005e-11
7.20177665107e-10
-5.33473832114e-11
4.63039546255e-12
-6.0276574447e-12
7.21117397661e-10
-2.93873310103e-11
1.24594873528e-13
-1.42367444905e-11
7.78091788003e-10
-2.78582700365e-11
-2.07766943405e-11
8.21309439621e-10
-3.04532878827e-11
-2.31846291824e-11
8.54774042202e-10
-3.55353370515e-11
-2.04320094428e-11
8.80558986413e-10
-4.14624526633e-11
-1.28423329269e-11
8.99173888093e-10
-4.68046211363e-11
-1.84431119217e-12
9.10686419112e-10
-5.04697614486e-11
1.03691018035e-11
9.14851191835e-10
-5.17587579934e-11
2.12230534581e-11
9.10973412567e-10
-5.03914800631e-11
2.85274441555e-11
8.99743579294e-10
-4.66524713734e-11
3.08606108685e-11
8.81400087005e-10
-4.12452519155e-11
2.79120377935e-11
8.55859561013e-10
-3.5266680784e-11
2.07280732757e-11
8.22591021248e-10
-3.01478730825e-11
1.17708044424e-11
7.79599028524e-10
-2.7501675368e-11
7.2286142625e-10
-2.89350838662e-11
5.00787417391e-12
3.34222958558e-13
6.97263798812e-10
-6.62246370067e-12
1.16427695047e-13
-2.6860106655e-12
7.49619422581e-10
-1.64760100025e-12
-6.18734621964e-12
7.89596771269e-10
-6.43171552742e-13
-8.17990481015e-12
8.20831150642e-10
-2.20752205342e-12
-7.53678551637e-12
8.4495849389e-10
-5.00188701475e-12
-4.1026605862e-12
8.62339044809e-10
-7.87824706483e-12
1.41867689651e-12
8.73038547703e-10
-9.9596157228e-12
7.69841005193e-12
8.76894342664e-10
-1.06904074911e-11
1.30671255155e-11
8.73384582593e-10
-9.87091343884e-12
1.61986464868e-11
8.63029215697e-10
-7.70565860698e-12
1.63967198093e-11
8.45985482836e-10
-4.75594047462e-12
1.38298340058e-11
8.22172152006e-10
-1.90518477149e-12
9.64338604154e-12
7.91205649512e-10
-3.04172727711e-13
5.82798059985e-12
7.51515340815e-10
-1.26015924128e-12
6.99413716167e-10
-6.14930923028e-12
5.37464159051e-12
7.51506794878e-12
6.49536322008e-10
1.30412815368e-11
1.06261728934e-13
1.02959706182e-11
6.95657738902e-10
2.1012574319e-11
1.00658675725e-11
7.31569492736e-10
2.53900682424e-11
8.42799149769e-12
7.60053496268e-10
2.72830668989e-11
6.68029514677e-12
7.82122651339e-10
2.76547153274e-11
5.50509610083e-12
7.97972739577e-10
2.73101934562e-11
4.97768440936e-12
8.0767294034e-10
2.68660688051e-11
4.70990585612e-12
8.11152046793e-10
2.67102906243e-11
4.0208380876e-12
8.08076629678e-10
2.69660870579e-11
2.52544593509e-12
7.98780782702e-10
2.75053976193e-11
3.06770983194e-13
7.83331818965e-10
2.79335760416e-11
-1.93960358853e-12
7.61648028149e-10
2.76257434003e-11
-2.89728513508e-12
7.33510562531e-10
2.57710149833e-11
-9.60841923528e-13
6.97957646422e-10
2.14382006018e-11
6.52116134594e-10
1.35402332471e-11
5.70993091297e-12
1.56685067289e-11
5.81501799868e-10
2.81722838108e-11
9.10032477002e-14
2.44313976173e-11
6.21124099199e-10
3.85752710762e-11
2.73603832339e-11
6.52712420947e-10
4.60512450876e-11
2.59120272076e-11
6.7809043412e-10
5.12910452609e-11
2.15817466243e-11
6.97749232781e-10
5.48067254821e-11
1.55543105585e-11
7.11807032123e-10
5.70090848359e-11
8.68422160914e-12
7.20357611508e-10
5.82197259205e-11
1.55118653382e-12
7.23409351619e-10
5.86423707009e-11
-5.4912735534e-12
7.2081865344e-10
5.83316648707e-11
-1.18594036211e-11
7.12730765961e-10
5.72285239204e-11
-1.66894637622e-11
6.99135287821e-10
5.5122003472e-11
-1.87828743375e-11
6.79930713394e-10
5.16807542809e-11
-1.66236222335e-11
6.54980036115e-10
4.6483843186e-11
-8.7559739759e-12
6.23837420231e-10
3.9045533241e-11
5.84514757589e-10
2.86950715455e-11
6.02778938463e-12
2.27317595498e-11
3.73592062925e-11
7.8837388022e-14
5.00191906739e-10
3.73141397289e-11
4.9778777512e-11
5.32542180361e-10
4.35104148663e-11
6.00871365332e-11
5.59544966586e-10
4.25367248716e-11
6.85231180612e-11
5.81433339334e-10
3.59429656055e-11
7.50992210674e-11
5.98379398473e-10
2.53229397339e-11
7.98029815409e-11
6.1048938614e-10
1.22976084181e-11
8.26432299455e-11
6.17834361007e-10
-1.54213703185e-12
8.36317313435e-11
6.20452448776e-10
-1.47545388974e-11
8.27653382729e-11
6.18357510152e-10
-2.57428128458e-11
8.00431648694e-11
6.11536538679e-10
-3.28741499459e-11
7.54467076614e-11
5.99949456274e-10
-3.45376630217e-11
6.89578102258e-11
5.83521647616e-10
-2.9164533053e-11
6.05735648651e-11
5.62140646972e-10
-1.55267062181e-11
5.03078395162e-11
5.35662025813e-10
3.78757364957e-11
6.30522926801e-12
5.03649941937e-10
-2.58577578795e-13
9.56680479175e-14
-3.88136869589e-11
1.65706227017e-14
-5.79073753497e-13
-9.16566144144e-14
-4.3564856558e-11
-7.90175706124e-13
-4.92639682236e-13
-4.86492386107e-11
-8.44256461332e-13
-9.19843264996e-13
-5.35763271349e-11
-7.28606059156e-13
-1.32308449969e-12
-5.79046907073e-11
-4.67552618057e-13
-1.6423031149e-12
-6.12747734147e-11
-1.09235207361e-13
-1.84601341974e-12
-6.34326683283e-11
2.8226751584e-13
-1.91807451629e-12
-6.41997582985e-11
6.38762227936e-13
-1.8525434851e-12
-6.34229903859e-11
8.95503727719e-13
-1.65760692788e-12
-6.12555932081e-11
1.00166523754e-12
-1.35137155141e-12
-5.78762573357e-11
9.30097229464e-13
-9.61716135625e-13
-5.35386864775e-11
6.9511060516e-13
-5.39519188535e-13
-4.86014938707e-11
3.48340630518e-13
-1.37349293352e-13
-4.35024494752e-11
7.87583399358e-14
-3.8721037166e-11
8.00893583066e-14
-6.17829417543e-13
7.57704097858e-12
-9.84549314218e-11
4.207367663e-14
-1.36130214109e-12
7.88606757509e-12
-1.10237291115e-10
-1.89170514153e-12
7.55304757041e-12
-1.23018632446e-10
-2.04389801868e-12
7.00773935459e-12
-1.35523931063e-10
-1.77189898263e-12
6.41547121238e-12
-1.46581322756e-10
-1.12442952934e-12
5.91794933721e-12
-1.55227543607e-10
-2.23288071054e-13
5.59326687759e-12
-1.60775098581e-10
7.64489806149e-13
5.47794918895e-12
-1.62743525091e-10
1.65777314764e-12
5.57380620697e-12
-1.60746325875e-10
2.28759815401e-12
5.87512821082e-12
-1.55170565134e-10
2.5268826859e-12
6.34270839237e-12
-1.46496961273e-10
2.32132694377e-12
6.90422462753e-12
-1.35412496587e-10
1.72020987984e-12
7.43472766696e-12
-1.22877889665e-10
8.98147626423e-13
7.77385732097e-12
-1.10054920033e-10
7.52126109398e-12
-9.81972315222e-11
2.46942337368e-13
-7.9661572341e-13
2.30222007249e-11
-1.37830087479e-10
6.05583744399e-14
-1.75990924223e-12
2.46135376756e-11
-1.53966586132e-10
-2.48422413874e-12
2.50172622357e-11
-1.71720476782e-10
-2.71032148729e-12
2.48733587042e-11
-1.89256731808e-10
-2.35360130938e-12
2.44885915329e-11
-2.0486205961e-10
-1.46907237392e-12
2.40903310288e-11
-2.17115186896e-10
-2.243989532e-13
2.38121497416e-11
-2.24992248807e-10
1.14294124583e-12
2.37128389376e-11
-2.27782727912e-10
2.37186560675e-12
2.37782538822e-11
-2.24945418005e-10
3.22225814455e-12
2.4018753489e-11
-2.17022552978e-10
3.52036862858e-12
2.43735427576e-11
-2.04725180803e-10
3.20534281872e-12
2.4716336811e-11
-1.89076590806e-10
2.36613365698e-12
2.48386549586e-11
-1.7149467726e-10
1.27540227021e-12
2.44477116054e-11
-1.53678792909e-10
2.29302349922e-11
-1.3743597859e-10
4.18219325393e-13
-7.67242390702e-13
4.4019689173e-11
-1.59195756362e-10
7.43956304561e-14
-1.74408784895e-12
4.74033178168e-11
-1.77316709286e-10
-2.52433577945e-12
4.90049110953e-11
-1.97607583709e-10
-2.79091767881e-12
4.96294747614e-11
-2.17883192166e-10
-2.42278991083e-12
4.97302510569e-11
-2.36065740161e-10
-1.46496096346e-12
4.96233054336e-11
-2.50413247533e-10
-1.00059133019e-13
4.95054515484e-11
-2.59658342439e-10
1.40248503149e-12
4.94617322014e-11
-2.62928193796e-10
2.74233547525e-12
4.94571550974e-11
-2.59594786835e-10
3.64731570317e-12
4.95243420317e-11
-2.50287713169e-10
3.92921483101e-12
4.95777022056e-11
-2.35880747752e-10
3.53841167038e-12
4.94285228475e-11
-2.17640945316e-10
2.60159474321e-12
4.8778017486e-11
-1.97306860863e-10
1.45177588359e-12
4.71936464038e-11
-1.76940693787e-10
4.38921349738e-11
-1.58696748185e-10
5.95046270291e-13
-5.23424492378e-13
6.81926678414e-11
-1.65711883168e-10
8.48256801691e-14
-1.31679199646e-12
7.36186873655e-11
-1.83866399098e-10
-2.01972963481e-12
7.66708730501e-11
-2.04668572792e-10
-2.2912188699e-12
7.82735465828e-11
-2.25760905071e-10
-1.98185091697e-12
7.90184834697e-11
-2.4485637731e-10
-1.1126202272e-12
7.93114156985e-11
-2.60015221339e-10
1.4908370566e-13
7.94167794665e-11
-2.69811413056e-10
1.54162438556e-12
7.94502045693e-11
-2.73270476899e-10
2.76810034026e-12
7.93559300256e-11
-2.69732405409e-10
3.56447446105e-12
7.91893028857e-11
-2.59859444466e-10
3.7591466593e-12
7.8835823627e-11
-2.4462761638e-10
3.32845509686e-12
7.80392242183e-11
-2.25463230385e-10
2.42932639458e-12
7.64087831708e-11
-2.04303216267e-10
1.42010286051e-12
7.33759468197e-11
-1.83418275569e-10
6.80347172673e-11
-1.65133895143e-10
7.76152772243e-13
-6.36626224702e-14
9.33052678001e-11
-1.60271016788e-10
9.27652205676e-14
-4.85763789475e-13
1.00785494437e-10
-1.76891507128e-10
-9.83227486655e-13
1.05347533002e-10
-1.96561264541e-10
-1.22421688554e-12
1.07989842316e-10
-2.16894386114e-10
-1.04079367805e-12
1.09430128589e-10
-2.35527376775e-10
-4.18339012268e-13
1.10158283831e-10
-2.50431006801e-10
5.20291691911e-13
1.10506158287e-10
-2.60097517655e-10
1.56106039603e-12
1.10622631062e-10
-2.63504790871e-10
2.45382602861e-12
1.10435478636e-10
-2.60004205475e-10
2.98283363882e-12
1.10018649255e-10
-2.50247402627e-10
3.02286517057e-12
1.09226088865e-10
-2.35258862889e-10
2.58835449219e-12
1.07733670668e-10
-2.16547548099e-10
1.85654400621e-12
1.05063693437e-10
-1.96140830325e-10
1.17814114218e-12
1.0052263643e-10
-1.76385238133e-10
9.31237225524e-11
-1.59633661492e-10
9.60394020448e-13
6.05298944379e-13
1.17337877325e-10
-1.45537174195e-10
9.87269622037e-14
7.33872350314e-13
1.26680004081e-10
-1.59409727347e-10
5.64469488455e-13
1.32640889397e-10
-1.76658839601e-10
3.88623653088e-13
1.36258485974e-10
-1.94981212159e-10
3.82193490895e-13
1.38357808667e-10
-2.12047083034e-10
6.05591225774e-13
1.39499782667e-10
-2.25831820894e-10
1.00849641329e-12
1.40077026248e-10
-2.34815270975e-10
1.4635108146e-12
1.40271279304e-10
-2.37975547688e-10
1.80980810519e-12
1.40000384468e-10
-2.34708643999e-10
1.91921383382e-12
1.39350266511e-10
-2.25622484404e-10
1.74106258666e-12
1.38143253294e-10
-2.11742335871e-10
1.33834101182e-12
1.35993880331e-10
-1.94590727223e-10
8.97808053177e-13
1.32350147366e-10
-1.76191590317e-10
7.31277124643e-13
1.26412569336e-10
-1.58856688601e-10
1.17144753308e-10
-1.44855455492e-10
1.14759965029e-12
1.47318070635e-12
1.38552877485e-10
-1.23970365435e-10
1.030079531e-13
2.32275147141e-12
1.49397550194e-10
-1.34208696789e-10
2.59714485556e-12
1.56510035469e-10
-1.48078875966e-10
2.51886188851e-12
1.60945134373e-10
-1.63440016511e-10
2.26151103757e-12
1.63606021657e-10
-1.78085018345e-10
1.9411448142e-12
1.65103584146e-10
-1.90074810617e-10
1.60637367615e-12
1.65877120978e-10
-1.97939402564e-10
1.25353894062e-12
1.66137051328e-10
-2.00699603198e-10
8.51625187216e-13
1.65798951174e-10
-1.97820231601e-10
3.9722907301e-13
1.64952756272e-10
-1.89841383001e-10
-5.92560234694e-14
1.63393104704e-10
-1.77746822375e-10
-3.965642704e-13
1.60687115524e-10
-1.63010279619e-10
-4.28396943059e-13
1.56229848391e-10
-1.47571307931e-10
8.83955312203e-14
1.49143631957e-10
-1.33617412121e-10
1.3836674645e-10
-1.23255432709e-10
1.33689490121e-12
2.5290294671e-12
1.55538524226e-10
-9.78507307451e-11
1.06206559689e-13
4.25996243856e-12
1.67399993892e-10
-1.0387468844e-10
5.0850801621e-12
1.75324309297e-10
-1.13712912142e-10
5.13149998782e-12
1.80362197442e-10
-1.25438390223e-10
4.56368143183e-12
1.83454816498e-10
-1.37037304036e-10
3.56379295283e-12
1.85233582188e-10
-1.46726288694e-10
2.30387391946e-12
1.86163276997e-10
-1.53142590937e-10
9.37651341956e-13
1.86474715036e-10
-1.55387633398e-10
-3.99475631635e-13
1.86088817175e-10
-1.53011349962e-10
-1.55245693813e-12
1.8509147492e-10
-1.4646979641e-10
-2.34536895215e-12
1.83257631995e-10
-1.36667463856e-10
-2.58844737589e-12
1.80127922023e-10
-1.24972347073e-10
-2.10293398756e-12
1.75074600813e-10
-1.13169416334e-10
-7.40773328332e-13
1.67181601421e-10
-1.03250719244e-10
1.5538198218e-10
-9.7110270935e-11
1.52729209086e-12
3.76370793765e-12
1.67231698079e-10
-6.93034105096e-11
1.08394640646e-13
6.526074941e-12
1.79549214483e-10
-7.08226147167e-11
7.99523869549e-12
1.87903529173e-10
-7.62564029112e-11
8.18329528107e-12
1.93312769482e-10
-8.39199100815e-11
7.2449920547e-12
1.96703630392e-10
-9.20502956777e-11
5.44060254511e-12
1.98691212789e-10
-9.90827201784e-11
3.08747269775e-12
1.99740445078e-10
-1.03814894084e-10
5.24938435448e-13
2.00090732061e-10
-1.05463092855e-10
-1.91480186207e-12
1.99675393162e-10
-1.0367175451e-10
-3.88998875627e-12
1.9856872868e-10
-9.88035505907e-11
-5.07749196836e-12
1.96537517601e-10
-9.16495636722e-11
-5.20723299306e-12
1.93121447981e-10
-8.34189309298e-11
-4.10890157324e-12
1.87707029709e-10
-7.56791756873e-11
-1.74937594347e-12
1.79392085624e-10
-7.01686761692e-11
1.67133398043e-10
-6.85419319947e-11
1.71759315267e-12
5.17460986799e-12
1.72928046533e-10
-4.0324769925e-11
1.10084159079e-13
9.10402582995e-12
1.85128449413e-10
-3.73267073678e-11
1.12873141303e-11
1.93544840114e-10
-3.8236505125e-11
1.16163827333e-11
1.99115104033e-10
-4.16268059576e-11
1.02451429687e-11
2.02689300675e-10
-4.60390289513e-11
7.52594654138e-12
2.04828502268e-10
-5.0186557178e-11
3.93856683718e-12
2.05970841442e-10
-5.3078305094e-11
2.84883091533e-14
2.0635167064e-10
-5.40764299534e-11
-3.65410778892e-12
2.05921401418e-10
-5.29232474279e-11
-6.56018300661e-12
2.04737602205e-10
-4.98846396884e-11
-8.2024396284e-12
2.02571092542e-10
-4.56072753257e-11
-8.21690881215e-12
1.9898776206e-10
-4.10908092425e-11
-6.43305985191e-12
1.9342668841e-10
-3.76257433419e-11
-2.93775166494e-12
1.85061660335e-10
-3.66431562204e-11
1.72920012752e-10
-3.95440260864e-11
1.90600274986e-12
6.75043029863e-12
1.72293452968e-10
-1.28104007931e-11
1.11062273163e-13
1.19499714567e-11
1.83864031699e-10
-5.5481976427e-12
1.48778168507e-11
1.92039822757e-10
-2.03055941037e-12
1.53246513537e-11
1.97606440958e-10
-1.11087127453e-12
1.34621390475e-11
2.01277898371e-10
-1.69440737197e-12
9.74621882171e-12
2.03530633045e-10
-2.83228529006e-12
4.82863213534e-12
2.04752859767e-10
-3.7927437229e-12
-5.29737604769e-13
2.05160600624e-10
-4.1111821119e-12
-5.55022975008e-12
2.0472582529e-10
-3.62577544036e-12
-9.46735495574e-12
2.03484099051e-10
-2.5074681116e-12
-1.16201211509e-11
2.01225864248e-10
-1.23103761291e-12
-1.15395714218e-11
1.97566055216e-10
-5.38695890558e-13
-9.0366215165e-12
1.92027837942e-10
-1.3849711412e-12
-4.29927862078e-12
1.83919481403e-10
-4.83421530958e-12
1.72411685542e-10
-1.20106295467e-11
2.08987590236e-12
8.46691953347e-12
1.65377655636e-10
1.14138197435e-11
1.11219124987e-13
1.4957143899e-11
1.7596726354e-10
2.24487694304e-11
1.85830694426e-11
1.83697628453e-10
3.01368667458e-11
1.90931380708e-11
1.89132425575e-10
3.52769026045e-11
1.66999439991e-11
1.92827604291e-10
3.85276581416e-11
1.19652804532e-11
1.95161831053e-10
4.04425429626e-11
5.70672257953e-12
1.96453919223e-10
4.14510803458e-11
-1.10581329582e-12
1.96888220591e-10
4.18224162382e-11
-7.47448700619e-12
1.9645658735e-10
4.16295179418e-11
-1.24231978516e-11
1.95174037156e-10
4.07897404025e-11
-1.51238198617e-11
1.92861674969e-10
3.90227529067e-11
-1.4999699489e-11
1.89204112424e-10
3.58866394701e-11
-1.18205171694e-11
1.8382153643e-10
3.08192895174e-11
-5.81655069855e-12
1.76179815975e-10
2.31931496191e-11
1.6566224246e-10
1.22294695605e-11
2.26095597535e-12
1.0241680174e-11
1.52664296431e-10
3.05664466149e-11
1.10135402994e-13
1.78578436378e-11
1.62205283802e-10
4.47466922476e-11
2.20387187178e-11
1.69324581488e-10
5.62693061226e-11
2.25538788376e-11
1.74482783548e-10
6.5452042942e-11
1.96517634021e-11
1.78109295549e-10
7.24531792879e-11
1.39797956245e-11
1.80481690183e-10
7.73864730972e-11
6.49920996465e-12
1.81830441435e-10
8.03488900269e-11
-1.63692716703e-12
1.82289872332e-10
8.14004965522e-11
-9.23401846648e-12
1.81871636272e-10
8.05373244167e-11
-1.51317162764e-11
1.80569094606e-10
7.77536454868e-11
-1.83561912439e-11
1.78252489387e-10
7.29779224883e-11
-1.82438616051e-11
1.74693999381e-10
6.60994357338e-11
-1.45263431298e-11
1.69616056095e-10
5.6991029706e-11
-7.41485332648e-12
1.62610943194e-10
4.55200133692e-11
1.53151165786e-10
3.13873765476e-11
2.41943937641e-12
1.13519320093e-11
4.29989575139e-11
1.10022957498e-13
1.35592975035e-10
1.98293593494e-11
5.9869472244e-11
1.43660159133e-10
2.45231897627e-11
7.48309486594e-11
1.49910449974e-10
2.51315136192e-11
8.77719448013e-11
1.54648700811e-10
2.189993521e-11
9.83209130872e-11
1.58142565209e-10
1.55352227889e-11
1.06133828752e-10
1.6053863543e-10
7.11720597758e-12
1.10964334517e-10
1.61949342376e-10
-2.04235389353e-12
1.12660871237e-10
1.62441833551e-10
-1.05828715609e-11
1.11158717586e-10
1.62039088224e-10
-1.71841319278e-11
1.0651334141e-10
1.60720885052e-10
-2.07525567658e-11
9.8865534369e-11
1.58422191242e-10
-2.05625771896e-11
8.84484468533e-11
1.55032564108e-10
-1.63487351624e-11
7.55871931299e-11
1.50406283057e-10
-8.38618685321e-12
6.06794002107e-11
1.44293199875e-10
4.37847986122e-11
2.55274225137e-12
1.36318280802e-10
-3.01820823517e-13
4.95694627091e-12
-4.34346389507e-11
9.36712094337e-15
-4.68368496076e-13
5.51508001035e-12
-4.88623179266e-11
-5.33459441625e-13
6.0755517357e-12
-5.46009171908e-11
-5.17276622712e-13
6.58315306857e-12
-6.01274848917e-11
-4.22672450641e-13
7.01606327428e-12
-6.49663257906e-11
-2.67152494209e-13
7.3442321416e-12
-6.87270013299e-11
-7.34357064455e-14
7.54886530858e-12
-7.11329026707e-11
1.32721927165e-13
7.61788363379e-12
-7.19876053519e-11
3.23504168034e-13
7.53785423494e-12
-7.11200865951e-11
4.73627226492e-13
7.32433655248e-12
-6.87016973454e-11
5.61930197657e-13
6.99059262821e-12
-6.49290800073e-11
5.72545678147e-13
6.55407181017e-12
-6.00787905061e-11
4.96607383737e-13
6.03830022192e-12
-5.45405150947e-11
3.20973547784e-13
5.48183290574e-12
-4.87864538545e-11
4.93064256196e-12
-4.33290091389e-11
1.92297259297e-14
-6.86112822248e-13
1.26407589818e-11
-1.05404538016e-10
2.31051390634e-14
-1.09381770769e-12
1.39254062157e-11
-1.18155018949e-10
-1.26580389762e-12
1.51688445119e-11
-1.31851737616e-10
-1.23025546835e-12
1.62861815531e-11
-1.45182264802e-10
-1.00375958043e-12
1.7221753374e-11
-1.56934609414e-10
-6.27098094643e-13
1.79231545631e-11
-1.66108452149e-10
-1.56033427863e-13
1.83583347854e-11
-1.7198929378e-10
3.45547778243e-13
1.85045420236e-11
-1.74074205225e-10
8.08289130841e-13
1.83307189304e-11
-1.71951255854e-10
1.1694561881e-12
1.7871743478e-11
-1.66033428e-10
1.37661254749e-12
1.71530632698e-11
-1.56824358836e-10
1.39102175439e-12
1.62053275801e-11
-1.45038488249e-10
1.18959705324e-12
1.50734455151e-11
-1.31674066375e-10
7.52320886958e-13
1.38329627428e-11
-1.17933551465e-10
1.25645888898e-11
-1.0510887438e-10
6.2446459856e-14
-8.85993100038e-13
2.05417467474e-11
-1.44812718907e-10
3.22855537992e-14
-1.43095092892e-12
2.24793583903e-11
-1.61897686535e-10
-1.66761285208e-12
2.42915215523e-11
-1.80527719454e-10
-1.62007702824e-12
2.58974064873e-11
-1.9884153081e-10
-1.31546957153e-12
2.72224156298e-11
-2.15095041384e-10
-8.08374770201e-13
2.82061896744e-11
-2.2783677296e-10
-1.73961331045e-13
2.88133619581e-11
-2.36020428414e-10
5.01028487636e-13
2.90163497038e-11
-2.38915941811e-10
1.12214729361e-12
2.87702684173e-11
-2.35958611715e-10
1.6043066472e-12
2.81250135636e-11
-2.27714978592e-10
1.87639909577e-12
2.7111986206e-11
-2.1491640893e-10
1.88609478674e-12
2.57658083563e-11
-1.98609366519e-10
1.60222800966e-12
2.41405898082e-11
-1.80242651228e-10
1.00807971912e-12
2.23285350237e-11
-1.61547229856e-10
2.04138798533e-11
-1.443575455e-10
1.10664796943e-13
-9.45676837165e-13
2.84093648065e-11
-1.66096003909e-10
3.85485726633e-14
-1.53682926412e-12
3.09495664861e-11
-1.85127505324e-10
-1.79626556e-12
3.32507906318e-11
-2.06237053626e-10
-1.74019120013e-12
3.52500726372e-11
-2.27224067184e-10
-1.40071724297e-12
3.68734217018e-11
-2.45990616533e-10
-8.38601375928e-13
3.80657085807e-11
-2.6077334951e-10
-1.36711992866e-13
3.8797432093e-11
-2.7028885386e-10
6.08763121024e-13
3.90409568968e-11
-2.73649017104e-10
1.29263037117e-12
3.87408094013e-11
-2.70205057622e-10
1.8206914352e-12
3.79579971051e-11
-2.60608461717e-10
2.11430019019e-12
3.6724472415e-11
-2.4574936295e-10
2.11563681911e-12
3.50706752311e-11
-2.26911863999e-10
1.79123090777e-12
3.30481615838e-11
-2.05856778353e-10
1.13273972531e-12
3.07445486783e-11
-1.84667420781e-10
2.82274529352e-11
-1.65514756124e-10
1.64974672653e-13
-8.91489013635e-13
3.59533788991e-11
-1.72352255349e-10
4.26482734037e-14
-1.44778707268e-12
3.90489030229e-11
-1.91351301229e-10
-1.68774616056e-12
4.17719475214e-11
-2.12887804395e-10
-1.62194913436e-12
4.40828859272e-11
-2.34599621656e-10
-1.28360562525e-12
4.59285419376e-11
-2.54191673791e-10
-7.32720314423e-13
4.72683113521e-11
-2.6971371999e-10
-4.936565853e-14
4.80848118204e-11
-2.79732002033e-10
6.73712653295e-13
4.83550280599e-11
-2.8326247397e-10
1.3343841576e-12
4.80165949398e-11
-2.79627996569e-10
1.84211914367e-12
4.71377940071e-11
-2.69509383916e-10
2.12123284436e-12
4.57464259371e-11
-2.538935921e-10
2.1155866469e-12
4.38620553802e-11