/*--------------------------------*- C++ -*----------------------------------*\
  =========                 |
  \\      /  F ield         | OpenFOAM: The Open Source CFD Toolbox
   \\    /   O peration     | Website:  https://openfoam.org
    \\  /    A nd           | Version:  7
     \\/     M anipulation  |
\*---------------------------------------------------------------------------*/
FoamFile
{
    version     2.0;
    format      ascii;
    class       volVectorField;
    location    "1.22";
    object      U;
}
// * * * * * * * * * * * * * * * * * * * * * * * * * * * * * * * * * * * * * //

dimensions      [0 1 -1 0 0 0 0];

internalField   nonuniform List<vector> 
22500
(
(-2.04159012787e-07 -6.50292643073e-08 -1.17317123746e-05)
(-3.46810193296e-07 2.42117002918e-08 -1.26315358517e-05)
(-4.33567090929e-07 4.21939093826e-08 -1.36435970707e-05)
(-4.53233235986e-07 1.14382468937e-08 -1.46211016783e-05)
(-4.07171756684e-07 -4.33342253294e-08 -1.54657331864e-05)
(-3.0359065983e-07 -9.99686015705e-08 -1.61112658529e-05)
(-1.58568827563e-07 -1.40942377139e-07 -1.65149876156e-05)
(8.32125951887e-09 -1.55307163004e-07 -1.66524675031e-05)
(1.75042222823e-07 -1.39343206287e-07 -1.65143455667e-05)
(3.19587135407e-07 -9.68292452616e-08 -1.61099567263e-05)
(4.2240715784e-07 -3.87782109402e-08 -1.54636597991e-05)
(4.67514097089e-07 1.72651532222e-08 -1.46179774764e-05)
(4.46588387046e-07 4.90616897028e-08 -1.36386151384e-05)
(3.59124900101e-07 3.2337375575e-08 -1.26220066505e-05)
(2.13607544884e-07 -5.68693592934e-08 -1.17089571547e-05)
(-2.60753936918e-07 1.12551849655e-07 -2.93595527702e-05)
(-6.47946243235e-07 3.83719698923e-07 -3.14582695984e-05)
(-9.16851226961e-07 4.70134503003e-07 -3.39394522796e-05)
(-1.01713765742e-06 4.23830225064e-07 -3.63948006351e-05)
(-9.4399707291e-07 3.06162619027e-07 -3.85446579236e-05)
(-7.16426385135e-07 1.75139005346e-07 -4.02003150909e-05)
(-3.75957102863e-07 7.7593829738e-08 -4.12401494902e-05)
(2.42683156285e-08 4.32052030443e-08 -4.15945415099e-05)
(4.24022035061e-07 8.21495282025e-08 -4.12381937199e-05)
(7.63138937926e-07 1.8406887878e-07 -4.01963399207e-05)
(9.88553207514e-07 3.19099461722e-07 -3.85383604968e-05)
(1.05891869458e-06 4.40311648834e-07 -3.63853001107e-05)
(9.5509927874e-07 4.89445276981e-07 -3.39243142563e-05)
(6.83189004859e-07 4.06119366232e-07 -3.14296001144e-05)
(2.87797242867e-07 1.35396633938e-07 -2.92965181421e-05)
(3.10137127522e-07 9.19048063338e-07 -4.13274499087e-05)
(-2.91127551769e-07 1.43849304207e-06 -4.4085766853e-05)
(-7.61290482586e-07 1.68813139059e-06 -4.75293139006e-05)
(-1.00641192712e-06 1.73242920529e-06 -5.10215186071e-05)
(-1.01048217334e-06 1.65442019471e-06 -5.41198338209e-05)
(-7.96316991039e-07 1.53362341991e-06 -5.65240356348e-05)
(-4.21302287253e-07 1.43493711752e-06 -5.80403026619e-05)
(3.89971734105e-08 1.39967945877e-06 -5.85577055319e-05)
(4.98572159709e-07 1.4420301541e-06 -5.80371143598e-05)
(8.71493225723e-07 1.54751753703e-06 -5.65175735038e-05)
(1.08230614149e-06 1.67453623403e-06 -5.41096051819e-05)
(1.07386377479e-06 1.75799303713e-06 -5.10061180827e-05)
(8.23182562172e-07 1.71800605914e-06 -4.75050089314e-05)
(3.47570971253e-07 1.47278438143e-06 -4.40408170934e-05)
(-2.66529187124e-07 9.54540189252e-07 -4.12319107204e-05)
(1.31284649753e-06 2.15119680991e-06 -4.83679648954e-05)
(5.23188729175e-07 2.94856818966e-06 -5.13397518224e-05)
(-1.54597981073e-07 3.41104557591e-06 -5.53172452313e-05)
(-5.85136191363e-07 3.60656432543e-06 -5.94701286786e-05)
(-7.38194812319e-07 3.62985771042e-06 -6.32114598996e-05)
(-6.35210539446e-07 3.57174296979e-06 -6.6139973723e-05)
(-3.41905302212e-07 3.50690148937e-06 -6.79957998832e-05)
(5.25276417338e-08 3.48295542951e-06 -6.86301734478e-05)
(4.46016451658e-07 3.51623653856e-06 -6.79915853185e-05)
(7.36576864947e-07 3.59001829006e-06 -6.61314625872e-05)
(8.35142336185e-07 3.65630176002e-06 -6.31980115757e-05)
(6.76256701649e-07 3.64010873753e-06 -5.94499573253e-05)
(2.38312886376e-07 3.45015838145e-06 -5.5285800593e-05)
(-4.47279598969e-07 2.99318028633e-06 -5.12829707305e-05)
(-1.25345429396e-06 2.19778239118e-06 -4.82503534485e-05)
(2.61494148116e-06 3.66906081328e-06 -5.10893899921e-05)
(1.65885579412e-06 4.75059050428e-06 -5.3904043128e-05)
(7.74906957378e-07 5.44759335994e-06 -5.80540212326e-05)
(1.34530804048e-07 5.82604478639e-06 -6.25467732526e-05)
(-2.16870144732e-07 5.98592059575e-06 -6.66688459002e-05)
(-2.95630246998e-07 6.02203995886e-06 -6.99283392707e-05)
(-1.69808967888e-07 6.01265822058e-06 -7.20054460717e-05)
(6.50011588187e-08 6.007619423e-06 -7.27170003816e-05)
(2.98672356917e-07 6.02398841586e-06 -7.20003475664e-05)
(4.21166958915e-07 6.04421444004e-06 -6.99181017895e-05)
(3.37022811444e-07 6.01799844315e-06 -6.66527653737e-05)
(-2.15465459699e-08 5.86669561528e-06 -6.252290408e-05)
(-6.71001915993e-07 5.49493558414e-06 -5.80175401253e-05)
(-1.56490336515e-06 4.80440033875e-06 -5.38396445873e-05)
(-2.54036480325e-06 3.7256227628e-06 -5.09582245302e-05)
(4.1138294349e-06 5.36583042364e-06 -5.00277895062e-05)
(3.00984687633e-06 6.71943443229e-06 -5.23827622011e-05)
(1.92639886319e-06 7.65139953462e-06 -5.64058618978e-05)
(1.06413654271e-06 8.22308593821e-06 -6.0968887631e-05)
(4.82762957453e-07 8.53544251877e-06 -6.52487895869e-05)
(1.73248102689e-07 8.68205908698e-06 -6.86736153559e-05)
(6.98526453706e-08 8.73999475209e-06 -7.0870125576e-05)
(7.65841030687e-08 8.75811701399e-06 -7.1624483804e-05)
(8.20031312022e-08 8.75310489104e-06 -7.08641607441e-05)
(-2.52424079471e-08 8.70771818667e-06 -6.86617343468e-05)
(-3.4101822972e-07 8.57256939463e-06 -6.52303436683e-05)
(-9.30792292473e-07 8.27012474867e-06 -6.09420376534e-05)
(-1.80363108079e-06 7.70618266901e-06 -5.63660287352e-05)
(-2.89891348513e-06 6.78158417916e-06 -5.23140377963e-05)
(-4.0245489202e-06 5.43149683365e-06 -4.98887254059e-05)
(5.72044065003e-06 7.14845589077e-06 -4.56641867591e-05)
(4.4842667292e-06 8.74543631301e-06 -4.73200099822e-05)
(3.21227991089e-06 9.8943154557e-06 -5.09750785189e-05)
(2.12666300806e-06 1.0651523246e-05 -5.53864596695e-05)
(1.29908217177e-06 1.11162118092e-05 -5.96372082309e-05)
(7.28588893353e-07 1.1377000474e-05 -6.308641541e-05)
(3.55197938656e-07 1.15060911486e-05 -6.53147949964e-05)
(8.74319365359e-08 1.15488843559e-05 -6.60822316392e-05)
(-1.81801067398e-07 1.15207929748e-05 -6.53078130825e-05)
(-5.59511399564e-07 1.14057865573e-05 -6.30726406475e-05)
(-1.1370587415e-06 1.11578959388e-05 -5.96161844687e-05)
(-1.974159438e-06 1.07043638306e-05 -5.53567328632e-05)
(-3.07167903271e-06 9.95591820859e-06 -5.09327574262e-05)
(-4.35713351041e-06 8.81525998761e-06 -4.72488672465e-05)
(-5.61680990341e-06 7.22251500166e-06 -4.55204530203e-05)
(7.35392524458e-06 8.93114758112e-06 -3.84381131005e-05)
(5.99949110133e-06 1.07272876309e-05 -3.92155174415e-05)
(4.55419638143e-06 1.20585822125e-05 -4.23168578366e-05)
(3.25336822166e-06 1.29782101322e-05 -4.63991016e-05)
(2.17714125844e-06 1.35816755205e-05 -5.04660954915e-05)
(1.33220949512e-06 1.39498667636e-05 -5.38202212175e-05)
(6.66723093192e-07 1.41473034806e-05 -5.60050534862e-05)
(9.76812239263e-08 1.42139970014e-05 -5.67596782677e-05)
(-4.72962363777e-07 1.4163420705e-05 -5.5996677038e-05)
(-1.14318058877e-06 1.39814520904e-05 -5.38038439179e-05)
(-1.99587035815e-06 1.36274760369e-05 -5.04415909057e-05)
(-3.08261701127e-06 1.30363456415e-05 -4.63656662876e-05)
(-4.39650813012e-06 1.21264832407e-05 -4.22716465524e-05)
(-5.85670926419e-06 1.08042459041e-05 -3.91420087646e-05)
(-7.2361982922e-06 9.01300944382e-06 -3.82904569266e-05)
(8.94132063232e-06 1.06352674303e-05 -2.87651719735e-05)
(7.4820844753e-06 1.25723292304e-05 -2.85452752142e-05)
(5.88329085844e-06 1.40375215155e-05 -3.09609317555e-05)
(4.38421403026e-06 1.5084039813e-05 -3.45773369271e-05)
(3.069047465e-06 1.58021657737e-05 -3.83338911645e-05)
(1.95082829488e-06 1.62627928851e-05 -4.14908767725e-05)
(9.87416384134e-07 1.65205247086e-05 -4.35660602685e-05)
(1.07447289438e-07 1.66085367057e-05 -4.428480723e-05)
(-7.74234837259e-07 1.65378733282e-05 -4.35556174331e-05)
(-1.74272572755e-06 1.62968381916e-05 -4.14705801487e-05)
(-2.86930524642e-06 1.58516339278e-05 -3.83040588466e-05)
(-4.19585966832e-06 1.51469663582e-05 -3.45380493325e-05)
(-5.70900405398e-06 1.41112170586e-05 -3.09106725544e-05)
(-7.32399708446e-06 1.26559205117e-05 -2.84670831754e-05)
(-8.80964759883e-06 1.07244063392e-05 -2.86115281009e-05)
(1.04174133547e-05 1.21893804795e-05 -1.70611913209e-05)
(8.86785717446e-06 1.41969908838e-05 -1.57897172756e-05)
(7.14046474014e-06 1.57365096134e-05 -1.7440092746e-05)
(5.46810992904e-06 1.68652653239e-05 -2.04893208287e-05)
(3.9340641248e-06 1.76663179727e-05 -2.38299393749e-05)
(2.55605185737e-06 1.8198387637e-05 -2.66992031499e-05)
(1.30271716883e-06 1.85044187131e-05 -2.86040206223e-05)
(1.16820409767e-07 1.86097766279e-05 -2.92652662644e-05)
(-1.0708728433e-06 1.85227799115e-05 -2.85904778321e-05)
(-2.32955532685e-06 1.82344882203e-05 -2.66729040725e-05)
(-3.71641130987e-06 1.77189191769e-05 -2.37917096348e-05)
(-5.26256551074e-06 1.69323875069e-05 -2.04403080125e-05)
(-6.94984313328e-06 1.5815408664e-05 -1.73803456727e-05)
(-8.69461790264e-06 1.42866531996e-05 -1.57015893687e-05)
(-1.02718134134e-05 1.22852574463e-05 -1.68961264415e-05)
(1.17247209315e-05 1.35294774735e-05 -3.77730742497e-06)
(1.01021027864e-05 1.5527498303e-05 -1.47339508362e-06)
(8.27660837495e-06 1.70745528767e-05 -2.32791853453e-06)
(6.46286240978e-06 1.82355251776e-05 -4.73403301726e-06)
(4.73829602445e-06 1.9083024234e-05 -7.56337061375e-06)
(3.12399303591e-06 1.96613780762e-05 -1.00568069954e-05)
(1.6002681085e-06 2.00007786925e-05 -1.17302538317e-05)
(1.25859687814e-07 2.01184326052e-05 -1.23118905855e-05)
(-1.35039584237e-06 2.00198720393e-05 -1.17121734025e-05)
(-2.87964589679e-06 1.96990100852e-05 -1.00215266015e-05)
(-4.50313669843e-06 1.91380566743e-05 -7.51218918565e-06)
(-6.24036733641e-06 1.83060521521e-05 -4.66926928339e-06)
(-8.06974380924e-06 1.71578574915e-05 -2.25143003962e-06)
(-9.91370275507e-06 1.56224815508e-05 -1.36661340435e-06)
(-1.156504371e-05 1.36314158644e-05 -3.59132669209e-06)
(1.28130409245e-05 1.45977131141e-05 1.05461515411e-05)
(1.1139716657e-05 1.6499407244e-05 1.37784070108e-05)
(9.25234443398e-06 1.79854148458e-05 1.37125678327e-05)
(7.33423996415e-06 1.91276243425e-05 1.20193768194e-05)
(5.45344938932e-06 1.99831073671e-05 9.80447509739e-06)
(3.63419954482e-06 2.05799650169e-05 7.78568462772e-06)
(1.86931472274e-06 2.09356539968e-05 6.4126992928e-06)
(1.34588580926e-07 2.10597004333e-05 5.93579242612e-06)
(-1.60199855831e-06 2.09551026411e-05 6.43712021162e-06)
(-3.37248649457e-06 2.06184147432e-05 7.83384014148e-06)
(-5.20111355997e-06 2.00395924458e-05 9.87479170188e-06)
(-7.09494427881e-06 1.92004250212e-05 1.21084154978e-05)
(-9.02924098879e-06 1.80719606246e-05 1.38163285238e-05)
(-1.09360584253e-05 1.65985796615e-05 1.39162720514e-05)
(-1.26389557131e-05 1.47046726132e-05 1.07669676737e-05)
(1.36404606976e-05 1.53386267566e-05 2.51964056438e-05)
(1.19480099736e-05 1.70604911277e-05 2.91698118075e-05)
(1.00392249438e-05 1.84248719549e-05 2.98822256857e-05)
(8.05527398505e-06 1.95001868644e-05 2.8999935242e-05)
(6.05536872523e-06 2.03238171027e-05 2.75349012565e-05)
(4.06834390688e-06 2.09081474436e-05 2.61152151671e-05)
(2.09996815309e-06 2.12601754607e-05 2.51274960553e-05)
(1.42994703387e-07 2.13835867309e-05 2.47857645698e-05)
(-1.81582407426e-06 2.12795017611e-05 2.51604142177e-05)
(-3.78978204746e-06 2.09464919713e-05 2.61809382524e-05)
(-5.78621385256e-06 2.03804609926e-05 2.76321603328e-05)
(-7.79935132509e-06 1.95737351515e-05 2.91245956291e-05)
(-9.79993262289e-06 1.85130643365e-05 3.00276869625e-05)
(-1.17291001575e-05 1.71623183624e-05 2.93549344165e-05)
(-1.34518796992e-05 1.54489452e-05 2.54689662398e-05)
(1.41923888256e-05 1.57074664743e-05 3.91561768332e-05)
(1.25152229183e-05 1.72040597394e-05 4.36521486907e-05)
(1.06193444372e-05 1.8394152532e-05 4.52058784758e-05)
(8.60234889582e-06 1.93557502946e-05 4.53150956497e-05)
(6.52080167519e-06 2.01034630762e-05 4.48014460445e-05)
(4.40834889462e-06 2.0639125225e-05 4.41504285576e-05)
(2.28244924982e-06 2.09638655195e-05 4.36586810136e-05)
(1.51068776542e-07 2.10782773891e-05 4.34911744149e-05)
(-1.98212350091e-06 2.09825243478e-05 4.37028727127e-05)
(-4.11352468355e-06 2.06762889345e-05 4.42396770231e-05)
(-6.23529417798e-06 2.01587008822e-05 4.49355441449e-05)
(-8.33010055458e-06 1.94281271426e-05 4.5490332562e-05)
(-1.03640357988e-05 1.84819752016e-05 4.54130847408e-05)
(-1.22811779058e-05 1.73065844085e-05 4.39052220767e-05)
(-1.39889133835e-05 1.58195846287e-05 3.94971130488e-05)
(1.44705284113e-05 1.59053566859e-05 5.08673214664e-05)
(1.28202961419e-05 1.70256066362e-05 5.59084597431e-05)
(1.09474278362e-05 1.79753603853e-05 5.85479517807e-05)
(8.92984413794e-06 1.87496588434e-05 5.99557904249e-05)
(6.81134014572e-06 1.93526261966e-05 6.06758585433e-05)
(4.62696572347e-06 1.97847848518e-05 6.10112976724e-05)
(2.4026523157e-06 2.0047155303e-05 6.11519044301e-05)
(1.58740425534e-07 2.01402628066e-05 6.12055592887e-05)
(-2.08693974781e-06 2.00642829231e-05 6.12092976255e-05)
(-4.31662457103e-06 1.98190196093e-05 6.11280097868e-05)
(-6.5101072911e-06 1.9403828509e-05 6.08536834631e-05)
(-8.64168746633e-06 1.88174356454e-05 6.01939975731e-05)
(-1.06762817143e-05 1.80587391033e-05 5.88367724714e-05)
(-1.25718723168e-05 1.71250570311e-05 5.62646642724e-05)
(-1.42506454723e-05 1.60151986028e-05 5.12688111341e-05)
(-2.04574826006e-08 -1.6902810025e-08 -1.81768776107e-05)
(-2.85541233631e-08 -1.65064196173e-08 -1.94289191385e-05)
(-3.6420291429e-08 -1.90280284854e-08 -2.07903790868e-05)
(-3.88612582294e-08 -2.52081814871e-08 -2.20925409121e-05)
(-3.55923103485e-08 -3.30737129135e-08 -2.32149793278e-05)
(-2.6576142425e-08 -4.05541819875e-08 -2.40726976196e-05)
(-1.31902926282e-08 -4.57689118899e-08 -2.46091139117e-05)
(2.55277581074e-09 -4.74808428063e-08 -2.47913650324e-05)
(1.82657133505e-08 -4.52658262216e-08 -2.46066001876e-05)
(3.1560295057e-08 -3.95758626078e-08 -2.40676250672e-05)
(4.03848917655e-08 -3.16914934611e-08 -2.32072231369e-05)
(4.32739979659e-08 -2.35362242527e-08 -2.20817826769e-05)
(4.01865645094e-08 -1.72068346903e-08 -2.0775791648e-05)
(3.15985829269e-08 -1.4674535788e-08 -1.940789707e-05)
(2.24805600138e-08 -1.52255689952e-08 -1.81413487006e-05)
(1.09687645267e-08 2.77584118156e-08 -4.71025618549e-05)
(-1.28898858697e-08 4.14222548575e-08 -5.00826400032e-05)
(-3.9525221668e-08 4.471004348e-08 -5.34493019767e-05)
(-5.51164225489e-08 3.68204902546e-08 -5.67359937764e-05)
(-5.71326511564e-08 2.27068123065e-08 -5.96029066841e-05)
(-4.48747689853e-08 7.73393495326e-09 -6.18093039912e-05)
(-2.14686579007e-08 -3.14531923778e-09 -6.31945600945e-05)
(7.98852874833e-09 -6.66148314728e-09 -6.36651615858e-05)
(3.73321241487e-08 -1.70517367571e-09 -6.3186703224e-05)
(6.03868330073e-08 1.05240304076e-08 -6.17934651866e-05)
(7.19693939135e-08 2.66425068134e-08 -5.95787167361e-05)
(6.87756873066e-08 4.15991508589e-08 -5.67025111629e-05)
(5.13150791391e-08 4.99597394093e-08 -5.34040925745e-05)
(2.25210432483e-08 4.68084050809e-08 -5.00181138025e-05)
(-4.30945814369e-09 3.28261274855e-08 -4.69994775552e-05)
(1.17413823154e-07 1.53422315704e-07 -6.85988654659e-05)
(7.78171493117e-08 1.92470543956e-07 -7.25853025818e-05)
(2.89683663609e-08 2.12448719304e-07 -7.72791303246e-05)
(-7.77218500166e-09 2.13255390755e-07 -8.1957855152e-05)
(-2.69790000625e-08 2.02247678349e-07 -8.60876726612e-05)
(-2.66847966714e-08 1.87273236908e-07 -8.92883579759e-05)
(-1.0814984689e-08 1.75557786166e-07 -9.13055216392e-05)
(1.35638590089e-08 1.71867029603e-07 -9.19910034921e-05)
(3.77307599173e-08 1.77813789034e-07 -9.12921217729e-05)
(5.29458202438e-08 1.91635643197e-07 -8.9261372768e-05)
(5.20355257704e-08 2.08397298098e-07 -8.60465311723e-05)
(3.08723788635e-08 2.20737625834e-07 -8.19011111392e-05)
(-8.83073202545e-09 2.20720565142e-07 -7.72031282194e-05)
(-6.11692791493e-08 2.01125581814e-07 -7.24788044875e-05)
(-1.05523994765e-07 1.61759928343e-07 -6.84342766122e-05)
(3.10795864544e-07 3.73050648178e-07 -8.32986520225e-05)
(2.5504415695e-07 4.51173351585e-07 -8.76566729458e-05)
(1.79743525612e-07 5.01164796504e-07 -9.30724657423e-05)
(1.12894472227e-07 5.2328621722e-07 -9.86101418745e-05)
(6.29980001254e-08 5.26690427212e-07 -0.00010356752689)
(3.38597857294e-08 5.20714620789e-07 -0.000107441202741)
(2.18328836996e-08 5.13955817877e-07 -0.000109893356345)
(1.92394686981e-08 5.12058438567e-07 -0.000110727213055)
(1.63244836802e-08 5.16926589596e-07 -0.000109874309449)
(3.30741811754e-09 5.26465007022e-07 -0.00010740289517)
(-2.76018740177e-08 5.34823463872e-07 -0.000103509268)
(-8.02411920563e-08 5.33243934442e-07 -9.85301911168e-05)
(-1.51067431341e-07 5.12263190196e-07 -9.29664935896e-05)
(-2.31076509255e-07 4.62966113048e-07 -8.75112858292e-05)
(-2.93172382145e-07 3.84589973746e-07 -8.30811480816e-05)
(5.77419284509e-07 6.70683657024e-07 -9.17586187623e-05)
(5.04935489171e-07 7.97247335542e-07 -9.59299409789e-05)
(3.99724799416e-07 8.86725381252e-07 -0.000101531409538)
(2.95559871482e-07 9.39297676164e-07 -0.000107451971357)
(2.03826989485e-07 9.65426042091e-07 -0.000112845756681)
(1.30554436939e-07 9.75154407296e-07 -0.000117102473484)
(7.32928902959e-08 9.77700756432e-07 -0.000119811460907)
(2.49822434128e-08 9.79073858869e-07 -0.000120733522906)
(-2.37641641313e-08 9.81292086193e-07 -0.000119786609476)
(-8.23624965196e-08 9.82120957379e-07 -0.000117052570766)
(-1.57979760572e-07 9.75324963873e-07 -0.000112770122646)
(-2.53228537735e-07 9.51503649646e-07 -0.000107348863813)
(-3.62313499506e-07 9.00445244661e-07 -0.000101396440404)
(-4.73325169607e-07 8.11992964165e-07 -9.5748622708e-05)
(-5.53573861395e-07 6.8527558184e-07 -9.14950881479e-05)
(9.02847025532e-07 1.02962291245e-06 -9.44999588304e-05)
(8.12963449155e-07 1.20964108618e-06 -9.80010782195e-05)
(6.75194248058e-07 1.34397772361e-06 -0.000103321804435)
(5.28218714506e-07 1.43244408716e-06 -0.000109207473677)
(3.85908985346e-07 1.48647230044e-06 -0.000114691498384)
(2.56715897325e-07 1.51621981512e-06 -0.00011907298691)
(1.40124924348e-07 1.53091996623e-06 -0.00012187943464)
(3.07606311811e-08 1.53652850011e-06 -0.000122835768035)
(-7.9152211761e-08 1.53503564494e-06 -0.000121848524904)
(-1.97419390686e-07 1.52422320311e-06 -0.000119011026948)
(-3.29510640243e-07 1.49789973392e-06 -0.000114597983767)
(-4.76067294392e-07 1.44663113613e-06 -0.000109081001159)
(-6.28827165445e-07 1.36005801753e-06 -0.000103158520749)
(-7.73367215767e-07 1.22709360935e-06 -9.77860335799e-05)
(-8.72298213945e-07 1.04703911879e-06 -9.41947326425e-05)
(1.27255765399e-06 1.43341333849e-06 -9.20228854952e-05)
(1.16454807348e-06 1.66767556131e-06 -9.44454706711e-05)
(9.92437941539e-07 1.84820784735e-06 -9.90901339418e-05)
(7.98838424795e-07 1.97444280325e-06 -0.000104582394108)
(5.99597078949e-07 2.05856822407e-06 -0.000109855788693)
(4.05606566699e-07 2.11039307714e-06 -0.000114135243875)
(2.18851572358e-07 2.13868316574e-06 -0.000116898218911)
(3.65386762279e-08 2.14900879426e-06 -0.000117840934312)
(-1.46428659788e-07 2.1432210613e-06 -0.000116860863456)
(-3.3517576705e-07 2.11924150665e-06 -0.000114060502054)
(-5.32574252873e-07 2.07126389753e-06 -0.000109743502551)
(-7.36728459638e-07 1.99030887062e-06 -0.000104431855375)
(-9.36882755617e-07 1.86633490432e-06 -9.88985522047e-05)
(-1.11662491074e-06 1.68753697774e-06 -9.41977146328e-05)
(-1.23482506785e-06 1.45336641991e-06 -9.16781550164e-05)
(1.67128055709e-06 1.86486345032e-06 -8.48184419531e-05)
(1.54444556849e-06 2.14992273285e-06 -8.5831705341e-05)
(1.33719800138e-06 2.37395337311e-06 -8.94778807439e-05)
(1.09493298618e-06 2.53637974286e-06 -9.4277898039e-05)
(8.34869039754e-07 2.6499571451e-06 -9.90843824484e-05)
(5.70209214464e-07 2.72377650267e-06 -0.000103065320259)
(3.05842498628e-07 2.76575215343e-06 -0.000105661345399)
(4.22745756238e-08 2.78081780467e-06 -0.000106548177394)
(-2.2204182181e-07 2.77060207881e-06 -0.000105616947665)
(-4.88679868434e-07 2.7332611034e-06 -0.000102976667651)
(-7.5719473766e-07 2.66363338301e-06 -9.89518321083e-05)
(-1.02275336124e-06 2.55358515319e-06 -9.41017617497e-05)
(-1.27223374182e-06 2.39376887093e-06 -8.92568754327e-05)
(-1.48786615529e-06 2.17184014721e-06 -8.55505535202e-05)
(-1.62591299836e-06 1.88703523012e-06 -8.44341629771e-05)
(2.08321007324e-06 2.30621390141e-06 -7.33857514125e-05)
(1.93700716913e-06 2.63442169517e-06 -7.27419971515e-05)
(1.69495328088e-06 2.89541505964e-06 -7.51425403122e-05)
(1.4038193642e-06 3.0892906881e-06 -7.90103819586e-05)
(1.08151876142e-06 3.22910343661e-06 -8.31357386764e-05)
(7.43349441894e-07 3.32289865865e-06 -8.66491671229e-05)
(3.97370479483e-07 3.37743820971e-06 -8.89701122184e-05)
(4.79151706854e-08 3.39684729543e-06 -8.97636149329e-05)
(-3.02366450882e-07 3.38247884302e-06 -8.89177380036e-05)
(-6.50846795582e-07 3.33278785543e-06 -8.65447713506e-05)
(-9.93237312642e-07 3.2434397884e-06 -8.29803672263e-05)
(-1.32150938294e-06 3.10745246293e-06 -7.88057238717e-05)
(-1.62039648874e-06 2.91651161549e-06 -7.48892374604e-05)
(-1.87146747978e-06 2.65798851727e-06 -7.24244811039e-05)
(-2.02978557696e-06 2.33024775053e-06 -7.29592471004e-05)
(2.49236393845e-06 2.73953020543e-06 -5.82583409829e-05)
(2.32661976327e-06 3.09925779536e-06 -5.58028493094e-05)
(2.0513417641e-06 3.38732458211e-06 -5.67878115502e-05)
(1.71293804902e-06 3.60523757573e-06 -5.95386462136e-05)
(1.32937150945e-06 3.76589456259e-06 -6.28048219534e-05)
(9.17822299076e-07 3.87597517282e-06 -6.57037859472e-05)
(4.89668887168e-07 3.94089032422e-06 -6.76531924131e-05)
(5.33944212777e-08 3.96387431625e-06 -6.83194317428e-05)
(-3.83764795583e-07 3.9459876851e-06 -6.75914908676e-05)
(-8.14590754369e-07 3.88601092744e-06 -6.55809980148e-05)
(-1.23063163476e-06 3.78052921193e-06 -6.26228623035e-05)
(-1.62052286244e-06 3.6239201267e-06 -5.93008769792e-05)
(-1.96707682409e-06 3.4092334617e-06 -5.64971599936e-05)
(-2.25187301034e-06 3.1240075526e-06 -5.54431791045e-05)
(-2.43049565023e-06 2.76502307666e-06 -5.7783697486e-05)
(2.88286911033e-06 3.14673637505e-06 -4.00455487188e-05)
(2.6980908188e-06 3.52287349818e-06 -3.57312516258e-05)
(2.39242623317e-06 3.82557991827e-06 -3.52061840686e-05)
(2.00996074763e-06 4.05812478731e-06 -3.67000946135e-05)
(1.5682843856e-06 4.23251454436e-06 -3.89536163503e-05)
(1.08635383639e-06 4.35378749664e-06 -4.11037997758e-05)
(5.78900956628e-07 4.42596183101e-06 -4.25909977068e-05)
(5.86307362815e-08 4.45142463998e-06 -4.30975575488e-05)
(-4.62561137501e-07 4.43096490915e-06 -4.25182055288e-05)
(-9.72791919878e-07 4.3636775601e-06 -4.09590964217e-05)
(-1.45937643252e-06 4.24703365956e-06 -3.87398510608e-05)
(-1.90759164375e-06 4.0768257915e-06 -3.64225228779e-05)
(-2.29844857196e-06 3.84775510094e-06 -3.48704033859e-05)
(-2.61398330757e-06 3.54826299726e-06 -3.53202540858e-05)
(-2.81223280904e-06 3.17321262304e-06 -3.95128309648e-05)
(3.2397167884e-06 3.50998849443e-06 -1.94996182514e-05)
(3.0373379812e-06 3.88579430824e-06 -1.34029432339e-05)
(2.70511625158e-06 4.18979251513e-06 -1.1335299934e-05)
(2.28294493584e-06 4.42643814922e-06 -1.14550406783e-05)
(1.78815859468e-06 4.60598389175e-06 -1.25471447373e-05)
(1.24156816524e-06 4.73192730695e-06 -1.3812652768e-05)
(6.61133933897e-07 4.80723325958e-06 -1.47444982705e-05)
(6.35276159053e-08 4.83371360913e-06 -1.50577872291e-05)
(-5.35016040857e-07 4.81199268193e-06 -1.46584294658e-05)
(-1.11826857352e-06 4.74137701714e-06 -1.36415894236e-05)
(-1.66956723997e-06 4.61996516265e-06 -1.22947204208e-05)
(-2.17096252496e-06 4.44463491245e-06 -1.1128447176e-05)
(-2.60160343377e-06 4.21165472545e-06 -1.09433345474e-05)
(-2.94389096198e-06 3.91123375247e-06 -1.29278057001e-05)
(-3.16012419676e-06 3.53692577137e-06 -1.889441168e-05)
(3.54992500696e-06 3.81265979354e-06 2.36838929665e-06)
(3.33097218559e-06 4.17151809982e-06 1.00425405852e-05)
(2.97566379326e-06 4.46408070783e-06 1.36622760003e-05)
(2.5186605394e-06 4.69408522389e-06 1.5051567785e-05)
(1.97765716104e-06 4.86973426877e-06 1.52957657433e-05)
(1.3752206857e-06 4.99341970482e-06 1.50729818112e-05)
(7.32002395385e-07 5.06749458174e-06 1.48036917044e-05)
(6.79826340467e-08 5.0934588543e-06 1.47220462129e-05)
(-5.96974651898e-07 5.07183855889e-06 1.4905309509e-05)
(-1.24299755668e-06 5.00209130419e-06 1.52752215722e-05)
(-1.85010036368e-06 4.88268310441e-06 1.55947474699e-05)
(-2.39764559003e-06 4.71115860563e-06 1.54386224009e-05)
(-2.8630288419e-06 4.48493206459e-06 1.41247680532e-05)
(-3.22841506112e-06 4.1962904074e-06 1.05973210086e-05)
(-3.46138032801e-06 3.83937241475e-06 3.06217464977e-06)
(3.80242470387e-06 4.04018332478e-06 2.40865666563e-05)
(3.56475423133e-06 4.37261762718e-06 3.30963603115e-05)
(3.18725525872e-06 4.64023434105e-06 3.83496931097e-05)
(2.69993176678e-06 4.85029790205e-06 4.14536712796e-05)
(2.12181943796e-06 5.00996585184e-06 4.32610768421e-05)
(1.47635303508e-06 5.12192723476e-06 4.42718260776e-05)
(7.85677995118e-07 5.18877443408e-06 4.47898206727e-05)
(7.18370602308e-08 5.21213034037e-06 4.49836060338e-05)
(-6.42926531232e-07 5.19256444752e-06 4.49090943183e-05)
(-1.33635222881e-06 5.12954022371e-06 4.45099268233e-05)
(-1.98637071272e-06 5.02145452106e-06 4.36149857565e-05)
(-2.57084827328e-06 4.86567948808e-06 4.191488237e-05)
(-3.06631124963e-06 4.6594103844e-06 3.89019242234e-05)
(-3.45369371095e-06 4.39600080003e-06 3.37501033816e-05)
(-3.70510000463e-06 4.0660518779e-06 2.4882457178e-05)
(3.98357759505e-06 4.22697415455e-06 4.34904639921e-05)
(3.71497935908e-06 4.50218572124e-06 5.396483526e-05)
(3.31319957334e-06 4.72204574546e-06 6.11020907848e-05)
(2.80314770783e-06 4.89085522969e-06 6.62340499689e-05)
(2.20207039704e-06 5.01691227916e-06 6.98945385119e-05)
(1.53223186501e-06 5.10411671515e-06 7.23629337657e-05)
(8.15639092084e-07 5.1557578355e-06 7.38085503563e-05)
(7.49711244667e-08 5.17377764965e-06 7.43256109582e-05)
(-6.66595787283e-07 5.15884964815e-06 7.39460234371e-05)
(-1.38585779395e-06 5.11037020612e-06 7.26384413627e-05)
(-2.06009180045e-06 5.02645687424e-06 7.03073525247e-05)
(-2.66728531264e-06 4.90384855303e-06 6.67791678349e-05)
(-3.18512757691e-06 4.73858413687e-06 6.17621825005e-05)
(-3.59664071192e-06 4.52311753758e-06 5.47540351528e-05)
(-3.87767740048e-06 4.25076537891e-06 4.43694715709e-05)
(1.40065032508e-08 2.53003256089e-08 -1.63806683312e-05)
(6.69172673534e-09 3.44864558436e-08 -1.75047554031e-05)
(1.98022506887e-09 3.99788797204e-08 -1.87284520099e-05)
(-1.03303666309e-09 4.31930912697e-08 -1.99017360909e-05)
(-2.42053303795e-09 4.49603966467e-08 -2.09155047134e-05)
(-2.23624514329e-09 4.57589820542e-08 -2.16915332736e-05)
(-9.60607610367e-10 4.6061941404e-08 -2.21771832096e-05)
(8.81503226183e-10 4.6167679868e-08 -2.2341676514e-05)
(2.6830717225e-09 4.61757363332e-08 -2.21730314586e-05)
(3.83969402224e-09 4.59786297323e-08 -2.16832273394e-05)
(3.8468350846e-09 4.5272505379e-08 -2.09030144023e-05)
(2.30995385386e-09 4.35871388327e-08 -1.98849113023e-05)
(-9.22070013665e-10 4.03376632814e-08 -1.87067623575e-05)
(-5.92435184358e-09 3.48126536269e-08 -1.74762275871e-05)
(-1.35679923845e-08 2.55086585088e-08 -1.63388030092e-05)
(6.4630486507e-08 9.5381974547e-08 -4.24861513013e-05)
(4.46164819992e-08 1.23010478403e-07 -4.51580724383e-05)
(2.934945099e-08 1.41876822006e-07 -4.81793132968e-05)
(1.7904762757e-08 1.54485799782e-07 -5.11364264787e-05)
(1.00430781041e-08 1.62587838663e-07 -5.37225288048e-05)
(5.59494420353e-09 1.67316235307e-07 -5.57166060116e-05)
(3.57562761934e-09 1.69754245325e-07 -5.69694164943e-05)
(2.81477094884e-09 1.70590839917e-07 -5.7393439766e-05)
(1.94564430726e-09 1.7005802354e-07 -5.69565643731e-05)
(-3.91686663455e-10 1.67904314903e-07 -5.56909101353e-05)
(-5.32040063871e-09 1.63421846542e-07 -5.36839218522e-05)
(-1.36848923692e-08 1.55517200253e-07 -5.10844976312e-05)
(-2.57799654788e-08 1.42855112581e-07 -4.811254419e-05)
(-4.18703901938e-08 1.23924470161e-07 -4.50707729905e-05)
(-6.28748763951e-08 9.60156870927e-08 -4.23630536789e-05)
(1.40370939633e-07 1.88465287905e-07 -6.18622875856e-05)
(1.09322416452e-07 2.35556775036e-07 -6.54206913745e-05)
(8.26004693327e-08 2.70420487401e-07 -6.96163401884e-05)
(6.01422117634e-08 2.95549252793e-07 -7.381100438e-05)
(4.16660747016e-08 3.13001486563e-07 -7.75242191123e-05)
(2.70582293098e-08 3.24184207709e-07 -8.0408044145e-05)
(1.52370362806e-08 3.30417193621e-07 -8.22267874167e-05)
(4.85401366825e-09 3.32546245309e-07 -8.28421271962e-05)
(-5.69085434748e-09 3.30848846725e-07 -8.22049625258e-05)
(-1.79871395131e-08 3.25021367131e-07 -8.03644392944e-05)
(-3.33271360348e-08 3.14194011932e-07 -7.74587871255e-05)
(-5.26454562025e-08 2.97014821417e-07 -7.37232019835e-05)
(-7.61663647769e-08 2.71860495709e-07 -6.95040158546e-05)
(-1.04159980276e-07 2.36919489017e-07 -6.5275586095e-05)
(-1.36822809746e-07 1.89501100648e-07 -6.16627465062e-05)
(2.27939308834e-07 2.90682277041e-07 -7.49720679739e-05)
(1.87293007843e-07 3.55686218988e-07 -7.88217254118e-05)
(1.49089447624e-07 4.05915790579e-07 -8.36235267043e-05)
(1.1452721448e-07 4.43467173404e-07 -8.85534887854e-05)
(8.3398869409e-08 4.70479075444e-07 -9.29821992804e-05)
(5.57825315218e-08 4.88445201981e-07 -9.64511016673e-05)
(3.07341017467e-08 4.98751178453e-07 -9.86486748338e-05)
(7.00108331e-09 5.02276422512e-07 -9.93920570531e-05)
(-1.69408055529e-08 4.99301746518e-07 -9.8617695824e-05)
(-4.26021403252e-08 4.89511983313e-07 -9.63892638798e-05)
(-7.11787502665e-08 4.71995166196e-07 -9.28895658657e-05)
(-1.03480129299e-07 4.45321007406e-07 -8.84295880259e-05)
(-1.39509802888e-07 4.07800548937e-07 -8.34660623828e-05)
(-1.79388918404e-07 3.57519412013e-07 -7.86211348172e-05)
(-2.2219715103e-07 2.92173009217e-07 -7.47030180128e-05)
(3.24875934048e-07 4.00125606299e-07 -8.22336019598e-05)
(2.75960352319e-07 4.81728126904e-07 -8.58394067082e-05)
(2.26528963854e-07 5.46590336316e-07 -9.07333763131e-05)
(1.79116664083e-07 5.96214055569e-07 -9.59408488962e-05)