/*--------------------------------*- C++ -*----------------------------------*\
  =========                 |
  \\      /  F ield         | OpenFOAM: The Open Source CFD Toolbox
   \\    /   O peration     | Website:  https://openfoam.org
    \\  /    A nd           | Version:  7
     \\/     M anipulation  |
\*---------------------------------------------------------------------------*/
FoamFile
{
    version     2.0;
    format      ascii;
    class       volScalarField;
    location    "1.64";
    object      p;
}
// * * * * * * * * * * * * * * * * * * * * * * * * * * * * * * * * * * * * * //

dimensions      [0 2 -2 0 0 0 0];

internalField   nonuniform List<scalar> 
22500
(
-3.22014360014e-05
-3.21990076251e-05
-3.21973392489e-05
-3.21954176846e-05
-3.21939683786e-05
-3.21929578421e-05
-3.21924479548e-05
-3.21924418059e-05
-3.21929562247e-05
-3.21939578518e-05
-3.21954227863e-05
-3.21972645546e-05
-3.21994881975e-05
-3.22013361339e-05
-3.22038711994e-05
-3.21880281905e-05
-3.21848640511e-05
-3.21825159376e-05
-3.21798768895e-05
-3.21777567519e-05
-3.217620397e-05
-3.21753431185e-05
-3.21752161974e-05
-3.21758485926e-05
-3.21771983247e-05
-3.21792032862e-05
-3.21817155773e-05
-3.21846614692e-05
-3.21871990728e-05
-3.21904848501e-05
-3.21749814316e-05
-3.21711020355e-05
-3.21680760086e-05
-3.21647207226e-05
-3.21619414694e-05
-3.21598521534e-05
-3.21586428603e-05
-3.21583957019e-05
-3.21591475678e-05
-3.21608452734e-05
-3.21633872545e-05
-3.21665605988e-05
-3.21702284454e-05
-3.21734517988e-05
-3.21774638354e-05
-3.21627342463e-05
-3.21581236449e-05
-3.21543463725e-05
-3.21502397733e-05
-3.21467712663e-05
-3.21441242672e-05
-3.21425518506e-05
-3.21421781177e-05
-3.21430525342e-05
-3.21451096929e-05
-3.21482071256e-05
-3.21520700787e-05
-3.21564936586e-05
-3.21604772581e-05
-3.21652310169e-05
-3.21501596747e-05
-3.21447184661e-05
-3.21400687672e-05
-3.21351313787e-05
-3.21309052897e-05
-3.21276529722e-05
-3.21256878849e-05
-3.21251765457e-05
-3.21261813476e-05
-3.21286245426e-05
-3.21323221727e-05
-3.21369407929e-05
-3.21421982005e-05
-3.21470645871e-05
-3.21526615016e-05
-3.2136904722e-05
-3.21305250097e-05
-3.21249116633e-05
-3.21190902058e-05
-3.2114065944e-05
-3.21101843828e-05
-3.21078133955e-05
-3.21071597417e-05
-3.2108297869e-05
-3.21111385911e-05
-3.21154588334e-05
-3.2120872482e-05
-3.21270164357e-05
-3.21328563997e-05
-3.21394035602e-05
-3.21229813914e-05
-3.21155812172e-05
-3.21089640278e-05
-3.21022508842e-05
-3.20964329874e-05
-3.2091934883e-05
-3.20891693579e-05
-3.20883774287e-05
-3.20896437603e-05
-3.20928696376e-05
-3.20977987206e-05
-3.2104001816e-05
-3.21110386532e-05
-3.21178924452e-05
-3.21254713436e-05
-3.21084902947e-05
-3.21000281775e-05
-3.20924187014e-05
-3.20848584213e-05
-3.20783010915e-05
-3.20732387742e-05
-3.20701161326e-05
-3.20691992636e-05
-3.20705800592e-05
-3.20741532915e-05
-3.20796384803e-05
-3.20865763754e-05
-3.20944607344e-05
-3.21023156287e-05
-3.21109662438e-05
-3.209357759e-05
-3.20840635973e-05
-3.20755257806e-05
-3.20672157401e-05
-3.20600223511e-05
-3.20544868967e-05
-3.20510696456e-05
-3.20500498925e-05
-3.20515229409e-05
-3.20553808676e-05
-3.20613309322e-05
-3.20688998409e-05
-3.20775336034e-05
-3.20863242681e-05
-3.20960371255e-05
-3.20784177255e-05
-3.20679106241e-05
-3.20585571282e-05
-3.20496443908e-05
-3.20419639175e-05
-3.20360814988e-05
-3.20324543783e-05
-3.20313615684e-05
-3.20328970599e-05
-3.2036954977e-05
-3.20432438354e-05
-3.2051294689e-05
-3.20605301374e-05
-3.20701425904e-05
-3.20808574326e-05
-3.20631746214e-05
-3.20517754069e-05
-3.20417645041e-05
-3.203244055e-05
-3.20244603785e-05
-3.20183855061e-05
-3.20146509139e-05
-3.20135206329e-05
-3.20150828862e-05
-3.2019238442e-05
-3.20257115894e-05
-3.20340570578e-05
-3.20437023311e-05
-3.20539770967e-05
-3.20655938409e-05
-3.2047939144e-05
-3.20358013527e-05
-3.2025347168e-05
-3.20158434093e-05
-3.20077798195e-05
-3.20016869136e-05
-3.19979583969e-05
-3.19968300427e-05
-3.19983794225e-05
-3.20025188277e-05
-3.20090019812e-05
-3.20174257627e-05
-3.20272492712e-05
-3.20379712384e-05
-3.20503365968e-05
-3.20325865833e-05
-3.20200204974e-05
-3.20094303113e-05
-3.20000165329e-05
-3.19921072735e-05
-3.19861837918e-05
-3.19825818891e-05
-3.19814967679e-05
-3.19829912269e-05
-3.19869934376e-05
-3.19932988172e-05
-3.20015631677e-05
-3.2011295225e-05
-3.2022155977e-05
-3.20349583681e-05
-3.20168906069e-05
-3.20043372181e-05
-3.19939685607e-05
-3.19849471342e-05
-3.1977458625e-05
-3.19719167533e-05
-3.19685768877e-05
-3.19675806617e-05
-3.19689732169e-05
-3.19727017574e-05
-3.19786161876e-05
-3.19864544804e-05
-3.19957930444e-05
-3.2006437105e-05
-3.20192288396e-05
-3.20024034889e-05
-3.19886283121e-05
-3.19787783859e-05
-3.1970352718e-05
-3.19635234217e-05
-3.19585628282e-05
-3.19556113742e-05
-3.19547471911e-05
-3.1955994927e-05
-3.19593232454e-05
-3.1964647403e-05
-3.19718212849e-05
-3.19805657822e-05
-3.19907000389e-05
-3.20047052816e-05
-3.12526267741e-05
-3.12529560209e-05
-3.1253432214e-05
-3.12539753436e-05
-3.12544393775e-05
-3.12547599014e-05
-3.12548933148e-05
-3.12548213785e-05
-3.12545409337e-05
-3.12540678089e-05
-3.12534368768e-05
-3.12527099075e-05
-3.12519738405e-05
-3.12513874174e-05
-3.12510152324e-05
-3.12512042095e-05
-3.1251557032e-05
-3.12520638903e-05
-3.12526594467e-05
-3.12531862262e-05
-3.12535651451e-05
-3.12537403032e-05
-3.12536856401e-05
-3.12533956309e-05
-3.12528889121e-05
-3.12522076605e-05
-3.12514242803e-05
-3.12506365862e-05
-3.12500133349e-05
-3.12496059031e-05
-3.12506634691e-05
-3.12511177593e-05
-3.12517119613e-05
-3.12523963601e-05
-3.12530037454e-05
-3.12534477563e-05
-3.12536659486e-05
-3.12536272682e-05
-3.12533242148e-05
-3.12527767246e-05
-3.12520311357e-05
-3.12511667689e-05
-3.12502882821e-05
-3.12495758601e-05
-3.12490653869e-05
-3.12510203118e-05
-3.12515732913e-05
-3.12522385123e-05
-3.12529806902e-05
-3.12536300914e-05
-3.12541028116e-05
-3.12543385441e-05
-3.12543074954e-05
-3.1254002327e-05
-3.12534419598e-05
-3.1252670554e-05
-3.12517651662e-05
-3.12508278792e-05
-3.12500414544e-05
-3.12494291212e-05
-3.12516268346e-05
-3.12521912305e-05
-3.12528399664e-05
-3.12535447175e-05
-3.12541478543e-05
-3.125457786e-05
-3.1254785331e-05
-3.12547470331e-05
-3.12544580402e-05
-3.12539339419e-05
-3.12532111332e-05
-3.12523549037e-05
-3.12514544457e-05
-3.12506806203e-05
-3.12500515895e-05
-3.12520215627e-05
-3.12524766964e-05
-3.12530019829e-05
-3.12535628744e-05
-3.12540273153e-05
-3.12543430788e-05
-3.1254477508e-05
-3.12544176786e-05
-3.12541620587e-05
-3.12537218759e-05
-3.12531218823e-05
-3.12524094584e-05
-3.12516530051e-05
-3.12509985e-05
-3.12504714957e-05
-3.12519732784e-05
-3.12522082429e-05
-3.12525190602e-05
-3.12528516585e-05
-3.12531070401e-05
-3.12532562799e-05
-3.12532858387e-05
-3.12531944304e-05
-3.12529841512e-05
-3.12526615578e-05
-3.12522383564e-05
-3.1251741392e-05
-3.12512143082e-05
-3.12507695873e-05
-3.1250456491e-05
-3.1251396599e-05
-3.12513278607e-05
-3.125136495e-05
-3.1251418624e-05
-3.1251425798e-05
-3.12513812805e-05
-3.1251290367e-05
-3.12511627175e-05
-3.12510040552e-05
-3.12508162332e-05
-3.12505985726e-05
-3.12503574964e-05
-3.12501113203e-05
-3.12499361602e-05
-3.12499200256e-05
-3.1250300789e-05
-3.12498835343e-05
-3.12496210898e-05
-3.12493785084e-05
-3.12491271984e-05
-3.12488839463e-05
-3.12486708329e-05
-3.12485068917e-05
-3.12484008595e-05
-3.124835049e-05
-3.1248344322e-05
-3.12483703845e-05
-3.12484233289e-05
-3.12485443643e-05
-3.12488709512e-05
-3.124875502e-05
-3.12479821609e-05
-3.12474226374e-05
-3.12468934404e-05
-3.12463958713e-05
-3.12459661667e-05
-3.12456397711e-05
-3.12454431532e-05
-3.12453869207e-05
-3.12454658571e-05
-3.12456597742e-05
-3.12459415374e-05
-3.12462848933e-05
-3.12467005075e-05
-3.12473780872e-05
-3.12468616269e-05
-3.12457589735e-05
-3.12449260189e-05
-3.12441379771e-05
-3.12434215567e-05
-3.12428287932e-05
-3.12424051735e-05
-3.12421815655e-05
-3.12421698431e-05
-3.12423625213e-05
-3.12427336142e-05
-3.1243244532e-05
-3.12438515071e-05
-3.12445391846e-05
-3.12455436225e-05
-3.1244740359e-05
-3.12433556215e-05
-3.12422844551e-05
-3.12412743055e-05
-3.12403743342e-05
-3.12396488211e-05
-3.12391477999e-05
-3.12389045899e-05
-3.12389301958e-05
-3.12392171279e-05
-3.12397356811e-05
-3.12404410391e-05
-3.12412759349e-05
-3.12422017771e-05
-3.12434855348e-05
-3.12425176492e-05
-3.12409064491e-05
-3.12396308829e-05
-3.12384361747e-05
-3.12373912953e-05
-3.12365653761e-05
-3.12360104197e-05
-3.12357544601e-05
-3.12358107556e-05
-3.12361686784e-05
-3.12368024598e-05
-3.12376644612e-05
-3.12386909865e-05
-3.12398230133e-05
-3.12413326096e-05
-3.12403074829e-05
-3.12385028085e-05
-3.12370493858e-05
-3.12357078542e-05
-3.12345626422e-05
-3.12336772607e-05
-3.12330922678e-05
-3.12328347871e-05
-3.1232910445e-05
-3.12333153592e-05
-3.12340245102e-05
-3.12349991865e-05
-3.12361801047e-05
-3.12374932263e-05
-3.12391985091e-05
-3.1238046625e-05
-3.12361795889e-05
-3.12345779942e-05
-3.12331441756e-05
-3.12319584592e-05
-3.12310605059e-05
-3.12304789762e-05
-3.12302277934e-05
-3.12303136168e-05
-3.12307307362e-05
-3.12314666656e-05
-3.12324940689e-05
-3.12337769122e-05
-3.12352401834e-05
-3.12370104798e-05
-2.90565450129e-05
-2.90565236554e-05
-2.90565696485e-05
-2.9056673789e-05
-2.90568081403e-05
-2.90569500788e-05
-2.90570799654e-05
-2.90571822492e-05
-2.90572499674e-05
-2.90572838443e-05
-2.90572895896e-05
-2.90572751636e-05
-2.90572501804e-05
-2.90572206138e-05
-2.90571945128e-05
-2.90566959598e-05
-2.90566812754e-05
-2.90567317675e-05
-2.90568357521e-05
-2.90569684793e-05
-2.90571077921e-05
-2.90572349366e-05
-2.90573351068e-05
-2.90574012854e-05
-2.90574340269e-05
-2.9057438674e-05
-2.90574229199e-05
-2.90573960825e-05
-2.9057363903e-05
-2.9057336969e-05
-2.90566873967e-05
-2.90566664917e-05
-2.90567099184e-05
-2.90568043911e-05
-2.90569285104e-05
-2.90570603651e-05
-2.90571818262e-05
-2.9057278848e-05
-2.90573446062e-05
-2.90573795908e-05
-2.90573888459e-05
-2.90573796553e-05
-2.90573609371e-05
-2.90573376327e-05
-2.90573212064e-05
-2.9056643549e-05
-2.9056619287e-05
-2.90566572667e-05
-2.90567439752e-05
-2.90568602801e-05
-2.90569849306e-05
-2.90571004183e-05
-2.90571935423e-05
-2.90572577816e-05
-2.90572936303e-05
-2.9057305957e-05
-2.90573017998e-05
-2.90572897768e-05
-2.90572739435e-05
-2.90572660603e-05
-2.90566156043e-05
-2.9056595835e-05
-2.90566338066e-05
-2.90567166679e-05
-2.90568273738e-05
-2.90569458858e-05
-2.90570556951e-05
-2.90571443644e-05
-2.90572057008e-05
-2.90572402082e-05
-2.90572526437e-05
-2.90572498883e-05
-2.90572403192e-05
-2.90572273023e-05
-2.90572225104e-05
-2.90566119958e-05
-2.90566012865e-05
-2.90566436944e-05
-2.90567263438e-05
-2.90568338167e-05
-2.9056947592e-05
-2.90570521557e-05
-2.90571360497e-05
-2.90571934503e-05
-2.9057224942e-05
-2.905723517e-05
-2.90572308797e-05
-2.90572202065e-05
-2.90572061117e-05
-2.90571993558e-05
-2.9056631813e-05
-2.90566346132e-05
-2.90566845601e-05
-2.90567689954e-05
-2.90568744907e-05
-2.9056984065e-05
-2.90570834958e-05
-2.90571622951e-05
-2.90572150875e-05
-2.90572425225e-05
-2.90572491142e-05
-2.90572414213e-05
-2.9057227283e-05
-2.90572095357e-05
-2.90571971839e-05
-2.90566726728e-05
-2.90566907995e-05
-2.90567491127e-05
-2.90568365982e-05
-2.90569409245e-05
-2.90570466554e-05
-2.90571409758e-05
-2.90572144837e-05
-2.90572623154e-05
-2.90572852197e-05
-2.90572875138e-05
-2.90572755141e-05
-2.90572567164e-05
-2.90572340584e-05
-2.9057213774e-05
-2.90567295397e-05
-2.9056763457e-05
-2.90568300016e-05
-2.9056920608e-05
-2.90570235805e-05
-2.90571252318e-05
-2.90572142398e-05
-2.90572822564e-05
-2.90573250399e-05
-2.90573433769e-05
-2.90573413542e-05
-2.90573249767e-05
-2.90573013465e-05
-2.905727366e-05
-2.90572450176e-05
-2.9056796998e-05
-2.90568441468e-05
-2.90569177359e-05
-2.90570107318e-05
-2.90571119107e-05
-2.90572091971e-05
-2.90572926334e-05
-2.90573551071e-05
-2.90573929189e-05
-2.90574069691e-05
-2.90574010088e-05
-2.90573806943e-05
-2.90573527494e-05
-2.90573208017e-05
-2.90572846021e-05
-2.90568673274e-05
-2.90569247203e-05
-2.90570037489e-05
-2.9057098065e-05
-2.90571968203e-05
-2.90572892134e-05
-2.90573669232e-05
-2.90574237776e-05
-2.90574568797e-05
-2.90574670191e-05
-2.90574576843e-05
-2.90574340785e-05
-2.90574025849e-05
-2.90573674643e-05
-2.90573260067e-05
-2.90569336947e-05
-2.90569977022e-05
-2.90570803311e-05
-2.90571751385e-05
-2.90572708066e-05
-2.9057358153e-05
-2.90574299256e-05
-2.90574813433e-05
-2.9057509952e-05
-2.90575166475e-05
-2.90575044419e-05
-2.90574780632e-05
-2.90574435382e-05
-2.90574061331e-05
-2.90573618721e-05
-2.90569874503e-05
-2.9057055329e-05
-2.90571411966e-05
-2.90572362881e-05
-2.90573290164e-05
-2.90574111259e-05
-2.90574772245e-05
-2.90575233693e-05
-2.90575478452e-05
-2.90575514445e-05
-2.90575365832e-05
-2.90575074255e-05
-2.90574694507e-05
-2.90574290696e-05
-2.90573836591e-05
-2.90570228264e-05
-2.90570940418e-05
-2.90571836301e-05
-2.9057279313e-05
-2.90573686623e-05
-2.90574457565e-05
-2.90575063032e-05
-2.90575475957e-05
-2.90575684802e-05
-2.90575693295e-05
-2.90575522743e-05
-2.90575203612e-05
-2.90574780664e-05
-2.90574327979e-05
-2.90573843736e-05
-2.90570771357e-05
-2.90571394015e-05
-2.90572263486e-05
-2.90573141505e-05
-2.90573938052e-05
-2.90574612999e-05
-2.90575140715e-05
-2.90575503597e-05
-2.90575692112e-05
-2.90575711375e-05
-2.90575570937e-05
-2.90575293306e-05
-2.9057490338e-05
-2.90574456684e-05
-2.90574064409e-05
-2.78342895617e-05
-2.78342943785e-05
-2.78342904547e-05
-2.78342662973e-05
-2.78342233761e-05
-2.78341685348e-05
-2.78341120151e-05
-2.78340633409e-05
-2.78340291696e-05
-2.78340119861e-05
-2.78340111849e-05
-2.78340235018e-05
-2.78340438567e-05
-2.78340644704e-05
-2.78340790589e-05
-2.78342446738e-05
-2.78342471744e-05
-2.7834240164e-05
-2.7834215335e-05
-2.78341730391e-05
-2.78341200305e-05
-2.78340656426e-05
-2.78340188889e-05
-2.78339863788e-05
-2.78339705174e-05
-2.78339707454e-05
-2.78339839086e-05
-2.78340049164e-05
-2.78340261827e-05
-2.78340406502e-05
-2.78343023363e-05
-2.78343123621e-05
-2.78343088023e-05
-2.78342870781e-05
-2.78342475995e-05
-2.78341977591e-05
-2.78341462892e-05
-2.78341015776e-05
-2.78340696724e-05
-2.78340528456e-05
-2.7834050529e-05
-2.78340597251e-05
-2.78340755243e-05
-2.78340906204e-05
-2.78340984544e-05
-2.78343682856e-05
-2.78343826668e-05
-2.78343812659e-05
-2.78343614469e-05
-2.78343244689e-05
-2.78342776635e-05
-2.78342291375e-05
-2.78341867249e-05
-2.78341559236e-05
-2.78341387953e-05
-2.78341347107e-05
-2.78341407842e-05
-2.78341522739e-05
-2.78341622799e-05
-2.78341651126e-05
-2.78344212802e-05
-2.78344373125e-05
-2.78344358006e-05
-2.78344156857e-05
-2.7834379673e-05
-2.78343349059e-05
-2.78342891314e-05
-2.7834249242e-05
-2.78342202254e-05
-2.78342037578e-05
-2.78341991868e-05
-2.78342036667e-05
-2.78342126473e-05
-2.78342196403e-05
-2.78342196303e-05
-2.78344636815e-05
-2.78344789035e-05
-2.78344751442e-05
-2.78344539437e-05
-2.78344184537e-05
-2.7834375582e-05
-2.78343323961e-05
-2.78342951726e-05
-2.78342682831e-05
-2.78342531434e-05
-2.78342489574e-05
-2.78342529518e-05
-2.78342607412e-05
-2.78342662661e-05
-2.78342651851e-05
-2.78344991639e-05
-2.78345124431e-05
-2.78345053283e-05
-2.78344820837e-05
-2.78344462225e-05
-2.78344045998e-05
-2.7834363677e-05
-2.783432909e-05
-2.78343045319e-05
-2.78342911447e-05
-2.78342879727e-05
-2.78342922982e-05
-2.7834299894e-05
-2.78343050943e-05
-2.7834304142e-05
-2.78345288193e-05
-2.78345380774e-05
-2.78345270492e-05
-2.78345012928e-05
-2.78344649375e-05
-2.78344243968e-05
-2.78343856139e-05
-2.78343535414e-05
-2.78343313845e-05
-2.78343199473e-05
-2.78343181869e-05
-2.78343234222e-05
-2.78343315773e-05
-2.78343373561e-05
-2.78343377235e-05
-2.78345530506e-05
-2.78345582202e-05
-2.78345430844e-05
-2.78345145974e-05
-2.78344774227e-05
-2.78344376201e-05
-2.78344007071e-05
-2.78343709551e-05
-2.7834351108e-05
-2.78343416678e-05
-2.78343415027e-05
-2.78343479932e-05
-2.78343572177e-05
-2.78343642496e-05
-2.78343665418e-05
-2.78345733777e-05
-2.78345739968e-05
-2.78345546065e-05
-2.78345234929e-05
-2.78344855449e-05
-2.78344465844e-05
-2.78344114001e-05
-2.78343838623e-05
-2.78343661459e-05
-2.78343586104e-05
-2.78343600343e-05
-2.78343679035e-05
-2.78343784707e-05
-2.78343871321e-05
-2.78343920443e-05
-2.78345905117e-05
-2.78345870826e-05
-2.78345638353e-05
-2.78345303333e-05
-2.78344918746e-05
-2.78344536411e-05
-2.78344201511e-05
-2.78343945678e-05
-2.78343787948e-05
-2.78343729258e-05
-2.78343758058e-05
-2.78343850303e-05
-2.78343970519e-05
-2.78344076719e-05
-2.78344152427e-05
-2.78346069145e-05
-2.7834599107e-05
-2.78345721527e-05
-2.78345366391e-05
-2.7834497718e-05
-2.78344606924e-05
-2.78344286684e-05
-2.7834405067e-05
-2.78343908253e-05
-2.78343864869e-05
-2.78343905174e-05
-2.7834400955e-05
-2.78344144942e-05
-2.78344271796e-05
-2.78344378442e-05
-2.78346235931e-05
-2.78346115877e-05
-2.78345811078e-05
-2.78345435207e-05
-2.78345048263e-05
-2.78344682591e-05
-2.7834438469e-05
-2.78344160873e-05
-2.78344037492e-05
-2.78344002837e-05
-2.78344054635e-05
-2.78344170568e-05
-2.78344322825e-05
-2.78344476195e-05
-2.7834461614e-05
-2.78346418679e-05
-2.78346257682e-05
-2.78345913379e-05
-2.78345520403e-05
-2.78345127952e-05
-2.78344782462e-05
-2.78344492584e-05
-2.78344291766e-05
-2.78344175633e-05
-2.78344153631e-05
-2.78344211537e-05
-2.78344337887e-05
-2.78344508213e-05
-2.7834469204e-05
-2.78344874477e-05
-2.78346436326e-05
-2.78346247422e-05
-2.78345911859e-05
-2.78345549091e-05
-2.78345197958e-05
-2.78344883594e-05
-2.78344630411e-05
-2.78344443025e-05
-2.78344334293e-05
-2.78344298645e-05
-2.78344334735e-05
-2.78344431371e-05
-2.78344572774e-05
-2.78344739261e-05
-2.78344928877e-05
-2.60135409273e-05
-2.60135391924e-05
-2.6013575266e-05
-2.60136444575e-05
-2.60137249731e-05
-2.60138056184e-05
-2.60138811603e-05
-2.60139453781e-05
-2.60139946487e-05
-2.60140282437e-05
-2.60140476298e-05
-2.6014055482e-05
-2.6014055766e-05
-2.60140533737e-05
-2.60140519256e-05
-2.60135681429e-05
-2.60135686487e-05
-2.60136059801e-05
-2.60136740095e-05
-2.60137531654e-05
-2.60138327806e-05
-2.6013907159e-05
-2.60139703188e-05
-2.60140186863e-05
-2.60140515199e-05
-2.60140701744e-05
-2.60140773881e-05
-2.60140770741e-05
-2.60140741589e-05
-2.60140728782e-05
-2.60135388231e-05
-2.60135365646e-05
-2.60135705794e-05
-2.60136333688e-05
-2.601370847e-05
-2.60137852585e-05
-2.60138573301e-05
-2.60139189144e-05
-2.60139666441e-05
-2.60139998626e-05
-2.60140198538e-05
-2.60140293032e-05
-2.60140320052e-05
-2.60140327889e-05
-2.60140357246e-05
-2.60135069433e-05
-2.60135029661e-05
-2.60135336703e-05
-2.60135919208e-05
-2.60136629173e-05
-2.60137363738e-05
-2.601380551e-05
-2.60138649472e-05
-2.6013911545e-05
-2.60139447194e-05
-2.60139656787e-05
-2.60139770449e-05
-2.60139824595e-05
-2.60139865633e-05
-2.60139931e-05
-2.60134846926e-05
-2.60134814691e-05
-2.6013509821e-05
-2.60135636954e-05
-2.60136301956e-05
-2.60136996976e-05
-2.60137654042e-05
-2.6013822157e-05
-2.60138670962e-05
-2.60138996497e-05
-2.60139209897e-05
-2.6013933613e-05
-2.60139409884e-05
-2.60139474907e-05
-2.6013956619e-05
-2.60134688482e-05
-2.60134660443e-05
-2.60134930503e-05
-2.60135432854e-05
-2.60136053943e-05
-2.60136706484e-05
-2.60137324458e-05
-2.6013786102e-05
-2.6013828966e-05
-2.60138605323e-05
-2.60138818819e-05
-2.6013895389e-05
-2.60139043063e-05
-2.60139126835e-05
-2.60139238473e-05
-2.60134563055e-05
-2.60134550566e-05
-2.60134812664e-05
-2.60135277459e-05
-2.60135852067e-05
-2.60136457863e-05
-2.6013703315e-05
-2.60137535494e-05
-2.60137940399e-05
-2.60138243465e-05
-2.60138454684e-05
-2.60138596178e-05
-2.601386981e-05
-2.6013879752e-05
-2.60138925903e-05
-2.6013445739e-05
-2.60134459191e-05
-2.60134713793e-05
-2.60135146138e-05
-2.60135676406e-05
-2.60136234455e-05
-2.60136765104e-05
-2.60137231012e-05
-2.60137610181e-05
-2.60137898755e-05
-2.6013810595e-05
-2.60138252064e-05
-2.60138364748e-05
-2.60138477382e-05
-2.60138620247e-05
-2.60134360519e-05
-2.60134380815e-05
-2.60134628541e-05
-2.60135030014e-05
-2.60135515584e-05
-2.60136024792e-05
-2.60136510116e-05
-2.60136938335e-05
-2.60137290681e-05
-2.60137563436e-05
-2.6013776521e-05
-2.60137914385e-05
-2.60138035876e-05
-2.60138159745e-05
-2.60138314836e-05
-2.60134271404e-05
-2.60134300436e-05
-2.60134541959e-05
-2.60134915015e-05
-2.60135357887e-05
-2.60135820051e-05
-2.60136259875e-05
-2.60136650773e-05
-2.60136975419e-05
-2.60137231751e-05
-2.60137426937e-05
-2.6013757753e-05
-2.60137705902e-05
-2.60137838784e-05
-2.60138004672e-05
-2.60134176106e-05
-2.60134213148e-05
-2.60134449037e-05
-2.60134794314e-05
-2.60135197067e-05
-2.60135612757e-05
-2.60136009366e-05
-2.60136362847e-05
-2.60136660688e-05
-2.60136899742e-05
-2.60137087297e-05
-2.60137237458e-05
-2.60137370093e-05
-2.60137509424e-05
-2.60137683514e-05
-2.6013407224e-05
-2.60134113841e-05
-2.60134341959e-05
-2.60134662705e-05
-2.6013502609e-05
-2.60135400382e-05
-2.60135754313e-05
-2.60136073596e-05
-2.60136343876e-05
-2.60136566489e-05
-2.60136744958e-05
-2.60136892217e-05
-2.60137025709e-05
-2.6013716725e-05
-2.60137346465e-05
-2.60133946427e-05
-2.60133992173e-05
-2.60134215494e-05
-2.6013451244e-05
-2.60134845859e-05
-2.60135178242e-05
-2.60135497282e-05
-2.60135781184e-05
-2.60136028549e-05
-2.6013623274e-05
-2.601364005e-05
-2.60136541203e-05
-2.60136669855e-05
-2.60136806538e-05
-2.60136983195e-05
-2.60133793352e-05
-2.60133843137e-05
-2.60134062832e-05
-2.60134347112e-05
-2.60134647266e-05
-2.60134951157e-05
-2.60135233642e-05
-2.60135492026e-05
-2.60135714076e-05
-2.60135901667e-05
-2.60136056492e-05
-2.60136186733e-05
-2.60136304379e-05
-2.60136426391e-05
-2.60136589662e-05
-2.60133708817e-05
-2.60133760502e-05
-2.60133960037e-05
-2.60134199576e-05
-2.60134460919e-05
-2.60134719961e-05
-2.60134969918e-05
-2.60135199739e-05
-2.60135406709e-05
-2.60135587969e-05
-2.60135744741e-05
-2.60135884237e-05
-2.6013601399e-05
-2.60136142406e-05
-2.60136297049e-05
-2.45510522273e-05
-2.45510745797e-05
-2.45511040669e-05
-2.45511251997e-05
-2.45511355469e-05
-2.4551135019e-05
-2.45511260274e-05
-2.45511137191e-05
-2.45511029883e-05
-2.45510968827e-05
-2.45510961068e-05
-2.45511000154e-05
-2.45511065582e-05
-2.45511127974e-05
-2.45511158765e-05
-2.455103669e-05
-2.45510586016e-05
-2.45510858596e-05
-2.45511063014e-05
-2.45511162978e-05
-2.4551115734e-05
-2.45511073338e-05
-2.45510958224e-05
-2.45510859559e-05
-2.45510805362e-05
-2.45510803502e-05
-2.45510847159e-05
-2.45510916721e-05
-2.4551098285e-05
-2.45511014573e-05
-2.45510595642e-05
-2.45510840058e-05
-2.45511103391e-05
-2.45511303149e-05
-2.45511403543e-05
-2.45511408319e-05
-2.45511340266e-05
-2.45511240417e-05
-2.45511151094e-05
-2.45511098696e-05
-2.45511091331e-05
-2.45511123033e-05
-2.4551117544e-05
-2.45511220521e-05
-2.45511229638e-05
-2.45510866725e-05
-2.45511112599e-05
-2.45511364676e-05
-2.45511556885e-05
-2.45511659503e-05
-2.45511675689e-05
-2.45511624502e-05
-2.45511541607e-05
-2.45511464286e-05
-2.45511416394e-05
-2.45511406137e-05
-2.45511428088e-05
-2.4551146547e-05
-2.45511492128e-05
-2.45511482691e-05
-2.45511103896e-05
-2.45511346019e-05
-2.45511578194e-05
-2.45511751165e-05
-2.45511847402e-05
-2.45511870178e-05
-2.4551183562e-05
-2.45511771573e-05
-2.45511709673e-05
-2.45511670426e-05
-2.45511661649e-05
-2.45511678712e-05
-2.45511706387e-05
-2.4551172099e-05
-2.45511699555e-05
-2.45511316344e-05
-2.45511546566e-05
-2.45511752484e-05
-2.4551190971e-05
-2.45512001531e-05
-2.45512031287e-05
-2.45512011422e-05
-2.45511965073e-05
-2.45511918369e-05
-2.45511888856e-05
-2.45511883314e-05
-2.45511897781e-05
-2.4551191858e-05
-2.45511924702e-05
-2.45511895436e-05
-2.45511526109e-05
-2.45511744398e-05
-2.45511923858e-05
-2.45512060726e-05
-2.4551214321e-05
-2.45512175893e-05
-2.45512168299e-05
-2.45512138609e-05
-2.45512107129e-05
-2.45512088078e-05
-2.45512087121e-05
-2.45512100621e-05
-2.45512116595e-05
-2.45512116688e-05
-2.45512081755e-05
-2.45511738219e-05
-2.45511935623e-05
-2.45512090614e-05
-2.45512209842e-05
-2.45512285088e-05
-2.45512320213e-05
-2.45512322583e-05
-2.45512306725e-05
-2.45512288483e-05
-2.45512278966e-05
-2.45512282502e-05
-2.45512295736e-05
-2.45512308056e-05
-2.45512303723e-05
-2.45512265146e-05
-2.4551195157e-05
-2.45512135602e-05
-2.45512268549e-05
-2.45512370159e-05
-2.45512435883e-05
-2.45512469831e-05
-2.45512479102e-05
-2.45512474029e-05
-2.45512466939e-05
-2.45512465828e-05
-2.45512473535e-05
-2.45512486932e-05
-2.45512496643e-05
-2.45512489165e-05
-2.4551244776e-05
-2.45512174421e-05
-2.45512342206e-05
-2.45512454897e-05
-2.45512540984e-05
-2.4551259765e-05
-2.45512630769e-05
-2.45512644105e-05
-2.45512647383e-05
-2.45512648711e-05
-2.45512654207e-05
-2.45512665246e-05
-2.45512678751e-05
-2.45512686438e-05
-2.45512676825e-05
-2.45512633981e-05
-2.45512402496e-05
-2.45512559353e-05
-2.45512656468e-05
-2.45512727819e-05
-2.45512776786e-05
-2.45512805969e-05
-2.4551282175e-05
-2.45512829798e-05
-2.45512837248e-05
-2.45512847215e-05
-2.45512860572e-05
-2.45512874003e-05
-2.45512880313e-05
-2.45512869517e-05
-2.45512825614e-05
-2.45512645074e-05
-2.45512790092e-05
-2.45512870917e-05
-2.45512930109e-05
-2.45512968558e-05
-2.45512997275e-05
-2.45513011631e-05
-2.4551302401e-05
-2.45513033859e-05
-2.45513047216e-05
-2.45513061587e-05
-2.4551307468e-05
-2.45513080301e-05
-2.45513069611e-05
-2.45513026543e-05
-2.4551290094e-05
-2.45513033932e-05
-2.45513100635e-05
-2.45513143427e-05
-2.45513180134e-05
-2.45513198495e-05
-2.45513217911e-05
-2.4551322736e-05
-2.45513241669e-05
-2.45513254731e-05
-2.45513269768e-05
-2.45513282724e-05
-2.45513288985e-05
-2.45513280833e-05
-2.45513240719e-05
-2.45513170497e-05
-2.45513295123e-05
-2.45513342015e-05
-2.4551337753e-05
-2.45513397834e-05
-2.455134213e-05
-2.45513431753e-05
-2.45513446053e-05
-2.45513456881e-05
-2.45513470908e-05
-2.45513484813e-05
-2.45513497573e-05
-2.45513505325e-05
-2.45513501655e-05
-2.45513468455e-05
-2.45513386696e-05
-2.45513503174e-05
-2.45513558398e-05
-2.45513594881e-05
-2.45513626183e-05
-2.45513646997e-05
-2.45513664473e-05
-2.45513674457e-05
-2.45513682654e-05
-2.45513687814e-05
-2.45513690376e-05
-2.45513689241e-05
-2.45513681653e-05
-2.45513664423e-05
-2.45513624477e-05
-2.28770131116e-05
-2.28769927778e-05
-2.28769963695e-05
-2.28770284396e-05
-2.28770754952e-05
-2.28771253679e-05
-2.28771708832e-05
-2.28772092516e-05
-2.28772401706e-05
-2.28772643229e-05
-2.28772832032e-05
-2.28772984283e-05
-2.28773123986e-05
-2.28773277542e-05
-2.28773472319e-05
-2.28770254627e-05
-2.28770070134e-05
-2.28770121155e-05
-2.28770430118e-05
-2.2877088326e-05
-2.28771368265e-05
-2.28771814103e-05
-2.28772192303e-05
-2.28772497304e-05
-2.28772735858e-05
-2.28772921517e-05
-2.28773071285e-05
-2.28773208024e-05
-2.28773358906e-05
-2.28773552668e-05
-2.28770187051e-05
-2.28770000594e-05
-2.28770052675e-05
-2.28770342518e-05
-2.28770769802e-05
-2.28771230052e-05
-2.28771657943e-05
-2.28772025342e-05
-2.28772325613e-05
-2.28772564305e-05
-2.28772753994e-05
-2.2877291117e-05
-2.28773057855e-05
-2.28773220378e-05
-2.28773425826e-05
-2.2877011523e-05
-2.28769939504e-05
-2.28769991491e-05
-2.28770261793e-05
-2.28770658657e-05
-2.28771089478e-05
-2.28771495064e-05
-2.28771848105e-05
-2.28772140903e-05
-2.28772377823e-05
-2.2877257009e-05
-2.28772733667e-05
-2.28772889273e-05
-2.28773062078e-05
-2.2877327699e-05
-2.2877008907e-05
-2.28769935007e-05
-2.28769988147e-05
-2.28770239302e-05
-2.28770603395e-05
-2.28771001296e-05
-2.28771380217e-05
-2.28771714882e-05
-2.28771996667e-05
-2.28772228642e-05
-2.28772420693e-05
-2.28772587659e-05
-2.28772748996e-05
-2.28772927789e-05
-2.28773147428e-05
-2.28770091712e-05
-2.28769957376e-05
-2.2877001728e-05
-2.28770249017e-05
-2.28770579924e-05
-2.28770943477e-05
-2.28771294028e-05
-2.28771608097e-05
-2.28771876736e-05
-2.28772101732e-05
-2.2877229163e-05
-2.28772460059e-05
-2.28772624995e-05
-2.28772807496e-05
-2.28773028436e-05
-2.28770107492e-05
-2.28769998943e-05
-2.28770065484e-05
-2.28770278351e-05
-2.28770577402e-05
-2.28770906625e-05
-2.28771227567e-05
-2.28771519118e-05
-2.28771772586e-05
-2.28771988727e-05
-2.28772174758e-05
-2.28772343058e-05
-2.28772509848e-05
-2.28772693808e-05
-2.28772914861e-05
-2.28770127822e-05
-2.28770045142e-05
-2.28770118125e-05
-2.2877031445e-05
-2.28770583431e-05
-2.28770879679e-05
-2.28771171365e-05
-2.28771440041e-05
-2.28771677428e-05
-2.28771883516e-05
-2.2877206444e-05
-2.28772231162e-05
-2.28772398257e-05
-2.28772582355e-05
-2.28772801079e-05
-2.28770147086e-05
-2.2877008956e-05
-2.2877016765e-05
-2.28770349226e-05
-2.28770591346e-05
-2.28770857551e-05
-2.2877112149e-05
-2.28771367771e-05
-2.28771588709e-05
-2.28771783951e-05
-2.2877195873e-05
-2.28772122656e-05
-2.28772288625e-05
-2.28772471162e-05
-2.28772687228e-05
-2.28770162742e-05
-2.2877012494e-05
-2.28770208421e-05
-2.28770377338e-05
-2.28770595935e-05
-2.28770834702e-05
-2.28771073214e-05
-2.28771298123e-05
-2.28771502942e-05
-2.28771687086e-05
-2.28771854869e-05
-2.28772014776e-05
-2.287721781e-05
-2.28772357759e-05
-2.28772568956e-05
-2.28770169554e-05
-2.28770148667e-05
-2.28770235241e-05
-2.28770392944e-05
-2.28770591067e-05
-2.28770806587e-05
-2.2877102238e-05
-2.28771228001e-05
-2.28771417676e-05
-2.28771590786e-05
-2.28771751115e-05
-2.28771905984e-05
-2.28772065154e-05
-2.28772240191e-05
-2.2877244601e-05
-2.28770166244e-05
-2.28770157171e-05
-2.2877024549e-05
-2.28770393758e-05
-2.2877057542e-05
-2.28770770099e-05
-2.2877096708e-05
-2.28771155205e-05
-2.28771331381e-05
-2.28771494048e-05
-2.28771646461e-05
-2.28771795289e-05
-2.28771948658e-05
-2.28772116968e-05
-2.28772314395e-05
-2.28770147648e-05
-2.2877014614e-05
-2.28770235852e-05
-2.28770377498e-05
-2.28770544768e-05
-2.28770725709e-05
-2.28770904619e-05
-2.28771079522e-05
-2.2877124296e-05
-2.28771395862e-05
-2.28771540398e-05
-2.28771682035e-05
-2.28771827474e-05
-2.28771985899e-05
-2.28772172257e-05
-2.28770100844e-05
-2.28770107911e-05
-2.28770202647e-05
-2.28770341167e-05
-2.28770501273e-05
-2.28770667615e-05
-2.28770836828e-05