/*--------------------------------*- C++ -*----------------------------------*\
  =========                 |
  \\      /  F ield         | OpenFOAM: The Open Source CFD Toolbox
   \\    /   O peration     | Website:  https://openfoam.org
    \\  /    A nd           | Version:  7
     \\/     M anipulation  |
\*---------------------------------------------------------------------------*/
FoamFile
{
    version     2.0;
    format      ascii;
    class       surfaceScalarField;
    location    "1.64";
    object      phi;
}
// * * * * * * * * * * * * * * * * * * * * * * * * * * * * * * * * * * * * * //

dimensions      [0 3 -1 0 0 0 0];

internalField   nonuniform List<scalar> 
65775
(
-4.2662578566e-11
-4.19836590275e-09
-3.1387797952e-10
2.89602207528e-13
-7.41169619146e-11
-4.40937591194e-09
-3.49543394575e-10
-9.03991431295e-11
-4.60009069139e-09
-3.86138043964e-10
-8.98584070981e-11
-4.76462234874e-09
-4.21114572988e-10
-7.46051848761e-11
-4.89625185491e-09
-4.51705867788e-10
-4.76888205068e-11
-4.99263542883e-09
-4.75494822407e-10
-1.33404653595e-11
-5.0530849622e-09
-4.90743682382e-10
2.35399900795e-11
-5.07570412774e-09
-4.96189238307e-10
5.76358808578e-11
-5.05297280545e-09
-4.90664347747e-10
8.40652699723e-11
-4.99244032915e-09
-4.75335490716e-10
9.86299426596e-11
-4.89600984878e-09
-4.51463189059e-10
9.83179125216e-11
-4.7643789486e-09
-4.20782109823e-10
8.10834826168e-11
-4.59986126833e-09
-3.857063838e-10
4.86257992433e-11
-4.40920343076e-09
-3.48998853863e-10
-4.19793556628e-09
-3.13208829118e-10
4.94553369698e-12
-1.17315333213e-10
-7.46235439926e-09
-9.58805128943e-10
1.14953397323e-12
-2.07963257971e-10
-7.82073073647e-09
-1.07175978792e-09
-2.54492093578e-10
-8.1507760832e-09
-1.18732394237e-09
-2.54800244799e-10
-8.43255455272e-09
-1.29752490725e-09
-2.12490254216e-10
-8.65666819022e-09
-1.39379825777e-09
-1.36252287666e-10
-8.81955028977e-09
-1.46863093297e-09
-3.82197413366e-11
-8.92128271243e-09
-1.51655892969e-09
6.71431745671e-11
-8.95924803726e-09
-1.53362011982e-09
1.6449694775e-10
-8.92083878823e-09
-1.51631684276e-09
2.39401284121e-10
-8.81872854456e-09
-1.4681462367e-09
2.79759715139e-10
-8.65555998773e-09
-1.39306348553e-09
2.76976219118e-10
-8.43131119029e-09
-1.29652402201e-09
2.27583400065e-10
-8.14951397709e-09
-1.18603290999e-09
1.3376497701e-10
-7.81950897298e-09
-1.0701430332e-09
-7.46074237186e-09
-9.56839806278e-10
1.40829254938e-11
-1.79046016418e-10
-9.84025119146e-09
-1.5670938272e-09
4.81901171358e-13
-3.16320198859e-10
-1.02861441109e-08
-1.75486875384e-09
-3.87635400729e-10
-1.07006600644e-08
-1.9458272833e-09
-3.89229426975e-10
-1.10506585233e-08
-2.12701425804e-09
-3.25584924952e-10
-1.13269889287e-08
-2.28471210591e-09
-2.09718783582e-10
-1.15260679009e-08
-2.40696007743e-09
-6.02423652767e-11
-1.16498079451e-08
-2.48508424411e-09
1.00560366687e-10
-1.16959579756e-08
-2.51281291096e-09
2.492434689e-10
-1.16490746796e-08
-2.48466315261e-09
3.6355864781e-10
-1.15247133777e-08
-2.40612175975e-09
4.24936358243e-10
-1.13251529491e-08
-2.28345281267e-09
4.2042298507e-10
-1.10485388827e-08
-2.12532095412e-09
3.45625407141e-10
-1.06984441596e-08
-1.94367783057e-09
2.04249118943e-10
-1.02838245299e-08
-1.75222446417e-09
-9.83739051709e-09
-1.56393371747e-09
2.09618988224e-11
-2.29431427464e-10
-1.14159353308e-08
-2.10306329443e-09
6.66970246553e-14
-4.01507634585e-10
-1.189887924e-08
-2.35636825184e-09
-4.91339864956e-10
-1.2348196451e-08
-2.61194809787e-09
-4.93371051207e-10
-1.27232098314e-08
-2.85292241662e-09
-4.13057968415e-10
-1.3016444376e-08
-3.06164057304e-09
-2.66599363288e-10
-1.32255173752e-08
-3.22286345666e-09
-7.75617555505e-11
-1.33547089693e-08
-3.32562329536e-09
1.25835794564e-10
-1.34029485148e-08
-3.3620065703e-09
3.14033485194e-10
-1.33537861259e-08
-3.325059744e-09
4.58846963728e-10
-1.3223815813e-08
-3.22174442834e-09
5.36737676724e-10
-1.3014141644e-08
-3.05996543912e-09
5.31533701851e-10
-1.27205244724e-08
-2.85068127132e-09
4.37822211438e-10
-1.23453303962e-08
-2.60912260582e-09
2.61060151536e-10
-1.18957005093e-08
-2.35292059317e-09
-1.14119800456e-08
-2.09897475041e-09
2.62201103186e-11
-2.69079302375e-10
-1.22958350616e-08
-2.54360274928e-09
-1.12906238344e-13
-4.66957161451e-10
-1.27764109576e-08
-2.84952539984e-09
-5.70112411114e-10
-1.32213336345e-08
-3.15547332663e-09
-5.7192897985e-10
-1.35878396438e-08
-3.44197376629e-09
-4.78854733174e-10
-1.38709425046e-08
-3.68883475848e-09
-3.0941313163e-10
-1.40703082729e-08
-3.87879855196e-09
-9.08209873488e-11
-1.41926463458e-08
-3.99954558508e-09
1.44353190919e-10
-1.42384353646e-08
-4.04219694719e-09
3.62089754408e-10
-1.41916098524e-08
-3.99887125219e-09
5.2984647707e-10
-1.40684001956e-08
-3.87746276571e-09
6.20419393404e-10
-1.38683474118e-08
-3.68684143266e-09
6.15287401189e-10
-1.35847645245e-08
-3.43931879037e-09
5.08018989411e-10
-1.32179613469e-08
-3.15214631882e-09
3.05138850784e-10
-1.27725320241e-08
-2.84549430997e-09
-1.22909850866e-08
-2.53885212018e-09
3.00520986918e-11
-2.99585813937e-10
-1.2595820772e-08
-2.87754296029e-09
-1.45271896614e-13
-5.16611560572e-10
-1.30455818113e-08
-3.22238995781e-09
-6.29178859414e-10
-1.34587100507e-08
-3.56413188483e-09
-6.30394057064e-10
-1.37938754617e-08
-3.88198662844e-09
-5.27652963469e-10
-1.40488685266e-08
-4.1544791897e-09
-3.41171027554e-10
-1.42257807533e-08
-4.36340587042e-09
-1.00793757686e-10
-1.4333419251e-08
-4.49585449001e-09
1.57762552162e-10
-1.43738585206e-08
-4.54252438619e-09
3.97271895766e-10
-1.43323453865e-08
-4.49509202404e-09
5.8203917602e-10
-1.4223800039e-08
-4.36189979185e-09
6.82220244075e-10
-1.4046158018e-08
-4.15224101835e-09
6.77593451467e-10
-1.37906143603e-08
-3.87902283456e-09
5.60766015295e-10
-1.34550488837e-08
-3.56044598312e-09
3.38576586282e-10
-1.30412293915e-08
-3.21796119367e-09
-1.25902745149e-08
-2.87236066158e-09
3.27518399844e-11
-3.22761756532e-10
-1.24307549451e-08
-3.10402328716e-09
-1.03189100578e-13
-5.53966579402e-10
-1.28314021049e-08
-3.475272734e-09
-6.73072183388e-10
-1.31961826213e-08
-3.83989910803e-09
-6.73473953577e-10
-1.3486746819e-08
-4.1768487694e-09
-5.63439189782e-10
-1.3703674928e-08
-4.46434646826e-09
-3.64413224369e-10
-1.38514451681e-08
-4.68404010585e-09
-1.08111459914e-10
-1.39403977731e-08
-4.82296151733e-09
1.67498233931e-10
-1.39739843851e-08
-4.87177856001e-09
4.22908057648e-10
-1.39393224677e-08
-4.82212565484e-09
6.20169083332e-10
-1.38494521833e-08
-4.6823945083e-09
7.27566195509e-10
-1.3700917277e-08
-4.46191383435e-09
7.23651784991e-10
-1.34833646767e-08
-4.17365149509e-09
6.00169045805e-10
-1.31922887258e-08
-3.83596079066e-09
3.63703372976e-10
-1.28266675467e-08
-3.47058895241e-09
-1.24246477117e-08
-3.09859086947e-09
3.4653006673e-11
-3.40147167688e-10
-1.19075832334e-08
-3.22938016601e-09
-4.39657890917e-14
-5.81568876336e-10
-1.22493200328e-08
-3.61662208824e-09
-7.04970224786e-10
-1.2557903449e-08
-3.99369337877e-09
-7.04406781991e-10
-1.27982609281e-08
-4.34000277099e-09
-5.88917658804e-10
-1.29735273399e-08
-4.6341729597e-09
-3.80835021839e-10
-1.30902016175e-08
-4.85825914302e-09
-1.13165976248e-10
-1.3159471968e-08
-4.99960175482e-09
1.74569814788e-10
-1.31857890461e-08
-5.04911231519e-09
4.41304236676e-10
-1.31584120171e-08
-4.99870230022e-09
6.47538321587e-10
-1.30882211999e-08
-4.85649465915e-09
7.60273254976e-10
-1.29707464674e-08
-4.63158036795e-09
7.57187291516e-10
-1.27947802793e-08
-4.3366249396e-09
6.2927171781e-10
-1.2553794043e-08
-3.98957906529e-09
3.82484649337e-10
-1.2244228584e-08
-3.61178681323e-09
-1.19009331433e-08
-3.22383199395e-09
3.6057266689e-11
-3.52809527385e-10
-1.11216449036e-08
-3.26408143722e-09
8.80028345697e-15
-6.0098029163e-10
-1.14015650313e-08
-3.65923247872e-09
-7.26738601245e-10
-1.16525072252e-08
-4.04081978415e-09
-7.25039006106e-10
-1.18426044573e-08
-4.38916988601e-09
-6.05591158802e-10
-1.19771738853e-08
-4.68377452997e-09
-3.91351367958e-10
-1.20641561343e-08
-4.90748623546e-09
-1.1614275379e-10
-1.21148528366e-08
-5.04821641756e-09
1.79565665862e-10
-1.21342447143e-08
-5.09732734884e-09
4.53777663926e-10
-1.2113792065e-08
-5.04726107188e-09
6.66049787706e-10
-1.20621516424e-08
-4.90561877445e-09
7.82581066594e-10
-1.19743066484e-08
-4.68104803887e-09
7.80447351822e-10
-1.18389363621e-08
-4.38565071372e-09
6.49994606146e-10
-1.16480761843e-08
-4.0365850893e-09
3.96315833393e-10
-1.13960082305e-08
-3.65431947372e-09
-1.11143895664e-08
-3.2585135703e-09
3.72022389262e-11
-3.61337698684e-10
-1.01554637675e-08
-3.22039771747e-09
3.21883391119e-14
-6.129588802e-10
-1.03757232218e-08
-3.61754058975e-09
-7.39253560049e-10
-1.05718220389e-08
-3.99792010067e-09
-7.36202071272e-10
-1.07152945761e-08
-4.34301342708e-09
-6.14101188754e-10
-1.08131653143e-08
-4.63350042804e-09
-3.96326789818e-10
-1.0874063464e-08
-4.8533297095e-09
-1.17089554113e-10
-1.09086482613e-08
-4.99119966128e-09
1.82759264534e-10
-1.09219648239e-08
-5.03909669752e-09
4.60920683911e-10
-1.09075505647e-08
-4.99019600051e-09
6.76577468843e-10
-1.08719581334e-08
-4.85137428271e-09
7.95556314351e-10
-1.08100995224e-08
-4.63066310597e-09
7.94541218533e-10
-1.07112880465e-08
-4.33938532527e-09
6.63321346836e-10
-1.0566885691e-08
-3.99360820543e-09
4.05990191485e-10
-1.03694936603e-08
-3.61260380456e-09
-1.01473929549e-08
-3.21487855938e-09
3.82575143402e-11
-3.65851265455e-10
-9.07878332273e-09
-3.11092341931e-09
2.6398348467e-14
-6.17728530402e-10
-9.24480307163e-09
-3.50602961568e-09
-7.42852458718e-10
-9.39127887651e-09
-3.88129781045e-09
-7.38207477452e-10
-9.49400632641e-09
-4.21942383652e-09
-6.14653547672e-10
-9.56102020956e-09
-4.50251727389e-09
-3.95846540318e-10
-9.60069928092e-09
-4.71588931008e-09
-1.16003127388e-10
-9.62239948724e-09
-4.84922903476e-09
1.84238505644e-10
-9.6307566779e-09
-4.89530446538e-09
4.62914233397e-10
-9.62120422134e-09
-4.84818574848e-09
6.79426391279e-10
-9.59837575771e-09
-4.71386243646e-09
7.99619570442e-10
-9.55757774036e-09
-4.49959270043e-09
7.99921057104e-10
-9.48943725904e-09
-4.21571707706e-09
6.69593495917e-10
-9.38556829316e-09
-3.87694579677e-09
4.11752235583e-10
-9.2376025329e-09
-3.50111200903e-09
-9.06961985741e-09
-3.10550364888e-09
3.93305633376e-11
-3.66103797721e-10
-7.94950813157e-09
-2.94778430306e-09
-1.80513380929e-14
-6.15429601118e-10
-8.0676688978e-09
-3.33846351912e-09
-7.37933041022e-10
-8.17081004418e-09
-3.7061867335e-09
-7.31405723109e-10
-8.24002639023e-09
-4.03483499699e-09
-6.07445400379e-10
-8.28302063821e-09
-4.30819247047e-09
-3.89998886269e-10
-8.30692983825e-09
-4.51321005014e-09
-1.12901145517e-10
-8.31923385688e-09
-4.64077153614e-09
1.84020446592e-10
-8.32386970593e-09
-4.68457082555e-09
4.59847336915e-10
-8.31785920729e-09
-4.63969930943e-09
6.74804157033e-10
-8.30422614175e-09
-4.51113144365e-09
7.95133732836e-10
-8.27898014053e-09
-4.30520711511e-09
7.97007220758e-10
-8.2346076411e-09
-4.03108071074e-09
6.68977492049e-10
-8.16398290226e-09
-3.70182994856e-09
4.13383759983e-10
-8.05910885121e-09
-3.33360498691e-09
-7.93887831751e-09
-2.94250728111e-09
4.04650836831e-11
-3.61989614059e-10
-6.81427962404e-09
-2.7422993936e-09
-1.03642610186e-13
-6.07177382594e-10
-6.88915746729e-09
-3.12763445127e-09
-7.25816867511e-10
-6.95619406077e-09
-3.48653024003e-09
-7.16769975149e-10
-7.00018783018e-09
-3.8040435836e-09
-5.93090214166e-10
-7.02638063677e-09
-4.06598389499e-09
-3.79104247549e-10
-7.03990365784e-09
-4.26124703807e-09
-1.07915248645e-10
-7.04622649819e-09
-4.38210288658e-09
1.82171583693e-10
-7.04830363053e-09
-4.42329091359e-09
4.51978674367e-10
-7.04456877111e-09
-4.38101536931e-09
6.63258338748e-10
-7.03662691125e-09
-4.25914148036e-09
7.83019416935e-10
-7.0214575072e-09
-4.06296964526e-09
7.87073238972e-10
-6.9935760097e-09
-3.80027624349e-09
6.6255203551e-10
-6.9478488154e-09
-3.48220474655e-09
4.10746861728e-10
-6.87877080955e-09
-3.12287860775e-09
-6.80170409979e-09
-2.73721765722e-09
4.15698121107e-11
-3.56621465474e-10
-5.70622914208e-09
-2.50488530008e-09
-2.64604048093e-13
-5.97638271264e-10
-5.7407472437e-09
-2.88536081822e-09
-7.10052183812e-10
-5.78177701636e-09
-3.234896315e-09
-6.96652919354e-10
-5.80943614328e-09
-3.54012808499e-09
-5.73094289132e-10
-5.82555607638e-09
-3.78943747872e-09
-3.6407365541e-10
-5.83348579292e-09
-3.97394854935e-09
-1.01359859461e-10
-5.83673800014e-09
-4.08744942034e-09
1.78898131781e-10
-5.83731451171e-09
-4.12579743691e-09
4.40107377389e-10
-5.83467290548e-09
-4.08636458947e-09
6.46197226594e-10
-5.82939135445e-09
-3.97184878467e-09
7.65520483826e-10
-5.81942737441e-09
-3.78643595869e-09
7.73566045094e-10
-5.80123517894e-09
-3.53638958319e-09
6.54907962447e-10
-5.77146160295e-09
-3.23063942447e-09
4.06912166942e-10
-5.72800951091e-09
-2.88075462118e-09
-5.69118279791e-09
-2.50007392986e-09
4.27115487444e-11
-3.665322424e-10
-2.24503357858e-09
-4.26855377588e-13
-4.63249977739e-09
-6.00371405961e-10
-2.62243450942e-09
-4.6460905715e-09
-7.00820251907e-10
-2.96200299097e-09
-4.67452810334e-09
-6.79124665268e-10
-3.25407346816e-09
-4.69386073116e-09
-5.53620282169e-10
-3.49000596403e-09
-4.70552040779e-09
-3.4879715755e-10
-3.66323591417e-09
-4.71180548663e-09
-9.4644007385e-11
-3.76906749313e-09
-4.71445221393e-09
1.75470189965e-10
-3.80447389369e-09
-4.71436735343e-09
4.27994589847e-10
-3.76801029941e-09
-4.71183055692e-09
6.2964476064e-10
-3.66118892867e-09
-4.70660695988e-09
7.50585717498e-10
-3.48708016605e-09
-4.6977743555e-09
7.66544944237e-10
-3.25043042314e-09
-4.68358046675e-09
6.59437630447e-10
-2.95787256755e-09
-4.66171006031e-09
4.18282305888e-10
-2.61799483213e-09
-4.63048792636e-09
-2.24064860733e-09
4.37539341241e-11
-4.61429109419e-09
5.52791727504e-12
1.40458656891e-10
-4.59383533075e-10
2.44579884945e-14
1.13806209374e-11
1.55031133083e-10
-5.09615689425e-10
1.53719176098e-11
1.69438821511e-10
-5.58639394691e-10
1.62514236813e-11
1.82466450096e-10
-6.036017726e-10
1.38902237278e-11
1.930644732e-10
-6.41742134793e-10
8.79761993462e-12
2.00856417784e-10
-6.70793473435e-10
1.92361043362e-12
2.0565224156e-10
-6.89212638703e-10
-5.54263715363e-12
2.07303935469e-10
-6.95806393137e-10
-1.23243036206e-11
2.05447762108e-10
-6.89160249537e-10
-1.72537442182e-11
2.00429960471e-10
-6.7069102427e-10
-1.94159533109e-11
1.92419984686e-10
-6.41593388263e-10
-1.83200018432e-11
1.81653586583e-10
-6.03410574352e-10
-1.40942147334e-11
1.68589140501e-10
-5.58407912441e-10
-7.93629226527e-12
1.54289998782e-10
-5.09336980191e-10
1.3990233187e-10
-4.59025403615e-10
-1.92011948816e-12
1.74493915828e-11
4.00655663948e-10
-1.2351819165e-09
-3.9193773846e-13
3.41896193545e-11
4.36510881696e-10
-1.36860629095e-09
4.51494055752e-11
4.71371460617e-10
-1.49866368175e-09
4.74044530189e-11
5.01927646692e-10
-1.61783664072e-09
4.0412308565e-11
5.26196928294e-10
-1.71886478202e-09
2.5581669383e-11
5.43585955436e-10
-1.79578447561e-09
5.5762040799e-12
5.54125614666e-10
-1.844521748e-09
-1.61574669887e-11
5.57714710782e-10
-1.8619290288e-09
-3.59044332357e-11
5.535347403e-10
-1.84437000004e-09
-5.02491180584e-11
5.42360473933e-10
-1.79548792797e-09
-5.65631362765e-11
5.24322139353e-10
-1.71843396961e-09
-5.35070354608e-11
4.99559369317e-10
-1.61728285283e-09
-4.16175234761e-11
4.68851796247e-10
-1.49799374235e-09
-2.38123749896e-11
4.34323263069e-10
-1.36780263836e-09
3.99112907836e-10
-1.23418010943e-09
-5.51619076598e-12
2.7347570646e-11
6.65558984026e-10
-1.85894636732e-09
4.30426544123e-13
5.3890546299e-11
7.15793483991e-10
-2.05954779322e-09
7.11733805905e-11
7.64251339904e-10
-2.25472754395e-09
7.49275991e-11
8.05683944204e-10
-2.43338360154e-09
6.42479448238e-11
8.37800811096e-10
-2.58474124325e-09
4.12251237046e-11
8.60220761539e-10
-2.69993142112e-09
1.00114090331e-11
8.73564853236e-10
-2.77286551478e-09
-2.39942676818e-11
8.78091026835e-10
-2.79886132198e-09
-5.49756616094e-11
8.72746817279e-10
-2.77264340331e-09
-7.75805980882e-11
8.58552172932e-10
-2.69949636617e-09
-8.77071706219e-11
8.35291899193e-10
-2.58410644178e-09
-8.32844835964e-11
8.02555798433e-10
-2.43256255199e-09
-6.51420070444e-11
7.60925195476e-10
-2.25372718821e-09
-3.73846208657e-11
7.12840267016e-10
-2.05834174192e-09
6.63358741227e-10
-1.85745073038e-09
-7.97300959459e-12
3.58661127939e-11
8.75839218271e-10
-2.34948398759e-09
1.04619512039e-12
7.01225278597e-11
9.30040716507e-10
-2.60377708813e-09
9.20981268268e-11
9.82109876939e-10
-2.85057494379e-09
9.67066475808e-11
1.02539607752e-09
-3.0761632679e-09
8.29106731416e-11
1.05791638213e-09
-3.26711854924e-09
5.33669539918e-11
1.07986147122e-09
-3.41235918146e-09
1.33644949057e-11
1.09261044793e-09
-3.50423969959e-09
-3.02313278219e-11
1.09690512467e-09
-3.53691273106e-09
-7.00299589425e-11
1.09168063547e-09
-3.50394711698e-09
-9.92130371544e-11
1.07798525795e-09
-3.41178641659e-09
-1.12536305285e-10
1.05512164093e-09
-3.26628360301e-09
-1.07323227767e-10
1.02192193863e-09
-3.07508576623e-09
-8.4487351504e-11
9.78399055124e-10
-2.84926804456e-09
-4.88792311608e-11
9.26677593985e-10
-2.60221684159e-09
8.73263889968e-10
-2.34758558295e-09
-1.00343976639e-11
4.26607865948e-11
1.00831386522e-09
-2.71947894016e-09
1.4481083884e-12
8.2204024693e-11
1.05749131668e-09
-3.01562057133e-09
1.07078594572e-10
1.10486923774e-09
-3.3021570718e-09
1.1187771672e-10
1.14309813116e-09
-3.5636205985e-09
9.56404277992e-11
1.17070384562e-09
-3.78470980701e-09
6.14669362406e-11
1.18848830549e-09
-3.95274760225e-09
1.53924376727e-11
1.19844304766e-09
-4.0589417357e-09
-3.47794453332e-11
1.20176057485e-09
-4.09660878743e-09
-8.06679188678e-11
1.19748910933e-09
-4.05857922557e-09
-1.14508736804e-10
1.18658361574e-09
-3.95203929225e-09
-1.30292298064e-10
1.16790696722e-09
-3.78368077085e-09
-1.2487342413e-10
1.13963665876e-09
-3.56230040878e-09
-9.90643129318e-11
1.101155627e-09
-3.30057080951e-09
-5.80245999775e-11
1.05402946826e-09
-3.013754329e-09
1.00552758818e-09
-2.71725721146e-09
-1.17696514288e-11
4.74932797078e-11
1.06326348113e-09
-2.98102883751e-09
1.67997518406e-12
8.99248861787e-11
1.10221670334e-09
-3.3087296495e-09
1.16013069998e-10
1.1402153437e-09
-3.62469200415e-09
1.20447376633e-10
1.16988029821e-09
-3.91242243013e-09
1.02507949078e-10
1.19019973743e-09
-4.15541269256e-09
6.55928910709e-11
1.20239321448e-09
-4.33993146271e-09
1.61209182733e-11
1.20880607187e-09
-4.45640316085e-09
-3.76745337974e-11
1.21089097132e-09
-4.49759931866e-09
-8.69660000006e-11
1.20786691562e-09
-4.45597259461e-09
-1.23546384629e-10
1.20053253275e-09
-4.33909227656e-09
-1.41006854443e-10
1.18748446455e-09
-4.15419900992e-09
-1.35886554271e-10
1.16651883031e-09
-3.91087691017e-09
-1.08756495737e-10
1.13657353187e-09
-3.62285600849e-09
-6.46939464314e-11
1.09873166715e-09
-3.30660363136e-09
1.06035611847e-09
-2.97854961944e-09
-1.32135626484e-11
5.02973078293e-11
1.05339102935e-09
-3.14566934687e-09
1.79709269824e-12
9.34708934116e-11
1.08053238475e-09
-3.49609830216e-09
1.19321532603e-10
1.10780138158e-09
-3.83265038769e-09
1.22986031265e-10
1.12837966697e-09
-4.1384035177e-09
1.04081534435e-10
1.1414707396e-09
-4.39621498484e-09
6.61607714534e-11
1.14842869475e-09
-4.59177121605e-09
1.56970958991e-11
1.15163948144e-09
-4.71503722838e-09
-3.90787138289e-11
1.15261231467e-09
-4.75849877073e-09
-8.93572258047e-11
1.15074430572e-09
-4.71454209625e-09
-1.26921980077e-10
1.14666625081e-09
-4.59080876352e-09
-1.45292991577e-10
1.13891268069e-09
-4.39482980315e-09
-1.40847452382e-10
1.12520637504e-09
-4.13665354015e-09
-1.13831361799e-10
1.10431235481e-09
-3.83059599144e-09
-6.89032793173e-11
1.07708164771e-09
-3.49375601385e-09
1.05034278683e-09
-3.14298908309e-09
-1.43977413179e-11
5.11401106265e-11
9.95889914805e-10
-3.22436151528e-09
1.83537099394e-12
9.32786911393e-11
1.01238998808e-09
-3.59004504645e-09
1.17742380262e-10
1.02996031485e-09
-3.93972274921e-09
1.20383901648e-10
1.0427873842e-09
-4.25651526832e-09
1.01196561786e-10
1.05005144185e-09
-4.52312574091e-09
6.37559741054e-11
1.05302688091e-09
-4.72507063171e-09
1.43186618836e-11
1.05389258225e-09
-4.85214844609e-09
-3.92284517663e-11
1.05405058665e-09
-4.89679340221e-09
-8.84663844742e-11
1.05304459062e-09
-4.85159376125e-09
-1.25513365121e-10
1.05136041905e-09
-4.72399520167e-09
-1.44093983741e-10
1.04763276317e-09
-4.52158538066e-09
-1.40565843611e-10
1.03976221003e-09
-4.25458433257e-09
-1.14812807059e-10
1.02657672341e-09
-3.9374818479e-09
-7.0817954722e-11
1.00892650445e-09
-3.5875266061e-09
9.92676525343e-10
-3.2215291036e-09
-1.53531925302e-11
5.02124728499e-11
9.07719396314e-10
-3.22750718762e-09
1.83156355357e-12
8.99133597666e-11
9.16162621438e-10
-3.60224071971e-09
1.12133075543e-10
9.26243517271e-10
-3.95885520157e-09
1.13620260117e-10
9.33415535979e-10
-4.28086546123e-09
9.47490116059e-11
9.36718881327e-10
-4.55121793758e-09
5.89947447813e-11
9.37205919255e-10
-4.75562253901e-09
1.2187905025e-11
9.36693889909e-10
-4.88398118912e-09
-3.83848206127e-11
9.36373924739e-10
-4.9288912583e-09
-8.49702950459e-11
9.35893520903e-10
-4.88337319197e-09
-1.2028056973e-10
9.3563167882e-10
-4.75444647611e-09
-1.38459986351e-10
9.34426371188e-10
-4.54954090364e-09
-1.35971963777e-10
9.30514106668e-10
-4.27877841652e-09
-1.12342798332e-10
9.22922137325e-10
-3.95645899875e-09
-7.06920314515e-11
9.12632132985e-10
-3.59958228801e-09
9.04232859286e-10
-3.22456482613e-09
-1.61189214908e-11
4.77470658214e-11
8.03145190754e-10
-3.16499918485e-09
1.79974566288e-12
8.39536927204e-11
8.06579721226e-10
-3.54378522e-09
1.03341002392e-10
8.11666126552e-10
-3.90234620802e-09
1.03652032059e-10
8.15267502271e-10
-4.22482681348e-09
8.56044846244e-11
8.1631221827e-10
-4.49474465989e-09
5.24671022657e-11
8.1559171288e-10
-4.6983311546e-09
9.49848654773e-12
8.145147958e-10
-4.82584666319e-09
-3.67977547615e-11
8.13988577558e-10
-4.87025101874e-09
-7.95160116201e-11
8.13747184039e-10
-4.8251924903e-09
-1.12147672815e-10
8.14077861952e-10
-4.69706817879e-09
-1.29410204486e-10
8.14088053312e-10
-4.49295060253e-09
-1.27982376452e-10
8.12412843684e-10
-4.22260858193e-09
-1.07069670409e-10
8.08319397252e-10
-3.89982406988e-09
-6.88335232733e-11
8.02891553572e-10
-3.5410185586e-09
7.99308965433e-10
-3.16198261994e-09
-1.67227067554e-11
4.40096252917e-11
6.9307702959e-10
-3.0462950311e-09
1.76649717157e-12
7.59598285827e-11
6.94225332278e-10
-3.42531579666e-09
9.21694203249e-11
6.96436789221e-10
-3.78197410134e-09
9.1379298209e-11
6.98081143187e-10
-4.10116855085e-09
7.45713027845e-11
6.98111643314e-10
-4.36726979913e-09
4.47270656532e-11
6.97099147226e-10
-4.56734272133e-09
6.43024540719e-12
6.96009233943e-10
-4.69225458379e-09
-3.46952055214e-11
6.9547080397e-10
-4.7355143583e-09
-7.27059900304e-11
6.95255898061e-10
-4.69156206104e-09
-1.01975930693e-10
6.95603880547e-10
-4.56600746276e-09
-1.17897664177e-10
6.95897228452e-10
-4.3653787529e-09
-1.17454213934e-10
6.95189037798e-10
-4.09884315713e-09
-9.96070993693e-11
6.92962553797e-10
-3.77935287035e-09
-6.55492030419e-11
6.90267461135e-10
-3.42246853603e-09
6.88749801076e-10
-3.04323396112e-09
-1.71961257763e-11
3.92576364004e-11
5.85068775283e-10
-2.88049824952e-09
1.73694481655e-12
6.6481580024e-11
5.8590814711e-10
-3.25712780842e-09
7.94303181146e-11
5.86662311721e-10
-3.60912247466e-09
7.77137808838e-11
5.87346453847e-10
-3.92216490747e-09
6.24739133042e-11
5.87115876471e-10
-4.18176142779e-09
3.63307746508e-11
5.86316120661e-10
-4.37613192074e-09
3.17455276805e-12
5.85534938221e-10
-4.49699786798e-09
-3.22989540961e-11
5.85071711614e-10
-4.53859060447e-09
-6.51295226471e-11
5.84768808506e-10
-4.49627559913e-09
-9.06210138097e-11
5.84788553042e-10
-4.37473999885e-09
-1.04873065739e-10
5.84824544375e-10
-4.17979374734e-09
-1.05239077595e-10
5.84312214993e-10
-3.91975517568e-09
-9.05438666906e-11
5.82939119817e-10
-3.60642650208e-09
-6.1139908191e-11
5.81547927967e-10
-3.25422539513e-09
5.80137511102e-10
-2.8774187443e-09
-1.75517310016e-11
3.37675285681e-11
4.83945536096e-10
-2.67643098966e-09
1.74155360908e-12
5.61880379849e-11
4.85345369879e-10
-3.0492919822e-09
6.61138457364e-11
4.85262623069e-10
-3.39486277497e-09
6.37397639056e-11
4.85472599514e-10
-3.69962752617e-09
5.02474276369e-11
4.85359548607e-10
-3.95059953995e-09
2.79214719609e-11
4.85038253623e-10
-4.13750526133e-09
-5.73789466558e-14
4.84657718321e-10
-4.25315871189e-09
-2.98347691611e-11
4.84324154513e-10
-4.29266451865e-09
-5.74435234983e-11
4.8384323019e-10
-4.25241655625e-09
-7.90410243652e-11
4.83403855204e-10
-4.13607428593e-09
-9.14373214302e-11
4.82900482064e-10
-3.94857709118e-09
-9.23474561688e-11
4.82175182111e-10
-3.69715580965e-09
-8.05720979264e-11
4.81140209343e-10
-3.39211438529e-09
-5.5893038692e-11
4.80413936652e-10
-3.04636149296e-09
4.78226522278e-10
-2.67336581143e-09
-1.77833010648e-11
2.7929204875e-11
3.92222290742e-10
-2.44267178322e-09
1.78726021197e-12
4.61362474747e-11
3.93679245158e-10
-2.81174714947e-09
5.36409755804e-11
3.92906387613e-10
-3.14990525495e-09
5.08834732254e-11
3.93017233118e-10
-3.44477132707e-09
3.90935438008e-11
3.93279837056e-10
-3.68543690873e-09
2.02542066383e-11
3.93501995834e-10
-3.86348462433e-09
-2.98027431745e-12
3.93558241829e-10
-3.97301242194e-09
-2.75901140005e-11
3.93306948783e-10
-4.01010779831e-09
-5.04106618666e-11
3.92646472351e-10
-3.97226278114e-09
-6.84343530956e-11
3.91671099595e-10
-3.86203667961e-09
-7.90274327672e-11
3.90514239164e-10
-3.68338661293e-09
-8.02142419341e-11
3.89299895963e-10
-3.44226245293e-09
-7.07643016536e-11
3.88234785336e-10
-3.1471243146e-09
-5.02341982586e-11
3.87997616701e-10
-2.80881797656e-09
3.85529210113e-10
-2.4396722021e-09
-1.78905902599e-11
2.21092683457e-11
-2.18787504535e-09
1.86168387929e-12
3.11268317475e-10
3.80327546959e-11
-2.55457552417e-09
3.10024093032e-10
4.39552061232e-11
-2.88429467596e-09
3.09410999192e-10
4.09116177894e-11
-3.16783180005e-09
3.09924379434e-10
3.03939136343e-11
-3.39686523618e-09
3.10762664024e-10
1.42619026438e-11
-3.56502999443e-09
3.11533369824e-10
-5.30211609635e-12
-3.66778610739e-09
3.11916567369e-10
-2.58529889604e-11
-3.70224991691e-09
3.11715588976e-10
-4.49616468216e-11
-3.66704704472e-09
3.10841733151e-10
-6.0200068247e-11
-3.56359916129e-09
3.09389347574e-10
-6.94184512301e-11
-3.39483188834e-09
3.07541038761e-10
-7.07834057559e-11
-3.16533046543e-09
3.0562083278e-10
-6.28466366457e-11
-2.881516839e-09
3.03994449194e-10
-4.45696446931e-11
-2.55164930638e-09
3.03424460571e-10
-2.18506847824e-09
-1.78755955765e-11
3.03299500931e-10
6.21230231112e-15
-1.54297193595e-11
-4.43950295767e-10
4.03228171309e-13
1.37706094739e-13
-1.71488846389e-11
-4.92060999797e-10
2.23004550224e-13
-1.90006345409e-11
-5.39127020473e-10
3.00810622263e-13
-2.0769546942e-11
-5.82379007253e-10
3.86848622891e-13
-2.22229252626e-11
-6.19115017671e-10
4.57834311615e-13
-2.33327828202e-11
-6.47119499752e-10
4.9113131222e-13
-2.40601498994e-11
-6.6488354039e-10
4.91492751808e-13
-2.43505625392e-11
-6.7124597207e-10
4.69754407326e-13
-2.41499538871e-11
-6.64839675472e-10
4.25839875083e-13
-2.34997173396e-11
-6.47032239027e-10
3.47921461248e-13
-2.24356073002e-11
-6.18985047738e-10
2.29798259312e-13
-2.09992057001e-11
-5.822066605e-10
8.5339922182e-14
-1.9273184888e-11
-5.38910590878e-10
1.83052518938e-14
-1.74041848664e-11
-4.91789252067e-10
-1.56184667398e-11
-4.43585012984e-10
2.68285724857e-13
-5.17216929788e-13
-3.84270728749e-11
-1.2120967503e-09
1.13676234577e-12
-3.61851052694e-13
-4.22615140453e-11
-1.34269517826e-09
-2.64366102008e-13
-4.63562086443e-11
-1.47037133776e-09
-7.2376176853e-14
-5.0205793363e-11
-1.58765672716e-09
2.90177553161e-13
-5.33694122054e-11
-1.68726318449e-09
7.5773635181e-13
-5.57315232425e-11
-1.76319391632e-09
1.2396608332e-12
-5.72460974913e-11
-1.81133698592e-09
1.67712665916e-12
-5.78398497728e-11
-1.82853671303e-09
2.01039193224e-12
-5.74032924627e-11
-1.81120541293e-09
2.1649437474e-12
-5.60192717536e-11
-1.76293277561e-09
2.06671645493e-12
-5.37362605123e-11
-1.68687571848e-09
1.69497313148e-12
-5.06213327424e-11
-1.58714556753e-09
1.13038522701e-12
-4.68360025235e-11
-1.46973352397e-09
6.59887922985e-13
-4.27112133132e-11
-1.3419017337e-09
-3.87718589383e-11
-1.21106643748e-09
8.12619467518e-13
-8.85680587848e-13
-5.86238585596e-11
-1.83831404712e-09
1.05813470791e-12
-1.32677890473e-12
-6.39147148124e-11
-2.03672414692e-09
-1.73653448623e-12
-6.95445457936e-11
-2.23036484957e-09
-1.75232455547e-12
-7.47555583348e-11
-2.4080822352e-09
-1.23078444121e-12
-7.90317877996e-11
-2.55893682513e-09
-2.52684326194e-13
-8.21986617349e-11
-2.67389619399e-09
9.86611563874e-13
-8.42126039024e-11
-2.74673203684e-09
2.26594745244e-12
-8.5000855127e-11
-2.7726879007e-09
3.35576051924e-12
-8.44193770139e-11
-2.74650371612e-09
4.02763793461e-12
-8.2574616849e-11
-2.67344517948e-09
4.10680988286e-12
-7.95071280391e-11
-2.55827291784e-09
3.54919991927e-12
-7.52814787985e-11
-2.40721627222e-09
2.51672554576e-12
-7.01112362802e-11
-2.2293006248e-09
1.46179006139e-12
-6.44574981811e-11
-2.03542962812e-09
-5.90829078803e-11
-1.83668812824e-09
1.11193827432e-12
-1.43298015195e-12
-7.48114413602e-11
-2.33223575024e-09
9.28700193813e-13
-2.56572123188e-12
-8.08083735444e-11
-2.58503767132e-09
-3.49788540815e-12
-8.72452439053e-11
-2.83117122187e-09
-3.70757670274e-12
-9.32069971583e-11
-3.0567778013e-09
-2.98235605921e-12
-9.81018569916e-11
-3.24814500943e-09
-1.42138821476e-12
-1.01710702464e-10
-3.39390610659e-09
6.71963830193e-13
-1.0398886775e-10
-3.4861797524e-09
2.90206015644e-12
-1.04889056485e-10
-3.5189812473e-09
4.85144154005e-12
-1.04249155173e-10
-3.48586186219e-09
6.12332842537e-12
-1.02191639639e-10
-3.39327987794e-09
6.4345305766e-12
-9.87357791076e-11
-3.24722748109e-09
5.71468649294e-12
-9.39328270793e-11
-3.05558945185e-09
4.19639912477e-12
-8.80190417907e-11
-2.82972620579e-09
2.46613039307e-12
-8.15287309085e-11
-2.58331036406e-09
-7.53907997008e-11
-2.33012462357e-09
1.407668259e-12
-2.05314362473e-12
-8.63977088444e-11
-2.70618330759e-09
8.17021407244e-13
-3.84241774944e-12
-9.25843821273e-11
-3.00153495634e-09
-5.22785122264e-12
-9.92291226136e-11
-3.28823339339e-09
-5.5732893654e-12
-1.05352984709e-10
-3.5505886971e-09
-4.62003190533e-12
-1.1037427127e-10