/*--------------------------------*- C++ -*----------------------------------*\
  =========                 |
  \\      /  F ield         | OpenFOAM: The Open Source CFD Toolbox
   \\    /   O peration     | Website:  https://openfoam.org
    \\  /    A nd           | Version:  7
     \\/     M anipulation  |
\*---------------------------------------------------------------------------*/
FoamFile
{
    version     2.0;
    format      ascii;
    class       volVectorField;
    location    "1.64";
    object      U;
}
// * * * * * * * * * * * * * * * * * * * * * * * * * * * * * * * * * * * * * //

dimensions      [0 1 -1 0 0 0 0];

internalField   nonuniform List<vector> 
22500
(
(-1.91812030407e-05 -2.09055802806e-05 -7.83382372838e-05)
(-1.84659195744e-05 -2.33922056198e-05 -8.4035271602e-05)
(-1.68217818937e-05 -2.61055757394e-05 -9.08333672074e-05)
(-1.45454979814e-05 -2.8642963563e-05 -9.78950216604e-05)
(-1.15460595795e-05 -3.08697242163e-05 -0.00010433600609)
(-7.98934090088e-06 -3.25933327381e-05 -0.000109437100002)
(-4.02543060192e-06 -3.3679567378e-05 -0.000112691653596)
(1.50690577049e-07 -3.40417201049e-05 -0.000113795763489)
(4.32256242349e-06 -3.36488955688e-05 -0.000112627375071)
(8.2741056539e-06 -3.25337238647e-05 -0.000109308016108)
(1.18112992765e-05 -3.07844820095e-05 -0.000104140362388)
(1.47854514295e-05 -2.85372208163e-05 -9.76296234702e-05)
(1.70314207901e-05 -2.59854082642e-05 -9.04927224006e-05)
(1.86473775545e-05 -2.3262873648e-05 -8.36114046816e-05)
(1.93232743256e-05 -2.07810188216e-05 -7.78266856066e-05)
(-5.54726837045e-05 -6.04798135283e-05 -0.000317198879698)
(-5.31176250419e-05 -6.76476759123e-05 -0.000341954626167)
(-4.83917793529e-05 -7.53808655151e-05 -0.000369683678903)
(-4.18009150223e-05 -8.2618790636e-05 -0.00039741877657)
(-3.31959316038e-05 -8.89583338554e-05 -0.000422200691467)
(-2.29759924302e-05 -9.38672224364e-05 -0.000441609449837)
(-1.15812709239e-05 -9.69633321546e-05 -0.000453919356405)
(4.27204343625e-07 -9.79957871173e-05 -0.00045808907801)
(1.24243016229e-05 -9.68768982627e-05 -0.00045372429674)
(2.37858100179e-05 -9.36996479e-05 -0.00044121773211)
(3.39520647889e-05 -8.87195712368e-05 -0.000421606775052)
(4.2485540675e-05 -8.23231414695e-05 -0.000396612360214)
(4.89893098792e-05 -7.50469311528e-05 -0.000368647731996)
(5.36252396358e-05 -6.72914719119e-05 -0.000340664605773)
(5.58639943152e-05 -6.01338644494e-05 -0.000315639073958)
(-8.60772211392e-05 -9.37369930071e-05 -0.000611167330918)
(-8.18573118588e-05 -0.000104567462979 -0.000657987824698)
(-7.43545718898e-05 -0.000116059811615 -0.000708964631883)
(-6.40395000197e-05 -0.000126749912842 -0.000758957629379)
(-5.07692583093e-05 -0.000136052800428 -0.000803060295396)
(-3.51046889456e-05 -0.000143228556472 -0.000837317410689)
(-1.77069881622e-05 -0.000147744451556 -0.000858935508464)
(5.95318171843e-07 -0.000149249852376 -0.000866240502207)
(1.88838678503e-05 -0.000147621942752 -0.000858616340363)
(3.62417872715e-05 -0.000142989956857 -0.000836676795841)
(5.18421726478e-05 -0.000135709782187 -0.000802088607104)
(6.50266885052e-05 -0.000126319771288 -0.0007576370216)
(7.52356690311e-05 -0.000115565466618 -0.000707266942953)
(8.26233874688e-05 -0.000104030072174 -0.000655871769778)
(8.66874095753e-05 -9.32012426764e-05 -0.000608602362998)
(-0.000111105642527 -0.000120860799383 -0.000930579000447)
(-0.000104940736507 -0.000134332084811 -0.000997938847943)
(-9.49238394108e-05 -0.000148410719303 -0.00106982296576)
(-8.14389964925e-05 -0.000161400792878 -0.0011392797598)
(-6.43901606487e-05 -0.000172619842902 -0.00119990619993)
(-4.4442892094e-05 -0.000181228466024 -0.00124665195409)
(-2.24087258803e-05 -0.000186628211431 -0.00127601123754)
(7.12552760627e-07 -0.000188425757395 -0.00128590712212)
(2.38192130914e-05 -0.000186483593842 -0.00127559028913)
(4.58113193321e-05 -0.000180946256734 -0.00124580693846)
(6.56904132799e-05 -0.000172212423216 -0.00119862206193)
(8.26471807732e-05 -0.000160886306641 -0.00113752904563)
(9.60161269952e-05 -0.000147813872909 -0.0010675645227)
(0.000105901928835 -0.000133675648598 -0.000995112535374)
(0.000111886894939 -0.000120193717664 -0.00092713259432)
(-0.000130871134039 -0.000142287900549 -0.00124990261818)
(-0.000122815562672 -0.000157422758874 -0.00133329423287)
(-0.000110566373455 -0.000173023577525 -0.00142091380511)
(-9.44556726467e-05 -0.000187293104321 -0.00150458832487)
(-7.44514635556e-05 -0.000199518274405 -0.00157698400855)
(-5.12778945286e-05 -0.000208845036709 -0.00163245097602)
(-2.58340652329e-05 -0.000214673136911 -0.00166714159922)
(7.89950887755e-07 -0.000216609475683 -0.00167880444131)
(2.73992920833e-05 -0.000214516999411 -0.00166663932148)
(5.28009589645e-05 -0.000208540016 -0.00163144275369)
(7.59057365197e-05 -0.000199076790636 -0.00157544946374)
(9.5816049331e-05 -0.000186733136666 -0.00150249060514)
(0.000111806992679 -0.000172369765821 -0.00141819940607)
(0.000123916533453 -0.000156697505011 -0.00132988497535)
(0.000131780692792 -0.000141539158553 -0.0012457220273)
(-0.000145697451409 -0.000158385265594 -0.00155051811953)
(-0.000135908183479 -0.000174271310522 -0.00164423176408)
(-0.00012175254357 -0.000190455270858 -0.00174153335048)
(-0.000103560738867 -0.000205127271066 -0.00183363277124)
(-8.13661957612e-05 -0.000217594797466 -0.00191277046475)
(-5.59141418638e-05 -0.000227050717543 -0.00197309706628)
(-2.81394121854e-05 -0.000232936189732 -0.00201069797889)
(8.40512887246e-07 -0.000234886849723 -0.00202330704965)
(2.98060046177e-05 -0.000232775993515 -0.00201012825742)
(5.75392910442e-05 -0.000226737598577 -0.00197195413988)
(8.29233689697e-05 -0.00021714082931 -0.00191103024942)
(0.000105024377064 -0.00020454969604 -0.0018312516163)
(0.000123095917926 -0.000189777682205 -0.00173844884338)
(0.000137108397054 -0.000173514718326 -0.00164035123165)
(0.000146703031318 -0.000157593411875 -0.00154574218951)
(-0.000156037927915 -0.000169624368458 -0.00182113533949)
(-0.000144735920551 -0.000185462588231 -0.00191962533884)
(-0.000129028421121 -0.000201448191176 -0.00202104095157)
(-0.000109281423256 -0.000215811256143 -0.00211645077365)
(-8.55862951582e-05 -0.000227916782405 -0.00219803007871)
(-5.86797731413e-05 -0.000237044603299 -0.00225998888324)
(-2.94925632109e-05 -0.000242702980383 -0.00229850711276)
(8.76117736225e-07 -0.000244572925077 -0.00231139090464)
(3.12306244587e-05 -0.000242543586968 -0.00229787675608)
(6.03771088101e-05 -0.00023673296397 -0.00225872585554)
(8.72166319163e-05 -0.000227464461364 -0.00219610911195)
(0.000110819174827 -0.000215234519732 -0.00211382546117)
(0.000130446899425 -0.000200769108487 -0.00201764516011)
(0.000146010565569 -0.000184700234493 -0.00191535690361)
(0.000157118932695 -0.000168816888802 -0.00181587583127)
(-0.000162429054118 -0.000176560179155 -0.00205656956305)
(-0.000149862116769 -0.000191693212144 -0.00215521003105)
(-0.000132958592655 -0.000206864019259 -0.00225630665855)
(-0.000112141258455 -0.000220370077482 -0.00235108398665)
(-8.75488906459e-05 -0.000231659354011 -0.00243186611157)
(-5.98869277683e-05 -0.000240121933 -0.00249306591257)
(-3.00523943557e-05 -0.000245346254618 -0.00253104004668)
(9.05880504661e-07 -0.000247066604007 -0.00254370772837)
(3.18501201894e-05 -0.000245190572126 -0.00253035030238)
(6.16442779093e-05 -0.000239817494628 -0.00249168631202)
(8.92397558117e-05 -0.000231217082687 -0.00242977293989)
(0.000113740134471 -0.000219805185182 -0.00234823250365)
(0.000134439229648 -0.000206196876469 -0.00225263264064)
(0.000151199181322 -0.000190940954731 -0.00215060690413)
(0.000163574898764 -0.000175755069923 -0.00205090499841)
(-0.000165422300561 -0.000179769802864 -0.00225598098924)
(-0.000151835856341 -0.000193687919418 -0.00235132516327)
(-0.000134070447289 -0.000207578331323 -0.00244893039432)
(-0.000112613219644 -0.000219823148571 -0.00254030935804)
(-8.76398625231e-05 -0.000229969996966 -0.00261804398517)
(-5.9807158193e-05 -0.000237530394787 -0.00267683072614)
(-2.99566980303e-05 -0.0002421774547 -0.00271325165329)
(9.35731185004e-07 -0.000243700792658 -0.00272536368927)
(3.18141273451e-05 -0.000242027223699 -0.00271250022505)
(6.16241470927e-05 -0.000237236538507 -0.00267533087523)
(8.9390263212e-05 -0.000229542658094 -0.00261577601632)
(0.000114271567108 -0.000219276428791 -0.00253723424849)
(0.000135611043141 -0.000206930849807 -0.0024449909708)
(0.000153233066849 -0.000192954824513 -0.00234641453987)
(0.000166630281482 -0.000178978231259 -0.00224995837679)
(-0.000165546485582 -0.00017981922026 -0.00242126431113)
(-0.000151163834571 -0.000192151466909 -0.0025110169607)
(-0.000132833676094 -0.000204422852601 -0.00260307412594)
(-0.000111107170561 -0.000215120755389 -0.00268924464872)
(-8.61871269024e-05 -0.000223903249273 -0.00276242871878)
(-5.86684452519e-05 -0.000230405211783 -0.00281767680505)
(-2.93209626814e-05 -0.000234382580031 -0.00285184865629)
(9.68979652921e-07 -0.000235678695005 -0.00286316866446)
(3.12447888969e-05 -0.000234238930014 -0.00285103148328)
(6.05514696225e-05 -0.000230124050599 -0.00281604924715)
(8.80029782817e-05 -0.000223493805686 -0.00275997700504)
(0.000112830246254 -0.000214595821957 -0.00268593876827)
(0.000134438729616 -0.000203799284478 -0.0025988682244)
(0.000152625040008 -0.000191442402753 -0.00250580645391)
(0.00016681938557 -0.000179047719743 -0.00241490446858)
(-0.0001632906066 -0.000177250557396 -0.00255587706446)
(-0.000148299362001 -0.00018774251768 -0.00263876197503)
(-0.000129658146405 -0.000198153523561 -0.00272409815756)
(-0.000107974478711 -0.000207112541318 -0.00280392421731)
(-8.34679118739e-05 -0.000214392625768 -0.00287153235975)
(-5.6661674836e-05 -0.000219744497733 -0.00292243126115)
(-2.82419029995e-05 -0.000223000333167 -0.00295383708185)
(1.0069519638e-06 -0.000224052689358 -0.00296418657935)
(3.02415518914e-05 -0.00022286424374 -0.00295294974892)
(5.86200329329e-05 -0.000219477853328 -0.00292066744918)
(8.53582975612e-05 -0.000214003482657 -0.00286888534607)
(0.000109771028453 -0.000206612181079 -0.00280037534327)
(0.000131335817967 -0.000197556826906 -0.00271961639761)
(0.000149832120387 -0.000187060511751 -0.00263324648736)
(0.000164634744288 -0.00017650334586 -0.00254918113919)
(-0.000159093055021 -0.000172576781377 -0.00266415214402)
(-0.000143642366542 -0.00018105218934 -0.00273979298382)
(-0.000124903946622 -0.000189428890334 -0.00281788435065)
(-0.000103521862321 -0.000196531523499 -0.00289062438153)
(-7.97215427911e-05 -0.000202239556887 -0.00295186160084)
(-5.39502812497e-05 -0.000206401965932 -0.00299773502976)
(-2.68023536926e-05 -0.000208916556938 -0.0030259294376)
(1.04962419602e-06 -0.000209719701428 -0.0030351528365)
(2.88872404783e-05 -0.000208789076558 -0.00302496841261)
(5.59934696659e-05 -0.000206151777659 -0.00299582762845)
(8.16960018581e-05 -0.000201873397744 -0.00294900818269)
(0.000105401370333 -0.000196058755761 -0.00288681867315)
(0.000126663431493 -0.000188862129105 -0.00281311330773)
(0.000145255395457 -0.000180400192908 -0.00273396177966)
(0.000160516482421 -0.00017185776423 -0.00265711039064)
(-0.000153329134 -0.000166246338275 -0.00275104387491)
(-0.000137558188165 -0.000172567347632 -0.00281991983468)
(-0.000118906726538 -0.000178790634376 -0.00289063954155)
(-9.80318829533e-05 -0.000183988377946 -0.00295565387509)
(-7.51649943705e-05 -0.000188114278992 -0.00300973195451)
(-5.06807912076e-05 -0.000191090273414 -0.00304989560742)
(-2.50766149542e-05 -0.000192869912115 -0.00307442855542)
(1.09602817262e-06 -0.000193426804076 -0.00308236980484)
(2.72542804659e-05 -0.000192752207895 -0.00307339263026)
(5.28164474771e-05 -0.000190858869581 -0.00304784116978)
(7.72314104771e-05 -0.000187774319735 -0.00300666488179)
(0.00010000254433 -0.000183547051835 -0.00295157896229)
(0.000120756236858 -0.000178257815096 -0.0028855641949)
(0.000139259452489 -0.000171948934591 -0.00281376319195)
(0.000154838847499 -0.000165560704719 -0.00274365366583)
(-0.000146369769124 -0.000158565597794 -0.00282225222635)
(-0.00013046640462 -0.000162608302417 -0.00288574314806)
(-0.000112019954394 -0.000166616843962 -0.00294893984218)
(-9.178356442e-05 -0.000169946042997 -0.0030053338335)
(-7.00068251853e-05 -0.000172537681534 -0.00305127550926)
(-4.6993705312e-05 -0.000174370850828 -0.00308494437649)
(-2.3136426484e-05 -0.000175446497654 -0.00310532239882)
(1.14457063468e-06 -0.000175768928325 -0.00311181536252)
(2.541114309e-05 -0.000175339703908 -0.00310421483141)
(4.92263429278e-05 -0.000174160448075 -0.00308274751961)
(7.21700126166e-05 -0.0001722273266 -0.00304799715673)
(9.3850523318e-05 -0.000169540555968 -0.00300098399841)
(0.000113965132547 -0.000166122641221 -0.00294354423996)
(0.000132261804227 -0.000162027855796 -0.0028792511984)
(0.000147974178762 -0.000157915977704 -0.00281453817874)
(-0.00013894978345 -0.000150097875629 -0.00288456571517)
(-0.000123068293426 -0.000151005793202 -0.00294493132433)
(-0.000104702662389 -0.000152992077014 -0.00299943375391)
(-8.51529437283e-05 -0.000154559887859 -0.00304574528166)
(-6.45403902048e-05 -0.000155719734999 -0.00308235484917)
(-4.30945216709e-05 -0.000156499123585 -0.00310869396682)
(-2.10891335257e-05 -0.000156933253928 -0.00312443079926)
(1.19318020834e-06 -0.00015704425533 -0.00312932038546)
(2.34612549872e-05 -0.000156838838547 -0.00312326289255)
(4.5424901943e-05 -0.000156312570744 -0.00310637513836)
(6.68019230104e-05 -0.000155443411942 -0.00307889062719)
(8.73190329726e-05 -0.00015419621903 -0.00304114039332)
(0.000106747564685 -0.000152544507343 -0.00299372062564)
(0.000124959759452 -0.000150470261506 -0.00293804982076)
(0.000140660507054 -0.000149490698185 -0.00287667002363)
(3.75901529196e-07 2.92057197275e-07 -0.000185447147654)
(5.40081852272e-07 2.61895968652e-07 -0.000195323642399)
(6.68102626782e-07 2.92510610396e-07 -0.000204733089239)
(7.1226314808e-07 3.8128382078e-07 -0.000213129023875)
(6.45437404004e-07 5.03426225279e-07 -0.000220087509972)
(4.77193914353e-07 6.21466662452e-07 -0.000225284161188)
(2.32010319985e-07 7.04049560651e-07 -0.0002284953768)
(-5.33998243741e-08 7.29951623733e-07 -0.000229586805775)
(-3.37052585927e-07 6.91646256239e-07 -0.00022849285064)
(-5.77194788246e-07 5.97033156212e-07 -0.000225278641967)
(-7.38278617508e-07 4.67726492981e-07 -0.00022007755535)
(-7.96917440636e-07 3.36019831925e-07 -0.000213111551232)
(-7.44231547e-07 2.39556446573e-07 -0.000204703427207)
(-6.08492098091e-07 2.04365447392e-07 -0.000195273510249)
(-4.32051845311e-07 2.36832152137e-07 -0.000185361123502)
(2.55459429798e-06 2.46490503954e-06 -0.000528050375926)
(2.92961931386e-06 2.68365651914e-06 -0.000554479782537)
(3.13737012198e-06 3.07337718657e-06 -0.000579753977973)
(3.06517888546e-06 3.58705468721e-06 -0.00060236233023)
(2.646485634e-06 4.13971056495e-06 -0.000621130253544)
(1.9124502639e-06 4.62377308977e-06 -0.000635162530248)
(9.40733891653e-07 4.94799122734e-06 -0.000643837727518)
(-1.56054633983e-07 5.05163959005e-06 -0.000646780320202)
(-1.24810660634e-06 4.91325304396e-06 -0.000643826978931)
(-2.20601028347e-06 4.55566948554e-06 -0.00063513980637)
(-2.9187566593e-06 4.04128899223e-06 -0.000621091501862)
(-3.31077671946e-06 3.46331144006e-06 -0.000602298835901)
(-3.35343570231e-06 2.9321264616e-06 -0.000579652217996)
(-3.11604534865e-06 2.53345545105e-06 -0.000554315886635)
(-2.7040494563e-06 2.32100294796e-06 -0.000527787527306)
(5.40665276679e-06 5.49114292988e-06 -0.000840567685203)
(5.8554125258e-06 6.05024420476e-06 -0.000880537636197)
(6.00125664049e-06 6.85206833678e-06 -0.000918839836082)
(5.68622359132e-06 7.79433706876e-06 -0.000953159709108)
(4.82142211069e-06 8.74810055879e-06 -0.000981680383881)
(3.45935126344e-06 9.55627793229e-06 -0.0010030194135)
(1.72484946699e-06 1.00893087563e-05 -0.00101621391695)
(-2.06088104569e-07 1.02607619405e-05 -0.00102068169817)
(-2.13206661953e-06 1.00399189888e-05 -0.00101618631666)
(-3.85236158908e-06 9.4584481356e-06 -0.00100296284229)
(-5.19310371634e-06 8.60422572422e-06 -0.000981589559813)
(-6.03192282387e-06 7.61006670946e-06 -0.000953022964443)
(-6.31788233633e-06 6.63662365636e-06 -0.00091863834768)
(-6.14104097291e-06 5.81660093453e-06 -0.000880237459801)
(-5.64706743043e-06 5.26191208293e-06 -0.000840117855535)
(8.28943590213e-06 8.57562245399e-06 -0.00112393398663)
(8.67654150312e-06 9.41853404388e-06 -0.00117460252931)
(8.6507039207e-06 1.05404631066e-05 -0.00122323422855)
(8.02776268663e-06 1.17898083451e-05 -0.00126688165006)
(6.7134465396e-06 1.3012078984e-05 -0.00130319362088)
(4.78017975421e-06 1.40265252231e-05 -0.00133038109537)
(2.38695522079e-06 1.46877564883e-05 -0.00134719484058)
(-2.48470130581e-07 1.48996847969e-05 -0.00135287988104)
(-2.87910734777e-06 1.46284248185e-05 -0.00134714384896)
(-5.25874676345e-06 1.39086985775e-05 -0.00133027818335)
(-7.17169992256e-06 1.28379239924e-05 -0.00130303364121)
(-8.46116115727e-06 1.15650121114e-05 -0.00126665264028)
(-9.05538334314e-06 1.02749191237e-05 -0.0012229158912)
(-9.04818952005e-06 9.12686910737e-06 -0.00117415631537)
(-8.60917910944e-06 8.28412404738e-06 -0.00112330199734)
(1.07211252202e-05 1.11669824977e-05 -0.00137917699939)
(1.09443159204e-05 1.21631460943e-05 -0.00143789281396)
(1.06918240276e-05 1.34444406441e-05 -0.00149433911515)
(9.76364875834e-06 1.48283463703e-05 -0.00154509691241)
(8.07254700279e-06 1.61528890743e-05 -0.00158738025145)
(5.70577542382e-06 1.72359674128e-05 -0.0016190656706)
(2.84087847965e-06 1.79349223535e-05 -0.00163866663492)
(-2.85511434132e-07 1.81567679709e-05 -0.00164528531968)
(-3.40737222583e-06 1.78689769845e-05 -0.00163858584469)
(-6.25944880235e-06 1.71049717698e-05 -0.00161890432791)
(-8.60677017274e-06 1.59591188061e-05 -0.0015871349078)
(-1.02734143476e-05 1.45774992491e-05 -0.00154475803473)
(-1.1172163899e-05 1.3146745466e-05 -0.00149388886892)
(-1.13889288303e-05 1.18336471164e-05 -0.00143729259978)
(-1.11091599889e-05 1.08330426808e-05 -0.00137836660852)
(1.25042560613e-05 1.30435092258e-05 -0.00160742718749)
(1.25018879501e-05 1.40662105791e-05 -0.00167175647307)
(1.20118094751e-05 1.53577591227e-05 -0.00173372342064)
(1.08215429046e-05 1.67277587473e-05 -0.00178957679187)
(8.85800693752e-06 1.80186806946e-05 -0.00183618188902)
(6.21660863341e-06 1.90618016274e-05 -0.00187114290086)
(3.07929231199e-06 1.97287393958e-05 -0.00189277881733)
(-3.1737698381e-07 1.99372486053e-05 -0.00190007529121)
(-3.70975665692e-06 1.96587803275e-05 -0.00189266263719)
(-6.83485791854e-06 1.8922946618e-05 -0.00187091267144)
(-9.45733279747e-06 1.78134691586e-05 -0.001835837341)
(-1.13962882015e-05 1.64619379511e-05 -0.001789113215)
(-1.25559786081e-05 1.50415849383e-05 -0.00173312879938)
(-1.30078510051e-05 1.37143976584e-05 -0.00167099548148)
(-1.29507867801e-05 1.26829814674e-05 -0.00160643909645)
(1.36157335636e-05 1.41849981843e-05 -0.00180991265258)
(1.33645636256e-05 1.51441484956e-05 -0.00187765223583)
(1.26555919823e-05 1.63410108832e-05 -0.00194307898269)
(1.12645291404e-05 1.75983448816e-05 -0.00200222156061)
(9.13588064849e-06 1.87688355408e-05 -0.00205166810621)
(6.36674188912e-06 1.97047581728e-05 -0.00208880541867)
(3.13241369992e-06 2.02975948332e-05 -0.00211179851885)
(-3.44289817448e-07 2.04790553447e-05 -0.00211954236981)
(-3.81690228653e-06 2.02257617562e-05 -0.00211164249902)
(-7.03948963256e-06 1.95623311191e-05 -0.00208849801433)
(-9.78997782977e-06 1.85585624713e-05 -0.0020512134341)
(-1.18936245551e-05 1.73260411743e-05 -0.00200162159468)
(-1.32527993433e-05 1.60167267584e-05 -0.00194233003272)
(-1.39215075264e-05 1.47820289037e-05 -0.00187672427692)
(-1.41122359979e-05 1.38103586872e-05 -0.00180874509011)
(1.41246733276e-05 1.46760953228e-05 -0.00198791785079)
(1.36307023511e-05 1.55235376175e-05 -0.00205709545465)
(1.27379078578e-05 1.65680959303e-05 -0.00212414928189)
(1.12106972898e-05 1.76619302392e-05 -0.00218497037024)
(9.01201928596e-06 1.86694652345e-05 -0.00223592886402)
(6.23564249381e-06 1.94668598951e-05 -0.00227424742634)
(3.04255653465e-06 1.99667776934e-05 -0.00229798061346)
(-3.66819497771e-07 2.01154748453e-05 -0.00230596171208)
(-3.77224645665e-06 1.98948944439e-05 -0.00229778147484)
(-6.9539081584e-06 1.93244641758e-05 -0.00227385670435)
(-9.71175147114e-06 1.84594716686e-05 -0.00223535589143)
(-1.1884989616e-05 1.73900534915e-05 -0.00218422505816)
(-1.33792845136e-05 1.62439939194e-05 -0.00212323790996)
(-1.4230441404e-05 1.51603800156e-05 -0.00205599412536)
(-1.46641945388e-05 1.42971377254e-05 -0.0019865664524)
(1.41421626053e-05 1.46475703465e-05 -0.00214276012609)
(1.34300607266e-05 1.536982878e-05 -0.00221163610771)
(1.23934783997e-05 1.62430035048e-05 -0.00227870695307)
(1.07882777107e-05 1.71580009892e-05 -0.0023397762249)
(8.5956575932e-06 1.79913947349e-05 -0.00239104677674)
(5.902666873e-06 1.86435076955e-05 -0.00242963520763)
(2.85111008036e-06 1.90473647019e-05 -0.00245353751935)
(-3.85828758276e-07 1.91629291583e-05 -0.00246156072011)
(-3.6189125776e-06 1.89769340983e-05 -0.00245329298537)
(-6.65922815597e-06 1.85040646231e-05 -0.0024291567895)
(-9.33369512639e-06 1.77858894741e-05 -0.00239034942588)
(-1.1500427063e-05 1.68918874203e-05 -0.00233887844869)
(-1.30719088695e-05 1.5925368866e-05 -0.00227762586881)
(-1.40659792e-05 1.50127811013e-05 -0.00221035376017)
(-1.47191205769e-05 1.4271816878e-05 -0.00214121729746)
(1.3788699491e-05 1.42389998453e-05 -0.00227580893284)
(1.28911153071e-05 1.48456034426e-05 -0.00234289538234)
(1.17479947057e-05 1.55532086176e-05 -0.00240860260117)
(1.01122058398e-05 1.62950981181e-05 -0.00246866059209)
(7.98216351034e-06 1.69612900718e-05 -0.00251915427836)
(5.43584147648e-06 1.74753765468e-05 -0.00255716603621)
(2.59316018648e-06 1.77889804863e-05 -0.00258069948349)
(-4.02141419629e-07 1.78739892447e-05 -0.0025885798844)
(-3.39363841637e-06 1.77212754471e-05 -0.00258040801299)
(-6.22515047704e-06 1.7341373746e-05 -0.00255659673573)
(-8.75289555992e-06 1.6763787577e-05 -0.00251832765556)
(-1.08567342785e-05 1.60391574258e-05 -0.00246760384711)
(-1.24582855683e-05 1.52470862697e-05 -0.00240734393913)
(-1.35584991528e-05 1.45001529494e-05 -0.00234142175441)
(-1.43987897099e-05 1.3872374509e-05 -0.00227406259041)
(1.31752947121e-05 1.35778076975e-05 -0.00238855923773)
(1.21251814479e-05 1.40889535783e-05 -0.00245267061482)
(1.0905800384e-05 1.46482890856e-05 -0.00251588568476)
(9.27540010234e-06 1.52314527808e-05 -0.00257383568932)
(7.24739456729e-06 1.5744918576e-05 -0.0026225522406)
(4.88879419455e-06 1.61344293669e-05 -0.00265918365033)
(2.29619409576e-06 1.63675505329e-05 -0.00268182856918)
(-4.16458639101e-07 1.64259189824e-05 -0.00268938640724)
(-3.12531402591e-06 1.63036408475e-05 -0.00268148910986)
(-5.70675966537e-06 1.60078981662e-05 -0.00265852092578)
(-8.04671306106e-06 1.55582977298e-05 -0.00262159171003)
(-1.00482868048e-05 1.49891767173e-05 -0.00257261277025)
(-1.16441917359e-05 1.4357644957e-05 -0.00251443952599)
(-1.28205189825e-05 1.37594509527e-05 -0.00245099146026)
(-1.38153749662e-05 1.32249906893e-05 -0.00238659105636)
(1.23939639741e-05 1.27691066199e-05 -0.00248276923821)
(1.12194352623e-05 1.32041336073e-05 -0.00254311963198)
(9.94716002349e-06 1.3631750681e-05 -0.00260299549792)
(8.34926100102e-06 1.40701707989e-05 -0.00265787719209)
(6.44998627953e-06 1.44466345869e-05 -0.0027038631559)
(4.30309798939e-06 1.4726708571e-05 -0.00273831889291)
(1.98157734656e-06 1.48905948943e-05 -0.00275955317107)
(-4.29218432623e-07 1.49266583604e-05 -0.00276660702088)
(-2.83622616034e-06 1.48314485048e-05 -0.00275916506726)
(-5.14657244736e-06 1.46095132827e-05 -0.00273756057308)
(-7.27481137898e-06 1.42734401833e-05 -0.00270276371047)
(-9.14764394135e-06 1.38446250042e-05 -0.00265647905118)
(-1.07110396089e-05 1.33599600448e-05 -0.00260134853624)
(-1.19404092687e-05 1.28941130507e-05 -0.00254121618954)
(-1.30616910464e-05 1.24340670208e-05 -0.00248055376549)
(1.15129543407e-05 1.18914719146e-05 -0.00256068333124)
(1.0238396335e-05 1.22573954719e-05 -0.00261705192313)
(8.9343706021e-06 1.25606890637e-05 -0.00267302082707)
(7.39144649395e-06 1.28639785617e-05 -0.00272392413092)
(5.6381996987e-06 1.31185544701e-05 -0.00276619044174)
(3.71335494173e-06 1.33050430836e-05 -0.00279762912251)
(1.66725140175e-06 1.34112019976e-05 -0.00281689948906)
(-4.40625998929e-07 1.34296082687e-05 -0.00282325754054)
(-2.54471435636e-06 1.33576467332e-05 -0.00281646274912)
(-4.57970946308e-06 1.31987387273e-05 -0.00279677380899)
(-6.48603111984e-06 1.29610393191e-05 -0.00276494692156)
(-8.21302314527e-06 1.26578694481e-05 -0.0027223393072)
(-9.7217375626e-06 1.23105662751e-05 -0.00267115512007)
(-1.09831589223e-05 1.19696979319e-05 -0.00261490201419)
(-1.2206431944e-05 1.15774944839e-05 -0.00255819401097)
(1.0580470929e-05 1.09924470286e-05 -0.00262537845169)
(9.23677942888e-06 1.12839239526e-05 -0.00267838292138)
(7.92742645111e-06 1.14553485001e-05 -0.0027299953374)
(6.45889998634e-06 1.16308464966e-05 -0.00277584699778)
(4.85983004055e-06 1.17786983742e-05 -0.00281323730941)
(3.15326969707e-06 1.18872633679e-05 -0.00284070564783)
(1.37053894541e-06 1.1947071263e-05 -0.00285739898243)
(-4.50706430067e-07 1.19519444341e-05 -0.00286285144524)
(-2.26822125336e-06 1.18996531923e-05 -0.0028569152257)
(-4.03991781637e-06 1.17929291565e-05 -0.00283975446617)
(-5.72826691104e-06 1.16384071194e-05 -0.00281184662433)
(-7.30174331957e-06 1.14460716352e-05 -0.00277406272462)
(-8.7367913309e-06 1.12290867135e-05 -0.00272788604281)
(-1.0004170856e-05 1.10202356458e-05 -0.00267596027813)
(-1.12983155635e-05 1.07009826006e-05 -0.00262259942172)
(9.63545909914e-06 1.01893254113e-05 -0.0026815772224)
(8.28762282416e-06 1.0295437046e-05 -0.00273299708237)
(6.99816260524e-06 1.03223133309e-05 -0.00277906283334)
(5.61524759315e-06 1.03752749647e-05 -0.00281824598454)
(4.16450816698e-06 1.04259333436e-05 -0.00284930418262)
(2.65678464942e-06 1.04651225707e-05 -0.0028717039832)
(1.10867713834e-06 1.04843544269e-05 -0.00288514500699)
(-4.59377111754e-07 1.04777583537e-05 -0.00288946639156)
(-2.0239000105e-06 1.04433809727e-05 -0.00288462017384)
(-3.56155139634e-06 1.0383525224e-05 -0.00287066701932)
(-5.05203440739e-06 1.03040251104e-05 -0.00284777606362)
(-6.47857946219e-06 1.02136521505e-05 -0.00281626218611)
(-7.83012784209e-06 1.01219261945e-05 -0.00277669195383)
(-9.0788793705e-06 1.00572140665e-05 -0.00273023988435)
(-1.03803390207e-05 9.91921532524e-06 -0.00267857720949)
(-6.39034473992e-08 -6.53051301485e-08 -0.000192124534733)
(-5.55094842393e-08 -8.74947894185e-08 -0.000202622261848)
(-4.93615775381e-08 -1.05024831571e-07 -0.000212747188713)
(-4.02964735041e-08 -1.21117847321e-07 -0.000221854117026)
(-2.84209343652e-08 -1.34433901636e-07 -0.000229433466972)
(-1.44709083006e-08 -1.44166471215e-07 -0.000235105924854)
(2.05495432713e-10 -1.49730828395e-07 -0.000238612149413)
(1.45468555588e-08 -1.5080610155e-07 -0.000239797857855)
(2.80747104504e-08 -1.47395390198e-07 -0.000238589969142)
(4.01910228481e-08 -1.39807416598e-07 -0.000235061769198)
(4.9946674905e-08 -1.28713366359e-07 -0.000229367822288)
(5.64578482316e-08 -1.15184864998e-07 -0.000221767583023)
(5.91302730262e-08 -1.00612285834e-07 -0.000212639477362)
(5.93585789748e-08 -8.56347452612e-08 -0.000202488521918)
(6.31571277389e-08 -6.70283466577e-08 -0.000191945114978)
(-2.52994169319e-07 -2.52266071451e-07 -0.000546002120754)
(-2.31775057672e-07 -3.17711021903e-07 -0.00057401530488)
(-2.11680608691e-07 -3.77294739748e-07 -0.000601169046283)
(-1.81165609952e-07 -4.33799675474e-07 -0.000625668523458)
(-1.3739046417e-07 -4.81910864836e-07 -0.000646100964645)
(-8.24256624621e-08 -5.18536787347e-07 -0.000661413780139)
(-2.06963549202e-08 -5.40591897183e-07 -0.000670884037742)
(4.31340137592e-08 -5.46062592497e-07 -0.000674079585728)
(1.04884784093e-07 -5.34634611958e-07 -0.000670816906585)
(1.60059935495e-07 -5.07484719643e-07 -0.000661280174888)
(2.03947725027e-07 -4.67451972137e-07 -0.000645902382749)
(2.3297441142e-07 -4.18733274268e-07 -0.000625406849118)
(2.45905217564e-07 -3.66554890619e-07 -0.000600843628312)
(2.48140014548e-07 -3.1426000349e-07 -0.000573612386561)
(2.54055790257e-07 -2.57853168084e-07 -0.000545476293141)
(-4.81021469145e-07 -5.07869423586e-07 -0.000867042933943)
(-4.58471187255e-07 -6.10329752332e-07 -0.000909259160935)
(-4.33530236235e-07 -7.09753817539e-07 -0.000950314016334)
(-3.86248394462e-07 -8.07064834562e-07 -0.000987446484027)
(-3.09541976156e-07 -8.93752425182e-07 -0.00101846720175)
(-2.05924479497e-07 -9.61816029546e-07 -0.00104174116368)
(-8.3284981743e-08 -1.00447743721e-06 -0.00105614152338)
(4.80821704255e-08 -1.01706464743e-06 -0.00106099457958)
(1.77394001251e-07 -9.9818342651e-07 -0.00105603233395)
(2.93638863685e-07 -9.49833551322e-07 -0.00104152385521)
(3.86591134927e-07 -8.7737477088e-07 -0.0010181440723)
(4.49212583501e-07 -7.88869494269e-07 -0.000987020245304)
(4.797574629e-07 -6.94002030902e-07 -0.000949783586061)
(4.87779582477e-07 -5.99843038045e-07 -0.000908604271821)
(4.94333808371e-07 -5.05660351396e-07 -0.0008661993441)
(-7.0068977604e-07 -7.48197430422e-07 -0.00115712567772)
(-6.77027020924e-07 -8.75903714454e-07 -0.0012105238143)
(-6.46610801872e-07 -1.00542265825e-06 -0.00126259129475)
(-5.8269987322e-07 -1.13462678637e-06 -0.00130979763118)
(-4.74371919855e-07 -1.25211839855e-06 -0.00134930124523)
(-3.24302455424e-07 -1.34579424437e-06 -0.00137897260684)
(-1.43394054825e-07 -1.40541863309e-06 -0.00139733973239)
(5.27994712311e-08 -1.42401729654e-06 -0.00140352341284)
(2.47090543867e-07 -1.39922450636e-06 -0.00139718935985)
(4.22140149031e-07 -1.33379954022e-06 -0.00137867349542)
(5.62487998872e-07 -1.2352454021e-06 -0.00134885666621)
(6.57901088592e-07 -1.11489710823e-06 -0.00130921138263)
(7.06306807812e-07 -9.8627353112e-07 -0.00126186286705)
(7.20782234012e-07 -8.59775107882e-07 -0.00120963004052)
(7.279046135e-07 -7.38513462397e-07 -0.00115599232718)
(-8.98058704205e-07 -9.58179721282e-07 -0.0014178029953)
(-8.71050618706e-07 -1.10132067414e-06 -0.00147960473939)
(-8.33152726312e-07 -1.25052123758e-06 -0.00154001636073)
(-7.52461331131e-07 -1.40120869594e-06 -0.0015949244966)