/*--------------------------------*- C++ -*----------------------------------*\
  =========                 |
  \\      /  F ield         | OpenFOAM: The Open Source CFD Toolbox
   \\    /   O peration     | Website:  https://openfoam.org
    \\  /    A nd           | Version:  7
     \\/     M anipulation  |
\*---------------------------------------------------------------------------*/
FoamFile
{
    version     2.0;
    format      ascii;
    class       volScalarField;
    location    "1.28";
    object      p;
}
// * * * * * * * * * * * * * * * * * * * * * * * * * * * * * * * * * * * * * //

dimensions      [0 2 -2 0 0 0 0];

internalField   nonuniform List<scalar> 
22500
(
-1.94045035431e-05
-1.94041603217e-05
-1.94045108071e-05
-1.9404511491e-05
-1.94046763497e-05
-1.94048361913e-05
-1.94049627912e-05
-1.94050088067e-05
-1.94049796092e-05
-1.94048697178e-05
-1.9404725994e-05
-1.94045773218e-05
-1.94045924178e-05
-1.94042587595e-05
-1.94046258619e-05
-1.94043699781e-05
-1.9403873103e-05
-1.94042096413e-05
-1.94041553166e-05
-1.94042502733e-05
-1.94043459979e-05
-1.9404429564e-05
-1.94044625204e-05
-1.94044477339e-05
-1.94043821913e-05
-1.9404303943e-05
-1.9404226302e-05
-1.94042979155e-05
-1.94039794437e-05
-1.94045015629e-05
-1.94030933519e-05
-1.94023517644e-05
-1.94024890475e-05
-1.94022350062e-05
-1.94021515432e-05
-1.94021000085e-05
-1.94020887908e-05
-1.94020905428e-05
-1.94021088501e-05
-1.94021399934e-05
-1.94022109354e-05
-1.94023134472e-05
-1.94025865337e-05
-1.94024684031e-05
-1.94032357196e-05
-1.94000748436e-05
-1.93989063128e-05
-1.9398555873e-05
-1.93978816846e-05
-1.93974335494e-05
-1.93970959339e-05
-1.9396902547e-05
-1.9396843008e-05
-1.93969244135e-05
-1.93971395394e-05
-1.93974984141e-05
-1.93979673578e-05
-1.93986621029e-05
-1.93990328003e-05
-1.94002265182e-05
-1.93948294655e-05
-1.93929344298e-05
-1.93917718261e-05
-1.93904058981e-05
-1.93893573898e-05
-1.93885557528e-05
-1.93880680226e-05
-1.93879087587e-05
-1.93880915674e-05
-1.93886027281e-05
-1.93894272889e-05
-1.93904981984e-05
-1.93918860099e-05
-1.93930700882e-05
-1.93949895158e-05
-1.93870034981e-05
-1.93839880237e-05
-1.93816788434e-05
-1.93793221354e-05
-1.93774147898e-05
-1.93759533858e-05
-1.93750483508e-05
-1.93747474231e-05
-1.93750736445e-05
-1.93760038217e-05
-1.93774898125e-05
-1.93794210794e-05
-1.93818009664e-05
-1.93841325915e-05
-1.93871711579e-05
-1.93763482896e-05
-1.93717590476e-05
-1.93679750802e-05
-1.93643259082e-05
-1.93613023106e-05
-1.93589870022e-05
-1.93575436199e-05
-1.93570598542e-05
-1.93575707186e-05
-1.9359041e-05
-1.93613825401e-05
-1.93644315133e-05
-1.93681049857e-05
-1.93719124282e-05
-1.93765232515e-05
-1.93627040079e-05
-1.93560751343e-05
-1.93505121961e-05
-1.93452956576e-05
-1.93409254795e-05
-1.93375845351e-05
-1.93354970057e-05
-1.9334794623e-05
-1.9335526009e-05
-1.93376422728e-05
-1.93410111082e-05
-1.93454080858e-05
-1.93506499491e-05
-1.93562371846e-05
-1.9362886155e-05
-1.93460060881e-05
-1.93369142676e-05
-1.93293155206e-05
-1.93223137737e-05
-1.93164195967e-05
-1.93119237698e-05
-1.93091141608e-05
-1.93081670764e-05
-1.93091451208e-05
-1.9311985327e-05
-1.93165107156e-05
-1.93224330458e-05
-1.93294610807e-05
-1.93370847439e-05
-1.93461957015e-05
-1.93263008247e-05
-1.931441552e-05
-1.93045958696e-05
-1.92956738157e-05
-1.92881522854e-05
-1.92824306403e-05
-1.9278858726e-05
-1.92776539066e-05
-1.92788916402e-05
-1.9282496e-05
-1.92882488525e-05
-1.92957998555e-05
-1.93047490825e-05
-1.9314594137e-05
-1.93264978888e-05
-1.9303750146e-05
-1.92888722877e-05
-1.9276744242e-05
-1.92658673341e-05
-1.92567017208e-05
-1.92497503911e-05
-1.92454188863e-05
-1.92439580721e-05
-1.92454536557e-05
-1.92498193727e-05
-1.92568034703e-05
-1.92659998226e-05
-1.92769047729e-05
-1.92890586373e-05
-1.93039548701e-05
-1.92785523074e-05
-1.9260696214e-05
-1.92463195641e-05
-1.92335642837e-05
-1.92228265793e-05
-1.92147094741e-05
-1.92096643048e-05
-1.92079641148e-05
-1.92097007394e-05
-1.92147816879e-05
-1.92229330116e-05
-1.92337026347e-05
-1.92464868254e-05
-1.92608897208e-05
-1.92787647231e-05
-1.9250756388e-05
-1.92304034357e-05
-1.92140406562e-05
-1.91995827193e-05
-1.91874271898e-05
-1.91782767863e-05
-1.91726091232e-05
-1.91707019991e-05
-1.91726468722e-05
-1.91783516269e-05
-1.91875374407e-05
-1.91997259722e-05
-1.92142136881e-05
-1.9230603155e-05
-1.9250975818e-05
-1.92210522645e-05
-1.91988349614e-05
-1.91806931078e-05
-1.91647135736e-05
-1.91513637762e-05
-1.91413944339e-05
-1.91352536746e-05
-1.9133192344e-05
-1.91352921965e-05
-1.91414708212e-05
-1.9151476371e-05
-1.91648599797e-05
-1.91808701876e-05
-1.91990395642e-05
-1.92212770661e-05
-1.91944906206e-05
-1.91673414619e-05
-1.91471758646e-05
-1.91296045822e-05
-1.9115238447e-05
-1.91046595736e-05
-1.90981948454e-05
-1.90960323292e-05
-1.90982335214e-05
-1.91047363256e-05
-1.91153517399e-05
-1.91297521985e-05
-1.91473549965e-05
-1.91675495415e-05
-1.9194719031e-05
-2.27849606059e-05
-2.27840573931e-05
-2.27828675567e-05
-2.27818124489e-05
-2.27808755697e-05
-2.27801570776e-05
-2.27797017252e-05
-2.27795439788e-05
-2.27796950107e-05
-2.27801435667e-05
-2.27808548956e-05
-2.27817831921e-05
-2.2782829257e-05
-2.27840083771e-05
-2.27848999316e-05
-2.27805794387e-05
-2.27797758183e-05
-2.27786648091e-05
-2.27777002647e-05
-2.27768459362e-05
-2.27761932856e-05
-2.27757802991e-05
-2.27756369956e-05
-2.27757733877e-05
-2.27761793964e-05
-2.2776824727e-05
-2.27776704553e-05
-2.27786254516e-05
-2.27797256302e-05
-2.27805169032e-05
-2.27791671827e-05
-2.2778772276e-05
-2.2778003285e-05
-2.2777364587e-05
-2.27767803293e-05
-2.2776331e-05
-2.27760437667e-05
-2.27759427936e-05
-2.27760362893e-05
-2.27763159581e-05
-2.27767574296e-05
-2.27773328441e-05
-2.27779616805e-05
-2.27787200803e-05
-2.2779102427e-05
-2.27809764507e-05
-2.27811158964e-05
-2.27807756922e-05
-2.27805192187e-05
-2.2780237659e-05
-2.27800067275e-05
-2.27798507035e-05
-2.27797932872e-05
-2.2779842927e-05
-2.27799910364e-05
-2.27802138114e-05
-2.27804864857e-05
-2.27807331502e-05
-2.27810630023e-05
-2.27809109625e-05
-2.27842564125e-05
-2.27847859391e-05
-2.27847275358e-05
-2.27846937962e-05
-2.2784569817e-05
-2.2784440377e-05
-2.27843401127e-05
-2.27843002532e-05
-2.27843323809e-05
-2.27844247335e-05
-2.27845460485e-05
-2.27846612836e-05
-2.27846854802e-05
-2.27847338222e-05
-2.27841917187e-05
-2.27876188782e-05
-2.27882446455e-05
-2.2788216171e-05
-2.27881616976e-05
-2.27879902539e-05
-2.27878066858e-05
-2.27876654736e-05
-2.27876104375e-05
-2.27876579929e-05
-2.27877915257e-05
-2.27879672023e-05
-2.27881302498e-05
-2.27881755675e-05
-2.27881945989e-05
-2.27875562649e-05
-2.27902158117e-05
-2.27906179421e-05
-2.2790375518e-05
-2.27900795884e-05
-2.27896842357e-05
-2.27893181683e-05
-2.27890584548e-05
-2.27889623877e-05
-2.27890513492e-05
-2.27893037518e-05
-2.27896622927e-05
-2.2790049691e-05
-2.27903369514e-05
-2.27905705243e-05
-2.27901562596e-05
-2.27916072995e-05
-2.27915154135e-05
-2.27908773929e-05
-2.27901862529e-05
-2.27894505912e-05
-2.27888211218e-05
-2.27883955836e-05
-2.27882429837e-05
-2.27883889247e-05
-2.27888075924e-05
-2.27894299771e-05
-2.2790158175e-05
-2.27908412437e-05
-2.27914710409e-05
-2.27915515527e-05
-2.27916526688e-05
-2.27908768884e-05
-2.27897319932e-05
-2.27885602393e-05
-2.27874243696e-05
-2.27864928253e-05
-2.27858801004e-05
-2.27856642184e-05
-2.27858739334e-05
-2.2786480276e-05
-2.27874052245e-05
-2.27885341527e-05
-2.2789698432e-05
-2.27908357523e-05
-2.27916010297e-05
-2.27904020448e-05
-2.27888345524e-05
-2.27871290635e-05
-2.27854442921e-05
-2.27838900501e-05
-2.27826480774e-05
-2.27818451401e-05
-2.27815653657e-05
-2.27818395017e-05
-2.27826365836e-05
-2.27838724784e-05
-2.27854203153e-05
-2.2787098221e-05
-2.27887967599e-05
-2.27903548323e-05
-2.27880047656e-05
-2.27856082523e-05
-2.27833294716e-05
-2.2781135336e-05
-2.27791728073e-05
-2.27776326597e-05
-2.27766490347e-05
-2.27763089599e-05
-2.27766439593e-05
-2.27776222893e-05
-2.27791569019e-05
-2.27811135653e-05
-2.27833014115e-05
-2.27855738034e-05
-2.27879620077e-05
-2.2784658371e-05
-2.27814478639e-05
-2.27786080615e-05
-2.27759302171e-05
-2.27735884481e-05
-2.27717770137e-05
-2.27706314174e-05
-2.27702377764e-05
-2.27706269336e-05
-2.2771767834e-05
-2.27735742948e-05
-2.27759107429e-05
-2.27785828335e-05
-2.27814167136e-05
-2.27846198883e-05
-2.27806000535e-05
-2.27766034128e-05
-2.27732202688e-05
-2.27700977704e-05
-2.27674213054e-05
-2.27653783593e-05
-2.27640978603e-05
-2.27636601378e-05
-2.27640940122e-05
-2.27653704226e-05
-2.27674089811e-05
-2.27700806604e-05
-2.27731979194e-05
-2.27765755821e-05
-2.27805658036e-05
-2.27759747757e-05
-2.27711992644e-05
-2.27673310491e-05
-2.27638364182e-05
-2.2760903956e-05
-2.27586948577e-05
-2.27573215301e-05
-2.27568544976e-05
-2.27573183363e-05
-2.27586882438e-05
-2.27608935946e-05
-2.27638218456e-05
-2.27673116718e-05
-2.27711747426e-05
-2.27759448336e-05
-2.27700974086e-05
-2.27652556875e-05
-2.27610555714e-05
-2.27573371997e-05
-2.27542885588e-05
-2.27520199813e-05
-2.27506203182e-05
-2.27501462603e-05
-2.27506178294e-05
-2.27520147163e-05
-2.27542801855e-05
-2.27573251774e-05
-2.27610392518e-05
-2.27652342286e-05
-2.27700714154e-05
-1.83085473826e-05
-1.83091190489e-05
-1.83097458975e-05
-1.83103731547e-05
-1.8310932798e-05
-1.83113701955e-05
-1.83116476081e-05
-1.83117413956e-05
-1.83116422147e-05
-1.83113596612e-05
-1.83109176816e-05
-1.83103543231e-05
-1.8309723179e-05
-1.83090942185e-05
-1.83085217105e-05
-1.83091399353e-05
-1.83097003611e-05
-1.8310327638e-05
-1.83109573284e-05
-1.83115210747e-05
-1.83119628565e-05
-1.83122436311e-05
-1.83123387488e-05
-1.83122381363e-05
-1.83119521096e-05
-1.8311505642e-05
-1.83109380399e-05
-1.83103046229e-05
-1.83096750566e-05
-1.83091139601e-05
-1.83089892733e-05
-1.83094882956e-05
-1.83100637642e-05
-1.831065126e-05
-1.83111830087e-05
-1.83116026427e-05
-1.83118705382e-05
-1.8311961501e-05
-1.831186514e-05
-1.83115920919e-05
-1.83111678343e-05
-1.83106322224e-05
-1.83100411669e-05
-1.83094633331e-05
-1.83089635804e-05
-1.8308708505e-05
-1.83091616854e-05
-1.83096960606e-05
-1.83102491776e-05
-1.83107551825e-05
-1.83111573165e-05
-1.83114152266e-05
-1.83115030006e-05
-1.83114099653e-05
-1.83111470447e-05
-1.83107403734e-05
-1.83102305234e-05
-1.83096739972e-05
-1.8309137271e-05
-1.83086830914e-05
-1.83084973684e-05
-1.83089286191e-05
-1.83094411473e-05
-1.83099753073e-05
-1.83104676908e-05
-1.83108610576e-05
-1.83111142451e-05
-1.83112005876e-05
-1.83111091327e-05
-1.83108510804e-05
-1.83104532828e-05
-1.83099570924e-05
-1.8309419597e-05
-1.83089047343e-05
-1.83084723253e-05
-1.8308356688e-05
-1.83087846949e-05
-1.83092894292e-05
-1.83098162016e-05
-1.83103036744e-05
-1.83106943216e-05
-1.83109463311e-05
-1.83110324104e-05
-1.83109413949e-05
-1.83106846849e-05
-1.83102897324e-05
-1.83097985164e-05
-1.83092685032e-05
-1.83087613616e-05
-1.83083321163e-05
-1.83082807444e-05
-1.83087209663e-05
-1.83092287659e-05
-1.83097569555e-05
-1.8310245863e-05
-1.8310637984e-05
-1.83108911531e-05
-1.83109777127e-05
-1.8310886413e-05
-1.8310628728e-05
-1.83102324488e-05
-1.83097398847e-05
-1.83092085294e-05
-1.83086982872e-05
-1.83082566988e-05
-1.83082711891e-05
-1.83087364715e-05
-1.8309255565e-05
-1.83097916172e-05
-1.83102862045e-05
-1.83106823206e-05
-1.83109379015e-05
-1.83110253096e-05
-1.83109333757e-05
-1.83106734776e-05
-1.83102733648e-05
-1.83097752247e-05
-1.8309236085e-05
-1.83087145086e-05
-1.83082476602e-05
-1.83083251263e-05
-1.83088250086e-05
-1.83093607703e-05
-1.83099083414e-05
-1.83104104313e-05
-1.83108111616e-05
-1.8311069189e-05
-1.83111573892e-05
-1.83110648923e-05
-1.8310802758e-05
-1.83103982045e-05
-1.83098926739e-05
-1.83093420826e-05
-1.83088038015e-05
-1.83083021804e-05
-1.83084343322e-05
-1.83089744408e-05
-1.83095293706e-05
-1.83100893052e-05
-1.83105982743e-05
-1.83110023138e-05
-1.8311261595e-05
-1.8311350111e-05
-1.83112575353e-05
-1.83109943644e-05
-1.83105866817e-05
-1.83100743938e-05
-1.83095115047e-05
-1.83089540233e-05
-1.83084119262e-05
-1.83085875777e-05
-1.83091697547e-05
-1.83097438981e-05
-1.83103146061e-05
-1.83108276425e-05
-1.83112319462e-05
-1.83114901796e-05
-1.83115781534e-05
-1.83114863627e-05
-1.8311224464e-05
-1.83108167019e-05
-1.83103004775e-05
-1.83097268897e-05
-1.83091501862e-05
-1.83085657787e-05
-1.83087704911e-05
-1.83093942187e-05
-1.83099866196e-05
-1.83105651692e-05
-1.83110779484e-05
-1.83114781735e-05
-1.83117322173e-05
-1.83118184943e-05
-1.83117286484e-05
-1.83114711596e-05
-1.83110676714e-05
-1.83105518435e-05
-1.83099705031e-05
-1.8309375577e-05
-1.83087494296e-05
-1.83089578758e-05
-1.83096262985e-05
-1.83102390597e-05
-1.83108234636e-05
-1.83113317544e-05
-1.83117234665e-05
-1.83119700582e-05
-1.83120534863e-05
-1.83119667305e-05
-1.83117169245e-05
-1.83113221441e-05
-1.83108109605e-05
-1.83102238698e-05
-1.83096086289e-05
-1.83089376272e-05
-1.83091408618e-05
-1.83098644173e-05
-1.83104949535e-05
-1.83110803747e-05
-1.83115773355e-05
-1.83119545433e-05
-1.83121898214e-05
-1.83122689673e-05
-1.8312186736e-05
-1.83119484769e-05
-1.83115683927e-05
-1.83110687002e-05
-1.83104807383e-05
-1.83098477961e-05
-1.8309121436e-05
-1.83096183788e-05
-1.83102556301e-05
-1.83108502409e-05
-1.8311386765e-05
-1.83118310406e-05
-1.83121638036e-05
-1.83123696089e-05
-1.83124385038e-05
-1.83123667753e-05
-1.83121582293e-05
-1.83118228216e-05
-1.83113760136e-05
-1.83108370849e-05
-1.83102402586e-05
-1.8309600153e-05
-1.97752888787e-05
-1.97749114325e-05
-1.97745020708e-05
-1.97740882388e-05
-1.97737202054e-05
-1.97734326737e-05
-1.97732503072e-05
-1.97731884669e-05
-1.97732534097e-05
-1.97734387566e-05
-1.97737289294e-05
-1.97740986309e-05
-1.97745136292e-05
-1.977492258e-05
-1.97752996818e-05
-1.97751014403e-05
-1.9774736041e-05
-1.97743310247e-05
-1.97739192751e-05
-1.97735515442e-05
-1.97732632898e-05
-1.9773080039e-05
-1.97730177975e-05
-1.97730833029e-05
-1.97732696905e-05
-1.97735607093e-05
-1.97739302511e-05
-1.97743430314e-05
-1.97747476819e-05
-1.97751123821e-05
-1.97754031984e-05
-1.97750825421e-05
-1.97747171361e-05
-1.97743374054e-05
-1.97739943887e-05
-1.97737233551e-05
-1.97735502222e-05
-1.9773491253e-05
-1.97735533711e-05
-1.97737295192e-05
-1.97740032013e-05
-1.97743480383e-05
-1.97747287534e-05
-1.97750940142e-05
-1.9775413993e-05
-1.97757264119e-05
-1.97754384381e-05
-1.97751044715e-05
-1.97747511003e-05
-1.97744284615e-05
-1.97741716088e-05
-1.97740067734e-05
-1.97739504779e-05
-1.97740097403e-05
-1.9774177407e-05
-1.97744367566e-05
-1.97747611957e-05
-1.97751155953e-05
-1.97754495811e-05
-1.97757371089e-05
-1.97759728095e-05
-1.97757037615e-05
-1.97753899924e-05
-1.9775054565e-05
-1.97747459145e-05
-1.977449885e-05
-1.97743397234e-05
-1.97742852648e-05
-1.97743425379e-05
-1.97745043425e-05
-1.97747537802e-05
-1.97750641829e-05
-1.97754006939e-05
-1.97757145776e-05
-1.97759833814e-05
-1.97761703171e-05
-1.97759116415e-05
-1.97756113482e-05
-1.97752888041e-05
-1.97749905744e-05
-1.97747509606e-05
-1.97745962385e-05
-1.97745431962e-05
-1.97745988913e-05
-1.97747561386e-05
-1.97749979963e-05
-1.97752979463e-05
-1.97756215959e-05
-1.9775922212e-05
-1.97761807079e-05
-1.97763355685e-05
-1.97760811864e-05
-1.97757893701e-05
-1.9775476138e-05
-1.97751859236e-05
-1.97749523306e-05
-1.97748012833e-05
-1.9774749445e-05
-1.97748037784e-05
-1.97749572024e-05
-1.97751929148e-05
-1.97754848024e-05
-1.97757991474e-05
-1.97760914381e-05
-1.97763457738e-05
-1.97764732177e-05
-1.97762182426e-05
-1.97759309697e-05
-1.97756243847e-05
-1.97753405156e-05
-1.97751120712e-05
-1.97749643217e-05
-1.97749135938e-05
-1.97749666551e-05
-1.97751166301e-05
-1.97753470756e-05
-1.97756325678e-05
-1.97759403049e-05
-1.97762281759e-05
-1.97764833124e-05
-1.9776587431e-05
-1.97763281693e-05
-1.97760426044e-05
-1.97757408981e-05
-1.97754625129e-05
-1.97752389608e-05
-1.9775094536e-05
-1.97750449656e-05
-1.97750967115e-05
-1.97752432173e-05
-1.97754686545e-05
-1.97757486115e-05
-1.97760514943e-05
-1.97763377836e-05
-1.97765973631e-05
-1.97766831625e-05
-1.9776417149e-05
-1.97761314747e-05
-1.97758338071e-05
-1.97755608485e-05
-1.97753425598e-05
-1.97752018818e-05
-1.97751536516e-05
-1.97752039034e-05
-1.97753465224e-05
-1.97755665876e-05
-1.97758410688e-05
-1.97761399401e-05
-1.97764264549e-05
-1.97766929859e-05
-1.977676528e-05
-1.97764909872e-05
-1.97762041819e-05
-1.97759104715e-05
-1.97756436056e-05
-1.97754315359e-05
-1.97752954062e-05
-1.97752488302e-05
-1.97752972803e-05
-1.97754352159e-05
-1.97756489568e-05
-1.97759172903e-05
-1.97762122151e-05
-1.97764999513e-05
-1.97767749362e-05
-1.97768387399e-05
-1.97765548172e-05
-1.97762661128e-05
-1.97759766478e-05
-1.97757170405e-05
-1.97755126029e-05
-1.97753821215e-05
-1.97753376256e-05
-1.97753838533e-05
-1.97755160148e-05
-1.9775722023e-05
-1.97759830374e-05
-1.97762737086e-05
-1.97765633816e-05
-1.97768481218e-05
-1.97769133027e-05
-1.97766165843e-05
-1.97763235471e-05
-1.97760376333e-05
-1.97757859398e-05
-1.97755902324e-05
-1.97754663792e-05
-1.97754243021e-05
-1.97754679784e-05
-1.97755933925e-05
-1.9775790561e-05
-1.97760436025e-05
-1.97763306949e-05
-1.97766247269e-05
-1.97769223434e-05
-1.97769940965e-05
-1.97766777901e-05
-1.97763788309e-05
-1.97760961729e-05
-1.97758534058e-05
-1.97756677074e-05
-1.97755513181e-05
-1.97755120566e-05
-1.97755527912e-05
-1.97756706146e-05
-1.97758576948e-05
-1.97761017259e-05
-1.97763855244e-05
-1.97766854607e-05
-1.97770027459e-05
-1.97769169409e-05
-1.97766302815e-05
-1.97763569975e-05
-1.97761071e-05
-1.97758975409e-05
-1.97757393818e-05
-1.97756411307e-05
-1.97756081498e-05
-1.97756424773e-05
-1.97757420449e-05
-1.97759014656e-05
-1.97761122177e-05
-1.97763632105e-05
-1.97766374385e-05
-1.97769250928e-05
-1.72140397968e-05
-1.72142918902e-05
-1.72145660396e-05
-1.72148440274e-05
-1.72150919033e-05
-1.72152861753e-05
-1.72154094839e-05
-1.72154515509e-05
-1.72154082286e-05
-1.72152838197e-05
-1.72150887506e-05
-1.7214840066e-05
-1.72145608203e-05
-1.7214286234e-05
-1.72140334465e-05
-1.72141460378e-05
-1.72143898569e-05
-1.72146610253e-05
-1.72149377769e-05
-1.72151857754e-05
-1.72153807806e-05
-1.72155048855e-05
-1.72155473177e-05
-1.72155035909e-05
-1.72153783406e-05
-1.72151824769e-05
-1.721493365e-05
-1.72146556848e-05
-1.72143839057e-05
-1.72141395009e-05
-1.72139262555e-05
-1.72141403028e-05
-1.72143852822e-05
-1.72146410468e-05
-1.7214872863e-05
-1.72150565537e-05
-1.72151740313e-05
-1.72152143133e-05
-1.72151727686e-05
-1.72150541574e-05
-1.72148695802e-05
-1.72146369214e-05
-1.72143800495e-05
-1.7214134398e-05
-1.721391981e-05
-1.72136979695e-05
-1.72138902764e-05
-1.7214114508e-05
-1.72143530002e-05
-1.72145713641e-05
-1.72147455845e-05
-1.7214857512e-05
-1.72148959868e-05
-1.72148562993e-05
-1.72147432614e-05
-1.72145681245e-05
-1.72143489253e-05
-1.72141094409e-05
-1.72138845649e-05
-1.72136916205e-05
-1.72135231371e-05
-1.72137022358e-05
-1.72139125855e-05
-1.72141387121e-05
-1.72143472515e-05
-1.72145144775e-05
-1.72146222835e-05
-1.72146594096e-05
-1.72146211166e-05
-1.7214512231e-05
-1.72143440838e-05
-1.72141347108e-05
-1.72139076471e-05
-1.7213696702e-05
-1.72135168883e-05
-1.72133793772e-05
-1.72135498353e-05
-1.72137498063e-05
-1.72139659446e-05
-1.72141661829e-05
-1.72143272856e-05
-1.72144314036e-05
-1.72144673075e-05
-1.72144302856e-05
-1.72143251223e-05
-1.7214163102e-05
-1.72139620438e-05
-1.72137450378e-05
-1.72135444487e-05
-1.7213373292e-05
-1.72132528349e-05
-1.72134172859e-05
-1.72136090014e-05
-1.72138163602e-05
-1.72140089023e-05
-1.7214164092e-05
-1.72142645396e-05
-1.7214299204e-05
-1.72142634737e-05
-1.72141620218e-05
-1.72140059338e-05
-1.72138125845e-05
-1.72136044084e-05
-1.72134120657e-05
-1.72132468966e-05
-1.72131382588e-05
-1.72132983955e-05
-1.721348325e-05
-1.72136824916e-05
-1.72138675038e-05
-1.72140166559e-05
-1.72141132416e-05
-1.7214146579e-05
-1.7214112229e-05
-1.72140146822e-05
-1.72138646559e-05
-1.72136788533e-05
-1.72134788363e-05
-1.72132933519e-05
-1.72131324248e-05
-1.72130314065e-05
-1.72131882432e-05
-1.72133670392e-05
-1.72135583613e-05
-1.72137356386e-05
-1.72138783587e-05
-1.7213970724e-05
-1.72140025892e-05
-1.72139697658e-05
-1.72138764857e-05
-1.72137329207e-05
-1.72135548704e-05
-1.72133627965e-05
-1.72131833665e-05
-1.72130256903e-05
-1.72129282406e-05
-1.72130822543e-05
-1.72132553675e-05
-1.72134386551e-05
-1.72136077124e-05
-1.72137433929e-05
-1.72138310432e-05
-1.72138612449e-05
-1.72138301381e-05
-1.7213741618e-05
-1.72136051243e-05
-1.72134353103e-05
-1.72132512897e-05
-1.72130775308e-05
-1.7212922611e-05
-1.72128254996e-05
-1.72129769914e-05
-1.72131445997e-05
-1.72133195507e-05
-1.72134797075e-05
-1.72136075748e-05
-1.72136899103e-05
-1.72137182203e-05
-1.72136890574e-05
-1.72136058979e-05
-1.72134772501e-05
-1.72133163556e-05
-1.72131406883e-05
-1.72129724288e-05
-1.72128199713e-05
-1.72127205575e-05
-1.72128702069e-05
-1.72130326739e-05
-1.72131990497e-05
-1.72133495647e-05
-1.72134687593e-05
-1.72135451162e-05
-1.72135712833e-05
-1.72135443145e-05
-1.72134671766e-05
-1.72133472368e-05
-1.72131960042e-05
-1.72130289322e-05
-1.72128658291e-05
-1.7212715182e-05
-1.72126081913e-05
-1.7212758327e-05
-1.72129173795e-05
-1.72130758597e-05
-1.72132166103e-05
-1.72133266856e-05
-1.72133966344e-05
-1.72134204973e-05
-1.72133958796e-05
-1.72133251956e-05
-1.72132144083e-05
-1.72130729709e-05
-1.72129138146e-05
-1.72127541405e-05
-1.72126029809e-05
-1.7212485774e-05
-1.72126412717e-05
-1.72127985974e-05
-1.72129500749e-05
-1.72130811316e-05
-1.72131819292e-05
-1.72132453348e-05
-1.72132668086e-05
-1.7213244626e-05
-1.72131805253e-05
-1.72130790517e-05
-1.72129473321e-05
-1.72127952228e-05
-1.72126372974e-05
-1.72124807372e-05
-1.72124593981e-05
-1.72125931146e-05
-1.72127288177e-05
-1.72128546231e-05
-1.72129609907e-05
-1.72130417534e-05
-1.72130921408e-05
-1.72131091008e-05
-1.72130914701e-05
-1.72130404317e-05
-1.72129590308e-05
-1.72128520482e-05
-1.72127256279e-05
-1.72125893864e-05
-1.72124546787e-05
-1.73474919817e-05
-1.73473241837e-05
-1.73471421558e-05
-1.73469580187e-05
-1.73467943995e-05
-1.73466665384e-05
-1.73465855011e-05
-1.73465579938e-05
-1.73465867209e-05
-1.73466688771e-05
-1.73467976132e-05
-1.73469617385e-05
-1.73471461395e-05
-1.73473276866e-05
-1.73474955645e-05
-1.73474199317e-05
-1.73472574553e-05
-1.73470773787e-05
-1.7346894093e-05
-1.73467304718e-05
-1.73466021941e-05
-1.73465207013e-05
-1.73464929904e-05
-1.73465219843e-05
-1.73466046585e-05
-1.73467338593e-05
-1.73468980109e-05
-1.73470815069e-05
-1.73472611605e-05
-1.73474234804e-05
-1.73475647802e-05
-1.73474220813e-05
-1.73472596031e-05
-1.73470904022e-05
-1.73469376323e-05
-1.7346816912e-05
-1.73467398479e-05
-1.73467135639e-05
-1.73467410717e-05
-1.73468192637e-05
-1.73469408715e-05
-1.73470941774e-05
-1.7347263562e-05
-1.73474257807e-05
-1.7347568272e-05
-1.73477145504e-05
-1.73475862674e-05
-1.73474376765e-05
-1.73472800786e-05
-1.73471362814e-05
-1.7347021826e-05
-1.73469484226e-05
-1.73469233103e-05
-1.73469495504e-05
-1.73470239963e-05
-1.73471392874e-05
-1.73472836115e-05
-1.73474414194e-05
-1.73475898466e-05
-1.73477180168e-05
-1.7347828291e-05
-1.73477087761e-05
-1.7347569436e-05
-1.73474201339e-05
-1.73472828654e-05
-1.73471730329e-05
-1.73471023436e-05
-1.73470781049e-05
-1.73471033924e-05
-1.73471750506e-05
-1.73472856692e-05
-1.73474234458e-05
-1.73475729956e-05
-1.73477122122e-05
-1.73478317119e-05
-1.73479215366e-05
-1.73478078069e-05
-1.73476754836e-05
-1.73475329479e-05
-1.73474012586e-05
-1.73472955105e-05
-1.73472272705e-05
-1.73472038258e-05
-1.73472282345e-05
-1.73472973677e-05
-1.7347403851e-05
-1.73475360346e-05
-1.7347678834e-05
-1.73478111562e-05
-1.73479248427e-05
-1.73480039663e-05
-1.73478944645e-05
-1.73477678241e-05
-1.73476313183e-05
-1.73475048749e-05
-1.73474031296e-05
-1.73473373634e-05
-1.73473147385e-05
-1.73473382482e-05
-1.73474048351e-05
-1.73475072638e-05
-1.73476341865e-05
-1.73477709606e-05
-1.73478976941e-05
-1.73480071682e-05
-1.73480793468e-05
-1.73479731288e-05
-1.7347851313e-05
-1.73477204917e-05
-1.73475992476e-05
-1.73475016347e-05
-1.73474384928e-05
-1.73474167542e-05
-1.73474392986e-05
-1.73475031903e-05
-1.73476014401e-05
-1.73477231523e-05
-1.73478542677e-05
-1.73479762406e-05
-1.73480824981e-05
-1.73481506562e-05
-1.73480471719e-05
-1.73479297088e-05
-1.7347804475e-05
-1.73476885955e-05
-1.73475953951e-05
-1.73475351278e-05
-1.7347514377e-05
-1.73475358603e-05
-1.7347596813e-05
-1.73476906054e-05
-1.73478069423e-05
-1.7347932495e-05
-1.73480501731e-05
-1.73481537307e-05
-1.73482205699e-05
-1.73481195691e-05
-1.7348006243e-05
-1.73478866809e-05
-1.73477764866e-05
-1.73476880973e-05
-1.73476310257e-05
-1.73476113889e-05
-1.7347631692e-05
-1.73476893908e-05
-1.73477783345e-05
-1.73478889795e-05
-1.73480088859e-05
-1.7348122485e-05
-1.73482235895e-05
-1.73482911758e-05
-1.73481924882e-05
-1.73480831746e-05
-1.73479694505e-05
-1.7347865357e-05
-1.73477822572e-05
-1.73477287583e-05
-1.73477103805e-05
-1.73477293659e-05
-1.73477834408e-05
-1.73478670601e-05
-1.73479715957e-05
-1.73480856814e-05
-1.73481953103e-05
-1.73482941179e-05
-1.73483641215e-05
-1.73482672664e-05
-1.7348161685e-05
-1.734805389e-05
-1.73479563159e-05
-1.73478790225e-05
-1.73478294962e-05
-1.73478125372e-05
-1.73478300539e-05
-1.73478801124e-05
-1.73479578983e-05
-1.73480559005e-05
-1.7348164064e-05
-1.73482699731e-05
-1.7348366942e-05
-1.73484427853e-05
-1.73483461617e-05
-1.73482430946e-05
-1.73481406624e-05
-1.7348049596e-05
-1.73479783018e-05
-1.73479329902e-05
-1.73479175301e-05
-1.73479335054e-05
-1.73479793189e-05
-1.73480510687e-05
-1.73481425587e-05
-1.73482453509e-05
-1.73483487476e-05
-1.73484454631e-05
-1.73485285062e-05
-1.73484287447e-05
-1.73483271141e-05
-1.73482294248e-05
-1.73481447094e-05
-1.73480794889e-05
-1.73480384264e-05
-1.73480245298e-05
-1.73480389107e-05
-1.73480804349e-05
-1.73481461045e-05
-1.73482312117e-05
-1.73483292571e-05
-1.7348431192e-05
-1.7348530994e-05
-1.73485472032e-05
-1.73484637198e-05
-1.7348377554e-05
-1.73482974983e-05
-1.73482295179e-05
-1.73481777797e-05
-1.73481454724e-05
-1.73481345971e-05
-1.73481459246e-05
-1.73481786717e-05
-1.73482308227e-05
-1.73482991906e-05
-1.73483795856e-05
-1.73484660618e-05
-1.73485495724e-05
-1.56799365902e-05
-1.56800481154e-05
-1.56801699952e-05
-1.56802937457e-05
-1.56804037266e-05
-1.56804898099e-05
-1.56805445533e-05
-1.56805633487e-05
-1.56805443029e-05
-1.56804893013e-05
-1.56804029588e-05
-1.56802928596e-05
-1.56801692173e-05
-1.56800477812e-05
-1.56799358615e-05
-1.56799787287e-05
-1.56800864234e-05
-1.56802067481e-05
-1.56803297246e-05
-1.56804395766e-05
-1.56805258611e-05
-1.56805808672e-05
-1.56805997928e-05
-1.56805806027e-05
-1.56805253236e-05
-1.56804387761e-05
-1.56803288025e-05
-1.56802059421e-05
-1.56800859814e-05
-1.56799779915e-05
-1.56798758322e-05
-1.56799701831e-05
-1.56800785686e-05
-1.56801919845e-05
-1.56802944846e-05
-1.56803756372e-05
-1.56804276192e-05
-1.5680445553e-05
-1.56804273567e-05
-1.56803751093e-05
-1.56802937082e-05
-1.56801910907e-05
-1.56800777963e-05
-1.56799696697e-05
-1.56798751145e-05
-1.56797704051e-05
-1.56798550277e-05
-1.56799540151e-05
-1.56800595657e-05
-1.56801559965e-05
-1.56802329038e-05
-1.56802823791e-05
-1.56802994863e-05
-1.56802821271e-05
-1.5680232405e-05
-1.56801552785e-05
-1.5680058746e-05
-1.56799532895e-05
-1.56798545386e-05
-1.56797696881e-05
-1.56796895891e-05
-1.56797682699e-05
-1.56798609411e-05
-1.56799608544e-05
-1.56800528447e-05
-1.56801265982e-05
-1.56801741991e-05
-1.56801906859e-05
-1.56801739572e-05
-1.5680126124e-05
-1.56800521743e-05
-1.5679960097e-05
-1.56798602522e-05
-1.56797678155e-05
-1.56796888702e-05
-1.56796228712e-05
-1.56796976327e-05
-1.56797854839e-05
-1.56798807728e-05
-1.56799689591e-05
-1.5680039914e-05
-1.56800858182e-05
-1.5680101736e-05
-1.5680085591e-05
-1.56800394741e-05
-1.56799683471e-05
-1.56798800888e-05
-1.5679784845e-05
-1.56796971755e-05
-1.56796222015e-05
-1.56795637606e-05
-1.56796356405e-05
-1.56797195308e-05
-1.56798106852e-05
-1.56798952722e-05
-1.56799634646e-05
-1.56800076456e-05
-1.56800229765e-05
-1.56800074344e-05
-1.56799630603e-05
-1.56798947173e-05
-1.56798100709e-05
-1.56797189553e-05
-1.56796351932e-05
-1.56795631122e-05
-1.56795096379e-05
-1.56795792282e-05
-1.56796597028e-05
-1.56797469254e-05
-1.56798279054e-05
-1.56798932216e-05
-1.56799355609e-05
-1.56799502565e-05
-1.5679935369e-05
-1.56798928575e-05
-1.567982741e-05
-1.56797463731e-05
-1.56796591721e-05
-1.5679578792e-05
-1.56795089617e-05
-1.56794583736e-05
-1.5679525981e-05
-1.56796033118e-05
-1.56796866178e-05
-1.56797638384e-05
-1.56798260519e-05
-1.56798663597e-05
-1.56798803458e-05
-1.56798661888e-05
-1.56798257293e-05
-1.56797634024e-05
-1.56796861292e-05
-1.56796028246e-05
-1.56795255575e-05
-1.56794576763e-05
-1.56794080327e-05
-1.56794737588e-05
-1.56795480458e-05
-1.5679627329e-05
-1.56797005226e-05
-1.5679759325e-05
-1.56797973614e-05
-1.56798105466e-05
-1.5679797211e-05
-1.56797590433e-05
-1.56797001407e-05
-1.56796268917e-05
-1.56795475903e-05
-1.56794733334e-05
-1.56794073007e-05
-1.56793571116e-05
-1.5679421002e-05
-1.56794922867e-05
-1.56795673892e-05
-1.56796362314e-05
-1.56796912642e-05
-1.56797267523e-05
-1.56797390336e-05
-1.56797266226e-05
-1.56796910223e-05
-1.56796359026e-05
-1.56795670033e-05
-1.56794918689e-05
-1.56794205838e-05
-1.56793563533e-05
-1.56793044872e-05
-1.56793668037e-05
-1.5679435254e-05
-1.5679506065e-05
-1.5679570224e-05
-1.56796210983e-05
-1.56796537454e-05
-1.56796650088e-05
-1.56796536353e-05
-1.56796208923e-05
-1.56795699404e-05
-1.56795057241e-05
-1.56794348713e-05
-1.56793664142e-05
-1.56793037312e-05
-1.56792480092e-05
-1.56793097755e-05
-1.56793761638e-05
-1.56794430001e-05
-1.56795024231e-05
-1.56795489573e-05
-1.56795785706e-05
-1.56795887529e-05
-1.56795784761e-05
-1.56795487771e-05
-1.56795021789e-05
-1.56794426971e-05
-1.56793758164e-05
-1.56793094139e-05
-1.56792472509e-05
-1.56791862023e-05
-1.56792495857e-05
-1.56793148786e-05
-1.56793782666e-05
-1.56794331053e-05
-1.56794752996e-05
-1.56795018895e-05