/*--------------------------------*- C++ -*----------------------------------*\
  =========                 |
  \\      /  F ield         | OpenFOAM: The Open Source CFD Toolbox
   \\    /   O peration     | Website:  https://openfoam.org
    \\  /    A nd           | Version:  7
     \\/     M anipulation  |
\*---------------------------------------------------------------------------*/
FoamFile
{
    version     2.0;
    format      ascii;
    class       surfaceScalarField;
    location    "2.32";
    object      phi;
}
// * * * * * * * * * * * * * * * * * * * * * * * * * * * * * * * * * * * * * //

dimensions      [0 3 -1 0 0 0 0];

internalField   nonuniform List<scalar> 
65775
(
1.28749282482e-11
-2.25974887277e-09
7.65856954572e-11
-3.25452661644e-13
2.1379202035e-11
-2.38070356725e-09
8.90224645542e-11
2.50034033595e-11
-2.49141209179e-09
1.03474926673e-10
2.41426179393e-11
-2.58872786562e-09
1.18260220244e-10
1.91312448576e-11
-2.66818809247e-09
1.31738015371e-10
1.10344402027e-11
-2.72740753499e-09
1.42490769135e-10
1.03779834579e-12
-2.76485601376e-09
1.49451751497e-10
-9.52845748089e-12
-2.77879901109e-09
1.5189162383e-10
-1.93172801048e-11
-2.76482210263e-09
1.4934457423e-10
-2.70043516927e-11
-2.72732353104e-09
1.42281059148e-10
-3.1412575934e-11
-2.66805239487e-09
1.31431998306e-10
-3.15061945956e-11
-2.58853854123e-09
1.17865489047e-10
-2.70074359924e-11
-2.49121369431e-09
1.02997995345e-10
-1.75947820561e-11
-2.38050966081e-09
8.84624988027e-11
-2.25994894286e-09
7.59299647946e-11
-3.83780809169e-12
2.47146346356e-11
-4.42672847635e-09
7.47802930424e-11
-7.70451011546e-13
4.34376495299e-11
-4.66769337309e-09
8.77549355558e-11
5.40715625344e-11
-4.8899602897e-09
1.06836717899e-10
5.38765836641e-11
-5.08446039816e-09
1.28615551599e-10
4.33346023828e-11
-5.24402469316e-09
1.49687253744e-10
2.45609332897e-11
-5.36331256247e-09
1.67073642896e-10
5.59315206689e-13
-5.438863824e-09
1.7849990648e-10
-2.50870181678e-11
-5.46691484841e-09
1.82456565329e-10
-4.849063049e-11
-5.43888390366e-09
1.781771172e-10
-6.60806653147e-11
-5.36332335959e-09
1.66444341573e-10
-7.48760490693e-11
-5.24400973299e-09
1.48771333764e-10
-7.28461378743e-11
-5.08438696834e-09
1.2743759757e-10
-5.96749909117e-11
-4.88984722496e-09
1.05418854268e-10
-3.8176586251e-11
-4.66769208528e-09
8.60996093645e-11
-4.4275639447e-09
7.28681681919e-11
-1.10612394256e-11
2.21445163688e-11
-6.3802220618e-09
-3.3468293008e-11
-6.9335357369e-13
4.42639287226e-11
-6.73028071107e-09
-3.67387187774e-11
5.93198109623e-11
-7.05205967197e-09
-3.0056488114e-11
6.13172481101e-11
-7.33178370518e-09
-1.73333688979e-11
4.98869405589e-11
-7.56145741933e-09
-2.56917789365e-12
2.72653030082e-11
-7.73322785194e-09
1.06992836981e-11
-2.5713639333e-12
-7.84210806505e-09
1.973004639e-11
-3.4731702853e-11
-7.88247392799e-09
2.27784825629e-11
-6.37050222597e-11
-7.84230310941e-09
1.9221062546e-11
-8.46154983147e-11
-7.73357911495e-09
9.70637024349e-12
-9.35360313641e-11
-7.56192886742e-09
-4.01348691767e-12
-8.83421492847e-11
-7.33232156168e-09
-1.91889146261e-11
-6.95918122521e-11
-7.05262350094e-09
-3.22857911827e-11
-4.33299961355e-11
-6.73110720425e-09
-3.9332922154e-11
-6.38209231777e-09
-3.64507619365e-11
-1.73109076674e-11
8.28940014715e-12
-8.03663954179e-09
-2.1410292171e-10
-5.71424121425e-13
2.66106813261e-11
-8.47766846076e-09
-2.4503374679e-10
4.2415542361e-11
-8.87881415856e-09
-2.62417451145e-10
4.70781228377e-11
-9.22481246856e-09
-2.69833093631e-10
3.87066333209e-11
-9.50834564311e-09
-2.7103267198e-10
1.88898789456e-11
-9.72018947323e-09
-2.69376452022e-10
-8.485181228e-12
-9.85448632345e-09
-2.67514157917e-10
-3.83341994738e-11
-9.90421339953e-09
-2.67041413879e-10
-6.46818422879e-11
-9.85488569381e-09
-2.68163348588e-10
-8.24572843769e-11
-9.72095758496e-09
-2.70645452266e-10
-8.78325798367e-11
-9.50941895635e-09
-2.72880894887e-10
-7.93352457119e-11
-9.22610310365e-09
-2.72209831336e-10
-5.90445467352e-11
-8.88023492564e-09
-2.65273244557e-10
-3.56530018088e-11
-8.47954126926e-09
-2.48353023664e-10
-8.03970299325e-09
-2.17911949524e-10
-2.24237178778e-11
-1.40289044541e-11
-9.34148529053e-09
-4.40737276038e-10
-4.52157857902e-13
-5.94076474867e-12
-9.85053154794e-09
-5.06059485099e-10
7.03505054455e-12
-1.03068844876e-08
-5.54340081069e-10
1.42811230533e-11
-1.0697277111e-08
-5.88362894771e-10
1.21185786606e-11
-1.10160886339e-08
-6.11138161675e-10
8.61301231905e-13
-1.12539049246e-08
-6.25426815367e-10
-1.66879857277e-11
-1.14045719902e-08
-6.33478394824e-10
-3.63362460436e-11
-1.14603171747e-08
-6.36522497635e-10
-5.27915594652e-11
-1.14051907391e-08
-6.34216932256e-10
-6.18669853204e-11
-1.1255123631e-08
-6.26875997882e-10
-6.08124562768e-11
-1.10178383845e-08
-6.13254188741e-10
-4.94233559649e-11
-1.06994469606e-08
-5.91089713332e-10
-3.15507894692e-11
-1.03093515044e-08
-5.57619383993e-10
-1.79022902037e-11
-9.8536178287e-09
-5.09871121309e-10
-9.34578661394e-09
-4.45111187768e-10
-2.63301672462e-11
-4.19116296408e-11
-1.02696506365e-08
-6.86900408277e-10
-3.64581287402e-13
-4.91642158237e-11
-1.08220449162e-08
-7.88929051877e-10
-4.20532394672e-11
-1.13092111698e-08
-8.70461221555e-10
-3.25950717416e-11
-1.17224994161e-08
-9.33330399696e-10
-2.63042290013e-11
-1.20586569401e-08
-9.79615542852e-10
-2.4618927984e-11
-1.2308972748e-08
-1.0113273041e-09
-2.65893732017e-11
-1.24674199584e-08
-1.03020369015e-09
-2.98275542773e-11
-1.25259861405e-08
-1.03705240364e-09
-3.07073624187e-11
-1.24682225332e-08
-1.03098364861e-09
-2.68391447181e-11
-1.23105828414e-08
-1.0128649703e-09
-1.73102621727e-11
-1.20610069658e-08
-9.81870654956e-10
-3.65490595472e-12
-1.17254661442e-08
-9.36244715845e-10
8.46690909528e-12
-1.13126442167e-08
-8.73973775313e-10
6.92237403749e-12
-1.08262626566e-08
-7.93019320458e-10
-1.02751376414e-08
-6.9159895315e-10
-2.90887462667e-11
-7.28946481049e-11
-1.0821680882e-08
-9.29382866942e-10
-3.17296214646e-13
-9.90791310221e-11
-1.13932747894e-08
-1.06707289787e-09
-1.00110379818e-10
-1.18890690397e-08
-1.18092225382e-09
-8.89225210023e-11
-1.23063511799e-08
-1.27186271902e-09
-7.27781535435e-11
-1.26444443296e-08
-1.34103823634e-09
-5.51951318417e-11
-1.2895826238e-08
-1.3897053073e-09
-3.76166631632e-11
-1.30547995086e-08
-1.41909102652e-09
-2.0133086231e-11
-1.31134799063e-08
-1.42960408949e-09
-1.50437415489e-12
-1.30557617636e-08
-1.41988193024e-09
1.81885664736e-11
-1.28977805778e-08
-1.39127386596e-09
3.7474634949e-11
-1.26473318368e-08
-1.34335062555e-09
5.27560287543e-11
-1.23100501672e-08
-1.27485980641e-09
5.66456169733e-11
-1.18934155135e-08
-1.18453548138e-09
3.60857194004e-11
-1.13985403584e-08
-1.07127751722e-09
-1.08282550342e-08
-9.34212721467e-10
-3.08747503698e-11
-1.0521768368e-10
-1.10178609401e-08
-1.15020226191e-09
-2.92095082077e-13
-1.52608875204e-10
-1.15867462562e-08
-1.32047720431e-09
-1.63386236552e-10
-1.2072482091e-08
-1.46384060294e-09
-1.50972346507e-10
-1.24783467099e-08
-1.58045099274e-09
-1.24230398658e-10
-1.28061249708e-08
-1.67058324743e-09
-8.89632329707e-11
-1.30495979121e-08
-1.73477863612e-09
-4.93638807747e-11
-1.32034197574e-08
-1.77377010842e-09
-8.4513046669e-12
-1.32600824566e-08
-1.78760398672e-09
3.21490491155e-11
-1.32045054916e-08
-1.77456079803e-09
6.94290993272e-11
-1.30518208528e-08
-1.73635409746e-09
9.9169443551e-11
-1.28094418639e-08
-1.67290784043e-09
1.15502455113e-10
-1.24826455434e-08
-1.58346195737e-09
1.09458076129e-10
-1.20776063299e-08
-1.46746172919e-09
6.74969234293e-11
-1.15929236109e-08
-1.32468026855e-09
-1.10254434338e-08
-1.15502212494e-09
-3.19221232987e-11
-1.37915445029e-10
-1.08918626077e-08
-1.33700241991e-09
-2.80578452231e-13
-2.0788903409e-10
-1.14390521075e-08
-1.53589314613e-09
-2.29569216461e-10
-1.18997717945e-08
-1.70525311885e-09
-2.16420502477e-10
-1.22824113783e-08
-1.84459193944e-09
-1.7874290213e-10
-1.25907781746e-08
-1.95336734112e-09
-1.2475474747e-10
-1.28197410597e-08
-2.03141951742e-09
-6.16422548487e-11
-1.2964230141e-08
-2.07897670005e-09
4.35369569931e-12
-1.30172985915e-08
-2.09574371715e-09
6.84248617743e-11
-1.29654215052e-08
-2.07976202079e-09
1.24336249462e-10
-1.28221885107e-08
-2.03298835221e-09
1.64874284281e-10
-1.25944604589e-08
-1.95567990805e-09
1.81762092265e-10
-1.22872355675e-08
-1.84757930092e-09
1.64607781813e-10
-1.1905594876e-08
-1.70882935924e-09
9.98401777556e-11
-1.14460634871e-08
-1.54002558657e-09
-1.09003683542e-08
-1.3417215687e-09
-3.24734448272e-11
-1.7069353189e-10
-1.048507963e-08
-1.48229964478e-09
-2.6105099094e-13
-2.64252226409e-10
-1.09948389747e-08
-1.70568163097e-09
-2.97816134746e-10
-1.14191385856e-08
-1.89751291656e-09
-2.84386080928e-10
-1.17701343103e-08
-2.05672389602e-09
-2.35570716934e-10
-1.20528290147e-08
-2.18195603929e-09
-1.62135391451e-10
-1.22627363824e-08
-2.27231840002e-09
-7.44597591375e-11
-1.23949924567e-08
-2.3274882984e-09
1.779080922e-11
-1.24433540446e-08
-2.34683170148e-09
1.06397224741e-10
-1.23962797372e-08
-2.32826714419e-09
1.81691073409e-10
-1.22653846175e-08
-2.27387434864e-09
2.33264310395e-10
-1.20568344338e-08
-2.18424567953e-09
2.50291690328e-10
-1.17754349217e-08
-2.05966974314e-09
2.2107887867e-10
-1.14256154103e-08
-1.90101745551e-09
1.32537210428e-10
-1.10026554244e-08
-1.70970882573e-09
-1.04945128018e-08
-1.48686894249e-09
-3.27475802556e-11
-2.03785790094e-10
-9.84266496992e-09
-1.58217722313e-09
-2.34242917023e-13
-3.22042266915e-10
-1.03023673079e-08
-1.8261071348e-09
-3.68491729648e-10
-1.06821717842e-08
-2.03718536806e-09
-3.55111501752e-10
-1.09962960918e-08
-2.21374722449e-09
-2.94837867404e-10
-1.12495853224e-08
-2.3535511178e-09
-2.01197625914e-10
-1.14376582704e-08
-2.45490909026e-09
-8.79402631304e-11
-1.15558313614e-08
-2.51688543559e-09
3.16708201661e-11
-1.15987823518e-08
-2.53849913549e-09
1.45846871889e-10
-1.15572223695e-08
-2.51765834497e-09
2.41316496916e-10
-1.14405143957e-08
-2.45645141245e-09
3.042919377e-10
-1.12539253148e-08
-2.3558163308e-09
3.21186424812e-10
-1.10020803157e-08
-2.21664971617e-09
2.78972668902e-10
-1.06893155314e-08
-2.04061426557e-09
1.65600478378e-10
-1.03110152874e-08
-1.83001999245e-09
-9.85304583933e-09
-1.58657759599e-09
-3.29189303206e-11
-2.37789758757e-10
-9.01083158397e-09
-1.63492717589e-09
-1.89622907854e-13
-3.82399750398e-10
-9.41078620561e-09
-1.89572923737e-09
-4.42745795691e-10
-9.74151069119e-09
-2.12321823094e-09
-4.29407123833e-10
-1.00167103071e-08
-2.31497253086e-09
-3.57034491626e-10
-1.02391024289e-08
-2.46774801253e-09
-2.42208878178e-10
-1.04039788393e-08
-2.57898775147e-09
-1.02222451818e-10
-1.05071003723e-08
-2.64708437606e-09
4.59718279583e-11
-1.05442478021e-08
-2.67070324735e-09
1.86883048161e-10
-1.05086177952e-08
-2.6478531455e-09
3.03543032064e-10
-1.04070855312e-08
-2.58052076065e-09
3.78617989002e-10
-1.02438214217e-08
-2.46999420339e-09
3.9545220012e-10
-1.00230376762e-08
-2.31783629618e-09
3.39299405009e-10
-9.74939489338e-09
-2.12657362705e-09
1.99510983221e-10
-9.42036258652e-09
-1.89952541385e-09
-9.02224921836e-09
-1.63915181729e-09
-3.31008134065e-11
-2.74051630425e-10
-8.03512324871e-09
-1.6399257915e-09
-1.34530869033e-13
-4.47360957968e-10
-8.36887743208e-09
-1.91424162609e-09
-5.21926187338e-10
-8.65037595772e-09
-2.15572470553e-09
-5.0781375809e-10
-8.88758529607e-09
-2.36081372824e-09
-4.22263754828e-10
-9.07923922823e-09
-2.52514889254e-09
-2.85164517924e-10
-9.22062812881e-09
-2.64526728499e-09
-1.17296643595e-10
-9.30835066132e-09
-2.7188564855e-09
6.06373135423e-11
-9.3396160271e-09
-2.74423451773e-09
2.2945273626e-10
-9.31003426798e-09
-2.71962010446e-09
3.68432948898e-10
-9.22405221431e-09
-2.6467886085e-09
4.56733373406e-10
-9.08444315446e-09
-2.52737346694e-09
4.74389181712e-10
-8.89457292841e-09
-2.36363853919e-09
4.0404745952e-10
-8.65913000257e-09
-2.15900748168e-09
2.35573088923e-10
-8.37954528617e-09
-1.91791496558e-09
-8.04774363856e-09
-1.64395896521e-09
-3.32738998038e-11
-3.15763796704e-10
-6.95815409905e-09
-1.59685897859e-09
-4.98618836332e-14
-5.19003650757e-10
-7.22616662735e-09
-1.88199793823e-09
-6.05773843512e-10
-7.46351387919e-09
-2.135491297e-09
-5.89109689512e-10
-7.66516213149e-09
-2.3522107334e-09
-4.89363679241e-10
-7.82687758156e-09
-2.52673696774e-09
-3.29282022837e-10
-7.9450933771e-09
-2.65473045698e-09
-1.32915377951e-10
-8.01772304783e-09
-2.73317380061e-09
7.54469793657e-11
-8.04324175937e-09
-2.76006036125e-09
2.72804913558e-10
-8.01962770048e-09
-2.73392636247e-09
4.34838442504e-10
-7.94894871917e-09
-2.65622906036e-09
5.37440766039e-10
-7.83270388048e-09
-2.52892720444e-09
5.57756856069e-10
-7.67297859024e-09
-2.35498802846e-09
4.7529335581e-10
-7.47332906673e-09
-2.13869927737e-09
2.76962434944e-10
-7.23815837078e-09
-1.88553639643e-09
-6.97218069855e-09
-1.60065949332e-09
-3.35780922235e-11
-3.6448675199e-10
-1.50505772453e-09
3.58567196871e-16
-5.82163292818e-09
-5.9449219646e-10
-1.80024792664e-09
-6.035334492e-09
-6.91109652476e-10
-2.06379661266e-09
-6.23478287245e-09
-6.71587242019e-10
-2.29039433756e-09
-6.40295216708e-09
-5.57904081604e-10
-2.47370260114e-09
-6.53635781155e-09
-3.74722748602e-10
-2.60853550846e-09
-6.63321384946e-09
-1.49143691846e-10
-2.69117301888e-09
-6.6922032507e-09
9.0537502628e-11
-2.71930982897e-09
-6.7126498518e-09
3.1716424561e-10
-2.69190158703e-09
-6.69440724987e-09
5.02410824559e-10
-2.60998586384e-09
-6.6376534905e-09
6.19101499053e-10
-2.47582398245e-09
-6.5430388326e-09
6.42452855265e-10
-2.29308977397e-09
-6.41187632249e-09
5.50338356648e-10
-2.06690477867e-09
-6.24594962674e-09
3.25363041122e-10
-1.8036669393e-09
-6.0489090564e-09
-1.50849733368e-09
-3.38875304459e-11
-5.83740757353e-09
-8.47187577465e-12
1.69002435123e-10
-8.43729706834e-11
-9.23023428085e-14
-1.47756694222e-11
1.86650620383e-10
-9.21681789571e-11
-1.78884319796e-11
2.03542692912e-10
-9.789033079e-11
-1.79115239599e-11
2.19460584741e-10
-1.0202410059e-10
-1.49794251971e-11
2.33077450762e-10
-1.04898246671e-10
-9.68776902808e-12
2.43554519827e-10
-1.06775500069e-10
-2.85216033186e-12
2.50217450165e-10
-1.07875348423e-10
4.49851173766e-12
2.52639224984e-10
-1.08297591493e-10
1.12694980873e-11
2.50325726669e-10
-1.07912698629e-10
1.64552777385e-11
2.43801089236e-10
-1.06849021735e-10
1.92673141256e-11
2.3349496756e-10
-1.05006060584e-10
1.91355972875e-11
2.20034404863e-10
-1.02164840884e-10
1.59155748108e-11
2.04161753848e-10
-9.80656825972e-11
9.47989331156e-12
1.87169779627e-10
-9.23907788831e-11
1.69325901693e-10
-8.46882019704e-11
6.6096614706e-13
-1.84375999876e-11
4.90711294448e-10
-2.28755660552e-10
-6.4446301763e-13
-3.3278389266e-11
5.37490781224e-10
-2.49669826949e-10
-4.13585318371e-11
5.81525702551e-10
-2.64642652698e-10
-4.19509574696e-11
6.22318853201e-10
-2.75039403459e-10
-3.53730774776e-11
6.57097209779e-10
-2.81930745118e-10
-2.29974074731e-11
6.8378243896e-10
-2.86214159924e-10
-6.82286464129e-12
7.00718748176e-10
-2.88632906707e-10
1.06254111699e-11
7.06876798225e-10
-2.89569426413e-10
2.66607175049e-11
7.00931354712e-10
-2.88739488388e-10
3.88310273001e-11
6.84253873492e-10
-2.8642370634e-10
4.52165939228e-11
6.57892977238e-10
-2.82238122491e-10
4.45125668887e-11
6.2340093606e-10
-2.75440758552e-10
3.63513062598e-11
5.82677724638e-10
-2.65142573515e-10
2.13157418783e-11
5.38413242165e-10
-2.50303337052e-10
4.91222251714e-10
-2.29621244999e-10
1.72588715756e-12
-2.34981202876e-11
8.59504034834e-10
-3.78830952474e-10
-7.97194343253e-13
-4.28540833326e-11
9.34728399089e-10
-4.15803589401e-10
-5.38949347687e-11
1.00456820631e-09
-4.4333254008e-10
-5.49847373037e-11
1.0682172334e-09
-4.63257591126e-10
-4.64268009984e-11
1.12218741054e-09
-4.77062828861e-10
-2.99585493487e-11
1.16344401813e-09
-4.86019470248e-10
-8.36683541682e-12
1.18963513886e-09
-4.91182866335e-10
1.49607452264e-11
1.19914855377e-09
-4.93119304898e-10
3.63624380568e-11
1.18986406857e-09
-4.91353664941e-10
5.25145937942e-11
1.16394968106e-09
-4.86353680042e-10
6.07186522519e-11
1.12303295223e-09
-4.77553707873e-10
5.93000240928e-11
1.06934103056e-09
-4.63898649506e-10
4.79120198234e-11
1.00572820776e-09
-4.44127868901e-10
2.80245983011e-11
9.35595414088e-10
-4.16798716116e-10
8.59919746308e-10
-3.8015400231e-10
2.87704303159e-12
-2.43810323479e-11
1.20883626275e-09
-5.38865935363e-10
-9.93424811785e-13
-4.51594535309e-11
1.30461456607e-09
-5.95276801763e-10
-5.75729684359e-11
1.39234364353e-09
-6.39004777535e-10
-5.9193455214e-11
1.47090343138e-09
-6.71965023842e-10
-5.01025250563e-11
1.53699245399e-09
-6.95735947358e-10
-3.21212479492e-11
1.58724618502e-09
-7.11722841128e-10
-8.38464493673e-12
1.61914789416e-09
-7.211601092e-10
1.73172085203e-11
1.63073353422e-09
-7.24622522031e-10
4.08357092661e-11
1.61932883458e-09
-7.21388008846e-10
5.84347244983e-11
1.58766711451e-09
-7.12171971362e-10
6.70646938077e-11
1.53772092936e-09
-6.96394884215e-10
6.49578861451e-11
1.47187496369e-09
-6.72822901749e-10
5.19875988031e-11
1.39330901591e-09
-6.40061273679e-10
3.04156495987e-11
1.30522895574e-09
-5.96577322292e-10
1.20890700321e-09
-5.40546596687e-10
3.90992617177e-12
-2.20151241841e-11
1.49224515423e-09
-7.01658422519e-10
-1.21079715872e-12
-4.18745987541e-11
1.59739884547e-09
-7.7991256626e-10
-5.43706498924e-11
1.69206939345e-09
-8.42523864449e-10
-5.64875229128e-11
1.77498825015e-09
-8.91166385637e-10
-4.79712589211e-11
1.84393957192e-09
-9.27244447751e-10
-3.0512431258e-11
1.89597411048e-09
-9.52086325281e-10
-7.20104669339e-12
1.92895624673e-09
-9.66935719268e-10
1.81186079341e-11
1.94094346141e-09
-9.72309124142e-10
4.1201924729e-11
1.92904010971e-09
-9.67217719558e-10
5.82497356107e-11
1.89620298279e-09
-9.52641805407e-10
6.6238287082e-11
1.84436690832e-09
-9.2805715084e-10
6.35181961281e-11
1.77556320403e-09
-8.92218960041e-10
5.02925639683e-11
1.69257091516e-09
-8.43807549797e-10
2.94252545458e-11
1.59754781367e-09
-7.81465726784e-10
1.49185437445e-09
-7.03612933672e-10
4.85599367274e-12
-1.72829659804e-11
1.68420740732e-09
-8.60847666708e-10
-1.39785520267e-12
-3.45383208288e-11
1.78737156041e-09
-9.6249002136e-10
-4.61190564812e-11
1.87811700182e-09
-1.04581195358e-09
-4.86408587192e-11
1.95541778323e-09
-1.11200950112e-09
-4.14840530151e-11
2.01865934975e-09
-1.16209474513e-09
-2.60373953398e-11
2.06589603473e-09
-1.19713802992e-09
-5.09769219947e-12
2.09573848122e-09
-1.21825051187e-09
1.77418389653e-11
2.10661931881e-09
-1.22581747597e-09
3.84533756345e-11
2.09572651136e-09
-1.21858394179e-09
5.34739512147e-11
2.0659323226e-09
-1.19779331088e-09
6.00556634079e-11
2.01879876655e-09
-1.16304958508e-09
5.68332085683e-11
1.95562130829e-09
-1.11323769641e-09
4.43780127982e-11
1.8781966566e-09
-1.04729269061e-09
2.59375130895e-11
1.7870869931e-09
-9.64250731314e-10
1.68334006559e-09
-8.6301179057e-10
5.73308422257e-12
-1.09974862633e-11
1.77758403295e-09
-1.01082745081e-09
-1.53548122048e-12
-2.45075757982e-11
1.86977867396e-09
-1.13665084065e-09
-3.44231202023e-11
1.9481817422e-09
-1.24175948703e-09
-3.7219175011e-11
2.01245964775e-09
-1.3267056576e-09
-3.19271457887e-11
2.06378614568e-09
-1.39193704618e-09
-1.95313977584e-11
2.10154081818e-09
-1.43811171309e-09
-2.35584497185e-12
2.12527301405e-09
-1.46608171597e-09
1.64900508047e-11
2.13398555472e-09
-1.47603354339e-09
3.34430739118e-11
2.12517613945e-09
-1.46646451312e-09
4.54071570298e-11
2.101399667e-09
-1.43886191855e-09
5.00857402039e-11
2.06364802466e-09
-1.39302491809e-09
4.6502513176e-11
2.01230010693e-09
-1.32809378619e-09
3.55823422349e-11
1.94786532928e-09
-1.24341209758e-09
2.07340732468e-11
1.86912013831e-09
-1.13858269924e-09
1.77637142854e-09
-1.01315158958e-09
6.53986759806e-12
-3.83349729931e-12
1.77896716954e-09
-1.14664630996e-09
-1.61574300957e-12
-1.28973973821e-11
1.85455427929e-09
-1.29677606805e-09
-2.06279794329e-11
1.91555653715e-09
-1.4240819086e-09
-2.35533950881e-11
1.96277346756e-09
-1.52837050587e-09
-2.04083466176e-11
1.99902141217e-09
-1.60939294059e-09
-1.17259402651e-11
2.02500812896e-09
-1.66726299642e-09
7.63685245048e-13
2.04121130242e-09
-1.70245792174e-09
1.46002880203e-11
2.04724515238e-09
-1.71490512779e-09
2.68752742985e-11
2.04105910276e-09
-1.7028885097e-09
3.512495737e-11
2.02475099927e-09
-1.66810421027e-09
3.76275825993e-11
1.99870450538e-09
-1.61060652314e-09
3.38481215115e-11
1.96239207458e-09
-1.52990585446e-09
2.50068949456e-11
1.91500847351e-09
-1.4258862533e-09
1.44890748253e-11
1.85370124645e-09
-1.2988512188e-09
1.77755988866e-09
-1.14909272373e-09
7.26053120806e-12
3.62347774867e-12
1.70340120915e-09
-1.26386766582e-09
-1.65372059967e-12
-6.21313594407e-13
1.76024090271e-09
-1.43780845195e-09
-5.83102810162e-12
1.80215843664e-09
-1.5871129129e-09
-8.73153859274e-12
1.83146280708e-09
-1.71079379699e-09
-7.84400190404e-12
1.85222811496e-09
-1.80780529837e-09
-3.23229943512e-12
1.86630056692e-09
-1.8776031543e-09
4.0390494368e-12
1.87492357786e-09
-1.920183686e-09
1.22697648863e-11
1.87825057909e-09
-1.93516301816e-09
1.93364626556e-11
1.8747396743e-09
-1.92066040041e-09
2.35200831623e-11
1.86597487274e-09
-1.87853152621e-09
2.37497269033e-11
1.85180735417e-09
-1.80913807612e-09
1.99474638274e-11
1.83096280791e-09
-1.71246581475e-09
1.35516488233e-11
1.80152103021e-09
-1.58905321818e-09
7.76635167521e-12
1.7593669466e-09
-1.44000703732e-09
1.70204291463e-09
-1.26640839705e-09
7.88602847877e-12
1.09122063571e-11
1.56987648201e-09
-1.35841354351e-09
-1.65089357439e-12
1.15968111887e-11
1.60855270939e-09
-1.55506048649e-09
9.08844953804e-12
1.63236213285e-09
-1.72559110795e-09
6.35324174129e-12
1.64534303811e-09
-1.86821442893e-09
5.00229867144e-12
1.65233165283e-09
-1.98100384814e-09
5.43570417773e-12
1.65596364111e-09
-2.06265639761e-09
7.28501659199e-12
1.65797758789e-09
-2.11259240209e-09
9.67283669409e-12
1.65894149111e-09
-2.13007284179e-09
1.13280398738e-11
1.65779190385e-09
-2.11311360512e-09
1.13433829574e-11
1.65563100511e-09
-2.0636689138e-09
9.33334298632e-12
1.6519068634e-09
-1.98245080274e-09
5.67469192564e-12
1.64485910525e-09
-1.87001579091e-09
1.93842390129e-12
1.6317968811e-09
-1.72765717447e-09
1.03932761268e-12
1.60784045516e-09
-1.55736967482e-09
1.56875123114e-09
-1.3610286989e-09
8.40082592141e-12
1.7667511579e-11
1.39773796204e-09
-1.42641913935e-09
-1.62701443547e-12
2.31907057251e-11
1.42066676872e-09
-1.64405464031e-09
2.34395246035e-11
1.429136335e-09
-1.83451045295e-09
2.09857327538e-11
1.42895537735e-09
-1.99517982254e-09
1.75073558129e-11
1.425194376e-09
-2.12316989101e-09
1.38516719346e-11
1.42083349981e-09
-2.21632836144e-09
1.03560906249e-11
1.41783281407e-09
-2.27341490131e-09
6.96766688098e-12
1.41698787943e-09
-2.29330246148e-09
3.28719465569e-12
1.41766949669e-09
-2.27397821262e-09
-7.71790491185e-13
1.42054662778e-09
-2.21742127557e-09
-4.9005684918e-12
1.42484039108e-09
-2.12472593215e-09
-8.2776982308e-12
1.42859185617e-09
-1.99710334651e-09
-9.26551153012e-12
1.42877503163e-09
-1.83669262458e-09
-5.3349272355e-12
1.42027040452e-09
-1.64646357138e-09
1.39705927455e-09
-1.42909544591e-09
8.8068314968e-12
2.36295838523e-11
1.20460161864e-09
-1.4641155613e-09
-1.57743140804e-12
3.37576658857e-11
1.21499441247e-09
-1.70042626864e-09
3.67165769228e-11
1.21179353588e-09
-1.90906959019e-09
3.46114580615e-11
1.20239926328e-09
-2.08652718817e-09
2.91587567921e-11
1.19154172426e-09
-2.22883302099e-09
2.16639697889e-11
1.18210022308e-09
-2.33290836329e-09
1.31311472645e-11
1.17592716843e-09
-2.39678547336e-09
4.30166331181e-12
1.17393789692e-09
-2.41893073337e-09
-4.40852837503e-12
1.17580866044e-09
-2.39738745363e-09
-1.2295239764e-11
1.18190157458e-09
-2.33407509196e-09
-1.83816267466e-11
1.19133161756e-09
-2.23049037853e-09
-2.13936149073e-11
1.20224715509e-09
-2.08856577199e-09
-1.96516573964e-11
1.21174079106e-09
-1.91136084325e-09
-1.10816358911e-11
1.21503339429e-09
-1.70292638252e-09
1.20449581421e-09
-1.46684250025e-09
9.10303611778e-12
2.86437418951e-11
1.00503432909e-09
-1.46774438741e-09
-1.51339762136e-12
4.31264971293e-11
1.00603242053e-09
-1.71996127369e-09
4.86466451077e-11
9.951526259e-10
-1.94479602714e-09
4.6845403497e-11
9.80748056378e-10
-2.13752421728e-09
3.95678101078e-11
9.66545941863e-10
-2.29300800171e-09
2.85737846489e-11
9.54896428885e-10
-2.40720273104e-09
1.55205886659e-11
9.47411429999e-10
-2.47737344493e-09
1.7986363739e-12
9.44904869561e-10
-2.50157772814e-09
-1.14292932667e-11
9.47361171006e-10
-2.47800902908e-09
-2.28035714514e-11
9.54835966824e-10
-2.40843486133e-09
-3.07006477169e-11
9.66538526435e-10
-2.29475758208e-09
-3.33824772042e-11
9.80884556727e-10
-2.13967035453e-09
-2.90354861481e-11
9.95505725841e-10
-1.94718961694e-09
-1.60513397797e-11
1.00660795743e-09
-1.72254007931e-09
1.00563562457e-09
-1.47050202846e-09
9.29802379908e-12
3.28003352366e-11
8.1008930574e-10
-1.4335169242e-09
-1.4039803665e-12
5.14941936996e-11
8.04123717818e-10
-1.69893663613e-09
5.92181533285e-11
7.89738996562e-10
-1.93793721099e-09
5.74485776224e-11
7.74361224147e-10
-2.14419701007e-09
4.84047592608e-11
7.60199023748e-10
-2.31147287541e-09
3.43587164718e-11
7.48906789774e-10
-2.4347806817e-09
1.74320247389e-11
7.41675481966e-10
-2.51061072382e-09
-4.08129878487e-13
7.39249236735e-10
-2.53662634795e-09
-1.75068821633e-11
7.41720465917e-10
-2.51127133494e-09
-3.19291519078e-11
7.49035736541e-10
-2.43606305764e-09
-4.15705930152e-11
7.60477647178e-10
-2.31329720077e-09
-4.41821874581e-11
7.7487785701e-10
-2.14643734269e-09
-3.75770377115e-11
7.90564370398e-10
-1.94042584247e-09
-2.02997927418e-11
8.05317245467e-10
-1.70157626279e-09
8.11465219723e-10
-1.43626305126e-09
9.4229401691e-12
3.63420031676e-11
-1.35839864334e-09
-1.22785097836e-12
6.28141065413e-10
5.96058599388e-11
-1.63582760211e-09
6.16313641573e-10
6.8609755653e-11
-1.88649386433e-09
6.03297353918e-10
6.62889152986e-11
-2.10401094988e-09
5.90197718225e-10
5.54928375611e-11
-2.28123192544e-09
5.78420134531e-10
3.88533253461e-11
-2.41229205988e-09
5.6919983112e-10
1.88545630259e-11
-2.49292346265e-09
5.63350022701e-10
-2.24995768346e-12
-2.52042495918e-09
5.61387937513e-10
-2.24155992891e-11
-2.49359272418e-09
5.63527469354e-10
-3.9422405199e-11
-2.41359395507e-09
5.69578837105e-10
-5.07987358056e-11
-2.28309092598e-09
5.79062629793e-10
-5.39376934219e-11
-2.10630700507e-09
5.91175963047e-10
-4.59861692306e-11
-1.88904946052e-09
6.04702788812e-10
-2.40483481558e-11
-1.63853607024e-09
6.18196282839e-10
-1.36100670862e-09
9.51389318731e-12
6.30365265727e-10
3.97718331002e-12
-5.64742773728e-11
-3.19340093899e-11
-3.41273815643e-13
5.91931225927e-12
-6.30118800508e-11
-3.15903184462e-11
6.62019298522e-12
-6.98035559183e-11
-2.93328987188e-11
6.30146719003e-12
-7.60576018909e-11
-2.61270443602e-11
5.0839713316e-12
-8.13928558809e-11
-2.27537915552e-11
3.18902663106e-12
-8.5432177591e-11
-1.98581570814e-11
8.8450467434e-13
-8.79481367677e-11
-1.79301776502e-11
-1.55066956021e-12
-8.88027916746e-11
-1.72745538162e-11
-3.80874139345e-12
-8.78335368878e-11
-1.79722126879e-11
-5.61003835945e-12
-8.52219058609e-11
-1.9941311055e-11
-6.70326089423e-12
-8.11303853489e-11
-2.28765893526e-11
-6.8873081398e-12
-7.57781893879e-11
-2.62880328545e-11
-6.01731790597e-12
-6.94815162992e-11
-2.95326088693e-11
-3.92725561902e-12
-6.2715948694e-11
-3.18401300433e-11
-5.62374879614e-11
-3.22785140589e-11
-1.70349105269e-13
9.33305138584e-12
-1.28009625957e-10
-1.66436725463e-10
-7.93970686915e-13
1.45009844666e-11
-1.41300796847e-10
-1.77440102663e-10
1.66046769234e-11
-1.54808164571e-10
-1.82699401796e-10
1.59955151746e-11
-1.67148539867e-10
-1.8420652216e-10
1.30087304769e-11
-1.77548553162e-10
-1.83575061929e-10
8.21611174521e-12
-1.85370119145e-10
-1.82142396557e-10
2.33082959737e-12
-1.90234392882e-10
-1.80952026914e-10
-3.90123717224e-12
-1.91882695733e-10
-1.80606579995e-10
-9.66662707955e-12
-1.89979936647e-10
-1.81076895677e-10
-1.42214857324e-11
-1.84892994023e-10
-1.82389248573e-10
-1.68965993949e-11
-1.76912980216e-10
-1.83939088386e-10
-1.71676477242e-11
-1.66406848902e-10
-1.846827061e-10
-1.4677056253e-11
-1.53957036268e-10
-1.83288271252e-10
-9.14711362036e-12
-1.40498895038e-10
-1.7817153419e-10
-1.27404389622e-10
-1.6740503036e-10
-3.06873127487e-13
1.26690189504e-11
-1.89118423733e-10
-3.29983219508e-10
-9.81278789326e-13
2.02401770884e-11
-2.06935817552e-10
-3.58405350828e-10
2.35713362237e-11
-2.24744147219e-10
-3.77414295177e-10
2.29368625938e-11
-2.40984957543e-10
-3.89462534006e-10
1.88153750491e-11
-2.54568519064e-10
-3.96557180506e-10
1.20063445195e-11
-2.64726688282e-10
-4.00395855794e-10
3.53675155574e-12
-2.71012274457e-10
-4.02346393633e-10
-5.47231223554e-12
-2.73139077091e-10
-4.03150669876e-10
-1.3801772543e-11
-2.70669872433e-10
-4.02550546049e-10
-2.03365037665e-11
-2.64082160109e-10
-4.00798304783e-10
-2.40917909299e-11
-2.53704975429e-10
-3.97147883817e-10
-2.43130798227e-11
-2.39981550073e-10
-3.90230274771e-10
-2.05257641568e-11
-2.2363455705e-10
-3.7835553404e-10
-1.25183106887e-11
-2.05857308074e-10
-3.59557474584e-10
-1.88242572233e-10
-3.31468535188e-10
-4.6677739601e-13
1.45113834463e-11
-2.38677672539e-10
-5.03284579394e-10
-1.05590675113e-12
2.36500969682e-11
-2.59431801978e-10
-5.52576377441e-10
2.79151767998e-11
-2.79664577805e-10
-5.89057000269e-10
2.73986613129e-11
-2.97882338709e-10
-6.15226836761e-10
2.26228700645e-11
-3.12972602017e-10
-6.33161223084e-10
1.45302468659e-11
-3.24182856959e-10
-6.44672071111e-10
4.35682780347e-12
-3.31102626074e-10
-6.51277286426e-10
-6.50046750532e-12
-3.33433344043e-10
-6.53749108942e-10
-1.6525807132e-11
-3.30686505488e-10
-6.51553793935e-10
-2.43320976185e-11
-3.23394191999e-10
-6.45216153332e-10
-2.87202922921e-11
-3.11892957757e-10
-6.33957106948e-10
-2.87898519634e-11
-2.96603254409e-10
-6.16255792223e-10
-2.40360154035e-11
-2.78256336078e-10
-5.90307768474e-10
-1.44279263152e-11
-2.58062888504e-10
-5.5408356396e-10
-2.37550899409e-10
-5.05176469479e-10
-5.82254388565e-13
1.51898682814e-11
-2.75876108517e-10
-6.79027077274e-10
-1.06092839628e-12
2.51586758497e-11
-2.98126760564e-10
-7.5164871459e-10
3.00315052364e-11
-3.19208386638e-10
-8.08346176749e-10
2.96921318263e-11
-3.37862711904e-10
-8.51341711205e-10
2.46423686874e-11
-3.5312010267e-10