/*--------------------------------*- C++ -*----------------------------------*\
  =========                 |
  \\      /  F ield         | OpenFOAM: The Open Source CFD Toolbox
   \\    /   O peration     | Website:  https://openfoam.org
    \\  /    A nd           | Version:  7
     \\/     M anipulation  |
\*---------------------------------------------------------------------------*/
FoamFile
{
    version     2.0;
    format      ascii;
    class       volScalarField;
    location    "0.48";
    object      p;
}
// * * * * * * * * * * * * * * * * * * * * * * * * * * * * * * * * * * * * * //

dimensions      [0 2 -2 0 0 0 0];

internalField   nonuniform List<scalar> 
22500
(
3.44325659869e-05
3.44282114465e-05
3.44261121508e-05
3.44235313231e-05
3.4421455968e-05
3.44198609083e-05
3.44188819743e-05
3.44185729965e-05
3.44189740617e-05
3.44200417109e-05
3.44217209868e-05
3.44238659559e-05
3.44265013446e-05
3.44286115677e-05
3.4432951169e-05
3.43839273108e-05
3.43771224312e-05
3.43729257602e-05
3.43685029168e-05
3.43649283664e-05
3.43622256913e-05
3.43605694675e-05
3.43600348269e-05
3.43606642087e-05
3.43624119144e-05
3.43652007494e-05
3.43688481567e-05
3.43733255845e-05
3.43775346862e-05
3.43843259737e-05
3.43373594329e-05
3.43283236511e-05
3.43223744993e-05
3.43163656937e-05
3.43115209278e-05
3.43078798728e-05
3.4305650221e-05
3.43049221278e-05
3.43057408041e-05
3.43080578013e-05
3.43117805121e-05
3.43166951683e-05
3.43227560659e-05
3.43287196352e-05
3.43377497463e-05
3.42960466798e-05
3.4285195917e-05
3.42779065445e-05
3.4270709349e-05
3.42649187196e-05
3.42605864306e-05
3.42579359478e-05
3.42570651107e-05
3.42580201095e-05
3.42607517529e-05
3.42651593854e-05
3.42710147118e-05
3.42782615304e-05
3.428556716e-05
3.42964227052e-05
3.42577798977e-05
3.42453977621e-05
3.42370166379e-05
3.42288966137e-05
3.42223732632e-05
3.42175137479e-05
3.42145440392e-05
3.42135651738e-05
3.42146219557e-05
3.42176667343e-05
3.42225958381e-05
3.42291790769e-05
3.4237346255e-05
3.42457447826e-05
3.42581389246e-05
3.42220197331e-05
3.42083832531e-05
3.41991265454e-05
3.41903117251e-05
3.41832380505e-05
3.417798991e-05
3.41747865635e-05
3.41737284001e-05
3.41748580573e-05
3.41781304143e-05
3.41834423997e-05
3.41905713476e-05
3.41994300227e-05
3.42087063318e-05
3.42223616854e-05
3.41888635226e-05
3.41742561713e-05
3.41643215953e-05
3.41550206938e-05
3.4147561769e-05
3.41420488808e-05
3.4138687865e-05
3.41375760623e-05
3.41387533121e-05
3.41421775525e-05
3.41477489945e-05
3.4155258943e-05
3.41646008251e-05
3.41745557602e-05
3.41891885723e-05
3.41582805472e-05
3.41429669161e-05
3.41325244407e-05
3.41229145609e-05
3.41152097695e-05
3.41095352248e-05
3.4106079498e-05
3.41049353092e-05
3.41061392327e-05
3.4109652684e-05
3.4115380932e-05
3.41231327889e-05
3.41327809823e-05
3.4143244755e-05
3.41585901778e-05
3.41301296845e-05
3.41143470179e-05
3.41035403989e-05
3.40937695773e-05
3.40859359238e-05
3.40801846174e-05
3.40766861252e-05
3.40755271135e-05
3.4076740691e-05
3.40802919903e-05
3.40860926108e-05
3.40939700372e-05
3.41037767839e-05
3.41146058673e-05
3.41304251229e-05
3.41042438988e-05
3.40882050063e-05
3.40771624107e-05
3.40673583066e-05
3.40594971871e-05
3.40537417854e-05
3.40502449088e-05
3.40490860468e-05
3.40502948594e-05
3.40538401864e-05
3.40596410575e-05
3.40675430441e-05
3.40773812887e-05
3.40884475721e-05
3.41045284896e-05
3.40804519878e-05
3.40643458115e-05
3.40531920415e-05
3.40434698855e-05
3.40356739193e-05
3.40299800073e-05
3.4026524855e-05
3.40253797589e-05
3.40265707977e-05
3.40300705805e-05
3.40358067172e-05
3.40436411391e-05
3.40533960098e-05
3.40645748165e-05
3.40807279335e-05
3.4058555973e-05
3.40425686283e-05
3.40314437491e-05
3.40219135712e-05
3.40142704037e-05
3.40087000516e-05
3.40053247502e-05
3.40042065834e-05
3.40053672141e-05
3.40087840342e-05
3.40143937941e-05
3.40220735478e-05
3.40316354127e-05
3.40427866952e-05
3.40588249867e-05
3.40382583251e-05
3.40226634416e-05
3.40117513258e-05
3.40025208091e-05
3.3995114786e-05
3.39897298852e-05
3.39864738245e-05
3.39853956304e-05
3.39865134724e-05
3.3989808161e-05
3.39952304555e-05
3.40026715894e-05
3.40119333017e-05
3.40228734659e-05
3.40385227731e-05
3.40192716365e-05
3.40044219382e-05
3.39938988986e-05
3.39850774949e-05
3.39780067302e-05
3.39728888089e-05
3.39698039018e-05
3.39687847504e-05
3.39698410515e-05
3.39729624613e-05
3.39781160833e-05
3.3985221366e-05
3.39940738946e-05
3.40046269968e-05
3.40195337302e-05
3.40024237617e-05
3.39872348166e-05
3.39773264372e-05
3.39690221734e-05
3.39624472445e-05
3.3957735796e-05
3.39549122615e-05
3.39539816105e-05
3.39549473721e-05
3.39578053967e-05
3.39625511606e-05
3.39691602147e-05
3.39774972891e-05
3.39874376369e-05
3.40026777594e-05
2.78649031444e-05
2.78661410105e-05
2.78669705275e-05
2.78677350937e-05
2.78684009364e-05
2.78689088686e-05
2.78692194926e-05
2.78693008824e-05
2.78691434775e-05
2.786876227e-05
2.7868196547e-05
2.78674944011e-05
2.78667083773e-05
2.78658829201e-05
2.78646576956e-05
2.78701529761e-05
2.78716442025e-05
2.78727294428e-05
2.78737283006e-05
2.78745872741e-05
2.78752388901e-05
2.78756383725e-05
2.78757499036e-05
2.78755615841e-05
2.787509085e-05
2.78743809201e-05
2.78734851252e-05
2.78724676743e-05
2.78713854579e-05
2.78699087298e-05
2.78766377159e-05
2.78786610287e-05
2.78802078735e-05
2.78816460645e-05
2.78828791736e-05
2.78838163451e-05
2.78843955149e-05
2.78845690812e-05
2.7884320488e-05
2.78836716386e-05
2.78826769456e-05
2.78814059923e-05
2.78799494766e-05
2.78784029236e-05
2.78763941749e-05
2.78851248252e-05
2.78880495191e-05
2.78903388306e-05
2.78924694267e-05
2.78942929123e-05
2.78956804209e-05
2.78965426101e-05
2.78968137085e-05
2.7896470475e-05
2.7895541136e-05
2.78940974084e-05
2.78922351204e-05
2.78900849815e-05
2.78877939966e-05
2.78848824377e-05
2.78961109593e-05
2.79002478012e-05
2.79034971684e-05
2.79065061095e-05
2.79090716774e-05
2.79110207575e-05
2.79122337077e-05
2.7912625224e-05
2.79121650006e-05
2.79108880045e-05
2.79088846692e-05
2.79062804328e-05
2.79032505224e-05
2.78999976526e-05
2.78958715001e-05
2.79094111491e-05
2.7914955839e-05
2.79192743293e-05
2.79232451142e-05
2.79266130433e-05
2.79291641944e-05
2.79307508286e-05
2.79312703912e-05
2.7930686309e-05
2.79290393996e-05
2.79264366399e-05
2.79230306629e-05
2.79190380068e-05
2.79147126031e-05
2.79091776745e-05
2.79245677289e-05
2.79315908349e-05
2.79369913365e-05
2.79419146355e-05
2.79460665577e-05
2.79492002777e-05
2.79511459916e-05
2.79517883476e-05
2.79510862125e-05
2.79490845025e-05
2.79459024184e-05
2.79417137598e-05
2.79367682225e-05
2.79313578088e-05
2.79243421562e-05
2.79410596635e-05
2.79495229244e-05
2.79559405911e-05
2.79617347782e-05
2.79665931617e-05
2.79702459506e-05
2.79725090929e-05
2.79732598673e-05
2.79724544696e-05
2.79701400242e-05
2.79664424552e-05
2.79615491062e-05
2.79557322645e-05
2.79493023307e-05
2.79408431298e-05
2.79583755198e-05
2.79681522029e-05
2.79754658645e-05
2.79820009927e-05
2.79874498346e-05
2.79915304052e-05
2.79940524575e-05
2.79948915348e-05
2.79940031513e-05
2.79914346636e-05
2.798731313e-05
2.79818315e-05
2.7975273738e-05
2.79679456886e-05
2.79581702312e-05
2.7976050394e-05
2.79869464686e-05
2.79949990071e-05
2.80021176217e-05
2.80080205764e-05
2.80124236828e-05
2.80151379595e-05
2.80160424271e-05
2.801509395e-05
2.80123380831e-05
2.80078978928e-05
2.80019644863e-05
2.79948235415e-05
2.79867549153e-05
2.79758571945e-05
2.79936797128e-05
2.80054552548e-05
2.80140708096e-05
2.80216068555e-05
2.80278224444e-05
2.80324396296e-05
2.80352776999e-05
2.80362240514e-05
2.80352387582e-05
2.80323637369e-05
2.8027713292e-05
2.80214697811e-05
2.80139121295e-05
2.80052794257e-05
2.79935000268e-05
2.80109143752e-05
2.80233050055e-05
2.80323068049e-05
2.80401034401e-05
2.80464973326e-05
2.80512249553e-05
2.80541212197e-05
2.80550868378e-05
2.8054086935e-05
2.80511580063e-05
2.8046400684e-05
2.80399814515e-05
2.80321643467e-05
2.80231453019e-05
2.80107495184e-05
2.80274447009e-05
2.80401991705e-05
2.80494343865e-05
2.80573562883e-05
2.80638064028e-05
2.80685479307e-05
2.80714404401e-05
2.80724040919e-05
2.80714102349e-05
2.80684887894e-05
2.80637208861e-05
2.8057247881e-05
2.80493069863e-05
2.80400549178e-05
2.80272945595e-05
2.80431666e-05
2.80561064306e-05
2.80653960864e-05
2.80732926682e-05
2.80796538192e-05
2.80842931922e-05
2.80871094973e-05
2.80880456885e-05
2.80870827368e-05
2.80842407153e-05
2.80795775819e-05
2.80731959569e-05
2.80652821168e-05
2.80559772692e-05
2.80430304826e-05
2.80590220883e-05
2.80711605255e-05
2.8080225332e-05
2.80878840584e-05
2.80939462342e-05
2.80983244721e-05
2.81009666882e-05
2.81018432191e-05
2.81009428578e-05
2.80982776671e-05
2.80938780947e-05
2.80877973656e-05
2.80801233325e-05
2.80710462665e-05
2.80588996619e-05
2.84843489231e-05
2.8483839258e-05
2.84830974308e-05
2.84822925573e-05
2.84815358247e-05
2.84809385177e-05
2.84805629092e-05
2.84804419454e-05
2.84805860692e-05
2.84809813271e-05
2.84815914891e-05
2.84823554146e-05
2.84831747208e-05
2.848392361e-05
2.84844488993e-05
2.84846382959e-05
2.84841592082e-05
2.84834504863e-05
2.84826710809e-05
2.84819332147e-05
2.84813468673e-05
2.84809763834e-05
2.8480856811e-05
2.84809997369e-05
2.84813901178e-05
2.84819895989e-05
2.84827349299e-05
2.84835269446e-05
2.84842447421e-05
2.84847382967e-05
2.84852650378e-05
2.84848347279e-05
2.84841747066e-05
2.84834370743e-05
2.84827322218e-05
2.84821679879e-05
2.84818094739e-05
2.84816935142e-05
2.84818326008e-05
2.84822110969e-05
2.84827892423e-05
2.84835026867e-05
2.84842518151e-05
2.84849211764e-05
2.84853649101e-05
2.84856837153e-05
2.84852846684e-05
2.8484654138e-05
2.84839462632e-05
2.84832669771e-05
2.84827212907e-05
2.84823733024e-05
2.84822605222e-05
2.84823959383e-05
2.84827638489e-05
2.84833243308e-05
2.84840133583e-05
2.84847318632e-05
2.84853706839e-05
2.84857837509e-05
2.84859165498e-05
2.84855500282e-05
2.84849497784e-05
2.84842784027e-05
2.84836329024e-05
2.84831137895e-05
2.84827823657e-05
2.84826750284e-05
2.84828044952e-05
2.84831556456e-05
2.84836900109e-05
2.84843461239e-05
2.84850280044e-05
2.84856355226e-05
2.84860166227e-05
2.84861084387e-05
2.8485794832e-05
2.84852438932e-05
2.84846299617e-05
2.84840388069e-05
2.84835634181e-05
2.84832599233e-05
2.84831619644e-05
2.84832813866e-05
2.84836042604e-05
2.84840952223e-05
2.84846976663e-05
2.84853218893e-05
2.84858800675e-05
2.84862075963e-05
2.84863612669e-05
2.84861311785e-05
2.84856538192e-05
2.84851223455e-05
2.84846085818e-05
2.84841952059e-05
2.84839315454e-05
2.84838470808e-05
2.84839522803e-05
2.84842348438e-05
2.84846638689e-05
2.84851894579e-05
2.84857311861e-05
2.84862159481e-05
2.84864597752e-05
2.8486738618e-05
2.84866223271e-05
2.84862411573e-05
2.84858138267e-05
2.84853969844e-05
2.84850608117e-05
2.84848466436e-05
2.84847789786e-05
2.84848665686e-05
2.84850990871e-05
2.84854508881e-05
2.84858800303e-05
2.84863177286e-05
2.84867063805e-05
2.84868368428e-05
2.84872761355e-05
2.84872957751e-05
2.84870277357e-05
2.84867191193e-05
2.84864119531e-05
2.84861626639e-05
2.84860040621e-05
2.84859552696e-05
2.8486023141e-05
2.84861994891e-05
2.84864642523e-05
2.84867840729e-05
2.84871033824e-05
2.84873790844e-05
2.84873739271e-05
2.84879832138e-05
2.84881489575e-05
2.84880027662e-05
2.8487818749e-05
2.84876265222e-05
2.8487467963e-05
2.84873672274e-05
2.84873380687e-05
2.84873854552e-05
2.84875033047e-05
2.84876771446e-05
2.84878823416e-05
2.84880773991e-05
2.84882316376e-05
2.84880806295e-05
2.84888471791e-05
2.84891546143e-05
2.84891301709e-05
2.84890690562e-05
2.84889903843e-05
2.84889212803e-05
2.84888774815e-05
2.84888675988e-05
2.84888948429e-05
2.84889550877e-05
2.84890392002e-05
2.84891310737e-05
2.84892035666e-05
2.8489236482e-05
2.84889441213e-05
2.84898335935e-05
2.84902640665e-05
2.84903547329e-05
2.8490410432e-05
2.84904398499e-05
2.8490455811e-05
2.84904659157e-05
2.84904742647e-05
2.84904823793e-05
2.8490488026e-05
2.84904867473e-05
2.84904706522e-05
2.84904266499e-05
2.84903447493e-05
2.84899296305e-05
2.84908877408e-05
2.84914151109e-05
2.84916138356e-05
2.84917791806e-05
2.84919093799e-05
2.84920040475e-05
2.84920638285e-05
2.8492088813e-05
2.84920793267e-05
2.84920345335e-05
2.84919540653e-05
2.84918372445e-05
2.84916838337e-05
2.84914942375e-05
2.84909824332e-05
2.84919812998e-05
2.84925896692e-05
2.84928778384e-05
2.84931371788e-05
2.84933513028e-05
2.84935106276e-05
2.84936105542e-05
2.8493648891e-05
2.84936250002e-05
2.8493539028e-05
2.84933933423e-05
2.84931923582e-05
2.84929452332e-05
2.84926668709e-05
2.84920733173e-05
2.84933170918e-05
2.84937786732e-05
2.84941138575e-05
2.84944327983e-05
2.84946966038e-05
2.84948926014e-05
2.84950146471e-05
2.84950600239e-05
2.8495027909e-05
2.8494918893e-05
2.8494735662e-05
2.84944847425e-05
2.84941784894e-05
2.84938548903e-05
2.84934065524e-05
2.55485459354e-05
2.55487980667e-05
2.55491169398e-05
2.5549441709e-05
2.55497386756e-05
2.55499718803e-05
2.55501194357e-05
2.55501660777e-05
2.55501065375e-05
2.55499474176e-05
2.55497057259e-05
2.55494069175e-05
2.55490841748e-05
2.554877657e-05
2.55485297021e-05
2.55486098397e-05
2.55488649266e-05
2.55491898221e-05
2.55495248599e-05
2.5549831206e-05
2.55500725413e-05
2.5550225357e-05
2.55502736494e-05
2.55502116755e-05
2.55500465587e-05
2.55497962423e-05
2.55494876423e-05
2.55491559189e-05
2.55488416762e-05
2.5548594953e-05
2.5548451617e-05
2.55486920981e-05
2.55490051214e-05
2.55493344584e-05
2.55496379393e-05
2.55498791562e-05
2.55500326862e-05
2.55500816788e-05
2.55500199193e-05
2.55498549675e-05
2.5549605531e-05
2.55492996769e-05
2.55489739929e-05
2.55486694182e-05
2.55484383031e-05
2.55483090062e-05
2.55485363397e-05
2.55488391646e-05
2.55491604759e-05
2.55494592649e-05
2.55496987085e-05
2.55498520086e-05
2.55499015334e-05
2.5549840674e-05
2.55496773181e-05
2.55494307421e-05
2.55491297708e-05
2.55488116986e-05
2.55485158045e-05
2.55482972937e-05
2.55482091931e-05
2.55484254696e-05
2.5548720283e-05
2.55490326343e-05
2.55493255316e-05
2.55495616712e-05
2.55497137246e-05
2.55497633441e-05
2.55497037248e-05
2.55495428815e-05
2.55493005218e-05
2.55490058149e-05
2.55486961579e-05
2.5548407461e-05
2.55481993409e-05
2.55481299827e-05
2.55483372998e-05
2.55486238948e-05
2.55489269361e-05
2.55492129125e-05
2.55494449983e-05
2.55495952282e-05
2.55496448319e-05
2.55495867143e-05
2.55494290428e-05
2.55491917798e-05
2.55489042719e-05
2.55486036655e-05
2.55483213958e-05
2.55481229304e-05
2.55480668156e-05
2.55482664973e-05
2.55485470639e-05
2.55488418763e-05
2.55491215645e-05
2.55493499028e-05
2.55494984378e-05
2.5549548044e-05
2.5549491378e-05
2.5549336705e-05
2.55491041744e-05
2.55488232608e-05
2.5548530737e-05
2.55482530479e-05
2.55480623476e-05
2.5548024336e-05
2.55482192822e-05
2.55484970788e-05
2.55487856334e-05
2.55490608322e-05
2.55492866107e-05
2.55494341915e-05
2.5549484008e-05
2.55494285962e-05
2.55492762044e-05
2.55490471601e-05
2.55487710576e-05
2.554848431e-05
2.55482083696e-05
2.55480218223e-05
2.55480068846e-05
2.55482017e-05
2.55484796388e-05
2.55487645856e-05
2.55490372366e-05
2.55492617187e-05
2.55494089608e-05
2.55494591342e-05
2.55494047135e-05
2.55492538646e-05
2.55490269794e-05
2.55487537371e-05
2.55484702014e-05
2.55481931939e-05
2.55480064893e-05
2.55480174373e-05
2.55482160561e-05
2.55484959406e-05
2.55487791339e-05
2.55490504427e-05
2.55492742656e-05
2.55494213532e-05
2.5549471875e-05
2.55494183209e-05
2.55492687045e-05
2.5549043254e-05
2.55487716054e-05
2.55484894426e-05
2.55482096264e-05
2.55480188749e-05
2.55480542331e-05
2.55482588276e-05
2.55485411956e-05
2.55488235154e-05
2.55490938074e-05
2.55493167196e-05
2.55494632275e-05
2.55495138144e-05
2.55494612104e-05
2.55493130924e-05
2.5549089224e-05
2.55488189092e-05
2.55485373857e-05
2.55482545293e-05
2.55480576493e-05
2.55481090437e-05
2.55483198383e-05
2.55486045281e-05
2.55488866203e-05
2.55491557671e-05
2.55493770608e-05
2.55495221343e-05
2.55495723631e-05
2.55495209057e-05
2.55493749379e-05
2.55491532585e-05
2.55488843968e-05
2.55486030777e-05
2.55483177466e-05
2.55481147485e-05
2.55481640315e-05
2.55483798271e-05
2.554866902e-05
2.55489534708e-05
2.55492226212e-05
2.55494420771e-05
2.55495850439e-05
2.55496345013e-05
2.55495843494e-05
2.55494409934e-05
2.55492215673e-05
2.55489530541e-05
2.55486695322e-05
2.55483798491e-05
2.55481718887e-05
2.55482082414e-05
2.55484382088e-05
2.55487332413e-05
2.55490208082e-05
2.55492882045e-05
2.55495026899e-05
2.55496407967e-05
2.5549688336e-05
2.55496403908e-05
2.55495020984e-05
2.55492878907e-05
2.55490214015e-05
2.55487351644e-05
2.5548440419e-05
2.55482181892e-05
2.55484523576e-05
2.55486326599e-05
2.55488910555e-05
2.55491411218e-05
2.55493706602e-05
2.55495513733e-05
2.55496662336e-05
2.55497055474e-05
2.55496659475e-05
2.55495510825e-05
2.55493707527e-05
2.5549142409e-05
2.55488943502e-05
2.55486377379e-05
2.55484637315e-05
2.44981869215e-05
2.44980059452e-05
2.4497749007e-05
2.44974667776e-05
2.4497198106e-05
2.44969805029e-05
2.44968420368e-05
2.4496795757e-05
2.44968453746e-05
2.44969849978e-05
2.44971996645e-05
2.4497464894e-05
2.4497747517e-05
2.44980014026e-05
2.44981921863e-05
2.44981662231e-05
2.44979910856e-05
2.44977422609e-05
2.44974650978e-05
2.44971998275e-05
2.44969844441e-05
2.4496846864e-05
2.44968007636e-05
2.44968502225e-05
2.44969890251e-05
2.44972016911e-05
2.44974632025e-05
2.44977402524e-05
2.44979876087e-05
2.44981718378e-05
2.44982476503e-05
2.44980823045e-05
2.44978464815e-05
2.44975790796e-05
2.44973221414e-05
2.44971125936e-05
2.44969780753e-05
2.44969328646e-05
2.44969814471e-05
2.44971174751e-05
2.4497325085e-05
2.44975788454e-05
2.44978455721e-05
2.44980804454e-05
2.44982537096e-05
2.44983067633e-05
2.44981457943e-05
2.44979169013e-05
2.44976552181e-05
2.44974034259e-05
2.4497197713e-05
2.44970650662e-05
2.44970203249e-05
2.44970683779e-05
2.44972028199e-05
2.44974075005e-05
2.44976566587e-05
2.44979172214e-05
2.44981447022e-05
2.44983134476e-05
2.44983259903e-05
2.4498165208e-05
2.44979393112e-05
2.44976810494e-05
2.44974325802e-05
2.44972293653e-05
2.44970979653e-05
2.44970535344e-05
2.44971011782e-05
2.44972345069e-05
2.44974372501e-05
2.44976835819e-05
2.44979406876e-05
2.44981645536e-05
2.44983334866e-05
2.44983212485e-05
2.44981580922e-05
2.44979350032e-05
2.4497680085e-05
2.44974354175e-05
2.44972354471e-05
2.44971059162e-05
2.44970620144e-05
2.44971089348e-05
2.44972404184e-05
2.44974403716e-05
2.44976833115e-05
2.44979370299e-05
2.44981582009e-05
2.44983289204e-05
2.44983033622e-05
2.44981388192e-05
2.44979197383e-05
2.44976700697e-05
2.44974314887e-05
2.44972367943e-05
2.44971106414e-05
2.44970678122e-05
2.44971134092e-05
2.44972414416e-05
2.44974363832e-05
2.44976736443e-05
2.44979221317e-05
2.44981395434e-05
2.44983116e-05
2.44982809886e-05
2.44981176089e-05
2.44979049598e-05
2.44976640402e-05
2.44974351876e-05
2.4497248996e-05
2.44971284522e-05
2.44970874864e-05
2.44971309218e-05
2.44972532217e-05
2.44974398721e-05
2.44976678358e-05
2.44979077753e-05
2.44981188746e-05
2.44982902371e-05
2.44982626394e-05
2.44981033753e-05
2.44979007178e-05
2.44976730004e-05
2.44974583297e-05
2.44972845187e-05
2.44971722532e-05
2.44971340965e-05
2.44971744154e-05
2.44972882874e-05
2.44974626938e-05
2.44976768631e-05
2.44979039575e-05
2.4498105235e-05
2.44982729046e-05
2.44982549168e-05
2.44981027278e-05
2.4497913983e-05
2.4497704168e-05
2.44975085404e-05
2.44973512843e-05
2.44972501091e-05
2.44972157702e-05
2.44972519927e-05
2.44973546361e-05
2.44975126268e-05
2.44977081699e-05
2.44979177532e-05
2.44981054433e-05
2.449826623e-05
2.44982615001e-05
2.44981186113e-05
2.44979472032e-05
2.44977597914e-05
2.44975878817e-05
2.44974511422e-05
2.44973637359e-05
2.44973341543e-05
2.44973653842e-05
2.44974541548e-05
2.44975917386e-05
2.44977639585e-05
2.44979515151e-05
2.44981222444e-05
2.44982738991e-05
2.44982815717e-05
2.44981481837e-05
2.44979965589e-05
2.44978357588e-05
2.44976919133e-05
2.44975793972e-05
2.44975081223e-05
2.44974841664e-05
2.44975096024e-05
2.44975821636e-05
2.44976956912e-05
2.44978401767e-05
2.4498001495e-05
2.44981526768e-05
2.44982948963e-05
2.44983087215e-05
2.44981817321e-05
2.4498052147e-05
2.4497922168e-05
2.44978107024e-05
2.44977255752e-05
2.44976725129e-05
2.44976548349e-05
2.44976738668e-05
2.44977282418e-05
2.4497814445e-05
2.44979269281e-05
2.44980577139e-05
2.44981871386e-05
2.44983229179e-05
2.4498326784e-05
2.44982057096e-05
2.44981027157e-05
2.44980083782e-05
2.44979325227e-05
2.44978767619e-05
2.44978426313e-05
2.4497831538e-05
2.44978439664e-05
2.44978793483e-05
2.44979363977e-05
2.44980134372e-05
2.44981089582e-05
2.44982121002e-05
2.44983413542e-05
2.4498315139e-05
2.44982181705e-05
2.4498147797e-05
2.44980899958e-05
2.44980477426e-05
2.44980178139e-05
2.44979999844e-05
2.44979944941e-05
2.44980014822e-05
2.44980208509e-05
2.44980522691e-05
2.44980961494e-05
2.44981556465e-05
2.44982269706e-05
2.44983300838e-05
2.24759263323e-05
2.24759916711e-05
2.24760741767e-05
2.24761565248e-05
2.24762303287e-05
2.24762865297e-05
2.24763193641e-05
2.24763257588e-05
2.24763051653e-05
2.24762592679e-05
2.2476192187e-05
2.24761103195e-05
2.24760222125e-05
2.2475940131e-05
2.24758720343e-05
2.24759021301e-05
2.24759678755e-05
2.24760501396e-05
2.24761342581e-05
2.24762098748e-05
2.24762677492e-05
2.24763017011e-05
2.2476308413e-05
2.24762871466e-05
2.24762398016e-05
2.24761708559e-05
2.24760872131e-05
2.24759979411e-05
2.2475915698e-05
2.24758492864e-05
2.24758195613e-05
2.24758808897e-05
2.24759577114e-05
2.24760396609e-05
2.24761140242e-05
2.24761717481e-05
2.24762059972e-05
2.24762130688e-05
2.24761919922e-05
2.24761448459e-05
2.24760764253e-05
2.24759940889e-05
2.24759072751e-05
2.24758290639e-05
2.24757679445e-05
2.24757512621e-05
2.24758091961e-05
2.24758825572e-05
2.24759627552e-05
2.24760364386e-05
2.24760942726e-05
2.2476129e-05
2.24761365668e-05
2.24761157733e-05
2.24760688378e-05
2.24760008026e-05
2.2475919382e-05
2.24758342651e-05
2.2475758766e-05
2.24757007576e-05
2.24757034087e-05
2.24757595471e-05
2.24758309612e-05
2.24759097671e-05
2.24759829477e-05
2.24760407744e-05
2.24760758443e-05
2.247608378e-05
2.24760632795e-05
2.24760166006e-05
2.24759489769e-05
2.24758683177e-05
2.24757844343e-05
2.24757106331e-05
2.24756542269e-05
2.24756671733e-05
2.24757229422e-05
2.24757919153e-05
2.24758693472e-05
2.24759416158e-05
2.24759990485e-05
2.24760341331e-05
2.24760423418e-05
2.24760222461e-05
2.24759761453e-05
2.24759093518e-05
2.24758298599e-05
2.24757474545e-05
2.24756752346e-05
2.24756200902e-05
2.24756386053e-05
2.24756935277e-05
2.24757600128e-05
2.24758355813e-05
2.24759062957e-05
2.2475962771e-05
2.24759974657e-05
2.24760057845e-05
2.2475986208e-05
2.24759410482e-05
2.24758756162e-05
2.24757978883e-05
2.24757175021e-05
2.24756471593e-05
2.24755935237e-05
2.24756152275e-05
2.24756682929e-05
2.24757321086e-05
2.24758050204e-05
2.24758735639e-05
2.2475928533e-05
2.2475962491e-05
2.24759707754e-05
2.24759518476e-05
2.24759079692e-05
2.24758444203e-05
2.24757690729e-05
2.24756913438e-05
2.24756233841e-05
2.24755718123e-05
2.24755942295e-05
2.24756449346e-05
2.24757055863e-05
2.24757751941e-05
2.2475840982e-05
2.24758939702e-05
2.24759268538e-05
2.24759349675e-05
2.24759167764e-05
2.24758744678e-05
2.24758132482e-05
2.24757408368e-05
2.24756663922e-05
2.2475601413e-05
2.24755526925e-05
2.24755739146e-05
2.24756214111e-05
2.24756783086e-05
2.24757440697e-05
2.2475806619e-05
2.24758572541e-05
2.24758887834e-05
2.24758966246e-05
2.24758792344e-05
2.24758387329e-05
2.24757801967e-05
2.24757111653e-05
2.24756405351e-05
2.24755791346e-05
2.24755341571e-05
2.24755522999e-05
2.24755956576e-05
2.24756484676e-05
2.24757100474e-05
2.24757690901e-05
2.24758170769e-05
2.24758470427e-05
2.24758545031e-05
2.24758379754e-05
2.24757994615e-05
2.24757438671e-05
2.24756785133e-05
2.2475612054e-05
2.24755547255e-05
2.24755144626e-05
2.24755274963e-05
2.24755657554e-05
2.24756143641e-05
2.2475671786e-05
2.2475727223e-05
2.24757724391e-05
2.247580066e-05
2.24758076784e-05
2.24757920475e-05
2.24757556569e-05
2.24757031422e-05
2.24756415339e-05
2.24755792877e-05
2.24755262974e-05
2.24754917571e-05
2.24754965553e-05
2.24755285486e-05
2.24755735257e-05
2.2475627501e-05
2.24756798472e-05
2.24757223651e-05
2.24757488814e-05
2.2475755394e-05
2.24757407069e-05
2.24757064371e-05
2.24756568558e-05
2.24755985563e-05
2.24755397994e-05
2.2475490663e-05
2.24754629062e-05
2.24754514798e-05
2.24754789216e-05
2.24755233703e-05
2.24755759895e-05
2.24756261102e-05
2.24756663149e-05
2.24756910488e-05
2.2475697114e-05
2.24756833878e-05
2.24756512779e-05
2.24756043871e-05
2.24755484507e-05
2.24754911984e-05
2.24754428346e-05
2.24754202649e-05
2.24754033896e-05
2.24754390824e-05
2.24754830911e-05
2.24755308484e-05
2.2475574472e-05
2.24756083287e-05
2.24756287353e-05
2.24756334359e-05
2.24756217684e-05
2.24755946909e-05
2.24755546263e-05
2.24755055957e-05
2.24754533734e-05
2.24754054381e-05
2.24753734158e-05
2.09616838933e-05
2.096164299e-05
2.09615764055e-05
2.09615038263e-05
2.09614367598e-05
2.0961383171e-05
2.09613479574e-05
2.09613346225e-05
2.09613443079e-05
2.09613755664e-05
2.09614246278e-05
2.09614856046e-05
2.09615507362e-05
2.09616104017e-05
2.09616562278e-05
2.09616609664e-05
2.09616192402e-05
2.09615526935e-05
2.09614792222e-05
2.0961411115e-05
2.09613565424e-05
2.09613206972e-05
2.09613071354e-05
2.09613170742e-05
2.09613489837e-05
2.09613989351e-05
2.09614608497e-05
2.09615267567e-05
2.09615869801e-05
2.0961632914e-05
2.0961665629e-05
2.09616241717e-05
2.09615596485e-05
2.09614870134e-05
2.09614192238e-05
2.09613645236e-05
2.09613284817e-05
2.09613148237e-05
2.09613248191e-05
2.09613568696e-05
2.0961406901e-05
2.09614686459e-05
2.09615339449e-05
2.09615930479e-05
2.0961637629e-05
2.0961667428e-05
2.09616259785e-05
2.09615620947e-05
2.09614901734e-05
2.0961422374e-05
2.09613672787e-05
2.09613308727e-05
2.09613170278e-05
2.09613270676e-05
2.09613593241e-05
2.09614095957e-05
2.09614714447e-05
2.09615365567e-05
2.09615952529e-05
2.09616396376e-05
2.09616613301e-05
2.09616193193e-05
2.09615553244e-05
2.09614838006e-05
2.09614158518e-05
2.0961360387e-05
2.09613236387e-05
2.09613095949e-05
2.09613196325e-05
2.09613520529e-05
2.09614025571e-05
2.09614646073e-05
2.09615297932e-05
2.09615886698e-05
2.09616337039e-05
2.09616507943e-05
2.09616071628e-05
2.09615434083e-05
2.09614724592e-05
2.09614046754e-05
2.09613491538e-05
2.09613122546e-05
2.09612980591e-05
2.09613079728e-05
2.09613402998e-05
2.0961390703e-05
2.09614526382e-05
2.09615177031e-05
2.09615768473e-05
2.09616228949e-05
2.09616369355e-05
2.0961592024e-05
2.09615287923e-05
2.0961458745e-05
2.09613917347e-05
2.09613367213e-05
2.09613000655e-05
2.09612858481e-05
2.09612954959e-05
2.09613273383e-05
2.09613771067e-05
2.09614383548e-05
2.09615028175e-05
2.09615620018e-05
2.09616091169e-05
2.09616206124e-05
2.0961574982e-05
2.0961512532e-05
2.09614441725e-05
2.09613787832e-05
2.09613249998e-05
2.09612890685e-05
2.09612750002e-05
2.09612842106e-05
2.09613151001e-05
2.09613635557e-05
2.09614233678e-05
2.09614865551e-05
2.09615453428e-05
2.09615933825e-05
2.09616030666e-05
2.09615570302e-05
2.09614959314e-05
2.09614300874e-05
2.09613671868e-05
2.0961315446e-05
2.09612808077e-05
2.09612671134e-05
2.09612757142e-05
2.09613051422e-05
2.09613515274e-05
2.09614090423e-05
2.09614701452e-05
2.09615279264e-05
2.09615765824e-05
2.09615851104e-05
2.09615389575e-05
2.0961479957e-05
2.09614174925e-05
2.09613580711e-05
2.09613092254e-05
2.09612764779e-05
2.09612633906e-05
2.09612712315e-05
2.09612986752e-05
2.09613422116e-05
2.096139652e-05
2.09614546626e-05
2.09615107256e-05
2.09615595639e-05
2.09615674752e-05
2.09615216792e-05
2.0961465483e-05
2.09614071882e-05
2.09613521099e-05
2.09613069541e-05
2.09612766717e-05
2.09612644349e-05
2.09612713823e-05
2.09612963587e-05
2.09613363153e-05
2.09613865465e-05
2.09614408684e-05
2.09614944729e-05
2.09615430162e-05
2.09615509045e-05
2.09615058083e-05
2.09614528319e-05
2.09613993394e-05
2.09613493316e-05
2.09613085545e-05
2.09612812443e-05
2.09612700838e-05
2.09612760342e-05
2.09612981625e-05
2.09613339095e-05
2.09613793413e-05
2.09614291485e-05
2.09614796731e-05
2.09615275281e-05
2.09615359642e-05
2.09614915914e-05
2.09614419879e-05
2.09613935698e-05
2.09613490522e-05
2.09613131197e-05
2.09612891516e-05
2.09612792557e-05
2.09612841768e-05
2.09613031881e-05
2.09613343468e-05
2.09613745322e-05
2.09614194437e-05
2.09614666767e-05
2.09615138045e-05
2.09615201747e-05
2.09614756299e-05
2.09614301605e-05
2.09613874773e-05
2.09613491643e-05
2.09613187278e-05
2.0961298591e-05
2.09612901921e-05
2.09612940416e-05
2.096130961e-05
2.0961335631e-05
2.09613698806e-05
2.09614091232e-05
2.09614520784e-05
2.09614991869e-05
2.09614729286e-05
2.0961440985e-05
2.09614062059e-05
2.09613741571e-05
2.09613458262e-05
2.09613236676e-05
2.09613090908e-05
2.09613028858e-05
2.0961305253e-05
2.09613159621e-05
2.09613342835e-05
2.09613589635e-05
2.09613877034e-05
2.096141956e-05
2.0961453037e-05
1.91855210429e-05
1.91855461455e-05
1.91855820964e-05
1.91856179613e-05
1.91856499586e-05
1.91856742962e-05
1.91856889385e-05
1.91856921981e-05
1.91856835417e-05
1.91856636321e-05
1.91856342948e-05
1.91855985887e-05
1.9185560698e-05
1.91855265997e-05
1.91855009202e-05
1.91855102339e-05
1.9185535525e-05
1.91855695052e-05
1.91856040917e-05
1.91856349601e-05
1.91856585358e-05
1.91856727185e-05
1.91856757624e-05
1.91856671228e-05
1.91856474817e-05
1.91856187416e-05
1.91855840076e-05
1.91855474626e-05
1.91855149077e-05
1.91854906963e-05
1.91854889574e-05
1.91855127454e-05
1.91855437081e-05
1.91855766017e-05
1.9185606134e-05
1.91856289724e-05
1.9185642729e-05
1.9185645671e-05
1.91856372156e-05
1.91856181024e-05
1.91855902849e-05
1.91855569195e-05
1.91855221521e-05
1.91854916919e-05
1.91854693685e-05
1.91854732178e-05
1.91854955013e-05
1.91855246476e-05
1.91855561366e-05
1.91855848108e-05
1.918560725e-05
1.91856208101e-05
1.91856237456e-05
1.9185615448e-05
1.9185596702e-05
1.9185569499e-05
1.91855370297e-05
1.91855034096e-05
1.91854742851e-05
1.91854529886e-05
1.91854631396e-05
1.91854843874e-05
1.91855123659e-05
1.91855427396e-05