/*--------------------------------*- C++ -*----------------------------------*\
  =========                 |
  \\      /  F ield         | OpenFOAM: The Open Source CFD Toolbox
   \\    /   O peration     | Website:  https://openfoam.org
    \\  /    A nd           | Version:  7
     \\/     M anipulation  |
\*---------------------------------------------------------------------------*/
FoamFile
{
    version     2.0;
    format      ascii;
    class       surfaceScalarField;
    location    "0.48";
    object      phi;
}
// * * * * * * * * * * * * * * * * * * * * * * * * * * * * * * * * * * * * * //

dimensions      [0 3 -1 0 0 0 0];

internalField   nonuniform List<scalar> 
65775
(
3.79470816749e-11
4.62529193354e-09
8.25518078565e-10
-8.63962187316e-13
5.7397079328e-11
4.83643010749e-09
9.15307053483e-10
6.727985085e-11
5.01510252635e-09
1.00147231671e-09
6.56189636706e-11
5.16926548528e-09
1.07923252301e-09
5.43258327541e-11
5.29173377265e-09
1.14439400808e-09
3.54474881887e-11
5.381271117e-09
1.19360304852e-09
1.17677499817e-11
5.43761470138e-09
1.22466795759e-09
-1.35688603547e-11
5.45919126133e-09
1.23581704948e-09
-3.71533707923e-11
5.43809537717e-09
1.22467100784e-09
-5.58463884007e-11
5.38221188994e-09
1.19360865504e-09
-6.68345911991e-11
5.29311148412e-09
1.14440061989e-09
-6.81032421405e-11
5.17092539488e-09
1.07923847581e-09
-5.77177869161e-11
5.01692323494e-09
1.00147546475e-09
-3.78708594025e-11
4.83800850491e-09
9.15294246662e-10
4.62621237184e-09
8.25431670825e-10
-5.58996644625e-13
9.61442233068e-11
7.74046349259e-09
2.01789645912e-09
-2.03129198069e-12
1.57967786362e-10
8.05735546551e-09
2.22642221333e-09
1.86349350665e-10
8.32441958697e-09
2.42510744765e-09
1.83166278504e-10
8.55057566564e-09
2.60329558028e-09
1.52133430884e-10
8.72893335036e-09
2.75178452788e-09
9.95211346224e-11
8.85834068537e-09
2.86344010248e-09
3.3248560914e-11
8.93976533079e-09
2.93374421688e-09
-3.76139333782e-11
8.97136094836e-09
2.95895683434e-09
-1.03654751517e-10
8.94084769411e-09
2.93374515884e-09
-1.55805637115e-10
8.86046309258e-09
2.86344125237e-09
-1.86116534157e-10
8.73201721707e-09
2.75178347186e-09
-1.88343154984e-10
8.55434909924e-09
2.60329063784e-09
-1.58826641629e-10
8.32852729483e-09
2.42509517043e-09
-9.60500988312e-11
8.06106474966e-09
2.22636961596e-09
7.74294366027e-09
2.0176803677e-09
-1.34699395746e-12
1.41020956135e-10
9.70659223836e-09
2.86334332927e-09
-2.79463686449e-12
2.35997825428e-10
1.00585759638e-08
3.15255500545e-09
2.78731344817e-10
1.03559543946e-08
3.42659395469e-09
2.74101312691e-10
1.06015766706e-08
3.67125102967e-09
2.27608079826e-10
1.0793522276e-08
3.87432249228e-09
1.48876207339e-10
1.09314166922e-08
4.02654554627e-09
4.98271406635e-11
1.10181261792e-08
4.12217560796e-09
-5.60039715581e-11
1.10522804015e-08
4.15641055973e-09
-1.54721173262e-10
1.10196266966e-08
4.12217346416e-09
-2.32790704033e-10
1.09343503209e-08
4.02654141097e-09
-2.78272892026e-10
1.07977606473e-08
3.87431470108e-09
-2.81568766003e-10
1.06067843335e-08
3.67123922474e-09
-2.37305336703e-10
1.0361606219e-08
3.42657544389e-09
-1.41010407928e-10
1.00637805696e-08
3.15248761865e-09
9.71027972097e-09
2.86306389948e-09
-1.93357491709e-12
1.76853089367e-10
1.07860454625e-08
3.45512534737e-09
-3.27313781362e-12
2.96830268637e-10
1.11275273344e-08
3.7994871662e-09
3.508836951e-10
1.14170095549e-08
4.12389829809e-09
3.44847058281e-10
1.16493554616e-08
4.41219909194e-09
2.86176424439e-10
1.18285760564e-08
4.65055916537e-09
1.87113346144e-10
1.19557187165e-08
4.82868154596e-09
6.27147535926e-11
1.20355853335e-08
4.9403165712e-09
-7.01097042655e-11
1.20676451405e-08
4.98019836697e-09
-1.94106622795e-10
1.20373181293e-08
4.94031383522e-09
-2.92369464785e-10
1.19591041727e-08
4.82867779257e-09
-3.49840190484e-10
1.1833441357e-08
4.65055453833e-09
-3.5432139538e-10
1.16553330028e-08
4.41219545275e-09
-2.98513969928e-10
1.14235179353e-08
4.12389525394e-09
-1.77012397403e-10
1.11336297302e-08
3.79944209415e-09
1.07906559628e-08
3.45486181024e-09
-2.39239770821e-12
2.0479924683e-10
1.11908584547e-08
3.84261524712e-09
-3.54697213824e-12
3.43688692875e-10
1.14938469514e-08
4.22281192056e-09
4.06556768995e-10
1.17524173581e-08
4.57878162991e-09
3.99350305605e-10
1.19531191305e-08
4.89360732517e-09
3.3123687026e-10
1.21052289424e-08
5.15285230744e-09
2.16510704838e-10
1.22113884168e-08
5.34596554262e-09
7.26618527835e-11
1.22779775312e-08
5.4666900107e-09
-8.08418924324e-11
1.23054011685e-08
5.50971540515e-09
-2.24242990539e-10
1.2279806471e-08
5.46668944486e-09
-3.38082858266e-10
1.22149534407e-08
5.34596805566e-09
-4.0488569621e-10
1.21103361382e-08
5.15286050511e-09
-4.10423869012e-10
1.19593907574e-08
4.89362597855e-09
-3.45699085993e-10
1.17592884949e-08
4.5788138305e-09
-2.05180211636e-10
1.15003731226e-08
4.22281832422e-09
1.11960231805e-08
3.84241946115e-09
-2.76345911535e-12
2.263449829e-10
1.10932845004e-08
4.06409533486e-09
-3.67017208872e-12
3.79193719916e-10
1.13430610886e-08
4.46555204987e-09
4.4866358212e-10
1.1559078152e-08
4.83903325881e-09
4.40464719466e-10
1.17199951583e-08
5.16771724583e-09
3.65172360418e-10
1.18390887229e-08
5.43728249375e-09
2.38635158899e-10
1.19203778524e-08
5.63744351515e-09
8.01835381982e-11
1.19712768978e-08
5.76224363986e-09
-8.88263091323e-11
1.1993001886e-08
5.80659708061e-09
-2.46805641025e-10
1.19730741516e-08
5.76224736826e-09
-3.72411679614e-10
1.19238786339e-08
5.63745659306e-09
-4.46345718403e-10
1.1844090358e-08
5.43731024128e-09
-4.52840431305e-10
1.17261369096e-08
5.16776776581e-09
-3.81505967013e-10
1.15658367214e-08
4.83911376963e-09
-2.26994154476e-10
1.13495984067e-08
4.4656268986e-09
1.10986710712e-08
4.063989941e-09
-3.06536255673e-12
2.42847399092e-10
1.06329569221e-08
4.15087279949e-09
-3.68503106624e-12
4.05589328981e-10
1.0824663593e-08
4.56285428536e-09
4.79691483402e-10
1.09944691719e-08
4.94368030571e-09
4.70598182732e-10
1.11144548377e-08
5.27719352534e-09
3.89970600721e-10
1.12003193259e-08
5.54965317297e-09
2.54786656605e-10
1.12570676713e-08
5.75134313936e-09
8.57043325243e-11
1.12925279248e-08
5.87675839145e-09
-9.45766995508e-11
1.13084976251e-08
5.92118438583e-09
-2.63179157999e-10
1.12942024416e-08
5.87676756326e-09
-3.97422361429e-10
1.12603270526e-08
5.75136889263e-09
-4.76692694181e-10
1.12049669647e-08
5.54970351409e-09
-4.84106645932e-10
1.11201652341e-08
5.27727999839e-09
-4.08186713886e-10
1.10007865721e-08
4.94381427083e-09
-2.43805010063e-10
1.08308594966e-08
4.56300217085e-09
1.06382435948e-08
4.15086076988e-09
-3.32727553135e-12
2.55248463102e-10
9.92230952324e-09
4.12920988574e-09
-3.61703717222e-12
4.24576309456e-10
1.00579644851e-08
4.54411105356e-09
5.0164716981e-10
1.01832884882e-08
4.9252642546e-09
4.91726992807e-10
1.02655579396e-08
5.2575137695e-09
4.07276349166e-10
1.03214472774e-08
5.52795943372e-09
2.66041902256e-10
1.03564952546e-08
5.72759287239e-09
8.95767093215e-11
1.03783450291e-08
5.85139640317e-09
-9.85165885295e-11
1.03891083724e-08
5.8950832297e-09
-2.74508678001e-10
1.03798256893e-08
5.85141103484e-09
-4.14821866831e-10
1.0359374738e-08
5.72763101525e-09
-4.97954425538e-10
1.03255506684e-08
5.52803153941e-09
-5.06263234851e-10
1.02706028056e-08
5.25763462677e-09
-4.27462397028e-10
1.01889029086e-08
4.92544881093e-09
-2.56551176273e-10
1.00635429165e-08
4.54432540819e-09
9.92723835548e-09
4.12928044658e-09
-3.56061705304e-12
2.64178602252e-10
9.05099485096e-09
4.02130603521e-09
-3.49006599602e-12
4.37418446091e-10
9.13692652037e-09
4.43402443631e-09
5.1609976184e-10
9.2227173735e-09
4.81096800789e-09
5.05431746825e-10
9.27286592159e-09
5.1381392755e-09
4.18416614301e-10
9.30385766005e-09
5.40358849715e-09
2.73267887765e-10
9.32129734366e-09
5.59904191733e-09
9.20830966802e-11
9.33215038675e-09
5.71993298361e-09
-1.00989823664e-10
9.33857501727e-09
5.76240156673e-09
-2.81720402415e-10
9.33339222768e-09
5.71995195543e-09
-4.25989162375e-10
9.32371097166e-09
5.59908981027e-09
-5.11755705531e-10
9.30729634563e-09
5.40367777986e-09
-5.20908531557e-10
9.27710264793e-09
5.13828751596e-09
-4.40609511367e-10
9.22746061565e-09
4.81119281392e-09
-2.65855594863e-10
9.14169840671e-09
4.43428915077e-09
9.05533341953e-09
4.02143846778e-09
-3.78059977816e-12
2.70041482893e-10
8.08950122704e-09
3.845887643e-09
-3.32605129453e-12
4.45027203854e-10
8.13434653789e-09
4.2532657183e-09
5.24252379819e-10
8.18710513856e-09
4.62333828251e-09
5.12957309915e-10
8.2116979499e-09
4.94329054145e-09
4.24437312152e-10
8.22353700664e-09
5.20213962157e-09
2.77145166417e-10
8.22785660814e-09
5.39231520699e-09
9.34432394306e-11
8.23056159694e-09
5.50963512944e-09
-1.02267705457e-10
8.23362871418e-09
5.55063696428e-09
-2.85543538103e-10
8.23154040844e-09
5.50965618298e-09
-4.32013566141e-10
8.22975914433e-09
5.39236785755e-09
-5.19374090286e-10
8.22624740679e-09
5.20223775019e-09
-5.29269250246e-10
8.21504641083e-09
4.94345381563e-09
-4.4854732496e-10
8.19088266716e-09
4.62358598134e-09
-2.72126912724e-10
8.13819047286e-09
4.25355655994e-09
8.0931102817e-09
3.84605371708e-09
-3.99691015871e-12
2.73046645181e-10
7.09245942039e-09
3.61866344528e-09
-3.13933112214e-12
4.48023360945e-10
7.10544391348e-09
4.01901839225e-09
5.27025343916e-10
7.13197964458e-09
4.38091172973e-09
5.15268575498e-10
7.13764813098e-09
4.69264814645e-09
4.26137674229e-10
7.13606337178e-09
4.94419107819e-09
2.78181755693e-10
7.13162642269e-09
5.12863441678e-09
9.38168280523e-11
7.12892951046e-09
5.24211897396e-09
-1.02553107729e-10
7.12960655717e-09
5.28154755678e-09
-2.86526063593e-10
7.12964172579e-09
5.24213869984e-09
-4.33728928994e-10
7.13300850903e-09
5.12868442837e-09
-5.218006795e-10
7.13803384319e-09
4.94428585892e-09
-5.322795617e-10
7.14008890784e-09
4.69280866678e-09
-4.51901454286e-10
7.13475693641e-09
4.38115826584e-09
-2.75566183275e-10
7.10829838617e-09
4.01930425149e-09
7.09524083809e-09
3.61882880556e-09
-4.22143757315e-12
2.7319466618e-10
6.10141697692e-09
3.35275583037e-09
-2.93340270598e-12
4.46904341978e-10
6.09070352338e-09
3.74551697635e-09
5.25244323985e-10
6.09738984362e-09
4.09884822954e-09
5.13172122227e-10
6.09047610204e-09
4.40207023637e-09
4.24126122985e-10
6.08086648466e-09
4.64609514077e-09
2.76736123505e-10
6.07164026237e-09
4.8246782881e-09
9.33095973155e-11
6.06598910802e-09
4.93425451237e-09
-1.01985284971e-10
6.06516187762e-09
4.97207307583e-09
-2.85058373442e-10
6.06644490388e-09
4.93426838694e-09
-4.31767801542e-10
6.07252714753e-09
4.82471589078e-09
-5.19859133818e-10
6.08212550834e-09
4.64617046714e-09
-5.3077266214e-10
6.0920382398e-09
4.40220467131e-09
-4.51168251222e-10
6.09918181782e-09
4.09906319115e-09
-2.76167705658e-10
6.09255349925e-09
3.74576160867e-09
6.10330947991e-09
3.35288185906e-09
-4.46290728412e-12
2.70550517942e-10
5.14685470917e-09
3.05914204617e-09
-2.71555304699e-12
4.42632661955e-10
5.11788442644e-09
3.44460247995e-09
5.20009513396e-10
5.11083320386e-09
3.78956536005e-09
5.07454084562e-10
5.09752286582e-09
4.0843020875e-09
4.18853671442e-10
5.08479727768e-09
4.3207684653e-09
2.73018244566e-10
5.07416247444e-09
4.49344600773e-09
9.19782027913e-11
5.06760467077e-09
4.59907942109e-09
-1.00645461675e-10
5.06600894571e-09
4.63526712988e-09
-2.8136816152e-10
5.06783044782e-09
4.59908211296e-09
-4.26597986798e-10
5.07459663723e-09
4.49345961993e-09
-5.14341476639e-10
5.08540761239e-09
4.3208050063e-09
-5.25848073493e-10
5.09827027981e-09
4.08438207542e-09
-4.47303703601e-10
5.11169480265e-09
3.78971259854e-09
-2.73986480164e-10
5.11876018065e-09
3.44476748482e-09
5.1478422695e-09
3.05919257701e-09
-4.71047461203e-12
2.6677163529e-10
4.2483016807e-09
2.74709007591e-09
-2.49724315212e-12
4.37780089328e-10
4.20385384941e-09
3.12624974911e-09
5.12888205343e-10
4.19059903395e-09
3.46328038992e-09
4.98700572731e-10
4.17686161712e-09
3.74957738302e-09
4.104335778e-10
4.16499909629e-09
3.97838829441e-09
2.67005111825e-10
4.15551011162e-09
4.14504360013e-09
8.97873123897e-11
4.1495660893e-09
4.24664701356e-09
-9.85081917738e-11
4.1478037057e-09
4.28116741659e-09
-2.75444202974e-10
4.14959222316e-09
4.24663330783e-09
-4.18332059423e-10
4.15555655158e-09
4.14502177283e-09
-5.05830600747e-10
4.16504922798e-09
3.97836630391e-09
-5.19059012636e-10
4.17690066243e-09
3.74957218824e-09
-4.42861726376e-10
4.19062692185e-09
3.4633188633e-09
-2.70660939746e-10
4.20382779643e-09
3.12629658102e-09
4.24845998946e-09
2.7470401162e-09
-4.97001838348e-12
2.74982524776e-10
2.42522061252e-09
-2.26540965062e-12
3.40358099985e-09
4.40868968247e-10
2.79949634303e-09
3.36102957566e-09
5.08052110743e-10
3.12863273284e-09
3.35067081756e-09
4.8891072869e-10
3.40619141169e-09
3.3404629039e-09
3.99866916543e-10
3.62697528268e-09
3.33159866187e-09
2.59157526547e-10
3.78727995826e-09
3.32470026263e-09
8.68866633488e-11
3.88462979605e-09
3.32034668501e-09
-9.5722161679e-11
3.91740231738e-09
3.31882139823e-09
-2.67738304386e-10
3.88459746388e-09
3.32021056556e-09
-4.07960631447e-10
3.78721756784e-09
3.3244262395e-09
-4.96304945029e-10
3.62688495813e-09
3.33118660732e-09
-5.14559842688e-10
3.40608195691e-09
3.33991121998e-09
-4.46334161808e-10
3.12853175354e-09
3.34999287723e-09
-2.79273106548e-10
2.79937069102e-09
3.36022148963e-09
2.42509714305e-09
-5.21300764827e-12
3.40298104119e-09
-4.9315953593e-12
3.16259230761e-10
5.13706826279e-10
3.04942106371e-13
-4.02290966348e-12
3.4667273618e-10
5.67421691173e-10
-2.79898543586e-12
3.80810901091e-10
6.19395380818e-10
-1.90666665786e-12
4.11732708842e-10
6.66656942006e-10
-1.15486441143e-12
4.37438839444e-10
7.0644187955e-10
-4.83205767732e-13
4.56587151842e-10
7.36565263105e-10
1.68592843026e-13
4.68497371267e-10
7.55604958676e-10
7.87789172242e-13
4.72700552776e-10
7.62442884426e-10
1.32495842179e-12
4.683823619e-10
7.55602078785e-10
1.77095705035e-12
4.56397963901e-10
7.36559154987e-10
2.22780508214e-12
4.37275190059e-10
7.06431944556e-10
2.86339482602e-12
4.11708379987e-10
6.66641497971e-10
3.86401581244e-12
3.80842374439e-10
6.19370009013e-10
4.69295326895e-12
3.46830525514e-10
5.67372106584e-10
3.16231059276e-10
5.13583268097e-10
5.42961455199e-14
-3.54556031276e-12
8.84813958241e-10
1.45186637876e-09
6.38468512053e-13
1.85976131631e-12
9.61723110538e-10
1.60560276755e-09
6.93533494673e-12
1.04641321669e-09
1.75435106772e-09
9.41231497003e-12
1.12311318166e-09
1.88961313275e-09
9.24632060143e-12
1.1862504289e-09
2.0034958091e-09
6.87802088893e-12
1.23293813085e-09
2.08973813925e-09
3.08014295743e-12
1.26189490239e-09
2.14422158293e-09
-1.26802357914e-12
1.27215567755e-09
2.16372962851e-09
-5.31223278231e-12
1.26169808676e-09
2.14421701073e-09
-8.15549534631e-12
1.23261667827e-09
2.08972840574e-09
-8.93015639925e-12
1.18597238281e-09
2.00347830048e-09
-7.00107324298e-12
1.1230814495e-09
1.88958189726e-09
-2.33966171637e-12
1.0465654713e-09
1.75429315041e-09
2.92041588594e-12
9.6204966392e-10
1.60547676213e-09
8.84829714265e-10
1.45156127672e-09
4.38298666907e-14
4.7359381369e-12
1.50348294587e-09
2.23879394846e-09
7.67012414427e-13
1.69169044801e-11
1.62386082055e-09
2.47793032298e-09
2.66103820727e-11
1.7544334772e-09
2.7087892472e-09
3.03169482309e-11
1.87247901816e-09
2.91834824857e-09
2.75783423044e-11
1.96906303145e-09
3.09454384101e-09
1.93598852762e-11
2.04009025215e-09
3.22783223676e-09
7.51294864213e-12
2.08402359703e-09
3.31193442072e-09
-5.65628214969e-12
2.09963206306e-09
3.34197324821e-09
-1.77990184404e-11
2.08383493339e-09
3.31193072276e-09
-2.65799572449e-11
2.03979627453e-09
3.22782352595e-09
-3.00289846118e-11
1.96885135489e-09
3.09452606377e-09
-2.69679569198e-11
1.87256769117e-09
2.91831270337e-09
-1.77224477282e-11
1.75478995167e-09
2.70871766266e-09
-5.67863389163e-12
1.62434637862e-09
2.47776461304e-09
1.5035590466e-09
2.23838221942e-09
-8.80500319423e-14
1.68729151353e-11
2.0730387812e-09
2.86760959626e-09
7.39956398737e-13
3.70689679965e-11
2.22704587247e-09
3.17583851121e-09
5.14994348433e-11
2.39152430597e-09
3.47232299314e-09
5.59342132991e-11
2.53967996794e-09
3.74071858203e-09
4.96314410865e-11
2.66025330546e-09
3.96589079288e-09
3.41476753991e-11
2.74846258008e-09
4.1359333026e-09
1.25633798907e-11
2.80286982564e-09
4.24304797213e-09
-1.11948985143e-11
2.82223368297e-09
4.28121156696e-09
-3.30670594422e-11
2.80273499596e-09
4.24304669345e-09
-4.90911439167e-11
2.74826968645e-09
4.13592927935e-09
-5.60681342084e-11
2.66017033877e-09
3.9658798903e-09
-5.22407406128e-11
2.53989291802e-09
3.74069166248e-09
-3.82042442103e-11
2.39203077618e-09
3.47226018025e-09
-1.8083586016e-11
2.22764239262e-09
3.17567434492e-09
2.07316722412e-09
2.86717161073e-09
-3.33968733625e-13
3.0901990517e-11
2.53628638099e-09
3.34754429086e-09
6.18736435017e-13
5.92990782553e-11
2.71191321415e-09
3.70928147879e-09
7.81360856388e-11
2.89584721784e-09
4.05558170976e-09
8.27814387296e-11
3.06078991894e-09
4.36795784162e-09
7.2440249251e-11
3.19431619584e-09
4.62928150116e-09
4.92877411838e-11
3.29147858628e-09
4.82617923886e-09
1.76260599572e-11
3.35121831404e-09
4.94995999437e-09
-1.70281066184e-11
3.37250089881e-09
4.99394756745e-09
-4.89374901924e-11
3.35113751149e-09
4.94996237613e-09
-7.25484890465e-11
3.29138279864e-09
4.82618309858e-09
-8.34546644822e-11
3.19434199248e-09
4.62928401174e-09
-7.93036014104e-11
3.06109080866e-09
4.36795157025e-09
-6.07614857078e-11
2.89642474462e-09
4.05554841255e-09
-3.23566443516e-11
2.71258034953e-09
3.70915361884e-09
2.53643566765e-09
3.34713904915e-09
-6.49903525707e-13
4.52166825752e-11
2.86592101613e-09
3.68849499803e-09
4.45481767634e-13
8.13797284939e-11
3.05174527104e-09
4.08936160207e-09
1.03991427768e-10
3.24126266345e-09
4.47095745053e-09
1.08385454034e-10
3.41044753256e-09
4.81372599239e-09
9.39288689962e-11
3.54661439854e-09
5.09952059286e-09
6.34241292821e-11
3.64515081249e-09
5.31429287721e-09
2.2281959814e-11
3.7055256501e-09
5.44900084167e-09
-2.25665430918e-11
3.72704512871e-09
5.49673806362e-09
-6.39015830007e-11
3.70548597893e-09
5.44900755845e-09
-9.47579913627e-11
3.64512385141e-09
5.31430657197e-09
-1.09638803258e-10
3.54670310346e-09
5.09954083174e-09
-1.05599316282e-10
3.41076931649e-09
4.81374865921e-09
-8.31598322149e-11
3.24182757892e-09
4.47096818701e-09
-4.69156134375e-11
3.05237584233e-09
4.08929290837e-09
2.86607617191e-09
3.68815641083e-09
-1.0046050329e-12
5.86240192226e-11
3.05568363357e-09
3.90195341183e-09
2.58317060045e-13
1.01703819157e-10
3.24206046864e-09
4.32928152004e-09
1.27295766115e-10
3.42575814949e-09
4.73351707081e-09
1.31052312134e-10
3.58895812913e-09
5.09493765774e-09
1.12703315395e-10
3.71944370096e-09
5.39519220916e-09
7.56559590877e-11
3.81331619875e-09
5.62019439534e-09
2.62526239334e-11
3.87061525354e-09
5.76096778686e-09
-2.74257766811e-11
3.89103553195e-09
5.81070035319e-09
-7.69647762671e-11
3.8705935147e-09
5.76097856631e-09
-1.14254787962e-10
3.8133125535e-09
5.62021776992e-09
-1.32885412672e-10
3.71953584593e-09
5.39523081773e-09
-1.29342338629e-10
3.58923503554e-09
5.09499171398e-09
-1.03802315711e-10
3.42624542629e-09
4.73357731026e-09
-6.05665839821e-11
3.24259109869e-09
4.32928074922e-09
3.05580146044e-09
3.90169478823e-09
-1.37981199923e-12
7.03031303685e-11
3.11337730228e-09
4.00091936519e-09
7.6909902802e-14
1.19198950198e-10
3.29303293736e-09
4.44409057116e-09
1.46901764273e-10
3.4627167132e-09
4.8605239613e-09
1.49723412217e-10
3.61259399646e-09
5.23102819886e-09
1.27917912576e-10
3.73150898282e-09
5.53767134942e-09
8.54467218279e-11
3.81651645863e-09
5.76679497776e-09
2.9371454133e-11
3.86819096257e-09
5.90977148804e-09
-3.13831729003e-11
3.8865916099e-09
5.9601062904e-09
-8.75418944557e-11
3.86816583224e-09
5.90978477053e-09
-1.30156589407e-10
3.81649583726e-09
5.76682505244e-09
-1.52115272471e-10
3.73155009836e-09
5.53772419552e-09
-1.49377745287e-10
3.6127650651e-09
5.23110882641e-09
-1.21620920667e-10
3.46305218424e-09
4.86062863145e-09
-7.24956114166e-11
3.29339395314e-09
4.44415181023e-09
3.11337516178e-09
4.00073636563e-09
-1.76170865504e-12
7.97582364025e-11
3.05544100924e-09
3.99939277052e-09
-8.90321253624e-14
1.3320810557e-10
3.22350629e-09
4.44997048576e-09
1.62140487154e-10
3.37419241698e-09
4.87047138334e-09
1.63830979374e-10
3.5062672687e-09
5.24271543909e-09
1.39151936145e-10
3.61008533873e-09
5.54962671913e-09
9.25438843293e-11
3.68378391114e-09
5.7782857008e-09
3.15615727192e-11
3.72838366598e-09
5.92058321226e-09
-3.43392291587e-11
3.74423752659e-09
5.97047927443e-09
-9.5361276824e-11
3.72833759939e-09
5.92059590868e-09
-1.42030129838e-10
3.68371384814e-09
5.7783162051e-09
-1.6675519424e-10
3.61003321377e-09
5.54968426716e-09
-1.65039527908e-10
3.50628775759e-09
5.242809897e-09
-1.35960600474e-10
3.37432607075e-09
4.8706045516e-09
-8.22163497736e-11
3.22363849555e-09
4.45007394366e-09
3.05526134196e-09
3.99926602587e-09
-2.14134821807e-12
8.67705859808e-11
2.90290758346e-09
3.91175033653e-09
-2.30971423393e-13
1.43408121336e-10
3.05659864006e-09
4.36343740679e-09
1.72738372808e-10
3.18603678188e-09
4.78207810997e-09
1.73210020912e-10
3.29822967309e-09
5.15077898644e-09
1.46333907281e-10
3.38541223399e-09
5.4535999716e-09
9.69280043843e-11
3.44683313176e-09
5.67855619878e-09
3.28217069387e-11
3.48382769639e-09
5.81814947603e-09
-3.6290740262e-11
3.49693787315e-09
5.86687232543e-09
-1.00402207285e-10
3.48375068885e-09
5.81815687633e-09
-1.49803885749e-10
3.44669482988e-09
5.6785774189e-09
-1.76640876429e-10
3.38524172354e-09
5.45364712602e-09
-1.76055567386e-10
3.29806922332e-09
5.15086661899e-09
-1.46500806458e-10
3.18592828691e-09
4.78221354942e-09
-8.9508462321e-11
3.05644831355e-09
4.36355110326e-09
2.90247763078e-09
3.91164796674e-09
-2.51493083382e-12
9.13388580377e-11
2.67831652324e-09
3.75217219676e-09
-3.5081178288e-13
1.4977113771e-10
2.81644915979e-09
4.20065540912e-09
1.78791897842e-10
2.9243751352e-09
4.6134677546e-09
1.78084513402e-10
3.01639508387e-09
4.9751000993e-09
1.49730595588e-10
3.08693096157e-09
5.27092200767e-09
9.88056134044e-11
3.13624841333e-09
5.49001710576e-09
3.32263294719e-11
3.16581786842e-09
5.62555632996e-09
-3.73194324849e-11
3.17624527962e-09
5.67261237979e-09
-1.02877499437e-10
3.16570689168e-09
5.62555221521e-09
-1.53749087013e-10
3.13603612913e-09
5.49001612617e-09
-1.81998742577e-10
3.08663570408e-09
5.27093851813e-09
-1.82522547506e-10
3.01604604105e-09
4.97515304787e-09
-1.53212010764e-10
2.92400945696e-09
4.61357039897e-09
-9.43700880567e-11
2.81598589265e-09
4.20073787624e-09
2.67758875416e-09
3.75205267707e-09
-2.87856482687e-12
9.36295210181e-11
2.40361038119e-09
3.53419846649e-09
-4.52375288532e-13
1.52590850769e-10
2.52598597691e-09
3.97694721805e-09
1.80856086679e-10
2.61326372939e-09
4.38161133999e-09
1.79165519149e-10
2.68602850587e-09
4.73403185957e-09
1.50018648565e-10
2.7410325154e-09
5.02102873933e-09
9.86506241727e-11
2.77927712516e-09
5.23288354465e-09
3.29420801238e-11
2.80213240011e-09
5.3634972126e-09
-3.75999428751e-11
2.81012693946e-09
5.40856354099e-09
-1.0326686477e-10
2.80198997154e-09
5.36347429452e-09
-1.54543456579e-10
2.77899654239e-09
5.23284511726e-09
-1.83536052822e-10
2.74061957326e-09
5.0209904404e-09
-1.84987520528e-10
2.68549996979e-09
4.73401665778e-09
-1.56378277509e-10
2.61264576186e-09
4.38163971995e-09
-9.69569763503e-11
2.52520882311e-09
3.97695186727e-09
2.4025710025e-09
3.53401519398e-09
-3.2299644926e-12
9.4007363967e-11
2.09876440868e-09
3.27043777176e-09
-5.35316888102e-13
1.52714395407e-10
2.20529697716e-09
3.70651544258e-09
1.802574897e-10
2.27319178567e-09
4.10201100044e-09
1.77912148459e-10
2.32852897826e-09
4.44404943543e-09
1.48456132896e-10
2.37002793955e-09
4.72111158948e-09
9.73002015715e-11
2.39890385348e-09
4.92484640971e-09
3.22581077794e-11
2.41613675582e-09
5.04996550762e-09
-3.74242584785e-11
2.42209209648e-09
5.09282833649e-09
-1.02406873676e-10
2.41596721906e-09
5.04991640977e-09
-1.53439912212e-10
2.39856358788e-09
4.92475490451e-09
-1.82698550646e-10
2.36951535384e-09
4.72099312581e-09
-1.8475834319e-10
2.32784243485e-09
4.44393001299e-09
-1.56823583693e-10
2.27234285124e-09
4.10192063259e-09
-9.76116135478e-11
2.20421658509e-09
3.70639698883e-09
2.09740969168e-09
3.27015033811e-09
-3.54620517343e-12
9.3028209e-11
1.78093540808e-09
2.97240271249e-09
-6.04836876151e-13
1.51830799252e-10
1.87033483324e-09
3.4023349947e-09
1.79422876166e-10
1.92029175021e-09
3.78850322771e-09
1.7674456169e-10
1.96115376715e-09
4.11953356298e-09
1.47012410379e-10
1.99208196137e-09
4.38595778086e-09
9.60161607513e-11
2.01382638445e-09
4.58098780034e-09
3.16156622861e-11
2.02682445893e-09
4.70022666063e-09
-3.72288267325e-11
2.03121323925e-09
4.74074073156e-09
-1.01551561343e-10
2.02662995941e-09
4.70014572777e-09
-1.52390491576e-10
2.01343303507e-09
4.58083092534e-09
-1.81884496628e-10
1.99147986273e-09
4.38573801629e-09
-1.84232211156e-10
1.96033188602e-09
4.11927691987e-09
-1.56209959384e-10
1.91924315374e-09
3.78825017489e-09
-9.68651979549e-11
1.86898061727e-09
3.40205429318e-09
1.77930240101e-09
2.9719904384e-09
-3.83066953086e-12
8.5521618246e-11
2.65015825155e-09
-6.69055783909e-13
1.47104138597e-09
1.50468866947e-10
3.07584657817e-09
1.52895931775e-09
1.80567682228e-10
3.45262449027e-09
1.56611764012e-09
1.78210251394e-10
3.77229285368e-09
1.59731323242e-09
1.47952940341e-10
4.02773458966e-09
1.6214723714e-09
9.63687434926e-11
4.21379629914e-09
1.63878014918e-09
3.15686616386e-11
4.32698453078e-09
1.649143292e-09
-3.75544162592e-11
4.36508541812e-09
1.65252614124e-09
-1.02253707818e-10
4.32687170133e-09
1.64891564173e-09
-1.53638573348e-10
4.21357344407e-09
1.638322984e-09
-1.83603521414e-10
4.02741034169e-09
1.6207742624e-09
-1.85578052088e-10
3.77188747017e-09
1.59635876148e-09
-1.55004960287e-10
3.45218514805e-09
1.56488211466e-09
-8.9495286506e-11
3.07535226045e-09
1.5273638303e-09
2.64967006042e-09
-4.02439086737e-12
1.46914207866e-09
6.39971179501e-12
-1.46579201321e-11
5.21704218257e-10
2.42142381503e-14
1.15042820757e-11
-1.68170187203e-11
5.79018149521e-10
1.4447704505e-11
-1.84666863092e-11
6.34783209453e-10
1.48717720348e-11
-1.95801396732e-11
6.85810818231e-10
1.26963070581e-11
-2.0525785026e-11
7.29009842893e-10
8.40644468105e-12
-2.12577555943e-11
7.61865916584e-10
2.76465499278e-12
-2.17041708963e-11
7.82685841491e-10
-3.33343097208e-12
-2.18483719486e-11
7.90155565956e-10
-8.92862398086e-12
-2.16863005133e-11
7.82679296611e-10
-1.3145714132e-11
-2.12586473451e-11
7.61852348482e-10
-1.52743441556e-11
-2.05954848676e-11
7.28987780379e-10
-1.48642953314e-11
-1.97039486658e-11
6.85777070609e-10
-1.18858835842e-11
-1.84921067788e-11
6.34732422535e-10
-6.75070493486e-12
-1.68438890587e-11
5.78936927143e-10
-1.46305938516e-11
5.21553175263e-10
-2.26081921645e-13
1.57311008689e-11
1.71603442691e-11
1.40389267988e-09
1.11615019526e-13
2.87308638904e-11
1.91396242559e-11
1.55643257205e-09
3.64998069425e-11
2.32956486178e-11
1.70469648648e-09
3.77859800652e-11
2.84382620534e-11
1.84023100411e-09
3.24283978131e-11
3.31911945724e-11
1.9548884436e-09
2.15559472393e-11
3.69260315206e-11
2.04204573571e-09
7.10717394944e-12
3.93344275714e-11
2.09723360256e-09
-8.56286203101e-12
4.01999286552e-11
2.11699067294e-09
-2.29220612975e-11
3.93545936596e-11
2.09721474323e-09
-3.36586773972e-11
3.69098001188e-11
2.04200684955e-09
-3.89300286889e-11
3.30601291739e-11
1.95482547474e-09
-3.76508688611e-11
2.82104186447e-11
1.84013513783e-09
-2.98271737032e-11
2.31840812548e-11
1.70455233179e-09
-1.67101642974e-11
1.90853056508e-11
1.55620327839e-09
1.71544060254e-11
1.40349193555e-09
-6.36627747516e-13
2.23874969451e-11
1.06138403139e-10
2.12695356136e-09
2.11387292816e-13
4.12199176581e-11
1.19312623868e-10
2.35871545668e-09
5.26936011879e-11
1.36886912553e-10
2.58362477111e-09
5.47669941122e-11
1.55606281023e-10
2.78901409029e-09
4.71734410613e-11
1.72447933912e-10
2.96264905838e-09
3.14466755881e-11
1.85568363401e-10
3.09457053886e-09
1.03865777572e-11
1.9393443091e-10
3.17803126113e-09
-1.25107946406e-11
1.96898190213e-10
3.20783978323e-09
-3.34740515856e-11
1.93947680548e-10
3.17800239957e-09
-4.90579178768e-11
1.85534826382e-10
3.0945110045e-09
-5.65623620899e-11
1.72285580464e-10
2.96255277996e-09
-5.44846107242e-11
1.55339003083e-10
2.78886831955e-09
-4.29433768788e-11
1.3672695514e-10
2.58340742469e-09
-2.39251085784e-11
1.19244206395e-10
2.3583750215e-09
1.06052640411e-10
2.12637318545e-09
-1.00989285811e-12
2.74658411538e-11
2.34206847772e-10
2.71155101634e-09
2.95372838868e-13
5.07508972524e-11
2.62596459612e-10
3.00912914734e-09
6.51007272226e-11
2.97571171376e-10
3.2972131189e-09
6.78576767097e-11
3.33565805596e-10
3.55989529123e-09
5.86113098307e-11
3.65636692514e-10
3.78173311529e-09
3.9154691517e-11
3.90519435832e-10
3.9501424075e-09
1.29340753449e-11
4.06317676205e-10
4.05657306682e-09
-1.56342168729e-11
4.11889764761e-10
4.09449396235e-09
-4.17665729448e-11
4.06320508304e-10
4.05653660187e-09
-6.10941476996e-11
3.90474768114e-10
3.95006760919e-09
-7.02540137954e-11
3.65478817761e-10
3.7816127947e-09
-6.74723914546e-11
3.33312262276e-10
3.55971486981e-09
-5.30298089343e-11
2.9738587772e-10
3.29694787151e-09
-2.95135174468e-11
2.62484129223e-10
3.0087208635e-09
2.34034417193e-10
2.71086789788e-09
-1.37152357132e-12
3.16906652833e-11
3.81971672395e-10
3.16753303371e-09
3.51505177389e-13
5.84428994668e-11
4.26518660891e-10
3.51851487489e-09
7.499132991e-11
4.79331867529e-10
3.85719712739e-09
7.82620386538e-11
5.32790395029e-10
4.16536214887e-09
6.77046360257e-11
5.80069940411e-10
4.4252150229e-09
4.52798497958e-11
6.16610695726e-10
4.62225278931e-09
1.49279742944e-11
6.39743845504e-10
4.7466085984e-09
-1.81897433288e-11
6.47886120976e-10
4.79080304705e-09
-4.84634282252e-11
6.39742968123e-10
4.74656592787e-09
-7.07711353825e-11
6.16568368801e-10
4.62216597893e-09
-8.12365041845e-11
5.79932614115e-10
4.42507726577e-09
-7.79092704856e-11
5.32569326075e-10
4.16515974873e-09
-6.1227774077e-11
4.79149572681e-10
3.8569064541e-09
-3.42032344095e-11
4.26354008053e-10
3.518075618e-09
3.81723292097e-10
3.16680548763e-09
-1.72792414818e-12
3.54922766199e-11
5.30614471543e-10
3.50384081109e-09
3.7794169913e-13
6.4975800637e-11
5.89646638842e-10
3.89667765556e-09
8.31389838025e-11
6.57865894198e-10
4.27420621632e-09