/*--------------------------------*- C++ -*----------------------------------*\
  =========                 |
  \\      /  F ield         | OpenFOAM: The Open Source CFD Toolbox
   \\    /   O peration     | Website:  https://openfoam.org
    \\  /    A nd           | Version:  7
     \\/     M anipulation  |
\*---------------------------------------------------------------------------*/
FoamFile
{
    version     2.0;
    format      ascii;
    class       volVectorField;
    location    "0.26";
    object      U;
}
// * * * * * * * * * * * * * * * * * * * * * * * * * * * * * * * * * * * * * //

dimensions      [0 1 -1 0 0 0 0];

internalField   nonuniform List<vector> 
22500
(
(-5.87903075319e-06 -6.8143881452e-06 -8.18860689028e-06)
(-5.27256296051e-06 -7.85525459272e-06 -8.16233584224e-06)
(-4.49625842549e-06 -8.79564734341e-06 -7.81896928921e-06)
(-3.6893719071e-06 -9.55391482953e-06 -7.32906095012e-06)
(-2.81543714441e-06 -1.01496752128e-05 -6.82236363328e-06)
(-1.90684414327e-06 -1.05761407498e-05 -6.39552321328e-06)
(-9.71985123279e-07 -1.08334304691e-05 -6.11635188261e-06)
(-2.35798300494e-08 -1.09211228323e-05 -6.02467778984e-06)
(9.25303048954e-07 -1.08384885339e-05 -6.13151464796e-06)
(1.86155029038e-06 -1.05860685063e-05 -6.42577384487e-06)
(2.77233732568e-06 -1.01640785494e-05 -6.86751212263e-06)
(3.6490755106e-06 -9.57217153404e-06 -7.38884778133e-06)
(4.45964471992e-06 -8.81691994912e-06 -7.89329516667e-06)
(5.23906749332e-06 -7.87915773522e-06 -8.25194663674e-06)
(5.85254959138e-06 -6.83794194618e-06 -8.29578586466e-06)
(-1.79016428943e-05 -2.05852660747e-05 -4.37816136141e-05)
(-1.61141585871e-05 -2.36354299758e-05 -4.55950978383e-05)
(-1.3824324427e-05 -2.64141124033e-05 -4.63532001052e-05)
(-1.13634820661e-05 -2.86871300163e-05 -4.64619811372e-05)
(-8.69374201516e-06 -3.04816480865e-05 -4.62406588188e-05)
(-5.89659503283e-06 -3.17716306052e-05 -4.59267082861e-05)
(-3.00975337518e-06 -3.2552041051e-05 -4.56848003238e-05)
(-7.67270139102e-08 -3.281801866e-05 -4.5610681235e-05)
(2.85807703036e-06 -3.25668965636e-05 -4.57303171393e-05)
(5.7501608628e-06 -3.1800673908e-05 -4.60175789884e-05)
(8.55577618794e-06 -3.05234743254e-05 -4.6376422064e-05)
(1.12367072237e-05 -2.87396236495e-05 -4.66420486768e-05)
(1.37116165385e-05 -2.64743679378e-05 -4.65775215787e-05)
(1.60156230654e-05 -2.37016435043e-05 -4.58660870328e-05)
(1.78258534772e-05 -2.06505113968e-05 -4.41045647767e-05)
(-2.95329564212e-05 -3.36964380178e-05 -9.73224290904e-05)
(-2.66032939165e-05 -3.85683725973e-05 -0.000102644390386)
(-2.28905997619e-05 -4.30105317626e-05 -0.000106086106008)
(-1.88347048474e-05 -4.66752604893e-05 -0.000108200798884)
(-1.44265243787e-05 -4.95788328061e-05 -0.00010943009853)
(-9.79000802985e-06 -5.16737948987e-05 -0.000110100086118)
(-4.99586156209e-06 -5.29441744666e-05 -0.000110433661859)
(-1.2077314988e-07 -5.33774631022e-05 -0.000110558771722)
(4.75699013352e-06 -5.29679594153e-05 -0.000110509475208)
(9.55904622475e-06 -5.17202744684e-05 -0.000110251483996)
(1.42083588818e-05 -4.96457062219e-05 -0.000109656292347)
(1.86334816294e-05 -4.67590905575e-05 -0.000108500723839)
(2.27105243547e-05 -4.31066800348e-05 -0.000106459446216)
(2.64455827901e-05 -3.86736023651e-05 -0.000103094689125)
(2.94098703085e-05 -3.38013338145e-05 -9.78574126091e-05)
(-4.05585206629e-05 -4.59808296141e-05 -0.000166930812016)
(-3.65563600261e-05 -5.24382395308e-05 -0.000177056680119)
(-3.15225680766e-05 -5.83229660434e-05 -0.000184394388561)
(-2.5959288193e-05 -6.3205146974e-05 -0.000189588373927)
(-1.99021709796e-05 -6.70847677454e-05 -0.000193153969751)
(-1.35122959005e-05 -6.98921595327e-05 -0.00019546781925)
(-6.89477977476e-06 -7.15977571669e-05 -0.00019678325669)
(-1.60391209228e-07 -7.21796556847e-05 -0.000197243688731)
(6.57745026579e-06 -7.16287213563e-05 -0.000196886892656)
(1.32052192616e-05 -6.99526627365e-05 -0.000195675010456)
(1.96117586053e-05 -6.71717761842e-05 -0.000193463817503)
(2.56910709344e-05 -6.33141572067e-05 -0.000189999534665)
(3.12819656299e-05 -5.84479338969e-05 -0.00018490635275)
(3.6345790945e-05 -5.25748628597e-05 -0.000177673987046)
(4.03922309223e-05 -4.61181827427e-05 -0.000167663622176)
(-5.07786815407e-05 -5.72616038472e-05 -0.000249922795635)
(-4.57882085317e-05 -6.50328695613e-05 -0.00026566647437)
(-3.95428132494e-05 -7.21022214745e-05 -0.000277636608944)
(-3.25838759829e-05 -7.79896807932e-05 -0.000286551210129)
(-2.49976201732e-05 -8.26780491214e-05 -0.000292975545528)
(-1.69772157202e-05 -8.60786013902e-05 -0.000297318491761)
(-8.66122343013e-06 -8.81476700907e-05 -0.000299850882492)
(-1.93385426994e-07 -8.88536855699e-05 -0.000300724330238)
(8.27848369036e-06 -8.81841200255e-05 -0.000299979157441)
(1.66064849648e-05 -8.61498496496e-05 -0.000297575304276)
(2.46464790987e-05 -8.27805402905e-05 -0.000293360070942)
(3.22589769655e-05 -7.81181566076e-05 -0.000287061995193)
(3.9250521268e-05 -7.2249649558e-05 -0.000278272973875)
(4.55319781749e-05 -6.51942358638e-05 -0.000266433954342)
(5.05736498698e-05 -5.74251743761e-05 -0.000250834338952)
(-6.00136400057e-05 -6.73716821528e-05 -0.000343171169398)
(-5.41236705493e-05 -7.61564814693e-05 -0.000364840142346)
(-4.67839984755e-05 -8.41246624122e-05 -0.000381688315329)
(-3.85627713574e-05 -9.07768876763e-05 -0.000394524619196)
(-2.95961123702e-05 -9.60813945107e-05 -0.000403963700476)
(-2.01033708603e-05 -9.9936052314e-05 -0.000410446051912)
(-1.02533087091e-05 -0.000102284285234 -0.000414260085599)
(-2.19535635063e-07 -0.000103085643702 -0.000415566504579)
(9.81863218177e-06 -0.000102324521797 -0.000414409496155)
(1.96818171144e-05 -0.000100014764836 -0.00041074557519)
(2.91960351936e-05 -9.61947532343e-05 -0.000404412741254)
(3.81916213753e-05 -9.09192139303e-05 -0.000395121725702)
(4.64487871979e-05 -8.42883776548e-05 -0.000382432618191)
(5.38286796007e-05 -7.63361915983e-05 -0.000365738286129)
(5.97742744293e-05 -6.75554372581e-05 -0.000344239510497)
(-6.81230351894e-05 -7.61782734947e-05 -0.00044341550852)
(-6.14225611221e-05 -8.56582737698e-05 -0.000470855826778)
(-5.31124081651e-05 -9.42241859321e-05 -0.000492396159375)
(-4.3779315508e-05 -0.000101384640968 -0.000508978775916)
(-3.3604346741e-05 -0.00010709866555 -0.000521282293643)
(-2.28259868007e-05 -0.000111257324868 -0.000529788512235)
(-1.16381289625e-05 -0.000113793406439 -0.000534810628503)
(-2.39547837965e-07 -0.000114658982737 -0.000536523546794)
(1.11636005968e-05 -0.00011383587431 -0.000534977783572)
(2.23651241057e-05 -0.000111340500146 -0.000530123993626)
(3.31659180606e-05 -0.000107218670027 -0.000521785806973)
(4.33712585783e-05 -0.000101535679596 -0.000509648884572)
(5.27420975706e-05 -9.4398529995e-05 -0.000493231715675)
(6.10949220878e-05 -8.58504355906e-05 -0.000471864759382)
(6.78533853421e-05 -7.63765763391e-05 -0.000444618072123)
(-7.50084176777e-05 -8.35873563622e-05 -0.000547529036671)
(-6.75853265014e-05 -9.34362581126e-05 -0.000580217527214)
(-5.84337506483e-05 -0.000102294452613 -0.00060593864734)
(-4.81518357699e-05 -0.000109701808778 -0.00062582227121)
(-3.69574972392e-05 -0.000115614973885 -0.000640629337283)
(-2.51004128211e-05 -0.0001199244703 -0.000650893515542)
(-1.27933595007e-05 -0.000122555113399 -0.000656960167897)
(-2.54574738387e-07 -0.00012345316958 -0.000659023397098)
(1.22887993726e-05 -0.000122598487773 -0.000657142155644)
(2.46096097105e-05 -0.000120009547814 -0.000651259101587)
(3.64893461721e-05 -0.000115738015079 -0.000641178509708)
(4.77145016484e-05 -0.000109857156848 -0.000626553520645)
(5.8034742315e-05 -0.000102474549604 -0.000606850383896)
(6.72300822373e-05 -9.36357425213e-05 -0.000581319177593)
(7.47119669147e-05 -8.37952281947e-05 -0.000548844920232)
(-8.06090041357e-05 -8.95398989349e-05 -0.000652703765394)
(-7.2550748681e-05 -9.94312954452e-05 -0.000689859594952)
(-6.26917011538e-05 -0.000108280163558 -0.000719047311476)
(-5.16329607e-05 -0.000115677276 -0.000741635813029)
(-3.9618794559e-05 -0.000121583708053 -0.000758478418162)
(-2.69017801568e-05 -0.000125894225754 -0.000770163646661)
(-1.37069370369e-05 -0.000128528151679 -0.000777071074379)
(-2.6590969728e-07 -0.000129427681419 -0.000779415705268)
(1.31796194582e-05 -0.000128571346893 -0.000777265665291)
(2.63879813457e-05 -0.000125979102432 -0.000770554812519)
(3.9127322143e-05 -0.000121706812179 -0.000759066357859)
(5.11720072202e-05 -0.000115833293876 -0.000742418789791)
(6.22687472577e-05 -0.000108461961225 -0.000720023080202)
(7.21716598537e-05 -9.96338315286e-05 -0.00069103935643)
(8.02884505648e-05 -8.97531048026e-05 -0.000654115706893)
(-8.48966902252e-05 -9.40075697037e-05 -0.000756538996611)
(-7.62920548669e-05 -0.000103620706158 -0.000797230884638)
(-6.58647276446e-05 -0.000112168292714 -0.00082908514718)
(-5.42069783638e-05 -0.000119309272354 -0.000853741363632)
(-4.15771955151e-05 -0.000125014015436 -0.000872135859502)
(-2.82231451854e-05 -0.000129183833302 -0.000884901999375)
(-1.43759483208e-05 -0.000131734586426 -0.000892447705074)
(-2.7478860825e-07 -0.000132606224624 -0.000895006050595)
(1.38307108958e-05 -0.000131776722774 -0.000892653388469)
(2.76909625606e-05 -0.000129266800201 -0.000885315664069)
(4.10666393345e-05 -0.000125134756869 -0.000872757852709)
(5.37261281249e-05 -0.000119462988351 -0.000854569562851)
(6.54209347246e-05 -0.000112348474685 -0.000830116427281)
(7.58915782157e-05 -0.000103822801421 -0.000798478614405)
(8.45538247157e-05 -9.42226099157e-05 -0.00075803483231)
(-8.78710649626e-05 -9.69894100209e-05 -0.000857033721598)
(-7.88125012407e-05 -0.000106012016455 -0.000900270352758)
(-6.79620794406e-05 -0.000113980472454 -0.000934007726391)
(-5.58858193843e-05 -0.000120636840668 -0.000960144148509)
(-4.28434303125e-05 -0.000125960785247 -0.000979661471957)
(-2.90722766939e-05 -0.000129859349758 -0.000993214304307)
(-1.480478878e-05 -0.00013224684848 -0.00100122603251)
(-2.82257206713e-07 -0.000133063328317 -0.00100394114729)
(1.4244403845e-05 -0.000132287193162 -0.00100144191349)
(2.8524335667e-05 -0.000129938976341 -0.000993648675808)
(4.23161662497e-05 -0.000126077125856 -0.00098031486266)
(5.53871025261e-05 -0.000120785752411 -0.000961013975106)
(6.7499083758e-05 -0.000114156246042 -0.000935089750009)
(7.83918500349e-05 -0.000106210763384 -0.000901580597304)
(8.75067141554e-05 -9.72033356297e-05 -0.000858607185748)
(-8.95516358887e-05 -9.8503738627e-05 -0.000952488792763)
(-8.01402471658e-05 -0.000106633038935 -0.000997299982603)
(-6.90194867522e-05 -0.000113766147842 -0.00103224867631)
(-5.67037660807e-05 -0.000119734431991 -0.00105939842265)
(-4.34443455402e-05 -0.000124518366635 -0.00107971101401)
(-2.94670630622e-05 -0.000128027736436 -0.00109383176104)
(-1.50026266013e-05 -0.000130178619955 -0.00110218380261)
(-2.89107358172e-07 -0.00013091479483 -0.00110501461606)
(1.44283041773e-05 -0.000130216535386 -0.00110240938465)
(2.89044858906e-05 -0.000128102762757 -0.00109428595671)
(4.29013428597e-05 -0.000124628490807 -0.00108039477637)
(5.61879331514e-05 -0.000119876288161 -0.00106030885597)
(6.85378048309e-05 -0.000113934992691 -0.00103338012268)
(7.96996926547e-05 -0.000106825802157 -0.000998671250521)
(8.91657882432e-05 -9.87137924019e-05 -0.000954138996331)
(-8.99707534744e-05 -9.85591762942e-05 -0.00104131864404)
(-8.03320754011e-05 -0.000105520334369 -0.00108687743126)
(-6.90989655869e-05 -0.000111604361534 -0.00112258239282)
(-5.67113521639e-05 -0.000116715763992 -0.00115044806099)
(-4.34153067149e-05 -0.000120822525324 -0.00117135204123)
(-2.94295723482e-05 -0.000123836697672 -0.00118590832361)
(-1.49802860008e-05 -0.00012568350787 -0.00119452664523)
(-2.95858265896e-07 -0.000126316067922 -0.00119744933417)
(1.43922209845e-05 -0.00012571841507 -0.00119476149124)
(2.88525257293e-05 -0.000123905970556 -0.00118638173828)
(4.2856663182e-05 -0.000120924718325 -0.001172066003)
(5.61783886262e-05 -0.000116848397705 -0.00115140004507)
(6.85984774167e-05 -0.000111763815742 -0.00112376501007)
(7.98713989818e-05 -0.000105704587189 -0.00108831063383)
(8.95632058945e-05 -9.87623739465e-05 -0.00104304571394)
(-8.92332693478e-05 -9.71700740038e-05 -0.00112175637305)
(-7.9513916583e-05 -0.000102789868383 -0.00116770554863)
(-6.82900618652e-05 -0.000107644890898 -0.00120402696808)
(-5.5961383364e-05 -0.000111759723719 -0.00123248168117)
(-4.27873137565e-05 -0.000115061043055 -0.00125388868212)
(-2.89776606477e-05 -0.000117476517269 -0.00126882804653)
(-1.47463086239e-05 -0.00011895279763 -0.00127768606589)
(-3.02770869711e-07 -0.000119458790374 -0.00128069237154)
(1.41441923214e-05 -0.000118984190764 -0.00127792927851)
(2.83858883945e-05 -0.000117538988862 -0.00126931930491)
(4.22128246128e-05 -0.00011515369194 -0.00125463206055)
(5.54111055642e-05 -0.00011188099151 -0.00123347688806)
(6.77705705058e-05 -0.000107792490475 -0.00120526564424)
(7.90328864581e-05 -0.000102963054742 -0.00116920398497)
(8.8803003026e-05 -9.73643652405e-05 -0.00112355515471)
(-8.75939628549e-05 -9.50734758447e-05 -0.00119140378855)
(-7.78690477206e-05 -9.86413391568e-05 -0.00123881141215)
(-6.6643137124e-05 -0.00010213007898 -0.00127573710264)
(-5.44846637769e-05 -0.000105066337301 -0.00130475411061)
(-4.15847414625e-05 -0.00010739618266 -0.00132667516918)
(-2.81309352781e-05 -0.000109085277531 -0.00134202449836)
(-1.431190875e-05 -0.00011011220028 -0.0013511445995)
(-3.09866814672e-07 -0.000110464860216 -0.00135424204499)
(1.36954371743e-05 -0.000110139328581 -0.0013513937343)
(2.75242855165e-05 -0.000109139421268 -0.00134252905262)
(4.09944683507e-05 -0.000107476907144 -0.00132744237826)
(5.39173343335e-05 -0.000105172937501 -0.00130578903335)
(6.6105047314e-05 -0.000102261460628 -0.00127703359015)
(7.73691804097e-05 -9.87988691174e-05 -0.00124039464525)
(8.71393301106e-05 -9.52534265311e-05 -0.00119323174754)
(8.86635364646e-08 1.48234650428e-07 -2.41172202584e-05)
(3.15695893276e-08 2.1111842498e-07 -2.50204402512e-05)
(-1.44770155958e-08 2.50027705961e-07 -2.56478731946e-05)
(-4.16506855353e-08 2.69146990014e-07 -2.60842880983e-05)
(-5.19212953155e-08 2.75643898647e-07 -2.63834457282e-05)
(-4.52486772389e-08 2.75120904556e-07 -2.65778499422e-05)
(-2.62588198338e-08 2.726523625e-07 -2.66883226017e-05)
(-7.01817022458e-10 2.71619840444e-07 -2.67261552062e-05)
(2.4859009005e-08 2.73204477819e-07 -2.66920922939e-05)
(4.39719347784e-08 2.7635699857e-07 -2.65853839693e-05)
(5.13009764221e-08 2.7787856161e-07 -2.63947843465e-05)
(4.26626993588e-08 2.72768326274e-07 -2.60996428118e-05)
(1.7972825766e-08 2.554899086e-07 -2.56678841069e-05)
(-2.52958113268e-08 2.18585837037e-07 -2.50471674792e-05)
(-8.13436631221e-08 1.56448241589e-07 -2.41569155355e-05)
(7.29529292775e-07 9.43189606062e-07 -7.69131492202e-05)
(5.6508037667e-07 1.19869289088e-06 -8.00212853841e-05)
(4.04205552433e-07 1.39551908308e-06 -8.22748635948e-05)
(2.73437961432e-07 1.53484792133e-06 -8.39018741489e-05)
(1.70540642959e-07 1.62856364236e-06 -8.50528183536e-05)
(9.71611364174e-08 1.68613597215e-06 -8.58206223892e-05)
(4.56715799963e-08 1.71690883499e-06 -8.62638902345e-05)
(5.89130488503e-09 1.72711353186e-06 -8.64141532257e-05)
(-3.40967372832e-08 1.71887780368e-06 -8.62758893522e-05)
(-8.60409837675e-08 1.69024904314e-06 -8.58445905841e-05)
(-1.59465607103e-07 1.63526254074e-06 -8.50888513053e-05)
(-2.61140766415e-07 1.54463255378e-06 -8.39505378747e-05)
(-3.89417656573e-07 1.40889166061e-06 -8.23379377172e-05)
(-5.47436945414e-07 1.21562166265e-06 -8.01046286955e-05)
(-7.11915942825e-07 9.61092022604e-07 -7.70315164714e-05)
(1.75278997046e-06 2.13478039106e-06 -0.000133850752589)
(1.47765108144e-06 2.62455322987e-06 -0.000139544556755)
(1.17745104818e-06 3.02948813308e-06 -0.000143779477933)
(8.98856354029e-07 3.34089498966e-06 -0.000146906056688)
(6.42482750109e-07 3.56979024017e-06 -0.00014915793181)
(4.13735170457e-07 3.72429173928e-06 -0.00015068152289)
(2.06217071856e-07 3.81364505598e-06 -0.000151568471751)
(1.02302711376e-08 3.84409148101e-06 -0.000151868006234)
(-1.86012605885e-07 3.81777370234e-06 -0.000151589227736)
(-3.94053651163e-07 3.73280089067e-06 -0.000150722943677)
(-6.22748982199e-07 3.58316087033e-06 -0.000149220102654)
(-8.77404867103e-07 3.35952257566e-06 -0.000146989750851)
(-1.15252713829e-06 3.05344264102e-06 -0.000143887242486)
(-1.44879298567e-06 2.65312562416e-06 -0.000139684918473)
(-1.72386681853e-06 2.16463579817e-06 -0.000134044717128)
(2.99556760235e-06 3.55315422647e-06 -0.000194449598188)
(2.60589217059e-06 4.27777725245e-06 -0.000203042884983)
(2.1527931009e-06 4.89674373666e-06 -0.000209554389193)
(1.70179498225e-06 5.38830515115e-06 -0.000214440041019)
(1.25794762985e-06 5.76133997221e-06 -0.000218003519518)
(8.31658339393e-07 6.02081477406e-06 -0.000220437644769)
(4.20178430611e-07 6.17426539729e-06 -0.000221862575374)
(1.70444742684e-08 6.22680812914e-06 -0.000222342911642)
(-3.86412541822e-07 6.18017697191e-06 -0.000221892534962)
(-7.98617988559e-07 6.03284589015e-06 -0.000220497369559)
(-1.22521918741e-06 5.77981654873e-06 -0.000218092984888)
(-1.66786779223e-06 5.41336350925e-06 -0.000214559987729)
(-2.11597671538e-06 4.92801649463e-06 -0.000209707585685)
(-2.56577065693e-06 4.31409397085e-06 -0.000203239210798)
(-2.95633982941e-06 3.59098638913e-06 -0.000194713653539)
(4.30445387056e-06 5.02458934052e-06 -0.000258223817291)
(3.79603312706e-06 5.95126653229e-06 -0.000269960798337)
(3.18547122871e-06 6.75481116273e-06 -0.000278978990258)
(2.55433443738e-06 7.40087672923e-06 -0.000285828259231)
(1.91303165629e-06 7.89736522248e-06 -0.000290870913283)
(1.27726519505e-06 8.24674791809e-06 -0.000294339359676)
(6.48612398092e-07 8.45510148072e-06 -0.000296378005258)
(2.44770245958e-08 8.52653969131e-06 -0.000297064618866)
(-6.00034793553e-07 8.46244027591e-06 -0.000296417632029)
(-1.22961007482e-06 8.26154479688e-06 -0.000294418255812)
(-1.8661364705e-06 7.91973494264e-06 -0.000290988795509)
(-2.50703224629e-06 7.43066108954e-06 -0.000285985520841)
(-3.13636261256e-06 6.79126024697e-06 -0.000279178012711)
(-3.74478509484e-06 5.99292081082e-06 -0.000270211833836)
(-4.25524592733e-06 5.06794750643e-06 -0.000258553413505)
(5.56667710975e-06 6.42371709902e-06 -0.000324680818259)
(4.93676253743e-06 7.4995431458e-06 -0.000339732662783)
(4.17212136503e-06 8.43659598935e-06 -0.000351418963797)
(3.36632166776e-06 9.19152892344e-06 -0.000360378536653)
(2.53546469862e-06 9.77347991622e-06 -0.000367022808343)
(1.69993161092e-06 1.0184364358e-05 -0.000371617212334)
(8.65166542608e-07 1.04299965432e-05 -0.000374326136736)
(3.18189516397e-08 1.05142241553e-05 -0.000375238221177)
(-8.01931550932e-07 1.0438340289e-05 -0.000374375954256)
(-1.63775014982e-06 1.02010831276e-05 -0.000371716256131)
(-2.47442422307e-06 9.79849870259e-06 -0.000367170349338)
(-3.30564731817e-06 9.22443888442e-06 -0.000360574256742)
(-4.11077856236e-06 8.47635605184e-06 -0.000351664258629)
(-4.87454395315e-06 7.54458541758e-06 -0.000340037516221)
(-5.50751383403e-06 6.4706872639e-06 -0.000325073114949)
(6.69761714835e-06 7.65789698868e-06 -0.00039332398977)
(5.94661295293e-06 8.81951078974e-06 -0.000411787314577)
(5.03870925406e-06 9.82781943157e-06 -0.000426234140563)
(4.07451769324e-06 1.06364714665e-05 -0.000437393583779)
(3.07548718911e-06 1.1258058013e-05 -0.00044571813271)
(2.06533501634e-06 1.16962396164e-05 -0.000451499423108)
(1.05222233442e-06 1.19579654369e-05 -0.000454917072696)
(3.87828997564e-08 1.20476894911e-05 -0.000456067894158)
(-9.75061914569e-07 1.19669038076e-05 -0.000454977681706)
(-1.9892929342e-06 1.17140759659e-05 -0.00045161974924)
(-3.00086582032e-06 1.12845719553e-05 -0.000445896794024)
(-4.00092444439e-06 1.06710724014e-05 -0.000437629169328)
(-4.96547527064e-06 9.86928455965e-06 -0.000426526514013)
(-5.87366801883e-06 8.86626094058e-06 -0.000412145849837)
(-6.62857459186e-06 7.70688209643e-06 -0.0003937775955)
(7.63842990901e-06 8.66384747979e-06 -0.000463652574574)
(6.77122498691e-06 9.84558879779e-06 -0.000485548250714)
(5.73763509759e-06 1.08608156737e-05 -0.000502780317131)
(4.63967327613e-06 1.16672580012e-05 -0.000516175155248)
(3.5031272385e-06 1.22826126556e-05 -0.000526218442579)
(2.35328413306e-06 1.2714206272e-05 -0.000533219966597)
(1.19957206813e-06 1.29711930733e-05 -0.000537368735219)
(4.5210587884e-08 1.30592746345e-05 -0.000538766332149)
(-1.10953855054e-06 1.29803524548e-05 -0.000537440822277)
(-2.26437185006e-06 1.27324354408e-05 -0.000533362911521)
(-3.41580714436e-06 1.23095971667e-05 -0.000526430008919)
(-4.55389146475e-06 1.1702293301e-05 -0.000516452471228)
(-5.65307655136e-06 1.09025975544e-05 -0.000503121237963)
(-6.68793477787e-06 9.89260521044e-06 -0.000485961484851)
(-7.55967660949e-06 8.71345525946e-06 -0.000464167612597)
(8.35480700081e-06 9.40624752672e-06 -0.000535150263188)
(7.38141017606e-06 1.05468496494e-05 -0.000560420435563)
(6.24528964599e-06 1.15098467304e-05 -0.000580396590438)
(5.04382867543e-06 1.22640575018e-05 -0.000596013209731)
(3.80565347838e-06 1.28330868255e-05 -0.000607778725832)
(2.55571212184e-06 1.32289739796e-05 -0.000616010430658)
(1.30328508614e-06 1.34635335292e-05 -0.000620899237086)
(5.10020387101e-08 1.35439400388e-05 -0.000622547293552)
(-1.20163659269e-06 1.34725905222e-05 -0.000620983611931)
(-2.45513761826e-06 1.3246971457e-05 -0.000616177569562)
(-3.70674168447e-06 1.28596636472e-05 -0.000608025408681)
(-4.94680347122e-06 1.22984663623e-05 -0.000596334815214)
(-6.15014656778e-06 1.15507827209e-05 -0.000580788589311)
(-7.28832752809e-06 1.05929491515e-05 -0.000560890885684)
(-8.26665820984e-06 9.4553166706e-06 -0.000535728895249)
(8.83374374381e-06 9.87412580042e-06 -0.000607258867628)
(7.76916331855e-06 1.09212650517e-05 -0.000635760299714)
(6.55762704461e-06 1.17829212384e-05 -0.000658377000774)
(5.28596640673e-06 1.24450383355e-05 -0.000676160213776)
(3.98374029583e-06 1.29369444747e-05 -0.000689623705766)
(2.67379874533e-06 1.32753800008e-05 -0.000699077499039)
(1.36415200473e-06 1.34745347827e-05 -0.000704705043896)
(5.60855613809e-08 1.35428723807e-05 -0.000706604017123)
(-1.25229190511e-06 1.34832081599e-05 -0.000704802805467)
(-2.56292008495e-06 1.32926062072e-05 -0.000699271019345)
(-3.87449446192e-06 1.29623648283e-05 -0.000689908616558)
(-5.17878745208e-06 1.24779256811e-05 -0.000676529840039)
(-6.45276843068e-06 1.18220476739e-05 -0.000658824076513)
(-7.66695224167e-06 1.09654764639e-05 -0.000636292426083)
(-8.73667151891e-06 9.9217192259e-06 -0.000607905645442)
(9.07916673049e-06 1.00757628285e-05 -0.000679330362781)
(7.94253234922e-06 1.09882618718e-05 -0.000710826461754)
(6.68494476575e-06 1.17119553745e-05 -0.000735928440998)
(5.37707086414e-06 1.22542757381e-05 -0.000755795240041)
(4.04725901721e-06 1.26490656936e-05 -0.00077091520455)
(2.7149003106e-06 1.29166458215e-05 -0.000781571701231)
(1.38606862397e-06 1.30726640352e-05 -0.000787930155187)
(6.04213648597e-08 1.31263288301e-05 -0.000790078431071)
(-1.26548308048e-06 1.30807136896e-05 -0.000788042595117)
(-2.59516305141e-06 1.29326387969e-05 -0.000781794172897)
(-3.92903215443e-06 1.267269204e-05 -0.000771242143226)
(-5.26092418896e-06 1.22848917356e-05 -0.000756217750488)
(-6.57132435165e-06 1.17484873333e-05 -0.000736436212216)
(-7.83193060339e-06 1.10298000732e-05 -0.00071142694704)
(-8.97372379557e-06 1.01211793558e-05 -0.000680052697022)
(9.10685494863e-06 1.00331468624e-05 -0.00075054587297)
(7.92040123275e-06 1.07809134706e-05 -0.000784710046426)
(6.64697295326e-06 1.13431441812e-05 -0.000812120514162)
(5.33565215347e-06 1.17505810432e-05 -0.00083398406756)
(4.01151545483e-06 1.20391753238e-05 -0.000850715936235)
(2.68983065253e-06 1.2230682365e-05 -0.000862552319706)
(1.37460321725e-06 1.23408241978e-05 -0.000869631304416)
(6.39929657724e-08 1.23789248287e-05 -0.00087202638852)
(-1.24681446764e-06 1.23480378089e-05 -0.000869759801893)
(-2.5627225147e-06 1.22450472642e-05 -0.000862806577612)
(-3.8857058015e-06 1.20604646807e-05 -0.000851089372388)
(-5.21177629948e-06 1.17783011246e-05 -0.000834465609009)
(-6.5256059129e-06 1.13764337264e-05 -0.000812696452166)
(-7.80218162056e-06 1.08191454257e-05 -0.000785387756464)
(-8.99364177148e-06 1.00757582298e-05 -0.000751354195512)
(8.93877251795e-06 9.77406354698e-06 -0.000819780489606)
(7.72823228861e-06 1.03376540913e-05 -0.000856257272933)
(6.46931413985e-06 1.07286273872e-05 -0.000885847333747)
(5.18431922938e-06 1.09985261791e-05 -0.000909649023081)
(3.89429555811e-06 1.11819841729e-05 -0.000927958414172)
(2.61069832019e-06 1.12993899009e-05 -0.000940954589367)
(1.33587680101e-06 1.13652530207e-05 -0.000948744088276)
(6.679765359e-08 1.13882771538e-05 -0.000951383398417)
(-1.20240665947e-06 1.13714590957e-05 -0.000948889909771)
(-2.47771435132e-06 1.13117912314e-05 -0.0009412434332)
(-3.76233181114e-06 1.12004653277e-05 -0.000928383219397)
(-5.05400537759e-06 1.10227927824e-05 -0.000910197038949)
(-6.3412937231e-06 1.07581222585e-05 -0.000886501037102)
(-7.60327891745e-06 1.03720527225e-05 -0.000857022692567)
(-8.81849443597e-06 9.81326884275e-06 -0.000820685917462)
(8.60285651701e-06 9.32666343881e-06 -0.000885378523039)
(7.3995179968e-06 9.70450864403e-06 -0.000924056800016)
(6.18270699512e-06 9.92443693108e-06 -0.000955848268971)
(4.94733280228e-06 1.00649250238e-05 -0.000981567561784)
(3.71340940451e-06 1.01518135929e-05 -0.0010014280895)
(2.48921738863e-06 1.02020011224e-05 -0.00101556475522)
(1.27568967602e-06 1.02279306578e-05 -0.00102405411367)
(6.88502046841e-08 1.02373674595e-05 -0.00102693455012)
(-1.13805774764e-06 1.0233009986e-05 -0.00102421802262)
(-2.35189785554e-06 1.02122071167e-05 -0.00101589018134)
(-3.57682095495e-06 1.01671586758e-05 -0.00100190857182)
(-4.81201455905e-06 1.00853502329e-05 -0.00098219025622)
(-6.04929830384e-06 9.94972019715e-06 -0.00095659220773)
(-7.26891694593e-06 9.73475690257e-06 -0.000924922248986)
(-8.47635457595e-06 9.36232209849e-06 -0.00088638858005)
(8.13029881866e-06 8.79305672167e-06 -0.000944988705017)
(6.97548892993e-06 8.91633282893e-06 -0.000986896651681)
(5.81296258967e-06 8.98087460645e-06 -0.00102086808527)
(4.64326100324e-06 9.005517477e-06 -0.00104842092751)
(3.48206955122e-06 9.00651051974e-06 -0.00106977005967)
(2.33396631102e-06 8.99750028499e-06 -0.00108500893458)
(1.19832598501e-06 8.98853796453e-06 -0.00109417785808)
(7.01339386289e-08 8.9860822346e-06 -0.00109729280183)
(-1.05809176675e-06 8.99235623746e-06 -0.00109435891509)
(-2.19395172631e-06 9.0052194389e-06 -0.00108536955002)
(-3.34261930245e-06 9.01829031568e-06 -0.0010703057716)
(-4.50482420711e-06 9.0215113407e-06 -0.00104912192079)
(-5.67601495767e-06 9.00126125168e-06 -0.00102171247872)
(-6.84107740347e-06 8.94171811576e-06 -0.000987887919304)
(-7.99860267606e-06 8.82434627807e-06 -0.00094608044588)
(-5.04348133293e-08 -8.13838232143e-08 -3.39261604616e-05)
(-2.53566185689e-08 -1.12571558677e-07 -3.52798518136e-05)
(-8.37345493183e-09 -1.32198297042e-07 -3.62883700736e-05)
(3.16994977006e-09 -1.44463272912e-07 -3.70442777218e-05)
(9.20261314481e-09 -1.51587104255e-07 -3.75973610732e-05)
(1.01264242216e-08 -1.55194055524e-07 -3.79769002228e-05)
(7.4331562626e-09 -1.56682171049e-07 -3.82003838298e-05)
(2.84823520375e-09 -1.5699214277e-07 -3.82768966846e-05)
(-1.77245513934e-09 -1.56477415562e-07 -3.82053957508e-05)
(-4.64101339814e-09 -1.54887686833e-07 -3.79869118003e-05)
(-4.28972968085e-09 -1.51405165536e-07 -3.76123734321e-05)
(4.4570871618e-10 -1.44705575843e-07 -3.70644170038e-05)
(1.01718523671e-08 -1.33075279415e-07 -3.63141874634e-05)
(2.51846411124e-08 -1.14370725028e-07 -3.53135144461e-05)
(4.88973066606e-08 -8.36697585541e-08 -3.39749632921e-05)
(-1.99741316359e-07 -2.95664948713e-07 -0.000104634110774)
(-1.33330265593e-07 -3.8488645705e-07 -0.000108902334057)
(-8.34972084172e-08 -4.47200285592e-07 -0.000112127556604)
(-4.65544934032e-08 -4.89754637814e-07 -0.000114559480054)
(-2.17181083779e-08 -5.17415081033e-07 -0.000116345195167)
(-7.76054885177e-09 -5.33783911859e-07 -0.000117573248374)
(-1.54177170301e-09 -5.4204016716e-07 -0.000118296562659)
(6.52916604583e-10 -5.44320364502e-07 -0.000118542545133)
(2.9489991692e-09 -5.4140600254e-07 -0.000118312511111)
(9.40030446372e-09 -5.32659225245e-07 -0.000117605067686)
(2.33955954282e-08 -5.16122865184e-07 -0.000116392799255)
(4.76114901678e-08 -4.88691790882e-07 -0.000114623072675)
(8.34668224682e-08 -4.46460070281e-07 -0.000112208509906)
(1.32212369055e-07 -3.8493546963e-07 -0.000109006660628)
(1.98115783394e-07 -2.95832468742e-07 -0.000104778708426)
(-4.02239444087e-07 -5.45440532186e-07 -0.000177459545156)
(-2.97347662871e-07 -6.91692473305e-07 -0.000184821135231)
(-2.10657179619e-07 -8.01085880095e-07 -0.00019043370952)
(-1.41036436829e-07 -8.80390156439e-07 -0.000194686830275)
(-8.75730927748e-08 -9.3520785945e-07 -0.00019781873585)
(-4.86412819358e-08 -9.70123811543e-07 -0.000199976079658)
(-2.01610557842e-08 -9.89154500202e-07 -0.00020124702965)
(2.81656655941e-09 -9.95040819497e-07 -0.000201677619956)
(2.58208655069e-08 -9.88797682189e-07 -0.00020127406694)
(5.42531840432e-08 -9.69636075433e-07 -0.00020002998012)
(9.26044205496e-08 -9.35035091836e-07 -0.000197899268755)
(1.44366464466e-07 -8.80991234307e-07 -0.000194794156719)
(2.11320103171e-07 -8.02599700903e-07 -0.00019056965778)
(2.95109181598e-07 -6.94432210938e-07 -0.000184994287361)
(3.98259586153e-07 -5.48640506504e-07 -0.000177693694701)
(-6.1142196954e-07 -7.95417872503e-07 -0.00025191240288)
(-4.73972443356e-07 -9.88238261052e-07 -0.000262492312533)
(-3.53422535568e-07 -1.13746217412e-06 -0.000270615943692)
(-2.51889304445e-07 -1.24858077755e-06 -0.000276799303596)
(-1.68496426884e-07 -1.32742927934e-06 -0.000281364502323)
(-1.01485853791e-07 -1.37907673256e-06 -0.000284513868881)
(-4.63491983098e-08 -1.40800074595e-06 -0.000286369937127)
(2.49351660225e-09 -1.41724098419e-06 -0.000286997335303)
(5.13467560727e-08 -1.40790591354e-06 -0.000286408379618)
(1.06380682756e-07 -1.37909854542e-06 -0.000284590424817)
(1.72730243365e-07 -1.32796342841e-06 -0.000281478667588)
(2.54327879279e-07 -1.25000502544e-06 -0.000276950929408)
(3.53010033605e-07 -1.13988617526e-06 -0.000270806713636)