/*--------------------------------*- C++ -*----------------------------------*\
  =========                 |
  \\      /  F ield         | OpenFOAM: The Open Source CFD Toolbox
   \\    /   O peration     | Website:  https://openfoam.org
    \\  /    A nd           | Version:  7
     \\/     M anipulation  |
\*---------------------------------------------------------------------------*/
FoamFile
{
    version     2.0;
    format      ascii;
    class       volVectorField;
    location    "1.78";
    object      U;
}
// * * * * * * * * * * * * * * * * * * * * * * * * * * * * * * * * * * * * * //

dimensions      [0 1 -1 0 0 0 0];

internalField   nonuniform List<vector> 
22500
(
(1.9057797396e-06 2.08183684994e-06 2.20491277544e-05)
(1.82963699974e-06 2.31893740959e-06 2.32501383102e-05)
(1.65529481692e-06 2.58100905668e-06 2.44028737445e-05)
(1.42647688837e-06 2.82280866665e-06 2.5430933845e-05)
(1.13058663848e-06 3.03415512916e-06 2.62804347772e-05)
(7.83692863699e-07 3.19737054721e-06 2.69128594799e-05)
(3.99739227234e-07 3.30032296806e-06 2.73026109939e-05)
(-3.57660304097e-09 3.33531948078e-06 2.74346724631e-05)
(-4.0681190136e-07 3.29962299098e-06 2.73017577928e-05)
(-7.90533791922e-07 3.19600217837e-06 2.6911142486e-05)
(-1.13705527741e-06 3.03218248853e-06 2.62778268252e-05)
(-1.4324758954e-06 2.82031310557e-06 2.54273629613e-05)
(-1.66069245336e-06 2.57810720348e-06 2.43981275271e-05)
(-1.83465470332e-06 2.31558178013e-06 2.3243411343e-05)
(-1.90958701605e-06 2.07853794197e-06 2.20375396364e-05)
(5.48722564307e-06 6.01139010755e-06 6.08786549045e-05)
(5.24136418595e-06 6.69230316841e-06 6.39173081347e-05)
(4.74530540528e-06 7.43341917819e-06 6.68486455161e-05)
(4.08358862957e-06 8.11894537071e-06 6.94701125997e-05)
(3.23690258489e-06 8.71692239433e-06 7.16386044846e-05)
(2.24358261019e-06 9.17861226203e-06 7.32535851222e-05)
(1.14424252628e-06 9.4699469175e-06 7.4248725036e-05)
(-1.05575821817e-08 9.56894695898e-06 7.45851886566e-05)
(-1.16512604074e-06 9.46792410257e-06 7.42460491585e-05)
(-2.26379330449e-06 9.17466254129e-06 7.32482110877e-05)
(-3.25603565266e-06 8.71123841184e-06 7.1630462383e-05)
(-4.10133571535e-06 8.11178153492e-06 6.94590029528e-05)
(-4.76133240821e-06 7.4251404583e-06 6.6833957183e-05)
(-5.2558949e-06 6.68291838255e-06 6.38967161522e-05)
(-5.49828249039e-06 6.0020180753e-06 6.08454514769e-05)
(8.26330453726e-06 9.03804932017e-06 9.45591691174e-05)
(7.84773589474e-06 1.00166501468e-05 9.89501348254e-05)
(7.09248345856e-06 1.1074382582e-05 0.000103203774082)
(6.09103540735e-06 1.20528610077e-05 0.000107017644995)
(4.82266896573e-06 1.2904937506e-05 0.000110176530045)
(3.33968607404e-06 1.35624134274e-05 0.000112530466999)
(1.70175181484e-06 1.39771193343e-05 0.000113980993081)
(-1.72025316882e-08 1.41179187453e-05 0.000114470744416)
(-1.73579160277e-06 1.39739384629e-05 0.000113976409033)
(-3.37266033577e-06 1.35562063401e-05 0.000112521278112)
(-4.85393407676e-06 1.289601217e-05 0.000110162648082)
(-6.12007984093e-06 1.20416389287e-05 0.000106998793427)
(-7.11877853743e-06 1.10614522908e-05 0.000103179086324)
(-7.87135370089e-06 1.00021408048e-05 9.89162753212e-05)
(-8.28143629919e-06 9.02336515085e-06 9.45067116402e-05)
(1.03970588045e-05 1.13488876877e-05 0.000123678980262)
(9.82111088994e-06 1.25135163633e-05 0.000129018964883)
(8.85565888447e-06 1.37683166289e-05 0.000134213917038)
(7.5885671591e-06 1.49280656803e-05 0.000138885933953)
(6.00014086307e-06 1.59366557079e-05 0.000142762208092)
(4.15065305677e-06 1.67142696161e-05 0.000145653313851)
(2.11279482058e-06 1.72044541628e-05 0.000147435307185)
(-2.35351238636e-08 1.73706836748e-05 0.000148036362553)
(-2.15937846387e-06 1.72002450494e-05 0.000147428755078)
(-4.19581271329e-06 1.67060602486e-05 0.000145640210011)
(-6.043010489e-06 1.5924859232e-05 0.000142742484584)
(-7.62843629908e-06 1.4913259383e-05 0.00013885931842)
(-8.89181651986e-06 1.3751295277e-05 0.000134179483595)
(-9.85343343846e-06 1.24945225689e-05 0.000128972920497)
(-1.04222172651e-05 1.13295048861e-05 0.00012361047797)
(1.20003186805e-05 1.30757933721e-05 0.000148722096601)
(1.12777344755e-05 1.43389223536e-05 0.000154672140109)
(1.01420179572e-05 1.56981807595e-05 0.000160488466848)
(8.67020666909e-06 1.69534845871e-05 0.000165738476761)
(6.8446072392e-06 1.80437305651e-05 0.000170103894457)
(4.72907995103e-06 1.88835622494e-05 0.000173363846774)
(2.40440229994e-06 1.94125659264e-05 0.000175374151547)
(-2.96071864447e-08 1.9591706247e-05 0.00017605167497)
(-2.46301873613e-06 1.94074424086e-05 0.000175365542277)
(-4.785942165e-06 1.88735720393e-05 0.000173346675498)
(-6.89864041456e-06 1.80293794831e-05 0.000170078167696)
(-8.72050602553e-06 1.69354884009e-05 0.000165704033335)
(-1.01877091379e-05 1.56775141756e-05 0.000160444535459)
(-1.13185061221e-05 1.43159211591e-05 0.000154614849023)
(-1.20325337765e-05 1.30521709975e-05 0.000148639945854)
(1.31412582577e-05 1.42958680804e-05 0.000170103525512)
(1.2288188579e-05 1.55847135563e-05 0.000176378458697)
(1.1017406254e-05 1.69722637376e-05 0.000182548211808)
(9.39387453311e-06 1.8253158784e-05 0.000188142053344)
(7.40245244499e-06 1.9364030548e-05 0.000192806127564)
(5.1073338808e-06 2.02189111145e-05 0.000196294612627)
(2.59317953763e-06 2.07568917034e-05 0.000198447327284)
(-3.54727923223e-08 2.09387615443e-05 0.000199172348942)
(-2.66342554986e-06 2.07509601546e-05 0.000198436531081)
(-5.17552263004e-06 2.02073444242e-05 0.000196273144034)
(-7.46731427116e-06 1.9347410942e-05 0.000192774131939)
(-9.45431872265e-06 1.82323195507e-05 0.000188099599568)
(-1.10724176282e-05 1.69483264157e-05 0.00018249488096)
(-1.23372939219e-05 1.55580939228e-05 0.000176310510823)
(-1.31806153634e-05 1.42683876438e-05 0.000170009029894)
(1.38785713891e-05 1.50737368173e-05 0.000188185580824)
(1.29124720408e-05 1.63289257707e-05 0.000194546494226)
(1.15382675435e-05 1.76830071672e-05 0.000200846797868)
(9.80931703711e-06 1.89329170169e-05 0.00020659000634)
(7.71360404221e-06 2.00151130474e-05 0.000211394469471)
(5.31330954021e-06 2.08469490998e-05 0.00021499479032)
(2.69344358093e-06 2.13698178115e-05 0.000217218417481)
(-4.11780604009e-08 2.1546206363e-05 0.000217966812864)
(-2.77500867362e-06 2.13631807975e-05 0.000217205257786)
(-5.39254357444e-06 2.08340005146e-05 0.000214968702044)
(-7.78905803426e-06 1.99964912918e-05 0.000211355804513)
(-9.8797263081e-06 1.89095484586e-05 0.000206539181457)
(-1.16024961747e-05 1.76561269277e-05 0.000200783911957)
(-1.29699046777e-05 1.62990204634e-05 0.000194468015846)
(-1.39252097525e-05 1.50427343383e-05 0.000188079190437)
(1.4269073646e-05 1.54722365348e-05 0.000203289024668)
(1.32076734874e-05 1.66476510601e-05 0.00020953787166)
(1.17581463921e-05 1.79201372498e-05 0.000215785680603)
(9.963611452e-06 1.90947723618e-05 0.000221518379144)
(7.81584618592e-06 2.01096611263e-05 0.000226332450388)
(5.37341260472e-06 2.08885788098e-05 0.000229947653648)
(2.7187533875e-06 2.13774540475e-05 0.00023218254895)
(-4.67595095978e-08 2.15419352514e-05 0.000232934132472)
(-2.81140178594e-06 2.13702162045e-05 0.000232166792882)
(-5.46349025039e-06 2.08744440909e-05 0.00022991650797)
(-7.90174301446e-06 2.00893005321e-05 0.000226286536788)
(-1.00439023838e-05 1.90691758449e-05 0.000221458568643)
(-1.18315900912e-05 1.78906205697e-05 0.000215712718095)
(-1.3273512999e-05 1.66147606788e-05 0.00020944841265)
(-1.43231736822e-05 1.54380138387e-05 0.000203170387139)
(1.43663610433e-05 1.55510446826e-05 0.000215703840877)
(1.32267469771e-05 1.66129307791e-05 0.000221680283493)
(1.1726329582e-05 1.77679519918e-05 0.000227728660327)
(9.8999377835e-06 1.8833767075e-05 0.000233321236012)
(7.74382356866e-06 1.97519977739e-05 0.000238037213756)
(5.31186656826e-06 2.04552719581e-05 0.000241586325583)
(2.68155748764e-06 2.08958097815e-05 0.000243782181667)
(-5.22427351882e-08 2.10435168359e-05 0.000244519816185)
(-2.78510708743e-06 2.08880849765e-05 0.0002437635286)
(-5.41264661765e-06 2.04401630323e-05 0.000241549541601)
(-7.84008463908e-06 1.97301802419e-05 0.000237983240305)
(-9.99010901281e-06 1.880625964e-05 0.00023325148502)
(-1.18090714424e-05 1.7736114397e-05 0.000227644615501)
(-1.33011450916e-05 1.65773545116e-05 0.000221578694506)
(-1.44281421758e-05 1.55138874078e-05 0.000215571747624)
(1.42203759626e-05 1.53662316509e-05 0.000225701327773)
(1.30181587582e-05 1.629190289e-05 0.000231282236103)
(1.14874687957e-05 1.73040651404e-05 0.000237018003773)
(9.65729221763e-06 1.8236547275e-05 0.000242367023582)
(7.5288500554e-06 1.90366420632e-05 0.000246895584636)
(5.15060021397e-06 1.96476766221e-05 0.000250309473249)
(2.59314445265e-06 2.00294497164e-05 0.000252422550319)
(-5.76395180857e-08 2.01568691129e-05 0.00025313117469)
(-2.70743931466e-06 2.00213702219e-05 0.000252400621131)
(-5.26197545604e-06 1.96318402605e-05 0.000250266298595)
(-7.63544227648e-06 1.90136960327e-05 0.00024683245138)
(-9.75740045345e-06 1.82074966606e-05 0.000242285943547)
(-1.15796552519e-05 1.72702705573e-05 0.000236921264032)
(-1.31013243254e-05 1.6253975389e-05 0.000231166533831)
(-1.42901010785e-05 1.53264362476e-05 0.000225553576575)
(1.38776289477e-05 1.49708973505e-05 0.0002335494019)
(1.26260748897e-05 1.57468718475e-05 0.000238651716362)
(1.10818713101e-05 1.65990048392e-05 0.000243994019469)
(9.27087756571e-06 1.73809327803e-05 0.000249017330678)
(7.19928608258e-06 1.80480567077e-05 0.00025328157003)
(4.9095317938e-06 1.85555647058e-05 0.000256497798683)
(2.46379446991e-06 1.88715798815e-05 0.000258487569694)
(-6.29433674944e-08 1.8976393366e-05 0.000259153043554)
(-2.58866783205e-06 1.88633060431e-05 0.000258461902269)
(-5.0313907598e-06 1.85393024711e-05 0.000256447290885)
(-7.31618303773e-06 1.80243883652e-05 0.000253207839075)
(-9.38099837992e-06 1.73507985033e-05 0.000248923008342)
(-1.11836749451e-05 1.65637134827e-05 0.000243882249443)
(-1.27182492e-05 1.57070144326e-05 0.000238518969959)
(-1.395561029e-05 1.4928820598e-05 0.000233382607922)
(1.33809580062e-05 1.44155968094e-05 0.000239534151041)
(1.20904200333e-05 1.50345320264e-05 0.000244121997343)
(1.05460875552e-05 1.57149198923e-05 0.000249020184154)
(8.77286827576e-06 1.63348487141e-05 0.000253649054366)
(6.78119741804e-06 1.68599345094e-05 0.000257575811325)
(4.60702344012e-06 1.72573902636e-05 0.000260531763928)
(2.30300975255e-06 1.75037627826e-05 0.000262356691686)
(-6.81244441744e-08 1.7584742289e-05 0.000262964389777)
(-2.4382357758e-06 1.74954902934e-05 0.000262326753741)
(-4.73919805021e-06 1.72410760837e-05 0.000260472802438)
(-6.90832164309e-06 1.68360574647e-05 0.000257489690155)
(-8.89303440165e-06 1.63042242837e-05 0.000253538979269)
(-1.06576433239e-05 1.5678738459e-05 0.000248890232263)
(-1.21918171079e-05 1.49933172016e-05 0.000243968334363)
(-1.34675325002e-05 1.43717333641e-05 0.000239343680137)
(1.27682447309e-05 1.37459324291e-05 0.000243992702607)
(1.14477610969e-05 1.42024564854e-05 0.00024808898672)
(9.91465614439e-06 1.47030404579e-05 0.000252514953066)
(8.19393652497e-06 1.51547722442e-05 0.000256679235662)
(6.29942482051e-06 1.5534319359e-05 0.000260186045959)
(4.26055008531e-06 1.58197493568e-05 0.000262809997925)
(2.11984005978e-06 1.59955480462e-05 0.000264422526746)
(-7.31256487182e-08 1.60524962774e-05 0.000264955753494)
(-2.26507551945e-06 1.59875081964e-05 0.000264387767466)
(-4.40274853882e-06 1.58038324165e-05 0.000262741371564)
(-6.43657034933e-06 1.55108681448e-05 0.0002600854636)
(-8.32405095369e-06 1.51244123117e-05 0.000256550283555)
(-1.00359663914e-05 1.4666759987e-05 0.000252362756513)
(-1.15584613575e-05 1.41606395405e-05 0.000247909808547)
(-1.28635960785e-05 1.37010514464e-05 0.000243773510439)
(1.20755262827e-05 1.29963173505e-05 0.000247365048788)
(1.07379130094e-05 1.32871505687e-05 0.000251064123924)
(9.22425585924e-06 1.36009098756e-05 0.00025498571427)
(7.5652584178e-06 1.38850786713e-05 0.00025858654683)
(5.77873530802e-06 1.41214747246e-05 0.00026156433866)
(3.88739470795e-06 1.42974927776e-05 0.000263765945714)
(1.92322718246e-06 1.44047277342e-05 0.000265107859731)
(-7.78613461673e-08 1.44384725695e-05 0.000265546500758)
(-2.07795155349e-06 1.43971673918e-05 0.000265067840244)
(-4.0391294487e-06 1.42824627074e-05 0.000263686609156)
(-5.92547694463e-06 1.40991649688e-05 0.000261447271168)
(-7.70498673578e-06 1.38558688791e-05 0.000258435162226)
(-9.35508275578e-06 1.35654760018e-05 0.000254806053504)
(-1.08577756188e-05 1.32456564164e-05 0.000250854086165)
(-1.2179865277e-05 1.29511353849e-05 0.000247113239133)
(1.13513252256e-05 1.22264234721e-05 0.000250297496948)
(1.00156271644e-05 1.22700344116e-05 0.000253750745888)
(8.51149836135e-06 1.24104313191e-05 0.000257043392362)
(6.91785047272e-06 1.25364015762e-05 0.000259914002766)
(5.2437468876e-06 1.2639214329e-05 0.000262212384542)
(3.50495477328e-06 1.27141327389e-05 0.000263878015195)
(1.72226737234e-06 1.27585997914e-05 0.000264879243384)
(-8.22266140771e-08 1.27713241612e-05 0.000265199698077)
(-1.88574345459e-06 1.27518589689e-05 0.000264834055341)
(-3.66550238436e-06 1.27006768376e-05 0.000263787993191)
(-5.39939640471e-06 1.26190897766e-05 0.00026207833266)
(-7.066578931e-06 1.25097301161e-05 0.000259738105993)
(-8.65133133013e-06 1.23775477295e-05 0.000256831776548)
(-1.01439281538e-05 1.22304955059e-05 0.00025349966627)
(-1.14651429201e-05 1.21827063089e-05 0.000250020134743)
(2.58133934484e-08 3.25252537919e-08 2.27624881363e-05)
(2.47793484096e-08 3.9661034572e-08 2.4010819605e-05)
(2.59238429509e-08 4.54580073912e-08 2.52200933763e-05)
(2.50211046863e-08 5.18303301011e-08 2.63087871369e-05)
(2.15829220023e-08 5.81172340339e-08 2.7215403825e-05)
(1.57007301274e-08 6.34154914107e-08 2.78941008537e-05)
(7.95092634243e-09 6.69212230305e-08 2.83137742037e-05)
(-7.84943898112e-10 6.81019899174e-08 2.84559702898e-05)
(-9.51507255604e-09 6.67677025679e-08 2.83120283787e-05)
(-1.72469761195e-08 6.3114006484e-08 2.78906142702e-05)
(-2.3086690161e-08 5.76834721846e-08 2.72101780653e-05)
(-2.64337783876e-08 5.12901079478e-08 2.63017864817e-05)
(-2.71674514277e-08 4.48464721531e-08 2.52111449402e-05)
(-2.58416845816e-08 3.90059204527e-08 2.39991865124e-05)
(-2.65566875962e-08 3.18992641825e-08 2.27456374014e-05)
(1.28023841622e-07 1.48875374413e-07 6.42198281507e-05)
(1.23898438068e-07 1.78030692861e-07 6.75141559749e-05)
(1.22523175403e-07 2.0630741943e-07 7.07253507791e-05)
(1.14090144961e-07 2.35706875077e-07 7.36286957601e-05)
(9.62546497697e-08 2.63414756353e-07 7.60530663027e-05)
(6.92726117071e-08 2.86137854294e-07 7.78712377432e-05)
(3.5219232039e-08 3.00977700331e-07 7.89964271552e-05)
(-2.62066292282e-09 3.06000175356e-07 7.93769326953e-05)
(-4.04301506219e-08 3.00517045851e-07 7.89909758738e-05)
(-7.43888520889e-08 2.85237415487e-07 7.78603608036e-05)
(-1.01185799348e-07 2.62123640963e-07 7.60367849488e-05)
(-1.18697066642e-07 2.34098453098e-07 7.36069275392e-05)
(-1.26600467218e-07 2.04480324873e-07 7.06976147664e-05)
(-1.27372483368e-07 1.7605802216e-07 6.74783400196e-05)
(-1.3053437901e-07 1.46942459558e-07 6.41700273463e-05)
(2.69068345492e-07 3.04736547422e-07 0.000101483864796)
(2.59726718529e-07 3.60911248428e-07 0.000106412420914)
(2.51570739523e-07 4.1819769388e-07 0.000111238751262)
(2.30525807617e-07 4.7663563379e-07 0.000115617698201)
(1.92414908001e-07 5.30784653026e-07 0.00011928276989)
(1.37658497078e-07 5.74683420851e-07 0.000122035624394)
(6.99816594677e-08 6.03180386081e-07 0.000123740425871)
(-4.65108101795e-09 6.12837448429e-07 0.000124316240038)
(-7.92185259227e-08 6.02428496688e-07 0.000123731109902)
(-1.46694353072e-07 5.7321778456e-07 0.000122017052859)
(-2.01083345211e-07 5.28687817066e-07 0.000119255012871)
(-2.38606798079e-07 4.74025538535e-07 0.0001155806847)
(-2.58758572745e-07 4.15225680893e-07 0.000111191839752)
(-2.6587270332e-07 3.57670490484e-07 0.000106352588671)
(-2.73626092336e-07 3.01498409169e-07 0.000101402781788)
(4.19290406713e-07 4.67869015673e-07 0.000134824262422)
(4.02592174187e-07 5.49641899002e-07 0.000141013418374)
(3.8513475644e-07 6.34682057232e-07 0.00014709987438)
(3.49342278936e-07 7.20841404061e-07 0.000152641739251)
(2.89523051528e-07 8.00049076377e-07 0.000157291335027)
(2.06219098169e-07 8.63886734813e-07 0.000160789160056)
(1.04631458305e-07 9.05187237202e-07 0.000162956900141)
(-6.82977472906e-09 9.19177209044e-07 0.000163688410777)
(-1.18183479348e-07 9.04157966026e-07 0.000162943604665)
(-2.19442676671e-07 8.61880723181e-07 0.000160762683695)
(-3.02167502927e-07 7.97175945451e-07 0.000157251838223)
(-3.61109253487e-07 7.17255406005e-07 0.000152589249315)
(-3.95639484506e-07 6.30583915489e-07 0.000147033787382)
(-4.11618308552e-07 5.45139698911e-07 0.000140930310453)
(-4.26147559459e-07 4.63320917149e-07 0.000134714464546)
(5.64944773556e-07 6.23864689223e-07 0.000164459410676)
(5.38999534011e-07 7.27799363632e-07 0.000171565678742)
(5.10621536437e-07 8.36609199728e-07 0.000178584129357)
(4.59299162376e-07 9.46460670108e-07 0.000184998524888)
(3.78323016644e-07 1.04693903099e-06 0.000190393844629)
(2.68343119058e-07 1.12759297369e-06 0.000194459287991)
(1.35739147328e-07 1.17963938588e-06 0.00019698074645)
(-9.10373356783e-09 1.1972473008e-06 0.000197830956019)
(-1.53793152953e-07 1.17834904853e-06 0.00019696334863)
(-2.8593104567e-07 1.12507609842e-06 0.000194424686462)
(-3.95107059928e-07 1.04332624592e-06 0.000190342346716)
(-4.74905163207e-07 9.4193614365e-07 0.000184930368697)
(-5.24601177376e-07 8.31417670657e-07 0.000178498967518)
(-5.51084739345e-07 7.22067112334e-07 0.000171460045602)
(-5.74327048057e-07 6.18035577088e-07 0.000164322937831)
(6.97896803671e-07 7.64784301736e-07 0.000190583083134)
(6.61061083273e-07 8.86585214434e-07 0.00019829089513)
(6.20664496992e-07 1.01396725855e-06 0.000205939449101)
(5.53837606606e-07 1.14220505988e-06 0.00021295802568)
(4.53414230335e-07 1.258988346e-06 0.000218877400927)
(3.20171013372e-07 1.35239143765e-06 0.00022334520862)
(1.61310896348e-07 1.41251611357e-06 0.000226118380265)
(-1.14160830397e-08 1.43281865147e-06 0.00022705273805)
(-1.8394350173e-07 1.41098744603e-06 0.00022609673469)
(-3.42200235891e-07 1.34940636427e-06 0.000223302220919)
(-4.74417796755e-07 1.25469291905e-06 0.000218813592491)
(-5.73370981179e-07 1.13680743738e-06 0.000212873971454)
(-6.38227212355e-07 1.00774786423e-06 0.00020583526717)
(-6.76347679343e-07 8.79688737056e-07 0.00019816328845)
(-7.09996788518e-07 7.57741614142e-07 0.000190421167551)
(8.1236896691e-07 8.85145784263e-07 0.000213376222733)
(7.63320196089e-07 1.02001570286e-06 0.000221397916579)
(7.1024034028e-07 1.16015941775e-06 0.00022940176098)
(6.28574990454e-07 1.30079465802e-06 0.000236779178156)
(5.11247531153e-07 1.4282686415e-06 0.0002430187765)
(3.59199506095e-07 1.52982902037e-06 0.000247736190163)
(1.80071520747e-07 1.59502538996e-06 0.000250666442666)
(-1.37096018059e-08 1.61698498247e-06 0.000251652846584)
(-2.07248164562e-07 1.59328874924e-06 0.000250640371607)
(-3.85645378212e-07 1.52643323914e-06 0.000247684492334)
(-5.36463415513e-07 1.42336951818e-06 0.000242942258776)
(-6.52053716662e-07 1.29461727962e-06 0.000236678879769)
(-7.31439915726e-07 1.1530114522e-06 0.000229278447992)
(-7.8190437002e-07 1.01205499757e-06 0.000221248547966)
(-8.27343435569e-07 8.76990958052e-07 0.0002131894373)
(9.04671597689e-07 9.81581880948e-07 0.000233014943584)
(8.42499476853e-07 1.12455901775e-06 0.000241092244367)
(7.76487899512e-07 1.27155068785e-06 0.000249205493852)
(6.81161974489e-07 1.41841465014e-06 0.000256720933301)
(5.50023096505e-07 1.55078629359e-06 0.000263095679521)
(3.84217368629e-07 1.65577094453e-06 0.000267922876821)
(1.91432392531e-07 1.72294639842e-06 0.000270923099417)
(-1.5930324855e-08 1.74549923289e-06 0.000271931906244)
(-2.23013356744e-07 1.72103968532e-06 0.000270892380113)
(-4.14957819216e-07 1.65203670223e-06 0.000267862052409)
(-5.79358438104e-07 1.54538394849e-06 0.000263005910119)
(-7.08532121878e-07 1.41157804879e-06 0.000256603840877)
(-8.01320138946e-07 1.26360431459e-06 0.000249062642377)
(-8.64428481686e-07 1.11566847682e-06 0.000240920840348)
(-9.22632154128e-07 9.72442246621e-07 0.00023280318617)
(9.7303917913e-07 1.05268151183e-06 0.000249678594985)
(8.97303080965e-07 1.19893895934e-06 0.000257585733534)
(8.18513194118e-07 1.34714524442e-06 0.000265594095333)
(7.11099017987e-07 1.49428232076e-06 0.000273052807822)
(5.69538101852e-07 1.62596013431e-06 0.000279396916274)
(3.95196314828e-07 1.72981620274e-06 0.000284206982065)
(1.95434211296e-07 1.79600801873e-06 0.000287197397009)
(-1.80290380967e-08 1.81814019282e-06 0.000288201321103)
(-2.31183535233e-07 1.79397655317e-06 0.000287161748008)
(-4.30019318558e-07 1.72583050224e-06 0.000284136489094)
(-6.02819533138e-07 1.62017622883e-06 0.000279293147234)
(-7.42237618416e-07 1.48693386362e-06 0.000272918067761)
(-8.46914729802e-07 1.33856076363e-06 0.000265430863611)
(-9.22574455035e-07 1.18928524524e-06 0.000257391379866)
(-9.94053058933e-07 1.04271082283e-06 0.000249440979907)
(1.01728882733e-06 1.09862016259e-06 0.000263559494371)
(9.2803639894e-07 1.24365046693e-06 0.000271108463725)
(8.37014978381e-07 1.38792224836e-06 0.000278832567282)
(7.19397379581e-07 1.52983540026e-06 0.000286066804301)
(5.70905080402e-07 1.65569472348e-06 0.000292233180438)
(3.93087681918e-07 1.75429109081e-06 0.000296911030966)
(1.92639275965e-07 1.81683344895e-06 0.000299818325122)
(-1.99631698672e-08 1.83764034493e-06 0.000300792110891)
(-2.32237181488e-07 1.81472908278e-06 0.000299777394962)
(-4.31701366083e-07 1.75015407569e-06 0.000296830171176)
(-6.07885390762e-07 1.6496706088e-06 0.000292114395354)
(-7.54115325967e-07 1.52214741761e-06 0.000285913154899)
(-8.68863997702e-07 1.37888910997e-06 0.000278647539406)
(-9.56595238707e-07 1.23343009569e-06 0.000270889442905)
(-1.04138028534e-06 1.08799766762e-06 0.000263294168544)
(1.03846888336e-06 1.12079851848e-06 0.000274876398479)
(9.36228203351e-07 1.2604545821e-06 0.000281925253543)
(8.33937121616e-07 1.39615042297e-06 0.00028922417986)
(7.08275383851e-07 1.52792040153e-06 0.000296092302405)
(5.56301571124e-07 1.6434862293e-06 0.00030194969325)
(3.79639751326e-07 1.7332981471e-06 0.000306389223219)
(1.84033622172e-07 1.78995497586e-06 0.000309144625825)
(-2.16977480925e-08 1.8086880353e-06 0.000310064382507)
(-2.27090983002e-07 1.7878350346e-06 0.000309097990784)
(-4.21684633898e-07 1.72912094882e-06 0.000306297125343)
(-5.96669037904e-07 1.63738015708e-06 0.000301814556799)
(-7.46322900875e-07 1.52008738906e-06 0.000295917975664)
(-8.69054713807e-07 1.38688488151e-06 0.000289015238319)
(-9.67967408571e-07 1.24989205769e-06 0.000281678917425)
(-1.06561808855e-06 1.10972987801e-06 0.000274580320602)
(1.03847153742e-06 1.12148139266e-06 0.00028389494598)
(9.24294770358e-07 1.25181215917e-06 0.000290360422445)
(8.12221380895e-07 1.37467272867e-06 0.000297133735991)
(6.80967264276e-07 1.4920301572e-06 0.00030351500796)
(5.28807622611e-07 1.59364597404e-06 0.000308941199827)
(3.57269361778e-07 1.6719266022e-06 0.000313039831573)
(1.70953765386e-07 1.7210086452e-06 0.000315575831453)
(-2.32071835018e-08 1.73711681211e-06 0.000316417960699)
(-2.17030063778e-07 1.71893282556e-06 0.000315523013948)
(-4.02333708555e-07 1.66782655211e-06 0.000312935472586)
(-5.721968905e-07 1.58762659195e-06 0.000308788047701)
(-7.22040174054e-07 1.48426248349e-06 0.000303317654374)
(-8.50373564255e-07 1.36541186812e-06 0.000296897961163)
(-9.59052479911e-07 1.24115796842e-06 0.000290083211426)
(-1.06861298121e-06 1.11019806555e-06 0.000283563832672)
(1.01955262914e-06 1.10309732596e-06 0.000290960377603)
(8.95360775149e-07 1.21991298181e-06 0.000296835955221)
(7.75807879129e-07 1.32603649736e-06 0.000303018764574)
(6.41737698441e-07 1.42556421531e-06 0.000308798995852)
(4.9237606919e-07 1.51065850638e-06 0.000313668044181)
(3.29006363228e-07 1.5756512348e-06 0.000317318298448)
(1.55045142204e-07 1.61614575964e-06 0.000319564118863)
(-2.44777847418e-08 1.62931445407e-06 0.000320303927185)
(-2.03670793802e-07 1.6141724401e-06 0.000319504650745)
(-3.76646081193e-07 1.57174309241e-06 0.000317200613909)
(-5.38384601202e-07 1.50489386164e-06 0.000313494981828)
(-6.85488181422e-07 1.41807426238e-06 0.000308575671198)
(-8.1670999249e-07 1.31702505065e-06 0.000302752322447)
(-9.32919586495e-07 1.20942945152e-06 0.000296523651035)
(-1.05255503129e-06 1.09186403424e-06 0.000290589716735)
(9.84646090826e-07 1.06651676486e-06 0.000296550544275)
(8.54135900172e-07 1.16631289096e-06 0.000301929050961)
(7.30408890941e-07 1.25208592427e-06 0.000307463848289)
(5.96287663824e-07 1.33165133448e-06 0.000312504784187)
(4.51983923297e-07 1.39902187953e-06 0.000316668221038)
(2.98515124641e-07 1.45010349933e-06 0.000319748015261)
(1.38245748205e-07 1.48173163411e-06 0.000321625202495)
(-2.55102127066e-08 1.4918996056e-06 0.000322235690852)
(-1.88951942901e-07 1.47991287365e-06 0.000321558782706)
(-3.48282093046e-07 1.44649091863e-06 0.000319616207965)
(-5.00197083856e-07 1.39366574725e-06 0.000316473512896)
(-6.42344944469e-07 1.32463765547e-06 0.000312252162788)
(-7.73740574303e-07 1.24355355169e-06 0.00030716167909)
(-8.94235212741e-07 1.1562515747e-06 0.000301576707684)
(-1.02036141009e-06 1.05557076354e-06 0.000296137430579)
(9.39469292211e-07 1.02648242063e-06 0.000301391132791)
(8.09099887063e-07 1.09637392425e-06 0.000306465944902)
(6.8399787176e-07 1.15823095977e-06 0.000311193591751)
(5.51786559919e-07 1.21569369216e-06 0.000315285051304)
(4.13452893113e-07 1.26395598453e-06 0.000318554833229)
(2.69888679119e-07 1.30031022462e-06 0.000320922838211)
(1.2266394162e-07 1.32266237995e-06 0.000322344571147)
(-2.63217550734e-08 1.32972992892e-06 0.000322796622984)
(-1.75015061708e-07 1.32107457352e-06 0.000322271566031)
(-3.21366109817e-07 1.2971448161e-06 0.000320777456243)
(-4.63482969861e-07 1.25923327519e-06 0.000318338653164)
(-5.9980159793e-07 1.20945009334e-06 0.000315001666925)
(-7.29450258629e-07 1.15054194758e-06 0.000310851577879)
(-8.51415595912e-07 1.08711767753e-06 0.000306062999126)
(-9.7780996361e-07 1.01622814869e-06 0.000300945648782)
(-1.3652964929e-08 -2.2811254358e-08 1.96164913659e-05)
(-8.22535399007e-09 -3.0548633371e-08 2.0705727174e-05)
(-5.16228178627e-09 -3.53980994858e-08 2.17687936772e-05)
(-2.86349998806e-09 -3.88022732278e-08 2.27324595949e-05)
(-1.36268879075e-09 -4.11108471824e-08 2.35387431327e-05)
(-5.34041353962e-10 -4.25673174235e-08 2.41443178093e-05)
(-1.9729659672e-10 -4.33622511312e-08 2.45194679279e-05)
(-1.31328741264e-10 -4.36163392594e-08 2.4646506962e-05)
(-5.93603476283e-11 -4.33706417528e-08 2.45173042766e-05)
(2.95189769259e-10 -4.25842710051e-08 2.41400075783e-05)
(1.1496893218e-09 -4.11369493205e-08 2.35323111797e-05)
(2.66519491791e-09 -3.8840076735e-08 2.27239043118e-05)
(4.99534164376e-09 -3.54224337083e-08 2.1757991862e-05)
(8.11530157176e-09 -3.05637702319e-08 2.06920506296e-05)
(1.35973928206e-08 -2.28073762366e-08 1.95976953636e-05)
(-4.64269887276e-08 -7.00279561602e-08 5.57229721951e-05)
(-3.17052368824e-08 -9.10095756627e-08 5.86342076892e-05)
(-2.21223152225e-08 -1.0567211244e-07 6.14954482284e-05)
(-1.47456745662e-08 -1.1650425104e-07 6.41012094914e-05)
(-9.2853913234e-09 -1.24185067673e-07 6.62884472854e-05)
(-5.37797046518e-09 -1.29251936867e-07 6.79348239797e-05)
(-2.5925043709e-09 -1.32117207581e-07 6.89558488122e-05)
(-4.18629917262e-10 -1.33046547344e-07 6.9300943717e-05)
(1.77011427112e-09 -1.32132611707e-07 6.89491555028e-05)
(4.59988499186e-09 -1.2928410709e-07 6.7921497709e-05)
(8.57312385144e-09 -1.2423593319e-07 6.6268578401e-05)
(1.40923807083e-08 -1.16576903082e-07 6.40748177797e-05)
(2.15608328383e-08 -1.05718336504e-07 6.14622031059e-05)
(3.12909983414e-08 -9.10390347083e-08 5.85923197017e-05)
(4.61760894598e-08 -7.00109703883e-08 5.56672573569e-05)
(-8.61773151493e-08 -1.21224847306e-07 8.84481451931e-05)
(-6.36081510251e-08 -1.54069154008e-07 9.28393763246e-05)
(-4.7487654115e-08 -1.78785912102e-07 9.71771855209e-05)
(-3.43960679812e-08 -1.9780172588e-07 0.000101142487521)
(-2.37238759866e-08 -2.11785630314e-07 0.000104479668645)
(-1.49295577071e-08 -2.21317640507e-07 0.000106996076588)
(-7.46626848103e-09 -2.26843974822e-07 0.00010855799158)
(-7.21840404954e-10 -2.28656515527e-07 0.00010908526247)
(6.04353647531e-09 -2.26853529762e-07 0.000108546628507)
(1.35691782726e-08 -2.21339930374e-07 0.000106973466031)
(2.24591516547e-08 -2.11826372835e-07 0.00010444599321)
(3.32338069741e-08 -1.97864471364e-07 0.000101097843863)
(4.64735122832e-08 -1.78821307055e-07 9.71211754977e-05)
(6.28053402008e-08 -1.54084744734e-07 9.27694727495e-05)
(8.56357245308e-08 -1.21191264964e-07 8.83570816365e-05)
(-1.20813299363e-07 -1.63689088493e-07 0.000117930091387)
(-9.17722337273e-08 -2.04725234138e-07 0.000123481417039)
(-6.99175326937e-08 -2.36681407458e-07 0.000128990668226)
(-5.17836944356e-08 -2.61704391803e-07 0.000134045721358)
(-3.65156945752e-08 -2.80352379194e-07 0.000138311279224)
(-2.34151209768e-08 -2.93201293388e-07 0.000141533373768)
(-1.18246988226e-08 -3.00708589156e-07 0.000143535009723)
(-1.0394281308e-09 -3.03179724139e-07 0.000144210087968)
(9.77212142637e-09 -3.00715977123e-07 0.000143518881196)
(2.14405782353e-08 -2.93219997641e-07 0.000141501303938)
(3.46642248664e-08 -2.80389310944e-07 0.000138263580692)
(5.00793484016e-08 -2.61763068112e-07 0.00013398264916)
(6.84176157393e-08 -2.36719833535e-07 0.00012891194263)
(9.05350076045e-08 -2.04748858805e-07 0.000123384234748)
(1.19914735654e-07 -1.63664568914e-07 0.000117806068981)
(-1.49993790681e-07 -1.97856427454e-07 0.000144291526251)
(-1.15808964121e-07 -2.44152835248e-07 0.000150702225549)
(-8.91568418175e-08 -2.808627581e-07 0.000157094173879)
(-6.67210966392e-08 -3.09881886439e-07 0.000162982187553)
(-4.75166297395e-08 -3.31652789206e-07 0.000167964164064)
(-3.07316793804e-08 -3.46727133692e-07 0.000171734095291)
(-1.56118768219e-08 -3.5556515498e-07 0.000174078070701)
(-1.36853665816e-09 -3.5848000628e-07 0.000174867941845)
(1.29063148674e-08 -3.55575308989e-07 0.000174057078797)
(2.81195511237e-08 -3.46751055365e-07 0.000171692392207)