/*--------------------------------*- C++ -*----------------------------------*\
  =========                 |
  \\      /  F ield         | OpenFOAM: The Open Source CFD Toolbox
   \\    /   O peration     | Website:  https://openfoam.org
    \\  /    A nd           | Version:  7
     \\/     M anipulation  |
\*---------------------------------------------------------------------------*/
FoamFile
{
    version     2.0;
    format      ascii;
    class       volScalarField;
    location    "2.16";
    object      p;
}
// * * * * * * * * * * * * * * * * * * * * * * * * * * * * * * * * * * * * * //

dimensions      [0 2 -2 0 0 0 0];

internalField   nonuniform List<scalar> 
22500
(
3.34783477521e-06
3.34663614202e-06
3.34500098604e-06
3.34392859974e-06
3.34311771915e-06
3.34263493306e-06
3.34242854098e-06
3.34247298872e-06
3.34274589314e-06
3.34326217691e-06
3.34403729404e-06
3.34510953314e-06
3.34639727401e-06
3.34817515878e-06
3.34949132671e-06
3.34254583269e-06
3.34122450334e-06
3.33922501679e-06
3.33774191793e-06
3.33653363566e-06
3.33572494177e-06
3.33530726853e-06
3.3352799073e-06
3.33562995942e-06
3.3363624589e-06
3.33746754245e-06
3.33894104014e-06
3.34064447465e-06
3.34279427091e-06
3.3442424102e-06
3.33900581941e-06
3.33766505831e-06
3.33550977174e-06
3.33378555356e-06
3.3323111047e-06
3.33127355793e-06
3.3307029493e-06
3.33062323656e-06
3.33103087628e-06
3.33192163297e-06
3.33326068708e-06
3.33500537524e-06
3.33695602828e-06
3.33926820535e-06
3.34074240915e-06
3.33784048392e-06
3.3366020623e-06
3.33453658433e-06
3.3327660492e-06
3.33119170037e-06
3.33004801364e-06
3.32939936176e-06
3.32929105835e-06
3.32972903836e-06
3.3306998556e-06
3.33214757954e-06
3.3339957509e-06
3.33599815792e-06
3.33822895519e-06
3.33960661152e-06
3.33867597408e-06
3.33770521645e-06
3.33595438744e-06
3.33432442906e-06
3.33281396279e-06
3.33168708352e-06
3.33103669737e-06
3.33092473742e-06
3.3313649743e-06
3.33233654327e-06
3.3337675005e-06
3.33555381914e-06
3.33742056207e-06
3.33934724869e-06
3.34046300792e-06
3.34149735609e-06
3.34104820415e-06
3.33985782585e-06
3.33859621178e-06
3.33735221974e-06
3.3363984879e-06
3.33584500111e-06
3.3357625586e-06
3.33616975925e-06
3.33704141349e-06
3.33829769478e-06
3.33981860248e-06
3.34132166665e-06
3.34269903315e-06
3.34329756121e-06
3.3464744814e-06
3.34690083947e-06
3.34655555185e-06
3.345941442e-06
3.3452134482e-06
3.34462798744e-06
3.34429548621e-06
3.34428478581e-06
3.34461539857e-06
3.34526187158e-06
3.34614734103e-06
3.34715253415e-06
3.34801203769e-06
3.34855560312e-06
3.34828230438e-06
3.35383125719e-06
3.35556946765e-06
3.35638936694e-06
3.35674172821e-06
3.35681442425e-06
3.35682071088e-06
3.35685151011e-06
3.35696130982e-06
3.35716600427e-06
3.35744453475e-06
3.35773528345e-06
3.35793963717e-06
3.35783600292e-06
3.35722461902e-06
3.35564253569e-06
3.36380108988e-06
3.36732956765e-06
3.36965395919e-06
3.3713059603e-06
3.37247604699e-06
3.37330690835e-06
3.37384899978e-06
3.37413003489e-06
3.37415792418e-06
3.37392040885e-06
3.37338346008e-06
3.3724899365e-06
3.37108948326e-06
3.36898238194e-06
3.36561437228e-06
3.37657292459e-06
3.38235465482e-06
3.38651347097e-06
3.3897803228e-06
3.3923290518e-06
3.39420474577e-06
3.39539757266e-06
3.39589771471e-06
3.39570121151e-06
3.39480850215e-06
3.39322382418e-06
3.39095105707e-06
3.38793791485e-06
3.38400329192e-06
3.37838648001e-06
3.39223060751e-06
3.40065549554e-06
3.40693213932e-06
3.41207876558e-06
3.41624519052e-06
3.41935255106e-06
3.42131374823e-06
3.42207318328e-06
3.42161256842e-06
3.41994743951e-06
3.41712831535e-06
3.41323711812e-06
3.40834572514e-06
3.40229824585e-06
3.39404449042e-06
3.41079435874e-06
3.42206426455e-06
3.43062766951e-06
3.43783790312e-06
3.44379691677e-06
3.44827211888e-06
3.45108572017e-06
3.45213295355e-06
3.45138007113e-06
3.44885868883e-06
3.44466909442e-06
3.43898439084e-06
3.43203029563e-06
3.42369923128e-06
3.41260748619e-06
3.43231148254e-06
3.44615227325e-06
3.45700222288e-06
3.46638344533e-06
3.47423947935e-06
3.48015409345e-06
3.48385920552e-06
3.48520653996e-06
3.48414898262e-06
3.48073205975e-06
3.47510033974e-06
3.46751746975e-06
3.45839288353e-06
3.44777665628e-06
3.43411975306e-06
3.45562019466e-06
3.47170007352e-06
3.48503927031e-06
3.49677403049e-06
3.50660943526e-06
3.51397932585e-06
3.51856960002e-06
3.52021190611e-06
3.51885399741e-06
3.51454728267e-06
3.50745666455e-06
3.49789297045e-06
3.48641511594e-06
3.47331248989e-06
3.45741693627e-06
3.47475967796e-06
3.49689918305e-06
3.51353112558e-06
3.52807962529e-06
3.54002811112e-06
3.5488700776e-06
3.55433157387e-06
3.55626081776e-06
3.55461076109e-06
3.54942784412e-06
3.54086142328e-06
3.52918235036e-06
3.51489177336e-06
3.49850155181e-06
3.47654049047e-06
-1.63908515361e-06
-1.6377217619e-06
-1.63596948975e-06
-1.63436876921e-06
-1.63299548879e-06
-1.63199230383e-06
-1.63142572708e-06
-1.63133914893e-06
-1.63174857558e-06
-1.63262891511e-06
-1.63392192117e-06
-1.63554079562e-06
-1.6373167453e-06
-1.6391532862e-06
-1.64052124147e-06
-1.63482743807e-06
-1.63352089597e-06
-1.63178583907e-06
-1.63019502658e-06
-1.62881749162e-06
-1.62780507755e-06
-1.62723090599e-06
-1.62714133715e-06
-1.62755027668e-06
-1.62843378698e-06
-1.62973034947e-06
-1.63134783423e-06
-1.63311187558e-06
-1.63493583573e-06
-1.6362564382e-06
-1.6330717886e-06
-1.6321042081e-06
-1.63064030794e-06
-1.62930488319e-06
-1.62813290229e-06
-1.62727311139e-06
-1.62679254478e-06
-1.62673462942e-06
-1.62711098863e-06
-1.62790011083e-06
-1.62904370308e-06
-1.63045559004e-06
-1.63196529796e-06
-1.63352006707e-06
-1.63450405448e-06
-1.63422137977e-06
-1.63376459245e-06
-1.63272167662e-06
-1.6317768968e-06
-1.63092531082e-06
-1.63030390052e-06
-1.62996922419e-06
-1.62995884628e-06
-1.63028301264e-06
-1.63092197262e-06
-1.6318238917e-06
-1.6329135436e-06
-1.63403292975e-06
-1.63516994283e-06
-1.63564780589e-06
-1.63696871922e-06
-1.63697696235e-06
-1.63631182301e-06
-1.63570643932e-06
-1.6351288565e-06
-1.63470701674e-06
-1.63449198395e-06
-1.6345184513e-06
-1.63479636987e-06
-1.63530685609e-06
-1.6360018855e-06
-1.63681314009e-06
-1.6375930267e-06
-1.6383569552e-06
-1.63837762658e-06
-1.64020300798e-06
-1.64047116577e-06
-1.64001329752e-06
-1.63957949181e-06
-1.63913332901e-06
-1.6388011881e-06
-1.63863614536e-06
-1.63867435266e-06
-1.63892703141e-06
-1.63937477341e-06
-1.63996948042e-06
-1.64064255582e-06
-1.64125020566e-06
-1.64181225528e-06
-1.64158252341e-06
-1.64312063024e-06
-1.64336981425e-06
-1.64290686577e-06
-1.64244549282e-06
-1.64196771975e-06
-1.64160333912e-06
-1.64141271534e-06
-1.64143616709e-06
-1.64168713078e-06
-1.64214498699e-06
-1.6427590107e-06
-1.64345542316e-06
-1.64408918864e-06
-1.64466255363e-06
-1.64446088799e-06
-1.64519021885e-06
-1.64514384444e-06
-1.64448069087e-06
-1.64381764321e-06
-1.64316995821e-06
-1.64267258387e-06
-1.64239491781e-06
-1.64238231958e-06
-1.64265051909e-06
-1.64317790602e-06
-1.643910314e-06
-1.64476719397e-06
-1.64560045732e-06
-1.64637978858e-06
-1.64648285309e-06
-1.64613361613e-06
-1.64556041939e-06
-1.64454623168e-06
-1.64355359001e-06
-1.6426366435e-06
-1.64193552511e-06
-1.64152817747e-06
-1.64146477716e-06
-1.64176329844e-06
-1.64240135978e-06
-1.64332171583e-06
-1.64443746204e-06
-1.64559760511e-06
-1.64673327431e-06
-1.6473710971e-06
-1.64586736603e-06
-1.64459823434e-06
-1.64312783171e-06
-1.6417220302e-06
-1.64047231405e-06
-1.63952290525e-06
-1.63895932864e-06
-1.63883591629e-06
-1.63917285408e-06
-1.63994720748e-06
-1.6410993358e-06
-1.64253685989e-06
-1.64410647428e-06
-1.64570251711e-06
-1.64704214351e-06
-1.64442726179e-06
-1.64235564322e-06
-1.64036175152e-06
-1.6384944371e-06
-1.63687579848e-06
-1.63565369889e-06
-1.63491951306e-06
-1.63473124038e-06
-1.63511080488e-06
-1.63603516617e-06
-1.63744274078e-06
-1.63923727719e-06
-1.6412636369e-06
-1.64338586405e-06
-1.6455315401e-06
-1.64191939185e-06
-1.63899342888e-06
-1.63643624075e-06
-1.63408461641e-06
-1.63208213232e-06
-1.63057845012e-06
-1.62966924098e-06
-1.6294143851e-06
-1.62983781419e-06
-1.63091596541e-06
-1.63258724035e-06
-1.63475293492e-06
-1.63725756508e-06
-1.63994381607e-06
-1.64294598898e-06
-1.63851599187e-06
-1.63470281127e-06
-1.63155619521e-06
-1.62871769157e-06
-1.62633639349e-06
-1.62455862474e-06
-1.62347884774e-06
-1.62315998948e-06
-1.62362434878e-06
-1.62485158452e-06
-1.6267786094e-06
-1.62930953073e-06
-1.63229336841e-06
-1.63556722223e-06
-1.6394557562e-06
-1.63431039941e-06
-1.62958098455e-06
-1.62587725147e-06
-1.62259222938e-06
-1.6198765088e-06
-1.61785915633e-06
-1.61663269862e-06
-1.61625612038e-06
-1.61675552703e-06
-1.61810805194e-06
-1.62025568518e-06
-1.6231064265e-06
-1.62652797685e-06
-1.63035486691e-06
-1.63515485792e-06
-1.62856599702e-06
-1.62369159222e-06
-1.61956695906e-06
-1.61594829425e-06
-1.61300325874e-06
-1.61082576493e-06
-1.60949913966e-06
-1.60908341215e-06
-1.60960124432e-06
-1.61103431631e-06
-1.61332433462e-06
-1.61638942122e-06
-1.62013286796e-06
-1.6243773992e-06
-1.62932057477e-06
2.13035351531e-06
2.1297057761e-06
2.1290589564e-06
2.12846034625e-06
2.12795624762e-06
2.12758396823e-06
2.12736673387e-06
2.12731832644e-06
2.12744401531e-06
2.12773695581e-06
2.12818000251e-06
2.1287446437e-06
2.12938793875e-06
2.13004712008e-06
2.13067737075e-06
2.12968940051e-06
2.12905645813e-06
2.12840788486e-06
2.12780245786e-06
2.12728969231e-06
2.12690928152e-06
2.12668641398e-06
2.12663597285e-06
2.12676382981e-06
2.12706213207e-06
2.12751235392e-06
2.12808435826e-06
2.12873280613e-06
2.12939474877e-06
2.13001303909e-06
2.12984205768e-06
2.12928115895e-06
2.12869141992e-06
2.12813208342e-06
2.12765420597e-06
2.12729789774e-06
2.12708896481e-06
2.1270429129e-06
2.1271662671e-06
2.12745039218e-06
2.12787620325e-06
2.12841297616e-06
2.12901454408e-06
2.12961861192e-06
2.1301662841e-06
2.13016121068e-06
2.12966104546e-06
2.12912284574e-06
2.12860538655e-06
2.12815871157e-06
2.12782358356e-06
2.12762654325e-06
2.12758391489e-06
2.12770272131e-06
2.12797378505e-06
2.12837744159e-06
2.12888234131e-06
2.12944167341e-06
2.12999540012e-06
2.1304848451e-06
2.13044969995e-06
2.12999199361e-06
2.12948999197e-06
2.12900203548e-06
2.1285761488e-06
2.12825423739e-06
2.12806401791e-06
2.12802276725e-06
2.12813788823e-06
2.1283998105e-06
2.12878819886e-06
2.12927098236e-06
2.12980071177e-06
2.13032014232e-06
2.13077097258e-06
2.13071946663e-06
2.13028926813e-06
2.12981275176e-06
2.12934489226e-06
2.12893224359e-06
2.12861791461e-06
2.12843085062e-06
2.12838940394e-06
2.12850133451e-06
2.12875683879e-06
2.1291349429e-06
2.12960286089e-06
2.13011259093e-06
2.13060929407e-06
2.1310361936e-06
2.13097409051e-06
2.13055766902e-06
2.13009634338e-06
2.12963927281e-06
2.12923256457e-06
2.12892042397e-06
2.12873315671e-06
2.12869010542e-06
2.12879937203e-06
2.1290510485e-06
2.12942364529e-06
2.12988369017e-06
2.13038271639e-06
2.13086740385e-06
2.13128479234e-06
2.1312005322e-06
2.1307826757e-06
2.13032526279e-06
2.12986949237e-06
2.12946150068e-06
2.12914640927e-06
2.12895577774e-06
2.12890985284e-06
2.12901700524e-06
2.12926744977e-06
2.12963931514e-06
2.1300985943e-06
2.13059651437e-06
2.13108024837e-06
2.13150337839e-06
2.1313861644e-06
2.13095142547e-06
2.13048722316e-06
2.13002382928e-06
2.12960792912e-06
2.12928539904e-06
2.12908876039e-06
2.12903888802e-06
2.1291443817e-06
2.12939571963e-06
2.12977093574e-06
2.13023581717e-06
2.13074156156e-06
2.1312349714e-06
2.13167921853e-06
2.1315233109e-06
2.1310565951e-06
2.13057603566e-06
2.1300976979e-06
2.12966915633e-06
2.12933636039e-06
2.12913215821e-06
2.1290777424e-06
2.1291817562e-06
2.12943519396e-06
2.12981639571e-06
2.13029145821e-06
2.13081209757e-06
2.13132439262e-06
2.13180365485e-06
2.1316074428e-06
2.13109645851e-06
2.13059192451e-06
2.13009372346e-06
2.12965022495e-06
2.12930635753e-06
2.12909453743e-06
2.12903547594e-06
2.12913780011e-06
2.12939310536e-06
2.12978074261e-06
2.13026800989e-06
2.13080806177e-06
2.13134630997e-06
2.13187217189e-06
2.13164060355e-06
2.13107532457e-06
2.13054045792e-06
2.1300198328e-06
2.12956160757e-06
2.1292082905e-06
2.12899022846e-06
2.12892708283e-06
2.12902688966e-06
2.12928238144e-06
2.12967459249e-06
2.13017341648e-06
2.13073494419e-06
2.13130457796e-06
2.13188595412e-06
2.13164168779e-06
2.13100845411e-06
2.13043468763e-06
2.12988943455e-06
2.12941819349e-06
2.12905816559e-06
2.12883624213e-06
2.12876980811e-06
2.12886614005e-06
2.12911925622e-06
2.12951294536e-06
2.13002125656e-06
2.13060569597e-06
2.13121420912e-06
2.13186377087e-06
2.13162110514e-06
2.13089985295e-06
2.1302844436e-06
2.12971616692e-06
2.1292368011e-06
2.12887501525e-06
2.12865262918e-06
2.12858422659e-06
2.12867599085e-06
2.12892333833e-06
2.12931350933e-06
2.12982579596e-06
2.13043061329e-06
2.13107936526e-06
2.13181553138e-06
2.13125098986e-06
2.13060148817e-06
2.12999619639e-06
2.12945437922e-06
2.12900867044e-06
2.12867565419e-06
2.12847162254e-06
2.12840798214e-06
2.12848942204e-06
2.12871313293e-06
2.12906944848e-06
2.12954360939e-06
2.13011786052e-06
2.13075379168e-06
2.13141725497e-06
-9.41976314029e-07
-9.41532958323e-07
-9.4109860654e-07
-9.40690134538e-07
-9.40349725421e-07
-9.40101494802e-07
-9.3996161489e-07
-9.39938983181e-07
-9.40037186169e-07
-9.40250055675e-07
-9.40564595662e-07
-9.40959962884e-07
-9.41407628903e-07
-9.41860528898e-07
-9.42306148142e-07
-9.41742729188e-07
-9.41315134135e-07
-9.40885343263e-07
-9.40476847661e-07
-9.40134303968e-07
-9.3988326076e-07
-9.39740971785e-07
-9.39717083757e-07
-9.39815537094e-07
-9.40029452547e-07
-9.40345104059e-07
-9.40740709023e-07
-9.41186491573e-07
-9.41634971976e-07
-9.42065498435e-07
-9.42071689904e-07
-9.41696182828e-07
-9.41313247851e-07
-9.4094172156e-07
-9.40627753044e-07
-9.40396444901e-07
-9.402655492e-07
-9.40245073454e-07
-9.40339286424e-07
-9.40541064342e-07
-9.40836500579e-07
-9.41203544718e-07
-9.41612393266e-07
-9.42015139469e-07
-9.42392624586e-07
-9.42431800914e-07
-9.42094751221e-07
-9.41748805912e-07
-9.41407534064e-07
-9.4111642047e-07
-9.40900625787e-07
-9.40778463285e-07
-9.40760325662e-07
-9.40850711224e-07
-9.41042375024e-07
-9.41321203648e-07
-9.41664877095e-07
-9.42043674442e-07
-9.42410341965e-07
-9.4274953774e-07
-9.42707959682e-07
-9.42393006658e-07
-9.42070299288e-07
-9.41748830487e-07
-9.4147213818e-07
-9.41265749892e-07
-9.41148328552e-07
-9.41130958313e-07
-9.41218291118e-07
-9.41403087681e-07
-9.41670930819e-07
-9.4199930788e-07
-9.423585507e-07
-9.42702815322e-07
-9.43020739663e-07
-9.42932854741e-07
-9.42629288243e-07
-9.42321625627e-07
-9.42012834592e-07
-9.41745011891e-07
-9.41543920711e-07
-9.41428733761e-07
-9.41411021852e-07
-9.41495682123e-07
-9.41675433129e-07
-9.41935684419e-07
-9.42253802797e-07
-9.4260023751e-07
-9.42930832116e-07
-9.43238093225e-07
-9.43123521568e-07
-9.42823097684e-07
-9.42523620938e-07
-9.42222054263e-07
-9.41959044669e-07
-9.41760385322e-07
-9.41645646733e-07
-9.41626825082e-07
-9.4170905606e-07
-9.41885113786e-07
-9.42140333175e-07
-9.4245210777e-07
-9.42791063921e-07
-9.43114860055e-07
-9.43419862764e-07
-9.43283221203e-07
-9.42979447931e-07
-9.42681831507e-07
-9.42382811846e-07
-9.42120924526e-07
-9.41922190343e-07
-9.41806362973e-07
-9.41785834286e-07
-9.41865812709e-07
-9.42039288204e-07
-9.42291614733e-07
-9.42600387739e-07
-9.42936488251e-07
-9.43259477269e-07
-9.43569310647e-07
-9.43414978239e-07
-9.43101467421e-07
-9.42800476285e-07
-9.42500101794e-07
-9.42236612839e-07
-9.4203608011e-07
-9.41918202798e-07
-9.41895587066e-07
-9.41973450917e-07
-9.42145084974e-07
-9.42396072362e-07
-9.4270440665e-07
-9.43041370566e-07
-9.43368522449e-07
-9.43689248249e-07
-9.43522253609e-07
-9.43194173715e-07
-9.42885787779e-07
-9.42581161509e-07
-9.42314295254e-07
-9.42110904586e-07
-9.41990533954e-07
-9.41965617396e-07
-9.42041367835e-07
-9.42211426445e-07
-9.42461880165e-07
-9.42771389696e-07
-9.43111878184e-07
-9.4344707292e-07
-9.43783164597e-07
-9.43608953334e-07
-9.43262405839e-07
-9.42943533182e-07
-9.42632892744e-07
-9.42361908023e-07
-9.42155713206e-07
-9.42033011196e-07
-9.42005923294e-07
-9.42079356061e-07
-9.42247570155e-07
-9.42497380646e-07
-9.42808559599e-07
-9.43154081994e-07
-9.43499920103e-07
-9.43854885957e-07
-9.43678683201e-07
-9.4331109265e-07
-9.42979443195e-07
-9.42661865191e-07
-9.42387233402e-07
-9.42178950651e-07
-9.42054886273e-07
-9.4202583293e-07
-9.42096709088e-07
-9.42262081289e-07
-9.42510320792e-07
-9.42822662349e-07
-9.43173816794e-07
-9.43532267642e-07
-9.4390842217e-07
-9.43743354429e-07
-9.43350121066e-07
-9.43001838998e-07
-9.42675838792e-07
-9.42397548641e-07
-9.4218869672e-07
-9.42063771149e-07
-9.42033568724e-07
-9.42101087821e-07
-9.42262959864e-07
-9.42508394397e-07
-9.42821512601e-07
-9.43179632377e-07
-9.43553947709e-07
-9.43955471803e-07
-9.43810664476e-07
-9.43382887813e-07
-9.43015964387e-07
-9.42680803451e-07
-9.42400649132e-07
-9.42192033749e-07
-9.42068406195e-07
-9.42036766048e-07
-9.42101228271e-07
-9.4225795973e-07
-9.42499220512e-07
-9.42811771106e-07
-9.43177280158e-07
-9.43569303326e-07
-9.44004067624e-07
-9.43678300586e-07
-9.43282363264e-07
-9.42935292636e-07
-9.42626649982e-07
-9.4237399982e-07
-9.42188484275e-07
-9.42078671384e-07
-9.42051095171e-07
-9.42107714124e-07
-9.4224682565e-07
-9.42462168789e-07
-9.42744507877e-07
-9.43081677951e-07
-9.43453132632e-07
-9.43856919108e-07
8.99547966552e-07
8.99230427051e-07
8.98929789609e-07
8.98655299625e-07
8.98425499117e-07
8.98255456889e-07
8.98158553927e-07
8.98141131564e-07
8.98205853039e-07
8.98348686503e-07
8.98561153768e-07
8.98829144731e-07
8.99133933593e-07
8.99442432312e-07
8.99749497704e-07
8.99421137834e-07
8.99115847395e-07
8.98819148262e-07
8.98544246824e-07
8.98312664769e-07
8.98140814434e-07
8.98042471874e-07
8.98024456375e-07
8.98089738951e-07
8.98233786251e-07
8.98447561853e-07
8.98716313978e-07
8.99020306539e-07
8.99325982401e-07
8.9962232356e-07
8.99698837862e-07
8.99431288387e-07
8.9916721082e-07
8.98916521115e-07
8.98703923875e-07
8.98545603585e-07
8.98455124591e-07
8.98439542093e-07
8.98502033545e-07
8.98637925603e-07
8.98838009793e-07
8.99087289357e-07
8.99365931355e-07
8.99639682324e-07
8.99898643894e-07
8.99986891912e-07
8.99746884226e-07
8.99508078482e-07
8.99276874369e-07
8.99079266822e-07
8.98931469609e-07
8.98846863667e-07
8.98832892413e-07
8.98892894446e-07
8.99022119666e-07
8.99211164186e-07
8.99444803215e-07
8.99703181525e-07
8.99952091819e-07
9.00184654313e-07
9.00207431499e-07
8.99984066204e-07
8.9976119961e-07
8.99542301211e-07
8.99353739889e-07
8.99211978503e-07
8.99130487159e-07
8.99117025301e-07
8.99175075692e-07
8.99299808877e-07
8.9948162516e-07
8.99705114971e-07
8.99950429433e-07
9.00183955296e-07
9.00401922557e-07
9.00387218975e-07
9.0017287072e-07
8.99960980104e-07
8.99750360379e-07
8.99567603484e-07
8.99429482513e-07
8.99349516715e-07
8.99335859366e-07
8.99392089719e-07
8.99513377482e-07
8.99689954664e-07
8.99906360984e-07
9.0014282282e-07
9.0036661312e-07
9.00576979985e-07
9.00541274247e-07
9.00331789844e-07
9.00127096724e-07
8.9992175603e-07
8.99742544906e-07
8.99606404442e-07
8.99526945113e-07
8.99512602519e-07
8.99567019908e-07
8.99685422313e-07
8.99857985209e-07
9.00069317924e-07
9.00299806195e-07
9.00517822486e-07
9.00725394093e-07
9.00674817797e-07
9.00466724712e-07
9.00266064597e-07
9.00064086391e-07
8.99886996609e-07
8.99751819093e-07
8.99672214222e-07
8.99656838367e-07
8.99709374435e-07
8.99825184854e-07
8.99994506337e-07
9.00202168146e-07
9.00428816881e-07
9.00644099339e-07
9.00852468387e-07
9.00792613913e-07
9.00583618234e-07
9.00384737341e-07
9.0018476163e-07
9.00008851089e-07
8.99874061827e-07
8.99794019102e-07
8.99777406523e-07
8.99827933731e-07
8.99941164872e-07
9.0010755427e-07
9.0031232913e-07
9.00536511269e-07
9.00751220854e-07
9.00962734628e-07
9.00900100486e-07
9.00688231337e-07
9.00489673151e-07
9.00290995671e-07
9.00116022011e-07
8.99981658332e-07
8.99901195045e-07
8.99883319976e-07
8.99931608536e-07
9.00041997751e-07
9.00205301884e-07
9.00407364485e-07
9.00629774393e-07
9.00845249069e-07
9.01061262832e-07
9.01001652771e-07
9.00786117193e-07
9.00586934873e-07
9.00389256392e-07
9.0021552098e-07
9.00081975058e-07
9.00001530637e-07
8.99982425761e-07
9.00028225187e-07
9.00135171966e-07
9.00294780462e-07
9.00493742931e-07
9.00714479287e-07
9.00931436032e-07
9.01152445232e-07
9.01101941428e-07
9.00881935116e-07
9.0068107996e-07
9.00484418882e-07
9.00312466964e-07
9.00180772384e-07
9.00100928068e-07
9.00080910054e-07
9.00123736078e-07
9.00226465706e-07
9.00381323402e-07
9.00576359131e-07
9.00795253207e-07
9.01014168316e-07
9.01240490055e-07
9.01209412995e-07
9.0098279326e-07
9.00777842261e-07
9.00580928706e-07
9.00411242074e-07
9.00281778796e-07
9.00203432625e-07
9.00182463846e-07
9.00222222742e-07
9.00319859708e-07
9.0046918081e-07
9.00659926249e-07
9.00877746682e-07
9.0110063306e-07
9.01333893983e-07
9.01333611881e-07
9.01094580725e-07
9.00881679956e-07
9.00683003405e-07
9.00514856301e-07
9.00388520714e-07
9.0031166489e-07
9.00290354487e-07
9.00326592025e-07
9.00418845185e-07
9.00562139056e-07
9.00748579752e-07
9.00966846324e-07
9.01196805291e-07
9.01442317502e-07
9.01354045553e-07
9.01130137779e-07
9.00930712133e-07
9.00751139132e-07
9.00603497892e-07
9.00493411739e-07
9.00426901387e-07
9.00407862557e-07
9.00438269112e-07
9.00517026512e-07
9.00640776678e-07
9.00804415198e-07
9.01001167145e-07
9.0121669209e-07
9.01447493896e-07
-7.27707463937e-07
-7.27508252103e-07
-7.27296000169e-07
-7.27085263483e-07
-7.2690163688e-07
-7.2676112582e-07
-7.26673410216e-07
-7.26643635233e-07
-7.2667372595e-07
-7.26760847049e-07
-7.26898806408e-07
-7.27077409671e-07
-7.27282733911e-07
-7.2749111741e-07
-7.27696836534e-07
-7.2759624651e-07
-7.27402056425e-07
-7.27191473925e-07
-7.26980715971e-07
-7.26796534147e-07
-7.2665527753e-07
-7.26566989798e-07
-7.26537097854e-07
-7.26567725362e-07
-7.26655728185e-07
-7.26794584261e-07
-7.2697367438e-07
-7.27178464306e-07
-7.27385097139e-07
-7.27583910702e-07
-7.27766138845e-07
-7.27596329849e-07
-7.27409188249e-07
-7.27216954866e-07
-7.2704726419e-07
-7.2691590144e-07
-7.2683330372e-07
-7.26805134753e-07
-7.26833748525e-07
-7.26915877831e-07
-7.27044917584e-07
-7.27210109093e-07
-7.273969155e-07
-7.27581236782e-07
-7.27754322423e-07
-7.2794445775e-07
-7.2779252183e-07
-7.27623128153e-07
-7.27445813661e-07
-7.27287545758e-07
-7.27163982357e-07
-7.27085850848e-07
-7.27059020064e-07
-7.27085997053e-07
-7.27163467685e-07
-7.27284713792e-07
-7.27438857749e-07
-7.27611391722e-07
-7.27778546503e-07
-7.27933595251e-07
-7.28075649894e-07
-7.27933125887e-07
-7.27774484476e-07
-7.27607177007e-07
-7.27456498496e-07
-7.27338067837e-07
-7.2726271421e-07
-7.27236665582e-07
-7.27262536095e-07
-7.27337029442e-07
-7.27453298285e-07
-7.27600385226e-07
-7.27763824085e-07
-7.27920604349e-07
-7.28065894419e-07
-7.28179149317e-07
-7.28040946606e-07
-7.27889452454e-07
-7.27728816668e-07
-7.27583375649e-07
-7.27468500341e-07
-7.27395115498e-07
-7.27369601136e-07
-7.27394691825e-07
-7.274670874e-07
-7.27579886985e-07
-7.27722129032e-07
-7.27879447142e-07
-7.28029828013e-07
-7.28170043744e-07
-7.28265905892e-07
-7.2812892441e-07
-7.27981761313e-07
-7.27825973965e-07
-7.27684569749e-07
-7.2757249096e-07
-7.27500640504e-07
-7.27475516665e-07
-7.27499966817e-07
-7.27570749115e-07
-7.2768096378e-07
-7.27819756549e-07
-7.27972916344e-07
-7.2811959657e-07
-7.282578631e-07
-7.2834008302e-07
-7.28202649486e-07
-7.28057535239e-07
-7.27905081905e-07
-7.27766603955e-07
-7.27656704875e-07
-7.27586106767e-07
-7.2756134452e-07
-7.27585275305e-07
-7.27654772646e-07
-7.2776301371e-07
-7.27899351963e-07
-7.28049820446e-07
-7.28194863103e-07
-7.28333449882e-07
-7.28405504071e-07
-7.28265642841e-07
-7.28121010323e-07
-7.27970917711e-07
-7.27834851432e-07
-7.27726948792e-07
-7.27657557094e-07
-7.27633194446e-07
-7.27656659978e-07
-7.27724995536e-07
-7.27831562774e-07
-7.27966033198e-07
-7.28114787657e-07
-7.28259687033e-07
-7.28400179688e-07
-7.28465127743e-07
-7.2832203036e-07
-7.28176884294e-07
-7.280285065e-07
-7.27894613137e-07
-7.27788632422e-07
-7.2772059286e-07
-7.27696696004e-07
-7.27719704003e-07
-7.27786822078e-07
-7.27891722878e-07
-7.28024535924e-07
-7.28172133751e-07
-7.28317880098e-07
-7.28461276368e-07
-7.28522029332e-07
-7.28374831268e-07
-7.2822837907e-07
-7.28081497061e-07
-7.27949831545e-07
-7.27846203585e-07
-7.27779808831e-07
-7.27756596987e-07
-7.27779056322e-07
-7.27844714723e-07
-7.27947636754e-07
-7.28078614253e-07
-7.28225213621e-07
-7.28372394178e-07
-7.28519417414e-07
-7.2857816443e-07
-7.28426194554e-07
-7.28277979728e-07
-7.28132466049e-07
-7.28003625691e-07
-7.27902716525e-07
-7.27838613098e-07
-7.27816206506e-07
-7.27838066847e-07
-7.27901756504e-07
-7.28002132935e-07
-7.28130801658e-07
-7.28276343329e-07
-7.28425407491e-07
-7.28576797349e-07
-7.286386743e-07
-7.28479935884e-07
-7.28328409187e-07
-7.28183917194e-07
-7.28057528863e-07
-7.27960291164e-07
-7.27898446755e-07
-7.27877373003e-07
-7.27898249462e-07
-7.27959745336e-07
-7.28057110654e-07
-7.2818330042e-07
-7.28328281202e-07
-7.28480573736e-07
-7.28638339569e-07
-7.28704585457e-07
-7.28534559236e-07
-7.28379709626e-07
-7.28235709911e-07
-7.28113119923e-07
-7.28019266769e-07
-7.27960914147e-07
-7.27940786163e-07
-7.27960933859e-07
-7.28019611198e-07
-7.2811341752e-07
-7.28236574028e-07
-7.28380964492e-07
-7.28536687649e-07
-7.28704805249e-07
-7.2866676541e-07
-7.2851906581e-07
-7.28382353778e-07
-7.28258813877e-07
-7.28154944681e-07
-7.2807684445e-07
-7.28028190194e-07
-7.28011903036e-07
-7.28028740038e-07
-7.28077888297e-07
-7.28156728299e-07
-7.28261161065e-07
-7.28385571084e-07
-7.28522832801e-07
-7.286686467e-07
9.1078774713e-08
9.09265155593e-08
9.07824318738e-08
9.06530803621e-08
9.05484485944e-08
9.04731627894e-08
9.04313781459e-08
9.04265863175e-08
9.04605710865e-08
9.05315709487e-08
9.06356392071e-08
9.07660158785e-08
9.09140610926e-08
9.1063865655e-08
9.12146672243e-08
9.1033393522e-08
9.08869779854e-08
9.07450498147e-08
9.0615466518e-08
9.05099719539e-08
9.04338280779e-08
9.0391455732e-08
9.03864066986e-08
9.04205515307e-08
9.04919545956e-08
9.05964147869e-08
9.07269137958e-08
9.08743274979e-08
9.10225043479e-08
9.11678662841e-08
9.11906410537e-08
9.10627647472e-08
9.09377707186e-08
9.08206143673e-08
9.07244789472e-08
9.06547518644e-08
9.0616166348e-08
9.06122631743e-08
9.06449154867e-08
9.07120879076e-08
9.08095211765e-08
9.09300955888e-08
9.10646821009e-08
9.11966890693e-08
9.13232723001e-08
9.13495596202e-08
9.12354457839e-08
9.11233376245e-08
9.10160220865e-08
9.09269721108e-08
9.08619957359e-08
9.08261550708e-08
9.08230022432e-08
9.0854371352e-08
9.09181528247e-08
9.10100011259e-08
9.11227008848e-08
9.12471353276e-08
9.13666043883e-08
9.14800712476e-08
9.14723487832e-08
9.136630515e-08
9.12620913532e-08
9.11608637116e-08
9.10758951536e-08
9.10134986679e-08
9.09790002906e-08
9.09760421554e-08
9.10064087216e-08
9.10679358985e-08
9.11561689247e-08
9.12638099326e-08
9.13817645173e-08
9.14934500008e-08
9.15996764788e-08
9.15730203462e-08
9.14710124311e-08
9.13722864953e-08
9.12749005977e-08
9.11923082644e-08
9.11312482293e-08
9.10973142602e-08
9.10942110414e-08
9.11236817864e-08
9.11835171363e-08
9.12691670693e-08
9.13733096785e-08
9.14869052877e-08
9.15936460325e-08
9.1696094933e-08
9.16594133696e-08
9.1559526888e-08
9.14643092269e-08
9.13692640454e-08
9.12880170186e-08
9.12275592752e-08
9.11936965852e-08
9.11901939431e-08
9.12187711741e-08
9.12771880005e-08
9.13608523634e-08
9.1462472812e-08
9.15730897101e-08
9.16767741711e-08
9.17777417258e-08
9.17345835836e-08
9.16354229672e-08
9.15422134112e-08
9.14486087936e-08
9.13680341866e-08
9.13077218958e-08
9.12736264503e-08
9.12695664544e-08
9.12972180157e-08
9.13543505136e-08
9.14363781289e-08
9.15361074602e-08
9.16447041545e-08
9.17467326141e-08
9.18477671342e-08
9.18015556001e-08
9.17021654893e-08
9.16099287307e-08
9.151718795e-08
9.14369707449e-08
9.13766618805e-08
9.13422340409e-08
9.1337545176e-08
9.13641928849e-08
9.14200288163e-08
9.15005253816e-08
9.15986765392e-08
9.17058122491e-08
9.1807088102e-08
9.19090835534e-08
9.18633543342e-08
9.1763173934e-08
9.16713829493e-08
9.15792645845e-08
9.14994008823e-08
9.14391454426e-08
9.14044614514e-08
9.13991166998e-08
9.14246646802e-08
9.14790506399e-08
9.15579024073e-08
9.16544965174e-08
9.17604002626e-08
9.18614266386e-08
9.19646723845e-08
9.19226842944e-08
9.18217391544e-08
9.17299749836e-08
9.16384144879e-08
9.15590799869e-08
9.14992122144e-08
9.14644914335e-08
9.14585693063e-08
9.14828812471e-08
9.1535531187e-08
9.16124347827e-08
9.17072637536e-08
9.18119256423e-08
9.19129365414e-08
9.20172975918e-08
9.198216233e-08
9.18804718326e-08
9.17883479773e-08
9.16973458187e-08
9.16189512013e-08
9.15598818675e-08
9.15255477962e-08
9.15191485695e-08
9.15420602336e-08
9.15925913662e-08
9.1667035866e-08
9.17597265686e-08
9.18630850744e-08
9.19642365734e-08
9.20694195466e-08
9.20462093277e-08
9.19432129152e-08
9.18495637076e-08
9.17585759521e-08
9.16811002116e-08
9.16233747915e-08
9.15896274452e-08
9.15829572551e-08
9.16042984703e-08
9.16523325451e-08
9.17239870178e-08
9.18144386556e-08
9.19169990727e-08
9.2019345453e-08
9.21257086434e-08
9.21215759699e-08
9.20149739396e-08
9.19171517145e-08
9.18247082804e-08
9.17479345982e-08
9.16912769546e-08
9.16584426953e-08
9.16514362631e-08
9.1671230362e-08
9.17167256127e-08
9.178564041e-08
9.187431384e-08
9.19775450152e-08
9.2083777921e-08
9.21936087369e-08
9.21627593524e-08
9.2057227606e-08
9.19623480464e-08
9.18771295345e-08
9.18086960997e-08
9.1759141486e-08
9.17305666299e-08
9.1724605504e-08
9.17417453006e-08
9.17813675043e-08
9.18419176819e-08
9.19211800378e-08
9.20164147204e-08
9.2119536581e-08
9.2228823849e-08
-7.97480568398e-07
-7.97378858234e-07
-7.97266943733e-07
-7.97156847727e-07
-7.97060742876e-07
-7.96986154104e-07
-7.96937330707e-07
-7.96917227941e-07
-7.96927095881e-07
-7.96965600656e-07
-7.97029586527e-07
-7.97113935442e-07
-7.97211375838e-07
-7.97310419104e-07
-7.97406353437e-07
-7.97405457763e-07
-7.97304606802e-07
-7.97193494433e-07
-7.97083521938e-07
-7.96987227881e-07
-7.96912280314e-07
-7.96863188559e-07
-7.9684304304e-07
-7.96853200729e-07
-7.96892209866e-07