/*--------------------------------*- C++ -*----------------------------------*\
  =========                 |
  \\      /  F ield         | OpenFOAM: The Open Source CFD Toolbox
   \\    /   O peration     | Website:  https://openfoam.org
    \\  /    A nd           | Version:  7
     \\/     M anipulation  |
\*---------------------------------------------------------------------------*/
FoamFile
{
    version     2.0;
    format      ascii;
    class       surfaceScalarField;
    location    "2.16";
    object      phi;
}
// * * * * * * * * * * * * * * * * * * * * * * * * * * * * * * * * * * * * * //

dimensions      [0 3 -1 0 0 0 0];

internalField   nonuniform List<scalar> 
65775
(
4.26981955799e-12
-4.09787986372e-09
8.38223553382e-11
-3.29073838101e-13
4.83352921118e-12
-4.31698018163e-09
9.85588101914e-11
4.8446267533e-12
-4.52040050957e-09
1.15724904286e-10
4.19086032983e-12
-4.69807552861e-09
1.33279173002e-10
2.3543612749e-12
-4.84264667412e-09
1.49278609059e-10
-4.1138250848e-13
-4.949912745e-09
1.62043019235e-10
-3.73636704303e-12
-5.0176234883e-09
1.70304763109e-10
-7.15696844274e-12
-5.04282920809e-09
1.73200482326e-10
-1.0204483812e-11
-5.01771409269e-09
1.70196208536e-10
-1.24238320901e-11
-4.95009642142e-09
1.61827314662e-10
-1.34682773843e-11
-4.84290548448e-09
1.48958378922e-10
-1.3130448868e-11
-4.69837375264e-09
1.32857269809e-10
-1.19927204148e-11
-4.52068829402e-09
1.15202171779e-10
-1.02542175707e-11
-4.31724743854e-09
9.79290830103e-11
-4.09838883513e-09
8.30758934047e-11
-4.89397135553e-12
-3.03005978498e-12
-7.87890887743e-09
-3.62817575198e-11
-3.20176137377e-13
-6.22283710177e-12
-8.30334054589e-09
-3.80877559924e-11
-5.46072434087e-12
-8.70181741819e-09
-3.26359629153e-11
-4.87218109484e-12
-9.04843984247e-09
-2.29656716276e-11
-5.8942166547e-12
-9.33085130623e-09
-1.20031393744e-11
-8.7014047624e-12
-9.54045498817e-09
-2.27086434396e-12
-1.27105426424e-11
-9.67274970583e-09
4.30726244453e-12
-1.69905255426e-11
-9.72185996246e-09
6.52153037308e-12
-2.03256332344e-11
-9.67305382414e-09
3.96583775412e-12
-2.1797008383e-11
-9.54107179497e-09
-2.94568454767e-12
-2.08615175988e-11
-9.33174505701e-09
-1.29981476899e-11
-1.77871562282e-11
-9.04950766528e-09
-2.4263589186e-11
-1.41175497859e-11
-8.70294508267e-09
-3.42243560949e-11
-1.40481591667e-11
-8.30454200885e-09
-3.99749301393e-11
-7.88054831929e-09
-3.84811575759e-11
-1.37556064756e-11
-2.66036149611e-11
-1.1135430734e-08
-3.47859213054e-10
5.35210586656e-14
-3.87719108145e-11
-1.17318186086e-08
-3.9645118158e-10
-3.95761980962e-11
-1.22894029718e-08
-4.3318186082e-10
-3.63631521365e-11
-1.27713827635e-08
-4.59978532864e-10
-3.19455767908e-11
-1.3163485125e-08
-4.78746602764e-10
-2.75786242322e-11
-1.34540534922e-08
-4.91113694232e-10
-2.34602647011e-11
-1.36372899184e-08
-4.98361906709e-10
-1.93206179213e-11
-1.37052234031e-08
-5.01106707794e-10
-1.43203893514e-11
-1.3637850692e-08
-4.9888115473e-10
-8.1983621405e-12
-1.34551918891e-08
-4.92143551117e-10
-1.20750716724e-12
-1.31651369692e-08
-4.80270526087e-10
5.30674652012e-12
-1.27733866932e-08
-4.61973290439e-10
8.41565709788e-12
-1.22915789567e-08
-4.35628673085e-10
7.73835041124e-13
-1.17342503332e-08
-3.99359172709e-10
-1.11384610453e-08
-3.51247922849e-10
-2.0709674347e-11
-6.17732012561e-11
-1.37428873338e-08
-7.72350376587e-10
3.68406193002e-13
-8.93911966849e-11
-1.44669953989e-08
-8.83766628292e-10
-9.52858393597e-11
-1.51349336956e-08
-9.78439257788e-10
-8.90323443369e-11
-1.57081044128e-08
-1.05621316472e-09
-7.52960152646e-11
-1.61728950215e-08
-1.11702983281e-09
-5.69847121802e-11
-1.65165821157e-08
-1.16085826995e-09
-3.61348055815e-11
-1.67330745723e-08
-1.187810451e-09
-1.43943380116e-11
-1.6813295539e-08
-1.19754615374e-09
7.39426699127e-12
-1.67338569793e-08
-1.18843489675e-09
2.75845657489e-11
-1.65181711164e-08
-1.16210695987e-09
4.40957507251e-11
-1.61752043044e-08
-1.11889000261e-09
5.39552220991e-11
-1.57109436724e-08
-1.05865988611e-09
5.24136555737e-11
-1.51380851343e-08
-9.81452105235e-10
2.99153828611e-11
-1.44706125662e-08
-8.87360396485e-10
-1.37472612021e-08
-7.76557363457e-10
-2.56671719519e-11
-1.03726792361e-10
-1.564755593e-08
-1.24355574065e-09
4.6742969567e-13
-1.52609444441e-10
-1.6452575165e-08
-1.42155984168e-09
-1.66832536062e-10
-1.71815843557e-08
-1.57728087685e-09
-1.5764939319e-10
-1.78024591197e-08
-1.70848086868e-09
-1.31811113856e-10
-1.83040663671e-08
-1.81310867822e-09
-9.44207558181e-11
-1.86742479999e-08
-1.88952897245e-09
-5.01991574035e-11
-1.89072203825e-08
-1.9367819506e-09
-3.71655491069e-12
-1.89935357975e-08
-1.95366643853e-09
4.14147869769e-11
-1.89081636054e-08
-1.93745099356e-09
8.06358488376e-11
-1.86761651212e-08
-1.89087655222e-09
1.0920065312e-10
-1.83068638804e-08
-1.81512490652e-09
1.21969337997e-10
-1.7805942758e-08
-1.7111454617e-09
1.12141051626e-10
-1.71855248023e-08
-1.58057704878e-09
6.8471312626e-11
-1.64571659195e-08
-1.42551039051e-09
-1.56530787071e-08
-1.2482104387e-09
-2.87432051051e-11
-1.48211305202e-10
-1.68583629687e-08
-1.7031448897e-09
4.03412855957e-13
-2.22492379677e-10
-1.7701170343e-08
-1.94262079471e-09
-2.47391301245e-10
-1.84492813106e-08
-2.15385997634e-09
-2.35596448556e-10
-1.90818113321e-08
-2.33307776635e-09
-1.9606274406e-10
-1.95911103456e-08
-2.47667797896e-09
-1.36518087828e-10
-1.9966492574e-08
-2.58184140058e-09
-6.49225294922e-11
-2.02026188577e-08
-2.64687169963e-09
1.06182719028e-11
-2.02900812254e-08
-2.66997303634e-09
8.30593643346e-11
-2.0203663062e-08
-2.64754845865e-09
1.44310890789e-10
-1.99686173006e-08
-2.58320825435e-09
1.86403730833e-10
-1.95942267558e-08
-2.47872892625e-09
2.01593047758e-10
-1.9085735216e-08
-2.33579660856e-09
1.8089672686e-10
-1.84537911742e-08
-2.15723250913e-09
1.11620486015e-10
-1.77064629727e-08
-1.94667598168e-09
-1.68647823816e-08
-1.70794959207e-09
-3.02716561261e-11
-1.92306136745e-10
-1.74286213897e-08
-2.10973330214e-09
2.58617968493e-13
-2.9426007973e-10
-1.82728014975e-08
-2.40138515317e-09
-3.31251992981e-10
-1.90079995779e-08
-2.65905028821e-09
-3.17259347813e-10
-1.96254225958e-08
-2.87799965893e-09
-2.63454242624e-10
-2.01212760086e-08
-3.05357528825e-09
-1.80465731043e-10
-2.04865987769e-08
-3.18216149567e-09
-7.97844224948e-11
-2.07163558337e-08
-3.26158810214e-09
2.66726320849e-11
-2.08013890881e-08
-3.28968077419e-09
1.28136714726e-10
-2.07174577138e-08
-3.26225641208e-09
2.1270597158e-10
-2.04888433704e-08
-3.18351154408e-09
2.68888351415e-10
-2.0124585208e-08
-3.05560176593e-09
2.86045299543e-10
-1.96296289495e-08
-2.88068609981e-09
2.52986493033e-10
-1.90128969503e-08
-2.66238016718e-09
1.55715197534e-10
-1.82785689279e-08
-2.40538894335e-09
-1.74357023939e-08
-2.1144888087e-09
-3.0724535947e-11
-2.34646336502e-10
-1.74362864294e-08
-2.44010702376e-09
9.81546107376e-14
-3.65117864321e-10
-1.82526397614e-08
-2.77414446837e-09
-4.14989039488e-10
-1.89519925817e-08
-3.06921108036e-09
-3.99278859516e-10
-1.95357015165e-08
-3.32004160094e-09
-3.31282600027e-10
-2.00037460589e-08
-3.52121703987e-09
-2.24671445313e-10
-2.03487116508e-08
-3.66852108362e-09
-9.45920461447e-11
-2.0565646427e-08
-3.75940730564e-09
4.31444148111e-11
-2.06457892759e-08
-3.79142619388e-09
1.73963705105e-10
-2.0566784679e-08
-3.76006349401e-09
2.82066658616e-10
-2.03510302151e-08
-3.66984726142e-09
3.52304174627e-10
-2.00071793383e-08
-3.52320330424e-09
3.70992327375e-10
-1.95401005078e-08
-3.32266593942e-09
3.24813909074e-10
-1.89571685438e-08
-3.07244763955e-09
1.98723788227e-10
-1.82587437518e-08
-2.77802009814e-09
-1.74438677823e-08
-2.44470254726e-09
-3.05637861677e-11
-2.75112134905e-10
-1.69683687848e-08
-2.685371947e-09
-4.08078881891e-14
-4.34204498787e-10
-1.77340987676e-08
-3.05339168463e-09
-4.97503721882e-10
-1.83815770266e-08
-3.37851016906e-09
-4.80594246884e-10
-1.89191275733e-08
-3.65508958452e-09
-3.98737487052e-10
-1.93500020903e-08
-3.87704863783e-09
-2.68724898556e-10
-1.96678883443e-08
-4.03960510791e-09
-1.09427313064e-10
-1.98677296592e-08
-4.13980899835e-09
5.94281398453e-11
-1.99413272112e-08
-4.17496689428e-09
2.19446956164e-10
-1.98689050058e-08
-4.14045446879e-09
3.50909929419e-10
-1.96702793719e-08
-4.04090829814e-09
4.34937435893e-10
-1.93535548513e-08
-3.87899417168e-09
4.54715731734e-10
-1.89237083252e-08
-3.65764604679e-09
3.94949951176e-10
-1.83870113009e-08
-3.38164163279e-09
2.40027051334e-10
-1.77405068694e-08
-3.05711885481e-09
-1.69763764103e-08
-2.68976563525e-09
-3.01591973287e-11
-3.14347302649e-10
-1.61112142495e-08
-2.84556444419e-09
-1.3891863898e-13
-5.02118600162e-10
-1.68088017287e-08
-3.24096380509e-09
-5.79480333179e-10
-1.73933235658e-08
-3.59061206188e-09
-5.61858004174e-10
-1.78768616185e-08
-3.88849632243e-09
-4.66364153382e-10
-1.82648680791e-08
-4.12783915907e-09
-3.13028245736e-10
-1.85515040176e-08
-4.3032395791e-09
-1.24535613718e-10
-1.87315207446e-08
-4.41127625584e-09
7.54384903768e-11
-1.87974960535e-08
-4.44901618419e-09
2.64654636357e-10
-1.87327471522e-08
-4.41191707554e-09
4.19441561309e-10
-1.85539929204e-08
-4.3045321712e-09
5.17097524708e-10
-1.82685733863e-08
-4.12976323959e-09
5.37558175938e-10
-1.7881664381e-08
-3.89100794388e-09
4.63662440544e-10
-1.73990620805e-08
-3.59365788723e-09
2.79955985357e-10
-1.68155723711e-08
-3.24455347574e-09
-1.61196726466e-08
-2.84975364449e-09
-2.97629327425e-11
-3.53332576033e-10
-1.49458860088e-08
-2.92499688757e-09
-1.90793345834e-13
-5.70399456476e-10
-1.55620386196e-08
-3.34263338338e-09
-6.62719804989e-10
-1.60763854325e-08
-3.7126691611e-09
-6.4469289403e-10
-1.65019127513e-08
-4.02859006826e-09
-5.35395923208e-10
-1.68443124073e-08
-4.28282953273e-09
-3.58356659427e-10
-1.70975069549e-08
-4.46930984445e-09
-1.40208090399e-10
-1.72561432904e-08
-4.58408149908e-09
9.13730179278e-11
-1.73138716172e-08
-4.62398073112e-09
3.10263552369e-10
-1.72574421963e-08
-4.58472523913e-09
4.88787497377e-10
-1.71001364048e-08
-4.47060550601e-09
6.00286375713e-10
-1.6848234103e-08
-4.28474773428e-09
6.2118627168e-10
-1.65070218739e-08
-4.03107341097e-09
5.3234583105e-10
-1.60825340501e-08
-3.71564637955e-09
3.19334636739e-10
-1.55693054985e-08
-3.34610234943e-09
-1.49548948742e-08
-2.92899460155e-09
-2.95235308025e-11
-3.93158771505e-10
-1.35468658469e-08
-2.92915269444e-09
-1.92233668505e-13
-6.41249154654e-10
-1.40715590028e-08
-3.36482957543e-09
-7.49576870496e-10
-1.4512451469e-08
-3.7519925012e-09
-7.30948498865e-10
-1.48798086745e-08
-4.08335659508e-09
-6.07080458589e-10
-1.51764591709e-08
-4.35046822497e-09
-4.05419021865e-10
-1.53956363598e-08
-4.54655825862e-09
-1.56664400101e-10
-1.55323045157e-08
-4.66713246758e-09
1.07491250381e-10
-1.55815372364e-08
-4.70882588672e-09
3.57018281503e-10
-1.55337068781e-08
-4.66778131445e-09
5.60222037473e-10
-1.53984669872e-08
-4.54786070276e-09
6.86368183833e-10
-1.51806873948e-08
-4.35238704544e-09
7.07953859489e-10
-1.48853452681e-08
-4.08582162093e-09
6.0318631744e-10
-1.45191662343e-08
-3.75491359931e-09
3.59223139844e-10
-1.40795195966e-08
-3.36819059007e-09
-1.35565919665e-08
-2.93297190575e-09
-2.94909299385e-11
-4.3575250993e-10
-1.19817354461e-08
-2.86302309874e-09
-1.34656911614e-13
-7.18000251448e-10
-1.2408060175e-08
-3.31319826209e-09
-8.42431201863e-10
-1.27779310801e-08
-3.71481502929e-09
-8.21794259844e-10
-1.30907251072e-08
-4.05935726825e-09
-6.81891311005e-10
-1.33434036149e-08
-4.33747602362e-09
-4.54378216196e-10
-1.35291575176e-08
-4.54177803243e-09
-1.73909346546e-10
-1.36440375328e-08
-4.66725449225e-09
1.23902192433e-10
-1.36848631459e-08
-4.71038910374e-09
4.05184860708e-10
-1.36455845003e-08
-4.66790691259e-09
6.34317302429e-10
-1.35322721763e-08
-4.54308400653e-09
7.76603642066e-10
-1.3348058292e-08
-4.3393933445e-09
8.00320932217e-10
-1.3096845139e-08
-4.0618057274e-09
6.79580315723e-10
-1.27854094969e-08
-3.71768525406e-09
4.01595860432e-10
-1.24169731656e-08
-3.31645271882e-09
-1.19924520308e-08
-2.86665882948e-09
-2.95753878782e-11
-4.86822180348e-10
-1.03085509639e-08
-2.73044860976e-09
3.08448649941e-15
-8.0522999907e-10
-1.06385793221e-08
-3.19252973601e-09
-9.42177042132e-10
-1.0947690628e-08
-3.60636006302e-09
-9.16485769238e-10
-1.12112040215e-08
-3.96186850549e-09
-7.58884170966e-10
-1.14222145109e-08
-4.24908601588e-09
-5.04583611715e-10
-1.15758540668e-08
-4.46014647968e-09
-1.91685078129e-10
-1.16698589718e-08
-4.58958605994e-09
1.40482441642e-10
-1.1702697376e-08
-4.63379683928e-09
4.54246284268e-10
-1.16716084118e-08
-4.59023546163e-09
7.10263373753e-10
-1.15793642464e-08
-4.46144429879e-09
8.7038237591e-10
-1.14274527848e-08
-4.25098858048e-09
8.99312321081e-10
-1.12181012449e-08
-3.96429145033e-09
7.66213786123e-10
-1.09561589024e-08
-3.60917769037e-09
4.52226941598e-10
-1.06487290505e-08
-3.19566949456e-09
-1.03205280439e-08
-2.73386682983e-09
-2.98289157095e-11
-5.58308120596e-10
-2.53352505526e-09
1.6165056463e-13
-8.57126613059e-09
-9.06113946116e-10
-3.00733399828e-09
-8.83441279216e-09
-1.04998240095e-09
-3.4309696142e-09
-9.09426966444e-09
-1.01714711919e-09
-3.79512096565e-09
-9.31259474933e-09
-8.40823259896e-10
-4.08952172538e-09
-9.48509113253e-09
-5.58264699556e-10
-4.30591964788e-09
-9.60980213269e-09
-2.10783775351e-10
-4.43841536819e-09
-9.68541773219e-09
1.58166573962e-10
-4.48335119213e-09
-9.71133043139e-09
5.06575474781e-10
-4.43904863396e-09
-9.68744888434e-09
7.90968954732e-10
-4.30718433517e-09
-9.6138621801e-09
9.69974902197e-10
-4.09137586951e-09
-9.49113195555e-09
1.00624291293e-09
-3.79748448979e-09
-9.32053282389e-09
8.66430440723e-10
-3.43370955415e-09
-9.10401969692e-09
5.23202790119e-10
-3.01037265635e-09
-8.84606791708e-09
-2.53661237861e-09
-3.01128584817e-11
-8.58491287683e-09
-1.43161987152e-11
3.54147386764e-10
-2.56747517348e-10
4.11694263866e-13
-2.39668580764e-11
3.91497989797e-10
-2.83795063558e-10
-2.82916938749e-11
4.27458906186e-10
-3.07953726231e-10
-2.78531109857e-11
4.6113165816e-10
-3.28796531165e-10
-2.29822216506e-11
4.89728867355e-10
-3.45736342268e-10
-1.460834451e-11
5.11610854799e-10
-3.58277563757e-10
-3.98535608353e-12
5.25516594063e-10
-3.6612575776e-10
7.39324541644e-12
5.3052355256e-10
-3.68967718263e-10
1.78807011134e-11
5.25622937733e-10
-3.66162460297e-10
2.59860237299e-11
5.11836007441e-10
-3.58349104854e-10
3.04763742154e-11
4.90086105054e-10
-3.45840937309e-10
3.0459363221e-11
4.61591915907e-10
-3.28932337019e-10
2.56549496592e-11
4.27921338249e-10
-3.08121391574e-10
1.55386521333e-11
3.9185246211e-10
-2.84005795499e-10
3.54326788368e-10
-2.57044171728e-10
1.14369205332e-12
-2.94389859908e-11
1.01663285768e-09
-6.70521943718e-10
6.00136917659e-13
-5.02900480668e-11
1.11286456351e-09
-7.39407434398e-10
-6.05850053933e-11
1.20442080811e-09
-8.00168133832e-10
-6.01163174852e-11
1.28885117038e-09
-8.5193976193e-10
-4.9750310138e-11
1.36029403439e-09
-8.93582459301e-10
-3.15039843439e-11
1.41472661293e-09
-9.24170267253e-10
-8.20228064773e-12
1.44926146193e-09
-9.43210706406e-10
1.67896142503e-11
1.46170610647e-09
-9.50084832621e-10
3.98205369467e-11
1.44944938648e-09
-9.43294793227e-10
5.75260762003e-11
1.41514076716e-09
-9.24336000132e-10
6.71005595074e-11
1.36098266035e-09
-8.93830138437e-10
6.66017051785e-11
1.28975213374e-09
-8.52270437049e-10
5.52200926561e-11
1.20533795985e-09
-8.0059069708e-10
3.32357891676e-11
1.11350724659e-09
-7.39959218726e-10
1.01683418744e-09
-6.71299704641e-10
3.25586117998e-12
-3.43499160209e-11
1.73994018093e-09
-1.03750339302e-09
1.27731182347e-13
-5.97118278401e-11
1.88684406217e-09
-1.14579470127e-09
-7.31257191841e-11
2.0250266133e-09
-1.24115629265e-09
-7.31632422951e-11
2.15040710917e-09
-1.32220426148e-09
-6.07843261295e-11
2.2558134358e-09
-1.38723409424e-09
-3.84456065901e-11
2.33567817374e-09
-1.43489935183e-09
-9.71991501499e-12
2.38625089118e-09
-1.46451438206e-09
2.1153645225e-11
2.40450512254e-09
-1.47518057453e-09
4.95774169882e-11
2.38641469353e-09
-1.4646449561e-09
7.13210751418e-11
2.33605987614e-09
-1.43515974274e-09
8.28517559524e-11
2.25646746634e-09
-1.38762169218e-09
8.17779561151e-11
2.15125105039e-09
-1.32271983051e-09
6.71716155028e-11
2.02581996493e-09
-1.24181178818e-09
4.04354606249e-11
1.88723535247e-09
-1.14664160478e-09
1.73973728182e-09
-1.03867090022e-09
4.68718338959e-12
-3.21345775723e-11
2.37555892185e-09
-1.37591056566e-09
-4.54314044414e-13
-5.70052293369e-11
2.55082490786e-09
-1.52354103827e-09
-7.10770258729e-11
2.71370477653e-09
-1.65375150397e-09
-7.18338401919e-11
2.85877564508e-09
-1.76446046787e-09
-5.98953460234e-11
2.9795843419e-09
-1.85327674438e-09
-3.76607600146e-11
3.07047653634e-09
-1.91834990341e-09
-8.78381749552e-12
3.12787824663e-09
-1.95872333877e-09
2.23585084106e-11
3.14864564054e-09
-1.97320442543e-09
5.09467358254e-11
3.12793849532e-09
-1.95889750075e-09
7.26151700717e-11
3.07065111356e-09
-1.9186970805e-09
8.3749708329e-11
2.97992034441e-09
-1.85379180347e-09
8.19897165528e-11
2.85919259707e-09
-1.76514210587e-09
6.67080217539e-11
2.71397314739e-09
-1.65461055891e-09
4.03276965932e-11
2.55061936985e-09
-1.52463227034e-09
2.37470006348e-09
-1.37737406396e-09
5.93698531355e-12
-2.51728253091e-11
2.83842187542e-09
-1.68083916281e-09
-8.94393857995e-13
-4.64136519015e-11
3.0169512634e-09
-1.86703902608e-09
-5.94977215644e-11
3.18053842064e-09
-2.03165039752e-09
-6.10635690877e-11
3.32308112505e-09
-2.17178272137e-09
-5.11405741168e-11
3.44034522279e-09
-2.28427430733e-09
-3.17247887968e-11
3.52782158783e-09
-2.36670746116e-09
-6.1153737453e-12
3.58290569333e-09
-2.41779362019e-09
2.16363869911e-11
3.60291898823e-09
-2.43603751057e-09
4.69704305383e-11
3.5828397835e-09
-2.41800953113e-09
6.58414122358e-11
3.52773487844e-09
-2.36713667637e-09
7.49796608039e-11
3.44027474467e-09
-2.28490808312e-09
7.24053750912e-11
3.32295880866e-09
-2.17261508324e-09
5.80558871955e-11
3.18016811217e-09
-2.03268636663e-09
3.51764575696e-11
3.01607088762e-09
-1.86832900798e-09
2.83687018253e-09
-1.68252129826e-09
7.08996020688e-12
-1.53511910221e-11
3.09973963308e-09
-1.94838794893e-09
-1.17928590054e-12
-3.12472777143e-11
3.26156700881e-09
-2.17186993109e-09
-4.23600584785e-11
3.40717171013e-09
-2.36993048232e-09
-4.47503497938e-11
3.5306972994e-09
-2.5388074298e-09
-3.77562422653e-11
3.63074586312e-09
-2.67451111244e-09
-2.27670754598e-11
3.704608118e-09
-2.77400279506e-09
-2.46573055976e-12
3.75098713909e-09
-2.83560368711e-09
1.97021584857e-11
3.76796248308e-09
-2.85750739418e-09
3.97363196789e-11
3.75081563246e-09
-2.8358608759e-09
5.41885319934e-11
3.70430091446e-09
-2.77451213785e-09
6.03910513276e-11
3.63032958438e-09
-2.67525862623e-09
5.6954730861e-11
3.53011789977e-09
-2.53977949765e-09
4.4497314458e-11
3.40626883536e-09
-2.37112190765e-09
2.68430721069e-11
3.26014375229e-09
-2.17332201662e-09
3.09765423524e-09
-1.95023163815e-09
8.13028727587e-12
-4.16685432107e-12
3.17070488009e-09
-2.17560457788e-09
-1.34632882659e-12
-1.39437609949e-11
3.30421531979e-09
-2.43471900693e-09
-2.25365654956e-11
3.42116003242e-09
-2.66492766478e-09
-2.5679636495e-11
3.51696580905e-09
-2.86156886917e-09
-2.20367602175e-11
3.59292007128e-09
-3.01978522129e-09
-1.23007604036e-11
3.64822710359e-09
-3.1358670891e-09
1.60441993102e-12
3.68285847744e-09
-3.20768527899e-09
1.70052089528e-11
3.69569466228e-09
-3.2331118411e-09
3.06499599233e-11
3.68261851742e-09
-3.20798388115e-09
3.98528909879e-11
3.64777752578e-09
-3.13645606159e-09
4.26912771248e-11
3.59228032109e-09
-3.02064369183e-09
3.84607344339e-11
3.51609424747e-09
-2.86267280777e-09
2.84527824089e-11
3.41992817871e-09
-2.66625813943e-09
1.68287423418e-11
3.30247491012e-09
-2.43630581063e-09
3.16834548295e-09
-2.17756816043e-09
9.02394747788e-12
7.26055731646e-12
3.08462618839e-09
-2.3602376075e-09
-1.43048457855e-12
3.83090233432e-12
3.18612477525e-09
-2.65303169213e-09
-1.94757380884e-12
3.27109563645e-09
-2.91379049315e-09
-5.6933782298e-12
3.3372277385e-09
-3.13695195793e-09
-5.48677842019e-12
3.38790847747e-09
-3.31676745764e-09
-1.31109091577e-12
3.42402302918e-09
-3.4488147233e-09
5.73523100413e-12
3.44656319447e-09
-3.5304553814e-09
1.38476721784e-11
3.45511261826e-09
-3.55923394085e-09
2.06424215247e-11
3.44629589997e-09
-3.53079645284e-09
2.42925141404e-11
3.4235152695e-09
-3.44948268067e-09
2.3689581281e-11
3.38717787253e-09
-3.31773446076e-09
1.88308393903e-11
3.33624337246e-09
-3.13818142971e-09
1.15930708465e-11
3.26975582832e-09
-2.91524850884e-09
6.27143688371e-12
3.18431986465e-09
-2.65473672531e-09
3.08227356019e-09
-2.36229228932e-09
9.75266703319e-12
1.81293562866e-11
2.88263790662e-09
-2.50039986905e-09
-1.45904524754e-12
2.09834718489e-11
2.95411435098e-09
-2.82459012948e-09
1.81675616438e-11
3.00899996999e-09
-3.11396443111e-09
1.40241468825e-11
3.04803643158e-09
-3.36210117754e-09
1.09276673118e-11
3.07599258317e-09
-3.56235337323e-09
9.57388342178e-12
3.09503164435e-09
-3.70955229051e-09
9.7112007971e-12
3.10684883746e-09
-3.80050420104e-09
1.04530375577e-11
3.11157152003e-09
-3.83242353167e-09
1.03500844865e-11
3.10659195903e-09
-3.8008891402e-09
8.48535480736e-12
3.09454414469e-09
-3.71030250655e-09
4.5875569137e-12
3.07529349127e-09
-3.56343180712e-09
-6.71159082619e-13
3.0471046185e-09
-3.36345712567e-09
-4.95775501356e-12
3.00775103639e-09
-3.11554437642e-09
-4.00130497048e-12
2.95246581686e-09
-2.82639973383e-09
2.88055501154e-09
-2.50252502617e-09
1.03124197334e-11
2.79161855938e-11
2.60457650838e-09
-2.59428120746e-09
-1.45103687577e-12
3.68170241472e-11
2.65112599134e-09
-2.94718376747e-09
3.70218571804e-11
2.68072969914e-09
-3.26286357696e-09
3.27134091536e-11
2.69764083703e-09
-3.53409626849e-09
2.65794228927e-11
2.70734053241e-09
-3.75333752729e-09
1.99489068027e-11
2.71281326671e-09
-3.9146561728e-09
1.34076550021e-11
2.71613123274e-09
-4.01426777457e-09
6.99820152222e-12
2.71779459958e-09
-4.04906567364e-09
2.3012042428e-13
2.71591402466e-09
-4.01469523487e-09
-6.89036171949e-12
2.71240475787e-09
-3.91548553832e-09
-1.3804792099e-11
2.70676104789e-09
-3.75452074049e-09
-1.92114706976e-11
2.69687801896e-09
-3.53556816424e-09
-2.04608979291e-11
2.67971658517e-09
-3.2645535488e-09
-1.34301869132e-11
2.64980443344e-09
-2.94908646978e-09
2.60297094887e-09
-2.59646377579e-09
1.07112302622e-11
3.63377437615e-11
2.28436667084e-09
-2.63998661976e-09
-1.42588282381e-12
5.09273876065e-11
2.31209382598e-09
-3.01845578821e-09
5.41458245032e-11
2.32232267278e-09
-3.35775417674e-09
4.9900806334e-11
2.32291615695e-09
-3.64988602092e-09
4.10647888236e-11
2.31949346601e-09
-3.88639876881e-09
2.95502971276e-11
2.31537017695e-09
-4.06059279659e-09
1.67533908506e-11
2.31269405083e-09
-4.16807508624e-09
3.62348220301e-12
2.31216726312e-09
-4.20544105842e-09
-9.3865016118e-12
2.31253450832e-09
-4.16854148118e-09
-2.13672253007e-11
2.3150771436e-09
-4.06149529844e-09
-3.09533833087e-11
2.31909231139e-09
-3.88768157663e-09
-3.6262930638e-11
2.32240556598e-09
-3.65146955315e-09
-3.44608011124e-11
2.32165289283e-09
-3.35954941728e-09
-2.16915319747e-11
2.3112289483e-09
-3.02044635334e-09
2.28340124082e-09
-2.64221923196e-09
1.09648836849e-11
4.32845615075e-11
1.94855720338e-09
-2.63548415981e-09
-1.40091690567e-12
6.31467164376e-11
1.96310361768e-09
-3.0359297831e-09
6.93390438453e-11
1.95978459477e-09
-3.39588150761e-09
6.5348485128e-11
1.94979785261e-09
-3.70647899218e-09
5.41509572828e-11
1.93832824031e-09
-3.95832862913e-09
3.82163433109e-11
1.92851133093e-09
-4.14397744194e-09
1.97090414512e-11
1.92228960089e-09
-4.25842702428e-09
4.32956900632e-13
1.92043340739e-09
-4.2980103503e-09
-1.82747677253e-11
1.92220128813e-09
-4.25892964814e-09
-3.46500724596e-11
1.92836262013e-09
-4.14494896847e-09
-4.6561112006e-11
1.93814885859e-09
-3.95970630533e-09
-5.1570608622e-11
1.94960001258e-09
-3.70816993809e-09
-4.67423604873e-11
1.95953895537e-09
-3.39777808771e-09
-2.86360243878e-11
1.96279951699e-09
-3.03800374527e-09
1.94834438379e-09
-2.63776159428e-09
1.10844373216e-11
4.88119028032e-11
1.61651222567e-09
-2.57861598108e-09
-1.4055216891e-12
7.36517744529e-11
1.62207792004e-09
-2.99720910575e-09
8.27595035646e-11
1.61044765586e-09
-3.37478847281e-09
7.90907798257e-11
1.59520153423e-09
-3.7012908219e-09
6.57822401001e-11
1.58034964739e-09
-3.96638378012e-09
4.58785240875e-11
1.56837383171e-09
-4.16192821898e-09
2.22631643162e-11
1.56082132462e-09
-4.28235099969e-09
-2.51073610599e-12
1.55840920315e-09
-4.32376951857e-09
-2.63160038984e-11
1.56081934882e-09
-4.28288507616e-09
-4.66379875593e-11
1.56839577105e-09
-4.16296133773e-09
-6.06214664926e-11
1.58042971768e-09
-3.96784840702e-09
-6.52564109399e-11
1.59536336301e-09
-3.70308357736e-09
-5.74490492658e-11
1.61069189609e-09
-3.37678266749e-09
-3.42941804611e-11
1.62242588859e-09
-2.99935883888e-09
1.61714900018e-09
-2.58092514848e-09
1.10549584134e-11
5.33008302962e-11
1.30116745205e-09
-2.46714328701e-09
-1.47674361401e-12
8.31940935351e-11
1.30000074573e-09
-2.90051544365e-09
9.50220265784e-11
1.28496657065e-09
-3.29287879539e-09
9.14453387886e-11
1.26933799793e-09
-3.63260467547e-09
7.60715153657e-11
1.25514587093e-09
-3.90868179977e-09
5.25671285735e-11
1.24399240679e-09
-4.11242733649e-09
2.44246383291e-11
1.23695670547e-09
-4.23774497004e-09
-5.18308341345e-12
1.23465478749e-09
-4.28058902691e-09
-3.35118063072e-11
1.23706072673e-09
-4.23830289809e-09
-5.74208022696e-11
1.24422326687e-09
-4.11350873766e-09
-7.34400673673e-11
1.25553411729e-09
-3.91021862288e-09
-7.79294679532e-11
1.26991440318e-09
-3.63448915008e-09
-6.73277254855e-11
1.28575445182e-09
-3.29496722847e-09
-3.90317090184e-11
1.30107809277e-09
-2.90272935206e-09
1.3027451007e-09
-2.4694517359e-09
1.0855442016e-11
5.64264385719e-11
-2.30003682366e-09
-1.56967733771e-12
1.01262292236e-09
9.30096210454e-11
-2.74706335845e-09
1.00299498482e-09
1.0690161733e-10
-3.15074844868e-09
9.90697073933e-10
1.02808302599e-10
-3.50039297518e-09
9.78549803328e-10
8.52554763383e-11
-3.78471760006e-09
9.67738983769e-10
5.84205893485e-11
-3.99463295397e-09
9.59386857804e-10
2.62518258848e-11
-4.12356610321e-09
9.54130985257e-10
-7.62745660527e-12
-4.16735961092e-09
9.52400090032e-10
-3.99836949981e-11
-4.124133598e-09
9.54369108404e-10
-6.72202903599e-11
-3.99573591718e-09
9.59875744776e-10
-8.53994255818e-11
-3.78629223794e-09
9.68498349199e-10
-9.03566175281e-11
-3.50233722275e-09
9.79599101828e-10
-7.75929719011e-11
-3.15290987702e-09
9.92075579695e-10
-4.24708252222e-11
-2.74935416224e-09
1.00483042053e-09
-2.30223709639e-09
1.04740728384e-11
1.01532589555e-09
7.13869777992e-12
-9.65211516282e-11
-1.67249022506e-10
-4.37002661441e-13
1.08129874314e-11
-1.07557720643e-10
-1.80318915133e-10
1.2252415444e-11
-1.19080182917e-10
-1.90776463387e-10
1.17870027008e-11
-1.29718885795e-10
-1.99012863627e-10
9.65188568907e-12
-1.3876636455e-10
-2.05215870078e-10
6.21908186914e-12
-1.45645333492e-10
-2.09548165117e-10
1.95975074514e-12
-1.49987025256e-10
-2.12184026665e-10
-2.57689352871e-12
-1.51522118223e-10
-2.13170230566e-10
-6.78904580023e-12
-1.49960537341e-10
-2.12218968049e-10
-1.01238287632e-11
-1.45604344839e-10
-2.09617338453e-10
-1.2112891495e-11
-1.38725328307e-10
-2.05317821329e-10
-1.23963078719e-11
-1.29683343403e-10
-1.99146467594e-10
-1.07385839177e-11
-1.19007710887e-10
-1.9094333583e-10
-6.89213245679e-12
-1.07483678934e-10
-1.80532356228e-10
-9.64415106766e-11
-1.6755508307e-10
-9.42994992915e-14
1.62705369202e-11
-2.16931533606e-10
-5.66284961783e-10
-6.37092221139e-13
2.59271783143e-11
-2.39010502943e-10
-6.18282238145e-10
3.01405923222e-11
-2.61710905934e-10
-6.62462976935e-10
2.94197920518e-11
-2.82563400198e-10
-6.99027473532e-10
2.43445847828e-11
-3.00113394852e-10
-7.27768285208e-10
1.58615471018e-11
-3.13355609602e-10
-7.48526626408e-10
5.19874469797e-12
-3.21668872115e-10
-7.61346143578e-10
-6.20498391024e-12
-3.24596798739e-10
-7.66023189514e-10
-1.6792325196e-11
-3.21577828976e-10
-7.61458794237e-10
-2.5127902513e-11
-3.13190777674e-10
-7.48748023834e-10
-2.99960714749e-11
-2.99905085851e-10
-7.28091715746e-10
-3.04699263139e-11
-2.82325322462e-10
-6.99446018698e-10
-2.59599820321e-11
-2.61407739187e-10
-6.62976806447e-10
-1.60439302146e-11
-2.38694923904e-10
-6.18923474982e-10
-2.16603580317e-10
-5.67151439148e-10
-2.69264427891e-13
2.17853238262e-11
-3.16282533955e-10
-9.59616587606e-10
-8.15340610896e-13
3.54873364505e-11
-3.45375945782e-10
-1.05374184601e-09
4.17470481227e-11
-3.74737570378e-10
-1.13502560779e-09
4.09988658095e-11
-4.01529355008e-10
-1.20308567227e-09
3.40574358037e-11
-4.23897894272e-10
-1.25706275543e-09
2.22640734118e-11
-4.40669229941e-10
-1.29629615979e-09
7.36678863172e-12
-4.5115993639e-10
-1.32056883427e-09
-8.59220739356e-12
-4.54854369487e-10
-1.32935112623e-09
-2.33919941447e-11
-4.51019655374e-10
-1.32074755727e-09
-3.49963500538e-11
-4.40410994161e-10
-1.29664818322e-09
-4.16749007074e-11
-4.2356097185e-10
-1.25757761455e-09
-4.21097113873e-11
-4.01131658157e-10
-1.20375223861e-09
-3.5494934055e-11
-3.74250566374e-10
-1.13584235283e-09
-2.14794127215e-11
-3.4484328673e-10
-1.05475082503e-09
-3.15719889923e-10
-9.60945610528e-10
-3.11152353645e-13
2.44997252221e-11
-3.93667475144e-10
-1.32267504392e-09
-8.13485395048e-13
4.06105481424e-11
-4.26767093724e-10
-1.45880537664e-09
4.82873755829e-11
-4.59353725984e-10
-1.57738466557e-09
4.77121545335e-11
-4.88697863177e-10
-1.67726064522e-09
3.97853690427e-11
-5.1294347751e-10
-1.75680813728e-09
2.6082840243e-11
-5.30981210539e-10
-1.81479076066e-09
8.68104774013e-12
-5.42216753705e-10
-1.85066830246e-09
-9.99211177412e-12
-5.46170538116e-10
-1.86357222034e-09
-2.72930275998e-11
-5.42029899158e-10
-1.8509067257e-09
-4.08041282516e-11
-5.30629856215e-10
-1.81526013019e-09
-4.84699146507e-11
-5.1246626306e-10
-1.75749381485e-09
-4.87379798322e-11
-4.88116995182e-10
-1.67814620736e-09
-4.07202548142e-11
-4.58658340131e-10
-1.57846354378e-09
-2.43016644873e-11
-4.26000105596e-10
-1.46011941203e-09
-3.92851805708e-10
-1.32436012544e-09
-3.87460607889e-13
2.52296552501e-11
-4.48531749109e-10
-1.65082748075e-09
-7.99024976084e-13
4.23584338797e-11
-4.83200453779e-10
-1.82820435068e-09
5.07826252795e-11
-5.16285002189e-10
-1.98364539033e-09
5.04179917788e-11
-5.45488248512e-10
-2.11510649745e-09