/*--------------------------------*- C++ -*----------------------------------*\
  =========                 |
  \\      /  F ield         | OpenFOAM: The Open Source CFD Toolbox
   \\    /   O peration     | Website:  https://openfoam.org
    \\  /    A nd           | Version:  7
     \\/     M anipulation  |
\*---------------------------------------------------------------------------*/
FoamFile
{
    version     2.0;
    format      ascii;
    class       volScalarField;
    location    "2.06";
    object      p;
}
// * * * * * * * * * * * * * * * * * * * * * * * * * * * * * * * * * * * * * //

dimensions      [0 2 -2 0 0 0 0];

internalField   nonuniform List<scalar> 
22500
(
-1.59309690067e-05
-1.59299617732e-05
-1.59296221425e-05
-1.5928996645e-05
-1.59285469366e-05
-1.59282128226e-05
-1.59280242175e-05
-1.59279757129e-05
-1.59280783895e-05
-1.59283195605e-05
-1.59287028899e-05
-1.59291980468e-05
-1.59298634167e-05
-1.59302349264e-05
-1.5931284434e-05
-1.59230308828e-05
-1.59215645895e-05
-1.59208683302e-05
-1.59198964118e-05
-1.59191402116e-05
-1.59185668128e-05
-1.59182265882e-05
-1.59181273803e-05
-1.5918281556e-05
-1.59186751887e-05
-1.59192988791e-05
-1.59201016183e-05
-1.59211156235e-05
-1.59218463232e-05
-1.59233574423e-05
-1.59150970695e-05
-1.5913174828e-05
-1.5912102659e-05
-1.59107633569e-05
-1.59096916577e-05
-1.59088707391e-05
-1.59083738344e-05
-1.59082221178e-05
-1.59084308926e-05
-1.59089833804e-05
-1.59098569164e-05
-1.59109773076e-05
-1.59123611237e-05
-1.59134692701e-05
-1.5915437513e-05
-1.59074002556e-05
-1.59050126095e-05
-1.59034998669e-05
-1.59017541438e-05
-1.59003321177e-05
-1.58992387963e-05
-1.58985692861e-05
-1.58983594259e-05
-1.58986283125e-05
-1.58993554444e-05
-1.59005035845e-05
-1.59019764363e-05
-1.59037687364e-05
-1.5905318947e-05
-1.59077530065e-05
-1.5899325297e-05
-1.58964064155e-05
-1.58943559359e-05
-1.58921353945e-05
-1.58903017228e-05
-1.58888914373e-05
-1.58880214499e-05
-1.58877438879e-05
-1.58880822157e-05
-1.58890116378e-05
-1.58904786473e-05
-1.58923650628e-05
-1.58946339938e-05
-1.5896723631e-05
-1.58996893627e-05
-1.58906472589e-05
-1.58871118488e-05
-1.58844338611e-05
-1.58816733069e-05
-1.58793713281e-05
-1.58776033965e-05
-1.5876507924e-05
-1.58761541833e-05
-1.58765703356e-05
-1.58777269342e-05
-1.58795533441e-05
-1.58819098418e-05
-1.58847205095e-05
-1.58874392292e-05
-1.58910214694e-05
-1.58813309654e-05
-1.58770926414e-05
-1.58737171414e-05
-1.58703669573e-05
-1.58675557552e-05
-1.58654018724e-05
-1.58640641508e-05
-1.58636286392e-05
-1.58641281907e-05
-1.58655286912e-05
-1.5867742694e-05
-1.58706100423e-05
-1.58740117972e-05
-1.58774297103e-05
-1.58817144283e-05
-1.58713895727e-05
-1.58663721481e-05
-1.58622528792e-05
-1.58582855206e-05
-1.58549453037e-05
-1.58523936392e-05
-1.58508076584e-05
-1.58502885457e-05
-1.58508733664e-05
-1.58525237914e-05
-1.58551371759e-05
-1.58585350751e-05
-1.58625552685e-05
-1.58667184489e-05
-1.5871781335e-05
-1.58608678851e-05
-1.58550165666e-05
-1.58501351806e-05
-1.58455500765e-05
-1.58416860881e-05
-1.58387441976e-05
-1.58369164539e-05
-1.58363162154e-05
-1.58369838775e-05
-1.58388777496e-05
-1.58418829483e-05
-1.58458060666e-05
-1.58504450978e-05
-1.58553716406e-05
-1.58612676265e-05
-1.58498401533e-05
-1.58431290254e-05
-1.58374979344e-05
-1.58323245811e-05
-1.58279692546e-05
-1.582466554e-05
-1.58226158315e-05
-1.58219415144e-05
-1.5822684984e-05
-1.58248025096e-05
-1.58281711154e-05
-1.58325869936e-05
-1.58378152506e-05
-1.58434925583e-05
-1.58502473042e-05
-1.5838397159e-05
-1.58308339827e-05
-1.58244998516e-05
-1.58187993606e-05
-1.58140123085e-05
-1.5810395751e-05
-1.58081568744e-05
-1.58074199491e-05
-1.58082276885e-05
-1.58105360256e-05
-1.58142190379e-05
-1.58190680798e-05
-1.58248244654e-05
-1.58312057523e-05
-1.58388120741e-05
-1.58266018008e-05
-1.58182520266e-05
-1.58113112282e-05
-1.58051781509e-05
-1.58000443862e-05
-1.57961828338e-05
-1.57937993855e-05
-1.579301532e-05
-1.57938716934e-05
-1.57963260935e-05
-1.58002556219e-05
-1.58054528701e-05
-1.58116429667e-05
-1.58186319502e-05
-1.58270250027e-05
-1.58143985188e-05
-1.58054900878e-05
-1.57981153155e-05
-1.57916740071e-05
-1.57862999816e-05
-1.57822788937e-05
-1.57798067231e-05
-1.57789949685e-05
-1.57798801404e-05
-1.57824244433e-05
-1.57865149312e-05
-1.57919539573e-05
-1.57984537082e-05
-1.58058778168e-05
-1.58148299718e-05
-1.58019409542e-05
-1.57927730385e-05
-1.57850973459e-05
-1.57784614287e-05
-1.5772962509e-05
-1.57688835699e-05
-1.57663911791e-05
-1.576557512e-05
-1.57664650594e-05
-1.57690303151e-05
-1.57731795725e-05
-1.57787450904e-05
-1.57854413332e-05
-1.57931688386e-05
-1.58023797939e-05
-1.57914550617e-05
-1.57803900453e-05
-1.57723711586e-05
-1.57655293281e-05
-1.57599803875e-05
-1.5755928126e-05
-1.57534739326e-05
-1.57526743036e-05
-1.57535478938e-05
-1.57560751509e-05
-1.57601985621e-05
-1.57658155574e-05
-1.57727206272e-05
-1.57807960768e-05
-1.5791902113e-05
-1.59735188316e-05
-1.59734081309e-05
-1.59732940658e-05
-1.59732421998e-05
-1.59732041397e-05
-1.59731784941e-05
-1.59731564498e-05
-1.59731368349e-05
-1.59731194091e-05
-1.59731059896e-05
-1.59730995847e-05
-1.59731085112e-05
-1.59731362263e-05
-1.59732291376e-05
-1.59733191625e-05
-1.5972157151e-05
-1.59720521525e-05
-1.59719406248e-05
-1.5971899444e-05
-1.59718759273e-05
-1.5971864076e-05
-1.59718521366e-05
-1.5971836604e-05
-1.59718165994e-05
-1.59717946618e-05
-1.59717759484e-05
-1.59717718963e-05
-1.59717888221e-05
-1.59718780719e-05
-1.59719601952e-05
-1.59714541157e-05
-1.59714247494e-05
-1.59713724014e-05
-1.59713908637e-05
-1.59714184287e-05
-1.59714461295e-05
-1.59714592791e-05
-1.59714522273e-05
-1.59714233222e-05
-1.59713757051e-05
-1.59713165471e-05
-1.59712607855e-05
-1.59712174316e-05
-1.59712477552e-05
-1.59712549677e-05
-1.59715384835e-05
-1.59716184772e-05
-1.59716493861e-05
-1.59717438139e-05
-1.59718315543e-05
-1.59719028471e-05
-1.59719423648e-05
-1.59719440522e-05
-1.59719060846e-05
-1.59718315752e-05
-1.59717280312e-05
-1.59716114903e-05
-1.59714919137e-05
-1.59714393449e-05
-1.59713381646e-05
-1.59720140557e-05
-1.59721804855e-05
-1.59722704214e-05
-1.59724114815e-05
-1.59725310428e-05
-1.59726220864e-05
-1.59726722127e-05
-1.59726772479e-05
-1.597263612e-05
-1.59725510202e-05
-1.59724274964e-05
-1.59722788596e-05
-1.59721125536e-05
-1.59720012939e-05
-1.59718142038e-05
-1.59725755573e-05
-1.59727712922e-05
-1.59728701586e-05
-1.59730059649e-05
-1.59731117063e-05
-1.59731865648e-05
-1.59732244766e-05
-1.59732252061e-05
-1.59731891129e-05
-1.59731168058e-05
-1.59730097509e-05
-1.59728750906e-05
-1.59727140559e-05
-1.59725943285e-05
-1.59723782315e-05
-1.59730298048e-05
-1.59731847501e-05
-1.59732357095e-05
-1.59733112835e-05
-1.59733567389e-05
-1.59733801795e-05
-1.59733839848e-05
-1.59733731135e-05
-1.5973349735e-05
-1.5973312507e-05
-1.59732575622e-05
-1.59731836199e-05
-1.5973083058e-05
-1.59730114668e-05
-1.59728367947e-05
-1.59732552225e-05
-1.59733008683e-05
-1.59732534999e-05
-1.5973222438e-05
-1.5973170049e-05
-1.59731146088e-05
-1.59730677181e-05
-1.59730397885e-05
-1.5973034927e-05
-1.59730497109e-05
-1.59730746656e-05
-1.59730992297e-05
-1.59731057248e-05
-1.597313285e-05
-1.59730681915e-05
-1.59731884805e-05
-1.59730691177e-05
-1.59728858715e-05
-1.59727160363e-05
-1.5972541319e-05
-1.59723900326e-05
-1.59722825988e-05
-1.59722344651e-05
-1.59722514735e-05
-1.59723283351e-05
-1.59724503862e-05
-1.59725981665e-05
-1.59727439974e-05
-1.59729075385e-05
-1.59730088406e-05
-1.59728137351e-05
-1.59724923011e-05
-1.59721505632e-05
-1.59718251488e-05
-1.5971516799e-05
-1.59712630374e-05
-1.59710917457e-05
-1.59710225102e-05
-1.59710624609e-05
-1.5971204883e-05
-1.59714308357e-05
-1.59717132572e-05
-1.59720153896e-05
-1.59723380738e-05
-1.59726429313e-05
-1.59721502219e-05
-1.59716098102e-05
-1.59711008318e-05
-1.59706162123e-05
-1.5970174219e-05
-1.59698199714e-05
-1.59695869754e-05
-1.59694975342e-05
-1.59695596317e-05
-1.59697655669e-05
-1.59700935221e-05
-1.59705107241e-05
-1.59709728733e-05
-1.59714635311e-05
-1.59719892117e-05
-1.59712431247e-05
-1.59704837215e-05
-1.59698086525e-05
-1.59691705026e-05
-1.59686031294e-05
-1.59681570112e-05
-1.59678685152e-05
-1.59677612536e-05
-1.59678431708e-05
-1.59681064989e-05
-1.59685279051e-05
-1.59690716444e-05
-1.59696881717e-05
-1.59703457073e-05
-1.59710921229e-05
-1.59701604597e-05
-1.59691871089e-05
-1.59683493244e-05
-1.59675688511e-05
-1.59668905297e-05
-1.59663658966e-05
-1.59660316837e-05
-1.59659097157e-05
-1.59660084274e-05
-1.59663193746e-05
-1.59668208452e-05
-1.59674766934e-05
-1.5968236383e-05
-1.59690574829e-05
-1.59700198284e-05
-1.59689486673e-05
-1.59677582365e-05
-1.59667726122e-05
-1.5965871445e-05
-1.59651075352e-05
-1.59645266668e-05
-1.59641605317e-05
-1.59640295134e-05
-1.59641393825e-05
-1.59644841644e-05
-1.59650436079e-05
-1.59657861682e-05
-1.59666670715e-05
-1.5967636532e-05
-1.59688182878e-05
-1.59673874505e-05
-1.59662072438e-05
-1.59651159627e-05
-1.59641408061e-05
-1.59633355212e-05
-1.59627321742e-05
-1.59623563341e-05
-1.59622228771e-05
-1.59623371779e-05
-1.59626934384e-05
-1.59632767841e-05
-1.5964061748e-05
-1.59650172776e-05
-1.5966091422e-05
-1.59672638484e-05
-1.44261976588e-05
-1.44262934557e-05
-1.44264011908e-05
-1.44265117474e-05
-1.44266137696e-05
-1.44266966947e-05
-1.44267535631e-05
-1.44267792761e-05
-1.44267715435e-05
-1.44267318032e-05
-1.44266639883e-05
-1.4426574096e-05
-1.44264708069e-05
-1.44263627594e-05
-1.44262613038e-05
-1.44263756556e-05
-1.44264722033e-05
-1.44265829034e-05
-1.44266952888e-05
-1.44267986294e-05
-1.44268824847e-05
-1.44269398039e-05
-1.44269654451e-05
-1.44269570057e-05
-1.44269159978e-05
-1.44268464342e-05
-1.4426754422e-05
-1.44266489341e-05
-1.44265385194e-05
-1.44264374289e-05
-1.4426375595e-05
-1.44264584106e-05
-1.44265582424e-05
-1.44266608933e-05
-1.44267566377e-05
-1.44268349809e-05
-1.44268888853e-05
-1.4426913284e-05
-1.4426905813e-05
-1.44268680093e-05
-1.44268038622e-05
-1.44267193732e-05
-1.44266235247e-05
-1.44265242323e-05
-1.44264369283e-05
-1.44263241499e-05
-1.44263939824e-05
-1.44264829154e-05
-1.44265755844e-05
-1.44266634322e-05
-1.44267360522e-05
-1.44267863857e-05
-1.44268094322e-05
-1.44268028967e-05
-1.44267683327e-05
-1.44267097309e-05
-1.44266330102e-05
-1.44265470965e-05
-1.44264588502e-05
-1.4426384628e-05
-1.44262701746e-05
-1.44263309733e-05
-1.44264120327e-05
-1.44264970842e-05
-1.44265787132e-05
-1.44266467337e-05
-1.44266941319e-05
-1.4426715974e-05
-1.44267099937e-05
-1.44266777803e-05
-1.44266233224e-05
-1.44265525029e-05
-1.44264741455e-05
-1.44263939802e-05
-1.44263292845e-05
-1.44262185196e-05
-1.44262733386e-05
-1.44263491591e-05
-1.44264286914e-05
-1.44265056136e-05
-1.44265700386e-05
-1.44266150362e-05
-1.4426635768e-05
-1.44266300216e-05
-1.44265994042e-05
-1.4426547904e-05
-1.44264813598e-05
-1.4426408448e-05
-1.44263338865e-05
-1.44262755649e-05
-1.44261701283e-05
-1.44262218804e-05
-1.44262945528e-05
-1.44263702654e-05
-1.44264436994e-05
-1.44265052932e-05
-1.44265482981e-05
-1.44265679938e-05
-1.44265622533e-05
-1.4426532668e-05
-1.44264832047e-05
-1.44264196268e-05
-1.4426350398e-05
-1.44262794605e-05
-1.44262247451e-05
-1.44261269483e-05
-1.44261780492e-05
-1.44262489806e-05
-1.44263222895e-05
-1.44263932072e-05
-1.44264525713e-05
-1.44264938694e-05
-1.44265125866e-05
-1.44265066846e-05
-1.44264777466e-05
-1.44264296506e-05
-1.44263680487e-05
-1.44263011162e-05
-1.44262322785e-05
-1.44261787427e-05
-1.44260894812e-05
-1.44261416103e-05
-1.44262117099e-05
-1.44262835211e-05
-1.44263524792e-05
-1.44264099239e-05
-1.44264496573e-05
-1.44264674122e-05
-1.44264612818e-05
-1.44264328043e-05
-1.44263857147e-05
-1.4426325492e-05
-1.4426259936e-05
-1.44261922195e-05
-1.44261381439e-05
-1.44260568059e-05
-1.44261106122e-05
-1.44261802677e-05
-1.44262510277e-05
-1.44263182873e-05
-1.44263739078e-05
-1.44264120793e-05
-1.44264288577e-05
-1.44264225025e-05
-1.44263944752e-05
-1.44263483039e-05
-1.44262892113e-05
-1.44262245495e-05
-1.44261574872e-05
-1.44261018151e-05
-1.44260266764e-05
-1.44260822494e-05
-1.44261515088e-05
-1.44262213726e-05
-1.44262869348e-05
-1.44263406232e-05
-1.44263771356e-05
-1.44263928906e-05
-1.44263863768e-05
-1.44263589204e-05
-1.44263137878e-05
-1.44262558319e-05
-1.44261918732e-05
-1.44261253204e-05
-1.44260677935e-05
-1.4425995789e-05
-1.44260530854e-05
-1.44261220745e-05
-1.44261912142e-05
-1.44262550132e-05
-1.44263066105e-05
-1.44263413121e-05
-1.44263559976e-05
-1.44263494151e-05
-1.44263227146e-05
-1.44262788331e-05
-1.44262220974e-05
-1.44261586518e-05
-1.44260923527e-05
-1.44260328497e-05
-1.4425957763e-05
-1.44260182677e-05
-1.4426088417e-05
-1.44261575516e-05
-1.44262198664e-05
-1.44262694569e-05
-1.44263022744e-05
-1.4426315947e-05
-1.44263092914e-05
-1.44262834892e-05
-1.44262408293e-05
-1.44261850828e-05
-1.44261214108e-05
-1.44260538326e-05
-1.44259907674e-05
-1.44259112716e-05
-1.4425978798e-05
-1.44260503463e-05
-1.44261195597e-05
-1.44261801489e-05
-1.44262274291e-05
-1.44262583991e-05
-1.44262709174e-05
-1.44262644439e-05
-1.4426239593e-05
-1.44261985027e-05
-1.44261440147e-05
-1.44260800651e-05
-1.4426010977e-05
-1.44259403344e-05
-1.44259364279e-05
-1.44259724843e-05
-1.44260324735e-05
-1.44260897352e-05
-1.44261394203e-05
-1.44261780952e-05
-1.44262032861e-05
-1.44262136469e-05
-1.44262085468e-05
-1.44261887794e-05
-1.44261556919e-05
-1.44261116759e-05
-1.44260593777e-05
-1.44260020856e-05
-1.44259633331e-05
-1.41741140398e-05
-1.41740391098e-05
-1.41739631696e-05
-1.41738872962e-05
-1.41738186192e-05
-1.41737637366e-05
-1.41737270615e-05
-1.41737120363e-05
-1.41737204539e-05
-1.41737514947e-05
-1.41738026603e-05
-1.41738696361e-05
-1.41739466057e-05
-1.4174024798e-05
-1.41740999653e-05
-1.4174055458e-05
-1.41739819911e-05
-1.41739055964e-05
-1.41738294644e-05
-1.41737607006e-05
-1.41737057133e-05
-1.41736691028e-05
-1.41736543191e-05
-1.4173663227e-05
-1.41736949313e-05
-1.41737468231e-05
-1.41738144854e-05
-1.4173891856e-05
-1.41739701575e-05
-1.41740435522e-05
-1.41741168033e-05
-1.41740539672e-05
-1.41739859174e-05
-1.41739166902e-05
-1.41738533054e-05
-1.41738021699e-05
-1.41737679491e-05
-1.41737540463e-05
-1.41737622631e-05
-1.41737916666e-05
-1.41738396232e-05
-1.41739017297e-05
-1.41739719474e-05
-1.41740415817e-05
-1.41741049176e-05
-1.41741900723e-05
-1.41741358346e-05
-1.41740751511e-05
-1.4174012143e-05
-1.41739537274e-05
-1.41739061617e-05
-1.41738741422e-05
-1.41738610586e-05
-1.41738686364e-05
-1.41738959147e-05
-1.41739402377e-05
-1.41739972349e-05
-1.41740609428e-05
-1.41741230035e-05
-1.41741782191e-05
-1.41742505678e-05
-1.41742021767e-05
-1.41741468064e-05
-1.41740884159e-05
-1.41740337935e-05
-1.41739890004e-05
-1.41739587651e-05
-1.41739463808e-05
-1.41739535241e-05
-1.41739791822e-05
-1.41740207112e-05
-1.41740737837e-05
-1.41741325653e-05
-1.41741891718e-05
-1.41742388253e-05
-1.41743032186e-05
-1.41742590637e-05
-1.41742075436e-05
-1.41741528337e-05
-1.41741013656e-05
-1.41740589778e-05
-1.41740303157e-05
-1.41740186015e-05
-1.41740254233e-05
-1.41740497635e-05
-1.41740889856e-05
-1.4174138859e-05
-1.41741937155e-05
-1.41742462153e-05
-1.41742919648e-05
-1.4174351596e-05
-1.41743104544e-05
-1.41742617368e-05
-1.41742099585e-05
-1.41741610666e-05
-1.4174120737e-05
-1.41740934665e-05
-1.41740823787e-05
-1.41740889501e-05
-1.41741121754e-05
-1.41741494528e-05
-1.41741966817e-05
-1.41742483956e-05
-1.4174297802e-05
-1.41743408561e-05
-1.41743963496e-05
-1.41743569502e-05
-1.41743102462e-05
-1.41742606865e-05
-1.41742139167e-05
-1.4174175364e-05
-1.41741493516e-05
-1.41741388397e-05
-1.41741452218e-05
-1.41741674949e-05
-1.41742031428e-05
-1.41742482218e-05
-1.41742974975e-05
-1.41743447091e-05
-1.4174386208e-05
-1.41744378027e-05
-1.41743993378e-05
-1.41743539674e-05
-1.41743060572e-05
-1.4174261006e-05
-1.41742239724e-05
-1.41741990755e-05
-1.4174189086e-05
-1.41741952942e-05
-1.41742167304e-05
-1.41742509886e-05
-1.41742943218e-05
-1.41743417575e-05
-1.4174387539e-05
-1.41744283414e-05
-1.41744766189e-05
-1.41744384725e-05
-1.41743938474e-05
-1.41743471483e-05
-1.41743035073e-05
-1.41742678407e-05
-1.41742439649e-05
-1.41742344678e-05
-1.41742404977e-05
-1.41742611593e-05
-1.41742941859e-05
-1.41743360741e-05
-1.41743821466e-05
-1.41744271015e-05
-1.41744680106e-05
-1.41745135566e-05
-1.41744752904e-05
-1.41744309741e-05
-1.41743851426e-05
-1.41743427266e-05
-1.41743083037e-05
-1.41742854088e-05
-1.41742763599e-05
-1.41742821928e-05
-1.41743020732e-05
-1.4174333945e-05
-1.4174374588e-05
-1.41744196665e-05
-1.41744643174e-05
-1.41745058197e-05
-1.41745498456e-05
-1.41745107949e-05
-1.4174466326e-05
-1.4174421041e-05
-1.41743796717e-05
-1.41743465031e-05
-1.41743245379e-05
-1.41743159576e-05
-1.41743215081e-05
-1.41743406029e-05
-1.41743713016e-05
-1.41744108231e-05
-1.41744552441e-05
-1.41745000537e-05
-1.41745427842e-05
-1.41745877185e-05
-1.41745468805e-05
-1.4174501333e-05
-1.41744559642e-05
-1.41744154018e-05
-1.41743831649e-05
-1.4174362229e-05
-1.41743539238e-05
-1.41743593303e-05
-1.41743775277e-05
-1.41744072209e-05
-1.41744459001e-05
-1.41744902397e-05
-1.41745361918e-05
-1.41745811347e-05
-1.41746285364e-05
-1.41745842012e-05
-1.41745367639e-05
-1.41744907909e-05
-1.41744505884e-05
-1.41744194188e-05
-1.4174399074e-05
-1.4174391305e-05
-1.41743962883e-05
-1.41744138351e-05
-1.41744425399e-05
-1.41744806038e-05
-1.41745253435e-05
-1.41745730961e-05
-1.41746221147e-05
-1.41746347867e-05
-1.41745981514e-05
-1.41745556133e-05
-1.41745155111e-05
-1.41744810105e-05
-1.41744542685e-05
-1.41744370692e-05
-1.41744302164e-05
-1.41744342603e-05
-1.41744486778e-05
-1.4174472702e-05
-1.41745048905e-05
-1.41745434539e-05
-1.41745858472e-05
-1.41746267223e-05
-1.30164186039e-05
-1.301646895e-05
-1.30165240377e-05
-1.30165826827e-05
-1.30166363636e-05
-1.30166799353e-05
-1.30167103233e-05
-1.30167250178e-05
-1.30167227145e-05
-1.30167040257e-05
-1.3016670801e-05
-1.30166261796e-05
-1.30165744438e-05
-1.30165220985e-05
-1.30164723108e-05
-1.3016455293e-05
-1.30165047321e-05
-1.30165601532e-05
-1.30166187e-05
-1.30166723452e-05
-1.3016716024e-05
-1.30167464301e-05
-1.30167610012e-05
-1.30167583944e-05
-1.30167392697e-05
-1.30167055507e-05
-1.30166604765e-05
-1.30166084989e-05
-1.30165561488e-05
-1.30165076689e-05
-1.30164103285e-05
-1.30164525679e-05
-1.30165021216e-05
-1.30165555387e-05
-1.30166052992e-05
-1.30166462814e-05
-1.30166750093e-05
-1.30166889388e-05
-1.30166867691e-05
-1.30166691922e-05
-1.30166381488e-05
-1.30165968832e-05
-1.30165498344e-05
-1.30165034949e-05
-1.30164619723e-05
-1.30163584715e-05
-1.30163948917e-05
-1.30164391739e-05
-1.30164879856e-05
-1.30165341379e-05
-1.3016572568e-05
-1.30165996719e-05
-1.30166129486e-05
-1.30166111582e-05
-1.30165950087e-05
-1.30165664485e-05
-1.30165287031e-05
-1.30164861509e-05
-1.30164450654e-05
-1.3016409165e-05
-1.30163160081e-05
-1.30163485242e-05
-1.30163888424e-05
-1.30164339591e-05
-1.30164770682e-05
-1.30165132619e-05
-1.30165389114e-05
-1.30165515612e-05
-1.30165500196e-05
-1.30165350063e-05
-1.30165084534e-05
-1.30164735363e-05
-1.30164345237e-05
-1.30163973478e-05
-1.30163654054e-05
-1.30162787013e-05
-1.30163079849e-05
-1.30163451775e-05
-1.30163870782e-05
-1.30164273802e-05
-1.3016461409e-05
-1.30164855933e-05
-1.30164975689e-05
-1.3016496201e-05
-1.30164822065e-05
-1.3016457476e-05
-1.30164250886e-05
-1.30163891535e-05
-1.30163551856e-05
-1.30163263374e-05
-1.30162433818e-05
-1.30162701013e-05
-1.30163046329e-05
-1.30163435074e-05
-1.30163810778e-05
-1.30164129077e-05
-1.30164355768e-05
-1.3016446829e-05
-1.30164455996e-05
-1.30164325813e-05
-1.30164096016e-05
-1.3016379596e-05
-1.30163464697e-05
-1.30163152916e-05
-1.3016289021e-05
-1.30162090669e-05
-1.3016233642e-05
-1.30162657619e-05
-1.301630187e-05
-1.3016336816e-05
-1.3016366445e-05
-1.30163875514e-05
-1.30163980403e-05
-1.30163969185e-05
-1.30163848544e-05
-1.30163635747e-05
-1.30163358384e-05
-1.30163053084e-05
-1.30162765912e-05
-1.30162525101e-05
-1.30161751246e-05
-1.30161978459e-05
-1.30162277675e-05
-1.30162612793e-05
-1.3016293653e-05
-1.30163210687e-05
-1.30163405888e-05
-1.30163502871e-05
-1.30163492653e-05
-1.30163381458e-05
-1.30163185326e-05
-1.30162929762e-05
-1.30162648598e-05
-1.3016238342e-05
-1.30162161695e-05
-1.3016141024e-05
-1.30161618986e-05
-1.30161898182e-05
-1.30162208971e-05
-1.30162507905e-05
-1.30162760216e-05
-1.30162939389e-05
-1.30163028378e-05
-1.30163019092e-05
-1.30162917315e-05
-1.3016273756e-05
-1.30162502941e-05
-1.30162244232e-05
-1.30161998729e-05
-1.3016179371e-05
-1.30161061292e-05
-1.30161253061e-05
-1.30161514138e-05
-1.30161802116e-05
-1.30162077186e-05
-1.30162307845e-05
-1.30162471168e-05
-1.30162552052e-05
-1.30162543841e-05
-1.30162451407e-05
-1.30162287746e-05
-1.30162073174e-05
-1.30161835078e-05
-1.30161606852e-05
-1.30161416307e-05
-1.30160699397e-05
-1.3016087703e-05
-1.30161122298e-05
-1.30161389879e-05
-1.30161642151e-05
-1.3016185203e-05
-1.3016199958e-05
-1.30162072647e-05
-1.30162065418e-05
-1.30161982348e-05
-1.30161834376e-05
-1.30161638692e-05
-1.30161418842e-05
-1.30161204602e-05
-1.30161024937e-05
-1.30160310635e-05
-1.30160481649e-05
-1.30160717927e-05
-1.30160969631e-05
-1.30161202968e-05
-1.30161393807e-05
-1.30161526962e-05
-1.30161592489e-05
-1.30161586217e-05
-1.30161511794e-05
-1.30161377649e-05
-1.3016119792e-05
-1.30160991478e-05
-1.30160784124e-05
-1.30160607129e-05
-1.30159887817e-05
-1.30160065544e-05
-1.30160299207e-05
-1.30160541529e-05
-1.30160758988e-05
-1.30160934385e-05
-1.3016105515e-05
-1.30161114165e-05
-1.30161108656e-05
-1.30161040881e-05
-1.30160918253e-05
-1.30160750835e-05
-1.30160552712e-05
-1.30160345948e-05
-1.30160157752e-05
-1.30159683406e-05
-1.30159801698e-05
-1.30159989743e-05
-1.30160178898e-05
-1.30160349128e-05
-1.30160486137e-05
-1.30160581484e-05
-1.30160630157e-05
-1.30160630033e-05
-1.30160583723e-05
-1.30160495473e-05
-1.30160373488e-05
-1.30160226339e-05
-1.30160066724e-05
-1.30159940445e-05
-1.24851221027e-05
-1.24850890039e-05
-1.24850555537e-05
-1.24850212721e-05
-1.24849899456e-05
-1.24849645159e-05
-1.24849475253e-05
-1.24849406654e-05
-1.24849448682e-05
-1.24849597921e-05
-1.24849842545e-05
-1.24850161919e-05
-1.24850527848e-05
-1.24850897235e-05
-1.24851250922e-05
-1.24850974077e-05
-1.24850653115e-05
-1.24850317087e-05
-1.24849974061e-05
-1.24849659512e-05
-1.24849403714e-05
-1.24849232927e-05
-1.24849164556e-05
-1.24849208287e-05
-1.2484936021e-05
-1.24849607955e-05
-1.24849930212e-05
-1.24850297621e-05
-1.24850666897e-05
-1.24851011325e-05
-1.24851290727e-05
-1.24851019708e-05
-1.24850721171e-05
-1.24850410216e-05
-1.24850120932e-05
-1.24849884277e-05
-1.24849725694e-05
-1.24849662243e-05
-1.24849703199e-05
-1.24849844559e-05
-1.24850073868e-05
-1.24850369878e-05
-1.24850703354e-05
-1.24851031269e-05
-1.24851327751e-05
-1.24851655403e-05
-1.24851422049e-05
-1.24851156786e-05
-1.24850874532e-05
-1.24850609104e-05
-1.24850390655e-05
-1.24850243715e-05
-1.24850185093e-05
-1.24850223644e-05
-1.24850355283e-05
-1.24850567566e-05
-1.24850839419e-05
-1.24851142075e-05
-1.2485143396e-05
-1.24851691802e-05
-1.24851956424e-05
-1.24851749021e-05
-1.24851507928e-05
-1.24851247114e-05
-1.24851000483e-05
-1.24850796769e-05
-1.24850659834e-05
-1.24850605638e-05
-1.24850642684e-05
-1.24850766659e-05
-1.24850965285e-05
-1.2485121786e-05
-1.24851496402e-05
-1.2485176161e-05
-1.24851992286e-05
-1.24852223024e-05
-1.24852036098e-05
-1.24851813411e-05
-1.24851571756e-05
-1.24851342375e-05
-1.24851152659e-05
-1.24851025192e-05
-1.24850975358e-05
-1.24851011081e-05
-1.2485112805e-05
-1.24851314186e-05
-1.24851549499e-05
-1.24851807095e-05
-1.2485205045e-05
-1.24852260021e-05
-1.24852477963e-05
-1.24852308081e-05
-1.24852101044e-05
-1.24851876474e-05
-1.24851662912e-05
-1.24851486491e-05
-1.24851368296e-05
-1.24851322857e-05
-1.24851357325e-05
-1.24851467448e-05
-1.24851641532e-05
-1.24851860542e-05
-1.24852098999e-05
-1.24852323356e-05
-1.24852515212e-05
-1.24852728098e-05
-1.24852571352e-05
-1.24852378523e-05
-1.24852169804e-05
-1.24851971669e-05
-1.24851808352e-05
-1.24851699397e-05
-1.24851658199e-05
-1.24851691293e-05
-1.24851794469e-05
-1.24851956659e-05
-1.24852160009e-05
-1.24852380675e-05
-1.24852588186e-05
-1.24852765016e-05
-1.24852977025e-05
-1.24852832831e-05
-1.24852652907e-05
-1.2485245893e-05
-1.24852275451e-05
-1.24852124753e-05
-1.2485202482e-05
-1.2485198767e-05
-1.24852019164e-05
-1.24852115246e-05
-1.24852265599e-05
-1.24852453778e-05
-1.24852657792e-05
-1.24852850162e-05
-1.24853013577e-05
-1.24853229768e-05
-1.24853096817e-05
-1.24852928553e-05
-1.24852748529e-05
-1.24852579197e-05
-1.24852441064e-05
-1.24852349911e-05
-1.24852316662e-05
-1.24852346264e-05
-1.24852435041e-05
-1.24852573571e-05
-1.24852747008e-05
-1.2485293539e-05
-1.24853114052e-05
-1.24853265719e-05
-1.24853489075e-05
-1.24853366835e-05
-1.24853209381e-05
-1.24853042318e-05
-1.24852886767e-05
-1.24852760628e-05
-1.24852678084e-05
-1.24852648369e-05
-1.24852675828e-05
-1.24852757051e-05
-1.24852883796e-05
-1.24853042963e-05
-1.24853216837e-05
-1.24853383333e-05
-1.2485352437e-05
-1.24853759349e-05
-1.24853645372e-05
-1.24853496771e-05
-1.248533415e-05
-1.24853198561e-05
-1.2485308455e-05
-1.24853009973e-05
-1.24852983798e-05
-1.24853008602e-05
-1.24853082302e-05
-1.24853197326e-05
-1.24853342871e-05
-1.24853503738e-05
-1.24853660104e-05
-1.24853793054e-05
-1.24854048497e-05
-1.24853937749e-05
-1.24853793864e-05
-1.24853646734e-05
-1.24853515658e-05
-1.24853410962e-05
-1.24853344827e-05
-1.24853320722e-05
-1.24853343678e-05
-1.2485340971e-05
-1.24853514232e-05
-1.24853648038e-05
-1.24853799056e-05
-1.24853950065e-05
-1.24854080048e-05
-1.2485436026e-05
-1.24854245098e-05
-1.24854101243e-05
-1.24853960101e-05
-1.24853836078e-05
-1.24853741301e-05
-1.24853679807e-05
-1.24853659033e-05
-1.24853678872e-05
-1.24853739043e-05
-1.24853834466e-05
-1.24853958948e-05
-1.24854103521e-05
-1.24854253227e-05
-1.24854389564e-05
-1.24854520911e-05
-1.24854447845e-05
-1.24854336604e-05
-1.24854229106e-05
-1.24854136663e-05
-1.24854064487e-05
-1.24854018999e-05
-1.24854002415e-05
-1.24854017048e-05
-1.24854061023e-05
-1.24854131666e-05
-1.24854224252e-05
-1.24854333212e-05
-1.24854449641e-05
-1.24854541904e-05
-1.1523532944e-05
-1.15235573173e-05
-1.15235818305e-05
-1.15236071673e-05
-1.15236307796e-05
-1.15236502014e-05
-1.15236633575e-05
-1.15236691451e-05
-1.15236671087e-05
-1.15236576216e-05
-1.1523641582e-05
-1.1523620449e-05
-1.15235962342e-05
-1.15235720106e-05
-1.15235493287e-05
-1.15235501325e-05
-1.15235739141e-05
-1.15235985471e-05
-1.15236238616e-05
-1.15236474474e-05
-1.15236668665e-05
-1.15236800346e-05
-1.15236857887e-05
-1.15236836283e-05
-1.15236739528e-05
-1.15236576927e-05
-1.1523636361e-05
-1.15236120448e-05
-1.15235878336e-05
-1.15235657862e-05
-1.1523529155e-05
-1.15235493852e-05
-1.15235713896e-05
-1.15235944747e-05
-1.15236162513e-05
-1.15236343008e-05
-1.15236466191e-05
-1.15236520515e-05
-1.15236500977e-05
-1.15236411559e-05
-1.15236261613e-05
-1.15236066266e-05
-1.15235846306e-05
-1.15235632391e-05
-1.15235444488e-05
-1.15235047972e-05
-1.15235221955e-05
-1.15235418047e-05
-1.15235628942e-05
-1.15235829796e-05
-1.152359973e-05
-1.15236112365e-05
-1.15236163551e-05
-1.15236145941e-05
-1.15236063446e-05
-1.15235925391e-05
-1.15235746798e-05
-1.15235548118e-05
-1.15235358924e-05
-1.15235197441e-05
-1.15234847501e-05
-1.15235001733e-05
-1.15235179436e-05
-1.1523537442e-05
-1.1523556114e-05
-1.15235717598e-05
-1.15235825513e-05
-1.15235873818e-05
-1.1523585761e-05
-1.15235780771e-05
-1.15235652465e-05
-1.15235487451e-05
-1.15235305624e-05
-1.15235134838e-05
-1.1523499181e-05
-1.1523467023e-05
-1.15234807441e-05
-1.15234970726e-05
-1.15235151409e-05
-1.15235324991e-05
-1.15235470847e-05
-1.15235571808e-05
-1.1523561718e-05
-1.15235602208e-05
-1.15235530622e-05
-1.15235411332e-05
-1.15235258598e-05
-1.15235091533e-05
-1.15234935963e-05
-1.15234807304e-05
-1.15234500929e-05
-1.15234624313e-05
-1.15234774932e-05
-1.15234941964e-05
-1.15235102912e-05
-1.15235238306e-05
-1.1523533225e-05
-1.1523537456e-05
-1.15235360755e-05
-1.15235294316e-05
-1.15235183792e-05
-1.15235042733e-05
-1.1523488923e-05
-1.15234746927e-05
-1.15234630337e-05
-1.15234334698e-05
-1.15234446486e-05
-1.15234585404e-05
-1.15234739731e-05
-1.15234888423e-05
-1.15235013462e-05
-1.15235100305e-05
-1.15235139512e-05
-1.1523512685e-05
-1.15235065562e-05
-1.15234963664e-05
-1.15234833821e-05
-1.15234692941e-05
-1.15234562453e-05
-1.15234456073e-05
-1.15234168682e-05
-1.15234270072e-05
-1.15234398039e-05
-1.15234540284e-05
-1.15234677102e-05
-1.15234792037e-05
-1.15234871837e-05
-1.15234907981e-05
-1.15234896502e-05
-1.15234840408e-05
-1.15234747043e-05
-1.15234628052e-05
-1.1523449898e-05
-1.15234379089e-05
-1.15234281748e-05
-1.15234000092e-05
-1.15234091303e-05
-1.15234209289e-05
-1.15234340113e-05
-1.15234465595e-05
-1.15234570594e-05
-1.1523464351e-05
-1.15234676599e-05
-1.15234666407e-05
-1.15234615535e-05
-1.152345306e-05
-1.15234422078e-05
-1.15234304029e-05
-1.15234193679e-05
-1.15234104156e-05
-1.15233826057e-05
-1.15233907966e-05
-1.15234016681e-05
-1.15234136827e-05
-1.15234251406e-05
-1.15234346966e-05
-1.15234413161e-05
-1.15234443402e-05
-1.15234434581e-05
-1.15234388972e-05
-1.15234312355e-05
-1.15234213891e-05
-1.15234106001e-05
-1.1523400406e-05
-1.15233921386e-05
-1.15233644179e-05
-1.15233718283e-05
-1.15233819006e-05
-1.15233929569e-05
-1.15234034199e-05
-1.15234120542e-05
-1.15234180535e-05
-1.15234207966e-05
-1.15234200736e-05
-1.15234160342e-05
-1.15234091828e-05
-1.15234002883e-05
-1.15233904053e-05
-1.15233808971e-05
-1.15233731289e-05
-1.15233448175e-05
-1.15233518077e-05
-1.15233614103e-05
-1.15233717711e-05
-1.15233813651e-05
-1.15233892718e-05
-1.15233946557e-05
-1.15233972037e-05
-1.15233965988e-05
-1.15233930615e-05
-1.15233869328e-05
-1.15233788509e-05
-1.15233696499e-05
-1.15233604991e-05
-1.15233528563e-05
-1.15233233524e-05
-1.15233306062e-05
-1.15233401238e-05
-1.15233500659e-05
-1.15233590938e-05
-1.15233663211e-05