/*--------------------------------*- C++ -*----------------------------------*\
  =========                 |
  \\      /  F ield         | OpenFOAM: The Open Source CFD Toolbox
   \\    /   O peration     | Website:  https://openfoam.org
    \\  /    A nd           | Version:  7
     \\/     M anipulation  |
\*---------------------------------------------------------------------------*/
FoamFile
{
    version     2.0;
    format      ascii;
    class       surfaceScalarField;
    location    "2.06";
    object      phi;
}
// * * * * * * * * * * * * * * * * * * * * * * * * * * * * * * * * * * * * * //

dimensions      [0 3 -1 0 0 0 0];

internalField   nonuniform List<scalar> 
65775
(
-1.97859355741e-11
-3.09741022282e-09
-1.80335559826e-10
-1.59604323764e-13
-3.43652664042e-11
-3.2544955253e-09
-1.9950448612e-10
-4.19675267024e-11
-3.39632562787e-09
-2.18309894333e-10
-4.16574272571e-11
-3.51905868891e-09
-2.3572806889e-10
-3.46944902965e-11
-3.61750088422e-09
-2.50640685022e-10
-2.25252292261e-11
-3.68970000969e-09
-2.62076353037e-10
-7.08114987994e-12
-3.73499555417e-09
-2.69356867526e-10
9.49743602195e-12
-3.75191927964e-09
-2.71963786735e-10
2.49000260173e-11
-3.73488524989e-09
-2.69318146184e-10
3.69938420838e-11
-3.68948610831e-09
-2.61999782176e-10
4.38612220056e-11
-3.61720031438e-09
-2.50527762522e-10
4.40537591501e-11
-3.51872276648e-09
-2.35580834946e-10
3.63181591052e-11
-3.39598817487e-09
-2.18130520066e-10
2.15715416107e-11
-3.25422686266e-09
-1.99294293085e-10
-3.09716618291e-09
-1.80095172612e-10
1.30437317258e-12
-5.75107780936e-11
-5.61109637111e-09
-5.70327482419e-10
-2.95768609953e-13
-1.02031180583e-10
-5.88745182159e-09
-6.34635740293e-10
-1.24192508789e-10
-6.1411613677e-09
-6.9783416667e-10
-1.2398572846e-10
-6.35883580296e-09
-7.56406009445e-10
-1.03611839096e-10
-6.53289619759e-09
-8.06590698145e-10
-6.74250549408e-11
-6.65994443103e-09
-8.4511031888e-10
-2.11727569266e-11
-6.73941694574e-09
-8.69626597897e-10
2.84860753582e-11
-6.76902383668e-09
-8.78370433506e-10
7.46075010021e-11
-6.73913171421e-09
-8.69514487845e-10
1.10547246541e-10
-6.65939306654e-09
-8.44888574116e-10
1.30580579572e-10
-6.53212390893e-09
-8.06263701413e-10
1.30360385116e-10
-6.35794524166e-09
-7.55979503199e-10
1.07692686944e-10
-6.14025982992e-09
-6.97314383091e-10
6.25311399107e-11
-5.88666323596e-09
-6.34026634855e-10
-5.61037218997e-09
-5.69633683694e-10
3.84099198726e-12
-9.33224936851e-11
-7.54919426495e-09
-9.53862749322e-10
-5.25682280237e-13
-1.63350673043e-10
-7.90786026375e-09
-1.06499349428e-09
-1.98192580033e-10
-8.23952733219e-09
-1.17396513777e-09
-1.97983446932e-10
-8.52154565732e-09
-1.27472447624e-09
-1.6565616378e-10
-8.74616604466e-09
-1.36089862314e-09
-1.0797874826e-10
-8.90924424932e-09
-1.42695534773e-09
-3.41130676194e-11
-9.01093142887e-09
-1.4689355407e-09
4.52101300708e-11
-9.04875385997e-09
-1.48386356739e-09
1.18895201664e-10
-9.01050965737e-09
-1.46875575009e-09
1.76229058767e-10
-8.90843444556e-09
-1.42660000907e-09
2.08074393777e-10
-8.74503897389e-09
-1.36037529075e-09
2.07670694698e-10
-8.52023543745e-09
-1.27404325658e-09
1.7208200747e-10
-8.23819353943e-09
-1.17313751747e-09
1.01083519987e-10
-7.9066268559e-09
-1.0640278857e-09
-7.54802424996e-09
-9.52769076785e-10
5.96125350034e-12
-1.26697302044e-10
-8.94243149691e-09
-1.30922643428e-09
-6.42783958714e-13
-2.18329523548e-10
-9.35010317851e-09
-1.46486025993e-09
-2.63952160343e-10
-9.72662950179e-09
-1.61677716039e-09
-2.63353137383e-10
-1.00439180882e-08
-1.75668465411e-09
-2.20368039359e-10
-1.02952606485e-08
-1.87595457462e-09
-1.43755454008e-10
-1.04766847755e-08
-1.96715741693e-09
-4.56446122749e-11
-1.05894187676e-08
-2.02499624559e-09
5.97048931196e-11
-1.06313196674e-08
-2.04550976514e-09
1.57601124219e-10
-1.05889014904e-08
-2.02476395234e-09
2.33800414018e-10
-1.04756958342e-08
-1.96669829121e-09
2.76193454228e-10
-1.02938902919e-08
-1.87527830585e-09
2.76026271927e-10
-1.00423154945e-08
-1.75580447041e-09
2.29454215861e-10
-9.72497810312e-09
-1.61570870292e-09
1.3659694628e-10
-9.34850787858e-09
-1.46361580909e-09
-8.94086278668e-09
-1.30782017344e-09
7.70420821864e-12
-1.56802874431e-10
-9.83807097882e-09
-1.62066938027e-09
-6.78518894057e-13
-2.67068025277e-10
-1.02661414968e-08
-1.81574379542e-09
-3.21764359611e-10
-1.06587841321e-08
-2.00499012657e-09
-3.20487516276e-10
-1.09865036635e-08
-2.17839392781e-09
-2.68061484519e-10
-1.12443651707e-08
-2.32561830796e-09
-1.74955371662e-10
-1.1429337574e-08
-2.43785026733e-09
-5.58360567064e-11
-1.15438502663e-08
-2.50884953372e-09
7.2035829909e-11
-1.15864051553e-08
-2.53396662168e-09
1.90920375187e-10
-1.15432750286e-08
-2.50857925593e-09
2.83568691883e-10
-1.14282400428e-08
-2.43731607941e-09
3.3532712552e-10
-1.12428446601e-08
-2.32483144333e-09
3.35727332156e-10
-1.0984712184e-08
-2.17737003433e-09
2.79934340373e-10
-1.06569080844e-08
-2.00374836344e-09
1.68273957788e-10
-1.02642671796e-08
-1.81429972621e-09
-9.83617496465e-09
-1.61904016148e-09
9.06111386796e-12
-1.83407993105e-10
-1.02945946032e-08
-1.87718020995e-09
-6.65242288183e-13
-3.09935345623e-10
-1.07198597659e-08
-2.10511529611e-09
-3.72278549953e-10
-1.11059305059e-08
-2.32468497682e-09
-3.70147366058e-10
-1.1424836562e-08
-2.52474923783e-09
-3.09394869552e-10
-1.16737947209e-08
-2.69385739956e-09
-2.02000197983e-10
-1.18512031048e-08
-2.82234248878e-09
-6.4791607841e-11
-1.19606029883e-08
-2.90341022925e-09
8.24416287019e-11
-1.20012620367e-08
-2.93201378904e-09
2.19404208444e-10
-1.19600030977e-08
-2.90311384949e-09
3.26314415554e-10
-1.18500581324e-08
-2.82175698324e-09
3.86350821669e-10
-1.16722044177e-08
-2.69299553768e-09
3.87532761609e-10
-1.14229462146e-08
-2.52362910881e-09
3.23995621469e-10
-1.11039184463e-08
-2.32332927675e-09
1.95972881606e-10
-1.07177857981e-08
-2.10354257339e-09
-1.02924347286e-08
-1.87540937718e-09
1.00685430163e-11
-2.06663818162e-10
-1.03761445136e-08
-2.07292493462e-09
-6.2579262632e-13
-3.47456667247e-10
-1.07809730422e-08
-2.32677003125e-09
-4.16279158891e-10
-1.11441321881e-08
-2.56949818776e-09
-4.13213557569e-10
-1.14407114987e-08
-2.78940086235e-09
-3.45135318101e-10
-1.16702033836e-08
-2.97444987693e-09
-2.25378665055e-10
-1.18326153824e-08
-3.11457844601e-09
-7.26184282674e-11
-1.19323552775e-08
-3.20275676082e-09
9.12297127131e-11
-1.19694237718e-08
-3.23378045419e-09
2.43735916829e-10
-1.19317556727e-08
-3.20244302266e-09
3.62988788581e-10
-1.18314683909e-08
-3.1139592915e-09
4.30316281722e-10
-1.16686016033e-08
-2.97354002042e-09
4.32382267004e-10
-1.14387865545e-08
-2.78822139721e-09
3.62303078552e-10
-1.11420458427e-08
-2.56807586136e-09
2.1995879887e-10
-1.07787637498e-08
-2.32512638596e-09
-1.03737755112e-08
-2.07108002908e-09
1.07920360849e-11
-2.26888503571e-10
-1.0147838201e-08
-2.20660156529e-09
-5.73597366274e-13
-3.80161389253e-10
-1.05198491464e-08
-2.47985012559e-09
-4.54486182463e-10
-1.08494617983e-08
-2.73922334365e-09
-4.5047317273e-10
-1.11153100723e-08
-2.97289254625e-09
-3.75965203228e-10
-1.13190682486e-08
-3.16867716889e-09
-2.45522211061e-10
-1.14622619456e-08
-3.31645749021e-09
-7.94042240719e-11
-1.15498196685e-08
-3.40920106273e-09
9.86853373968e-11
-1.15823408057e-08
-3.44172646155e-09
2.64540039996e-10
-1.15492355898e-08
-3.40887598821e-09
3.9445888007e-10
-1.14611401335e-08
-3.31581697954e-09
4.68183312549e-10
-1.1317488818e-08
-3.1677384431e-09
4.71153506526e-10
-1.11133867481e-08
-2.97168047204e-09
3.95524175056e-10
-1.0847335068e-08
-2.7377694348e-09
2.4066364809e-10
-1.05175380714e-08
-2.47817905419e-09
-1.01452812058e-08
-2.20473467298e-09
1.1308403921e-11
-2.44440563553e-10
-9.6723366449e-09
-2.28029306207e-09
-5.17211204394e-13
-4.08520400158e-10
-1.0003773027e-08
-2.56732773311e-09
-4.87499416962e-10
-1.02938542511e-08
-2.83787235319e-09
-4.82559293287e-10
-1.05247120283e-08
-3.08029385492e-09
-4.02423104901e-10
-1.06999330355e-08
-3.28256602683e-09
-2.62766195591e-10
-1.08222463398e-08
-3.43476507893e-09
-8.52150476708e-11
-1.0896700382e-08
-3.5300189996e-09
1.05032703753e-10
-1.09243008651e-08
-3.56330205362e-09
2.82307644268e-10
-1.0896136912e-08
-3.52968669507e-09
4.21414189309e-10
-1.08211575937e-08
-3.4341116199e-09
5.00728249624e-10
-1.06983835185e-08
-3.2816116153e-09
5.04578937294e-10
-1.05227945244e-08
-3.07906780728e-09
4.2424807017e-10
-1.02916860489e-08
-2.83641158411e-09
2.58547461512e-10
-1.0001354996e-08
-2.56566013205e-09
-9.66958966247e-09
-2.27844197992e-09
1.16884831478e-11
-2.59629597697e-10
-9.00773026162e-09
-2.29826570322e-09
-4.62757131967e-13
-4.329309098e-10
-9.29462662586e-09
-2.59451615037e-09
-5.15820254894e-10
-9.54269763168e-09
-2.87188616234e-09
-5.09980243869e-10
-9.7374687503e-09
-3.11912418109e-09
-4.24923531495e-10
-9.88398544599e-09
-3.32456617247e-09
-2.77360857791e-10
-9.98567407399e-09
-3.47866398312e-09
-9.01013793444e-11
-1.00472873331e-08
-3.57482544856e-09
1.1043108311e-10
-1.00700277168e-08
-3.60828253364e-09
2.97397118692e-10
-1.00467401234e-08
-3.57448891999e-09
4.44375759885e-10
-9.98460851677e-09
-3.47800364753e-09
5.28563016345e-10
-9.88244898935e-09
-3.32360544045e-09
5.3325814338e-10
-9.73553196249e-09
-3.11789721469e-09
4.48962243621e-10
-9.54045344487e-09
-2.87043567236e-09
2.73996904403e-10
-9.29206013456e-09
-2.59287316948e-09
-9.00474624367e-09
-2.29645654788e-09
1.19924736983e-11
-2.72649930509e-10
-8.20645772842e-09
-2.26596272897e-09
-4.13225506639e-13
-4.5374869975e-10
-8.44764765616e-09
-2.56789429163e-09
-5.39936370193e-10
-8.65371236137e-09
-2.84879774853e-09
-5.33201610282e-10
-8.81366590868e-09
-3.09787013872e-09
-4.43814023608e-10
-8.93325588169e-09
-3.30395180232e-09
-2.89503310795e-10
-9.01593887971e-09
-3.45801539464e-09
-9.41072481853e-11
-9.06579467529e-09
-3.55384874612e-09
1.14988268415e-10
-9.08403731349e-09
-3.58702684077e-09
3.10069732035e-10
-9.06525079183e-09
-3.55351057042e-09
4.63755737681e-10
-9.01487081261e-09
-3.457353211e-09
5.5221783838e-10
-8.9316939708e-09
-3.30299211767e-09
5.57742425636e-10
-8.81165854046e-09
-3.09665197919e-09
4.70082501234e-10
-8.65132820943e-09
-2.84736978617e-09
2.87263673982e-10
-8.44485750691e-09
-2.56629054047e-09
-8.2031651872e-09
-2.26421312767e-09
1.22650142015e-11
-2.83570087885e-10
-7.31499021261e-09
-2.1892770633e-09
-3.70054965071e-13
-4.71451495359e-10
-7.51080809302e-09
-2.49431845041e-09
-5.60502436979e-10
-7.67666202945e-09
-2.77638545863e-09
-5.52761897233e-10
-7.80495112458e-09
-3.0250846358e-09
-4.59439309362e-10
-7.90080477589e-09
-3.22988565895e-09
-2.99370321187e-10
-7.96699353233e-09
-3.38242693435e-09
-9.72777141736e-11
-8.00668353313e-09
-3.47697341117e-09
1.18777078103e-10
-8.02097854407e-09
-3.50951894195e-09
3.2053050712e-10
-8.00612279628e-09
-3.47663625544e-09
4.79928352767e-10
-7.96588337859e-09
-3.38176789761e-09
5.72261869093e-10
-7.89915998801e-09
-3.22893382344e-09
5.7871796882e-10
-7.80279972325e-09
-3.02388345177e-09
4.8811792919e-10
-7.67404832814e-09
-2.77498961692e-09
2.98444980128e-10
-7.50769229265e-09
-2.49276522455e-09
-7.31129327825e-09
-2.18759987366e-09
1.25332701672e-11
-2.92734920438e-10
-6.37357807455e-09
-2.07408566657e-09
-3.38062521536e-13
-4.87264109208e-10
-6.52439900654e-09
-2.38058838511e-09
-5.78651566218e-10
-6.65382462661e-09
-2.66222530937e-09
-5.69352467071e-10
-6.75526402794e-09
-2.90891676203e-09
-4.72148217685e-10
-6.83145059308e-09
-3.11094982643e-09
-3.07116316616e-10
-6.88408816923e-09
-3.26079876753e-09
-9.96549865468e-11
-6.91542229988e-09
-3.35330122308e-09
1.21839777456e-10
-6.92641314102e-09
-3.38493467596e-09
3.28934369878e-10
-6.91481670201e-09
-3.35296828885e-09
4.93243594707e-10
-6.8828815574e-09
-3.26014872244e-09
5.8938790719e-10
-6.82964836876e-09
-3.11001332355e-09
5.97320716166e-10
-6.75287492786e-09
-2.9077405581e-09
5.04297443403e-10
-6.65087044576e-09
-2.66087005098e-09
3.07890879532e-10
-6.52082538212e-09
-2.37909655183e-09
-6.36934080974e-09
-2.07249467437e-09
1.27814210354e-11
-3.02845709849e-10
-5.41416916436e-09
-1.92598307567e-09
-3.25905723281e-13
-5.04358259319e-10
-5.52162640647e-09
-2.23331863558e-09
-5.96188321203e-10
-5.62167041567e-09
-2.51349246305e-09
-5.83784478126e-10
-5.70202588171e-09
-2.75687584466e-09
-4.82301772704e-10
-5.76268036902e-09
-2.95493068859e-09
-3.12906468201e-10
-5.80464660338e-09
-3.10114450994e-09
-1.01298142397e-10
-5.82942681093e-09
-3.19099939403e-09
1.24215271485e-10
-5.83776592752e-09
-3.22149967759e-09
3.35426362641e-10
-5.82873889631e-09
-3.19067489103e-09
5.04039741503e-10
-5.80327441365e-09
-3.10051114803e-09
6.04384526692e-10
-5.76062323506e-09
-2.95401918952e-09
6.15331319682e-10
-5.69928505972e-09
-2.75573401477e-09
5.21775821018e-10
-5.6182494529e-09
-2.51218578017e-09
3.18297069201e-10
-5.51744866058e-09
-2.23189924115e-09
-5.4092457267e-09
-1.92449772532e-09
1.3037965678e-11
-3.2312969652e-10
-1.75011162107e-09
-3.19765550264e-13
-4.45435204605e-09
-5.29011139697e-10
-2.05901107527e-09
-4.53214568635e-09
-6.17417390173e-10
-2.3366263978e-09
-4.612201452e-09
-5.99664474483e-10
-2.57551973379e-09
-4.67680047454e-09
-4.9289243168e-10
-2.76862588871e-09
-4.72578841942e-09
-3.18763545964e-10
-2.91050648886e-09
-4.76003058726e-09
-1.02928220296e-10
-2.99728536977e-09
-4.78018416967e-09
1.26589748749e-10
-3.02649812083e-09
-4.78659616242e-09
3.41991636001e-10
-2.99697533834e-09
-4.77936584255e-09
5.15271494564e-10
-2.90990124887e-09
-4.7583994278e-09
6.20812089686e-10
-2.76775475389e-09
-4.72334999894e-09
6.37002555226e-10
-2.57442825881e-09
-4.67355888248e-09
5.46762288244e-10
-2.33538168056e-09
-4.60815282974e-09
3.38832483659e-10
-2.057665666e-09
-4.52721841492e-09
-1.74877519087e-09
1.32476883957e-11
-4.44855825634e-09
-1.9597044419e-13
1.11759874159e-10
-2.91811290889e-10
2.42735091677e-13
5.56748394707e-13
1.23585253295e-10
-3.23259036321e-10
1.4481595302e-12
1.34997075375e-10
-3.53467396432e-10
1.89089451539e-12
1.45428657357e-10
-3.80888418076e-10
1.79881102138e-12
1.54059666275e-10
-4.03988008903e-10
1.21235399782e-12
1.60483067197e-10
-4.21504308384e-10
3.01269344255e-13
1.64484034369e-10
-4.3258894871e-10
-7.22859815199e-13
1.65877530193e-10
-4.36566953078e-10
-1.63509842834e-12
1.64358917082e-10
-4.32574350006e-10
-2.23507458516e-12
1.6022890393e-10
-4.21475627691e-10
-2.37313480053e-12
1.53683918123e-10
-4.03946063434e-10
-1.99920409392e-12
1.44991850608e-10
-3.80833942317e-10
-1.18601000283e-12
1.34557745114e-10
-3.53400608902e-10
-4.58738041869e-13
1.23248647543e-10
-3.23177486499e-10
1.11564337801e-10
-2.9170494981e-10
-3.28877830598e-13
1.84052888766e-12
3.28657895343e-10
-7.889486028e-10
4.80634163691e-13
5.1671300251e-12
3.5968986791e-10
-8.73108157818e-10
7.93885494331e-12
3.89305623241e-10
-9.53758381848e-10
9.02378178182e-12
4.15871022942e-10
-1.02681258347e-09
8.0851219268e-12
4.37608805232e-10
-1.0882568571e-09
5.33736126119e-12
4.5363570428e-10
-1.13479708522e-09
1.37576705707e-12
4.63564904057e-10
-1.16421625135e-09
-3.0058415541e-12
4.67032019235e-10
-1.1747485561e-09
-6.95980382701e-12
4.63274189491e-10
-1.16417186915e-09
-9.71167486742e-12
4.53046973994e-10
-1.13471000606e-09
-1.06949601649e-11
4.36739052792e-10
-1.08812968628e-09
-9.68727742946e-12
4.1483307362e-10
-1.02664804587e-09
-6.98354337289e-12
3.88259299458e-10
-9.5355789148e-10
-3.60741454823e-12
3.58857591441e-10
-8.72866021828e-10
3.28149395107e-10
-7.88644927695e-10
-1.05251912815e-12
5.05794686473e-12
5.68833234241e-10
-1.19932874099e-09
7.98172707014e-13
1.16492485498e-11
6.16719273756e-10
-1.32773641444e-09
1.64730326666e-11
6.62053673973e-10
-1.45049248414e-09
1.80774326972e-11
7.020468164e-10
-1.56149684034e-09
1.59636714818e-11
7.34413801818e-10
-1.65474825751e-09
1.0567773474e-11
7.58039755393e-10
-1.72531982546e-09
2.96572532498e-12
7.72591363313e-10
-1.76988216946e-09
-5.40314096738e-12
7.77692340425e-10
-1.78579630755e-09
-1.30081963521e-11
7.72214653134e-10
-1.76981319161e-09
-1.84353953884e-11
7.57283700238e-10
-1.72518443724e-09
-2.06411522237e-11
7.33310022555e-10
-1.65455037842e-09
-1.91771601535e-11
7.00733709914e-10
-1.56124068103e-09
-1.44695239039e-11
6.60744345303e-10
-1.45018047308e-09
-7.81587962657e-12
6.15672044969e-10
-1.32736130661e-09
5.68189938601e-10
-1.19886531949e-09
-1.64004598743e-12
9.03303175555e-12
7.84097802982e-10
-1.5339745925e-09
9.96269712574e-13
1.90139332553e-11
8.42313063325e-10
-1.69962984142e-09
2.57415222985e-11
8.97036556446e-10
-1.85754331968e-09
2.75970404337e-11
9.44471053514e-10
-2.0000702798e-09
2.4078218112e-11
9.82366238981e-10
-2.11964652646e-09
1.58798903833e-11
1.00970761947e-09
-2.21005501632e-09
4.55020833707e-12
1.02643343883e-09
-2.26707666263e-09
-7.86634209369e-12
1.03231580301e-09
-2.28738758728e-09
-1.92025433042e-11
1.02602918256e-09
-2.26698385569e-09
-2.74380137498e-11
1.00890428822e-09
-2.20987304019e-09
-3.10536817292e-11
9.8120750983e-10
-2.11938106523e-09
-2.93384936948e-11
9.43099191092e-10
-1.99972789558e-09
-2.27108584169e-11
8.95677682038e-10
-1.85712897025e-09
-1.26192121559e-11
8.41226744086e-10
-1.69913778961e-09
7.83429780729e-10
-1.53337976434e-09
-2.19194133849e-12
1.3286067897e-11
9.47966988056e-10
-1.79842003176e-09
1.10438550478e-12
2.63584820478e-11
1.00923392262e-09
-1.99501827237e-09
3.46302145563e-11
1.06642902846e-09
-2.18182494503e-09
3.64624386251e-11
1.11509478311e-09
-2.35007526544e-09
3.14779868293e-11
1.15340235384e-09
-2.49102801466e-09
2.06472895277e-11
1.18067242306e-09
-2.59748640502e-09
5.9310383086e-12
1.19722469288e-09
-2.66454454224e-09
-1.0128207164e-11
1.20306656002e-09
-2.68836467615e-09
-2.48482704214e-11
1.196831001e-09
-2.66442883443e-09
-3.57060846169e-11
1.17989731823e-09
-2.59725990852e-09
-4.07637328345e-11
1.15229608199e-09
-2.49069868174e-09
-3.9031800353e-11
1.11379466033e-09
-2.34965288733e-09
-3.08044196093e-11
1.06514930794e-09
-2.18131842471e-09
-1.75554980618e-11
1.00821788318e-09
-1.99442539028e-09
9.47352062032e-10
-1.79771886966e-09
-2.69750368836e-12
1.74157992714e-11
1.05071195989e-09
-1.99801858312e-09
1.152713365e-12
3.3032814624e-11
1.10906996158e-09
-2.2199217559e-09
4.23873474741e-11
1.16314127835e-09
-2.43002952194e-09
4.39571585918e-11
1.20827481465e-09
-2.61882736573e-09
3.75829780234e-11
1.24321647069e-09
-2.77674038704e-09
2.45035146449e-11
1.26771618683e-09
-2.89586849876e-09
7.00297710888e-12
1.28245599623e-09
-2.97080061249e-09
-1.2017817712e-11
1.28767898397e-09
-2.99733819764e-09
-2.95159897107e-11
1.28209292531e-09
-2.97066313075e-09
-4.26046456917e-11
1.26700737194e-09
-2.89559993792e-09
-4.90141902139e-11
1.24221548099e-09
-2.77635144229e-09
-4.74868031839e-11
1.20710623216e-09
-2.6183318404e-09
-3.81036183224e-11
1.16199935237e-09
-2.42944137808e-09
-2.22418968147e-11
1.10816286952e-09
-2.21924339776e-09
1.05017564932e-09
-1.99723215144e-09
-3.14912561683e-12
2.11161330255e-11
1.0939083258e-09
-2.13796093705e-09
1.16336934613e-12
3.86199268864e-11
1.14552572281e-09
-2.38016948403e-09
4.85800367865e-11
1.19293780394e-09
-2.60863686931e-09
4.97045640403e-11
1.23173213693e-09
-2.81341234618e-09
4.21133874733e-11
1.26121830228e-09
-2.98438598281e-09
2.72833583765e-11
1.28154264288e-09
-3.11319747802e-09
7.72208762322e-12
1.29365026641e-09
-3.19409201286e-09
-1.34567543349e-11
1.2979610384e-09
-3.22264697599e-09
-3.30078000244e-11
1.2933280248e-09
-3.19393411792e-09
-4.78256950833e-11
1.28091779022e-09
-3.11288973672e-09
-5.54099637798e-11
1.26034319574e-09
-2.98394221799e-09
-5.4264523642e-11
1.2307156887e-09
-2.81285097279e-09
-4.42012947803e-11
1.19194891841e-09
-2.60797765305e-09
-2.63871930083e-11
1.14473981649e-09
-2.37941986187e-09
1.0934436122e-09
-2.13710737724e-09
-3.54034710419e-12
2.41876443642e-11
1.08564192253e-09
-2.22326404565e-09
1.14746549608e-12
4.29171694454e-11
1.12881796048e-09
-2.48138369399e-09
5.30430962504e-11
1.16800247314e-09
-2.72388767639e-09
5.36035998208e-11
1.19940830255e-09
-2.94064590369e-09
4.50238083828e-11
1.22279528588e-09
-3.12126775889e-09
2.8975447916e-11
1.2386077383e-09
-3.25714529695e-09
8.09017026186e-12
1.24792302265e-09
-3.34232449728e-09
-1.44378532109e-11
1.25125814125e-09
-3.37228183712e-09
-3.53042352391e-11
1.24764260494e-09
-3.34214779995e-09
-5.1318171565e-11
1.23806672904e-09
-3.25680169338e-09
-5.9848764702e-11
1.22204187681e-09
-3.12077443989e-09
-5.92050861439e-11
1.19853533984e-09
-2.94002626351e-09
-4.89048673392e-11
1.16715093488e-09
-2.72316766268e-09
-2.98075022917e-11
1.12812994431e-09
-2.48057570172e-09
1.08521462381e-09
-2.22235909466e-09
-3.87290924521e-12
2.6525327901e-11
1.03684125856e-09
-2.2587583408e-09
1.11399684539e-12
4.58758365804e-11
1.07152544739e-09
-2.52896525044e-09
5.58018577393e-11
1.10241032787e-09
-2.78176523311e-09
5.5744094069e-11
1.12662608237e-09
-3.00704919271e-09
4.64281333225e-11
1.14424597066e-09
-3.19435788228e-09
2.96709027424e-11
1.15590437728e-09
-3.33502237517e-09
8.1398430135e-12
1.16268650194e-09
-3.4230214183e-09
-1.5000603846e-11
1.16512947721e-09
-3.45384345752e-09
-3.65034387453e-11
1.16244495358e-09
-3.42282774537e-09
-5.3203709517e-11
1.15543898855e-09
-3.33464659081e-09
-6.24296295837e-11
1.14359807258e-09
-3.19382061784e-09
-6.23459977767e-11
1.1258709944e-09
-3.00637895364e-09
-5.21801612939e-11
1.10166295465e-09
-2.78099421466e-09
-3.2411715697e-11
1.07089505187e-09
-2.52811039107e-09
1.03640269828e-09
-2.25781562644e-09
-4.15067477935e-12
2.80959935892e-11
9.58844251297e-10
-2.24908418458e-09
1.06801519213e-12
4.75488242889e-11
9.86014210006e-10
-2.52809586621e-09
5.70022463513e-11
1.00944276157e-09
-2.788002771e-09
5.63324418211e-11
1.02736656287e-09
-3.01885738029e-09
4.6536084786e-11
1.04007152623e-09
-3.21030525099e-09
2.95219669593e-11
1.04828065e-09
-3.35378394121e-09
7.92281180353e-12
1.05299142415e-09
-3.44332950796e-09
-1.52099357685e-11
1.05469584896e-09
-3.47454811843e-09
-3.6771108759e-11
1.05278156611e-09
-3.44312098925e-09
-5.37058235948e-11
1.04787511441e-09
-3.35338011447e-09
-6.33737546164e-11
1.03950250356e-09
-3.20973004041e-09
-6.38483007099e-11
1.02669280347e-09
-3.01814424971e-09
-5.4095812045e-11
1.00875316398e-09
-2.78718996693e-09
-3.41798859912e-11
9.85387934851e-10
-2.52720430333e-09
9.58330527982e-10
-2.24811541319e-09
-4.37935911816e-12
2.89191638788e-11
8.61974295393e-10
-2.19870035986e-09
1.01517074765e-12
4.80568761358e-11
8.83050402587e-10
-2.48376179595e-09
5.68697575182e-11
9.00258297787e-10
-2.74811957953e-09
5.56523024635e-11
9.13053076302e-10
-2.98205946642e-09
4.56178768939e-11
9.21871704711e-10
-3.17547486796e-09
2.87191580096e-11
9.27440094354e-10
-3.32006881429e-09
7.50279253653e-12
9.30591317259e-10
-3.41005779789e-09
-1.5144279849e-11
9.31731913903e-10
-3.44126678461e-09
-3.63125430465e-11
9.30403809966e-10
-3.4098367986e-09
-5.31099823113e-11
9.27074810052e-10
-3.31964141392e-09
-6.29800116537e-11
9.21350530731e-10
-3.17486791798e-09
-6.3953673184e-11
9.12417165681e-10
-2.98131104148e-09
-5.47885390436e-11
8.995728068e-10
-2.74727369328e-09
-3.51459748059e-11
8.82368009141e-10
-2.48284275919e-09
8.61315961788e-10
-2.19771554394e-09
-4.56509243931e-12
2.90511187307e-11
7.54882103507e-10
-2.11190083742e-09
9.56324098574e-13
4.75869811537e-11
7.71254163223e-10
-2.40080007005e-09
5.5714967288e-11
7.8347922002e-10
-2.66748187519e-09
5.40655372103e-11
7.92303988318e-10
-2.90245574736e-09
4.40033353658e-11
7.98249608453e-10
-3.09599901489e-09
2.74875615192e-11
8.01947755806e-10
-3.24024767722e-09
6.95667952644e-12
8.04024723657e-10
-3.3297255484e-09
-1.48930388942e-11
8.04761425488e-10
-3.36057326364e-09
-3.53653700823e-11
8.03848978447e-10
-3.32949473243e-09
-5.17588107591e-11
8.01599946899e-10
-3.23980161943e-09
-6.1623810886e-11
7.97740963853e-10
-3.09536684277e-09
-6.298617595e-11
7.91658972765e-10
-2.90167950991e-09
-5.44584588681e-11
7.82740149376e-10
-2.66661110837e-09
-3.53792166241e-11
7.70450975383e-10
-2.39986236732e-09
7.54016433496e-10
-2.11090914488e-09
-4.71231655535e-12
2.86094180431e-11
6.44381151488e-10
-1.99283246991e-09
8.99009072981e-13
4.64653737905e-11
6.5700097295e-10
-2.28397560255e-09
5.40068286116e-11
6.65302404762e-10
-2.55138237824e-09
5.20628581561e-11
6.71230089231e-10
-2.78571166647e-09
4.21066937009e-11
6.75234767012e-10
-2.97781469314e-09
2.6104042087e-11
6.77756073453e-10
-3.12045581107e-09
6.37551974679e-12
6.79167881153e-10
-3.20859526329e-09
-1.45551509303e-11
6.79649325203e-10
-3.23877781283e-09
-3.42149021471e-11
6.78990089227e-10
-3.20835776941e-09
-5.00745646959e-11
6.77399703886e-10
-3.11999678973e-09
-5.98030971979e-11
6.74702094282e-10
-2.97716452269e-09
-6.14219839157e-11
6.70528127395e-10
-2.78491525983e-09
-5.34392174305e-11
6.64449375718e-10
-2.5504946459e-09
-3.5002644745e-11
6.56005991282e-10
-2.28302883739e-09
6.43234676637e-10
-1.99184536133e-09
-4.81779617917e-12
2.78842667557e-11
5.35401537008e-10
-1.84550293668e-09
8.51116098714e-13
4.53061241455e-11
5.44565631841e-10
-2.13812762652e-09
5.24626134779e-11
5.49935568175e-10
-2.40511504048e-09
5.03056556899e-11
5.54030630504e-10
-2.63736256493e-09
4.04551031861e-11
5.56946442331e-10
-2.82665017328e-09
2.48973974212e-11
5.58871357676e-10
-2.96658354742e-09
5.8789497943e-12
5.59969784317e-10
-3.0526700298e-09
-1.42532970384e-11
5.60299502345e-10
-3.08192736187e-09
-3.31914469768e-11
5.59773539044e-10
-3.05242982537e-09
-4.85834839913e-11
5.58474443709e-10
-2.96611877898e-09
-5.81774314695e-11
5.56342862526e-10
-2.82599099527e-09
-5.99762528883e-11
5.53215770047e-10
-2.63655466429e-09
-5.23440064711e-11
5.48910016455e-10
-2.40421782669e-09
-3.43108210387e-11
5.43308892691e-10
-2.13718238722e-09
5.33891482424e-10
-1.84453767765e-09
-4.88002364142e-12
2.690616757e-11
-1.6741458971e-09
8.10553990944e-13
4.3192950831e-10
4.4879205621e-11
-1.96877146398e-09
4.36504331371e-10
5.19044209255e-11
-2.23405018311e-09
4.40479177698e-10
4.95331066432e-11
-2.46275288293e-09
4.43763636066e-10
3.96426289682e-11
-2.64794171505e-09
4.46271740845e-10
2.42704102218e-11
-2.78419387407e-09
4.48040806608e-10
5.59818391496e-12
-2.86761345179e-09
4.49062098688e-10
-1.41143139237e-11
-2.89572631562e-09
4.49326925038e-10
-3.26927889513e-11
-2.86737635997e-09
4.48823632236e-10
-4.78737235413e-11
-2.78373436471e-09
4.47561433087e-10
-5.74742952781e-11
-2.64728812368e-09
4.45542654425e-10
-5.94527098428e-11
-2.46194840513e-09
4.42775729562e-10
-5.19267727957e-11
-2.23315599735e-09
4.39213846329e-10
-3.33284788795e-11
-1.96783028814e-09
4.3492631582e-10
-1.67324292015e-09
-4.88529709492e-12
4.29963182855e-10
1.03072184564e-12
-2.06517036173e-11
-2.7217005397e-10
-3.22232952488e-14
1.4943762734e-12
-2.30613373327e-11
-3.00736669419e-10
1.63607143508e-12
-2.55438673725e-11
-3.28157616998e-10
1.54087917589e-12
-2.78456437229e-11
-3.53041977696e-10
1.24907033213e-12
-2.97715065057e-11
-3.73995508487e-10
8.0510319104e-13
-3.12172629359e-11
-3.89877646121e-10
2.58103411787e-13
-3.21241095982e-11
-3.99925985294e-10
-3.27363614596e-13
-3.24410819635e-11
-4.03533695229e-10
-8.7382194541e-13
-3.21026436691e-11
-3.99910258899e-10
-1.31358866143e-12
-3.11702074543e-11
-3.89846568355e-10
-1.59157079405e-12
-2.96972168325e-11
-3.7394975334e-10
-1.66410350798e-12
-2.77573928715e-11
-3.52982306019e-10
-1.49555903372e-12
-2.54629128474e-11
-3.28084244278e-10
-1.00395479022e-12
-2.30002520331e-11
-3.00647093043e-10
-2.0630052705e-11
-2.72053770579e-10
-3.64192755798e-15
2.17754277906e-12
-4.99537457821e-11
-7.61838762748e-10
-2.03096084165e-14
3.29612037962e-12
-5.51957530771e-11
-8.42209333202e-10
3.66376032479e-12
-6.05379903093e-11
-9.19276836472e-10
3.46528208064e-12
-6.54510150519e-11
-9.89146644899e-10
2.82144459369e-12
-6.95332655422e-11
-1.04794741379e-09
1.84106272285e-12
-7.25776191052e-11
-1.09250254737e-09
6.39496919594e-13
-7.44769619095e-11
-1.12067133604e-09
-6.44151607246e-13
-7.51380696025e-11
-1.13075543041e-09
-1.84669066575e-12
-7.4421889831e-11
-1.12062499967e-09
-2.82419755169e-12
-7.24601237173e-11
-1.09241111393e-09
-3.45286450644e-12
-6.93505613119e-11
-1.04781310584e-09
-3.62356831096e-12
-6.52271502268e-11
-9.88971993056e-10
-3.22751559474e-12
-6.03181575588e-11
-9.19062945261e-10
-2.08814911285e-12
-5.50207107192e-11
-8.41949838007e-10
-4.98725566459e-11
-7.61511781239e-10
5.53605555225e-14
2.7439650745e-12
-7.68578982932e-11
-1.17509803734e-09
-1.09593384181e-13
4.12050091681e-12
-8.42273016251e-11
-1.30019079848e-09
4.53189479298e-12
-9.16857014419e-11
-1.41989261562e-09
4.23079499129e-12
-9.85142270072e-11
-1.52825376082e-09
3.39889180376e-12
-1.04172474428e-10
-1.61935896237e-09
2.185012714e-12
-1.0837578778e-10
-1.68834509179e-09
7.27973910693e-13
-1.10990341955e-10
-1.73191701819e-09
-8.1708542109e-13
-1.11901361401e-10
-1.74747392726e-09
-2.26795859258e-12
-1.10919878581e-10
-1.73183937578e-09
-3.46226347621e-12
-1.08227510914e-10
-1.68819223554e-09
-4.24998739731e-12
-1.03944920103e-10
-1.61913530491e-09
-4.48255202296e-12
-9.82368827336e-11
-1.52796464075e-09
-3.99380331052e-12
-9.14119108377e-11
-1.41954174e-09
-2.55904282094e-12
-8.40121369927e-11
-1.29977170757e-09
-7.67538715951e-11
-1.17458384933e-09
7.21623165825e-14
2.84065434164e-12
-1.00086468984e-10
-1.51346457534e-09
-1.657346724e-13
4.22640682905e-12
-1.0896440156e-10
-1.67637990711e-09
4.60413000716e-12
-1.17866822238e-10
-1.83185966634e-09
4.24880917889e-12
-1.2596747415e-10
-1.97236246322e-09
3.37783599999e-12
-1.32660054629e-10
-2.09035301302e-09
2.15715140345e-12
-1.37616511069e-10
-2.17962268481e-09
7.22625061188e-13
-1.40691992455e-10
-2.23594338143e-09
-7.87983627646e-13
-1.41765614296e-10
-2.25599888881e-09
-2.21249221752e-12
-1.40619109538e-10
-2.23583662441e-09
-3.40551812451e-12
-1.37465811462e-10
-2.17941289837e-09
-4.21992065253e-12
-1.32433386057e-10
-2.09004701159e-09
-4.48986311178e-12
-1.25693919444e-10
-1.97196883941e-09
-4.01518933148e-12
-1.17597760583e-10
-1.83138578969e-09
-2.5569632651e-12
-1.08754972996e-10
-1.67582196516e-09
-9.99817107307e-11
-1.51279625312e-09
1.17260116094e-13
2.60816682695e-12
-1.18747068128e-10
-1.78222153236e-09
-1.89928744465e-13
3.83270774278e-12
-1.28582668769e-10
-1.97672339454e-09
4.12371857988e-12
-1.38318315298e-10
-2.16177144542e-09
3.75404737309e-12
-1.47102960733e-10
-2.3286565054e-09
2.95316304662e-12