/*--------------------------------*- C++ -*----------------------------------*\
  =========                 |
  \\      /  F ield         | OpenFOAM: The Open Source CFD Toolbox
   \\    /   O peration     | Website:  https://openfoam.org
    \\  /    A nd           | Version:  7
     \\/     M anipulation  |
\*---------------------------------------------------------------------------*/
FoamFile
{
    version     2.0;
    format      ascii;
    class       volVectorField;
    location    "1.8";
    object      U;
}
// * * * * * * * * * * * * * * * * * * * * * * * * * * * * * * * * * * * * * //

dimensions      [0 1 -1 0 0 0 0];

internalField   nonuniform List<vector> 
22500
(
(-2.67283504193e-05 -2.94980008945e-05 -7.57358411047e-06)
(-2.54199122066e-05 -3.32679838448e-05 -1.01816991369e-05)
(-2.29439804162e-05 -3.71986677422e-05 -1.4705696431e-05)
(-1.96523543844e-05 -4.07904623814e-05 -2.0209839603e-05)
(-1.54829926826e-05 -4.38714565111e-05 -2.56150258219e-05)
(-1.06560548626e-05 -4.62178073143e-05 -3.00547821997e-05)
(-5.35362852475e-06 -4.76810242779e-05 -3.2932975133e-05)
(1.95391897255e-07 -4.81657670213e-05 -3.38962648684e-05)
(5.74023694443e-06 -4.76374353334e-05 -3.28028690378e-05)
(1.10309111094e-05 -4.61322194237e-05 -2.97936736334e-05)
(1.58405453416e-05 -4.37465922614e-05 -2.52204556101e-05)
(1.99884959583e-05 -4.06310601912e-05 -1.96782377986e-05)
(2.32542391856e-05 -3.70098022088e-05 -1.40325086711e-05)
(2.57044264988e-05 -3.30560187551e-05 -9.36429722835e-06)
(2.69673469311e-05 -2.92839533929e-05 -6.62556878946e-06)
(-7.81364595663e-05 -8.60642184081e-05 -0.000223011842027)
(-7.39906082333e-05 -9.69858688502e-05 -0.000250606589167)
(-6.6814971938e-05 -0.000108270745346 -0.000282968579009)
(-5.72114055313e-05 -0.000118574489387 -0.000316158513985)
(-4.51173043615e-05 -0.000127394140476 -0.000346187975517)
(-3.1075173606e-05 -0.00013411336549 -0.000369843291485)
(-1.56325971804e-05 -0.000138307297432 -0.000384871028145)
(5.38112033836e-07 -0.000139696997238 -0.000389923625409)
(1.6697909303e-05 -0.000138183568116 -0.000384488993073)
(3.21097142428e-05 -0.00013387055753 -0.000369075758806)
(4.61049012768e-05 -0.000127040474454 -0.000345025886442)
(5.81395501806e-05 -0.000118123474931 -0.000314588399256)
(6.76706035993e-05 -0.000107738798789 -0.000280973960189)
(7.47664388391e-05 -9.63931194016e-05 -0.000248176055768)
(7.87866528786e-05 -8.5462656383e-05 -0.000220175607638)
(-0.000123916179322 -0.000136073291652 -0.000598480201708)
(-0.000116571938348 -0.000153016180907 -0.000662108206299)
(-0.000104936630562 -0.000170185060715 -0.000731505229671)
(-8.9576531497e-05 -0.000185724781608 -0.000799427992025)
(-7.05057018613e-05 -0.000198916506767 -0.00085912949739)
(-4.85034807539e-05 -0.000208917513974 -0.000905323833632)
(-2.44079508264e-05 -0.000215141468454 -0.000934372427348)
(7.73785778944e-07 -0.00021720192556 -0.000944127201712)
(2.59414163197e-05 -0.000214961999097 -0.000933792327852)
(4.9997139487e-05 -0.000208565127822 -0.000904156723059)
(7.19373102192e-05 -0.000198402812329 -0.000857355817045)
(9.0927752625e-05 -0.000185068388053 -0.000797017871467)
(0.000106188273084 -0.000169411115047 -0.000728422213179)
(0.000117708193765 -0.000152154318321 -0.000658319299331)
(0.000124877407257 -0.000135192489173 -0.000594010117289)
(-0.000162869066321 -0.000178482510071 -0.00106990424909)
(-0.000152228138577 -0.000199996523161 -0.0011695373175)
(-0.000136440038797 -0.000221382161804 -0.00127380627421)
(-0.000116006580404 -0.000240542797959 -0.00137289116034)
(-9.10595542688e-05 -0.000256662916397 -0.00145821812779)
(-6.25360658468e-05 -0.000268811730211 -0.00152333215002)
(-3.14745267924e-05 -0.000276345358593 -0.00156393119359)
(9.01352551085e-07 -0.000278837705214 -0.00157752915971)
(3.32630027154e-05 -0.000276138012373 -0.00156322136652)
(6.42843930369e-05 -0.000268404187945 -0.00152190191847)
(9.27441144861e-05 -0.000256067651815 -0.00145603533449)
(0.000117606512527 -0.000239779549423 -0.00136990537347)
(0.000137932781892 -0.000220479179445 -0.00126995477582)
(0.000153590578194 -0.000198986485341 -0.00116475462068)
(0.000164037396668 -0.000177437804203 -0.00106418520704)
(-0.000194606917097 -0.000213041010049 -0.00157411831617)
(-0.000180811769486 -0.000237586456791 -0.00170177972285)
(-0.000161287547127 -0.000261561621877 -0.00183142716987)
(-0.00013655512551 -0.000282825720013 -0.001951950124)
(-0.000106868693913 -0.000300560318442 -0.00205409078531)
(-7.3255128279e-05 -0.000313847767641 -0.00213116652702)
(-3.6869253636e-05 -0.000322058230203 -0.00217888330415)
(9.500952533e-07 -0.000324772947997 -0.00219481789255)
(3.87565631019e-05 -0.000321843670376 -0.00217810023576)
(7.51060741417e-05 -0.00031342572026 -0.00212958708714)
(0.000108660937455 -0.000299942793786 -0.00205167190313)
(0.000138267769121 -0.000282031433537 -0.00194862258484)
(0.000162897146827 -0.000260617884231 -0.00182710273909)
(0.000182290896831 -0.000236524888263 -0.0016963582876)
(0.000195894081199 -0.000211927064893 -0.00156755213436)
(-0.000219225089015 -0.000239904368999 -0.00206299411951)
(-0.000202595006539 -0.00026600537793 -0.00220765270363)
(-0.000179860256931 -0.00029112734623 -0.00235120945922)
(-0.000151654570203 -0.000313193731361 -0.00248247184536)
(-0.000118334506861 -0.000331450109897 -0.00259236636566)
(-8.09614170404e-05 -0.000345055516042 -0.00267458412293)
(-4.07388221474e-05 -0.000353435028305 -0.0027252045)
(9.55743206772e-07 -0.00035620392174 -0.00274206078941)
(4.26389502277e-05 -0.000353225555287 -0.00272438257306)
(8.28294467886e-05 -0.000344643403275 -0.00267292591345)
(0.000120150058971 -0.000330846576242 -0.00258982226203)
(0.000153397848419 -0.000312415888932 -0.0024789603174)
(0.00018150854194 -0.000290199995825 -0.00234662402859)
(0.000204119214716 -0.000264957000561 -0.00220186473768)
(0.000220570028607 -0.000238788043526 -0.00205591293563)
(-0.000237226861716 -0.000259600630923 -0.00250764019823)
(-0.000218176091416 -0.000285956646723 -0.00265901085742)
(-0.000192814296978 -0.000311039461464 -0.00280666598295)
(-0.000161951506847 -0.000332868330847 -0.00294009913632)
(-0.000126015222007 -0.000350797388673 -0.00305085601979)
(-8.60584739504e-05 -0.000364095887159 -0.00313322359757)
(-4.32835419663e-05 -0.000372262532593 -0.00318374007407)
(9.46350313577e-07 -0.000374958894712 -0.00320051892708)
(4.51659703395e-05 -0.00037206412677 -0.00318289389823)
(8.79117905558e-05 -0.000363705709296 -0.00313151762865)
(0.000127820569669 -0.000350226022181 -0.00304823909779)
(0.000163690249356 -0.000332131468987 -0.00293648538249)
(0.000194465187792 -0.000310159206987 -0.00280194072369)
(0.000219710021091 -0.000284957783102 -0.00265302713001)
(0.00023859606259 -0.000258522405069 -0.0025002718925)
(-0.000249330746185 -0.000272864472812 -0.00289553890519)
(-0.000228297359148 -0.000298395772777 -0.00304588435681)
(-0.000200893268072 -0.000322507538169 -0.00319082250304)
(-0.00016813184819 -0.000343301409549 -0.00332082728583)
(-0.000130479753447 -0.000360267479393 -0.00342815327324)
(-8.89489335858e-05 -0.000372799324115 -0.00350766899555)
(-4.4705018408e-05 -0.000380474981421 -0.00355631518048)
(9.38956090613e-07 -0.0003830063248 -0.00357243511598)
(4.65731791465e-05 -0.000380289762734 -0.00355544661748)
(9.07893305377e-05 -0.000372435384388 -0.00350592047969)
(0.000132274237196 -0.000359734931367 -0.00342547626541)
(0.000169862478413 -0.000342614877142 -0.00331713855458)
(0.000202540161933 -0.000321686762319 -0.00318600855948)
(0.000229832306453 -0.000297462263331 -0.00303978995865)
(0.00025071253733 -0.000271844560398 -0.00288801322498)
(-0.00025630946356 -0.000280490156479 -0.00322516059422)
(-0.000233708302523 -0.000304337845552 -0.00336954783792)
(-0.000204808369502 -0.00032675977875 -0.00350778147451)
(-0.000170824276331 -0.000345918558702 -0.00363127563265)
(-0.000132234915908 -0.000361453950792 -0.00373290550361)
(-8.9985954672e-05 -0.000372886139184 -0.00380803029645)
(-4.5181173171e-05 -0.000379871096085 -0.00385391626671)
(9.41600312356e-07 -0.000382170894145 -0.0038690855389)
(4.70546882775e-05 -0.000379699342145 -0.00385302100678)
(9.18317448195e-05 -0.000372548965566 -0.0038062316236)
(0.0001340347919 -0.000360961022412 -0.00373016033086)
(0.00017256039755 -0.000345283573779 -0.00362750837635)
(0.000206461740966 -0.000326000505353 -0.00350288685595)
(0.000235251894583 -0.000303472817831 -0.00336336972056)
(0.000257706901992 -0.000279535682557 -0.00321753374477)
(-0.000258900671083 -0.000283250458598 -0.00350099896739)
(-0.000235098119448 -0.000304752460214 -0.00363680381912)
(-0.000205191162178 -0.00032492966017 -0.003766425875)
(-0.00017057151923 -0.000342005551921 -0.00388200553883)
(-0.000131709268215 -0.000355771124423 -0.00397691698606)
(-8.94646386606e-05 -0.000365866313751 -0.00404695112813)
(-4.48613492988e-05 -0.000372019439131 -0.00408966796829)
(9.56589794622e-07 -0.000374040663355 -0.00410375062222)
(4.67646385202e-05 -0.000371860844211 -0.00408873996429)
(9.13394508491e-05 -0.000365555172175 -0.00404509071129)
(0.000133536886682 -0.000355316492796 -0.00397408805472)
(0.000172333703998 -0.000341420077068 -0.00387814317908)
(0.000206869244424 -0.000324229276497 -0.00376143753049)
(0.000236666032605 -0.000303952941298 -0.00363053653677)
(0.000260325099818 -0.000282361208556 -0.00349328044764)
(-0.000257769446695 -0.000281866321309 -0.00373012470216)
(-0.000233073034427 -0.000300516870278 -0.00385637861148)
(-0.000202587127518 -0.000318012290713 -0.00397679928402)
(-0.000167835180718 -0.000332675031251 -0.00408398306305)
(-0.000129261858173 -0.000344432443622 -0.00417175060607)
(-8.76297283228e-05 -0.000353027371844 -0.00423635532423)
(-4.3869698025e-05 -0.000358252367574 -0.00427568556628)
(9.83165563895e-07 -0.00035996299429 -0.00428860556798)
(4.58258264768e-05 -0.000358106693344 -0.00427471956752)
(8.95563168765e-05 -0.000352741620806 -0.0042344226791)
(0.000131139440056 -0.000344014763284 -0.00416882261891)
(0.000169644835994 -0.000332136696626 -0.00408000690531)
(0.000204310039444 -0.000317367256629 -0.00397169785829)
(0.000234683828203 -0.000299778068942 -0.00385000376568)
(0.00025923610716 -0.000281038976772 -0.00372229959603)
(-0.000253493111295 -0.00027699636305 -0.00392025370604)
(-0.000228159618954 -0.000292391443088 -0.00403713836517)
(-0.000197472329439 -0.000306853975944 -0.0041485092511)
(-0.000163015056634 -0.000318871649781 -0.00424718315262)
(-0.000125198698956 -0.000328465596009 -0.00432753489339)
(-8.46872375016e-05 -0.000335455158035 -0.00438642720857)
(-4.2310600462e-05 -0.000339690020698 -0.00442217017618)
(1.01916478175e-06 -0.000341069414413 -0.00443385530493)
(4.43384193053e-05 -0.000339557409049 -0.00442116316788)
(8.66844883464e-05 -0.000335194868812 -0.00438441580562)
(0.000127145176718 -0.00032808453988 -0.00432449717532)
(0.00016489108197 -0.000318379319987 -0.00424307835489)
(0.000199258657182 -0.000306261976734 -0.00414327763173)
(0.000229831229912 -0.00029170970334 -0.00403063838928)
(0.000255018058051 -0.000276228360986 -0.00391230142344)
(-0.000246553769587 -0.000269179744989 -0.00407893703842)
(-0.000220844716206 -0.000280983093083 -0.00418754609269)
(-0.000190290418183 -0.000292154778232 -0.00429033738272)
(-0.000156472535443 -0.000301396068191 -0.00438033574616)
(-0.000119787781868 -0.000308743053615 -0.00445285968286)
(-8.08143769703e-05 -0.000314067217567 -0.00450563764117)
(-4.02735283565e-05 -0.000317275238249 -0.00453752027739)
(1.06184344266e-06 -0.000318311487714 -0.0045478754305)
(4.2386497317e-05 -0.000317156182373 -0.0045364726043)
(8.28960134104e-05 -0.000313833184591 -0.00450354709164)
(0.000121817265797 -0.000308399578108 -0.00444970928574)
(0.000158429512217 -0.000300950368526 -0.00437609481314)
(0.000192155097666 -0.0002916156317 -0.00428496459144)
(0.000222592121549 -0.000280356885473 -0.00418091332671)
(0.000248150857742 -0.000268470773846 -0.00407085404197)
(-0.000237475651412 -0.000258748907835 -0.00421345983522)
(-0.000211719753387 -0.000266672272896 -0.00431589466251)
(-0.000181500756253 -0.000274424222288 -0.00441038398207)
(-0.000148546777253 -0.000280877265509 -0.00449109095539)
(-0.000113271739954 -0.000285959512814 -0.00455504604901)
(-7.61713339351e-05 -0.000289600944582 -0.00460111593452)
(-3.78403501906e-05 -0.000291772777076 -0.00462876992596)
(1.10832281627e-06 -0.000292463237483 -0.0046376730803)
(4.00461936823e-05 -0.000291667674735 -0.00462768671294)
(7.83453208804e-05 -0.00028939401525 -0.00459895481448)
(0.000115392679538 -0.000285654739834 -0.00455179194119)
(0.000150593879583 -0.00028047957312 -0.00448671794648)
(0.000183453807624 -0.000273939140996 -0.0044048663106)
(0.000213553595596 -0.000266102010258 -0.00430913008108)
(0.000239158490088 -0.000258097422541 -0.00420527911469)
(-0.000227509875443 -0.000246577308606 -0.00433066739454)
(-0.000201830039005 -0.000249345742128 -0.00443047891156)
(-0.000171751584677 -0.000253924690461 -0.00451566535116)
(-0.000139762469507 -0.000257623745117 -0.00458581296492)
(-0.000106061908639 -0.000260460450579 -0.00464023306814)
(-7.10499202221e-05 -0.000262442092938 -0.00467896063335)
(-3.51643855025e-05 -0.000263600541939 -0.00470203291982)
(1.15603170402e-06 -0.000263954699956 -0.00470937592928)
(3.74655532099e-05 -0.000263509763934 -0.00470092594492)
(7.33189222842e-05 -0.000262263016392 -0.00467675071424)
(0.000108277218582 -0.000260195736836 -0.00463690428194)
(0.000141902890483 -0.000257276449077 -0.00458133625302)
(0.000173796766301 -0.000253497755168 -0.00451002055217)
(0.000203751878646 -0.000248835658187 -0.00442355098129)
(0.000229290115569 -0.000245987400366 -0.0043225318073)
(8.49595415081e-07 9.7564592717e-07 -0.00021442597341)
(9.55703573462e-07 1.11039124587e-06 -0.000225545040866)
(1.03770939722e-06 1.27268541104e-06 -0.000235969648714)
(1.03867599349e-06 1.47011805947e-06 -0.000245194903392)
(9.0895333384e-07 1.68470956662e-06 -0.000252808107875)
(6.64182076055e-07 1.87204482797e-06 -0.000258481311744)
(3.3147414284e-07 1.99759917996e-06 -0.000261984039982)
(-4.68748495642e-08 2.03762750469e-06 -0.000263175725006)
(-4.24732001782e-07 1.98345861687e-06 -0.000261984663572)
(-7.56569410127e-07 1.84340204616e-06 -0.00025848193779)
(-1.00239564779e-06 1.64065001464e-06 -0.000252806860075)
(-1.13564085434e-06 1.41051275321e-06 -0.000245188035665)
(-1.13892426554e-06 1.19677354297e-06 -0.000235952007718)
(-1.05943614679e-06 1.02146645526e-06 -0.000225508585148)
(-9.41875118618e-07 8.85065796827e-07 -0.00021435965082)
(5.96470619104e-06 6.62973075849e-06 -0.000620608748884)
(6.12731441395e-06 7.65017282949e-06 -0.000651301087019)
(6.03814557877e-06 8.77330855703e-06 -0.000680144050789)
(5.58640817225e-06 9.92565980172e-06 -0.000705705985702)
(4.66285885184e-06 1.10155306636e-05 -0.000726823255082)
(3.32388094373e-06 1.19014803779e-05 -0.00074257372109)
(1.67504070706e-06 1.24743940274e-05 -0.00075230151112)
(-1.35916194563e-07 1.26609514031e-05 -0.00075560336422)
(-1.94558292034e-06 1.24347685072e-05 -0.000752298221441)
(-3.59191507346e-06 1.18216905253e-05 -0.000742565518841)
(-4.93147826741e-06 1.0894374425e-05 -0.000726804986601)
(-5.86076406626e-06 9.76400222173e-06 -0.000705667272465)
(-6.31925632448e-06 8.57179963675e-06 -0.000680070270901)
(-6.40930102751e-06 7.41823404454e-06 -0.000651169498367)
(-6.21677807543e-06 6.39310761337e-06 -0.000620393592042)
(1.28868766811e-05 1.42585221953e-05 -0.00100151224937)
(1.28691687857e-05 1.63145716759e-05 -0.00104917041398)
(1.23076162361e-05 1.85118278597e-05 -0.00109397291314)
(1.10870429406e-05 2.06605145367e-05 -0.00113369444246)
(9.08252413456e-06 2.26067063819e-05 -0.00116651616994)
(6.4003835046e-06 2.41463834895e-05 -0.00119100099211)
(3.22135811823e-06 2.51255587379e-05 -0.00120612141347)
(-2.1663063248e-07 2.54432614618e-05 -0.001211244805)
(-3.65266071753e-06 2.50635027669e-05 -0.00120610724501)
(-6.82743128201e-06 2.40219393458e-05 -0.00119097057675)
(-9.50776307538e-06 2.24195893749e-05 -0.0011664623133)
(-1.15158794911e-05 2.04135832173e-05 -0.00113360256395)
(-1.27411115601e-05 1.82103143552e-05 -0.00109382171252)
(-1.32988328153e-05 1.59731620146e-05 -0.00104892664928)
(-1.3273990405e-05 1.39119766224e-05 -0.00100114059698)
(1.99255055143e-05 2.19867845911e-05 -0.00135654709858)
(1.95027362597e-05 2.48587589878e-05 -0.00141846213249)
(1.82852666726e-05 2.78678670003e-05 -0.00147663195317)
(1.61803018567e-05 3.07181437184e-05 -0.0015282051525)
(1.30794089359e-05 3.32291895718e-05 -0.0015708182833)
(9.13512605389e-06 3.5177133253e-05 -0.00160260703312)
(4.58208051727e-06 3.63999341284e-05 -0.00162223343534)
(-2.86239457929e-07 3.67938971655e-05 -0.00162887345691)
(-5.15237926715e-06 3.63226069232e-05 -0.00162220024602)
(-9.70042033838e-06 3.50225834872e-05 -0.00160253895791)
(-1.36411723761e-05 3.29982497702e-05 -0.00157070796306)
(-1.67430247822e-05 3.0415202704e-05 -0.00152803715858)
(-1.8849432897e-05 2.75015702352e-05 -0.00147638260408)
(-2.00579721356e-05 2.44465753841e-05 -0.00141809294648)
(-2.04297541545e-05 2.15676328677e-05 -0.00135601879458)
(2.58796618597e-05 2.84649173001e-05 -0.00168518533333)
(2.48942529689e-05 3.17685299803e-05 -0.00175863212017)
(2.29708219312e-05 3.51723348517e-05 -0.00182757621443)
(2.00380642125e-05 3.83150137017e-05 -0.00188871102381)
(1.60208477027e-05 4.10238883237e-05 -0.00193923318204)
(1.11031647751e-05 4.30906811921e-05 -0.00197692781598)
(5.5449740688e-06 4.43729638051e-05 -0.00200019819398)
(-3.42645495905e-07 4.47818123243e-05 -0.00200806017966)
(-6.22820786249e-06 4.42865632179e-05 -0.00200013754553)
(-1.17815188738e-05 4.29184791338e-05 -0.00197680621729)
(-1.66949866649e-05 4.07676123252e-05 -0.00193904526691)
(-2.07112208236e-05 3.79800824284e-05 -0.00188844404687)
(-2.36425158454e-05 3.47692309822e-05 -0.00182720880635)
(-2.55533846255e-05 3.13160503777e-05 -0.00175812541928)
(-2.64837527772e-05 2.80024929568e-05 -0.00168449989215)
(3.02794294994e-05 3.31732080706e-05 -0.00198732267938)
(2.86643696612e-05 3.65585549756e-05 -0.00206970065098)
(2.60864975282e-05 3.99877512455e-05 -0.00214698200338)
(2.24778546109e-05 4.30865497495e-05 -0.0022155530412)
(1.7800123599e-05 4.57074185269e-05 -0.00227225447035)
(1.22503562733e-05 4.76771013027e-05 -0.00231457881503)
(6.08856065887e-06 4.88853694899e-05 -0.00234070968257)
(-3.85974308891e-07 4.92654398538e-05 -0.00234952676595)
(-6.85877173292e-06 4.87947410866e-05 -0.00234061371878)
(-1.30163606219e-05 4.749683996e-05 -0.00231438895827)
(-1.85619761488e-05 4.54398954513e-05 -0.00227196934334)
(-2.32375788964e-05 4.27377916469e-05 -0.0022151656997)
(-2.68426293183e-05 3.9569091865e-05 -0.00214647755892)
(-2.94059209211e-05 3.60887353961e-05 -0.00206904389483)
(-3.09662668088e-05 3.26901696667e-05 -0.00198647568831)
(3.30962695194e-05 3.60980171863e-05 -0.00226336080524)
(3.08676207017e-05 3.93239375981e-05 -0.00235227663794)
(2.77487953085e-05 4.25289429134e-05 -0.00243568239806)
(2.36514798461e-05 4.53738639092e-05 -0.00250977346719)
(1.85701628937e-05 4.77388111452e-05 -0.00257109796866)
(1.26988562164e-05 4.94910798389e-05 -0.00261690273407)
(6.27965904486e-06 5.05539038162e-05 -0.00264518731719)
(-4.17899923683e-07 5.08827068232e-05 -0.00265471885734)
(-7.11412081191e-06 5.04628569905e-05 -0.00264504947734)
(-1.3530009194e-05 4.93102266052e-05 -0.00261663227023)
(-1.9397672206e-05 4.74709191139e-05 -0.00257069903133)
(-2.44762917053e-05 4.50251071123e-05 -0.00250924727148)
(-2.85687686851e-05 4.21108342687e-05 -0.00243502368791)
(-3.16722259945e-05 3.88541965762e-05 -0.00235145672247)
(-3.38495257787e-05 3.56116844104e-05 -0.00226234403613)
(3.45227576959e-05 3.74763423055e-05 -0.00251404188828)
(3.17551524631e-05 4.04120148178e-05 -0.00260731635703)
(2.82339751498e-05 4.3259422742e-05 -0.0026948435992)
(2.38304510296e-05 4.5750279882e-05 -0.00277271472385)
(1.85662339112e-05 4.77873659484e-05 -0.00283723604752)
(1.26209080824e-05 4.9275894551e-05 -0.00288545671384)
(6.2081598085e-06 5.01683560282e-05 -0.00291523498513)
(-4.40921636799e-07 5.04390110699e-05 -0.00292525574114)
(-7.08905860837e-06 5.00798203629e-05 -0.00291505038079)
(-1.34994007385e-05 4.9100170755e-05 -0.00288509633456)
(-1.94417367258e-05 4.75273444757e-05 -0.00283671053919)
(-2.47029957342e-05 4.54119811634e-05 -0.00277203493356)
(-2.91009114209e-05 4.28538980474e-05 -0.00269401593612)
(-3.26068269631e-05 3.99555593003e-05 -0.00260632017996)
(-3.53280732338e-05 3.69996010422e-05 -0.00251284421972)
(3.48350713696e-05 3.76367496847e-05 -0.00274025234403)
(3.16332928633e-05 4.02343376538e-05 -0.00283589516659)
(2.78454171417e-05 4.26753024925e-05 -0.00292571398508)
(2.32921557769e-05 4.47848416023e-05 -0.00300575487278)
(1.80168847617e-05 4.64822082929e-05 -0.00307212802864)
(1.21782497619e-05 4.77051904605e-05 -0.00312174330295)
(5.95669769181e-06 4.84295642516e-05 -0.00315237452476)
(-4.57717980642e-07 4.86441248133e-05 -0.0031626650511)
(-6.87150806386e-06 4.83457156441e-05 -0.00315213993895)
(-1.30913880614e-05 4.75388263708e-05 -0.00312128671266)
(-1.89275837002e-05 4.62361155956e-05 -0.00307146694998)
(-2.41997245378e-05 4.44645889929e-05 -0.003004910439)
(-2.87468065968e-05 4.22910073761e-05 -0.00292470527818)
(-3.25198154184e-05 3.98004448675e-05 -0.00283470992679)
(-3.56808874939e-05 3.71789538949e-05 -0.00273886053961)
(3.43121130589e-05 3.69058855845e-05 -0.00294291526054)
(3.07866251146e-05 3.91666033344e-05 -0.00303911721526)
(2.68487269411e-05 4.12023021509e-05 -0.00312955956885)
(2.22691271029e-05 4.29415575679e-05 -0.00321026879092)
(1.71078653716e-05 4.43170719243e-05 -0.00327720470833)
(1.14996081707e-05 4.52938003596e-05 -0.00332721435639)
(5.59015758425e-06 4.58649240841e-05 -0.00335806267938)
(-4.70606722645e-07 4.60293983464e-05 -0.0033684043145)
(-6.53097420593e-06 4.57873503517e-05 -0.00335777629322)
(-1.24392666874e-05 4.51398524982e-05 -0.00332665773215)
(-1.80454465504e-05 4.40892091288e-05 -0.00327640204183)
(-2.32033372867e-05 4.26446392528e-05 -0.0032092514406)
(-2.77761992737e-05 4.08451649601e-05 -0.00312835948335)
(-3.1699449833e-05 3.87615626824e-05 -0.00303772983867)
(-3.51897045285e-05 3.64734898562e-05 -0.00294131376486)
(3.3194536724e-05 3.55627861005e-05 -0.003122998603)
(2.94452274641e-05 3.75072038975e-05 -0.00321817456769)
(2.54494662464e-05 3.91598188939e-05 -0.00330776807359)
(2.09361682323e-05 4.05529692713e-05 -0.00338776063774)
(1.59762522592e-05 4.1634286687e-05 -0.0034540184723)
(1.06787911821e-05 4.23907990795e-05 -0.00350343315848)
(5.15544836709e-06 4.28273309502e-05 -0.00353386076309)
(-4.81320538531e-07 4.29488360341e-05 -0.0035440332277)
(-6.11783125628e-06 4.27571480575e-05 -0.0035335218033)
(-1.16403236195e-05 4.22514139762e-05 -0.00350277442755)
(-1.69358774083e-05 4.1427632177e-05 -0.00345307007394)
(-2.1892136656e-05 4.02829549735e-05 -0.00338656344175)
(-2.63981568072e-05 3.88336789542e-05 -0.00330636655269)
(-3.0379258561e-05 3.7134970523e-05 -0.00321657048203)
(-3.40979887087e-05 3.51597682008e-05 -0.00312116828167)
(3.1668858181e-05 3.3822376808e-05 -0.00328162257096)
(2.77781268544e-05 3.54677405071e-05 -0.00337453330848)
(2.37954403694e-05 3.67588208944e-05 -0.00346207494265)
(1.94179363387e-05 3.78287502366e-05 -0.00354009157008)
(1.47195702009e-05 3.86433954966e-05 -0.00360446194587)
(9.78240844567e-06 3.92057995526e-05 -0.0036522859861)
(4.68589395674e-06 3.95264698658e-05 -0.0036816427649)
(-4.90930747096e-07 3.96118753233e-05 -0.00369142085379)
(-5.66756094002e-06 3.94645013519e-05 -0.00368125127323)
(-1.07633815911e-05 3.90824918447e-05 -0.00365152430921)
(-1.56987141719e-05 3.84600199666e-05 -0.00360336461317)
(-2.03931830176e-05 3.75880405617e-05 -0.00353870749575)
(-2.47629988376e-05 3.64661843588e-05 -0.00346046055818)
(-2.87309946948e-05 3.51308758529e-05 -0.00337269550061)
(-3.25948583749e-05 3.34519322128e-05 -0.00327953958823)
(2.98632034148e-05 3.18306951053e-05 -0.00342024800153)
(2.59019885843e-05 3.31730348822e-05 -0.00351025367581)
(2.19936161501e-05 3.41131808783e-05 -0.00359488642447)
(1.7807688032e-05 3.48777635393e-05 -0.00366974595719)
(1.34119626878e-05 3.54522062435e-05 -0.00373098829291)
(8.86156359467e-06 3.58462710917e-05 -0.00377617750799)
(4.20722975561e-06 3.60689012982e-05 -0.00380377972172)
(-4.99881442518e-07 3.61250249584e-05 -0.00381292704447)
(-5.20685343227e-06 3.60156903152e-05 -0.00380333668036)
(-9.86058028636e-06 3.57400855849e-05 -0.00377531344015)
(-1.44091979177e-05 3.52936329429e-05 -0.00372973967657)
(-1.8800950429e-05 3.46681431104e-05 -0.00366816700075)
(-2.29790139748e-05 3.38557980346e-05 -0.00359304481752)
(-2.68727151653e-05 3.28731628547e-05 -0.00350816304224)
(-3.08099847586e-05 3.14955221832e-05 -0.00341788836055)
(2.78634690647e-05 2.96620661875e-05 -0.0035409446705)
(2.39151035915e-05 3.06933928482e-05 -0.00362854119111)
(2.01452280063e-05 3.12728026104e-05 -0.00370967871571)
(1.61941274882e-05 3.17495794278e-05 -0.00378006638257)
(1.21235569621e-05 3.21100689779e-05 -0.00383677279032)
(7.96370816046e-06 3.23595716436e-05 -0.00387816799671)
(3.74337202741e-06 3.25002388682e-05 -0.00390327068949)
(-5.08191217244e-07 3.25325098014e-05 -0.00391153261089)
(-4.75961155159e-06 3.24559714984e-05 -0.0039027787729)
(-8.97927261911e-06 3.22709479098e-05 -0.0038772049751)
(-1.31373507413e-05 3.19769180821e-05 -0.00383537326472)
(-1.72041676351e-05 3.15718715836e-05 -0.00377828443335)
(-2.11477155828e-05 3.10516175991e-05 -0.00370759045213)
(-2.49031576308e-05 3.04308944248e-05 -0.00362617558184)
(-2.88301151772e-05 2.93624505495e-05 -0.00353829401225)
(2.57367139478e-05 2.7627567003e-05 -0.0036472230054)
(2.19507895549e-05 2.80720456904e-05 -0.00373509368832)
(1.83630610568e-05 2.82804100208e-05 -0.00381133954198)
(1.46694038312e-05 2.84776830239e-05 -0.0038753117691)
(1.0922653952e-05 2.86314523583e-05 -0.00392572900414)
(7.1339618785e-06 2.87406702715e-05 -0.00396200731721)
(3.31666495836e-06 2.88013751096e-05 -0.00398379725212)
(-5.1563483643e-07 2.88102605806e-05 -0.00399090228828)
(-4.34771910599e-06 2.87660295872e-05 -0.00398326344067)
(-8.16413849166e-06 2.86697706148e-05 -0.00396095733503)
(-1.19508192195e-05 2.85242271961e-05 -0.00392419104518)
(-1.56938331737e-05 2.83331560784e-05 -0.00387333075295)
(-1.93808835283e-05 2.80974160914e-05 -0.00380899196467)
(-2.29547899736e-05 2.78493057852e-05 -0.00373240086748)
(-2.67240482127e-05 2.73640673407e-05 -0.00364433952554)
(-1.92919604103e-07 -3.41698819748e-07 -0.000255251369875)
(-1.11089537901e-07 -4.5548046827e-07 -0.00026881075858)
(-6.3270929999e-08 -5.2474254324e-07 -0.000281652959442)
(-2.83088702621e-08 -5.71183276293e-07 -0.00029307804513)
(-6.95407237061e-09 -6.00460397229e-07 -0.000302521940864)
(1.66911318829e-09 -6.1702146907e-07 -0.000309560194292)
(1.09234476932e-10 -6.25161340341e-07 -0.000313900808854)
(-7.47800952284e-09 -6.27748855855e-07 -0.000315369240342)
(-1.47721179534e-08 -6.25709156195e-07 -0.000313878837218)
(-1.53033751072e-08 -6.17820760281e-07 -0.000309516377682)
(-4.39283749786e-09 -6.0094617784e-07 -0.000302456562825)
(2.06119451753e-08 -5.70759448412e-07 -0.000292991290764)
(6.02092858598e-08 -5.22327867704e-07 -0.000281544015561)
(1.13771483131e-07 -4.49997580601e-07 -0.000268674842447)
(1.99064647931e-07 -3.34384719878e-07 -0.000255070340402)
(-7.37943908675e-07 -1.10677626704e-06 -0.000726465289726)
(-5.3201303338e-07 -1.41080939666e-06 -0.000762620173315)
(-3.9266643043e-07 -1.62065717218e-06 -0.000796945800888)
(-2.79570872449e-07 -1.77329043473e-06 -0.000827519819689)
(-1.87975138216e-07 -1.87893541744e-06 -0.000852810654077)
(-1.15761431251e-07 -1.94596619873e-06 -0.000871667613243)
(-5.93261563562e-08 -1.98252943875e-06 -0.000883296714429)
(-1.24280674735e-08 -1.99420814013e-06 -0.000887221141007)
(3.50859438229e-08 -1.98281451747e-06 -0.000883230376551)
(9.36425256356e-08 -1.94592525888e-06 -0.000871535376313)
(1.70420849111e-07 -1.87747621357e-06 -0.000852613452146)
(2.69487172371e-07 -1.76926350942e-06 -0.000827258417802)
(3.92302855746e-07 -1.61204327311e-06 -0.000796618156797)
(5.43330612498e-07 -1.39562665227e-06 -0.000762212816281)
(7.56014976646e-07 -1.08778920481e-06 -0.000725936330206)
(-1.43056271176e-06 -1.95798374204e-06 -0.0011555680983)
(-1.13434838659e-06 -2.42348060251e-06 -0.00121010442833)
(-9.11625334957e-07 -2.77335678638e-06 -0.00126193030737)
(-7.11842918448e-07 -3.04238841958e-06 -0.00130813046189)
(-5.23738350064e-07 -3.23978716137e-06 -0.00134636905374)
(-3.44871177936e-07 -3.37286980834e-06 -0.00137488991077)
(-1.74084853578e-07 -3.44897731501e-06 -0.00139247803986)
(-8.8405707442e-09 -3.47323205637e-06 -0.00139840398858)
(1.57020584986e-07 -3.44719347337e-06 -0.00139236808869)
(3.29954579897e-07 -3.36865026289e-06 -0.00137467078521)
(5.13575690954e-07 -3.232081495e-06 -0.00134604236264)
(7.09859153701e-07 -3.03018125479e-06 -0.00130769764988)
(9.20803195392e-07 -2.75496928916e-06 -0.00126138895408)
(1.15707572282e-06 -2.39717352533e-06 -0.00120943557343)
(1.4608348718e-06 -1.92756634215e-06 -0.00115471316203)
(-2.07220670489e-06 -2.6950076646e-06 -0.00154542399479)
(-1.70936500879e-06 -3.26440797738e-06 -0.00161462069591)
(-1.41771749366e-06 -3.71137733186e-06 -0.0016804029819)
(-1.14035936857e-06 -4.06465696287e-06 -0.00173909714736)
(-8.60568762898e-07 -4.3308464463e-06 -0.00178771041174)
(-5.7575999465e-07 -4.51478081819e-06 -0.00182398584504)
(-2.8793066282e-07 -4.62180442368e-06 -0.00184635740852)
(3.69972646905e-10 -4.65576289214e-06 -0.00185388596953)
(2.89154587542e-07 -4.61778998725e-06 -0.00184620493665)
(5.78680162167e-07 -4.50621914199e-06 -0.00182368206203)
(8.67397951016e-07 -4.31695899325e-06 -0.00178725768901)
(1.15434910813e-06 -4.04476335386e-06 -0.00173849785638)
(1.44193401402e-06 -3.68434379264e-06 -0.00167965538316)
(1.74627237294e-06 -3.22901232803e-06 -0.00161370376924)
(2.11550865916e-06 -2.6554404894e-06 -0.00154427062126)
(-2.63275970205e-06 -3.30396120111e-06 -0.00189878670149)
(-2.21899351242e-06 -3.93234264403e-06 -0.00197936445275)
(-1.87007609318e-06 -4.43759424729e-06 -0.00205597638512)
(-1.52462558224e-06 -4.84336860895e-06 -0.00212440192634)