/*--------------------------------*- C++ -*----------------------------------*\
  =========                 |
  \\      /  F ield         | OpenFOAM: The Open Source CFD Toolbox
   \\    /   O peration     | Website:  https://openfoam.org
    \\  /    A nd           | Version:  7
     \\/     M anipulation  |
\*---------------------------------------------------------------------------*/
FoamFile
{
    version     2.0;
    format      ascii;
    class       volVectorField;
    location    "0.62";
    object      U;
}
// * * * * * * * * * * * * * * * * * * * * * * * * * * * * * * * * * * * * * //

dimensions      [0 1 -1 0 0 0 0];

internalField   nonuniform List<vector> 
22500
(
(7.64470271932e-06 8.61515380984e-06 9.90875020644e-05)
(7.0802467763e-06 9.74506411571e-06 0.000103940919621)
(6.18158112822e-06 1.08634246703e-05 0.000108316868992)
(5.18299478922e-06 1.18072004813e-05 0.000112080666941)
(4.02063730053e-06 1.2582627316e-05 0.000115125559559)
(2.74885051144e-06 1.31558665389e-05 0.00011736408574)
(1.39616670198e-06 1.35081839204e-05 0.000118734224151)
(1.56880906087e-09 1.36272571259e-05 0.000119198183039)
(-1.39307047001e-06 1.35084138707e-05 0.000118734185484)
(-2.7458693913e-06 1.31563120308e-05 0.000117364018779)
(-4.01784818275e-06 1.25832494651e-05 0.000115125478008)
(-5.18046293922e-06 1.1807958173e-05 0.00011208060784)
(-6.17941109333e-06 1.08642375676e-05 0.000108316979145)
(-7.07833870107e-06 9.74600101347e-06 0.000103941922135)
(-7.64340282909e-06 8.61606494678e-06 9.90924909655e-05)
(2.24317528822e-05 2.52565106811e-05 0.00026797433751)
(2.07486829914e-05 2.84994520493e-05 0.00027953170406)
(1.81779193925e-05 3.16876633193e-05 0.000289832651689)
(1.52325096891e-05 3.44057642666e-05 0.000298613333603)
(1.18257665596e-05 3.66415849083e-05 0.00030566546369)
(8.08649390988e-06 3.82971493755e-05 0.000310822454008)
(4.10751136794e-06 3.93160131511e-05 0.000313967251864)
(4.20891913504e-09 3.96603254739e-05 0.00031502841926)
(-4.09919348811e-06 3.93165667961e-05 0.000313967133965)
(-8.07846308115e-06 3.82982209038e-05 0.000310822243145)
(-1.18182086687e-05 3.6643083089e-05 0.000305665193085)
(-1.52255960735e-05 3.44075892934e-05 0.000298613104553)
(-1.81718697362e-05 3.16896384908e-05 0.000289832889866)
(-2.07433903354e-05 2.85017268858e-05 0.000279534500817)
(-2.24280971677e-05 2.52587819756e-05 0.00026798681919)
(3.43559953317e-05 3.85830934932e-05 0.000411228973621)
(3.16358959647e-05 4.33318659923e-05 0.000427257924314)
(2.76753219698e-05 4.79635411357e-05 0.000441392619229)
(2.31317336531e-05 5.1908518013e-05 0.000453347145543)
(1.79284033642e-05 5.51426085443e-05 0.000462888384765)
(1.22430282364e-05 5.75325377599e-05 0.000469833499333)
(6.21367627695e-06 5.90013059974e-05 0.000474055080631)
(6.36549795559e-09 5.94972527645e-05 0.000475475740549)
(-6.2010819759e-06 5.90020411326e-05 0.000474054831499)
(-1.22308321803e-05 5.75339597856e-05 0.000469833035596)
(-1.79168619646e-05 5.51446004181e-05 0.000462887747342)
(-2.31210841824e-05 5.19109411138e-05 0.000453346472026)
(-2.7665857221e-05 4.79661906341e-05 0.000441392500748)
(-3.1627561848e-05 4.33349410939e-05 0.000427261299704)
(-3.43500890354e-05 3.85862863697e-05 0.000411245778751)
(4.39516591134e-05 4.92327934665e-05 0.000532904538775)
(4.02980019505e-05 5.5007647453e-05 0.000551719826233)
(3.51788147973e-05 6.06079960905e-05 0.00056812639704)
(2.93251298098e-05 6.53614230481e-05 0.000581890110744)
(2.26856654601e-05 6.92446649041e-05 0.000592805049628)
(1.54689853804e-05 7.21070230934e-05 0.000600712577745)
(7.84392063795e-06 7.38631703837e-05 0.000605503358048)
(8.11641870608e-09 7.44555953705e-05 0.000607111595623)
(-7.82785170109e-06 7.38640519414e-05 0.000605502882934)
(-1.54533985911e-05 7.21087280777e-05 0.000600711662494)
(-2.26708706105e-05 6.92470601284e-05 0.00059280372407)
(-2.93114070118e-05 6.53643401295e-05 0.000581888501618)
(-3.51664937377e-05 6.06112092152e-05 0.000568125111354)
(-4.02870798162e-05 5.50113782683e-05 0.000551722104219)
(-4.39436708317e-05 4.92367435676e-05 0.000532921633924)
(5.16172589493e-05 5.76914955573e-05 0.000636250637058)
(4.713854151e-05 6.41110733887e-05 0.000656568195231)
(4.10545253112e-05 7.03088281098e-05 0.000674071210574)
(3.41336462216e-05 7.55473323561e-05 0.000688625957444)
(2.63550008884e-05 7.98111627862e-05 0.000700088752693)
(1.79447706895e-05 8.29458435746e-05 0.000708350882723)
(9.09125754898e-06 8.48656867751e-05 0.000713338883334)
(9.54737710429e-09 8.55127286264e-05 0.000715009314236)
(-9.07234828694e-06 8.4866706642e-05 0.000713338108638)
(-1.7926409448e-05 8.29478174384e-05 0.000708349355413)
(-2.63375382712e-05 7.98139455245e-05 0.000700086463077)
(-3.41173927123e-05 7.55507333e-05 0.000688622956894)
(-4.10398172696e-05 7.03125962511e-05 0.000674067967117)
(-4.71254156372e-05 6.41154416924e-05 0.000656567906287)
(-5.16073519944e-05 5.76961677373e-05 0.000636265004935)
(5.755640405e-05 6.41985849997e-05 0.00072392230937)
(5.23611300249e-05 7.09344034474e-05 0.000744762166869)
(4.54877029651e-05 7.7412854131e-05 0.000762478087355)
(3.77198665308e-05 8.28637023501e-05 0.000777066637145)
(2.90670399642e-05 8.72826826633e-05 0.000788468493171)
(1.97621204784e-05 9.05226852331e-05 0.000796640196425)
(1.00030604121e-05 9.25034004354e-05 0.000801554454118)
(1.07381922373e-08 9.31703510936e-05 0.000803196148804)
(-9.98178655943e-06 9.25045634158e-05 0.000801553336863)
(-1.97414469636e-05 9.05249393933e-05 0.00079663795556)
(-2.90473484118e-05 8.72858734115e-05 0.000788465045622)
(-3.77014891373e-05 8.28676201174e-05 0.000777061889636)
(-4.54709614792e-05 7.74172270401e-05 0.000762472240304)
(-5.23460822823e-05 7.09394578115e-05 0.000744758220592)
(-5.75447346551e-05 6.42040249574e-05 0.000723932206215)
(6.19377077873e-05 6.89447347207e-05 0.000798135979416)
(5.61328023547e-05 7.57146100656e-05 0.000818756584653)
(4.86324045846e-05 8.22030619239e-05 0.000836030084477)
(4.02192504172e-05 8.76357967492e-05 0.000850099078311)
(3.09309669362e-05 9.20210541428e-05 0.000861000386687)
(2.09978779219e-05 9.52274916584e-05 0.000868763260596)
(1.06190556959e-05 9.71840225973e-05 0.000873411217671)
(1.17613209612e-08 9.78422595808e-05 0.000874959874522)
(-1.05957498937e-05 9.71853469716e-05 0.000873409747045)
(-2.09752152828e-05 9.523006324e-05 0.000868760269114)
(-3.09093534393e-05 9.20247112577e-05 0.000860995684168)
(-4.01990334311e-05 8.76403112159e-05 0.000850092364675)
(-4.86138826599e-05 8.22081429824e-05 0.000836021205133)
(-5.6116039265e-05 7.57204574055e-05 0.000818748334886)
(-6.19244082323e-05 6.89510398695e-05 0.000798140568481)
(6.49283554526e-05 7.211926854e-05 0.000860773400768)
(5.86175958867e-05 7.86864928689e-05 0.000880624758086)
(5.06404923188e-05 8.49581303873e-05 0.000896983372294)
(4.1765177481e-05 9.01821264152e-05 0.000910142897379)
(3.20542733524e-05 9.43794608457e-05 0.000920239569968)
(2.17276424442e-05 9.74401142941e-05 0.000927376500733)
(1.09782985544e-05 9.93042710953e-05 0.000931628201633)
(1.26813631446e-08 9.99309403745e-05 0.000933040717907)
(-1.0953164822e-05 9.9305782082e-05 0.000931626404978)
(-2.17031874097e-05 9.74430558478e-05 0.000927372800704)
(-3.2030922846e-05 9.43836649216e-05 0.000920233641756)
(-4.17432915063e-05 9.01873474485e-05 0.00091013418787)
(-5.06203434198e-05 8.49640558323e-05 0.000896971329049)
(-5.85992574396e-05 7.86932822802e-05 0.000880612063841)
(-6.4913536999e-05 7.21265721273e-05 0.000860772600158)
(6.66863856352e-05 7.39017715476e-05 0.000913451699932)
(5.99690816314e-05 8.00708177053e-05 0.000932139831856)
(5.16540691241e-05 8.59380775727e-05 0.000947259979399)
(4.2482490478e-05 9.07981037898e-05 0.000959253436793)
(3.25375743511e-05 9.46843689224e-05 0.000968351929899)
(2.20221207545e-05 9.75109255769e-05 0.000974728328485)
(1.11172864845e-05 9.92296234779e-05 0.000978504733126)
(1.35566462131e-08 9.98070288359e-05 0.000979755213653)
(-1.10904119426e-05 9.92313475677e-05 0.000978502687872)
(-2.1995954039e-05 9.75142925211e-05 0.00097472406833)
(-3.25125581307e-05 9.46892064143e-05 0.00096834498027)
(-4.24589980549e-05 9.08041497306e-05 0.00095924296705)
(-5.16323534405e-05 8.59449953369e-05 0.000947245036039)
(-5.99492392459e-05 8.0078710807e-05 0.000932123139134)
(-6.66701315104e-05 7.3910225256e-05 0.000913446157538)
(6.73578169482e-05 7.44585806979e-05 0.000957569410733)
(6.0327921253e-05 8.00693061861e-05 0.000974827628099)
(5.18033047287e-05 8.53783683561e-05 0.000988508188831)
(4.24858426341e-05 8.97498668282e-05 0.000999189144348)
(3.24733278108e-05 9.32292340848e-05 0.00100718731018)
(2.19461951014e-05 9.57543973689e-05 0.00101273671287)
(1.10694597668e-05 9.7287756616e-05 0.00101600072878)
(1.44388057204e-08 9.78026895399e-05 0.00101707743619)
(-1.10408279027e-05 9.72897132664e-05 0.0010159985818)
(-2.19182927625e-05 9.57582315614e-05 0.00101273219027)
(-3.24466134069e-05 9.32347740396e-05 0.00100717979149)
(-4.24607060571e-05 8.97568373977e-05 0.000999177522162)
(-5.17799932226e-05 8.53864078457e-05 0.000988491134073)
(-6.03065758998e-05 8.00784513571e-05 0.00097480809181)
(-6.73401656015e-05 7.44683321107e-05 0.000957560586697)
(6.70776054324e-05 7.3944893693e-05 0.000994333186124)
(5.98231154986e-05 7.88653647368e-05 0.00100999778537)
(5.12081001438e-05 8.34904484162e-05 0.00102213975143)
(4.18812942988e-05 8.72756971146e-05 0.00103145437258)
(3.19469256915e-05 9.02766798587e-05 0.00103832678408)
(2.155949653e-05 9.24516436248e-05 0.00104303972756)
(1.08654288169e-05 9.37711893763e-05 0.00104578926259)
(1.53706704647e-08 9.4214274545e-05 0.00104669226087)
(-1.08349367991e-05 9.37733818952e-05 0.00104578725613)
(-2.15297468365e-05 9.24559563095e-05 0.00104303544699)
(-3.19183912761e-05 9.02829488189e-05 0.00103831949489)
(-4.18543886438e-05 8.72836431542e-05 0.00103144272026)
(-5.11830846695e-05 8.34996875759e-05 0.00102212206723)
(-5.98001999796e-05 7.88758642918e-05 0.00100997743055)
(-6.70585351567e-05 7.3956051185e-05 0.000994323536825)
(6.59692001193e-05 7.25055225159e-05 0.00102476653319)
(5.8573553501e-05 7.66226925307e-05 0.00103875754045)
(4.99810320909e-05 8.04615960051e-05 0.00104935070729)
(4.07685639121e-05 8.35881091384e-05 0.00105732555466)
(3.1037718074e-05 8.60616026516e-05 0.00106311263843)
(2.09166612221e-05 8.78536608354e-05 0.00106702821818)
(1.05329742958e-05 8.89403954449e-05 0.00106929087655)
(1.63829449183e-08 8.93053613548e-05 0.00107003023448)
(-1.0500457118e-05 8.89428023726e-05 0.00106928937525)
(-2.08848885855e-05 8.78584129019e-05 0.00106702495293)
(-3.10071766422e-05 8.60685562886e-05 0.00106310683596)
(-4.07396989886e-05 8.35969966493e-05 0.00105731568352)
(-4.99541444317e-05 8.04720238791e-05 0.00104933477533)
(-5.85489472031e-05 7.66345606944e-05 0.00103873941672)
(-6.59486217819e-05 7.25181220254e-05 0.00102475971225)
(6.41418714564e-05 7.02624191633e-05 0.00104969828446)
(5.66949528913e-05 7.34774801857e-05 0.00106201333915)
(4.82343471379e-05 7.64571014644e-05 0.00107113323203)
(3.92438638819e-05 7.88797360456e-05 0.00107786762843)
(2.98190796194e-05 8.07975549977e-05 0.0010826674682)
(2.00666053774e-05 8.21869989418e-05 0.00108586682507)
(1.00965201791e-05 8.30288780604e-05 0.00108769583041)
(1.74904386985e-08 8.33116411905e-05 0.00108829024409)
(-1.00617848733e-05 8.30314435186e-05 0.00108769533364)
(-2.00326066328e-05 8.21920846772e-05 0.00108586565177)
(-2.97863143456e-05 8.08050502857e-05 0.00108266495208)
(-3.92128184148e-05 7.88894105335e-05 0.00107786221604)
(-4.82053902667e-05 7.64685774878e-05 0.00107112258609)
(-5.66685112462e-05 7.3490607535e-05 0.00106200160418)
(-6.41196854709e-05 7.02763432072e-05 0.00104969888062)
(6.1722284886e-05 6.73041537967e-05 0.00106972393259)
(5.43340377938e-05 6.95745499064e-05 0.00108047670405)
(4.60912762549e-05 7.16422348779e-05 0.00108829088465)
(3.73970573785e-05 7.33447616968e-05 0.00109394777616)
(2.83533272624e-05 7.46921074726e-05 0.00109790758152)
(1.90487257846e-05 7.56651600494e-05 0.00110050781445)
(9.57529317017e-06 7.62527628265e-05 0.00110197838189)
(1.86857501887e-08 7.64500024486e-05 0.00110245395552)
(-9.53816115594e-06 7.6255395337e-05 0.00110197948705)
(-1.90123157495e-05 7.56703999938e-05 0.00110051004315)
(-2.83181420371e-05 7.46998865376e-05 0.00109791062508)
(-3.73636280313e-05 7.33549182682e-05 0.00109395042701)
(-4.6060065059e-05 7.16544637278e-05 0.0010882905671)
(-5.43056239787e-05 6.95886767369e-05 0.00108047686121)
(-6.1698323751e-05 6.73192174828e-05 0.00106973681477)
(5.88988778234e-05 6.4045798031e-05 0.00108516439499)
(5.16746906529e-05 6.49188315072e-05 0.00109476448895)
(4.36239431414e-05 6.61158693018e-05 0.00110147752029)
(3.52725872758e-05 6.70926821064e-05 0.0011062557658)
(2.66689379871e-05 6.78552380722e-05 0.0011095576494)
(1.78817233722e-05 6.83979403224e-05 0.00111170364014)
(8.97889326822e-06 6.87225277112e-05 0.00111290842685)
(1.99389801678e-08 6.88313086187e-05 0.00111329711296)
(-8.93924975841e-06 6.87250689883e-05 0.0011129115989)
(-1.78427874565e-05 6.84030173727e-05 0.00111171031175)
(-2.66312102494e-05 6.7862827674e-05 0.00110956816415)
(-3.52366279424e-05 6.71027138981e-05 0.00110626993326)
(-4.35903174055e-05 6.61281530272e-05 0.00110149303741)
(-5.16442937505e-05 6.49333607165e-05 0.00109478607831)
(-5.88727998036e-05 6.40613990876e-05 0.0010851888678)
(1.34606787111e-07 2.24299635614e-07 7.16373714104e-05)
(7.64223055231e-08 2.95870669422e-07 7.50803332631e-05)
(4.75362634084e-08 3.36302471222e-07 7.81360151635e-05)
(2.5637777863e-08 3.64086058605e-07 8.07424030238e-05)
(1.10997812294e-08 3.82048849434e-07 8.28408775468e-05)
(3.36251434544e-09 3.92787298363e-07 8.43789761288e-05)
(6.52839128473e-10 3.98383520844e-07 8.53191518297e-05)
(7.61228924136e-10 4.00167491109e-07 8.56378455184e-05)
(8.81315429564e-10 3.98538151879e-07 8.53192288419e-05)
(-1.79300752167e-09 3.93092678474e-07 8.43791508015e-05)
(-9.49739554568e-09 3.82486569754e-07 8.2841194039e-05)
(-2.40800762848e-08 3.64619717144e-07 8.07429589005e-05)
(-4.61530579664e-08 3.36900528888e-07 7.81370649684e-05)
(-7.5265838855e-08 2.96486273434e-07 7.50827403546e-05)
(-1.33871141272e-07 2.24891034781e-07 7.16439911226e-05)
(1.23236401192e-06 1.53379546574e-06 0.000208705811868)
(1.04572420867e-06 1.88447665967e-06 0.00021829776951)
(8.92186044541e-07 2.16927452394e-06 0.000226781001673)
(7.30186975419e-07 2.40795464315e-06 0.000233992743708)
(5.57438603067e-07 2.5965474653e-06 0.000239783254883)
(3.76951601322e-07 2.732848071e-06 0.000244019871261)
(1.9098197824e-07 2.81541534606e-06 0.00024660585924)
(2.44850896802e-09 2.84327224614e-06 0.000247479675613)
(-1.86070505616e-07 2.81585874437e-06 0.000246606084349)
(-3.72001950484e-07 2.73371346285e-06 0.000244020382801)
(-5.52486453402e-07 2.59777632627e-06 0.000239784188252)
(-7.25418930712e-07 2.40945385362e-06 0.000233994394067)
(-8.87933460304e-07 2.17095795027e-06 0.000226784127151)
(-1.04216883697e-06 1.88625602461e-06 0.000218304903591)
(-1.23002916201e-06 1.53555987518e-06 0.000208723796596)
(3.0048053292e-06 3.54222316688e-06 0.000339440600849)
(2.6670294152e-06 4.26546486095e-06 0.000354551113077)
(2.33176456397e-06 4.89914337176e-06 0.000367862971017)
(1.94699470251e-06 5.44706838412e-06 0.000379144524331)
(1.51081728283e-06 5.89120628742e-06 0.000388179402401)
(1.03341493691e-06 6.21827306541e-06 0.000394777611719)
(5.26396448345e-07 6.41881758083e-06 0.000398799326026)
(4.21071736017e-09 6.48672592077e-06 0.000400155387255)
(-5.17975186164e-07 6.41951717777e-06 0.000398799640176)
(-1.02500437589e-06 6.21962868227e-06 0.000394778337674)
(-1.50250264663e-06 5.89311695076e-06 0.000388180756323)
(-1.93903511415e-06 5.4493907469e-06 0.000379146971481)
(-2.3246225736e-06 4.90174667998e-06 0.000367867667225)
(-2.66102505964e-06 4.26829237065e-06 0.000354561823105)
(-3.00073475337e-06 3.5451220454e-06 0.000339467201209)
(5.20501516016e-06 5.97969762704e-06 0.000463792635951)
(4.69304823781e-06 7.1122897038e-06 0.000483753053052)
(4.13615778509e-06 8.13158986431e-06 0.000501249825342)
(3.47327923829e-06 9.02370884141e-06 0.000516021531314)
(2.70688563977e-06 9.75324085965e-06 0.000527813736256)
(1.85683090557e-06 1.02936390755e-05 0.000536405192621)
(9.46890151879e-07 1.06261654281e-05 0.000541632547746)
(5.99245375138e-09 1.07388398823e-05 0.000543391871039)
(-9.3493212188e-07 1.06270927489e-05 0.000541632836282)
(-1.84496819524e-06 1.02954355383e-05 0.000536405895515)
(-2.6952665118e-06 9.7557785153e-06 0.000527815128398)
(-3.46222250387e-06 9.02681412885e-06 0.000516024194432)
(-4.12620364813e-06 8.13508967441e-06 0.000501255160962)
(-4.68462502263e-06 7.11616303959e-06 0.000483765574538)
(-5.19911420723e-06 5.9837486932e-06 0.000463824122967)
(7.62057924307e-06 8.61354517476e-06 0.000581423296949)
(6.91666327557e-06 1.01496992676e-05 0.000605497611181)
(6.11521453719e-06 1.15432008316e-05 0.000626468028581)
(5.14393343677e-06 1.27691302202e-05 0.000644088251646)
(4.01346208819e-06 1.37748300887e-05 0.000658098513991)
(2.75479855874e-06 1.45211832931e-05 0.000668275196314)
(1.40489225202e-06 1.49808828702e-05 0.000674453529015)
(7.74851579998e-09 1.51366256979e-05 0.000676529199818)
(-1.38945499595e-06 1.49820154254e-05 0.000674453687827)
(-2.73955868878e-06 1.452338179e-05 0.000668275658178)
(-3.99863560221e-06 1.37779525934e-05 0.000658099577191)
(-5.12989153301e-06 1.27729849343e-05 0.000644090536926)
(-6.10254027483e-06 1.15475795761e-05 0.000626473011319)
(-6.9058478574e-06 1.01545950091e-05 0.000605510227514)
(-7.61276323615e-06 8.61872993807e-06 0.000581456531936)
(1.00976522035e-05 1.12799390778e-05 0.00069190351119)
(9.18972422831e-06 1.31847167361e-05 0.000719297800861)
(8.13316056264e-06 1.49096419564e-05 0.000742978892488)
(6.84180792841e-06 1.64295876773e-05 0.000762762458611)
(5.33732081019e-06 1.76769701407e-05 0.000778417573237)
(3.66245645944e-06 1.86026385489e-05 0.000789747316882)
(1.8671091875e-06 1.91726544936e-05 0.000796607714177)
(9.44648899466e-09 1.93656766383e-05 0.0007989083277)
(-1.84831105252e-06 1.9173971828e-05 0.000796607691535)
(-3.6439619579e-06 1.86052017508e-05 0.000789747413036)
(-5.31941105251e-06 1.76806314899e-05 0.000778418064193)
(-6.8248972398e-06 1.64341441151e-05 0.000762763913122)
(-8.11785464685e-06 1.49148599133e-05 0.000742982695279)
(-9.17653974978e-06 1.31905906386e-05 0.000719309118279)
(-1.00878477503e-05 1.1286201854e-05 0.000691936340504)
(1.25120496427e-05 1.38496006567e-05 0.000794841424621)
(1.13939322518e-05 1.60656140471e-05 0.000824732513292)
(1.00819228017e-05 1.80570985602e-05 0.000850342472369)
(8.47428496276e-06 1.98107487511e-05 0.000871594318436)
(6.60525588797e-06 2.12479315729e-05 0.000888317760828)
(4.52915715635e-06 2.23131263346e-05 0.00090036870781)
(2.3076389064e-06 2.29684383101e-05 0.000907643722847)
(1.10638467791e-08 2.31901900987e-05 0.000910078711513)
(-2.28563950242e-06 2.29699182913e-05 0.000907643535776)
(-4.50756095764e-06 2.23160142184e-05 0.000900368450049)
(-6.58440183776e-06 2.12520796425e-05 0.000888317635752)
(-8.45462206575e-06 1.98159490209e-05 0.000871594749521)
(-1.00640640167e-05 1.8063096728e-05 0.000850344613206)
(-1.13784055581e-05 1.60724064914e-05 0.000824741684122)
(-1.25001921617e-05 1.38568615931e-05 0.000794872581635)
(1.47624809774e-05 1.621860501e-05 0.000889950481907)
(1.34340249183e-05 1.86716076671e-05 0.000921519532396)
(1.18751515078e-05 2.085028432e-05 0.000948294598297)
(9.9681056938e-06 2.27641019067e-05 0.00097034599355)
(7.75991678417e-06 2.43282929734e-05 0.000987589843859)
(5.31553574573e-06 2.5485154242e-05 0.000999955275152)
(2.70645438897e-06 2.61958110742e-05 0.0010073946122)
(1.25881075957e-08 2.64360907898e-05 0.00100987956509)
(-2.6814356538e-06 2.61974302239e-05 0.00100739437436)
(-5.29100648334e-06 2.54883235311e-05 0.000999954869263)
(-7.73626391484e-06 2.43328694773e-05 0.000987589351985)
(-9.94580564876e-06 2.27698782165e-05 0.000970345607009)
(-1.18548124001e-05 2.08569917608e-05 0.000948295127382)
(-1.34161832151e-05 1.86792407338e-05 0.000921526455585)
(-1.47485303706e-05 1.62267813158e-05 0.00088997965033)
(1.67694901232e-05 1.83066945677e-05 0.00097707588861)
(1.52363731269e-05 2.09108788054e-05 0.00100953964764)
(1.34468824692e-05 2.31895233654e-05 0.00103676805856)
(1.12680407962e-05 2.51831111268e-05 0.00105900924436)
(8.75861748668e-06 2.6806246554e-05 0.0010762821584)
(5.99260183842e-06 2.80032556446e-05 0.00108860170602)
(3.04890859248e-06 2.87371807766e-05 0.00109598538878)
(1.40123116579e-08 2.89850938847e-05 0.00109844649419)
(-3.02106459951e-06 2.87389116083e-05 0.00109598533879)
(-5.9653153818e-06 2.80066545661e-05 0.00108860161269)
(-8.7323122638e-06 2.6811181252e-05 0.00107628194245)
(-1.12432137932e-05 2.51893802545e-05 0.00105900879087)
(-1.34241326809e-05 2.31968531572e-05 0.00103676774724)
(-1.52162440123e-05 2.0919257992e-05 0.00100954516955)
(-1.67534230936e-05 1.83156930242e-05 0.00097710384384)
(1.84739341998e-05 2.00552543007e-05 0.00105619156596)
(1.67472167876e-05 2.271803356e-05 0.00108882773077)
(1.47497640753e-05 2.5006961111e-05 0.00111587844904)
(1.23351358045e-05 2.69982608406e-05 0.00113778551406)
(9.57178783446e-06 2.86115969935e-05 0.00115467469406)
(6.54057241255e-06 2.97971699169e-05 0.00116665033727)
(3.32510409333e-06 3.05224422954e-05 0.00117379837713)
(1.53321066158e-08 3.07671796824e-05 0.00117617564865)
(-3.29463694457e-06 3.05242509754e-05 0.00117379890733)
(-6.51071066398e-06 2.98007338393e-05 0.00116665133506)
(-9.54298055294e-06 2.86168004146e-05 0.0011546758959)
(-1.23078937485e-05 2.70049164881e-05 0.0011377864426)
(-1.47246756029e-05 2.50148007666e-05 0.00111587898113)
(-1.67248375219e-05 2.27270430051e-05 0.0010888338494)
(-1.84557391817e-05 2.00649653893e-05 0.00105622037655)
(1.98350168158e-05 2.14250552498e-05 0.0011273740392)
(1.79305828729e-05 2.40510726947e-05 0.00115954116856)
(1.57530103618e-05 2.62621303859e-05 0.00118588893942)
(1.31447764983e-05 2.81714200104e-05 0.00120704521713)
(1.01812992952e-05 2.97090977188e-05 0.00122323194539)
(6.9476208314e-06 3.08343818347e-05 0.00123463834501)
(3.52921875447e-06 3.15209975986e-05 0.00124141665616)
(1.65410258088e-08 3.17524345395e-05 0.00124366585931)
(-3.49634341002e-06 3.15228407025e-05 0.00124141833665)
(-6.91537834521e-06 3.08380274592e-05 0.00123464158609)
(-1.01501519949e-05 2.97144531054e-05 0.00122323630643)
(-1.31152426271e-05 2.81783229237e-05 0.00120704982722)
(-1.57256684062e-05 2.62703315147e-05 0.00118589309614)
(-1.79060060471e-05 2.40605653649e-05 0.00115955121727)
(-1.98146989077e-05 2.14353423238e-05 0.0011274073071)
(2.08273809572e-05 2.23928660484e-05 0.00119075460885)
(1.87656297684e-05 2.48870950952e-05 0.00122191409177)
(1.64401973587e-05 2.69366001937e-05 0.00124716650921)
(1.36848292724e-05 2.86897842298e-05 0.00126727934322)
(1.05789188756e-05 3.0091799237e-05 0.00128254753273)
(7.20873574322e-06 3.1112972811e-05 0.00129323632923)
(3.65889358553e-06 3.17342662855e-05 0.00129955878752)
(1.76280671246e-08 3.19434363844e-05 0.00130165205253)
(-3.62384767604e-06 3.17360912125e-05 0.00129956237364)
(-7.17433211485e-06 3.11165963219e-05 0.00129324336564)
(-1.05456220362e-05 3.00971594754e-05 0.00128255746176)
(-1.36531568778e-05 2.86967549943e-05 0.00126729091591)
(-1.64107178068e-05 2.69449696373e-05 0.00124717833043)
(-1.87389400609e-05 2.48968765548e-05 0.00122193282076)
(-2.08049663312e-05 2.24035535089e-05 0.00119079760958)
(2.14373749137e-05 2.29442251682e-05 0.001246445216)
(1.92448870097e-05 2.52155921009e-05 0.00127621205937)
(1.68085474361e-05 2.70287095693e-05 0.00130014631284)
(1.39549920597e-05 2.85604524376e-05 0.00131905550033)
(1.07655721334e-05 2.97755354677e-05 0.00133329015121)
(7.3250864159e-06 3.06559080388e-05 0.00134318699913)
(3.7148674769e-06 3.11897907112e-05 0.00134901331845)
(1.85774034729e-08 3.13692986139e-05 0.00135093838116)
(-3.67792332931e-06 3.11915370245e-05 0.00134901971778)
(-7.2887808999e-06 3.06593910601e-05 0.00134319973019)
(-1.07303618529e-05 2.97807271571e-05 0.00133330869261)
(-1.39213861045e-05 2.85672769149e-05 0.00131907835738)
(-1.67771010957e-05 2.70370104496e-05 0.00130017123815)
(-1.92162236797e-05 2.52254254687e-05 0.00127624553106)
(-2.1412953406e-05 2.29550758348e-05 0.00124650428595)
(2.16736890364e-05 2.30709451671e-05 0.00129442644709)
(1.93832244588e-05 2.50640601616e-05 0.00132273520538)
(1.68747171929e-05 2.65666141558e-05 0.00134533073741)
(1.39686826154e-05 2.78188928082e-05 0.00136298817746)
(1.07517672702e-05 2.88029172462e-05 0.00137615663531)
(7.30388419328e-06 2.95114270453e-05 0.00138524919624)
(3.70079539208e-06 2.99393504463e-05 0.00139057826484)
(1.93696167632e-08 3.00830001959e-05 0.00139233627089)
(-3.66226463512e-06 2.99409577991e-05 0.00139058842042)
(-7.26598356348e-06 2.95146474269e-05 0.00138526963901)
(-1.07149384865e-05 2.8807756797e-05 0.00137618717654)
(-1.39334173795e-05 2.78253337639e-05 0.00136302751143)
(-1.68415487864e-05 2.65745832755e-05 0.00134537581492)
(-1.93527927141e-05 2.50736761101e-05 0.00132279085145)
(-2.1647362722e-05 2.30817382137e-05 0.00129450775195)
(2.15523557878e-05 2.30766318823e-05 0.00133450827087)
(1.92068054424e-05 2.45544630817e-05 0.00136210707827)
(1.66517165331e-05 2.56425953293e-05 0.00138335013443)
(1.3736837435e-05 2.65377367804e-05 0.00139972421968)
(1.05468641172e-05 2.72303639167e-05 0.00141183302939)
(7.15189630421e-06 2.77240829561e-05 0.00142014968709)
(3.62020902125e-06 2.80202583265e-05 0.00142500880639)
(1.99882457206e-08 2.81194153645e-05 0.00142661080838)
(-3.58044034859e-06 2.80216458784e-05 0.00142502331867)
(-7.11274994089e-06 2.7726876713e-05 0.00142017916247)
(-1.05087651477e-05 2.72345991075e-05 0.00141187797481)
(-1.37002489192e-05 2.65434523894e-05 0.00139978438568)
(-1.66171328901e-05 2.56497996103e-05 0.00138342234042)
(-1.91749525357e-05 2.45634212357e-05 0.0013621970514)
(-2.1524167486e-05 2.30868585712e-05 0.00133460982093)
(-4.02544740629e-08 -7.22674663447e-08 5.2491048555e-05)
(-1.96664398342e-08 -9.91549993309e-08 5.4990506767e-05)
(-7.35008415064e-09 -1.15725971244e-07 5.71806959505e-05)
(2.10573660892e-09 -1.26730841209e-07 5.90388382461e-05)
(6.79938912795e-09 -1.32995169778e-07 6.05289071695e-05)
(7.52740268998e-09 -1.36182196768e-07 6.16184308629e-05)
(5.02010422989e-09 -1.37512449016e-07 6.22836184259e-05)
(6.80107671777e-10 -1.37820745161e-07 6.25093350452e-05)
(-3.68613178232e-09 -1.3740998762e-07 6.22841615294e-05)
(-6.26906179933e-09 -1.35979143204e-07 6.16195300715e-05)
(-5.64579328681e-09 -1.32691918098e-07 6.05305960013e-05)
(-1.02149734772e-09 -1.26322650912e-07 5.90412068627e-05)
(8.32876317991e-09 -1.15282224565e-07 5.7183979522e-05)
(2.04846313174e-08 -9.86707022387e-08 5.49954175627e-05)
(4.08408278251e-08 -7.18340281376e-08 5.2499795113e-05)
(-1.61110411743e-08 -8.31757550069e-08 0.000158139529132)
(3.40196737302e-08 -1.2759689716e-07 0.00016558107293)
(6.09465049665e-08 -1.49611414156e-07 0.000172113620562)
(7.50226197259e-08 -1.58504699577e-07 0.000177652182522)
(7.34495002482e-08 -1.57828792398e-07 0.000182091421767)
(5.85305743176e-08 -1.53010451952e-07 0.000185336643055)
(3.31982548448e-08 -1.48173546895e-07 0.000187317011641)
(2.08334781752e-09 -1.46120826657e-07 0.000187986836296)
(-2.90984272658e-08 -1.47880047409e-07 0.000187318649068)
(-5.46239233717e-08 -1.52427712636e-07 0.000185339960019)
(-6.9819566765e-08 -1.56962580331e-07 0.000182096526185)
(-7.16492364233e-08 -1.57362056676e-07 0.000177659350832)
(-5.79089515941e-08 -1.48342347174e-07 0.00017212355458)
(-3.14599092976e-08 -1.2620741296e-07 0.000165595864536)
(1.79738751681e-08 -8.18863678417e-08 0.000158164450771)
(1.23066383349e-07 4.79311866202e-08 0.000263428735203)
(1.91493314613e-07 2.1326369801e-08 0.00027572659908)
(2.20939999906e-07 2.35969767371e-08 0.000286521745276)
(2.24535917502e-07 4.25953723593e-08 0.000295667623703)
(1.99448584403e-07 7.10198379274e-08 0.000302993219762)
(1.49931841259e-07 9.91904263862e-08 0.000308345957911)
(8.18027265389e-08 1.19574040022e-07 0.000311610565096)
(3.49178326631e-09 1.27129740841e-07 0.000312712669471)
(-7.49161374559e-08 1.2002888508e-07 0.000311613251285)
(-1.43326270479e-07 1.00095110151e-07 0.00030835140475)
(-1.93260834146e-07 7.23672333382e-08 0.000303001610613)
(-2.18799336701e-07 4.43609488013e-08 0.000295679402971)
(-2.15784050253e-07 2.55982305867e-08 0.000286537989741)
(-1.87101069632e-07 2.35183959836e-08 0.00027575044338)
(-1.19812605689e-07 5.00483548591e-08 0.000263467788313)
(4.17170256889e-07 3.61762322807e-07 0.000367950935411)
(4.93287324401e-07 3.93620258687e-07 0.000384958066481)
(5.10961814529e-07 4.58135362198e-07 0.000399869405068)
(4.85004595089e-07 5.38452758626e-07 0.000412488309449)
(4.1294706564e-07 6.22255352922e-07 0.000422585275674)
(3.01753239378e-07 6.94445577262e-07 0.000429957205729)
(1.61250721369e-07 7.43165686536e-07 0.000434449979833)
(4.90345981145e-09 7.6055445948e-07 0.000435964545553)
(-1.51565927256e-07 7.43780851701e-07 0.000434453622433)
(-2.92423602393e-07 6.95666436924e-07 0.000429964598039)
(-4.0416294561e-07 6.24064819715e-07 0.000422596669357)
(-4.76869423251e-07 5.40806023353e-07 0.000412504277311)
(-5.03662461872e-07 4.60841168972e-07 0.00039989126852)
(-4.87023384398e-07 3.96603277746e-07 0.000384989632035)
(-4.1243523432e-07 3.64719768078e-07 0.000368001325633)
(8.51982162866e-07 8.3748839732e-07 0.000471210065117)
(9.25700975712e-07 9.59254987764e-07 0.000492699774031)
(9.1809007104e-07 1.11596273033e-06 0.000511498252336)
(8.45086272577e-07 1.28373330513e-06 0.000527379415498)
(7.04799149111e-07 1.44427372478e-06 0.000540067468731)
(5.07590732514e-07 1.57628957728e-06 0.000549320164952)
(2.68247839344e-07 1.66304710646e-06 0.000554953640494)
(6.31340493982e-09 1.69353717779e-06 0.000556850446067)
(-2.5576603949e-07 1.66381870981e-06 0.000554958160788)
(-4.95532401509e-07 1.57781661751e-06 0.000549329339369)
(-6.93406553621e-07 1.44652467674e-06 0.00054008159562)
(-8.34533501002e-07 1.2866447703e-06 0.00052739913391)
(-9.08621374427e-07 1.11934259033e-06 0.000511524980694)
(-9.17533575304e-07 9.6301735948e-07 0.000492737734906)