/*--------------------------------*- C++ -*----------------------------------*\
  =========                 |
  \\      /  F ield         | OpenFOAM: The Open Source CFD Toolbox
   \\    /   O peration     | Website:  https://openfoam.org
    \\  /    A nd           | Version:  7
     \\/     M anipulation  |
\*---------------------------------------------------------------------------*/
FoamFile
{
    version     2.0;
    format      ascii;
    class       surfaceScalarField;
    location    "0.86";
    object      phi;
}
// * * * * * * * * * * * * * * * * * * * * * * * * * * * * * * * * * * * * * //

dimensions      [0 3 -1 0 0 0 0];

internalField   nonuniform List<scalar> 
65775
(
2.72754126686e-11
4.19332790058e-09
6.92732960048e-10
-2.32047281262e-13
4.04163030511e-11
4.3872081085e-09
7.66894575813e-10
4.73801785117e-11
4.55152489944e-09
8.37486592153e-10
4.61901525233e-11
4.69333674293e-09
9.00950400995e-10
3.83294938628e-11
4.80606488358e-09
9.54030590664e-10
2.51549725302e-11
4.88846230164e-09
9.94076197073e-10
8.62216134765e-12
4.94024988429e-09
1.0193502906e-09
-9.08896981279e-12
4.95995524261e-09
1.02842963459e-09
-2.55962484955e-11
4.94039202641e-09
1.01935148811e-09
-3.87200026458e-11
4.88874088111e-09
9.94078452201e-10
-4.64954350635e-11
4.80647194615e-09
9.54033447402e-10
-4.75762949181e-11
4.69382313732e-09
9.00953290299e-10
-4.04724779823e-11
4.552052925e-09
8.37488880422e-10
-2.72203285751e-11
4.38766023255e-09
7.66893520233e-10
4.19359018531e-09
6.92717738225e-10
-1.22931546929e-13
7.09367331178e-11
7.08871178181e-09
1.71461527403e-09
-5.51832887951e-13
1.16188495164e-10
7.38594861428e-09
1.88949844096e-09
1.3683209982e-10
7.63712964867e-09
2.05453110162e-09
1.34523824742e-10
7.85008196261e-09
2.20185389764e-09
1.1193844744e-10
8.01828804595e-09
2.32433686248e-09
7.3602419384e-11
8.14038097067e-09
2.41632775181e-09
2.52791994307e-11
8.21706004387e-09
2.47422962304e-09
-2.64252408866e-11
8.24649646739e-09
2.49501356929e-09
-7.46852576892e-11
8.21738183335e-09
2.47423045807e-09
-1.12893281749e-10
8.14101153461e-09
2.41632956128e-09
-1.35275225874e-10
8.01920146316e-09
2.32433893622e-09
-1.37313427233e-10
7.85119129081e-09
2.20185550164e-09
-1.16348931535e-10
7.63832387658e-09
2.05453118054e-09
-7.08291310788e-11
7.38701223679e-09
1.88949034942e-09
7.08941664368e-09
1.71457587909e-09
-2.99250557797e-13
1.06390523054e-10
8.97328564047e-09
2.45779921547e-09
-7.60154358282e-13
1.77622917564e-10
9.31137637572e-09
2.70352859031e-09
2.09122001781e-10
9.59779426181e-09
2.93390695659e-09
2.05518421271e-10
9.83511620442e-09
3.13851621339e-09
1.708541451e-10
1.00211476157e-08
3.30790335776e-09
1.12264714318e-10
1.01550244977e-08
3.4347088395e-09
3.85727334528e-11
1.02390133699e-08
3.51433691349e-09
-4.01898096643e-11
1.02715902831e-08
3.54286795445e-09
-1.13790757115e-10
1.02394608916e-08
3.5143375708e-09
-1.72196111874e-10
1.01558983817e-08
3.43470989276e-09
-2.06576214134e-10
1.00224061282e-08
3.30790400003e-09
-2.09803866786e-10
9.83665131323e-09
3.13851606798e-09
-1.77873529239e-10
9.59944156129e-09
2.93390525057e-09
-1.06273721453e-10
9.3128723579e-09
2.70351701726e-09
8.97433460998e-09
2.45774712269e-09
-4.31993639128e-13
1.36165287518e-10
1.00613276085e-08
2.99229121239e-09
-8.92236834405e-13
2.27652157326e-10
1.03984740915e-08
3.28832421611e-09
2.67962278965e-10
1.06848075106e-08
3.56406189027e-09
2.62930468513e-10
1.09160677574e-08
3.80771594751e-09
2.18297748839e-10
1.1095433417e-08
4.00858488347e-09
1.43302298561e-10
1.12231694755e-08
4.15847599365e-09
4.92450301175e-11
1.13031852195e-08
4.2523716482e-09
-5.11816925562e-11
1.13346235632e-08
4.28594249315e-09
-1.45128197028e-10
1.13037046494e-08
4.25237214063e-09
-2.19900665359e-10
1.12241825018e-08
4.15847681389e-09
-2.64196189446e-10
1.10968842979e-08
4.00858571589e-09
-2.68789658882e-10
1.09178380392e-08
3.80771675825e-09
-2.27985142287e-10
1.06867135926e-08
3.56406229317e-09
-1.36074010801e-10
1.04002370641e-08
3.28831589957e-09
1.00626452973e-08
2.99224114072e-09
-5.38229191963e-13
1.60540355422e-10
1.0529699703e-08
3.35528550732e-09
-9.70593962935e-13
2.67961211053e-10
1.08389874172e-08
3.68568029885e-09
3.15337294177e-10
1.11027585247e-08
3.99134877676e-09
3.08981145477e-10
1.13097069553e-08
4.26001615176e-09
2.56236639595e-10
1.14679872738e-08
4.48054781168e-09
1.68065693628e-10
1.15792559235e-08
4.64456166194e-09
5.77618509618e-11
1.16488202348e-08
4.74703484242e-09
-5.9908819538e-11
1.16766103107e-08
4.78358070631e-09
-1.70088411264e-10
1.16493712396e-08
4.74703561345e-09
-2.58011355262e-10
1.15803277833e-08
4.64456335144e-09
-3.10386743647e-10
1.14695173432e-08
4.48055058895e-09
-3.16271790375e-10
1.13115736379e-08
4.26002060114e-09
-2.68371314254e-10
1.11047817447e-08
3.99135522989e-09
-1.60495809006e-10
1.08408851061e-08
3.68568107119e-09
1.05311870046e-08
3.3552475154e-09
-6.26902383946e-13
1.80328680086e-10
1.05252266789e-08
3.5759994443e-09
-1.00837464513e-12
3.00051822325e-10
1.07912154766e-08
3.9283645033e-09
3.52875429183e-10
1.10198269038e-08
4.25208864966e-09
3.45288662189e-10
1.11932036708e-08
4.53505252602e-09
2.86040138876e-10
1.13234280361e-08
4.76628453551e-09
1.87471331266e-10
1.14134872745e-08
4.93766433731e-09
6.44389582767e-11
1.14696572623e-08
5.04444055492e-09
-6.67115642531e-11
1.14925923176e-08
5.08240999778e-09
-1.89612164208e-10
1.14702026281e-08
5.04444208043e-09
-2.87919446574e-10
1.14145471608e-08
4.93766787712e-09
-3.467844871e-10
1.13249370629e-08
4.76629078612e-09
-3.53888928726e-10
1.11950454036e-08
4.53506275422e-09
-3.00537317248e-10
1.10218332724e-08
4.25210399904e-09
-1.80348117422e-10
1.07931345118e-08
3.92837798687e-09
1.05267955346e-08
3.57597825149e-09
-7.00578749969e-13
1.96384754343e-10
1.01695498842e-08
3.67877341342e-09
-1.01634976416e-12
3.25332668325e-10
1.03856116639e-08
4.04367099181e-09
3.8212100548e-10
1.05737468591e-08
4.37655050592e-09
3.73356004305e-10
1.07106927278e-08
4.66588386687e-09
3.08961064132e-10
1.08111414266e-08
4.90126364449e-09
2.02349598839e-10
1.08791508103e-08
5.07511554705e-09
6.95607136811e-11
1.09214495156e-08
5.18311530014e-09
-7.18947197099e-11
1.09392431959e-08
5.2213888109e-09
-2.04549216509e-10
1.09219623958e-08
5.18311789679e-09
-3.10895782423e-10
1.08801468236e-08
5.07512154769e-09
-3.7490689296e-10
1.08125571829e-08
4.90127425061e-09
-3.83195730662e-10
1.07124226906e-08
4.66590101541e-09
-3.25891343975e-10
1.05756432434e-08
4.3765761243e-09
-1.96481786972e-10
1.03874544165e-08
4.04369847712e-09
1.01711136903e-08
3.67877004184e-09
-7.65423499037e-13
2.09304349818e-10
9.56281981063e-09
3.68450259198e-09
-1.00097194401e-12
3.44926894356e-10
9.72869605096e-09
4.05499440829e-09
4.0441385845e-10
9.8761483401e-09
4.39063881802e-09
3.94526974925e-10
9.97806114708e-09
4.68076198821e-09
3.26134897238e-10
1.00504552745e-08
4.91575691675e-09
2.13455667122e-10
1.0098089721e-08
5.08874286032e-09
7.33862854399e-11
1.01276247877e-08
5.1958814609e-09
-7.57343748191e-11
1.01405894634e-08
5.23369813381e-09
-2.15671006742e-10
1.01280845693e-08
5.19588521795e-09
-3.28090506143e-10
1.00989820466e-08
5.08875144864e-09
-3.96109592859e-10
1.00517235147e-08
4.91577197953e-09
-4.05539111855e-10
9.97961338017e-09
4.68078606155e-09
-3.45559977491e-10
9.87786202141e-09
4.39067448373e-09
-2.09489971842e-10
9.73038707055e-09
4.0550349906e-09
9.56431021418e-09
3.68451537658e-09
-8.23193508325e-13
2.19498706446e-10
8.78668233057e-09
3.61129412317e-09
-9.68701386713e-13
3.59732687843e-10
8.90631111425e-09
3.98252287856e-09
4.2091220791e-10
9.01613947067e-09
4.31660857635e-09
4.1000271438e-10
9.08697862669e-09
4.60385563852e-09
3.38590096954e-10
9.13506895406e-09
4.83556447714e-09
2.21474725794e-10
9.16544191682e-09
5.00559286266e-09
7.61508736161e-11
9.18422197479e-09
5.11057827984e-09
-7.84808646488e-11
9.19302028441e-09
5.14746241468e-09
-2.23677238204e-10
9.18461557685e-09
5.11058303467e-09
-3.40544583945e-10
9.16620575685e-09
5.00560364505e-09
-4.11604031894e-10
9.13615539029e-09
4.83558327956e-09
-4.2208348467e-10
9.08831299599e-09
4.60388548569e-09
-3.60443179702e-10
9.01762398814e-09
4.31665251434e-09
-2.19780293026e-10
8.90779906223e-09
3.98257370502e-09
8.78803621696e-09
3.61131935928e-09
-8.7706892489e-13
2.27265284816e-10
7.90683625959e-09
3.47478731859e-09
-9.25588696112e-13
3.70492982255e-10
7.98653933622e-09
3.84357424621e-09
4.32650875202e-10
8.06358307467e-09
4.17341456585e-09
4.20888039405e-10
8.10860534804e-09
4.45560917467e-09
3.47276967922e-10
8.13714180049e-09
4.6823809534e-09
2.27037919145e-10
8.15402732476e-09
4.8483036298e-09
7.80707204609e-11
8.16446150091e-09
4.95043917116e-09
-8.03635026519e-11
8.16992156706e-09
4.98612911633e-09
-2.29211273364e-10
8.16478188097e-09
4.95044450021e-09
-3.49218970811e-10
8.15464966358e-09
4.84831567677e-09
-4.22502627248e-10
8.13802845731e-09
4.68240194429e-09
-4.33868624588e-10
8.10969967479e-09
4.45564248638e-09
-3.71284497076e-10
8.06481266233e-09
4.17346351984e-09
-2.27650519482e-10
7.98779130387e-09
3.84363076898e-09
7.90801666218e-09
3.47481971969e-09
-9.2868530895e-13
2.32803573226e-10
6.97542785668e-09
3.2883529001e-09
-8.75527157771e-13
3.77852119278e-10
7.02234916557e-09
3.6528231354e-09
4.4061300433e-10
7.07209562254e-09
3.97696897988e-09
4.28238864292e-10
7.09702174175e-09
4.25303023676e-09
3.53089446756e-10
7.11109138566e-09
4.47411152376e-09
2.30728319278e-10
7.1184074409e-09
4.63544518389e-09
7.93436124342e-11
7.12296437055e-09
4.73444924837e-09
-8.15912524027e-11
7.1259521178e-09
4.76883274243e-09
-2.32866401496e-10
7.12321027021e-09
4.73445446831e-09
-3.55016218985e-10
7.11888526461e-09
4.63545702821e-09
-4.2986741992e-10
7.11177461205e-09
4.47413230725e-09
-4.41880327755e-10
7.09787028919e-09
4.25306354431e-09
-3.78728487966e-10
7.07306049547e-09
3.9770182896e-09
-2.33296511481e-10
7.02334797843e-09
3.65287936716e-09
6.97640700243e-09
3.28838588119e-09
-9.80488765756e-13
2.36212800172e-10
6.03323529054e-09
3.06327124496e-09
-8.19241018395e-13
3.82514141886e-10
6.05384574578e-09
3.42252735824e-09
4.45890796619e-10
6.08176207277e-09
3.74041778092e-09
4.33142502595e-10
6.09241918824e-09
4.01001398831e-09
3.5688337176e-10
6.09708337283e-09
4.22524133837e-09
2.330769378e-10
6.09856111897e-09
4.38192744713e-09
8.01454193513e-11
6.09953608525e-09
4.4777797002e-09
-8.23488756002e-11
6.10086860643e-09
4.51083896645e-09
-2.35182037501e-10
6.09970998159e-09
4.47778388464e-09
-3.58798342712e-10
6.09890068358e-09
4.38193711014e-09
-4.34789890993e-10
6.09757014446e-09
4.22525869301e-09
-4.47212265265e-10
6.09302886346e-09
4.01004267776e-09
-3.83478294551e-10
6.08246495063e-09
3.74046148458e-09
-2.36815380738e-10
6.0545850401e-09
3.42257624073e-09
6.03399328444e-09
3.06329731908e-09
-1.03373634837e-12
2.37777695173e-10
5.11135936631e-09
2.80892704178e-09
-7.58596110439e-13
3.8577418672e-10
5.11002193428e-09
3.16279211098e-09
4.49953976335e-10
5.12179195563e-09
3.47446295109e-09
4.36741575784e-10
5.12416177312e-09
3.73771848233e-09
3.59410869531e-10
5.1241814852e-09
3.94726382834e-09
2.3450111099e-10
5.12307417822e-09
4.09947475132e-09
8.06088668523e-11
5.12240727525e-09
4.19229390091e-09
-8.27759738023e-11
5.12277874463e-09
4.2240622851e-09
-2.36580551811e-10
5.12251597708e-09
4.19229595164e-09
-3.61322152169e-10
5.12328639279e-09
4.09947987415e-09
-4.38414446005e-10
5.12448735131e-09
3.94727387277e-09
-4.51334215811e-10
5.12454791534e-09
3.73773693328e-09
-3.86827751571e-10
5.12224520379e-09
3.47449394739e-09
-2.38489625751e-10
5.11050687531e-09
3.16282612178e-09
5.11188717628e-09
2.80893912804e-09
-1.08627351108e-12
2.39356114523e-10
4.23133232929e-09
2.53302418082e-09
-6.96437182404e-13
3.90352618221e-10
4.21074362431e-09
2.88188139931e-09
4.54506264825e-10
4.21380645999e-09
3.18771098063e-09
4.3976773553e-10
4.21376843837e-09
3.44495693669e-09
3.60925886298e-10
4.21297500728e-09
3.64912943149e-09
2.35078616873e-10
4.21167734421e-09
3.79712581536e-09
8.0745971163e-11
4.21077372479e-09
3.88708210545e-09
-8.28879833648e-11
4.21071906097e-09
3.91761326786e-09
-2.37143546331e-10
4.21082519998e-09
3.88708094044e-09
-3.62842429753e-10
4.21177872898e-09
3.79712405457e-09
-4.41472684527e-10
4.21312219729e-09
3.64912819395e-09
-4.55946993012e-10
4.21395658174e-09
3.44495907028e-09
-3.91493023004e-10
4.21403179694e-09
3.18772123855e-09
-2.40172888849e-10
4.21098924262e-09
2.88189297465e-09
4.23164336915e-09
2.53301727017e-09
-1.13818442393e-12
2.51807568865e-10
2.24233111572e-09
-6.27807369432e-13
3.39706741011e-09
4.02953421491e-10
2.58702284307e-09
3.37280075546e-09
4.62348580398e-10
2.88727594517e-09
3.37621102729e-09
4.43257405352e-10
3.13872793726e-09
3.37752968911e-09
3.61830851793e-10
3.33773506792e-09
3.37779367173e-09
2.34966322685e-10
3.48169295285e-09
3.37752439828e-09
8.06034365463e-11
3.56890075049e-09
3.37719925008e-09
-8.27324484272e-11
3.5982311996e-09
3.37706584838e-09
-2.37026975577e-10
3.5688958589e-09
3.37720361691e-09
-3.6376018938e-10
3.48168317358e-09
3.37753286676e-09
-4.44997795136e-10
3.33772047219e-09
3.37780705893e-09
-4.63849485422e-10
3.13870989777e-09
3.37754829142e-09
-4.04173174305e-10
2.88725941196e-09
3.37623817122e-09
-2.52716477155e-10
2.58700152717e-09
3.37283279594e-09
2.24230992138e-09
-1.18231855688e-12
3.39717468187e-09
-6.85599329554e-12
2.82197868652e-10
4.17280039199e-10
1.3881096809e-13
-8.28971664303e-12
3.08802410358e-10
4.59579792164e-10
-8.43319672401e-12
3.38114025667e-10
4.99670309326e-10
-7.73729332535e-12
3.64747103649e-10
5.35680023157e-10
-6.19951960364e-12
3.86931519592e-10
5.6576155605e-10
-3.96338733896e-12
4.03569501752e-10
5.88431641578e-10
-1.24547733382e-12
4.13996872094e-10
6.02733853284e-10
1.63554984532e-12
4.17709323047e-10
6.07882067524e-10
4.31816022531e-12
4.13940863348e-10
6.02733784472e-10
6.48234726457e-12
4.03466446924e-10
5.88431369188e-10
7.91789087294e-12
3.86807246559e-10
5.65760888341e-10
8.51204544136e-12
3.64643621139e-10
5.35678482104e-10
8.26990106494e-12
3.38022248068e-10
4.99666840858e-10
6.7845781438e-12
3.08763602322e-10
4.59571509198e-10
2.82152299947e-10
4.17257534551e-10
4.86204269606e-14
-1.00803393766e-11
8.07192787662e-10
1.19942230282e-09
3.1415112264e-13
-1.16727562936e-11
8.76383166783e-10
1.32363196049e-09
-1.09307477856e-11
9.50718577079e-10
1.44142325814e-09
-9.3005587509e-12
1.01803046946e-09
1.5472350897e-09
-7.02393595731e-12
1.07364172422e-09
1.63565108305e-09
-4.26335703066e-12
1.11506499313e-09
1.70230248828e-09
-1.17231011011e-12
1.14094354855e-09
1.74432945702e-09
2.0277613506e-12
1.15017765985e-09
1.75940329637e-09
5.03814442409e-12
1.140834176e-09
1.74433083793e-09
7.63746536978e-12
1.11486313342e-09
1.70230455368e-09
9.68978723997e-12
1.07339226866e-09
1.63565291662e-09
1.10873389937e-11
1.01780657762e-09
1.54723489203e-09
1.16215044821e-11
9.50534694873e-10
1.44141778796e-09
9.91163027316e-12
8.76281847717e-10
1.3236127076e-09
8.07092669919e-10
1.19936810183e-09
1.10044609329e-13
-6.43098373728e-12
1.39790062091e-09
1.87314241902e-09
4.08541680789e-13
-5.45264459382e-12
1.50907325588e-09
2.06997841699e-09
-2.89860164825e-12
1.6260354533e-09
2.25624668362e-09
-7.54609701152e-13
1.73141229399e-09
2.42325864382e-09
5.00018564393e-13
1.81794351296e-09
2.56260900588e-09
8.95573362074e-13
1.88203738473e-09
2.6675392865e-09
7.13837443189e-13
1.92196189705e-09
2.73361653883e-09
3.29945379069e-13
1.93622703471e-09
2.75724966145e-09
4.60348633788e-14
1.92183670687e-09
2.73361889905e-09
2.39533303043e-13
1.88180689069e-09
2.6675435238e-09
1.21633099349e-12
1.81765917929e-09
2.56261384744e-09
3.06683093904e-12
1.73115448362e-09
2.42326124678e-09
5.36664524593e-12
1.62583571946e-09
2.25624219981e-09
6.19614370774e-12
1.50895052734e-09
2.06995472752e-09
1.39777308826e-09
1.87307043721e-09
1.30404581707e-13
1.69672973023e-12
1.96032301807e-09
2.42776391875e-09
4.40294115561e-13
7.29895317401e-12
2.10609018667e-09
2.68581558851e-09
1.22545078935e-11
2.25620496546e-09
2.9291325836e-09
1.44824369263e-11
2.39048432332e-09
3.14665305681e-09
1.34533903591e-11
2.50006262958e-09
3.32771356986e-09
9.55749671212e-12
2.58077402172e-09
3.46379639201e-09
3.75160644082e-12
2.63089636635e-09
3.54933644409e-09
-2.71033699569e-12
2.64882246094e-09
3.57984570768e-09
-8.62253094093e-12
2.63077847364e-09
3.54934002266e-09
-1.27266550999e-11
2.58055697273e-09
3.46380305541e-09
-1.40402596395e-11
2.49979399231e-09
3.3277217032e-09
-1.21156504069e-11
2.39023499847e-09
3.14665962909e-09
-7.42184554106e-12
2.25601483474e-09
2.9291322627e-09
-1.97324684377e-12
2.10596439666e-09
2.68579451653e-09
1.96017825285e-09
2.42768882617e-09
1.15783257269e-13
1.26990668722e-11
2.43620066556e-09
2.86631225539e-09
4.31195799089e-13
2.41330103733e-11
2.60637661248e-09
3.17405144168e-09
3.17956828246e-11
2.77723853076e-09
3.46282658246e-09
3.37258038619e-11
2.92878198542e-09
3.71998638363e-09
2.95737608974e-11
3.05157265974e-09
3.93336918223e-09
2.02231103905e-11
3.14146561159e-09
4.09334924586e-09
7.43869911683e-12
3.19709899216e-09
4.19368908539e-09
-6.51683726491e-12
3.21700980862e-09
4.22937462532e-09
-1.94007980528e-11
3.19699702981e-09
4.19369385655e-09
-2.89447855008e-11
3.1412779582e-09
4.09335830469e-09
-3.336057095e-11
3.05133839703e-09
3.93338106806e-09
-3.17126446613e-11
2.92856087025e-09
3.71999831112e-09
-2.42954871221e-11
2.77706679663e-09
3.46283342329e-09
-1.30051882445e-11
2.60626240492e-09
3.17403880273e-09
2.43604626105e-09
2.86624472982e-09
7.71822741227e-14
2.51807637503e-11
2.79381883822e-09
3.19283190316e-09
3.95385569068e-13
4.30915149118e-11
2.97786133899e-09
3.53906193703e-09
5.35478089611e-11
3.15692894123e-09
3.86208854411e-09
5.48831257078e-11
3.31424217324e-09
4.14841949456e-09
4.71247213276e-11
3.44063967484e-09
4.38511747846e-09
3.17528345277e-11
3.53254474999e-09
4.56205670954e-09
1.13941228317e-11
3.58920170575e-09
4.67275123278e-09
-1.06562922452e-11
3.60948886183e-09
4.71199891798e-09
-3.11016561117e-11
3.58911800224e-09
4.67275707444e-09
-4.66408749812e-11
3.53239028017e-09
4.56206804856e-09
-5.46269987152e-11
3.44044426007e-09
4.38513328182e-09
-5.35372306626e-11
3.31405178902e-09
4.14843763409e-09
-4.32947306505e-11
3.15677551559e-09
3.86210465202e-09
-2.55131632779e-11
2.97774813273e-09
3.53906159443e-09
2.79366256671e-09
3.19277812212e-09
2.1779348174e-14
3.80026677117e-11
3.02102821208e-09
3.41324160131e-09
3.45860235445e-13
6.26126350266e-11
3.20938395667e-09
3.78761633961e-09
7.57912830277e-11
3.38576928958e-09
4.13464826812e-09
7.63267647636e-11
3.5390567076e-09
4.440661723e-09
6.47769662524e-11
3.66098830338e-09
4.69257309205e-09
4.3283411867e-11
3.74895820517e-09
4.88026991643e-09
1.53301126295e-11
3.8029450794e-09
4.99736376683e-09
-1.48043982198e-11
3.82228022657e-09
5.03874056537e-09
-4.28289384754e-11
3.80287724012e-09
4.99737048956e-09
-6.44595519844e-11
3.74883206238e-09
4.88028324635e-09
-7.61955363924e-11
3.6608259265e-09
4.69259259104e-09
-7.58623982158e-11
3.53889201341e-09
4.44068616494e-09
-6.28604281733e-11
3.38563097479e-09
4.13467434153e-09
-3.83592365897e-11
3.20927058079e-09
3.78762972621e-09
3.02087093026e-09
3.41320401198e-09
-4.45147126985e-14
5.03060153382e-11
3.11961306058e-09
3.53535518676e-09
2.89934380114e-13
8.15125548106e-11
3.3044460461e-09
3.92879401619e-09
9.72314992965e-11
3.46980292804e-09
4.29098138912e-09
9.68543812831e-11
3.61170786773e-09
4.60858604551e-09
8.15673957662e-11
3.7232355301e-09
4.86887765602e-09
5.41984297034e-11
3.80297646484e-09
5.06214744299e-09
1.90419339888e-11
3.85165661113e-09
5.18235244348e-09
-1.87327947462e-11
3.86908773798e-09
5.22466801185e-09
-5.39450801037e-11
3.85160060936e-09
5.18235970307e-09
-8.14208953366e-11
3.80287122018e-09
5.06216211596e-09
-9.68529258246e-11
3.72309663756e-09
4.86889996384e-09
-9.73882910476e-11
3.61155973283e-09
4.60861576279e-09
-8.18085641642e-11
3.46966898452e-09
4.29101636134e-09
-5.06874368558e-11
3.3043241517e-09
3.92881994966e-09
3.11944292331e-09
3.53533297552e-09
-1.17403251752e-13
6.14957879005e-11
3.10072126954e-09
3.56849267224e-09
2.32704112569e-13
9.8935817872e-11
3.27615649163e-09
3.97343114515e-09
1.1694510777e-10
3.42491670094e-09
4.34355949148e-09
1.15634485681e-10
3.55067691135e-09
4.66627018278e-09
9.68511528715e-11
3.64809883861e-09
4.92954262665e-09
6.4095220579e-11
3.71702758524e-09
5.1243343937e-09
2.23972661117e-11
3.7588493359e-09
5.24509845616e-09
-2.22953129225e-11
3.77381156218e-09
5.28742811892e-09
-6.40349487688e-11
3.75880087356e-09
5.24510566793e-09
-9.68702832614e-11
3.71693528416e-09
5.12434923524e-09
-1.15761205024e-10
3.64797323015e-09
4.92956596254e-09
-1.17189358859e-10
3.55053528173e-09
4.66630278592e-09
-9.92832734717e-11
3.4247780074e-09
4.34360035743e-09
-6.19057662111e-11
3.27601703604e-09
3.9734658863e-09
3.10053243664e-09
3.5684821913e-09
-1.93209348142e-13
7.1214702465e-11
2.98123560518e-09
3.52292272992e-09
1.78330868879e-13
1.14318653541e-10
3.14328282485e-09
3.9333981732e-09
1.34342058496e-10
3.27242627297e-09
4.30594047281e-09
1.32165774045e-10
3.3796217137e-09
4.62889439848e-09
1.10264512914e-10
3.46125191649e-09
4.89116950993e-09
7.27583565841e-11
3.51832110662e-09
5.08453962777e-09
2.53273283552e-11
3.55270361727e-09
5.2040225579e-09
-2.54162610575e-11
3.56497937939e-09
5.24569735632e-09
-7.28768447383e-11
3.55265925358e-09
5.20402883839e-09
-1.10438935083e-10
3.51823525938e-09
5.08455282769e-09
-1.32415515815e-10
3.46113108755e-09
4.89119106067e-09
-1.34673522987e-10
3.3794774231e-09
4.62892601737e-09
-1.14720724241e-10
3.27227282885e-09
4.30598228292e-09
-7.16565503895e-11
3.1431151868e-09
3.93343565523e-09
2.98101463424e-09
3.52291790847e-09
-2.6982405643e-13
7.93062960302e-11
2.78091980758e-09
3.40928193168e-09
1.28117570996e-13
1.27364465256e-10
2.92720750076e-09
3.82088695162e-09
1.4914976737e-10
3.0357440139e-09
4.19191138393e-09
1.46265428962e-10
3.12383627089e-09
4.51173807117e-09
1.21711020843e-10
3.18962935761e-09
4.77031493993e-09
8.0147675483e-11
3.23504450849e-09
4.96029811953e-09
2.78226547854e-11
3.26219569638e-09
5.07728212597e-09
-2.80835841756e-11
3.27185150624e-09
5.11785600921e-09
-8.04281461392e-11
3.26215313462e-09
5.07728628165e-09
-1.22028150957e-10
3.23496087175e-09
4.96030721407e-09
-1.46631184569e-10
3.18950786629e-09
4.77033084953e-09
-1.49567022313e-10
3.1236836124e-09
4.51176339206e-09
-1.2782375525e-10
3.03556997653e-09
4.19194742635e-09
-7.97839752794e-11
2.92700509125e-09
3.82091921593e-09
2.78065857057e-09
3.40927477579e-09
-3.45146942394e-13
8.57722961007e-11
2.5203236462e-09
3.23805582858e-09
8.15403553654e-14
1.38047071435e-10
2.64968749715e-09
3.64781105376e-09
1.61452842592e-10
2.73799189223e-09
4.01479829314e-09
1.58107918831e-10
2.80782641778e-09
4.32939489211e-09
1.31381618527e-10
2.85898829631e-09
4.58262446021e-09
8.64042722309e-11
2.89390770672e-09
4.76804534592e-09
2.99348204881e-11
2.91462983849e-09
4.88180985854e-09
-3.03484937873e-11
2.92194424425e-09
4.92101470897e-09
-8.6829268384e-11
2.91458818284e-09
4.8818104485e-09
-1.31827676937e-10
2.89382430787e-09
4.76804734168e-09
-1.58580917653e-10
2.85886351916e-09
4.58263000779e-09
-1.619523438e-10
2.80766297897e-09
4.3294073923e-09
-1.38564249068e-10
2.73779532805e-09
4.01482048502e-09
-8.62881510754e-11
2.64945002187e-09
3.64782901287e-09
2.52002277598e-09
3.23803724445e-09
-4.18084050824e-13
9.07959327328e-11
2.21928767621e-09
3.01916487826e-09
3.95052368469e-14
1.46770138127e-10
2.33115729462e-09
3.42537795682e-09
1.71887800152e-10
2.40037069372e-09
3.78699089643e-09
1.68366229544e-10
2.4538431005e-09
4.09523952604e-09
1.3983072558e-10
2.4925347348e-09
4.34225939314e-09
9.18847576019e-11
2.51880539125e-09
4.52252303926e-09
3.17849453103e-11
2.534302149e-09
4.63271012366e-09
-3.2332250038e-11
2.5397017692e-09
4.67040808328e-09
-9.24366677297e-11
2.53426076705e-09
4.6327056386e-09
-1.40390846481e-10
2.518721645e-09
4.52251476815e-09
-1.68935280842e-10
2.49240720066e-09
4.34224948545e-09
-1.72462553089e-10
2.45367015105e-09
4.09523201067e-09
-1.47341477291e-10
2.40015336974e-09
3.78699038575e-09
-9.13480301448e-11
2.3308862273e-09
3.42537255869e-09
2.21894906544e-09
3.01912674285e-09
-4.84116233276e-13
9.4646419124e-11
1.8960244913e-09
2.76166843446e-09
1.24097964849e-15
1.5442121062e-10
1.98940253703e-09
3.16388175508e-09
1.81723981474e-10
2.04112094913e-09
3.51967311151e-09
1.78238194896e-10
2.08118771634e-09
3.82110797806e-09
1.47979326049e-10
2.11035413765e-09
4.0615724029e-09
9.71565128551e-11
2.13027965024e-09
4.23646813544e-09
3.35674050442e-11
2.14200345045e-09
4.34296136886e-09
-3.42294002036e-11
2.14599207384e-09
4.37910245925e-09
-9.78170481669e-11
2.14196213568e-09
4.34295058166e-09
-1.48636400783e-10
2.13019508847e-09
4.23644697182e-09
-1.78889080637e-10
2.11022317656e-09
4.06154261254e-09
-1.82362891347e-10
2.08100668672e-09
3.82107366566e-09
-1.55039130989e-10
2.04088746164e-09
3.51964095968e-09
-9.52289388786e-11
1.98910314825e-09
3.16384488781e-09
1.89565588329e-09
2.76160609469e-09
-5.43981299639e-13
9.16148565381e-11
2.47338298931e-09
-3.59396169118e-14
1.57341411781e-09
1.60040778163e-10
2.87258491329e-09
1.6354282169e-09
1.91398053599e-10
3.222417777e-09
1.67463260488e-09
1.88573999471e-10
3.51694500043e-09
1.705798528e-09
1.56715191565e-10
3.75088925053e-09
1.72905789712e-09
1.02883940661e-10
3.92051909564e-09
1.74528024916e-09
3.55223392779e-11
4.02340517176e-09
1.75484942941e-09
-3.62793252396e-11
4.05801385029e-09
1.75799866626e-09
-1.03633649207e-10
4.02338788721e-09
1.75480558286e-09
-1.57450015907e-10
3.92048456595e-09
1.74519194551e-09
-1.8928719961e-10
3.750838454e-09
1.72892123524e-09
-1.92082158081e-10
3.51688104642e-09
1.70560915712e-09
-1.60687948834e-10
3.22234872756e-09
1.67438318697e-09
-9.22136687689e-11
2.87250606571e-09
1.63510490052e-09
2.4733045549e-09
-5.88671730485e-13
1.57301825206e-09
3.8462490017e-12
-4.24252604142e-12
4.17634511212e-10
-1.3515007188e-14
6.66703417496e-12
-5.56655046604e-12
4.6229147815e-10
8.27513067882e-12
-6.82681578939e-12
5.04849773878e-10
8.46221841329e-12
-7.78726233622e-12
5.43274185351e-10
7.22583305575e-12
-8.55130358624e-12
5.75514553087e-10
4.82128515685e-12
-9.11739875881e-12
5.9989547586e-10
1.65354159319e-12
-9.46365774626e-12
6.1530539462e-10
-1.78167107485e-12
-9.57915645376e-12
6.20845273055e-10
-4.93749428339e-12
-9.45964871494e-12
6.15305665455e-10
-7.32247102986e-12
-9.11778271378e-12
5.99895838836e-10
-8.54332872478e-12
-8.56777316441e-12
5.75514553958e-10
-8.35378499069e-12
-7.8167572186e-12
5.43272945613e-10
-6.73157495276e-12
-6.83254311572e-12
5.04845916534e-10
-3.89934595327e-12
-5.57238709291e-12
4.6228198789e-10
-4.23571569722e-12
4.17611417437e-10
-4.54956504352e-14
9.38836983303e-12
4.50577303388e-11
1.14067518931e-09
-1.62028164599e-14
1.65825249035e-11
4.88556758033e-11
1.26195452454e-09
2.07252652513e-11
5.31430442465e-11
1.37727060385e-09
2.12555397302e-11
5.77438995266e-11
1.48114736263e-09
1.81938881841e-11
6.19443763321e-11
1.56815501579e-09
1.21619607496e-11
6.52590602038e-11
1.63386925701e-09
4.1843425393e-12
6.74010456621e-11
1.67535307706e-09
-4.47386374892e-12
6.81745940553e-11
1.69022923252e-09
-1.2429047905e-11
6.74044183084e-11
1.67535383071e-09
-1.84256434265e-11
6.52525095651e-11
1.63387028458e-09
-2.14610377457e-11
6.19098682904e-11
1.56815504001e-09
-2.09250784106e-11
5.76860075764e-11
1.48114392467e-09
-1.6762781163e-11
5.31135984189e-11
1.37725971928e-09
-9.53856316038e-12
4.88414582322e-11
1.26192788002e-09
4.5056861139e-11
1.14061497399e-09
-1.21232020398e-13
1.34022635352e-11
1.53590928996e-10
1.75114551757e-09
-2.18328121458e-15
2.38730160843e-11
1.6943767086e-10
1.9388665019e-09
2.99189097743e-11
1.86335619437e-10
2.11697452062e-09
3.07172426791e-11
2.03038912027e-10
2.27713657747e-09
2.63210885046e-11
2.17773965935e-10
2.41111839268e-09
1.76137743537e-11
2.29211223867e-10
2.51221453366e-09
6.07648684148e-12
2.36516236514e-10
2.57595768644e-09
-6.44984797628e-12
2.39124101275e-10
2.59875441251e-09
-1.79648207136e-11
2.36515853657e-10
2.57595914731e-09
-2.66384714362e-11
2.29196327204e-10
2.51221666852e-09
-3.10121791966e-11
2.17725919634e-10
2.4111192186e-09
-3.02106670542e-11
2.02964181929e-10
2.27713239954e-09
-2.41476986749e-11
1.86286768212e-10
2.11695942446e-09
-1.36374161655e-11
1.69413542164e-10
1.93882861488e-09
1.53568601299e-10
1.75106041305e-09
-1.79315570284e-13
1.67095829394e-11
3.03110626593e-10
2.26145990614e-09
1.81553296617e-14
2.98538662728e-11
3.35143311818e-10
2.50692335002e-09
3.74347212937e-11
3.68667960439e-10
2.73919214909e-09
3.84396967088e-11
4.0102349903e-10
2.94763258476e-09
3.2954652305e-11
4.29185790309e-10
3.12173447477e-09
2.20695568783e-11
4.50875542548e-10
3.25294933627e-09
7.63115088138e-12
4.64652918884e-10
3.33556906927e-09
-8.04856449237e-12
4.69550673792e-10
3.36503543229e-09
-2.24698113655e-11
4.64648775612e-10
3.33557144799e-09
-3.33305751718e-11
4.5085521943e-10
3.2529530471e-09
-3.88024764123e-11
4.29134249771e-10
3.12173701694e-09
-3.77998247085e-11
4.00946002299e-10
2.94762949157e-09
-3.02066611323e-11
3.68606107217e-10
2.73917644004e-09
-1.70225285239e-11
3.35102201551e-10
2.50688121928e-09
3.03064641185e-10
2.26136339727e-09
-2.29956577479e-13
1.99039958264e-11
4.73992210243e-10
2.67543726659e-09
3.83773031409e-14
3.5455682876e-11
5.23458115151e-10
2.97015394383e-09
4.43605138693e-11
5.74474403813e-10
3.24808895212e-09
4.54948249109e-11
6.22973480961e-10
3.49687345915e-09
3.89879598983e-11
6.64751608983e-10
3.70426440211e-09
2.61141444182e-11
6.96710665875e-10
3.86032907558e-09
9.04271916452e-12
7.16918708617e-10
3.95843396883e-09
-9.49387836799e-12
7.24082916242e-10
3.99332207986e-09
-2.65542599265e-11
7.16913772262e-10
3.95843720245e-09
-3.94138649497e-11
6.96690762973e-10
3.86033435304e-09
-4.5916703493e-11
6.64704105233e-10
3.70426899418e-09
-4.47895769525e-11
6.22901794843e-10
3.49687266561e-09
-3.58758793371e-11
5.74409790262e-10
3.24807556632e-09
-2.02864939808e-11
5.23400625054e-10
2.97011326801e-09
4.73924876375e-10
2.67533928743e-09
-2.76077633844e-13
2.33683426946e-11
6.4679381059e-10
2.99657007747e-09
5.46612915937e-14
4.13025935174e-11
7.12363838293e-10
3.33219625366e-09
5.14384090372e-11
7.78994715157e-10