/*--------------------------------*- C++ -*----------------------------------*\
  =========                 |
  \\      /  F ield         | OpenFOAM: The Open Source CFD Toolbox
   \\    /   O peration     | Website:  https://openfoam.org
    \\  /    A nd           | Version:  7
     \\/     M anipulation  |
\*---------------------------------------------------------------------------*/
FoamFile
{
    version     2.0;
    format      ascii;
    class       volScalarField;
    location    "0.58";
    object      p;
}
// * * * * * * * * * * * * * * * * * * * * * * * * * * * * * * * * * * * * * //

dimensions      [0 2 -2 0 0 0 0];

internalField   nonuniform List<scalar> 
22500
(
1.8349224305e-05
1.83465209454e-05
1.83456703789e-05
1.83444360754e-05
1.8343504733e-05
1.83427833257e-05
1.83423387115e-05
1.8342186072e-05
1.83423487899e-05
1.83428032067e-05
1.83435344585e-05
1.83444742258e-05
1.83457164185e-05
1.83465688616e-05
1.83492731384e-05
1.83145924085e-05
1.8310125017e-05
1.83077820088e-05
1.83052425147e-05
1.83032511085e-05
1.83017490519e-05
1.83008275324e-05
1.83005159152e-05
1.83008385053e-05
1.83017707397e-05
1.83032833596e-05
1.83052841364e-05
1.83078316565e-05
1.83101767857e-05
1.83146450172e-05
1.82813109342e-05
1.82752250643e-05
1.82716182897e-05
1.82679392973e-05
1.82650388742e-05
1.82628673277e-05
1.82615377245e-05
1.82610894001e-05
1.82615480511e-05
1.82628877245e-05
1.82650690811e-05
1.82679783938e-05
1.82716649189e-05
1.82752741294e-05
1.82813623114e-05
1.82517025158e-05
1.82442837737e-05
1.82396868722e-05
1.82351327007e-05
1.82315374114e-05
1.8228858958e-05
1.82272215159e-05
1.82266701185e-05
1.82272307907e-05
1.82288772943e-05
1.82315644772e-05
1.82351677217e-05
1.82397289405e-05
1.82443285069e-05
1.82517515239e-05
1.82241515931e-05
1.82155951146e-05
1.82101725103e-05
1.82049215849e-05
1.82007725232e-05
1.81976954849e-05
1.81958171405e-05
1.81951854514e-05
1.81958255086e-05
1.81977120199e-05
1.82007969102e-05
1.82049531368e-05
1.8210210636e-05
1.82156359513e-05
1.82241978619e-05
1.81982823073e-05
1.81887816777e-05
1.81826816362e-05
1.81768934434e-05
1.81723168092e-05
1.81689371306e-05
1.81668769653e-05
1.81661848869e-05
1.81668844598e-05
1.8168951971e-05
1.81723386777e-05
1.81769217687e-05
1.81827158828e-05
1.81888189201e-05
1.81983260338e-05
1.81741915348e-05
1.81639495998e-05
1.81573149235e-05
1.81511405207e-05
1.81462554065e-05
1.81426623785e-05
1.81404750863e-05
1.8139741018e-05
1.8140481843e-05
1.81426757655e-05
1.81462751332e-05
1.81511661011e-05
1.81573458828e-05
1.81639835179e-05
1.8174232931e-05
1.815188575e-05
1.81410963537e-05
1.81340542121e-05
1.81276263807e-05
1.81225370726e-05
1.81188076417e-05
1.81165401566e-05
1.81157798461e-05
1.81165462814e-05
1.81188197711e-05
1.81225549721e-05
1.81276496081e-05
1.81340823336e-05
1.814112746e-05
1.81519252893e-05
1.81312887879e-05
1.81201297741e-05
1.81127914248e-05
1.81062240398e-05
1.81010199725e-05
1.80972188147e-05
1.80949104744e-05
1.80941370897e-05
1.8094916105e-05
1.80972299682e-05
1.81010364384e-05
1.81062454668e-05
1.81128173355e-05
1.81201587777e-05
1.81313268708e-05
1.81123025168e-05
1.81009356474e-05
1.809340224e-05
1.80867942153e-05
1.80815530525e-05
1.80777351848e-05
1.80754193009e-05
1.80746439567e-05
1.80754245635e-05
1.80777456163e-05
1.80815684633e-05
1.80868143122e-05
1.8093426565e-05
1.81009632255e-05
1.81123400223e-05
1.809482097e-05
1.80833932036e-05
1.80757634473e-05
1.80692029285e-05
1.80639934981e-05
1.80602066222e-05
1.80579119932e-05
1.80571443111e-05
1.80579170156e-05
1.80602165727e-05
1.80640082282e-05
1.8069222189e-05
1.8075786786e-05
1.80834200336e-05
1.80948585357e-05
1.80787145205e-05
1.80673770087e-05
1.80597609755e-05
1.80533287859e-05
1.80482119633e-05
1.80444976923e-05
1.80422495339e-05
1.8041498022e-05
1.80422544167e-05
1.80445074096e-05
1.80482263515e-05
1.80533476817e-05
1.80597839238e-05
1.80674037524e-05
1.80787526835e-05
1.80637792538e-05
1.80527658127e-05
1.80453060786e-05
1.80390731122e-05
1.80340997537e-05
1.80304942122e-05
1.80283153138e-05
1.80275876425e-05
1.80283201804e-05
1.80305038457e-05
1.80341141267e-05
1.80390920728e-05
1.80453292306e-05
1.80527931933e-05
1.80638186945e-05
1.804989895e-05
1.80395118585e-05
1.80323102483e-05
1.8026324137e-05
1.80215377494e-05
1.8018080554e-05
1.80159975654e-05
1.80153033088e-05
1.80160024484e-05
1.80180902828e-05
1.80215523445e-05
1.802634362e-05
1.80323342117e-05
1.80395406565e-05
1.80499402633e-05
1.80381931277e-05
1.80272768753e-05
1.80204136847e-05
1.80146861829e-05
1.80101583633e-05
1.80069217419e-05
1.80049829366e-05
1.80043384003e-05
1.80049878924e-05
1.80069316072e-05
1.80101732721e-05
1.80147063376e-05
1.80204390907e-05
1.80273077984e-05
1.80382349562e-05
1.40818703507e-05
1.40827612758e-05
1.40833893694e-05
1.40839606023e-05
1.40844454834e-05
1.40848146378e-05
1.40850462335e-05
1.40851223214e-05
1.40850370188e-05
1.40847969889e-05
1.40844213047e-05
1.4083933142e-05
1.40833599015e-05
1.40827331225e-05
1.40818434524e-05
1.40856821737e-05
1.40867302836e-05
1.40875182147e-05
1.40882351152e-05
1.40888421715e-05
1.40893026511e-05
1.40895908845e-05
1.40896862532e-05
1.40895813652e-05
1.40892844261e-05
1.40888172015e-05
1.40882067207e-05
1.40874884726e-05
1.40867017218e-05
1.40856554304e-05
1.40901374434e-05
1.40915050781e-05
1.40925665312e-05
1.4093542818e-05
1.40943717515e-05
1.40950012344e-05
1.40953955408e-05
1.40955272473e-05
1.40953862834e-05
1.40949834924e-05
1.40943473369e-05
1.40935146955e-05
1.40925371291e-05
1.40914763173e-05
1.40901106784e-05
1.40956599512e-05
1.40975809216e-05
1.40990901495e-05
1.41004823669e-05
1.41016659747e-05
1.41025653006e-05
1.41031286844e-05
1.41033181761e-05
1.41031198458e-05
1.410254833e-05
1.41016424543e-05
1.41004548309e-05
1.40990610656e-05
1.40975521638e-05
1.40956331037e-05
1.41027070399e-05
1.41053986399e-05
1.41075094769e-05
1.41094498469e-05
1.41110958748e-05
1.41123443616e-05
1.41131252505e-05
1.41133888035e-05
1.41131168573e-05
1.41123282341e-05
1.41110734031e-05
1.41094232625e-05
1.41074810336e-05
1.41053702764e-05
1.41026803232e-05
1.4111273766e-05
1.41148922074e-05
1.41177012966e-05
1.4120267e-05
1.41224340716e-05
1.41240726439e-05
1.41250949935e-05
1.4125440508e-05
1.4125087145e-05
1.41240575435e-05
1.41224129323e-05
1.41202417229e-05
1.41176739611e-05
1.41148643647e-05
1.41112477009e-05
1.4121142143e-05
1.41257706388e-05
1.41293161924e-05
1.41325281823e-05
1.41352268852e-05
1.41372596988e-05
1.41385243858e-05
1.41389518764e-05
1.41385171563e-05
1.4137245768e-05
1.41352073172e-05
1.41325045787e-05
1.41292904418e-05
1.41257438946e-05
1.41211170107e-05
1.4132027804e-05
1.41376790955e-05
1.41419478339e-05
1.41457787081e-05
1.41489795149e-05
1.41513806705e-05
1.41528699767e-05
1.41533731717e-05
1.41528634293e-05
1.41513680384e-05
1.41489616992e-05
1.41457570422e-05
1.41419239048e-05
1.41376538327e-05
1.41320037395e-05
1.41436298481e-05
1.41502540022e-05
1.41551910878e-05
1.41595763609e-05
1.41632198105e-05
1.41659415053e-05
1.41676243489e-05
1.41681924693e-05
1.41676185072e-05
1.41659302239e-05
1.41632038406e-05
1.41595568069e-05
1.41551692399e-05
1.41502305204e-05
1.41436072676e-05
1.41556563683e-05
1.4163151496e-05
1.41686709981e-05
1.41735207121e-05
1.41775276314e-05
1.41805080837e-05
1.4182345041e-05
1.41829645116e-05
1.41823399028e-05
1.41804981477e-05
1.41775135155e-05
1.41735033072e-05
1.41686513179e-05
1.41631299561e-05
1.41556353969e-05
1.41678392501e-05
1.41760630591e-05
1.41820576382e-05
1.41872678755e-05
1.41915488657e-05
1.41947192367e-05
1.41966667672e-05
1.41973226521e-05
1.41966622942e-05
1.41947105728e-05
1.41915365252e-05
1.41872525828e-05
1.41820401677e-05
1.41760436177e-05
1.41678201575e-05
1.41799326277e-05
1.41887156662e-05
1.41950685566e-05
1.42005339035e-05
1.42049983027e-05
1.42082887387e-05
1.42103027223e-05
1.42109798948e-05
1.4210298843e-05
1.42082812149e-05
1.42049875562e-05
1.42005205517e-05
1.41950531979e-05
1.41886984089e-05
1.41799156583e-05
1.41917043655e-05
1.42008791926e-05
1.42074816371e-05
1.42131037145e-05
1.42176636784e-05
1.42210054982e-05
1.42230424126e-05
1.42237260012e-05
1.4223039025e-05
1.42209989077e-05
1.42176542818e-05
1.42130920274e-05
1.42074681692e-05
1.42008639647e-05
1.41916894365e-05
1.42031016364e-05
1.42125365888e-05
1.42192344811e-05
1.42248894622e-05
1.42294313183e-05
1.42327365474e-05
1.42347419966e-05
1.42354134228e-05
1.42347389933e-05
1.42327306999e-05
1.42294229371e-05
1.42248791009e-05
1.42192226003e-05
1.42125233339e-05
1.42030885453e-05
1.42149841054e-05
1.42237713942e-05
1.42303060755e-05
1.42358110548e-05
1.42401656571e-05
1.42433088641e-05
1.42452068892e-05
1.42458409615e-05
1.42452042095e-05
1.42433036425e-05
1.42401581699e-05
1.42358018014e-05
1.42302956068e-05
1.4223760184e-05
1.42149728127e-05
1.48120419744e-05
1.48117494053e-05
1.48113677987e-05
1.481094839e-05
1.48105561146e-05
1.48102431841e-05
1.48100433561e-05
1.48099761196e-05
1.48100485961e-05
1.48102530122e-05
1.48105692081e-05
1.48109635313e-05
1.48113865966e-05
1.48117698564e-05
1.48120657491e-05
1.48123501508e-05
1.48120790147e-05
1.48117164946e-05
1.48113126847e-05
1.48109320416e-05
1.48106264919e-05
1.48104305298e-05
1.4810364454e-05
1.48104358535e-05
1.4810636489e-05
1.48109453761e-05
1.48113281434e-05
1.48117352048e-05
1.48120998628e-05
1.4812374062e-05
1.48129261659e-05
1.48126895661e-05
1.48123605372e-05
1.48119843193e-05
1.48116252674e-05
1.48113345893e-05
1.48111471085e-05
1.48110837333e-05
1.48111523568e-05
1.48113445009e-05
1.4811638652e-05
1.4812000054e-05
1.48123792487e-05
1.48127105017e-05
1.48129499909e-05
1.48133376618e-05
1.48131181168e-05
1.48128077079e-05
1.48124474746e-05
1.48121013797e-05
1.48118198815e-05
1.48116376781e-05
1.48115759641e-05
1.48116427788e-05
1.48118295866e-05
1.48121147007e-05
1.48124633612e-05
1.48128263505e-05
1.4813138769e-05
1.48133614517e-05
1.4813583374e-05
1.48133744227e-05
1.48130777573e-05
1.48127319733e-05
1.4812399072e-05
1.48121279141e-05
1.48119521857e-05
1.48118926317e-05
1.48119571391e-05
1.48121373835e-05
1.4812412202e-05
1.48127478168e-05
1.48130963076e-05
1.48133947718e-05
1.48136070785e-05
1.48137545933e-05
1.48135637642e-05
1.48132880368e-05
1.48129656794e-05
1.48126552153e-05
1.48124023162e-05
1.48122383893e-05
1.48121828635e-05
1.48122431595e-05
1.48124114806e-05
1.48126680523e-05
1.48129813284e-05
1.48133063127e-05
1.48135838664e-05
1.48137779799e-05
1.48139194378e-05
1.48137629425e-05
1.48135211555e-05
1.48132361117e-05
1.48129610904e-05
1.48127369294e-05
1.48125916383e-05
1.48125425132e-05
1.48125962128e-05
1.48127457484e-05
1.4812973542e-05
1.48132514413e-05
1.4813539069e-05
1.48137827367e-05
1.48139425529e-05
1.48141263933e-05
1.48140239012e-05
1.4813830765e-05
1.48135974987e-05
1.481337096e-05
1.48131857581e-05
1.48130656257e-05
1.48130251444e-05
1.48130699887e-05
1.48131942001e-05
1.48133829759e-05
1.48136124447e-05
1.4813848282e-05
1.48140433315e-05
1.48141493128e-05
1.48144103476e-05
1.48143805193e-05
1.48142494177e-05
1.48140800171e-05
1.48139124766e-05
1.48137742634e-05
1.48136843312e-05
1.48136542152e-05
1.48136884736e-05
1.48137823094e-05
1.48139240117e-05
1.4814094513e-05
1.48142665219e-05
1.48143995899e-05
1.48144330204e-05
1.48147920578e-05
1.48148491317e-05
1.48147897332e-05
1.48146919618e-05
1.48145899548e-05
1.48145035711e-05
1.48144467998e-05
1.48144280472e-05
1.48144507217e-05
1.48145112171e-05
1.4814601e-05
1.48147059912e-05
1.48148064144e-05
1.48148678755e-05
1.48148145e-05
1.48152785175e-05
1.4815429572e-05
1.4815446421e-05
1.48154231291e-05
1.48153888128e-05
1.48153556962e-05
1.48153328829e-05
1.48153257455e-05
1.4815336583e-05
1.48153629354e-05
1.48153993474e-05
1.48154366546e-05
1.48154626387e-05
1.4815447952e-05
1.48153006958e-05
1.48158614515e-05
1.48161055897e-05
1.48161985219e-05
1.48162486222e-05
1.48162806604e-05
1.48162996018e-05
1.48163098474e-05
1.48163140076e-05
1.48163133219e-05
1.48163064297e-05
1.48162906702e-05
1.48162616057e-05
1.48162142319e-05
1.4816123522e-05
1.48158832445e-05
1.4816519976e-05
1.48168517091e-05
1.48170176953e-05
1.48171367663e-05
1.48172309719e-05
1.48172985876e-05
1.48173396883e-05
1.48173543451e-05
1.48173429304e-05
1.48173049857e-05
1.48172404099e-05
1.48171491456e-05
1.48170328099e-05
1.48168691112e-05
1.48165412721e-05
1.48172773929e-05
1.48176896508e-05
1.48179029609e-05
1.48180729689e-05
1.4818214455e-05
1.4818319558e-05
1.48183844057e-05
1.48184071552e-05
1.48183874103e-05
1.48183254773e-05
1.48182232673e-05
1.48180846314e-05
1.48179173654e-05
1.4817706452e-05
1.48172979047e-05
1.48183929524e-05
1.4818636439e-05
1.48188326116e-05
1.4819013901e-05
1.48191712508e-05
1.48192903602e-05
1.48193643527e-05
1.48193901897e-05
1.48193671177e-05
1.48192958512e-05
1.48191794418e-05
1.48190248675e-05
1.48188463799e-05
1.48186529111e-05
1.48184127359e-05
1.2890809409e-05
1.28910015825e-05
1.28912400773e-05
1.28914829814e-05
1.28917032593e-05
1.28918762493e-05
1.28919864839e-05
1.2892023945e-05
1.28919849327e-05
1.28918733739e-05
1.28916996127e-05
1.28914798752e-05
1.2891238015e-05
1.28910022736e-05
1.28908107991e-05
1.28909647092e-05
1.28911578494e-05
1.2891399873e-05
1.2891647635e-05
1.28918730168e-05
1.28920505918e-05
1.28921639525e-05
1.28922024867e-05
1.28921621612e-05
1.28920472491e-05
1.2891868741e-05
1.28916437811e-05
1.28913973768e-05
1.28911580017e-05
1.2890966356e-05
1.2890944234e-05
1.28911253604e-05
1.28913577205e-05
1.28915982828e-05
1.28918190246e-05
1.28919940691e-05
1.28921062666e-05
1.28921445451e-05
1.28921046419e-05
1.28919910514e-05
1.28918152043e-05
1.28915948092e-05
1.289135566e-05
1.28911254361e-05
1.28909460883e-05
1.28909137528e-05
1.2891084941e-05
1.28913095015e-05
1.28915424608e-05
1.28917578892e-05
1.28919296209e-05
1.28920400963e-05
1.28920779372e-05
1.28920387407e-05
1.28919271263e-05
1.28917547841e-05
1.28915396899e-05
1.28913080127e-05
1.28910852594e-05
1.28909157629e-05
1.28909028773e-05
1.28910660878e-05
1.28912849917e-05
1.28915105076e-05
1.2891720282e-05
1.28918880918e-05
1.28919963618e-05
1.28920335553e-05
1.28919952273e-05
1.28918860283e-05
1.28917177463e-05
1.28915083356e-05
1.28912839439e-05
1.28910666954e-05
1.28909050585e-05
1.28908966455e-05
1.2891052505e-05
1.28912662234e-05
1.28914839097e-05
1.28916872545e-05
1.28918504292e-05
1.28919559617e-05
1.28919923312e-05
1.28919550659e-05
1.28918488178e-05
1.28916853304e-05
1.28914823535e-05
1.28912657075e-05
1.2891053256e-05
1.28908991961e-05
1.28908891573e-05
1.28910382867e-05
1.28912479998e-05
1.28914582075e-05
1.28916551605e-05
1.28918136165e-05
1.28919163068e-05
1.28919517996e-05
1.28919156298e-05
1.28918124163e-05
1.28916537873e-05
1.28914572117e-05
1.28912479945e-05
1.28910392446e-05
1.28908919969e-05
1.28908825839e-05
1.28910269884e-05
1.28912347664e-05
1.28914388511e-05
1.28916304393e-05
1.28917848796e-05
1.28918851458e-05
1.28919198863e-05
1.28918846814e-05
1.28917840856e-05
1.28916295943e-05
1.28914383958e-05
1.28912351714e-05
1.28910281597e-05
1.28908855379e-05
1.28908812621e-05
1.2891024548e-05
1.28912329236e-05
1.28914330528e-05
1.28916208825e-05
1.289177245e-05
1.28918709448e-05
1.28919051372e-05
1.28918706692e-05
1.28917720111e-05
1.28916204999e-05
1.28914330677e-05
1.28912336847e-05
1.28910258947e-05
1.28908843594e-05
1.28908901489e-05
1.28910368303e-05
1.28912482896e-05
1.28914466794e-05
1.2891632337e-05
1.28917821214e-05
1.28918794455e-05
1.28919132729e-05
1.28918793349e-05
1.28917819889e-05
1.289163235e-05
1.2891447083e-05
1.28912493268e-05
1.28910382766e-05
1.289089331e-05
1.28909133921e-05
1.28910682935e-05
1.28912847496e-05
1.28914830941e-05
1.2891667686e-05
1.28918163349e-05
1.28919127896e-05
1.28919463147e-05
1.28919128074e-05
1.28918164436e-05
1.289166801e-05
1.2891483818e-05
1.28912860237e-05
1.28910698598e-05
1.28909166422e-05
1.28909521453e-05
1.28911200775e-05
1.28913427913e-05
1.28915422545e-05
1.28917264061e-05
1.28918741603e-05
1.28919697454e-05
1.28920029296e-05
1.2891969853e-05
1.28918744361e-05
1.28917269495e-05
1.2891543204e-05
1.28913442493e-05
1.28911217918e-05
1.28909555508e-05
1.28910031889e-05
1.28911888971e-05
1.28914192297e-05
1.28916209919e-05
1.28918055197e-05
1.28919526651e-05
1.28920473665e-05
1.28920801512e-05
1.28920475238e-05
1.28919530344e-05
1.2891806184e-05
1.28916220799e-05
1.28914208142e-05
1.28911907514e-05
1.28910067191e-05
1.28910889508e-05
1.28912984969e-05
1.28915269502e-05
1.2891725773e-05
1.28919067635e-05
1.28920499497e-05
1.28921414343e-05
1.28921729695e-05
1.28921416101e-05
1.28920503363e-05
1.28919074513e-05
1.28917268925e-05
1.28915285999e-05
1.28913005418e-05
1.28910926265e-05
1.28914481531e-05
1.28915721852e-05
1.28917401572e-05
1.28918936872e-05
1.28920380693e-05
1.28921524708e-05
1.28922253589e-05
1.28922504503e-05
1.28922255442e-05
1.28921528903e-05
1.28920387921e-05
1.28918948726e-05
1.28917419642e-05
1.28915746376e-05
1.28914519469e-05
1.25132233599e-05
1.2513112566e-05
1.25129745738e-05
1.25128238463e-05
1.25126834502e-05
1.25125704292e-05
1.25124982021e-05
1.25124739119e-05
1.25125000607e-05
1.2512573652e-05
1.25126870722e-05
1.25128277062e-05
1.25129794883e-05
1.25131172637e-05
1.25132303715e-05
1.25132792945e-05
1.25131746515e-05
1.25130419084e-05
1.2512894752e-05
1.25127567243e-05
1.25126451299e-05
1.25125735413e-05
1.25125494074e-05
1.2512575406e-05
1.25126483716e-05
1.25127604087e-05
1.25128985912e-05
1.25130466703e-05
1.25131795989e-05
1.25132863862e-05
1.25134338884e-05
1.25133402215e-05
1.25132187048e-05
1.25130800042e-05
1.25129486545e-05
1.25128416311e-05
1.25127725994e-05
1.25127492599e-05
1.25127744397e-05
1.25128448875e-05
1.25129525088e-05
1.25130841219e-05
1.25132235684e-05
1.25133454046e-05
1.25134409407e-05
1.2513563544e-05
1.25134758635e-05
1.25133616099e-05
1.25132282581e-05
1.25131011406e-05
1.25129970032e-05
1.25129295154e-05
1.25129066299e-05
1.25129313101e-05
1.25130002484e-05
1.25131051657e-05
1.25132326375e-05
1.25133665819e-05
1.25134810451e-05
1.25135705869e-05
1.25136549332e-05
1.25135691663e-05
1.2513458969e-05
1.2513328598e-05
1.25132038934e-05
1.25131013709e-05
1.25130347209e-05
1.2513012072e-05
1.25130364663e-05
1.25131045672e-05
1.25132079674e-05
1.25133331072e-05
1.25134640245e-05
1.25135742782e-05
1.2513661996e-05
1.2513721396e-05
1.25136353433e-05
1.25135280879e-05
1.25133998679e-05
1.25132771581e-05
1.25131761333e-05
1.25131103269e-05
1.25130879277e-05
1.25131120028e-05
1.25131792366e-05
1.25132812107e-05
1.25134044122e-05
1.25135331239e-05
1.25136404708e-05
1.2513728305e-05
1.25137711283e-05
1.25136843773e-05
1.25135799663e-05
1.25134541876e-05
1.25133340294e-05
1.25132351141e-05
1.25131706392e-05
1.25131486734e-05
1.25131722337e-05
1.25132380898e-05
1.25133379801e-05
1.25134586853e-05
1.2513584917e-05
1.2513689477e-05
1.25137779622e-05
1.25138098067e-05
1.25137231043e-05
1.25136223179e-05
1.25135001926e-05
1.25133839323e-05
1.25132883905e-05
1.2513226142e-05
1.25132049327e-05
1.25132276447e-05
1.25132912153e-05
1.25133877442e-05
1.25135046096e-05
1.25136271919e-05
1.25137281497e-05
1.2513816665e-05
1.25138432469e-05
1.25137581985e-05
1.25136626284e-05
1.25135460985e-05
1.25134357066e-05
1.25133452924e-05
1.2513286485e-05
1.25132664644e-05
1.25132878902e-05
1.25133479519e-05
1.25134393454e-05
1.25135503905e-05
1.25136674216e-05
1.25137631928e-05
1.25138501122e-05
1.2513877033e-05
1.25137959281e-05
1.25137076374e-05
1.25135990468e-05
1.25134968994e-05
1.2513413687e-05
1.251335973e-05
1.25133414007e-05
1.25133610402e-05
1.25134161831e-05
1.25135003658e-05
1.25136032196e-05
1.25137123654e-05
1.25138009219e-05
1.25138839044e-05
1.25139158981e-05
1.25138413115e-05
1.25137623518e-05
1.25136641047e-05
1.25135726726e-05
1.25134988067e-05
1.25134511585e-05
1.25134350325e-05
1.25134523774e-05
1.25135011461e-05
1.25135759631e-05
1.25136681493e-05
1.25137670031e-05
1.2513846302e-05
1.25139227642e-05
1.25139626122e-05
1.25138967497e-05
1.2513828755e-05
1.2513743115e-05
1.25136648376e-05
1.25136024712e-05
1.25135625591e-05
1.25135491477e-05
1.25135636947e-05
1.25136046627e-05
1.25136679718e-05
1.25137470337e-05
1.25138333329e-05
1.25139016997e-05
1.2513969409e-05
1.25140188135e-05
1.25139623899e-05
1.25139061607e-05
1.25138349395e-05
1.25137721403e-05
1.25137232532e-05
1.25136924167e-05
1.25136821629e-05
1.25136934717e-05
1.25137253187e-05
1.2513775111e-05
1.25138387376e-05
1.25139106493e-05
1.25139672937e-05
1.25140255133e-05
1.25140953818e-05
1.25140478784e-05
1.25139990823e-05
1.2513941112e-05
1.25138937385e-05
1.25138584003e-05
1.25138365684e-05
1.25138294722e-05
1.25138375599e-05
1.25138603284e-05
1.25138965706e-05
1.25139447608e-05
1.25140034744e-05
1.25140527296e-05
1.25141018548e-05
1.25142429608e-05
1.25141706442e-05
1.25141136417e-05
1.25140603107e-05
1.25140218213e-05
1.25139945798e-05
1.25139782216e-05
1.25139730339e-05
1.25139791746e-05
1.25139964657e-05
1.25140245902e-05
1.25140639467e-05
1.25141180968e-05
1.25141757374e-05
1.2514249278e-05
1.12891913549e-05
1.12892523776e-05
1.12893271864e-05
1.12894038491e-05
1.1289473502e-05
1.1289528235e-05
1.12895627831e-05
1.1289573961e-05
1.12895606975e-05
1.12895242781e-05
1.12894681097e-05
1.12893976007e-05
1.12893204484e-05
1.12892463946e-05
1.12891849292e-05
1.12892391466e-05
1.12893009278e-05
1.12893770018e-05
1.12894554856e-05
1.12895269879e-05
1.12895833293e-05
1.12896189595e-05
1.12896305013e-05
1.12896167665e-05
1.12895791651e-05
1.12895213272e-05
1.12894489698e-05
1.12893701509e-05
1.12892947423e-05
1.12892330741e-05
1.12892320232e-05
1.1289290597e-05
1.12893637224e-05
1.12894404592e-05
1.12895109406e-05
1.12895668777e-05
1.12896024307e-05
1.12896140263e-05
1.1289600374e-05
1.12895629704e-05
1.12895056214e-05
1.12894342774e-05
1.12893572604e-05
1.128928443e-05
1.12892262042e-05
1.12892231418e-05
1.12892794391e-05
1.12893505688e-05
1.12894257671e-05
1.12894953913e-05
1.12895509679e-05
1.12895864614e-05
1.1289598132e-05
1.12895846021e-05
1.12895474302e-05
1.1289490558e-05
1.12894201078e-05
1.12893445868e-05
1.12892735556e-05
1.12892175252e-05
1.128922298e-05
1.12892781598e-05
1.12893483174e-05
1.12894223586e-05
1.12894913167e-05
1.12895465596e-05
1.12895819726e-05
1.12895936855e-05
1.12895802781e-05
1.1289543334e-05
1.12894868884e-05
1.12894171502e-05
1.12893427178e-05
1.12892725899e-05
1.12892176022e-05
1.12892270537e-05
1.12892817784e-05
1.12893510534e-05
1.12894239169e-05
1.12894919829e-05
1.12895466505e-05
1.12895817885e-05
1.12895934773e-05
1.12895802611e-05
1.12895437363e-05
1.12894879663e-05
1.12894191649e-05
1.12893459112e-05
1.12892764319e-05
1.12892221014e-05
1.1289232819e-05
1.12892870864e-05
1.12893555117e-05
1.12894269225e-05
1.1289493707e-05
1.12895474343e-05
1.12895820327e-05
1.1289593596e-05
1.12895806573e-05
1.12895448031e-05
1.12894900646e-05
1.12894225792e-05
1.12893507955e-05
1.1289281993e-05
1.12892282452e-05
1.12892393119e-05
1.12892929727e-05
1.1289360484e-05
1.12894300516e-05
1.12894951406e-05
1.12895475478e-05
1.12895813474e-05
1.12895926853e-05
1.12895801164e-05
1.12895451879e-05
1.12894918516e-05
1.12894260956e-05
1.12893561316e-05
1.12892881538e-05
1.12892350086e-05
1.12892457546e-05
1.12892988264e-05
1.12893652314e-05
1.12894325897e-05
1.12894955743e-05
1.12895463059e-05
1.12895790558e-05
1.12895900724e-05
1.12895779519e-05
1.12895441837e-05
1.12894925962e-05
1.12894289725e-05
1.12893611907e-05
1.12892942517e-05
1.12892417625e-05
1.12892517832e-05
1.12893042623e-05
1.12893693109e-05
1.12894341146e-05
1.12894946204e-05
1.12895433655e-05
1.12895748452e-05
1.1289585459e-05
1.12895738525e-05
1.12895414494e-05
1.12894919141e-05
1.1289430787e-05
1.12893655319e-05
1.12892998811e-05
1.12892480617e-05
1.12892571361e-05
1.12893091019e-05
1.12893725764e-05
1.12894345297e-05
1.12894922608e-05
1.12895387565e-05
1.12895687849e-05
1.12895789192e-05
1.12895678839e-05
1.12895370145e-05
1.12894897823e-05
1.12894314567e-05
1.1289369033e-05
1.1289304928e-05
1.12892537115e-05
1.12892614031e-05
1.12893130882e-05
1.12893748672e-05
1.12894338558e-05
1.12894886703e-05
1.12895327909e-05
1.12895612499e-05
1.12895708584e-05
1.12895604234e-05
1.12895311861e-05
1.12894863832e-05
1.12894309945e-05
1.12893715403e-05
1.12893091465e-05
1.12892583168e-05
1.12892635837e-05
1.12893153261e-05
1.12893756598e-05
1.1289431985e-05
1.12894841855e-05
1.12895260699e-05
1.12895530246e-05
1.12895620986e-05
1.12895522529e-05
1.128952458e-05
1.12894820417e-05
1.12894293096e-05
1.12893725303e-05
1.12893116313e-05
1.12892608276e-05
1.12892687813e-05
1.12893220272e-05
1.12893791727e-05
1.12894320488e-05
1.12894810108e-05
1.12895200813e-05
1.12895450443e-05
1.12895534242e-05
1.12895443222e-05
1.12895186666e-05
1.12894789901e-05
1.12894295122e-05
1.12893762353e-05
1.12893186163e-05
1.12892664279e-05
1.12893408392e-05
1.12893720882e-05
1.12894112075e-05
1.12894492455e-05
1.1289485703e-05
1.12895147719e-05
1.1289533258e-05
1.12895393945e-05
1.12895325875e-05
1.12895134733e-05
1.12894838297e-05
1.12894469125e-05
1.12894085293e-05
1.12893690477e-05
1.12893386278e-05
1.05505526717e-05
1.05505195346e-05
1.05504748787e-05
1.05504259631e-05
1.05503809796e-05
1.05503450951e-05
1.05503219888e-05
1.05503139854e-05
1.05503219252e-05
1.05503448888e-05
1.05503804753e-05
1.05504247045e-05
1.05504723812e-05
1.05505155879e-05
1.05505501429e-05
1.05505712399e-05
1.05505399253e-05
1.0550497098e-05
1.05504494653e-05
1.05504053521e-05
1.05503699737e-05
1.05503471277e-05
1.05503392011e-05
1.05503470811e-05
1.05503697985e-05
1.05504048599e-05
1.05504481909e-05
1.05504945464e-05
1.0550536082e-05
1.05505686502e-05
1.055061712e-05
1.05505888314e-05
1.05505495707e-05
1.05505046206e-05
1.05504625354e-05
1.05504284813e-05
1.05504063823e-05
1.05503986974e-05
1.05504063413e-05
1.05504283108e-05
1.05504620444e-05
1.05505033891e-05
1.05505471219e-05
1.05505853309e-05
1.05506146087e-05
1.05506547635e-05
1.05506281117e-05
1.05505910243e-05
1.05505478227e-05
1.0550506968e-05
1.0550473665e-05
1.05504519728e-05
1.05504444116e-05
1.05504519166e-05
1.05504734558e-05
1.05505064074e-05
1.05505465466e-05
1.05505886663e-05
1.05506247583e-05
1.05506523746e-05
1.05506808818e-05
1.05506547285e-05
1.05506188006e-05
1.05505765907e-05
1.05505364205e-05
1.05505035325e-05
1.05504820566e-05
1.05504745545e-05
1.05504819757e-05
1.05505032747e-05
1.05505357876e-05
1.05505752554e-05
1.05506164988e-05
1.05506514379e-05
1.05506785993e-05
1.05506997888e-05
1.05506733901e-05
1.05506383314e-05
1.05505968698e-05
1.0550557275e-05
1.05505247794e-05
1.05505035216e-05
1.05504960789e-05
1.05505033998e-05
1.05505244418e-05
1.05505565338e-05
1.05505954375e-05
1.05506360393e-05
1.05506702305e-05
1.05506974857e-05
1.05507138712e-05
1.0550687166e-05
1.05506528974e-05
1.0550612196e-05
1.05505733255e-05
1.05505414028e-05
1.05505205036e-05
1.05505131703e-05
1.05505203378e-05
1.0550540983e-05
1.05505724813e-05
1.05506106807e-05
1.0550650585e-05
1.05506841175e-05
1.05507116258e-05
1.05507247038e-05
1.05506979061e-05
1.05506645023e-05
1.055062485e-05
1.05505870486e-05
1.05505560225e-05
1.05505357089e-05
1.05505285664e-05
1.05505354953e-05
1.05505555167e-05
1.05505861067e-05
1.05506232819e-05
1.05506622281e-05
1.05506949777e-05
1.05507226319e-05
1.05507338149e-05
1.05507072279e-05
1.05506749666e-05
1.05506367874e-05
1.05506005173e-05
1.05505708241e-05
1.05505514025e-05
1.05505445642e-05
1.05505511479e-05
1.05505702492e-05
1.05505995056e-05
1.05506351949e-05
1.05506727641e-05
1.05507044419e-05
1.05507319348e-05
1.05507424537e-05
1.05507164532e-05
1.05506857293e-05
1.05506495431e-05
1.0550615388e-05
1.05505875472e-05
1.05505693779e-05
1.05505629742e-05
1.0550569094e-05
1.05505869267e-05
1.05506143449e-05
1.05506479861e-05
1.05506836575e-05
1.05507138794e-05
1.05507407988e-05
1.0550751543e-05
1.05507265313e-05
1.05506977472e-05
1.05506641123e-05
1.05506326957e-05
1.0550607274e-05
1.05505907505e-05
1.05505849271e-05
1.05505904536e-05
1.05506066378e-05
1.05506316629e-05
1.05506626317e-05
1.05506958337e-05
1.05507241931e-05
1.05507501368e-05
1.05507614272e-05
1.05507376618e-05
1.05507111584e-05
1.05506806754e-05
1.05506526879e-05
1.05506303057e-05
1.05506158531e-05
1.05506107658e-05
1.05506155596e-05
1.05506296908e-05
1.05506517116e-05
1.0550679321e-05
1.05507094464e-05
1.05507355574e-05
1.0550760256e-05
1.05507719303e-05
1.0550749367e-05
1.05507254617e-05
1.05506987367e-05
1.05506749115e-05
1.05506562167e-05
1.05506442682e-05
1.05506400752e-05
1.05506439986e-05
1.05506556533e-05
1.05506740343e-05
1.05506975447e-05
1.05507239729e-05
1.05507475209e-05
1.05507710129e-05
1.05507843731e-05
1.05507629764e-05
1.05507411501e-05
1.05507183098e-05
1.05506989839e-05
1.05506842513e-05
1.05506749755e-05
1.05506717368e-05
1.05506747493e-05
1.05506837734e-05
1.05506982455e-05
1.05507173178e-05
1.05507399095e-05
1.0550761402e-05
1.05507836588e-05
1.05508078072e-05
1.05507806222e-05
1.05507586191e-05
1.0550738485e-05
1.05507227283e-05
1.05507111316e-05
1.05507039598e-05
1.05507014891e-05
1.05507038069e-05
1.05507108083e-05
1.05507222162e-05
1.05507377922e-05
1.05507577522e-05
1.05507794695e-05
1.05508072473e-05
9.57126515974e-06
9.57127982425e-06
9.57129816889e-06
9.57131646435e-06
9.57133293532e-06
9.57134576177e-06
9.57135377608e-06
9.57135610249e-06
9.57135242502e-06
9.57134306643e-06
9.57132890885e-06
9.57131135772e-06
9.57129234885e-06
9.57127429627e-06
9.57125954427e-06
9.57127448303e-06
9.57128973375e-06
9.57130840497e-06
9.57132725131e-06
9.57134425081e-06
9.57135753775e-06
9.57136586078e-06
9.57136828374e-06
9.57136446762e-06
9.57135475898e-06
9.5713401038e-06
9.57132198897e-06
9.57130245543e-06
9.57128397252e-06
9.57126908115e-06
9.57127284177e-06
9.57128765802e-06
9.57130577172e-06
9.57132453612e-06
9.57134159025e-06
9.57135503867e-06
9.57136349337e-06
9.57136598317e-06
9.57136214346e-06
9.57135235153e-06
9.57133760666e-06
9.57131947042e-06
9.57130007124e-06
9.57128190847e-06
9.57126756379e-06
9.57127180899e-06
9.57128626806e-06
9.57130412312e-06
9.57132278973e-06
9.57133993223e-06
9.57135355537e-06
9.5713621539e-06
9.57136471876e-06
9.571360866e-06
9.57135099779e-06
9.57133615933e-06
9.57131797261e-06
9.57129863579e-06
9.57128060788e-06
9.57126650475e-06
9.57127321207e-06
9.57128758668e-06
9.57130542888e-06
9.57132406153e-06