/*--------------------------------*- C++ -*----------------------------------*\
  =========                 |
  \\      /  F ield         | OpenFOAM: The Open Source CFD Toolbox
   \\    /   O peration     | Website:  https://openfoam.org
    \\  /    A nd           | Version:  7
     \\/     M anipulation  |
\*---------------------------------------------------------------------------*/
FoamFile
{
    version     2.0;
    format      ascii;
    class       surfaceScalarField;
    location    "1.58";
    object      phi;
}
// * * * * * * * * * * * * * * * * * * * * * * * * * * * * * * * * * * * * * //

dimensions      [0 3 -1 0 0 0 0];

internalField   nonuniform List<scalar> 
65775
(
5.34723641522e-11
7.45294457777e-09
1.51257455533e-09
-6.76424146123e-13
7.66948992279e-11
7.78717688013e-09
1.6741289511e-09
8.92498909586e-11
8.06385032376e-09
1.82785944153e-09
8.66647945005e-11
8.30284238475e-09
1.96589731711e-09
7.17521116836e-11
8.49206422509e-09
2.08124453753e-09
4.69678769281e-11
8.63016328944e-09
2.16820847558e-09
1.59355023419e-11
8.71700404041e-09
2.22307407331e-09
-1.72856431485e-11
8.75028006044e-09
2.24278076777e-09
-4.82426390777e-11
8.71743530143e-09
2.22307536043e-09
-7.28695218825e-11
8.63101967753e-09
2.16821122849e-09
-8.7512744307e-11
8.49331963772e-09
2.08124723358e-09
-8.97511656777e-11
8.30434435336e-09
1.96589879442e-09
-7.67701608289e-11
8.06545832017e-09
1.82785987216e-09
-5.32149175064e-11
7.78855373625e-09
1.67412461777e-09
7.45376516098e-09
1.51254149146e-09
-2.74825124523e-13
1.33101898926e-10
1.22975056099e-08
3.61482848309e-09
-1.59742693507e-12
2.13810638015e-10
1.27837508563e-08
3.97783234829e-09
2.50170608557e-10
1.31798904149e-08
4.31977098403e-09
2.45077352319e-10
1.35148196685e-08
4.62424895901e-09
2.03434315512e-10
1.37776191684e-08
4.87687754631e-09
1.33415914751e-10
1.3967712549e-08
5.06633119635e-09
4.5411360839e-11
1.40872440292e-08
5.18549782042e-09
-4.86648489674e-11
1.41337726428e-08
5.22829037434e-09
-1.36481661184e-10
1.40882191081e-08
5.1854911503e-09
-2.06108123376e-10
1.39696393337e-08
5.06632106991e-09
-2.47118110404e-10
1.37804242491e-08
4.87686201567e-09
-2.51373662772e-10
1.35182307854e-08
4.62422800978e-09
-2.14049055928e-10
1.31835351267e-08
4.31974798451e-09
-1.32556824471e-10
1.27869817281e-08
3.9778003579e-09
1.22996604516e-08
3.61473873404e-09
-6.74201513173e-13
1.9275329786e-10
1.52106265722e-08
5.06070746706e-09
-2.19369403835e-12
3.18140434031e-10
1.57312203119e-08
5.55415400664e-09
3.72230359259e-10
1.61520732335e-08
6.01525953728e-09
3.64396351064e-10
1.64968816598e-08
6.42325485188e-09
3.02055755051e-10
1.67643049301e-08
6.75995343894e-09
1.97895335685e-10
1.69554508709e-08
7.01141409591e-09
6.73863261349e-11
1.70756534966e-08
7.16914049922e-09
-7.19393387176e-11
1.71234084975e-08
7.22569620115e-09
-2.02177779624e-10
1.70769962999e-08
7.16912773964e-09
-3.05778665092e-10
1.69580926868e-08
7.01139068313e-09
-3.67242679686e-10
1.67681289639e-08
6.75991944139e-09
-3.73922424262e-10
1.65015486132e-08
6.42321265712e-09
-3.18540145612e-10
1.61570566017e-08
6.01521637635e-09
-1.92084861692e-10
1.57357337313e-08
5.554104205e-09
1.52138286577e-08
5.06058755164e-09
-9.73107250769e-13
2.38872888568e-10
1.66762367563e-08
6.03592976323e-09
-2.57647826188e-12
3.96812152159e-10
1.71592630146e-08
6.61290855012e-09
4.6431163048e-10
1.75477690408e-08
7.14765449101e-09
4.53672639519e-10
1.78536014057e-08
7.61773832032e-09
3.75394286984e-10
1.80867891848e-08
8.0035616087e-09
2.45622248934e-10
1.8250803686e-08
8.2905016374e-09
8.36379117288e-11
1.83539945807e-08
8.46995368011e-09
-8.90646462074e-11
1.83961984976e-08
8.53418422611e-09
-2.50718218169e-10
1.83555543079e-08
8.46994119897e-09
-3.79814001689e-10
1.82538644715e-08
8.29047551377e-09
-4.57057271869e-10
1.80911971596e-08
8.00352218979e-09
-4.66355111501e-10
1.78589879692e-08
7.61769039166e-09
-3.97374372932e-10
1.75535494782e-08
7.14760868899e-09
-2.38200480078e-10
1.71645964495e-08
6.61286272274e-09
1.66802541137e-08
6.03581802107e-09
-1.2132670829e-12
2.73183227883e-10
1.70775218702e-08
6.63965798765e-09
-2.79940681358e-12
4.54683559418e-10
1.74829164514e-08
7.2656215599e-09
5.321761464e-10
1.78095965113e-08
7.84085196224e-09
5.19183855536e-10
1.80536414151e-08
8.34310234107e-09
4.28979852162e-10
1.82352071079e-08
8.75302073686e-09
2.80374076016e-10
1.836002891e-08
9.0565652879e-09
9.54745723775e-11
1.84386838784e-08
9.24580999744e-09
-1.01442828443e-10
1.84722771336e-08
9.31339620766e-09
-2.85971860194e-10
1.84403321569e-08
9.2457962449e-09
-4.33829219802e-10
1.83632555273e-08
9.05653819231e-09
-5.22908680745e-10
1.82398381027e-08
8.75298257513e-09
-5.34468060359e-10
1.80593049365e-08
8.34306022095e-09
-4.55409526111e-10
1.78157200816e-08
7.84081893119e-09
-2.72588027339e-10
1.74886611956e-08
7.26559832379e-09
1.70820693424e-08
6.6395801188e-09
-1.41066155275e-12
2.98248665713e-10
1.67186717959e-08
6.94831191855e-09
-2.897839974e-12
4.96001156545e-10
1.70293845638e-08
7.59839108764e-09
5.80506678237e-10
1.72838439101e-08
8.19071141927e-09
5.65575560358e-10
1.7460629007e-08
8.70436436883e-09
4.66747486173e-10
1.75874090097e-08
9.12127382027e-09
3.04783183985e-10
1.7671549817e-08
9.42868422718e-09
1.03801360329e-10
1.77247887801e-08
9.61972677901e-09
-1.10049827228e-10
1.77491674006e-08
9.68777296254e-09
-3.10640273964e-10
1.7726426681e-08
9.61971474204e-09
-4.71821920054e-10
1.76747500591e-08
9.42866202791e-09
-5.69492715904e-10
1.75919901252e-08
9.12124536994e-09
-5.8296942913e-10
1.74662367681e-08
8.70433852754e-09
-4.96893354863e-10
1.72899470239e-08
8.19070280446e-09
-2.97790962664e-10
1.70352232694e-08
7.59840198748e-09
1.67234939055e-08
6.9482789053e-09
-1.56938181905e-12
3.16482109273e-10
1.58387686995e-08
7.02461522002e-09
-2.90396788435e-12
5.24592742733e-10
1.60538878119e-08
7.68184304178e-09
6.13526607754e-10
1.62378365205e-08
8.27579715029e-09
5.96945277951e-10
1.6352374245e-08
8.78751090487e-09
4.92108698139e-10
1.6429603758e-08
9.20069391017e-09
3.21105492196e-10
1.64777016101e-08
9.50414989959e-09
1.09388724068e-10
1.65084762082e-08
9.69213734189e-09
-1.15717082916e-10
1.65244763859e-08
9.75887697708e-09
-3.27037738007e-10
1.6510023058e-08
9.69212917103e-09
-4.97256196682e-10
1.64807201182e-08
9.50413655998e-09
-6.00947788507e-10
1.64339181262e-08
9.20068048901e-09
-6.16108001497e-10
1.63576645962e-08
8.78750741817e-09
-5.25650476302e-10
1.62436379814e-08
8.27581901547e-09
-3.16209236931e-10
1.60595376817e-08
7.68189244597e-09
1.5843624661e-08
7.02462828361e-09
-1.70275068157e-12
3.2955846101e-10
1.46228503434e-08
6.9209516327e-09
-2.83779984361e-12
5.43480417246e-10
1.4751577454e-08
7.5746417805e-09
6.34774291623e-10
1.487349249e-08
8.16097720765e-09
6.16782920946e-10
1.49361091712e-08
8.66312854551e-09
5.07979747785e-10
1.49730939914e-08
9.06672118043e-09
3.31265065408e-10
1.49926372591e-08
9.36209741181e-09
1.12890978986e-10
1.50056700452e-08
9.54451849437e-09
-1.19155105775e-10
1.50148243952e-08
9.60902428889e-09
-3.37141561803e-10
1.50070712394e-08
9.54451523865e-09
-5.1309511475e-10
1.49953687723e-08
9.36209465395e-09
-6.20799776854e-10
1.49769970355e-08
9.06672476609e-09
-6.37441519906e-10
1.49409071173e-08
8.66314914813e-09
-5.44707171581e-10
1.48787966599e-08
8.16103037307e-09
-3.29504033963e-10
1.47568318988e-08
7.57472792295e-09
1.46275446891e-08
6.92100552723e-09
-1.81534465669e-12
3.38616088134e-10
1.32114171462e-08
6.68074388399e-09
-2.72214739545e-12
5.55018325422e-10
1.32682549976e-08
7.32493238977e-09
6.47160173763e-10
1.33395072805e-08
7.8989371853e-09
6.28015109331e-10
1.3362303638e-08
8.38799045157e-09
5.16814468116e-10
1.33695158663e-08
8.77952571479e-09
3.36875951095e-10
1.33686645733e-08
9.06523846892e-09
1.14854741401e-10
1.33690819655e-08
9.24117519773e-09
-1.20958794016e-10
1.33731221931e-08
9.30309027181e-09
-3.42611523795e-10
1.33702999918e-08
9.24117687888e-09
-5.21831589508e-10
1.33710387642e-08
9.06524601475e-09
-6.32005154031e-10
1.3372910724e-08
8.77954540774e-09
-6.49897318405e-10
1.33664946464e-08
8.38803324545e-09
-5.5642032206e-10
1.3344184213e-08
7.89901816842e-09
-3.38802096704e-10
1.32729712873e-08
7.32504878608e-09
1.32157821787e-08
6.68082915965e-09
-1.914892731e-12
3.44443518217e-10
1.17088527741e-08
6.33931881299e-09
-2.57379849147e-12
5.61041326162e-10
1.17100335476e-08
6.97135685035e-09
6.53083046282e-10
1.17422937503e-08
7.53138454777e-09
6.33099632065e-10
1.17369876309e-08
8.00646645989e-09
5.20671555325e-10
1.17243729479e-08
8.38562072507e-09
3.3928354488e-10
1.17107165355e-08
8.66164898071e-09
1.15732712178e-10
1.17032600254e-08
8.83114795963e-09
-1.21622701723e-10
1.17038298167e-08
8.89046146513e-09
-3.44831763865e-10
1.17042764249e-08
8.83115381258e-09
-5.25557639839e-10
1.17126985293e-08
8.66166503287e-09
-6.37045250731e-10
1.17272138911e-08
8.38565343063e-09
-6.55887167271e-10
1.17405142678e-08
8.00652673437e-09
-5.62624920167e-10
1.17462742166e-08
7.53148652612e-09
-3.44887464197e-10
1.17141211882e-08
6.97149353799e-09
1.17127795805e-08
6.33942332422e-09
-2.00637721658e-12
3.47523333661e-10
1.01909933773e-08
5.92477095397e-09
-2.40858142492e-12
5.62965357946e-10
1.01518669604e-08
6.54415647078e-09
6.54552545655e-10
1.01555803726e-08
7.09042861196e-09
6.34112573493e-10
1.01324998996e-08
7.55219344306e-09
5.21266025947e-10
1.01087463442e-08
7.91980657775e-09
3.39586870136e-10
1.00887360258e-08
8.18693937762e-09
1.15891743143e-10
1.00773986627e-08
8.35053417971e-09
-1.21547357492e-10
1.00759021023e-08
8.40741160192e-09
-3.44932656528e-10
1.0078208944e-08
8.35054285388e-09
-5.2601363893e-10
1.00903179813e-08
8.186960982e-09
-6.38014864831e-10
1.01110212172e-08
7.919847441e-09
-6.57429101689e-10
1.01353465201e-08
7.5522641316e-09
-5.64737344303e-10
1.01588366331e-08
7.0905419734e-09
-3.48233123045e-10
1.01552787721e-08
6.54430079847e-09
1.01944045895e-08
5.92488053334e-09
-2.09649389628e-12
3.48053675089e-10
8.71168119667e-09
5.45894248678e-09
-2.22852557305e-12
5.62070734844e-10
8.64452874276e-09
6.06643348464e-09
6.53465169141e-10
8.62840575126e-09
6.60014760197e-09
6.32891226279e-10
8.59646654374e-09
7.04994785279e-09
5.20008580005e-10
8.56890011972e-09
7.40732217661e-09
3.38646545951e-10
8.54771299244e-09
7.66663082813e-09
1.15608567963e-10
8.53559363589e-09
7.8250116481e-09
-1.21035786482e-10
8.53315361543e-09
7.87967785833e-09
-3.43798896373e-10
8.53620308937e-09
7.82502130944e-09
-5.24630521171e-10
8.54890655621e-09
7.66665401823e-09
-6.36763665743e-10
8.57062797657e-09
7.40736468473e-09
-6.56425698929e-10
8.59864829353e-09
7.0500195334e-09
-5.6403617203e-10
8.63094107555e-09
6.60026002245e-09
-3.49031404225e-10
8.6472402289e-09
6.06657062852e-09
8.71451078927e-09
5.45904136841e-09
-2.18970700856e-12
3.46422724705e-10
7.30768253718e-09
4.95848510438e-09
-2.04607211261e-12
5.60364500068e-10
7.21986986324e-09
5.55549136409e-09
6.52020926326e-10
7.19195285082e-09
6.07820607963e-09
6.31050377384e-10
7.15930092507e-09
6.5175314928e-09
5.17900367761e-10
7.13392572879e-09
6.86597280483e-09
3.36977327388e-10
7.11533406542e-09
7.11847545361e-09
1.15043460067e-10
7.10461712902e-09
7.27228311969e-09
-1.20268193638e-10
7.10200985942e-09
7.32494960614e-09
-3.41962127969e-10
7.10504147271e-09
7.27229151051e-09
-5.22420452798e-10
7.1161706479e-09
7.11849532126e-09
-6.3491531435e-10
7.13514049147e-09
6.86600876918e-09
-6.55079180332e-10
7.16085622325e-09
6.51759217196e-09
-5.62527863715e-10
7.19379688996e-09
6.07830224983e-09
-3.47667307272e-10
7.22189082082e-09
5.5556049551e-09
7.30990264159e-09
4.95855800542e-09
-2.28532092276e-12
3.45660632984e-10
6.00022451026e-09
4.43592131298e-09
-1.86096028019e-12
5.62112623338e-10
5.8957105356e-09
5.02413418018e-09
6.52540446688e-10
5.86660880209e-09
5.53735632182e-09
6.29236172475e-10
5.84055008808e-09
5.96748058874e-09
5.14865433916e-10
5.82132107929e-09
6.30803453978e-09
3.34395743921e-10
5.80741036342e-09
6.5545156004e-09
1.14091930312e-10
5.79920744547e-09
6.7042341766e-09
-1.19150802035e-10
5.79692563624e-09
6.75506120692e-09
-3.39245657879e-10
5.79946972281e-09
6.70423882161e-09
-5.19316284053e-10
5.80792917023e-09
6.55452672423e-09
-6.33112560348e-10
5.82208705892e-09
6.30805472187e-09
-6.55703297821e-10
5.84154352947e-09
5.96751610248e-09
-5.64467537069e-10
5.8678102891e-09
5.53741754029e-09
-3.47158477213e-10
5.89706947795e-09
5.0242064082e-09
6.00184667e-09
4.43595622927e-09
-2.3826011406e-12
3.69199141963e-10
3.90162157331e-09
-1.66068539065e-12
4.77672800691e-09
5.80443291733e-10
4.48264767876e-09
4.6898759215e-09
6.60189413134e-10
4.98726275809e-09
4.6710368495e-09
6.28995272395e-10
5.40882208575e-09
4.65436951254e-09
5.11161366057e-10
5.74195189808e-09
4.64148136948e-09
3.307676394e-10
5.98272631491e-09
4.6320938057e-09
1.126981646e-10
6.12853637275e-09
4.62644233644e-09
-1.17626845963e-10
6.17758163268e-09
4.6245943153e-09
-3.35516323472e-10
6.12853558612e-09
4.62657081646e-09
-5.15562822362e-10
5.98272499429e-09
4.63234860559e-09
-6.32898618584e-10
5.74194978942e-09
4.64186256737e-09
-6.63462096271e-10
5.40882131729e-09
4.65487471211e-09
-5.82975057268e-10
4.98727261789e-09
4.6716736353e-09
-3.7092318178e-10
4.48265279599e-09
4.69063182957e-09
3.90162571837e-09
-2.46752679342e-12
4.77777784952e-09
-1.71039032756e-11
6.65700768557e-10
8.63536490645e-10
7.19197151055e-13
-2.13252369085e-11
7.27427441025e-10
9.51422018385e-10
-2.26055781772e-11
7.95231997281e-10
1.03475874344e-09
-2.14112683018e-11
8.56023272601e-10
1.10957710054e-09
-1.74241675753e-11
9.0613194765e-10
1.1720443977e-09
-1.11201043976e-11
9.43537753586e-10
1.21909929877e-09
-3.23060775562e-12
9.66904887646e-10
1.24877522348e-09
5.17808935231e-12
9.75214168611e-10
1.25945471834e-09
1.29121440346e-11
9.6672749761e-10
1.24877727287e-09
1.89013049578e-11
9.43202128473e-10
1.2191023779e-09
2.243124175e-11
9.05702261917e-10
1.17204754052e-09
2.31322384437e-11
8.55624245444e-10
1.10957820609e-09
2.13631263487e-11
7.94859697551e-10
1.034755014e-09
1.68365078301e-11
7.27220948294e-10
9.51406373984e-10
6.65537381711e-10
8.634851836e-10
3.26380131122e-13
-2.41459570793e-11
1.83687337232e-09
2.46664018911e-09
1.61970251166e-12
-2.87881864136e-11
1.98812473718e-09
2.72265911434e-09
-2.86191424504e-11
2.15061280665e-09
2.96553109628e-09
-2.57151802688e-11
2.29526708066e-09
3.18354973582e-09
-2.00838905198e-11
2.41317337984e-09
3.36558245388e-09
-1.22085399498e-11
2.50035413585e-09
3.50271478573e-09
-2.82477572444e-12
2.55460167626e-09
3.58914427247e-09
7.02541510492e-12
2.57395500369e-09
3.62014002451e-09
1.60690153037e-11
2.55426275365e-09
3.58915708788e-09
2.32637306679e-11
2.49971509461e-09
3.50273585489e-09
2.79235223149e-11
2.41234501171e-09
3.36560750553e-09
2.97478347482e-11
2.29446031906e-09
3.18357121831e-09
2.88937401874e-11
2.14989784244e-09
2.96553980476e-09
2.35726924633e-11
1.98766835453e-09
2.72263406858e-09
1.83650734011e-09
2.46652822374e-09
7.62298995117e-13
-1.47368638875e-11
3.08018793181e-09
3.8304933108e-09
2.05577934731e-12
-1.32654311382e-11
3.30966843694e-09
4.2319676867e-09
-9.15998164747e-12
3.55132598212e-09
4.6116077297e-09
-5.37103337066e-12
3.76464069102e-09
4.95139332042e-09
-2.36346853709e-12
3.93691879324e-09
5.23439667601e-09
-6.6968040647e-14
4.06321334552e-09
5.44718475637e-09
1.74956193008e-12
4.14148848868e-09
5.58106184789e-09
3.34406555258e-12
4.1694947375e-09
5.62894270808e-09
4.745953074e-12
4.14112074472e-09
5.5810808296e-09
6.21724021856e-12
4.0625226987e-09
5.4472190963e-09
8.0569597675e-12
3.93602821051e-09
5.23443920673e-09
1.05316189708e-11
3.7637686835e-09
4.95143361625e-09
1.34079245815e-11
3.55058439e-09
4.61163300108e-09
1.40369980863e-11
3.30915946965e-09
4.23194914576e-09
3.07974804463e-09
3.83035760414e-09
9.87084313135e-13
4.12634739364e-12
4.1836976708e-09
4.92652321808e-09
2.17586065229e-12
1.57480636134e-11
4.46710577126e-09
5.44459292539e-09
2.49529072859e-11
4.75895044681e-09
5.9318708903e-09
2.86873248036e-11
5.01379309453e-09
6.36598481543e-09
2.64166025895e-11
5.21761563133e-09
6.72614805875e-09
1.90993900435e-11
5.36569202324e-09
6.99611888814e-09
8.45943877526e-12
5.45706887401e-09
7.1655444062e-09
-3.36360067938e-12
5.48985642653e-09
7.2259750118e-09
-1.44174389155e-11
5.45674195948e-09
7.16556211252e-09
-2.25558703416e-11
5.36507795195e-09
6.99615477578e-09
-2.59863618926e-11
5.21682373332e-09
6.72619658644e-09
-2.35679177958e-11
5.01300798103e-09
6.36603644069e-09
-1.5600524138e-11
4.75829406735e-09
5.93191300774e-09
-4.84255899132e-12
4.46663715327e-09
5.44459441391e-09
4.18323199329e-09
4.92639978791e-09
1.04813643344e-12
2.79309638394e-11
5.03605964593e-09
5.75765892731e-09
2.09381024977e-12
5.13616667414e-11
5.34705034896e-09
6.36289656947e-09
6.59234554554e-11
5.65794571227e-09
6.92821686006e-09
6.87749906986e-11
5.92609168337e-09
7.42891071729e-09
5.97999387756e-11
6.13818064722e-09
7.84227540223e-09
4.105435244e-11
6.29071937951e-09
8.15092542236e-09
1.59479542657e-11
6.38438460443e-09
8.3440393162e-09
-1.13534725147e-11
6.41809632415e-09
8.41273198183e-09
-3.68319085604e-11
6.38411645439e-09
8.34405755542e-09
-5.63125210784e-11
6.29021567452e-09
8.15096270164e-09
-6.63271040875e-11
6.13752638713e-09
7.84232816199e-09
-6.46634909242e-11
5.9254357343e-09
7.4289726901e-09
-5.1234982575e-11
5.65739023493e-09
6.92827880572e-09
-2.86121207633e-11
5.34665574422e-09
6.3629287374e-09
5.03560058256e-09
5.75757160529e-09
9.96180340799e-13
5.31497781712e-11
5.59472607043e-09
6.33494308334e-09
1.89560396952e-12
8.86663150246e-11
5.91068059242e-09
6.99984034269e-09
1.08257747722e-10
6.21392683951e-09
7.61591663161e-09
1.0961327499e-10
6.4719712752e-09
8.15792826837e-09
9.34315367284e-11
6.67339661008e-09
8.60293197789e-09
6.29777325916e-11
6.81662221037e-09
8.93376384906e-09
2.33232653302e-11
6.90406939378e-09
9.14006218169e-09
-1.94593027811e-11
6.93565424374e-09
9.2132310811e-09
-5.94253953021e-11
6.90385448694e-09
9.14007979072e-09
-9.04936102451e-11
6.81621815991e-09
8.93380068135e-09
-1.07545627544e-10
6.67286791596e-09
8.6029874082e-09
-1.07196524977e-10
6.47142944245e-09
8.15800051919e-09
-8.85771784962e-11
6.21345926534e-09
7.6160012507e-09
-5.3782223541e-11
5.91032834847e-09
6.99990994707e-09
5.59428918764e-09
6.33490358985e-09
8.70014323982e-13
7.7241410188e-11
5.86266633519e-09
6.67810508419e-09
1.6473461876e-12
1.24279653406e-10
6.16695236746e-09
7.379047191e-09
1.48258008879e-10
6.44343979797e-09
8.02295135068e-09
1.47740110001e-10
6.67520188048e-09
8.58545171994e-09
1.24522108537e-10
6.85325254511e-09
9.04461439628e-09
8.30928656857e-11
6.97819014948e-09
9.38443659735e-09
3.0030585356e-11
7.05397070693e-09
9.59559431733e-09
-2.69485970482e-11
7.08145640798e-09
9.67024382061e-09
-8.02590449862e-11
7.05379587289e-09
9.59561139399e-09
-1.22177164399e-10
6.97785996651e-09
9.38447335755e-09
-1.46090177511e-10
6.85281500601e-09
9.04467328546e-09
-1.474231515e-10
6.67473878374e-09
8.58553548819e-09
-1.24245849094e-10
6.44302982326e-09
8.02306034939e-09
-7.78258046185e-11
6.16662296711e-09
7.37915596802e-09
5.86225028817e-09
6.67811570476e-09
7.03676240704e-13
9.85631122861e-11
5.87056544935e-09
6.81341775618e-09
1.38846652394e-12
1.56067780462e-10
6.1528075814e-09
7.53172516455e-09
1.83660922648e-10
6.39150677622e-09
8.18585197441e-09
1.81126723257e-10
6.58813177857e-09
8.75325821352e-09
1.51499876674e-10
6.73624513216e-09
9.2138032173e-09
1.00429176036e-10
6.83854633491e-09
9.5531551873e-09
3.57733913175e-11
6.90011642875e-09
9.76327063298e-09
-3.34232674669e-11
6.9225603601e-09
9.83727572971e-09
-9.82699381138e-11
6.89996629798e-09
9.76328778547e-09
-1.49716291216e-10
6.83826167326e-09
9.55319299941e-09
-1.79880162542e-10
6.73586208226e-09
9.2138667755e-09
-1.83052759379e-10
6.58771211825e-09
8.75335406604e-09
-1.56102161671e-10
6.39111674843e-09
8.18598440358e-09
-9.91097154804e-11
6.15247279431e-09
7.53186946413e-09
5.87012929027e-09
6.81347329943e-09
5.18176938739e-13
1.16212389698e-10
5.66351139746e-09
6.77074332846e-09
1.141878386e-12
1.82836885983e-10
5.91866341506e-09
7.49283588275e-09
2.13275671445e-10
6.11554022898e-09
8.14490168768e-09
2.08804916449e-10
6.27428537495e-09
8.70672726552e-09
1.73686218785e-10
6.39090794158e-09
9.16033563609e-09
1.14602075311e-10
6.46991595113e-09
9.49322504883e-09
4.04426048194e-11
6.51702382176e-09
9.69862030311e-09
-3.87278804416e-11
6.53429856824e-09
9.77065052629e-09
-1.13030930961e-10
6.51688693484e-09
9.69863793432e-09
-1.72397489981e-10
6.46965447137e-09
9.49326445017e-09
-2.07922045676e-10
6.39054981484e-09
9.16040380733e-09
-2.1288262889e-10
6.27387761944e-09
8.70683347903e-09
-1.82947711567e-10
6.11514048976e-09
8.14505291039e-09
-1.16741424192e-10
5.91829240528e-09
7.49300683063e-09
5.66303991186e-09
6.77083269795e-09
3.30208946175e-13
1.29873116891e-10
5.29160975358e-09
6.58072982348e-09
9.22522133803e-13
2.04092089418e-10
5.51848008839e-09
7.29766001296e-09
2.36701255184e-10
5.67462681698e-09
7.94004724834e-09
2.30572687471e-10
5.79707737485e-09
8.4901357471e-09
1.91041078334e-10
5.88416483548e-09
8.93217408518e-09
1.25641716419e-10
5.94176369551e-09
9.25541506537e-09
4.40616249567e-11
5.97571892544e-09
9.45418694441e-09
-4.28748502119e-11
5.98825589768e-09
9.52354365345e-09
-1.24562174604e-10
5.97558804373e-09
9.4542047442e-09
-1.90171864024e-10
5.94151192495e-09
9.25545507548e-09
-2.30007047091e-10
5.88381319353e-09
8.9322443898e-09
-2.36506229044e-10
5.79666204027e-09
8.49024723359e-09
-2.042865686e-10
5.67419423102e-09
7.9402083824e-09
-1.3040052607e-10
5.51804683013e-09
7.29784391684e-09
5.29106103404e-09
6.58083721137e-09
1.47074406187e-13
1.39649833153e-10
4.80368622327e-09
6.2726122203e-09
7.32958728863e-13
2.19862969428e-10
5.00345584098e-09
6.97925736823e-09
2.54142250397e-10
5.12302811865e-09
7.60803887656e-09
2.46821710804e-10
5.21332853658e-09
8.14352539517e-09
2.04010299694e-10
5.27493362039e-09
8.57206653846e-09
1.33888520003e-10
5.31451435744e-09
8.88447853732e-09
4.67535324576e-11
5.33753825356e-09
9.07597072482e-09
-4.59964014497e-11
5.34610122385e-09
9.14239825131e-09
-1.33211816954e-10
5.33741086547e-09
9.07598739109e-09
-2.03490844808e-10
5.31426717701e-09
8.88451614632e-09
-2.46529096352e-10
5.27458191481e-09
8.57213342948e-09
-2.54128689539e-10
5.21289784105e-09
8.14363312035e-09
-2.20146737265e-10
5.12255481334e-09
7.60819663145e-09
-1.40194280053e-10
5.00294812055e-09
6.97943633031e-09
4.80304536195e-09
6.27271808033e-09
-2.46354437261e-14
1.45911383294e-10
4.24366082911e-09
5.87275787354e-09
5.68462580554e-13
2.30615809838e-10
4.41850678615e-09
6.5669213595e-09
2.66391195275e-10
4.50680402392e-09
7.18083022973e-09
2.58525450364e-10
4.57025991039e-09
7.70108700967e-09
2.13496692034e-10
4.6115018113e-09
8.11595197367e-09
1.39961841023e-10
4.63720650132e-09
8.41759943146e-09
4.87321841332e-11
4.65196326898e-09
8.60191137541e-09
-4.83239895977e-11
4.65747254885e-09
8.66542268104e-09
-1.39614545045e-10
4.65184126803e-09
8.60192455859e-09
-2.13268077024e-10
4.63696726796e-09
8.41762949898e-09
-2.58467325037e-10
4.61115264432e-09
8.11600670439e-09
-2.66541927129e-10
4.5698193461e-09
7.70117788506e-09
-2.30991290376e-10
4.50629512131e-09
7.18096712931e-09
-1.4648515628e-10
4.41793431149e-09
6.56707437294e-09
4.24293586675e-09
5.87284022514e-09
-1.84436994947e-13
1.4920784039e-10
3.64884153239e-09
5.40390778302e-09
4.27808319682e-13
2.37467006862e-10
3.80042720552e-09
6.08551035189e-09
2.75166111207e-10
3.86248006611e-09
6.68501447057e-09
2.67499230194e-10
3.90489315228e-09
7.19072513255e-09
2.20997198451e-10
3.93142667507e-09
7.59267502981e-09
1.44824198017e-10
3.94771167305e-09
7.88424772025e-09
5.03177586276e-11
3.95697438663e-09
8.06184289561e-09
-5.01956901951e-11
3.96040874738e-09
8.1225814828e-09
-1.44748298206e-10
3.95686110049e-09
8.06184942603e-09
-2.21012211141e-10
3.94748467712e-09
7.88426343434e-09
-2.676403154e-10
3.93109274675e-09
7.59270627506e-09
-2.75462273834e-10
3.90445564734e-09
7.19078262703e-09
-2.37927238137e-10
3.86195322923e-09
6.68510954874e-09
-1.49813747269e-10
3.79980571069e-09
6.08561521933e-09
3.64805314742e-09
5.40394606754e-09
-3.23395846935e-13
1.49715737573e-10
3.04997820232e-09
4.88496707838e-09
3.08242650118e-13
2.42253254924e-10
3.17672676091e-09
5.55545228623e-09
2.83359867874e-10
3.21691441753e-09
6.14195851044e-09
2.76530099799e-10
3.24496015915e-09
6.63436611101e-09
2.28670347155e-10
3.26292468111e-09
7.02450217293e-09
1.49799115453e-10
3.27428824944e-09
7.30688160487e-09
5.19618917527e-11
3.28078737868e-09
7.47832180641e-09
-5.2077962867e-11
3.28307360095e-09
7.53646878694e-09
-1.49950824302e-10
3.28068426719e-09
7.47831837104e-09
-2.28886166994e-10
3.27408217185e-09
7.30687588804e-09
-2.76839027078e-10
3.26261162557e-09
7.02449808726e-09
-2.83777054524e-10
3.24454198147e-09
6.63437236232e-09
-2.42785890205e-10
3.21639121767e-09
6.14198847e-09
-1.50345837045e-10
3.17608321028e-09
5.5554872409e-09
3.04915743788e-09
4.88494733642e-09
-4.44327178625e-13
1.36196588814e-10
4.33059825996e-09
1.95856019256e-13
2.48478303202e-09
2.44402236175e-10
4.99268802004e-09
2.55860551112e-09
2.92898044561e-10
5.56776307411e-09
2.58803242924e-09
2.87928933324e-10
6.04828951999e-09
2.61055974256e-09
2.38584369999e-10
6.42787101595e-09
2.62642947366e-09
1.56342388683e-10
6.70204291845e-09
2.63728119548e-09
5.41685289325e-11
6.86794652285e-09
2.64359474456e-09
-5.44855011068e-11
6.92370598268e-09
2.64563883894e-09
-1.56681428636e-10
6.86793135506e-09
2.64350121839e-09
-2.38965202832e-10
6.7020120775e-09
2.63709292741e-09
-2.8836488173e-10
6.42782525349e-09
2.62614292936e-09
-2.93400370845e-10
6.04823338435e-09
2.61016886931e-09
-2.44973937055e-10
5.56771084076e-09
2.58752705688e-09
-1.36823951475e-10
4.99262487443e-09
2.55796074005e-09
4.3305331338e-09
-5.32834667197e-13
2.48395894131e-09
8.68699726381e-12
2.71077816764e-11
8.27793648249e-10
1.55604909467e-14
1.65333156692e-11
2.74966124755e-11
9.16303868817e-10
2.09583084227e-11
2.98501811201e-11
1.00075375855e-09
2.15855082697e-11
3.22741719952e-11
1.07699258347e-09
1.84527463279e-11
3.44586431919e-11
1.14092317769e-09
1.23189296816e-11
3.60846071657e-11
1.18923895362e-09
4.25534715335e-12
3.71127978865e-11
1.21976315059e-09
-4.47638732445e-12
3.7472385388e-11
1.23073635038e-09
-1.25042560638e-11
3.70524799756e-11
1.21977079078e-09
-1.85822599952e-11
3.59437408635e-11
1.18925357202e-09
-2.16773903658e-11
3.42154469207e-11
1.14094286414e-09
-2.10582193137e-11
3.19606817085e-11
1.0770133814e-09
-1.66380592824e-11
2.95791174212e-11
1.00076974737e-09
-8.80195259497e-12
2.72784692927e-11
9.16305367153e-10
2.70017590395e-11
8.27758682925e-10
-6.43619724885e-14
2.06927656062e-11
2.06439766625e-10
2.26661130168e-09
1.6816488171e-13
3.90654269048e-11
2.24247157312e-10
2.50787938148e-09
4.97807781339e-11
2.47506549966e-10
2.73761603758e-09
5.1312451199e-11
2.70175732965e-10
2.94456846773e-09
4.39502869764e-11
2.89873318584e-10
3.11782138054e-09
2.94271296055e-11
3.04866120133e-10
3.24859641757e-09
1.03043081818e-11
3.14330864807e-10
3.33111444209e-09
-1.04135071225e-11
3.17666736405e-10
3.36070329866e-09
-2.94976635985e-11
3.14188686981e-10
3.33113661531e-09
-4.39752872468e-11
3.0454672054e-10
3.24863883636e-09
-5.13496521036e-11
2.89344832335e-10
3.1178785956e-09
-4.99190098849e-11
2.6949644164e-10
2.9446293008e-09
-3.93105551044e-11
2.46869845106e-10
2.73766360782e-09
-2.10026320622e-11
2.23739433649e-10
2.50788671608e-09
2.0612697219e-10
2.26652870778e-09
-1.08421602979e-13
2.91099672769e-11
5.28444829192e-10
3.47917669741e-09
3.733050599e-13
5.43723289038e-11
5.78956049197e-10
3.85231119528e-09
6.91891358968e-11
6.37933337067e-10
4.2067861209e-09
7.12510009912e-11
6.94435904231e-10
4.52546539748e-09
6.1055805613e-11
7.42886973612e-10
4.79183706612e-09
4.09557788721e-11
7.79624501607e-10
4.99265759632e-09
1.4485789812e-11
8.02727267848e-10
5.1192011341e-09
-1.41971167811e-11
8.10879402002e-10
5.16445373412e-09
-4.06652080675e-11
8.02532635295e-10
5.11923626495e-09
-6.07947970243e-11
7.79197910097e-10
4.99272461928e-09
-7.11122023563e-11
7.42198286274e-10
4.79192761742e-09
-6.92788127421e-11
6.93556303292e-10
4.52556301238e-09
-5.46963925168e-11
6.37075151004e-10
4.20686622729e-09
-2.95781626036e-11
5.78254795906e-10
3.85233507022e-09
5.27945281372e-10
3.47907517913e-09
-9.6208156473e-14
3.63008685976e-11
9.34109387168e-10
4.4841488606e-09
5.77885112177e-13
6.67554711045e-11
1.02363040673e-09
4.96976224507e-09
8.44787020744e-11
1.12292903094e-09
5.42952324963e-09
8.68032850258e-11
1.21672865322e-09
5.84169910403e-09
7.43623296263e-11
1.2962538975e-09
6.18544447459e-09
4.99426176331e-11
1.35615117832e-09
6.4441347735e-09
1.7788277101e-11
1.39363709141e-09
6.60685628544e-09
-1.70596526942e-11
1.40685925869e-09
6.66488570211e-09
-4.92597381415e-11
1.39342594549e-09
6.6069010421e-09
-7.37975503893e-11
1.35569728252e-09
6.44422013801e-09
-8.64731115556e-11
1.29553393822e-09
6.18556051605e-09
-8.4493594001e-11
1.21580807484e-09
5.84182700108e-09
-6.71157089969e-11
1.12199530954e-09
5.4296350969e-09
-3.68886860034e-11
1.02282694283e-09
4.96981328936e-09
9.33471690925e-10
4.48405836049e-09
-5.74760490499e-14
4.38225064988e-11
1.36204193159e-09
5.28532413688e-09
7.39565582263e-13
7.88917904596e-11
1.48843599808e-09
5.86330123729e-09
9.89569412786e-11
1.62345028838e-09
6.40795132998e-09
1.01285778766e-10
1.74923746655e-09
6.89435698697e-09
8.66510922912e-11
1.85462489366e-09
7.29873301293e-09
5.8199255227e-11
1.93335191755e-09
7.60228937293e-09
2.07850894785e-11
1.98235346748e-09
7.79280289641e-09
-1.97537083831e-11
1.99962600529e-09
7.86054683445e-09
-5.72506437622e-11
1.982159023e-09
7.79285302214e-09
-8.5886170981e-11
1.93293622822e-09
7.60238519083e-09
-1.00832245731e-10
1.85396583646e-09
7.29886477883e-09
-9.89222065647e-11
1.74838424051e-09
6.89450661092e-09
-7.92721070157e-11
1.6225504293e-09
6.40809169222e-09
-4.44928368103e-11
1.48760715046e-09
5.86338559582e-09
1.36132325734e-09
5.28526382756e-09
-2.22628839504e-14
5.23464475084e-11
1.75730987583e-09
5.88665473386e-09
8.38216582948e-13
9.20920151889e-11
1.9122778276e-09
6.5364979066e-09
1.14289039755e-10
2.07219630774e-09
7.14524956433e-09
1.16361133309e-10
2.21907372492e-09
7.68626011899e-09