/*--------------------------------*- C++ -*----------------------------------*\
  =========                 |
  \\      /  F ield         | OpenFOAM: The Open Source CFD Toolbox
   \\    /   O peration     | Website:  https://openfoam.org
    \\  /    A nd           | Version:  7
     \\/     M anipulation  |
\*---------------------------------------------------------------------------*/
FoamFile
{
    version     2.0;
    format      ascii;
    class       volVectorField;
    location    "1.58";
    object      U;
}
// * * * * * * * * * * * * * * * * * * * * * * * * * * * * * * * * * * * * * //

dimensions      [0 1 -1 0 0 0 0];

internalField   nonuniform List<vector> 
22500
(
(3.26628205279e-05 3.63559871508e-05 0.000733694876473)
(3.0560978284e-05 4.0749104041e-05 0.000770078260268)
(2.67651816662e-05 4.52970202201e-05 0.000803348350909)
(2.25432979638e-05 4.91651297295e-05 0.000831998096905)
(1.75425621615e-05 5.23828627969e-05 0.000855160131747)
(1.20164349847e-05 5.47818607414e-05 0.000872166421293)
(6.09965531485e-06 5.62637479129e-05 0.000882561708931)
(-2.00576385617e-08 5.67650005686e-05 0.000886073071526)
(-6.13890128218e-06 5.6262745643e-05 0.000882557718591)
(-1.20530714202e-05 5.47803823833e-05 0.000872158559029)
(-1.75741009077e-05 5.23821647184e-05 0.000855148864745)
(-2.25671824269e-05 4.91664147661e-05 0.000831984887193)
(-2.67787605266e-05 4.53026458814e-05 0.000803335127681)
(-3.05634030587e-05 4.0759410947e-05 0.000770066508374)
(-3.26564151162e-05 3.63689212177e-05 0.000733675918435)
(9.35594976875e-05 0.000104553281256 0.00178081965839)
(8.72642488967e-05 0.000116877537612 0.00185078746255)
(7.6598456578e-05 0.000129418909257 0.00191382146029)
(6.43662706435e-05 0.000140171245243 0.00196735959803)
(5.00609955459e-05 0.000149100516001 0.00201012247613)
(3.42645783138e-05 0.000155752892436 0.00204122748474)
(1.7388135614e-05 0.000159861943603 0.00206011892597)
(-4.83688699636e-08 0.000161251879558 0.0020664721489)
(-1.74829305062e-05 0.000159862003238 0.00206010581347)
(-3.43534164652e-05 0.000155754120085 0.00204120187473)
(-5.01386047762e-05 0.000149105376184 0.00201008612301)
(-6.44266820487e-05 0.000140181956497 0.00196731698281)
(-7.66357029032e-05 0.000129439397787 0.00191377871314)
(-8.72762983644e-05 0.000116907342117 0.00185074901301)
(-9.35496917557e-05 0.000104587882533 0.00178076860233)
(0.00013588474687 0.000151918033556 0.00253359234485)
(0.000126029480491 0.000168570701837 0.00261562984581)
(0.000110251315311 0.000185418049153 0.0026885132003)
(9.22605455682e-05 0.000199779523038 0.00274968234355)
(7.15391343393e-05 0.000211645083249 0.00279801784672)
(4.88519535864e-05 0.000220450677068 0.00283288258167)
(2.47559121947e-05 0.000225876952245 0.00285393354963)
(-6.77104268437e-08 0.000227711261746 0.00286098557534)
(-2.48888390461e-05 0.000225880723261 0.00285391390468)
(-4.8977181931e-05 0.000220459524699 0.00283284435851)
(-7.16501015107e-05 0.00021166168304 0.00279796386501)
(-9.23496134869e-05 0.000199806090947 0.0027496190948)
(-0.000110310464245 0.000185457492587 0.0026884500835)
(-0.000126055652512 0.000168620721043 0.00261557397817)
(-0.000135879834403 0.000151971989209 0.00253352171644)
(0.000164553976625 0.000183965549267 0.00307840609868)
(0.000151754299928 0.000202447998199 0.00316040372994)
(0.000132199042552 0.000221154816292 0.00323213582078)
(0.000110147907255 0.000236931957725 0.00329157807381)
(8.51256406191e-05 0.000249894731889 0.00333801469306)
(5.79838629366e-05 0.000259467828027 0.00337120881517)
(2.93380663598e-05 0.000265349705941 0.00339112432631)
(-8.07183328765e-08 0.000267335775057 0.00339776973573)
(-2.94966421725e-05 0.000265356854792 0.00339110212908)
(-5.81335954392e-05 0.000259483422576 0.00337116579826)
(-8.52593038972e-05 0.000249921226541 0.00333795426914)
(-0.000110257228825 0.000236971264905 0.00329150759058)
(-0.000132275086358 0.000221208592425 0.003232066442)
(-0.000151793623937 0.000202512542177 0.00316034467501)
(-0.000164556872906 0.000184033602973 0.00307833509216)
(0.000183354437094 0.000205024350705 0.00347217629902)
(0.000168180750408 0.000223720290995 0.00354743792103)
(0.000145879827215 0.000242756870451 0.00361213653057)
(0.000121044171352 0.000258613306322 0.00366498667613)
(9.32479211198e-05 0.000271567883411 0.00370574917861)
(6.33636531953e-05 0.000281088035428 0.00373459198416)
(3.20125368372e-05 0.000286919934249 0.00375177329054)
(-8.87858977302e-08 0.000288886762458 0.00375748231714)
(-3.21870186011e-05 0.000286929668783 0.00375175194398)
(-6.35286124791e-05 0.000281108668127 0.003734550821)
(-9.33958830177e-05 0.000271601452963 0.00370569175664)
(-0.000121166836619 0.000258661283014 0.00366492035378)
(-0.000145968284934 0.000242820050969 0.00361207302164)
(-0.00016823147235 0.000223793918278 0.00354738773984)
(-0.000183366378538 0.000205101781084 0.00347211909726)
(0.000194390439277 0.000217412108036 0.00375462015207)
(0.000177368420628 0.000235187396546 0.00381980822106)
(0.000153184039276 0.000253504748448 0.00387475196779)
(0.000126600697076 0.000268560697945 0.00391890131483)
(9.72319299887e-05 0.000280792099851 0.00395245997458)
(6.59205148674e-05 0.000289738823673 0.00397592856748)
(3.32578105658e-05 0.00029520399511 0.00398979365318)
(-9.29606391963e-08 0.000297045216126 0.00399437955045)
(-3.3440555826e-05 0.000295215628011 0.00398977542717)
(-6.60935150936e-05 0.000289763046407 0.00397589365648)
(-9.73878113752e-05 0.000280830459079 0.0039524117777)
(-0.000126731503255 0.00026861414495 0.00391884675565)
(-0.00015328148657 0.000253573396351 0.00387470262719)
(-0.000177429140423 0.000235265934336 0.00381977506402)
(-0.000194411849431 0.000217494943262 0.00375458411255)
(0.000199275600645 0.000222876065822 0.00395464801741)
(0.000180891050606 0.000238964593056 0.00400858369589)
(0.000155555317741 0.000255858204037 0.00405305485383)
(0.000128069369393 0.000269555957549 0.00408812249554)
(9.80770361042e-05 0.000280623117351 0.00411433367152)
(6.63516479947e-05 0.000288684136719 0.00413241509762)
(3.34318124834e-05 0.000293595876723 0.00414299504854)
(-9.41452616534e-08 0.000295249324454 0.00414647626197)
(-3.36169639065e-05 0.000293608707213 0.00414298107188)
(-6.65272233174e-05 0.000288710523254 0.00413238861179)
(-9.82360281627e-05 0.000280664101746 0.00411429780133)
(-0.000128204414876 0.000269611986129 0.00408808363115)
(-0.000155658986268 0.000255928838206 0.00405302421417)
(-0.000180960392822 0.000239044459471 0.00400857191336)
(-0.000199306417215 0.000222960825938 0.00395463586109)
(0.000199426446435 0.000222974423054 0.00409384563777)
(0.000180121127773 0.000236919027587 0.00413672041221)
(0.000154244215017 0.000251957830956 0.00417123442526)
(0.00012652485253 0.000263987806743 0.00419787687264)
(9.66339974358e-05 0.000273658180919 0.00421740689311)
(6.52467316774e-05 0.000280677694206 0.00423066412781)
(3.28359594149e-05 0.000284946234927 0.00423833310627)
(-9.31740918139e-08 0.000286382488917 0.00424084144566)
(-3.30192988726e-05 0.000284959535226 0.00423832361428)
(-6.54209577573e-05 0.000280704789966 0.00423064652077)
(-9.67926496876e-05 0.00027369967649 0.00421738406366)
(-0.00012666129756 0.000264043726412 0.00419785481663)
(-0.000154351976596 0.000252027371238 0.00417122403978)
(-0.000180197697128 0.000236996999651 0.00413673129964)
(-0.00019946622255 0.000223058091971 0.00409385699851)
(0.000196025035767 0.000219022655293 0.0041885132121)
(0.000176188010445 0.000230599114451 0.00422133276645)
(0.00015026789391 0.000243548062142 0.00424709382358)
(0.000122832350252 0.000253770874929 0.00426651651159)
(9.35810393416e-05 0.000261953032667 0.00428043714203)
(6.30722328178e-05 0.000267879315229 0.00428970681411)
(3.17074591249e-05 0.000271478740752 0.00429499532233)
(-9.07652884984e-08 0.000272689830832 0.00429671286734)
(-3.18861864852e-05 0.000271491836539 0.00429498997546)
(-6.32425237818e-05 0.000267905799672 0.00428969744228)
(-9.37370926745e-05 0.000261993167533 0.00428042654282)
(-0.000122968331002 0.000253824396676 0.00426651053791)
(-0.000150378279843 0.000243613975293 0.00424710319109)
(-0.00017627064444 0.000230672662244 0.00422136538083)
(-0.00019607307414 0.000219102733275 0.00418854568274)
(0.000190019255995 0.000212083138767 0.00425096873422)
(0.000169980075943 0.000221227359268 0.00427515439749)
(0.000144415334728 0.000231978972481 0.00429367108439)
(0.000117656609839 0.000240359805967 0.00430728687152)
(8.94339414217e-05 0.000247048280472 0.00431679705757)
(6.01797918501e-05 0.00025189138658 0.00432298505088)
(3.02240406071e-05 0.000254832939562 0.00432645542039)
(-8.75414662193e-08 0.000255823268469 0.00432757285289)
(-3.03965760064e-05 0.000254845236807 0.0043264535889)
(-6.03447097824e-05 0.000251916118464 0.00432298271073)
(-8.95861433453e-05 0.000247085484953 0.00431679706783)
(-0.000117791067674 0.000240409078652 0.00430729519009)
(-0.000144527427581 0.00023203931747 0.0042936983634)
(-0.000170067935059 0.000221294603284 0.00427520615465)
(-0.00019007489376 0.000212157709756 0.00425101843283)
(0.000182157753872 0.000203004600208 0.0042904643326)
(0.00016218219256 0.000209749338844 0.00430757756825)
(0.000137286622397 0.000218270927575 0.00432040348295)
(0.000111499708399 0.000224834018238 0.00432960618198)
(8.45781216663e-05 0.000230072529769 0.00433585190184)
(5.68293013114e-05 0.000233875920561 0.00433980455567)
(2.85160231083e-05 0.00023618991606 0.00434197426721)
(-8.40050731163e-08 0.000236970029245 0.00434266557546)
(-2.86817775804e-05 0.0002362009524 0.00434197521062)
(-5.69883360771e-05 0.000233898021057 0.00433980780271)
(-8.47260435589e-05 0.000230105613982 0.00433586046922)
(-0.000111632248637 0.000224877683728 0.00432962628442)
(-0.000137399958394 0.00021832434131 0.00432044574216)
(-0.000162274657164 0.000209809029849 0.00430764438853)
(-0.000182220427147 0.000203072449192 0.00429052582585)
(0.000173023197177 0.000192464860066 0.00431389585057)
(0.000153316373694 0.000196878979402 0.0043254655359)
(0.00012933738765 0.000203175501947 0.00433403629596)
(0.000104740391093 0.000207979135307 0.00434005953621)
(7.92990007973e-05 0.000211839280735 0.00434402479771)
(5.32094015163e-05 0.00021466173402 0.00434645409952)
(2.66766862112e-05 0.000216385181925 0.00434775288635)
(-8.05493557032e-08 0.00021696753928 0.00434816153335)
(-2.68358422895e-05 0.000216394612882 0.00434775580099)
(-5.33627748385e-05 0.000214680580025 0.00434646129334)
(-7.94428512571e-05 0.000211867442061 0.00434403939264)
(-0.000104871116369 0.000208016294084 0.00434008796884)
(-0.000129451818209 0.000203221103245 0.00433408912769)
(-0.000153412938395 0.000196930295265 0.00432554146103)
(-0.00017309240805 0.00019252492148 0.00431396148513)
(0.000163054811884 0.000180972729031 0.00432640995377)
(0.000143795145227 0.000183119208885 0.00433384385047)
(0.000120930742736 0.000187231304671 0.00433937696084)
(9.76694225457e-05 0.00019036494201 0.00434320479673)
(7.38040755306e-05 0.000192934669131 0.00434564543629)
(4.94507955114e-05 0.000194835916651 0.00434708646033)
(2.47687965536e-05 0.000196002575001 0.00434783335256)
(-7.74752468166e-08 0.00019639775492 0.00434806512861)
(-2.49221069144e-05 0.00019601022153 0.00434783729781)
(-4.95992241018e-05 0.000194851222778 0.00434709555639)
(-7.39445019475e-05 0.000192957496435 0.00434566259056)
(-9.77988074714e-05 0.00019039516441 0.00434323629773)
(-0.000121046399412 0.000187268704502 0.00433943327056)
(-0.000143895513261 0.000183161792995 0.00433392017376)
(-0.000163130106372 0.000181024388702 0.00432646974851)
(0.000152635138337 0.00016885252001 0.00433198567718)
(0.000134036317312 0.000168802466455 0.00433653260035)
(0.000112381376735 0.000170809570546 0.00433994175927)
(9.04940780276e-05 0.00017241811221 0.00434223536348)
(6.82200986748e-05 0.000173791930739 0.00434363101876)
(4.56251774709e-05 0.000174822327169 0.00434441390265)
(2.28248840968e-05 0.000175456465672 0.00434480302252)
(-7.49442889434e-08 0.000175671899012 0.00434492178103)
(-2.29733986011e-05 0.000175462377602 0.00434480680728)
(-4.576969318e-05 0.000174834161126 0.00434442217663)
(-6.83580018266e-05 0.000173809618103 0.00434364575357)
(-9.06226991173e-05 0.00017244164635 0.00434226161235)
(-0.000112498380206 0.000170838969794 0.00433998944635)
(-0.000134140163358 0.000168836595476 0.00433659586225)
(-0.000152716271506 0.000168895991386 0.00433202766847)
(0.000142362180283 0.00015619412831 0.00433409409439)
(0.000124571578524 0.000153188745983 0.00433675163315)
(0.000103841487937 0.000153667631686 0.00433848923878)
(8.32774897859e-05 0.000154021060358 0.00433951230402)
(6.25653604541e-05 0.000154372780125 0.00434002843413)
(4.17387113795e-05 0.00015464001085 0.00434025771448)
(2.08476238099e-05 0.000154804557622 0.00434034752539)
(-7.29502489412e-08 0.000154861389874 0.00434037193478)
(-2.09924055547e-05 0.000154808893225 0.00434035004414)
(-4.18802122748e-05 0.000154648647559 0.00434026251791)
(-6.27014700344e-05 0.000154385730853 0.00434003556654)
(-8.34059204416e-05 0.000154038281837 0.004339523517)
(-0.000103959854532 0.000153689445519 0.00433851243684)
(-0.00012467798123 0.000153214456532 0.00433677413332)
(-0.000142448728798 0.000156229267062 0.0043341196879)
(1.14018192397e-06 1.81232212857e-06 0.000458244660013)
(7.4094258958e-07 2.32497042901e-06 0.000481320885811)
(5.74370399342e-07 2.62768387847e-06 0.000502384835098)
(3.94358427672e-07 2.86557591538e-06 0.000520607464654)
(2.47777667048e-07 3.03023724321e-06 0.000535388773916)
(1.45658305162e-07 3.13253689131e-06 0.000546266579493)
(7.73016161718e-08 3.18769390226e-06 0.000552928687165)
(2.91010119499e-08 3.20638147884e-06 0.000555187074866)
(-2.12808542357e-08 3.1917403848e-06 0.000552931887532)
(-9.62888040623e-08 3.13944146305e-06 0.000546272437143)
(-2.09723367953e-07 3.03778295298e-06 0.000535396155607)
(-3.70363803254e-07 2.87137274312e-06 0.000520614750544)
(-5.64963919746e-07 2.62836080811e-06 0.000502390861122)
(-7.43763028929e-07 2.32003052948e-06 0.000481322105762)
(-1.14873834404e-06 1.80268338683e-06 0.000458229853392)
(1.02358364813e-05 1.23629937097e-05 0.00129256619727)
(9.00092676435e-06 1.49773836401e-05 0.00135353261891)
(8.00247256767e-06 1.72244321447e-05 0.00140907975653)
(6.73431541187e-06 1.91983963297e-05 0.0014570159473)
(5.24461466212e-06 2.07944980687e-05 0.00149580753627)
(3.60542669165e-06 2.19622043329e-05 0.00152430416344)
(1.8599614867e-06 2.26754514993e-05 0.0015417319101)
(6.28545779872e-08 2.29183407995e-05 0.00154762365425)
(-1.7390019582e-06 2.26838513975e-05 0.00154173995711)
(-3.49889331392e-06 2.19766193911e-05 0.00152431879103)
(-5.16222701672e-06 2.08104267307e-05 0.00149582573836)
(-6.68247269645e-06 1.92107722283e-05 0.00145703369938)
(-7.98212851622e-06 1.72263625125e-05 0.00140909413215)
(-9.00688959142e-06 1.49672472913e-05 0.00135353443157)
(-1.02545733351e-05 1.23419896577e-05 0.00129252941058)
(2.30894456731e-05 2.65585130889e-05 0.00204694970559)
(2.08089278201e-05 3.15948306467e-05 0.00213739735714)
(1.86175759261e-05 3.61468943968e-05 0.00221932373638)
(1.57934317597e-05 4.01770114833e-05 0.00228962861448)
(1.23883659242e-05 4.34745804143e-05 0.00234623170753)
(8.54590852435e-06 4.59118748326e-05 0.00238764402912)
(4.39045769166e-06 4.74101389207e-05 0.00241289391692)
(7.62549853559e-08 4.79190746331e-05 0.00242140654953)
(-4.24363828594e-06 4.74191540666e-05 0.00241290386834)
(-8.41635239416e-06 4.59272732485e-05 0.00238766199642)
(-1.22875490476e-05 4.34914463857e-05 0.00234625398674)
(-1.57293940545e-05 4.01896901765e-05 0.00228965055296)
(-1.85919048193e-05 3.61480705488e-05 0.00221934202211)
(-2.08153725511e-05 3.15817924204e-05 0.00213740062163)
(-2.31122974034e-05 2.65320705503e-05 0.00204690102223)
(3.70811002228e-05 4.15924322076e-05 0.00271549536852)
(3.35382157229e-05 4.88693331317e-05 0.00282566056786)
(2.99654426482e-05 5.54682252438e-05 0.00292451356657)
(2.53950794747e-05 6.13083950333e-05 0.00300862782638)
(1.99089351492e-05 6.60868529003e-05 0.00307583745117)
(1.3717949724e-05 6.96180683e-05 0.00312471247624)
(7.02507033834e-06 7.17880124029e-05 0.00315438193541)
(7.62988839696e-08 7.25232384568e-05 0.003164353827)
(-6.87811187123e-06 7.17964172009e-05 0.00315439140876)
(-1.35880647886e-05 6.96324102962e-05 0.00312472954395)
(-1.9807393937e-05 6.6102600986e-05 0.00307585890988)
(-2.53301248602e-05 6.13201281605e-05 0.00300865012065)
(-2.99392561447e-05 5.54692827766e-05 0.00292453456736)
(-3.35446397633e-05 4.88562102288e-05 0.00282566951446)
(-3.71049681666e-05 4.15649596724e-05 0.0027154497452)
(5.0490272879e-05 5.56719476444e-05 0.0032924800075)
(4.55509713366e-05 6.47660800858e-05 0.00341241172803)
(4.05572861335e-05 7.28844659759e-05 0.00351873065941)
(3.42556613235e-05 8.00479022281e-05 0.0036082290931)
(2.67858768907e-05 8.588695921e-05 0.00367906201515)
(1.84137008942e-05 9.01878328457e-05 0.0037301792243)
(9.40368080168e-06 9.28245900047e-05 0.00376104042436)
(6.87824696108e-08 9.37157418747e-05 0.00377137762493)
(-9.27115756202e-06 9.28317789824e-05 0.00376104823796)
(-1.82963919112e-05 9.02000963131e-05 0.00373019355036)
(-2.66937807533e-05 8.59004459305e-05 0.00367908102867)
(-3.41963747775e-05 8.00578991752e-05 0.00360825141009)
(-4.05333532891e-05 7.28852690509e-05 0.00351875648273)
(-4.55573389745e-05 6.47541917275e-05 0.00341243227466)
(-5.05134554663e-05 5.5645679826e-05 0.00329244982505)
(6.23338713505e-05 6.78413001132e-05 0.00377702248157)
(5.595672871e-05 7.82311014929e-05 0.00389788285235)
(4.96002186259e-05 8.72571536323e-05 0.00400350091373)
(4.17095995728e-05 9.51870706261e-05 0.00409129864442)
(3.2501468218e-05 0.000101612876627 0.00416001777177)
(2.22801829902e-05 0.00010632295006 0.00420916722034)
(1.13491660927e-05 0.000109200853723 0.00423865180219)
(5.78302272016e-08 0.000110170955334 0.00424849134834)
(-1.12376899133e-05 0.000109206417442 0.00423865808586)
(-2.2181312118e-05 0.000106332427699 0.0042091793164)
(-3.24234802135e-05 0.00010162323678 0.00416003559312)
(-4.16590871533e-05 9.51945444153e-05 0.00409132337365)
(-4.957983922e-05 8.72571446362e-05 0.00400353559201)
(-5.59629939219e-05 7.8220454123e-05 0.00389792093294)
(-6.23556929288e-05 6.78171179026e-05 0.00377701596572)
(7.20600360611e-05 7.76107585962e-05 0.00417326256352)
(6.42940357144e-05 8.87552402397e-05 0.00428811424539)
(5.6703846851e-05 9.80947944106e-05 0.00438687765858)
(4.74491326434e-05 0.000106257192869 0.00446783518551)
(3.68291207515e-05 0.000112822135894 0.00453041847761)
(2.5169917399e-05 0.000117605753657 0.00457473018113)
(1.27901431683e-05 0.000120516773548 0.00460112243906)
(4.61097464923e-08 0.00012149536245 0.00460989484541)
(-1.27012017771e-05 0.000120520596113 0.0046011280423)
(-2.50908478689e-05 0.000117612205017 0.00457474178857)
(-3.67664451199e-05 0.000112829007865 0.0045304377306)
(-4.74083308017e-05 0.000106261662187 0.00446786577298)
(-5.66875970717e-05 9.80934578369e-05 0.00438692542975)
(-6.43002410387e-05 8.8745295037e-05 0.00428817441699)
(-7.20803794772e-05 7.75887882853e-05 0.00417328424655)
(7.94294361299e-05 8.48115703386e-05 0.00448905168063)
(7.04021348602e-05 9.62039418909e-05 0.00459311654807)
(6.17586792218e-05 0.000105344445294 0.00468105156666)
(5.14130516989e-05 0.000113283702958 0.00475205306885)
(3.97409352601e-05 0.00011961312582 0.00480620399234)
(2.70745434675e-05 0.000124194145361 0.0048441226881)
(1.37263793221e-05 0.000126969344123 0.00486652909805)
(3.51470581404e-08 0.000127899674827 0.00487394480512)
(-1.36585400963e-05 0.000126971502063 0.00486653502628)
(-2.70140975886e-05 0.000124197659589 0.00484413573528)
(-3.96928264232e-05 0.000119616505168 0.00480622732696)
(-5.13816743977e-05 0.000113284997405 0.00475209257933)
(-6.17466385669e-05 0.000105341328674 0.00468111555589)
(-7.04084515018e-05 9.61941111756e-05 0.00459320104228)
(-7.94483160038e-05 8.47912417352e-05 0.00448910260819)
(8.44326600631e-05 8.95025749224e-05 0.00473439280931)
(7.43298655282e-05 0.00010070142825 0.0048249302371)
(6.484443794e-05 0.000109241199868 0.00490003851733)
(5.37007538793e-05 0.000116603284161 0.00495973515924)
(4.13351200853e-05 0.000122412925048 0.00500461681908)
(2.80722217696e-05 0.000126586518508 0.00503567219221)
(1.42012715148e-05 0.000129102781617 0.00505386607616)
(2.56394511332e-08 0.000129943950623 0.005059860255)
(-1.41517636611e-05 0.000129103444996 0.00505387310337)
(-2.80280525762e-05 0.00012658735395 0.00503568808547)
(-4.12999200662e-05 0.000122413013958 0.00500464599234)
(-5.36779527067e-05 0.000116601408252 0.0049597852935)
(-6.48364326077e-05 0.000109235912805 0.00490011983707)
(-7.43365061486e-05 0.000100690973026 0.00482503840578)
(-8.44502054991e-05 8.94830261061e-05 0.00473447057671)
(8.72153795514e-05 9.18893210692e-05 0.00492009979237)
(7.62575242182e-05 0.000102530178979 0.00499607187456)
(6.61532255356e-05 0.000110180955685 0.00505793310857)
(5.45019104612e-05 0.000116713021496 0.00510632696355)
(4.17777990909e-05 0.00012180654992 0.00514217630579)
(2.8286156386e-05 0.000125436039966 0.00516667209149)
(1.42803764906e-05 0.00012761348459 0.00518089235329)
(1.77514873585e-08 0.000128339391034 0.00518555513712)
(-1.42461168641e-05 0.000127612870351 0.00518090080069)
(-2.82556448313e-05 0.000125434544108 0.005166691297)
(-4.17536288461e-05 0.000121803667546 0.0051422116036)
(-5.44866741324e-05 0.00011670809151 0.00510638737636)
(-6.61490000546e-05 0.000110173207263 0.00505803018236)
(-7.62646027377e-05 0.00010251835921 0.00499619970235)
(-8.72317184847e-05 9.18695730699e-05 0.00492019834359)
(8.80150193082e-05 9.22589859188e-05 0.00505682105923)
(7.64348589143e-05 0.000102051585957 0.00511848186714)
(6.59316608781e-05 0.000108622707536 0.00516779921683)
(5.40459649711e-05 0.000114158785813 0.00520579223146)
(4.12627365905e-05 0.000118415306758 0.00523351963881)
(2.78565340499e-05 0.000121422208919 0.00525222164695)
(1.4037083727e-05 0.000123217530885 0.00526297546849)
(1.1344928966e-08 0.00012381450638 0.00526648445739)
(-1.40152500503e-05 0.000123215880129 0.00526298506139)
(-2.78372823903e-05 0.000121418787534 0.00525224339137)
(-4.12478730427e-05 0.00011840987327 0.00523355939131)
(-5.40373755834e-05 0.000114151050002 0.00520585986146)
(-6.59310127855e-05 0.000108612360564 0.00516790703495)
(-7.64425505561e-05 0.000102037763764 0.00511862132433)
(-8.8030229389e-05 9.22380344715e-05 0.0050569300395)
(8.71061807688e-05 9.09276011294e-05 0.00515443714613)
(7.51322670657e-05 9.96420311405e-05 0.00520294320372)
(6.4440928843e-05 0.000105013870501 0.00524111656615)
(5.25709310258e-05 0.000109456533389 0.00527009532838)
(3.99878329565e-05 0.000112817099977 0.0052909263204)
(2.69245792234e-05 0.000115170990987 0.00530479078759)
(1.35445835714e-05 0.000116570763181 0.00531268524589)
(6.15330973001e-09 0.000117035154277 0.00531524854208)
(-1.35328595435e-05 0.000116568348694 0.00531269498203)
(-2.69146139232e-05 0.000115166114325 0.00530481275287)
(-3.99808512226e-05 0.000112809644218 0.00529096634562)
(-5.25682259757e-05 0.000109446431079 0.00527016353304)
(-6.44437185592e-05 0.000105001072614 0.00524122566638)
(-7.51408070289e-05 9.96259832469e-05 0.00520308146488)
(-8.71204454285e-05 9.09049600861e-05 0.00515454100056)
(8.4748491089e-05 8.81854631344e-05 0.00522179139159)
(7.26072289207e-05 9.56332878087e-05 0.00525889491873)
(6.19412727689e-05 9.97369613952e-05 0.00528765604121)
(5.0315362096e-05 0.000103044462259 0.00530913601536)
(3.81492846888e-05 0.000105504843148 0.00532431526635)
(2.56282918187e-05 0.000107217186268 0.00533427239526)
(1.28736069015e-05 0.000108232915485 0.00533988357199)
(1.90521858673e-09 0.000108569381104 0.00534169604709)
(-1.28701919336e-05 0.000108230028681 0.00533989161646)
(-2.56260728015e-05 0.000107211357192 0.00533429045652)
(-3.81490419993e-05 0.000105496040442 0.00532434832095)
(-5.03178868866e-05 0.000103032648709 0.00530919355046)
(-6.19473130985e-05 9.97222093766e-05 0.00528775111858)
(-7.26167354357e-05 9.56152050084e-05 0.00525901367173)
(-8.47619314203e-05 8.81611881956e-05 0.00522187015453)
(8.11846484459e-05 8.42828018371e-05 0.00526670153714)
(6.91366119558e-05 9.0415085488e-05 0.00529456177104)
(5.87323970082e-05 9.31633676082e-05 0.00531563939355)
(4.75403809017e-05 9.53286215205e-05 0.00533095628897)
(3.59522554792e-05 9.69191053218e-05 0.00534151746172)
(2.41066930422e-05 9.80233365545e-05 0.00534831499909)
(1.20938429634e-05 9.86778197398e-05 0.00535209708154)
(-1.62916888651e-09 9.88942109661e-05 0.00535331060772)
(-1.2097378973e-05 9.86747449324e-05 0.00535210084544)
(-2.41109893552e-05 9.80171394924e-05 0.00534832337282)
(-3.59577751073e-05 9.6909716964e-05 0.00534153333088)
(-4.75475258943e-05 9.53159822016e-05 0.0053309868039)
(-5.87414469584e-05 9.3147496007e-05 0.00531569748802)
(-6.91470653939e-05 9.03955841892e-05 0.00529463583764)
(-8.11973306733e-05 8.42570800949e-05 0.00526673333248)
(7.65009137344e-05 8.06990959664e-05 0.00529631222661)
(6.50419268055e-05 8.45620281331e-05 0.00531738042413)
(5.51083902447e-05 8.57557429459e-05 0.00533198537488)
(4.44793862086e-05 8.6740166206e-05 0.00534202694099)
(3.35711831935e-05 8.74354632451e-05 0.00534864700397)
(2.24739817066e-05 8.79130921678e-05 0.00535276684872)
(1.12616218878e-05 8.81934331508e-05 0.00535500751857)
(-4.61328773226e-09 8.82851452636e-05 0.00535571707266)
(-1.12710008114e-05 8.81906208572e-05 0.00535500454068)
(-2.24837871294e-05 8.79074253992e-05 0.00535276007293)
(-3.35815897703e-05 8.74267992332e-05 0.00534863588024)
(-4.44904751468e-05 8.67283733254e-05 0.00534201340954)
(-5.5120175499e-05 8.57406094459e-05 0.00533198006771)
(-6.50531481897e-05 8.45429128894e-05 0.00531736742794)
(-7.65130208098e-05 8.06738774536e-05 0.00529629517072)
(-9.07965565183e-08 -3.46127305926e-07 0.000319873056125)
(1.51223918512e-07 -5.66352056359e-07 0.000336282871721)
(3.58744992282e-07 -6.8643778115e-07 0.000351395770095)
(4.61900421389e-07 -7.08980575801e-07 0.000364592186192)
(4.63566194535e-07 -6.75352153213e-07 0.00037535812286)
(3.6740690884e-07 -6.2040300535e-07 0.00038331169626)
(2.00850246369e-07 -5.74644126181e-07 0.000388194719179)
(-3.34484466802e-09 -5.57412938246e-07 0.000389852441075)
(-2.0694590651e-07 -5.75506910305e-07 0.000388194858344)
(-3.71880107557e-07 -6.22017773761e-07 0.000383312123576)
(-4.66168632939e-07 -6.77637214032e-07 0.000375358875792)
(-4.63784857372e-07 -7.11948592553e-07 0.0003645926509)
(-3.60829568976e-07 -6.89568420805e-07 0.000351394249595)
(-1.5368232592e-07 -5.69777879457e-07 0.000336276089005)
(8.84451205744e-08 -3.48882612059e-07 0.000319850923454)
(1.03210936583e-06 5.87375414877e-07 0.000952775182229)
(1.53133133554e-06 3.79969433551e-07 0.00100055612519)
(1.93131088253e-06 4.16500331058e-07 0.00104465220073)
(2.03882261893e-06 6.64390260424e-07 0.00108316095322)
(1.85642935314e-06 1.00304683092e-06 0.00111458130935)
(1.40285010384e-06 1.33140958432e-06 0.00113779834922)
(7.52818604864e-07 1.56416388346e-06 0.0011520504237)
(-1.71500490745e-09 1.64762852685e-06 0.00115687737631)
(-7.55464515573e-07 1.56251941187e-06 0.00115205310415)
(-1.40348337707e-06 1.32807107598e-06 0.00113780389808)
(-1.85529582978e-06 9.97826767258e-07 0.00111458934867)
(-2.03846033328e-06 6.57070119182e-07 0.00108316907908)
(-1.93394392624e-06 4.07946341273e-07 0.00104465500676)
(-1.53688553239e-06 3.7011740147e-07 0.00100054330427)
(-1.03858867396e-06 5.78289911282e-07 0.000952722390654)
(3.59325494547e-06 3.24640004979e-06 0.0015698038373)
(4.1533692042e-06 3.491308951e-06 0.00164670116268)
(4.52961492061e-06 4.07717481223e-06 0.00171757573899)
(4.42535673282e-06 4.9138399851e-06 0.00177935811955)
(3.84614074298e-06 5.79831580347e-06 0.00182968694735)
(2.83145663229e-06 6.56577720629e-06 0.00186682819472)
(1.50142495993e-06 7.08207346951e-06 0.00188960270124)
(4.25245507484e-09 7.26364159315e-06 0.00189730221904)
(-1.49257405596e-06 7.08045190455e-06 0.00188960899908)
(-2.82190755731e-06 6.56206851556e-06 0.00186684081178)
(-3.83701716628e-06 5.79170130686e-06 0.00182970490402)
(-4.41992484924e-06 4.90365252543e-06 0.00177937747866)
(-4.53064386496e-06 4.06419659072e-06 0.00171758834925)
(-4.16054844657e-06 3.47592781701e-06 0.00164669120724)
(-3.60293834531e-06 3.23095699154e-06 0.00156973567115)
(7.66760437557e-06 7.64571156037e-06 0.00216282542832)
(8.12119697723e-06 8.71308485885e-06 0.00226500783346)
(8.27085906914e-06 1.01712087636e-05 0.00235876567676)
(7.7349754115e-06 1.18574939109e-05 0.00244015523997)
(6.5305324794e-06 1.34822992855e-05 0.00250621065581)
(4.72399945329e-06 1.48214887441e-05 0.00255481074758)
(2.48238967217e-06 1.5697905179e-05 0.00258454352029)
(1.08864834244e-08 1.60026437545e-05 0.00259457557433)
(-2.46092849259e-06 1.56967816408e-05 0.00258455318398)
(-4.70373056275e-06 1.48184280794e-05 0.00255482992869)
(-6.51348507397e-06 1.34759253096e-05 0.00250623805149)
(-7.72472055245e-06 1.18466031086e-05 0.00244018635357)
(-8.27015097449e-06 1.01560409131e-05 0.00235879136324)
(-8.12945203606e-06 8.69410175287e-06 0.00226500910685)
(-7.67991927692e-06 7.62510020648e-06 0.00216275874023)
(1.28214329291e-05 1.32395341671e-05 0.00272136691493)
(1.3020135908e-05 1.53090113516e-05 0.00284327404816)
(1.2774626421e-05 1.77626691187e-05 0.00295428440906)
(1.163483642e-05 2.03759008537e-05 0.00305001791124)
(9.64117480946e-06 2.27799911706e-05 0.00312726456737)
(6.89109856394e-06 2.47055072409e-05 0.00318383066223)
(3.59661983661e-06 2.59449731926e-05 0.00321831743883)
(1.54725325539e-08 2.63727711237e-05 0.00322992633568)
(-3.56653601187e-06 2.59444226128e-05 0.00321832940494)
(-6.86376180478e-06 2.47034002923e-05 0.00318385448863)
(-9.61924266661e-06 2.27746017567e-05 0.00312729923469)
(-1.16218828468e-05 2.03655735708e-05 0.0030500596061)
(-1.27731433084e-05 1.77469900294e-05 0.0029543248187)
(-1.30292925013e-05 1.52881160979e-05 0.00284329302831)
(-1.28358324595e-05 1.32153501776e-05 0.00272131464501)
(1.85519630496e-05 1.94360427171e-05 0.00323501222687)
(1.83691650355e-05 2.25124876801e-05 0.00336984866246)
(1.75992107085e-05 2.59059767079e-05 0.00349136943816)
(1.57405901789e-05 2.93612906196e-05 0.00359525943691)