/*--------------------------------*- C++ -*----------------------------------*\
  =========                 |
  \\      /  F ield         | OpenFOAM: The Open Source CFD Toolbox
   \\    /   O peration     | Website:  https://openfoam.org
    \\  /    A nd           | Version:  7
     \\/     M anipulation  |
\*---------------------------------------------------------------------------*/
FoamFile
{
    version     2.0;
    format      ascii;
    class       volVectorField;
    location    "0.14";
    object      U;
}
// * * * * * * * * * * * * * * * * * * * * * * * * * * * * * * * * * * * * * //

dimensions      [0 1 -1 0 0 0 0];

internalField   nonuniform List<vector> 
22500
(
(-2.48158971429e-05 -2.83761382116e-05 0.000125674736281)
(-2.26099851487e-05 -3.26706312365e-05 0.000134046331823)
(-1.97413766793e-05 -3.6658240553e-05 0.000143218779613)
(-1.64317615714e-05 -4.00578213628e-05 0.000152080240562)
(-1.27034479916e-05 -4.28027707283e-05 0.000159799353774)
(-8.68927412134e-06 -4.48126083493e-05 0.000165739381168)
(-4.47654167175e-06 -4.60431516476e-05 0.000169456283343)
(-1.59397874805e-07 -4.64678630017e-05 0.000170694376127)
(4.16159234072e-06 -4.60749962763e-05 0.000169376492748)
(8.38617483463e-06 -4.48747961869e-05 0.000165578633154)
(1.24199496061e-05 -4.2892106702e-05 0.000159556773095)
(1.61744969069e-05 -4.01690996728e-05 0.000151754858513)
(1.95158821426e-05 -3.67850764432e-05 0.000142807569485)
(2.24157524726e-05 -3.28068387864e-05 0.000133542262977)
(2.46639220143e-05 -2.8507161169e-05 0.000125075773286)
(-7.54804879278e-05 -8.56335149624e-05 0.000117686691846)
(-6.87520621474e-05 -9.83889827924e-05 0.000115901796856)
(-6.01017619923e-05 -0.000110299207654 0.000117613631716)
(-5.00304824467e-05 -0.000120465880439 0.000121055802703)
(-3.8699847847e-05 -0.000128668573885 0.00012488502172)
(-2.64705317131e-05 -0.000134676277318 0.00012815133568)
(-1.3625942594e-05 -0.000138355990432 0.000130258884256)
(-4.60949307464e-07 -0.000139624066738 0.000130903010545)
(1.27152215829e-05 -0.000138446367418 0.000130024434978)
(2.5594076848e-05 -0.000134852139158 0.000127678214439)
(3.78808526524e-05 -0.000128919595503 0.000124169839993)
(4.92900974594e-05 -0.000120776616892 0.000120094617598)
(5.94580049956e-05 -0.000110649751183 0.000116395913466)
(6.82116404805e-05 -9.87610252132e-05 0.000114404482839)
(7.50677648284e-05 -8.59925980469e-05 0.000115898706979)
(-0.000125852107696 -0.000141620544297 -0.000140396504268)
(-0.00011445256727 -0.000162378654263 -0.000174655764405)
(-0.000100082407141 -0.000181656126179 -0.00020159466837)
(-8.32937976639e-05 -0.000198126571651 -0.000222422823786)
(-6.44286451346e-05 -0.000211411204535 -0.00023810871639)
(-4.40376711325e-05 -0.000221147749768 -0.000249200738769)
(-2.26008950331e-05 -0.000227111563018 -0.000255918402683)
(-6.21879250956e-07 -0.000229159341722 -0.000258295681371)
(2.13700836874e-05 -0.000227235175621 -0.000256274098842)
(4.28464666371e-05 -0.000221389922174 -0.000249921530898)
(6.33038523973e-05 -0.000211760569882 -0.000239203164694)
(8.22603325182e-05 -0.00019856523669 -0.000223901027886)
(9.91631150016e-05 -0.000182160347742 -0.0002034774617)
(0.000113661485612 -0.00016292531973 -0.000176986475051)
(0.000125226124038 -0.000142163726806 -0.00014320770424)
(-0.000172869013154 -0.000193378738739 -0.000587962109736)
(-0.000156930630396 -0.00022088762438 -0.000663827270828)
(-0.000137136013032 -0.000246189248135 -0.000727058889218)
(-0.000114038427412 -0.000267792235516 -0.000778269308657)
(-8.8166489231e-05 -0.000285198953069 -0.000818063670772)
(-6.02130812459e-05 -0.000297957524338 -0.000846664408251)
(-3.08278076879e-05 -0.000305770694314 -0.00086401922606)
(-7.00482994201e-07 -0.000308445161873 -0.000869985172635)
(2.94394646747e-05 -0.000305907557597 -0.000864439802446)
(5.88634245286e-05 -0.000298226777242 -0.000847522227769)
(8.68821797411e-05 -0.000285589905216 -0.000819376157838)
(0.000112845319862 -0.000268287779139 -0.00078005826619)
(0.000136059264986 -0.000246765895959 -0.000729361222117)
(0.000155990518463 -0.000221522374233 -0.000666713037853)
(0.000172106941908 -0.000194025001508 -0.000591501456348)
(-0.000214383073941 -0.000238826882057 -0.00114120437411)
(-0.000194250482499 -0.00027142827042 -0.00125448619354)
(-0.000169507898422 -0.000301085904006 -0.00134879538438)
(-0.000140770135196 -0.000326374191204 -0.0014250182423)
(-0.000108731615657 -0.000346727806185 -0.00148400466182)
(-7.41817836727e-05 -0.000361647365411 -0.00152616946445)
(-3.78982630521e-05 -0.000370782710701 -0.0015515997202)
(-7.15585957847e-07 -0.00037390206121 -0.00156024887034)
(3.64784064715e-05 -0.000370918993108 -0.00155204004472)
(7.27967090177e-05 -0.000361916328117 -0.00152707348444)
(0.000107405764857 -0.000347120233249 -0.00148539902781)
(0.000139528066162 -0.000326875094143 -0.00142693760679)
(0.000168374437068 -0.000301674457957 -0.00135129364641)
(0.000193249249327 -0.000272084085844 -0.00125766033714)
(0.000213554189783 -0.000239509996034 -0.00114516816383)
(-0.000249405875431 -0.00027709002286 -0.0017232388509)
(-0.00022555519235 -0.000313070347292 -0.00186229397501)
(-0.00019645940018 -0.00034547167933 -0.00197624132857)
(-0.000162890763721 -0.000373058910928 -0.00206721943213)
(-0.0001256692385 -0.000395248301966 -0.00213688986429)
(-8.56423099571e-05 -0.000411520729136 -0.00218625984317)
(-4.36731009993e-05 -0.000421486265398 -0.00221583227597)
(-6.95483496767e-07 -0.000424883005787 -0.0022258247748)
(4.22920589435e-05 -0.00042161443156 -0.00221626825338)
(8.42917814779e-05 -0.000411774257596 -0.00218715953238)
(0.000124370884942 -0.000395619483061 -0.00213828656277)
(0.00016166685855 -0.000373535091162 -0.00206915743743)
(0.000195332849846 -0.000346035315026 -0.00197878731813)
(0.000224550474721 -0.000313704321582 -0.00186556612423)
(0.000248558642529 -0.000277764676719 -0.00172739032779)
(-0.000277753394009 -0.000308066535965 -0.00228083172821)
(-0.000250716086927 -0.000345833282505 -0.00243305251549)
(-0.000217917324524 -0.000379573596739 -0.00255540714106)
(-0.000180373610476 -0.000408256806498 -0.00265178637529)
(-0.00013897995806 -0.00043132654624 -0.0027248292435)
(-9.46095481035e-05 -0.000448259604257 -0.00277618320181)
(-4.81734428587e-05 -0.000458635198307 -0.00280676998074)
(-6.63813276269e-07 -0.00046216762871 -0.00281706266152)
(4.6854700682e-05 -0.000458752736624 -0.00280719512311)
(9.33180855306e-05 -0.000448492435964 -0.00277706306346)
(0.000137735082086 -0.000431668053954 -0.00272620031697)
(0.000179195261405 -0.000408696188298 -0.00265369773523)
(0.000216825841324 -0.000380096184799 -0.00255793185131)
(0.000249735235906 -0.000346424906704 -0.00243632191835)
(0.00027691376354 -0.000308708113102 -0.00228502825287)
(-0.000299722552895 -0.00033208802569 -0.00278642355559)
(-0.000270029414634 -0.000370223386847 -0.00294208944396)
(-0.000234184459135 -0.000404114058474 -0.00306503869957)
(-0.000193504441191 -0.000432876260715 -0.00316084679941)
(-0.000148906762419 -0.000456021926683 -0.00323291884976)
(-0.000101262225813 -0.00047303252965 -0.00328332707347)
(-5.14993182435e-05 -0.000483463970286 -0.00331324331475)
(-6.34917545546e-07 -0.000487013328632 -0.00332328889523)
(5.02377594631e-05 -0.000483571340581 -0.00331366100187)
(0.000100026016518 -0.000473245315176 -0.00328419211741)
(0.000147713612654 -0.000456334200861 -0.00323426817766)
(0.000192372430488 -0.00043327841924 -0.00316273003855)
(0.000233131579708 -0.000404593505496 -0.0030675295826)
(0.000269077999944 -0.000370767952137 -0.0029453255535)
(0.000298898753531 -0.000332687554706 -0.00279060530001)
(-0.000315826096359 -0.000349669532722 -0.00323170022951)
(-0.000283976671087 -0.000386918716453 -0.00338495146092)
(-0.000245720128223 -0.000419935799631 -0.00350443699679)
(-0.000202691277949 -0.000447904951172 -0.00359699224777)
(-0.000155781789608 -0.000470437832282 -0.00366639311221)
(-0.000105835381929 -0.000487025048807 -0.00371483863241)
(-5.37747418492e-05 -0.000497206740146 -0.00374355263888)
(-6.15114559849e-07 -0.00050067066741 -0.00375318985459)
(5.2552503925e-05 -0.000497305460335 -0.00374396976475)
(0.000104637559247 -0.00048722063374 -0.00371570181449)
(0.000154625186474 -0.000470724775418 -0.00366773815639)
(0.000201592672311 -0.000448274372495 -0.00359886667933)
(0.000244695677145 -0.000420376470974 -0.00350691147506)
(0.000283047138991 -0.000387419886869 -0.0033881656674)
(0.000315014696846 -0.000350227164076 -0.00323586332796)
(-0.000326614984972 -0.000361349995259 -0.00361933950683)
(-0.00029306764817 -0.000396586555817 -0.00376747484794)
(-0.000253003786427 -0.000427811686115 -0.00388217267347)
(-0.000208351773782 -0.000454220625865 -0.00397097923203)
(-0.000159938181637 -0.00047553643742 -0.00403762994838)
(-0.00010856003717 -0.000491258027201 -0.00408419678368)
(-5.51183097108e-05 -0.000500918245171 -0.00411181120098)
(-6.0587114491e-07 -0.00050420529645 -0.00412108541283)
(5.39144706321e-05 -0.000501009826801 -0.00411223469985)
(0.00010738027164 -0.000491439395612 -0.00408507183847)
(0.000158798842184 -0.000475802374974 -0.00403899074557)
(0.000207268861972 -0.000454562846825 -0.00397286996477)
(0.000251992194397 -0.000428219853833 -0.003884658982)
(0.000292146787682 -0.000397051023219 -0.00377069710833)
(0.000325806404337 -0.000361870208331 -0.00362351029702)
(-0.000332592031818 -0.000367622281749 -0.00395647573992)
(-0.000297769291537 -0.000399807205518 -0.00409876725367)
(-0.000256477908003 -0.000428388722624 -0.00420889427762)
(-0.000210868285916 -0.000452555161106 -0.00429455063518)
(-0.000161675227226 -0.00047211746844 -0.00435908842411)
(-0.000109639900475 -0.000486575770525 -0.00440429499707)
(-5.56325118727e-05 -0.000495466976277 -0.00443114174598)
(-6.06269258068e-07 -0.000498493249718 -0.00444016888676)
(5.44278503142e-05 -0.000495552421424 -0.00443157714801)
(0.000108459223089 -0.000486744964996 -0.00440519325569)
(0.000160534656541 -0.000472365591257 -0.0043604823558)
(0.000209783378078 -0.000452874485899 -0.00429648090382)
(0.000255462823125 -0.000428769725439 -0.0042114205763)
(0.000296842317381 -0.000400241299768 -0.00410203074109)
(0.000331774260814 -0.000368110289015 -0.00396069200225)
(-0.000334175440686 -0.000368895822916 -0.00425067407434)
(-0.000298491229244 -0.000397046913371 -0.00438739412183)
(-0.000256542903417 -0.000422203986878 -0.00449387385258)
(-0.000210581996544 -0.000443537685168 -0.0045773550919)
(-0.000161251738649 -0.000460874000461 -0.00464057374096)
(-0.000109246525514 -0.00047370690918 -0.00468498450338)
(-5.54020294031e-05 -0.000481599283765 -0.00471139907347)
(-6.14577393287e-07 -0.000484285875066 -0.00472029172904)
(5.41807273727e-05 -0.000481679026843 -0.00471185000032)
(0.000108049084913 -0.000473864912652 -0.00468591374368)
(0.00016009418346 -0.000461105874546 -0.00464201358423)
(0.000209479687359 -0.000443836507007 -0.00457934331137)
(0.000255509642833 -0.000422561114801 -0.00449646347543)
(0.000297544512364 -0.000397454932105 -0.00439072606369)
(0.000333336428406 -0.00036935539554 -0.00425497072417)
(-0.00033170589502 -0.000365398775335 -0.00450786448094)
(-0.000295643464021 -0.000388651309613 -0.00463985369656)
(-0.000253588356708 -0.000409746411547 -0.00474392496397)
(-0.000207798368907 -0.000427776609645 -0.0048262085559)
(-0.000158883105277 -0.000442474283788 -0.00488878525758)
(-0.00010751704333 -0.000453346317829 -0.00493283867394)
(-5.44932586267e-05 -0.000460021785338 -0.00495906738205)
(-6.28929752527e-07 -0.000462293659363 -0.0049679055389)
(5.3243145993e-05 -0.000460095741293 -0.00495953526908)
(0.00010629059623 -0.000453492956608 -0.00493380252649)
(0.000157696176875 -0.000442689942637 -0.00489027824501)
(0.000206666204358 -0.000428055282685 -0.004828267369)
(0.000252524787529 -0.000410080605293 -0.00474659558579)
(0.00029466556795 -0.000389035236673 -0.00464327077232)
(0.000330835713817 -0.000365831163816 -0.00451225626112)
(-0.000325740359139 -0.000357293946253 -0.00473132714261)
(-0.00028983483546 -0.000374973051998 -0.00486043111556)
(-0.00024802372147 -0.000391562786844 -0.00496348683533)
(-0.000202776939738 -0.000405920179855 -0.00504534772867)
(-0.000154736619445 -0.000417590248598 -0.00510774052594)
(-0.000104556953756 -0.000426176057252 -0.00515170780601)
(-5.29581799395e-05 -0.000431425906834 -0.00517789268909)
(-6.47580342378e-07 -0.000433211479955 -0.00518671960375)
(5.16706769348e-05 -0.000431493622579 -0.00517837625374)
(0.000103292684166 -0.000426310570139 -0.00515270465098)
(0.000153511330701 -0.000417788638148 -0.00510928648266)
(0.000201605962621 -0.000406177577107 -0.00504748218634)
(0.000246920860767 -0.000391873382676 -0.00496625116264)
(0.00028881720482 -0.000375332958435 -0.00486394400792)
(0.000324828932087 -0.000357701381502 -0.00473579589649)
(-0.000317870826574 -0.000346236319866 -0.00492019458858)
(-0.000282128723026 -0.000356436638105 -0.00505125981118)
(-0.000240413671125 -0.00036839866597 -0.00515443026909)
(-0.000195967778018 -0.000378606076696 -0.00523649080102)
(-0.000149177247241 -0.000386787967461 -0.00529912275277)
(-0.000100634726493 -0.000392739392535 -0.00534327779171)
(-5.09391416289e-05 -0.000396355172759 -0.0053695637109)
(-6.68648605638e-07 -0.000397585076048 -0.00537842044763)
(4.96091943204e-05 -0.000396415805312 -0.00537005739466)
(9.93272747087e-05 -0.000392860389678 -0.00534429730381)
(0.000147907722714 -0.000386967330249 -0.00530070739788)
(0.000194751537108 -0.000378840560176 -0.005238687383)
(0.000239265031604 -0.000368683885766 -0.00515728289257)
(0.000281067342912 -0.000356772354364 -0.00505490647595)
(0.000316908953275 -0.000346618939946 -0.00492462881912)
(1.10513273255e-06 1.81254269723e-06 -8.22612429799e-05)
(6.11110604587e-07 2.45642053669e-06 -8.54319343724e-05)
(2.15106806071e-07 2.8822037204e-06 -8.77127854481e-05)
(-2.64813499122e-08 3.13109811753e-06 -8.93461950275e-05)
(-1.5267750886e-07 3.26698493473e-06 -9.04833750766e-05)
(-1.61752170975e-07 3.3290882269e-06 -9.12257566622e-05)
(-8.66323265624e-08 3.35289004055e-06 -9.16452493166e-05)
(3.35113421457e-08 3.36108355906e-06 -9.1783971984e-05)
(1.52337606334e-07 3.36113459305e-06 -9.16450287791e-05)
(2.23665437987e-07 3.34546732266e-06 -9.12256869117e-05)
(2.09468121915e-07 3.2911891496e-06 -9.04846570227e-05)
(7.81925777567e-08 3.16217638021e-06 -8.93515534626e-05)
(-1.67769483872e-07 2.91903093889e-06 -8.77269545459e-05)
(-5.66998501999e-07 2.4966547768e-06 -8.5463647731e-05)
(-1.06867104667e-06 1.84996235115e-06 -8.23286124745e-05)
(8.483088429e-06 1.08467868339e-05 -0.000272078561368)
(7.06435518146e-06 1.34879064344e-05 -0.000284210003075)
(5.6106507508e-06 1.56493303014e-05 -0.000293657741557)
(4.32379318421e-06 1.73050021944e-05 -0.000300934102277)
(3.13183584353e-06 1.85371079817e-05 -0.000306354043311)
(2.05548055575e-06 1.93798354913e-05 -0.000310108529355)
(1.06155559766e-06 1.98739963766e-05 -0.000312321045491)
(1.11357301371e-07 2.00441366542e-05 -0.000313058026142)
(-8.4284592716e-07 1.98977103444e-05 -0.000312318558874)
(-1.84860255243e-06 1.94264183689e-05 -0.000310104832902)
(-2.94302584344e-06 1.86043325331e-05 -0.00030635316143)
(-4.15656591414e-06 1.73892526119e-05 -0.000300944794691)
(-5.46559617989e-06 1.5744544343e-05 -0.000293694788114)
(-6.94013308257e-06 1.35874589905e-05 -0.000284299692136)
(-8.38570312304e-06 1.09375071544e-05 -0.000272266961014)
(1.90641722187e-05 2.31018323451e-05 -0.000483170704776)
(1.66523063578e-05 2.7877850458e-05 -0.000506189576472)
(1.39021652862e-05 3.20086508145e-05 -0.000524645459571)
(1.11737273963e-05 3.53298627537e-05 -0.000539204279505)
(8.40070676682e-06 3.78993083372e-05 -0.000550259738984)
(5.63956940146e-06 3.97187704316e-05 -0.000558034955832)
(2.88763026141e-06 4.08089782134e-05 -0.000562662240873)
(1.41532277105e-07 4.11821996319e-05 -0.000564207083979)
(-2.60826131806e-06 4.08417803911e-05 -0.000562662601697)
(-5.3710250772e-06 3.97842636896e-05 -0.000558037531006)
(-8.14817925241e-06 3.79963875579e-05 -0.000550270670714)
(-1.09393572962e-05 3.54548130539e-05 -0.000539236893993)
(-1.36860589247e-05 3.21545092246e-05 -0.000524722265)
(-1.64544181878e-05 2.8034091299e-05 -0.000506350036943)
(-1.88970016472e-05 2.32489165854e-05 -0.000483482351105)
(3.02899805855e-05 3.58440317182e-05 -0.000711937491409)
(2.67951885537e-05 4.23114499037e-05 -0.000747090333214)
(2.26596397457e-05 4.80167911113e-05 -0.000775711906299)
(1.83833576453e-05 5.26528617545e-05 -0.000798568487075)
(1.39294222805e-05 5.62681683437e-05 -0.000816082722883)
(9.38995647354e-06 5.88447773366e-05 -0.000828482329972)
(4.79392263572e-06 6.03940636374e-05 -0.000835891503914)
(1.70450148245e-07 6.09226526345e-05 -0.000838366773459)
(-4.45612511827e-06 6.04321978255e-05 -0.000835896705862)
(-9.06125072745e-06 5.89212499171e-05 -0.000828494951296)
(-1.36141036629e-05 5.63824284159e-05 -0.00081611050783)
(-1.80830879123e-05 5.28015189544e-05 -0.000798628013164)
(-2.23749976857e-05 4.81926958042e-05 -0.000775831034671)
(-2.65281560327e-05 4.25028616079e-05 -0.000747317323392)
(-3.00574575414e-05 3.60286347281e-05 -0.000712354348114)
(4.01521258552e-05 4.68361793669e-05 -0.000953970789581)
(3.55254813622e-05 5.4247435929e-05 -0.00100182567053)
(3.00770462689e-05 6.08052396827e-05 -0.00104111682943)
(2.43948436871e-05 6.61088667766e-05 -0.00107270787355)
(1.84800389477e-05 7.02280860941e-05 -0.00109702961585)
(1.2446949628e-05 7.31540279733e-05 -0.00111430521384)
(6.33944913079e-06 7.49089307564e-05 -0.00112464750367)
(1.96653787314e-07 7.55061605092e-05 -0.00112810396866)
(-5.94860382406e-06 7.49501018647e-05 -0.00112466094903)
(-1.20634144509e-05 7.32366913555e-05 -0.00111433426715)
(-1.81075485137e-05 7.03518117687e-05 -0.0010970825947)
(-2.40352438815e-05 6.62704999955e-05 -0.00107280257739)
(-2.9731831351e-05 6.09975977942e-05 -0.00104128322145)
(-3.51983716606e-05 5.44586951203e-05 -0.00100211652201)
(-3.98616957984e-05 4.7043533552e-05 -0.000954476967002)
(4.77075819412e-05 5.50485950928e-05 -0.0012052892429)
(4.19903465826e-05 6.26761160807e-05 -0.00126598454289)
(3.54300139201e-05 6.93776164222e-05 -0.00131606694782)
(2.86287749415e-05 7.4734181339e-05 -0.00135651312396)
(2.16219501726e-05 7.88549820501e-05 -0.00138774857068)
(1.45267711069e-05 8.17603605673e-05 -0.00140998185885)
(7.38291182625e-06 8.34944815489e-05 -0.00142330876623)
(2.18173146056e-07 8.40836153237e-05 -0.00142776504926)
(-6.94841414622e-06 8.35368976145e-05 -0.00142333506581)
(-1.40979707984e-05 8.18455232768e-05 -0.00141003609189)
(-2.12021713105e-05 7.89824047515e-05 -0.00138783830506)
(-2.82202138513e-05 7.49008899149e-05 -0.00135665500576)
(-3.50350333047e-05 6.9576680494e-05 -0.00131628956745)
(-4.16138462986e-05 6.28963168488e-05 -0.00126634155644)
(-4.7368146409e-05 5.52679655516e-05 -0.00120587623327)
(5.27404139743e-05 6.02867786042e-05 -0.00146291897205)
(4.60718017095e-05 6.75791322451e-05 -0.00153639726939)
(3.86800917678e-05 7.38900377585e-05 -0.00159723376458)
(3.11041015601e-05 7.88601470817e-05 -0.00164653314708)
(2.34027088394e-05 8.26371715118e-05 -0.00168470079779)
(1.56786266177e-05 8.52760742094e-05 -0.00171191557412)
(7.95416131523e-06 8.68422599208e-05 -0.00172824608286)
(2.34191513432e-07 8.73739852727e-05 -0.00173371058007)
(-7.48705917406e-06 8.68844523181e-05 -0.00172829020364)
(-1.52157642405e-05 8.53607977588e-05 -0.00171200465688)
(-2.29471437582e-05 8.27639447721e-05 -0.00168484033632)
(-3.06584298342e-05 7.90261451873e-05 -0.00164673636163)
(-3.82474427412e-05 7.40888297003e-05 -0.00159752474601)
(-4.56577288026e-05 6.78002508107e-05 -0.00153682850191)
(-5.2361844368e-05 6.05102294704e-05 -0.00146358540029)
(5.54538662755e-05 6.28345276331e-05 -0.00172477285764)
(4.80445755246e-05 6.94459779725e-05 -0.00181086027401)
(4.0126241596e-05 7.50345953654e-05 -0.00188230491931)
(3.21113653277e-05 7.93648144285e-05 -0.00194036208089)
(2.40717784083e-05 8.26099770676e-05 -0.00198540417134)
(1.6084558799e-05 8.48548197542e-05 -0.00201756716589)
(8.14912166486e-06 8.61793438979e-05 -0.00203688451227)
(2.44809232692e-07 8.66292676588e-05 -0.00204335331611)
(-7.66029828895e-06 8.62201066836e-05 -0.00203695102231)
(-1.55987440014e-05 8.493670138e-05 -0.00201770016802)
(-2.35917996216e-05 8.27325217823e-05 -0.00198560613666)
(-3.1640070721e-05 7.95254843075e-05 -0.00194064098388)
(-3.96672213522e-05 7.5227613697e-05 -0.0018826780724)
(-4.76036819665e-05 6.96619452636e-05 -0.00181137731103)
(-5.50457726504e-05 6.30558654757e-05 -0.00172552572194)
(5.62410018461e-05 6.31864620476e-05 -0.00198917844159)
(4.83314603401e-05 6.89418070227e-05 -0.00208752427676)
(4.01719191454e-05 7.36424621534e-05 -0.00216925242354)
(3.20085045435e-05 7.72208803276e-05 -0.00223581441303)
(2.39174706809e-05 7.98602132423e-05 -0.00228754027933)
(1.59462183081e-05 8.16660433578e-05 -0.00232451571537)
(8.07173894351e-06 8.2725072439e-05 -0.00234673799675)
(2.50862034832e-07 8.30854979047e-05 -0.00235418493099)
(-7.57041794315e-06 8.2763509624e-05 -0.00234683172318)
(-1.54469171862e-05 8.17432827031e-05 -0.00232470232865)
(-2.34228088272e-05 7.99758619608e-05 -0.00228781852589)
(-3.15215055734e-05 7.73727795261e-05 -0.00223618533699)
(-3.96963805297e-05 7.38255617322e-05 -0.00216972432436)
(-4.78732344455e-05 6.91478012075e-05 -0.00208814227717)
(-5.58119801397e-05 6.34008312757e-05 -0.00199003189002)
(5.55343869824e-05 6.18709362129e-05 -0.00225439083139)
(4.73587951246e-05 6.67107772183e-05 -0.00236435223353)
(3.9199603535e-05 7.04722089154e-05 -0.0024557797408)
(3.11190555487e-05 7.32771639864e-05 -0.00253037885364)
(2.31913151702e-05 7.53062043687e-05 -0.00258842244834)
(1.54353792695e-05 7.66765743835e-05 -0.00262994232548)
(7.80944100826e-06 7.74747065003e-05 -0.00265490517646)
(2.53370429963e-07 7.77473778264e-05 -0.00266327618331)
(-7.30282224938e-06 7.75100152587e-05 -0.00265503115397)
(-1.49300425707e-05 7.67475107113e-05 -0.00263019218925)
(-2.26896172734e-05 7.54125424739e-05 -0.00258879045909)
(-3.06239811441e-05 7.3417211107e-05 -0.00253085817503)
(-3.87150142377e-05 7.06418642313e-05 -0.00245636829987)
(-4.68903659357e-05 6.69029941587e-05 -0.00236509024473)
(-5.50914237174e-05 6.20743794563e-05 -0.00225536447145)
(5.37257353825e-05 5.93571682541e-05 -0.00251822050799)
(4.54887669306e-05 6.32876293668e-05 -0.00263877265231)
(3.75206198021e-05 6.61269690821e-05 -0.00273904304141)
(2.96981701621e-05 6.81876750668e-05 -0.0028210077257)
(2.20873329789e-05 6.96404819449e-05 -0.00288484033668)
(1.46824478667e-05 7.06050363046e-05 -0.00293051471011)
(7.4280723582e-06 7.11619021392e-05 -0.00295797809397)
(2.53343871525e-07 7.13534305849e-05 -0.00296719356711)
(-6.92133660147e-06 7.11934254194e-05 -0.0029581410559)
(-1.4176440277e-05 7.0668422236e-05 -0.00293083692166)
(-2.15841236427e-05 6.97357125652e-05 -0.00288531147795)
(-2.92006021109e-05 6.8313667796e-05 -0.00282161270453)
(-3.70324215668e-05 6.6280600044e-05 -0.00273976858221)
(-4.50154493924e-05 6.34631609203e-05 -0.00263965437759)
(-5.32739979488e-05 5.95466275768e-05 -0.00251934061531)
(5.11316907757e-05 5.60218512102e-05 -0.00277774167254)
(4.30007213776e-05 5.90752237113e-05 -0.00290748744496)
(3.53692167573e-05 6.10447258087e-05 -0.00301558262687)
(2.79343798679e-05 6.24178969097e-05 -0.00310413059352)
(2.07469144666e-05 6.33500848343e-05 -0.00317312415469)
(1.37814937023e-05 6.3953295366e-05 -0.0032224835966)
(6.97485269228e-06 6.42967016765e-05 -0.00325215721574)
(2.51577015965e-07 6.44164406875e-05 -0.00326212030827)
(-6.47153150167e-06 6.4323922772e-05 -0.00325236146827)
(-1.32785175051e-05 6.40081309929e-05 -0.00322288696491)
(-2.02459970963e-05 6.34328537739e-05 -0.00317371236425)
(-2.74380705098e-05 6.25281456137e-05 -0.00310488068005)
(-3.48810382267e-05 6.1180388368e-05 -0.00301646948527)
(-4.25259058112e-05 5.92319949426e-05 -0.00290854209323)
(-5.0674785505e-05 5.61948882344e-05 -0.00277904243661)
(4.79783314875e-05 5.2131615432e-05 -0.00302895454365)
(4.00948101364e-05 5.43419139752e-05 -0.00316639531585)
(3.29180006738e-05 5.55144876719e-05 -0.00328141590239)
(2.59670037618e-05 5.6276279481e-05 -0.00337579365933)
(1.92740610896e-05 5.67600749674e-05 -0.00344929437273)
(1.28010761976e-05 5.70573817935e-05 -0.00350183687975)
(6.48393262663e-06 5.72215615204e-05 -0.00353340842066)
(2.48628591324e-07 5.72806461724e-05 -0.00354401464816)
(-5.98645930512e-06 5.72441295578e-05 -0.00353365771599)
(-1.23036217304e-05 5.7103035842e-05 -0.00350232974416)
(-1.87780093279e-05 5.68293964552e-05 -0.00345001427594)
(-2.54745557061e-05 5.63695497535e-05 -0.00337671149392)
(-3.24322863024e-05 5.56308877294e-05 -0.00328249421744)
(-3.96208344224e-05 5.44785804875e-05 -0.0031676574918)
(-4.75186396321e-05 5.22865536077e-05 -0.00303047395171)
(4.44194027603e-05 4.78410730661e-05 -0.00326623340703)
(3.69383135409e-05 4.92840121391e-05 -0.00341082484971)
(3.03207539181e-05 4.97309868858e-05 -0.00353236704494)
(2.39147190044e-05 4.99745541748e-05 -0.00363188911459)
(1.77539145976e-05 5.00923103169e-05 -0.003709226329)
(1.17959223085e-05 5.01439855894e-05 -0.00376443175228)
(5.98213805283e-06 5.01647999649e-05 -0.00379757978258)
(2.44798217672e-07 5.01752058589e-05 -0.00380872167111)
(-5.49228215796e-06 5.01826169406e-05 -0.00379787658294)
(-1.13059601068e-05 5.01802684541e-05 -0.00376502048548)
(-1.72648183706e-05 5.01479155404e-05 -0.00371009140387)
(-2.34280747204e-05 5.005048316e-05 -0.00363299985189)
(-2.98392383372e-05 4.98275232299e-05 -0.00353367530904)
(-3.64666634234e-05 4.94004663791e-05 -0.0034123360468)
(-4.39587691882e-05 4.7978202506e-05 -0.00326800414875)
(4.05476506497e-05 4.37289340443e-05 -0.00348214505614)
(3.37351846907e-05 4.40333646177e-05 -0.00363750841754)
(2.77167835132e-05 4.38558315531e-05 -0.00376483336336)
(2.18718868102e-05 4.36701005919e-05 -0.00386847506387)
(1.62494129056e-05 4.34799848098e-05 -0.00394880801278)
(1.08043061868e-05 4.33233820284e-05 -0.00400608563321)
(5.4876390226e-06 4.32216189409e-05 -0.00404046241503)
(2.40101117459e-07 4.31901701239e-05 -0.00405202472289)
(-5.00710177983e-06 4.32350407551e-05 -0.00404080517945)
(-1.03233877403e-05 4.33508171958e-05 -0.00400676873602)
(-1.57688333973e-05 4.35225846968e-05 -0.00394982088546)
(-2.13928130138e-05 4.37290929808e-05 -0.00386979394698)
(-2.72407465514e-05 4.39328023571e-05 -0.00376640662703)
(-3.32667139051e-05 4.41299167441e-05 -0.00363934450799)
(-4.0085706754e-05 4.3849542512e-05 -0.00348413293902)
(-4.28931034887e-07 -8.09066757092e-07 -0.000189833485363)
(-1.80914075071e-07 -1.10772730527e-06 -0.000198458660312)
(-2.45781306134e-08 -1.28212001739e-06 -0.000205766992177)
(7.48085168401e-08 -1.3828056464e-06 -0.000211828594754)
(1.15932738724e-07 -1.43320134384e-06 -0.000216618330387)
(1.06132409457e-07 -1.45323002979e-06 -0.000220088903128)
(5.89954818673e-08 -1.45863028018e-06 -0.000222197683617)
(-8.11308571421e-09 -1.45953473337e-06 -0.000222915061203)
(-7.44989900532e-08 -1.45936574583e-06 -0.000222210351908)
(-1.19372239187e-07 -1.45448747553e-06 -0.000220114209102)
(-1.25578350593e-07 -1.43457214557e-06 -0.000216656070781)
(-8.03219028777e-08 -1.38359499069e-06 -0.000211878543106)
(2.3667533169e-08 -1.28095412871e-06 -0.000205829886993)
(1.84015297457e-07 -1.10405495709e-06 -0.000198540313649)
(4.34678150777e-07 -8.0219019932e-07 -0.000189956113876)
(-1.57212659604e-06 -2.55615070027e-06 -0.000554536976416)
(-9.20416984047e-07 -3.34870683401e-06 -0.00057848281784)
(-4.60711074542e-07 -3.85624322137e-06 -0.000598617983261)
(-1.44567120126e-07 -4.1705045468e-06 -0.000615177179982)
(3.16089442362e-08 -4.34622728995e-06 -0.000628174824876)
(8.59140848994e-08 -4.43200096388e-06 -0.000637547550382)
(5.07637257525e-08 -4.4670059778e-06 -0.00064322344991)
(-3.2075488862e-08 -4.47673582722e-06 -0.000645146956679)
(-1.12770740581e-07 -4.46968404004e-06 -0.000643262252679)
(-1.41237986523e-07 -4.43645107197e-06 -0.000637625003493)
(-7.58551327433e-08 -4.35082449993e-06 -0.000628290241119)
(1.14433609476e-07 -4.17270951816e-06 -0.000615329700825)
(4.46822948255e-07 -3.85144065668e-06 -0.000598809492237)
(9.22809896597e-07 -3.33491175252e-06 -0.000578729717493)
(1.58756538433e-06 -2.5329336062e-06 -0.000554891042813)
(-3.00216927139e-06 -4.42063725899e-06 -0.000901892398124)
(-2.01943238158e-06 -5.63151532173e-06 -0.000939398190544)
(-1.26840762762e-06 -6.46155633247e-06 -0.000970702290989)
(-7.1132797349e-07 -7.00620767758e-06 -0.00099626867527)
(-3.42257019644e-07 -7.3360365076e-06 -0.00101622234748)
(-1.36915244853e-07 -7.51723882538e-06 -0.00103055026521)
(-5.20345681185e-08 -7.60311167626e-06 -0.00103920070118)
(-3.15266197447e-08 -7.62837700025e-06 -0.00104212382317)
(-8.88365207763e-09 -7.60471162562e-06 -0.00103926229493)
(8.25118772897e-08 -7.51980391929e-06 -0.0010306732152)
(2.98375777027e-07 -7.3383972399e-06 -0.00101640569669)
(6.80501648688e-07 -7.00615788151e-06 -0.000996511436328)
(1.25214133233e-06 -6.4552398168e-06 -0.00097100767239)
(2.01733131548e-06 -5.61728064203e-06 -0.000939790519003)
(3.01244844895e-06 -4.39731781165e-06 -0.000902445489958)
(-4.31433834215e-06 -6.02417248519e-06 -0.00123218560678)
(-3.07584416588e-06 -7.51101733093e-06 -0.00128174731381)
(-2.08262518513e-06 -8.56001182314e-06 -0.00132283420001)
(-1.3138592097e-06 -9.26291892324e-06 -0.00135619157616)
(-7.63010156153e-07 -9.6996141489e-06 -0.00138209871001)
(-4.01890674093e-07 -9.94750790292e-06 -0.00140063368097)
(-1.80273492981e-07 -1.00692846843e-05 -0.0014117953303)
(-3.3112561334e-08 -1.01055062047e-05 -0.00141555933124)
(1.16071423968e-07 -1.00698745405e-05 -0.00141187900926)
(3.43744639539e-07 -9.94819513143e-06 -0.0014008005271)
(7.14496390516e-07 -9.69949318666e-06 -0.001382347267)
(1.27727647852e-06 -9.26025568075e-06 -0.00135652043287)
(2.05935315243e-06 -8.55183373231e-06 -0.00132324687926)
(3.06554003119e-06 -7.49613102688e-06 -0.00128227208698)
(4.31652284709e-06 -6.00157426197e-06 -0.00123290845535)
(-5.45041985155e-06 -7.3374888062e-06 -0.00154710952814)
(-4.02122242057e-06 -8.9816765811e-06 -0.00160761378353)
(-2.83661825827e-06 -1.0156104393e-05 -0.00165749039568)
(-1.89124047143e-06 -1.09489327742e-05 -0.00169779754363)