/*--------------------------------*- C++ -*----------------------------------*\
  =========                 |
  \\      /  F ield         | OpenFOAM: The Open Source CFD Toolbox
   \\    /   O peration     | Website:  https://openfoam.org
    \\  /    A nd           | Version:  7
     \\/     M anipulation  |
\*---------------------------------------------------------------------------*/
FoamFile
{
    version     2.0;
    format      ascii;
    class       surfaceScalarField;
    location    "2.36";
    object      phi;
}
// * * * * * * * * * * * * * * * * * * * * * * * * * * * * * * * * * * * * * //

dimensions      [0 3 -1 0 0 0 0];

internalField   nonuniform List<scalar> 
65775
(
-2.30281733583e-11
-5.2387860623e-09
-9.32019673298e-11
-2.08022191056e-13
-4.12395379164e-11
-5.51333798633e-09
-1.01171660624e-10
-4.95838482198e-11
-5.76498864621e-09
-1.08901302674e-10
-4.82932934877e-11
-5.98211530661e-09
-1.16136909329e-10
-3.96804025036e-11
-6.15645932535e-09
-1.22387664876e-10
-2.56394145903e-11
-6.28445200378e-09
-1.27204119231e-10
-8.28825493666e-12
-6.36476636192e-09
-1.3028389875e-10
1.02121448361e-11
-6.39469449457e-09
-1.31394725034e-10
2.75347992795e-11
-6.36462681345e-09
-1.30245529361e-10
4.15224402026e-11
-6.28417742931e-09
-1.27128610592e-10
5.00704126447e-11
-6.15606151546e-09
-1.22277529863e-10
5.12783931342e-11
-5.98164996457e-09
-1.15995982082e-10
4.28456946576e-11
-5.76449553369e-09
-1.08734456867e-10
2.45041180196e-11
-5.51292242204e-09
-1.0098477042e-10
-5.23850704097e-09
-9.30034451898e-11
1.03504253285e-12
-7.39522029683e-11
-9.73631804687e-09
-5.30090439929e-10
-5.548480343e-13
-1.30849743008e-10
-1.02394348077e-08
-5.95649284702e-10
-1.56448500614e-10
-1.07057221156e-08
-6.6028622756e-10
-1.53797061142e-10
-1.11038020037e-08
-7.20529705603e-10
-1.27282266125e-10
-1.14216844328e-08
-7.72403511476e-10
-8.27733053366e-11
-1.16536840718e-08
-8.12364819747e-10
-2.70357352853e-11
-1.17987520804e-08
-8.37840524626e-10
3.24728970103e-11
-1.18526653512e-08
-8.46914418801e-10
8.81355790647e-11
-1.17984327514e-08
-8.37731082087e-10
1.32504248647e-10
-1.16530574945e-08
-8.12149218514e-10
1.58833665344e-10
-1.1420783586e-08
-7.72088811403e-10
1.61254196851e-10
-1.11027249107e-08
-7.20126598809e-10
1.35379416188e-10
-1.07045843526e-08
-6.59808598754e-10
7.80763660485e-11
-1.0238416446e-08
-5.95113783997e-10
-9.73555824587e-09
-5.29520302472e-10
2.96285281632e-12
-1.29040578919e-10
-1.33455906983e-08
-1.10966804543e-09
-7.86334686516e-13
-2.21084968569e-10
-1.40157651769e-08
-1.25581468943e-09
-2.63408566869e-10
-1.4634712347e-08
-1.39926890915e-09
-2.59705988614e-10
-1.51572337813e-08
-1.53203454402e-09
-2.15752648921e-10
-1.5571626188e-08
-1.64567255495e-09
-1.40852156047e-10
-1.58720568947e-08
-1.73283034198e-09
-4.64595964204e-11
-1.6059231338e-08
-1.78820368896e-09
5.44521280684e-11
-1.61287481309e-08
-1.80786165445e-09
1.48748456944e-10
-1.60587902084e-08
-1.78804384255e-09
2.23466203671e-10
-1.58711955602e-08
-1.73251393584e-09
2.67167906169e-10
-1.5570394224e-08
-1.64520873704e-09
2.7054959188e-10
-1.51557495746e-08
-1.53143704686e-09
2.27819104888e-10
-1.46331401417e-08
-1.39855692522e-09
1.35175118302e-10
-1.40143002943e-08
-1.25501186947e-09
-1.33444319087e-08
-1.10880722214e-09
4.48982607184e-12
-1.84432542614e-10
-1.60177354944e-08
-1.73793686746e-09
-9.07752588446e-13
-3.09064607312e-10
-1.67909703977e-08
-1.96989011429e-09
-3.67269206276e-10
-1.74955868646e-08
-2.1954625008e-09
-3.62434662115e-10
-1.80836692061e-08
-2.40234753932e-09
-3.0175968758e-10
-1.85464164309e-08
-2.57809080285e-09
-1.97548221525e-10
-1.88796791282e-08
-2.71210713047e-09
-6.57678491116e-11
-1.90866030961e-08
-2.79690273476e-09
7.52395693507e-11
-1.91635201962e-08
-2.82692814996e-09
2.06923954402e-10
-1.90860999184e-08
-2.79671471143e-09
3.10950122929e-10
-1.88786991701e-08
-2.7117337686e-09
3.71360542112e-10
-1.85450199804e-08
-2.57754122681e-09
3.75844934879e-10
-1.80819781753e-08
-2.4016361805e-09
3.17176367654e-10
-1.74937772531e-08
-2.19460938826e-09
1.91854392219e-10
-1.67892266706e-08
-1.96891986037e-09
-1.60162648251e-08
-1.73688571205e-09
5.53252763813e-12
-2.36881101575e-10
-1.77812612858e-08
-2.34071476063e-09
-9.39857203094e-13
-3.92349812273e-10
-1.85999883901e-08
-2.65078641685e-09
-4.65398546973e-10
-1.93321456689e-08
-2.94890627943e-09
-4.59312079774e-10
-1.99362262097e-08
-3.21967916938e-09
-3.82844302249e-10
-2.04077687485e-08
-3.4478809764e-09
-2.51098213299e-10
-2.07452979833e-08
-3.62086746819e-09
-8.42573218478e-11
-2.09542713335e-08
-3.72987390315e-09
9.43395509733e-11
-2.10320843411e-08
-3.76838524401e-09
2.61095002357e-10
-2.09537531151e-08
-3.72967578627e-09
3.9267271737e-10
-2.07442910163e-08
-3.62047314257e-09
4.68891997677e-10
-2.04063357589e-08
-3.4472983263e-09
4.746370714e-10
-1.99344833725e-08
-3.21892099331e-09
4.01120033659e-10
-1.93302567133e-08
-2.94799101437e-09
2.44952389574e-10
-1.85981206038e-08
-2.64973703712e-09
-1.77795961568e-08
-2.33956660423e-09
6.12572295708e-12
-2.84524278946e-10
-1.87211857058e-08
-2.86334471198e-09
-9.10329008006e-13
-4.6925993419e-10
-1.95389839949e-08
-3.23709808903e-09
-5.56084505301e-10
-2.02554604257e-08
-3.59234537374e-09
-5.48696218439e-10
-2.08399001748e-08
-3.91207574539e-09
-4.57545382868e-10
-2.12926417015e-08
-4.17961203383e-09
-3.00438693772e-10
-2.16150311714e-08
-4.38134461844e-09
-1.01438499839e-10
-2.18141821546e-08
-4.50800417465e-09
1.11596556147e-10
-2.18884822222e-08
-4.55265536666e-09
3.10521318722e-10
-2.18136832916e-08
-4.50780655137e-09
4.67476728198e-10
-2.16140625223e-08
-4.3809507563e-09
5.58397774088e-10
-2.12912639186e-08
-4.17902880406e-09
5.65462436936e-10
-2.08382173471e-08
-3.91131439496e-09
4.78183475166e-10
-2.02536165574e-08
-3.59142239263e-09
2.92779124474e-10
-1.95371118908e-08
-3.23603379147e-09
-1.87194238971e-08
-2.86217124618e-09
6.37577352015e-12
-3.26855195155e-10
-1.89531714737e-08
-3.27566059018e-09
-8.46739897451e-13
-5.39083311729e-10
-1.97355955859e-08
-3.6975460642e-09
-6.38626621058e-10
-2.04079472886e-08
-4.09444493843e-09
-6.29984110008e-10
-2.09502245411e-08
-4.44890494052e-09
-5.25363303655e-10
-2.13674169884e-08
-4.74375922594e-09
-3.4519328705e-10
-2.16632652952e-08
-4.965144272e-09
-1.17081108724e-10
-2.18457049489e-08
-5.10372106431e-09
1.2708224574e-10
-2.19138697139e-08
-5.15245995208e-09
3.55122812522e-10
-2.18452452968e-08
-5.10352812241e-09
5.35147361175e-10
-2.16623728954e-08
-4.96475978908e-09
6.3954389994e-10
-2.1366146846e-08
-4.74318996081e-09
6.47868273295e-10
-2.09486660133e-08
-4.44816174113e-09
5.47880061153e-10
-2.04062199554e-08
-4.09354341965e-09
3.35015277646e-10
-1.97338034864e-08
-3.69650449844e-09
-1.89513931303e-08
-3.27450760493e-09
6.40505261221e-12
-3.64310433353e-10
-1.8601998119e-08
-3.56809480075e-09
-7.68027790183e-13
-6.01963432416e-10
-1.93252074448e-08
-4.02469175474e-09
-7.13195795252e-10
-1.99366009903e-08
-4.45059285496e-09
-7.03412465522e-10
-2.04242274191e-08
-4.8286063808e-09
-5.86530262304e-10
-2.0797184959e-08
-5.14161934833e-09
-3.85500865174e-10
-2.10608789699e-08
-5.37587022191e-09
-1.31169414258e-10
-2.12232646163e-08
-5.52212685709e-09
1.40986335389e-10
-2.12839531283e-08
-5.57342722699e-09
3.95242340165e-10
-2.12228526448e-08
-5.52193908071e-09
5.96117788246e-10
-2.10600787032e-08
-5.37549660084e-09
7.12762911685e-10
-2.07960431259e-08
-5.14106747074e-09
7.2221360647e-10
-2.04228184061e-08
-4.82788802401e-09
6.10527642647e-10
-1.99350196711e-08
-4.44972424017e-09
3.72252818305e-10
-1.93235320871e-08
-4.02369037369e-09
-1.86002437566e-08
-3.56698663946e-09
6.32392234367e-12
-3.97763808377e-10
-1.7787754485e-08
-3.74444514772e-09
-6.87519140469e-13
-6.58611424156e-10
-1.84364268405e-08
-4.22547382272e-09
-7.80574234418e-10
-1.8978028659e-08
-4.67110620609e-09
-7.69773149478e-10
-1.94053879127e-08
-5.06471827428e-09
-6.41722339191e-10
-1.97308454528e-08
-5.38949519571e-09
-4.21798512122e-10
-1.99605819879e-08
-5.63192762529e-09
-1.43821519828e-10
-2.01018779082e-08
-5.78294551045e-09
1.53536541888e-10
-2.01545960958e-08
-5.83574183416e-09
4.31427586537e-10
-2.01015133134e-08
-5.78276201459e-09
6.51176711816e-10
-1.99598723186e-08
-5.63156342984e-09
7.78960812896e-10
-1.97298283292e-08
-5.38895936892e-09
7.89395646145e-10
-1.94041217291e-08
-5.06402450978e-09
6.66950154331e-10
-1.89765862029e-08
-4.67027255294e-09
4.05473574199e-10
-1.84348626305e-08
-4.22451815372e-09
-1.77860399375e-08
-3.74339211568e-09
6.21065085161e-12
-4.28125050714e-10
-1.66191276861e-08
-3.81520869076e-09
-6.13034983182e-13
-7.10030073866e-10
-1.71843983468e-08
-4.31325990525e-09
-8.41907854283e-10
-1.76525274258e-08
-4.77215182665e-09
-8.30159854399e-10
-1.80185919952e-08
-5.1758843201e-09
-6.91815540673e-10
-1.82968715655e-08
-5.5080325997e-09
-4.54638997377e-10
-1.84933051933e-08
-5.75541929035e-09
-1.5521357331e-10
-1.86139455174e-08
-5.90917114171e-09
1.64949881276e-10
-1.8658751519e-08
-5.96270964342e-09
4.64274159945e-10
-1.86136213081e-08
-5.90899106915e-09
7.01246418915e-10
-1.84926716204e-08
-5.75506293519e-09
8.39282484405e-10
-1.82959567829e-08
-5.50751079077e-09
8.5061590949e-10
-1.80174390482e-08
-5.17521317207e-09
7.1821017829e-10
-1.76511884629e-08
-4.77135193525e-09
4.35646476081e-10
-1.71829083109e-08
-4.31235026273e-09
-1.6617425571e-08
-3.81421375302e-09
6.11489518689e-12
-4.56100511019e-10
-1.51914572598e-08
-3.79301179001e-09
-5.47587049044e-13
-7.57369215646e-10
-1.56690197944e-08
-4.30284744031e-09
-8.98575518351e-10
-1.60633855706e-08
-4.77050448089e-09
-8.85805603506e-10
-1.637046101e-08
-5.18051265568e-09
-7.37717332778e-10
-1.66044065022e-08
-5.5168841482e-09
-4.84564464675e-10
-1.67698225369e-08
-5.76686620244e-09
-1.65524999595e-10
-1.68711876896e-08
-5.92184528112e-09
1.75406315997e-10
-1.6908505515e-08
-5.97555619984e-09
4.94326616107e-10
-1.68708915364e-08
-5.92166841355e-09
7.47240262025e-10
-1.67692409569e-08
-5.76651720662e-09
8.94971536674e-10
-1.66035582527e-08
-5.51637556754e-09
9.07269734628e-10
-1.63693749223e-08
-5.17986309679e-09
7.65479045042e-10
-1.60620957133e-08
-4.76973735798e-09
4.63506833183e-10
-1.56675437603e-08
-4.30198318904e-09
-1.51897205417e-08
-3.79207530647e-09
6.061426517e-12
-4.8213979994e-10
-1.35873705773e-08
-3.69010763224e-09
-4.89550108306e-13
-8.02062915444e-10
-1.39754114827e-08
-4.20802946064e-09
-9.52222532114e-10
-1.42985579099e-08
-4.68128410969e-09
-9.3796591536e-10
-1.45518850358e-08
-5.09472298691e-09
-7.80216206918e-10
-1.47462314947e-08
-5.43287824722e-09
-5.11996105284e-10
-1.48839678168e-08
-5.6835724846e-09
-1.74893823319e-10
-1.49680212139e-08
-5.8385549626e-09
1.85024541134e-10
-1.49985073851e-08
-5.89197151327e-09
5.21987921127e-10
-1.49677372567e-08
-5.83838187483e-09
7.89931379593e-10
-1.48834062138e-08
-5.68323181916e-09
9.47271729959e-10
-1.47454033081e-08
-5.43238395683e-09
9.60995086068e-10
-1.45508072656e-08
-5.09409589238e-09
8.10188558908e-10
-1.4297249187e-08
-4.68055042623e-09
4.89506613268e-10
-1.39738762137e-08
-4.207211278e-09
-1.35855375498e-08
-3.68923032806e-09
6.05770568681e-12
-5.07298160569e-10
-1.18776219668e-08
-3.51732458559e-09
-4.39487882742e-13
-8.46827085226e-10
-1.21749934592e-08
-4.04084362847e-09
-1.00493200628e-09
-1.24336692021e-08
-4.51745264781e-09
-9.8767012622e-10
-1.26412668366e-08
-4.93205448498e-09
-8.19706111043e-10
-1.28018439364e-08
-5.26993058469e-09
-5.37062575826e-10
-1.29156770007e-08
-5.51970762881e-09
-1.83354848279e-10
-1.29846241429e-08
-5.67362683585e-09
1.93811449251e-10
-1.30090692412e-08
-5.72634313695e-09
5.47360243867e-10
-1.29843321577e-08
-5.6734588611e-09
8.29688653749e-10
-1.29150962183e-08
-5.51937768447e-09
9.97189428182e-10
-1.28009813935e-08
-5.26945351175e-09
1.01385511026e-09
-1.26401293177e-08
-4.93145271066e-09
8.55037856855e-10
-1.24322635007e-08
-4.51675496526e-09
5.146890173e-10
-1.21733107678e-08
-4.04007440717e-09
-1.18756077192e-08
-3.5165098855e-09
6.08918332489e-12
-5.3764253543e-10
-1.01177392321e-08
-3.28382500574e-09
-3.98577558621e-13
-8.976928367e-10
-1.03287119567e-08
-3.81179906086e-09
-1.05927556206e-09
-1.05366986345e-08
-4.29011376591e-09
-1.03555959945e-09
-1.07076004394e-08
-4.70384643567e-09
-8.56215236582e-10
-1.08398462293e-08
-5.03955622528e-09
-5.59697834882e-10
-1.09333013122e-08
-5.28693782102e-09
-1.90894215028e-10
-1.09893622045e-08
-5.43883591906e-09
2.01723515301e-10
-1.10086097213e-08
-5.49049167007e-09
5.70348547023e-10
-1.0989038246e-08
-5.43867508693e-09
8.66511365938e-10
-1.0932656341e-08
-5.28662231917e-09
1.04533950392e-09
-1.08388833661e-08
-5.03910109693e-09
1.06839608314e-09
-1.07063245681e-08
-4.70327470066e-09
9.06037201341e-10
-1.05351105174e-08
-4.28945611045e-09
5.45106574257e-10
-1.03267881612e-08
-3.81108337144e-09
-1.01154478365e-08
-3.28308013164e-09
6.1648786803e-12
-5.93543952413e-10
-2.99674685065e-09
-3.54173931459e-13
-8.33574443385e-09
-9.66027185047e-10
-3.53022202858e-09
-8.49719343933e-09
-1.12287783373e-09
-4.00837661977e-09
-8.67026082497e-09
-1.08849598541e-09
-4.41928582818e-09
-8.8114538281e-09
-8.95744008062e-10
-4.75122036343e-09
-8.92022565203e-09
-5.84047181454e-10
-4.99503168382e-09
-8.9972946981e-09
-1.98989903357e-10
-5.1441729552e-09
-9.04325725317e-09
2.10212010684e-10
-5.19449353568e-09
-9.05841947704e-09
5.95070328984e-10
-5.14402198768e-09
-9.04287349544e-09
9.06374435379e-10
-4.99473577446e-09
-8.99653082692e-09
1.09855439323e-09
-4.7507941319e-09
-8.91908726464e-09
1.13221086096e-09
-4.41875158222e-09
-8.80994733908e-09
9.74515188167e-10
-4.00776554229e-09
-8.66838723288e-09
6.01095467849e-10
-3.52956183445e-09
-8.49493249398e-09
-2.99608791572e-09
6.25827463648e-12
-8.33306976348e-09
-6.5990199772e-12
3.75600326277e-10
-4.62155972496e-10
1.23273023695e-13
-9.89350433115e-12
4.15027395835e-10
-5.12577738228e-10
-1.06178235279e-11
4.52839210225e-10
-5.60553625699e-10
-9.95737673755e-12
4.87500191554e-10
-6.03838317954e-10
-8.09659355103e-12
5.16335636977e-10
-6.40159840199e-10
-5.32954544424e-12
5.37983107878e-10
-6.67637612519e-10
-1.96007634729e-12
5.51569356737e-10
-6.85009838375e-10
1.62359670595e-12
5.56408191422e-10
-6.91251355153e-10
4.99051745109e-12
5.51476154199e-10
-6.85003287487e-10
7.74486153109e-12
5.37797072351e-10
-6.67624529475e-10
9.57202049445e-12
5.16072224514e-10
-6.40140240717e-10
1.01967625417e-11
4.87217701655e-10
-6.03812034501e-10
9.43568301054e-12
4.5256595978e-10
-5.60520547749e-10
6.15214892418e-12
4.14850678883e-10
-5.12537317036e-10
3.75518404433e-10
-4.62106462961e-10
-2.52032049483e-13
-9.13382113573e-12
1.07264393812e-09
-1.21800597067e-09
3.10186332752e-13
-1.26521113886e-11
1.17162303202e-09
-1.34817405832e-09
-1.28062246643e-11
1.26491220864e-09
-1.47148323358e-09
-1.12872873731e-11
1.34847163723e-09
-1.58229020326e-09
-8.8126849084e-12
1.41707146269e-09
-1.67498023967e-09
-5.7433386719e-12
1.46795876138e-09
-1.74494008181e-09
-2.30430989742e-12
1.49970353986e-09
-1.78909554409e-09
1.2795170789e-12
1.51104439357e-09
-1.80492888612e-09
4.71165890253e-12
1.49952007246e-09
-1.78907557862e-09
7.75230329524e-12
1.46759314649e-09
-1.74490013477e-09
1.01602050452e-11
1.41655377374e-09
-1.67492057645e-09
1.1600598358e-11
1.34790212878e-09
-1.58221080442e-09
1.13871960381e-11
1.2643843246e-09
-1.47138415239e-09
7.91753916063e-12
1.17128263873e-09
-1.34805442332e-09
1.07251696124e-09
-1.21786302006e-09
-7.24097104047e-13
-4.84386713623e-12
1.80885670133e-09
-1.84119096734e-09
4.37859405023e-13
-4.21118935985e-12
1.95413333628e-09
-2.03844903549e-09
-2.11435190832e-12
2.08896002294e-09
-2.22476587127e-09
-1.6310674219e-13
2.20694950163e-09
-2.39180930403e-09
7.57386915252e-13
2.30233375598e-09
-2.53129991637e-09
5.99251184011e-13
2.37214643692e-09
-2.63644853408e-09
-2.92671834864e-13
2.4153924211e-09
-2.70272156112e-09
-1.40664091923e-12
2.43090035842e-09
-2.72642211818e-09
-2.30752263301e-12
2.41518121198e-09
-2.70268705803e-09
-2.49960686863e-12
2.37172890614e-09
-2.63638067653e-09
-1.6531402198e-12
2.30175040447e-09
-2.53119962071e-09
2.10221866641e-13
2.20631676731e-09
-2.39167779606e-09
2.25877435971e-12
2.08840985674e-09
-2.22460391114e-09
2.98704878577e-12
1.95381841962e-09
-2.03825593866e-09
1.80882742886e-09
-1.84096450326e-09
-1.15046694516e-12
3.48928326965e-12
2.4266915459e-09
-2.35950299317e-09
5.19792879417e-13
1.0447905341e-11
2.5925981282e-09
-2.61484995669e-09
1.55132145656e-11
2.74433588872e-09
-2.8553209662e-09
1.73756771497e-11
2.87376220729e-09
-3.07045056051e-09
1.54381795059e-11
2.97646465372e-09
-3.24980875507e-09
1.02174742184e-11
3.05046157425e-09
-3.3848494093e-09
2.85919510774e-12
3.09593723028e-09
-3.46984654022e-09
-5.18792735165e-12
3.11234004117e-09
-3.50015974777e-09
-1.2555131739e-11
3.09573810761e-09
-3.4697983506e-09
-1.78067676862e-11
3.0500722971e-09
-3.38475502121e-09
-1.98091568826e-11
2.97593011724e-09
-3.24966984042e-09
-1.80197851765e-11
2.87319496009e-09
-3.07026908598e-09
-1.29744770687e-11
2.7438798059e-09
-2.85509936229e-09
-5.87092362801e-12
2.59240238869e-09
-2.61458960575e-09
2.42681441277e-09
-2.35920426346e-09
-1.52888392575e-12
1.37431899294e-11
2.85066809957e-09
-2.77874009975e-09
5.66345498766e-13
2.7309803786e-11
3.01254876017e-09
-3.08389353011e-09
3.51446081119e-11
3.1584953521e-09
-3.37038893003e-09
3.64015553224e-11
3.27945157561e-09
-3.62613713606e-09
3.10722271418e-11
3.37333978048e-09
-3.83902453043e-09
2.03526532811e-11
3.4397317375e-09
-3.99912171313e-09
6.19645258938e-12
3.48017311206e-09
-4.09974796956e-09
-9.07566067933e-12
3.49489595547e-09
-4.13553105355e-09
-2.3239313828e-11
3.48000404238e-09
-4.0996864213e-09
-3.39824033871e-11
3.43940575794e-09
-3.99900138199e-09
-3.93596503561e-11
3.37290080151e-09
-3.83884837952e-09
-3.81491438026e-11
3.27900399835e-09
-3.625909032e-09
-3.02988320382e-11
3.15817518025e-09
-3.37011358889e-09
-1.65443929094e-11
3.01250190723e-09
-3.08357452921e-09
2.85095101944e-09
-2.7783804112e-09
-1.85446182514e-12
2.43108432974e-11
3.06755161605e-09
-3.10488377535e-09
5.85170501554e-13
4.36895141831e-11
3.2087982806e-09
-3.45235414987e-09
5.36549693862e-11
3.33418732682e-09
-3.77756510139e-09
5.39308071107e-11
3.43476123105e-09
-4.06724770855e-09
4.52354266392e-11
3.51077217711e-09
-4.30801225036e-09
2.943845795e-11
3.56330068583e-09
-4.48886584391e-09
9.18516223842e-12
3.59497163561e-09
-4.60237258934e-09
-1.2513862464e-11
3.60667112897e-09
-4.64261010506e-09
-3.2772427999e-11
3.59483645218e-09
-4.60229792254e-09
-4.85843317138e-11
3.5630442238e-09
-4.48872019466e-09
-5.73076148012e-11
3.51043630992e-09
-4.30780027263e-09
-5.70489258189e-11
3.43443658346e-09
-4.06697573248e-09
-4.70307949322e-11
3.33399734508e-09
-3.77724077287e-09
-2.74330488817e-11
3.20886947502e-09
-3.45198373907e-09
3.06795514354e-09
-3.10447283187e-09
-2.12589563617e-12
3.40897873113e-11
3.10150990071e-09
-3.34406999673e-09
5.84309587589e-13
5.80629961634e-11
3.21477413612e-09
-3.72717578607e-09
6.94324041893e-11
3.31336641596e-09
-4.08462482023e-09
6.85400147936e-11
3.38943216266e-09
-4.4023398344e-09
5.6845935706e-11
3.44498633623e-09
-4.66600137547e-09
3.68079496015e-11
3.48222762905e-09
-4.86382573316e-09
1.16024795003e-11
3.50439644209e-09
-4.98779241284e-09
-1.52741185912e-11
3.51277871237e-09
-5.03158831429e-09
-4.04823280247e-11
3.50429279911e-09
-4.98770506121e-09
-6.05263903559e-11
3.4820341966e-09
-4.863655746e-09
-7.22288394546e-11
3.44474071813e-09
-4.66575540331e-09
-7.3109840937e-11
3.38921012567e-09
-4.40202708753e-09
-6.1655653542e-11
3.31327609772e-09
-4.0842563318e-09
-3.74403208604e-11
3.21492446118e-09
-3.72676079254e-09
3.10197705565e-09
-3.34361654203e-09
-2.34120667086e-12
4.24381841812e-11
2.99298564409e-09
-3.50236551797e-09
5.67833056209e-13
6.97906558829e-11
3.07816780311e-09
-3.91516151394e-09
8.19345860811e-11
3.15004913132e-09
-4.29911136327e-09
7.98554863448e-11
3.20282327301e-09
-4.6396364665e-09
6.5686722131e-11
3.23954799406e-09
-4.9217830916e-09
4.23573088782e-11
3.2630775135e-09
-5.13321734152e-09
1.34161409364e-11
3.2768265969e-09
-5.26549004984e-09
-1.73325498875e-11
3.28223476629e-09
-5.31204517057e-09
-4.62736145757e-11
3.27674883866e-09
-5.26539080372e-09
-6.96002942352e-11
3.26293472901e-09
-5.13302464676e-09
-8.37592752579e-11
3.23937226285e-09
-4.92150575878e-09
-8.58005368559e-11
3.20267611992e-09
-4.63928680001e-09
-7.35448014283e-11
3.15001933609e-09
-4.29870401004e-09
-4.59353355954e-11
3.07834755581e-09
-3.91470872956e-09
2.99344639089e-09
-3.50187778864e-09
-2.50404684907e-12
4.90600476079e-11
2.7846784048e-09
-3.58554282814e-09
5.40505674652e-13
7.8765767795e-11
2.8459293069e-09
-4.02270387784e-09
9.12266177726e-11
2.89476725306e-09
-4.42803199975e-09
8.80709550254e-11
2.92818836732e-09
-4.78669827442e-09
7.19898345004e-11
2.94968929864e-09
-5.08336920801e-09
4.62658689627e-11
2.96239815206e-09
-5.30538210102e-09
1.46878846654e-11
2.96957474912e-09
-5.44401116624e-09
-1.87680778777e-11
2.97262541003e-09
-5.49260092697e-09
-5.03425271181e-11
2.96951696405e-09
-5.44390123884e-09
-7.60547007129e-11
2.96229299117e-09
-5.30516910102e-09
-9.21088817917e-11
2.94956199757e-09
-5.08306411508e-09
-9.52031930155e-11
2.92808602466e-09
-4.78631649678e-09
-8.2607449377e-11
2.89476040609e-09
-4.42759179482e-09
-5.26369316836e-11
2.84609154133e-09
-4.02222037128e-09
2.78507729836e-09
-3.58502891945e-09
-2.61951551412e-12
5.39033900111e-11
2.51421847606e-09
-3.5989681552e-09
5.06570340904e-13
8.51609798763e-11
2.55730315825e-09
-4.05568605786e-09
9.76612201014e-11
2.58811443371e-09
-4.4777911107e-09
9.36282470766e-11
2.60691655288e-09
-4.850394404e-09
7.61729553509e-11
2.61726293088e-09
-5.15800004691e-09
4.88251434094e-11
2.62227012693e-09
-5.38782684516e-09
1.551590092e-11
2.62482669247e-09
-5.53102655877e-09
-1.96987600115e-11
2.62618129027e-09
-5.58098676538e-09
-5.3000365678e-11
2.62478254934e-09
-5.53090757057e-09
-8.03268634967e-11
2.62218924155e-09
-5.38759668279e-09
-9.77388780779e-11
2.61716315891e-09
-5.15767172108e-09
-1.01688910689e-10
2.60683128131e-09
-4.84998625515e-09
-8.90342391117e-11
2.58809529764e-09
-4.47732481664e-09
-5.75062798639e-11
2.55740587653e-09
-4.05517930032e-09
2.51449829019e-09
-3.59843622023e-09
-2.6956679628e-12
5.70788994284e-11
2.21145308072e-09
-3.54761016193e-09
4.69129978032e-13
8.92930771453e-11
2.24195831704e-09
-4.01954366096e-09
1.01725081464e-10
2.25966450494e-09
-4.45431710444e-09
9.70765561193e-11
2.26828513835e-09
-4.83708439223e-09
7.87265869805e-11
2.27121993157e-09
-5.15236990744e-09
5.03671874486e-11
2.27134098558e-09
-5.38748271805e-09
1.60115122574e-11
2.27102192315e-09
-5.53361293047e-09
-2.02544121623e-11
2.27127847766e-09
-5.58433340083e-09
-5.4597665867e-11
2.27098482063e-09
-5.53348685092e-09
-8.29256636007e-11
2.27127113875e-09
-5.38723916164e-09
-1.01216548372e-10
2.27112746055e-09
-5.15202364153e-09
-1.05762573279e-10
2.26819060524e-09
-4.83665636499e-09
-9.31591375493e-11
2.25960210823e-09
-4.45383210238e-09
-6.0670528687e-11
2.24196655985e-09
-4.01902151743e-09
2.21157146417e-09
-3.54706842694e-09
-2.74008149001e-12
5.87885742603e-11
1.89841360614e-09
-3.43611932203e-09
4.28037622736e-13
9.15922560541e-11
1.92069718291e-09
-3.91942688955e-09
1.04035009741e-10
1.92936837885e-09
-4.36329411907e-09
9.9071597467e-11
1.9315278019e-09
-4.75288409956e-09
8.02106261684e-11
1.93021103065e-09
-5.07291186966e-09
5.1260614589e-11
1.92779685936e-09
-5.31100431292e-09
1.62986987847e-11
1.92604980231e-09
-5.45856219689e-09
-2.05736508114e-11
1.9257056722e-09
-5.50948424523e-09
-5.55176205339e-11
1.9260131986e-09
-5.45843129069e-09
-8.44258485708e-11
1.92772426557e-09
-5.31075164845e-09
-1.03212382617e-10
1.93010583292e-09
-5.07255355732e-09
-1.08055440255e-10
1.93139916557e-09
-4.75244322497e-09
-9.5426333944e-11
1.92923491484e-09
-4.36279822451e-09
-6.23444207376e-11
1.92058294839e-09
-3.91889764571e-09
1.89834260022e-09
-3.43557619243e-09
-2.76084984581e-12
5.93474925938e-11
1.59042389008e-09
-3.26892065864e-09
3.85868991625e-13
9.27704823218e-11
1.60698608004e-09
-3.76043584621e-09
1.05517290884e-10
1.60972061776e-09
-4.21044241455e-09
1.00503744704e-10
1.6085031653e-09
-4.60392389488e-09
8.13304386696e-11
1.60556362344e-09
-4.92603561154e-09
5.19526524733e-11
1.602529614e-09
-5.16500029838e-09
1.65252706277e-11
1.60050444555e-09
-5.31261144526e-09
-2.08138259041e-11
1.5999657673e-09
-5.3632257874e-09
-5.62176172641e-11
1.60046032165e-09
-5.31247826079e-09
-8.55427692063e-11
1.60243957257e-09
-5.16474330319e-09
-1.04626616775e-10
1.60542627302e-09
-4.92567168667e-09
-1.09503411552e-10
1.60831720289e-09
-4.60347759216e-09
-9.65565672718e-11
1.60949035178e-09
-4.20994367243e-09
-6.2850951743e-11
1.60672176149e-09
-3.7599083578e-09
1.59013861909e-09
-3.26838557694e-09
-2.7621550498e-12
5.94248343148e-11
1.29724360583e-09
-3.05028098622e-09
3.44353736834e-13
9.41782407771e-11
1.30854091561e-09
-3.54801106974e-09
1.07638655054e-10
1.30805291208e-09
-4.00182103287e-09
1.02616828495e-10
1.30627817112e-09
-4.39652485631e-09
8.30076421452e-11
1.3039329406e-09
-4.71825369189e-09
5.30015487504e-11
1.30179139131e-09
-4.95614792396e-09
1.68824744499e-11
1.30038580367e-09
-5.1025567394e-09
-2.11716700986e-11
1.2999564215e-09
-5.15240194475e-09
-5.7261046094e-11
1.30032571491e-09
-5.10242416177e-09
-8.72026181975e-11
1.30166762858e-09
-4.95589199242e-09
-1.06708253805e-10
1.30373972772e-09
-4.71789131191e-09
-1.11578664807e-10
1.30600867489e-09
-4.39608100393e-09
-9.79068212679e-11
1.30770179556e-09
-4.00132739329e-09
-6.28655960537e-11
1.30810156193e-09
-3.54749453449e-09
1.29671642177e-09
-3.04976542539e-09
-2.74953540238e-12
5.86819328578e-11
-2.7853839204e-09
2.98380987885e-13
1.02701580598e-09
9.74590034034e-11
-3.28959491934e-09
1.02921645025e-09
1.11989317096e-10
-3.74445609073e-09
1.02967403862e-09
1.06729264897e-10
-4.1374402449e-09
1.0297511484e-09
8.62742997877e-11
-4.45624541784e-09
1.02946293476e-09
5.50891663783e-11
-4.69115062715e-09
1.0291385826e-09
1.76002558731e-11
-4.83514714371e-09
1.02887984023e-09
-2.18792526473e-11
-4.88378645316e-09
1.02875673723e-09
-5.93319731125e-11
-4.83501867219e-09
1.0287924151e-09
-9.04403046724e-11
-4.69090240933e-09
1.02896164331e-09
-1.10775630072e-10
-4.45589355968e-09
1.02918898607e-09
-1.15868322842e-10
-4.13700870202e-09
1.02937121266e-09
-1.01117913591e-10
-3.74397701336e-09
1.02917361024e-09
-6.20526387513e-11
-3.28909542738e-09
1.02857980737e-09
-2.78490729937e-09
-2.72024456827e-12
1.02621280603e-09
5.45235588742e-12
-7.96808830196e-11
-3.87955785673e-10
-7.12892252257e-14
8.41906096385e-12
-8.88053999976e-11
-4.269079628e-10
9.67217683177e-12
-9.83148290978e-11
-4.63693794728e-10
9.42741427904e-12
-1.07062514518e-10
-4.9670748494e-10
7.82804630826e-12
-1.14437799134e-10
-5.24285677895e-10
5.14404302681e-12
-1.20007319847e-10
-5.45076022839e-10
1.74652415358e-12
-1.23509053603e-10
-5.58197050019e-10
-1.90556901756e-12
-1.24744540218e-10
-5.62920490008e-10
-5.29391305104e-12
-1.23475548908e-10
-5.58187138564e-10
-7.95817118469e-12
-1.1994118946e-10
-5.45056454637e-10
-9.52733774699e-12
-1.14345005315e-10
-5.24257002082e-10
-9.73876257058e-12
-1.06957863066e-10
-4.96670457833e-10
-8.43905275777e-12
-9.81962701564e-11
-4.63649149847e-10
-5.43199473358e-12
-8.87117247794e-11
-4.26856063483e-10
-7.96283960915e-11
-3.87895053276e-10
-3.63729849109e-14
1.2198172122e-11
-1.81348398883e-10
-1.12853657126e-09
-1.74051041159e-13
1.94515527402e-11
-1.9977875795e-10
-1.24473105543e-09
2.26133689887e-11
-2.18710853602e-10
-1.35455516229e-09
2.21206229259e-11
-2.36008711878e-10
-1.45313233811e-09
1.8389818411e-11
-2.50423669899e-10
-1.53550943324e-09
1.20883894465e-11
-2.61206527817e-10
-1.59763358048e-09
4.10986299488e-12
-2.67948041424e-10
-1.6368198261e-09
-4.46331697155e-12
-2.70329485943e-10
-1.65087244046e-09
-1.24202172117e-11
-2.67878105399e-10
-1.63679110768e-09
-1.86759773623e-11
-2.61067656135e-10
-1.59757682492e-09
-2.23382292406e-11
-2.5022640215e-10
-1.53542624886e-09
-2.27482165276e-11
-2.35777476594e-10
-1.45302492281e-09
-1.94827674703e-11
-2.18459811209e-10
-1.35442584722e-09
-1.21375785725e-11
-1.99566491875e-10
-1.24458105415e-09
-1.81220158918e-10
-1.12836369435e-09
-7.66717355148e-14
1.57398842471e-11
-2.65595522123e-10
-1.77260564044e-09
-2.38886313891e-13
2.54792051628e-11
-2.89950536041e-10
-1.9582670556e-09
2.97900819954e-11
-3.14599212035e-10
-2.13346048306e-09
2.91732465209e-11
-3.36960416556e-10
-2.29048934346e-09
2.42475334016e-11
-3.55430119264e-10
-2.42158247299e-09
1.59340357793e-11
-3.69136032849e-10
-2.52037520784e-09
5.42666640835e-12
-3.77661887118e-10
-2.58262543848e-09
-5.8554200155e-12
-3.80675253027e-10
-2.60488499218e-09
-1.63347704463e-11
-3.77574494858e-10
-2.58257917338e-09
-2.45900559906e-11
-3.6896301426e-10
-2.52028390863e-09
-2.94284350463e-11
-3.55184345637e-10
-2.42144885377e-09
-2.99362716516e-11
-3.36670946731e-10
-2.29031714886e-09
-2.54937205314e-11
-3.14289364374e-10
-2.13325391147e-09
-1.56379292733e-11
-2.89682967222e-10
-1.95802882243e-09
-2.65430772354e-10
-1.7723342395e-09
-8.77604217051e-14
1.70591978358e-11
-3.31590042282e-10
-2.31044811782e-09
-2.75263048733e-13
2.78789437401e-11
-3.59340555109e-10
-2.55650314494e-09
3.27455012607e-11
-3.86890569002e-10
-2.78813790546e-09
3.21043772759e-11
-4.11596903381e-10
-2.99539259157e-09
2.66833559016e-11
-4.31802663598e-10
-3.16820082797e-09
1.75355014579e-11
-4.46673145461e-10
-3.29831076138e-09
5.98935716234e-12
-4.55877618774e-10
-3.38019466651e-09
-6.40166306318e-12
-4.5913359336e-10
-3.40939190307e-09
-1.7918288827e-11
-4.55786320015e-10
-3.38013207558e-09
-2.70056347759e-11
-4.46492976502e-10
-3.29818745781e-09
-3.23355051244e-11
-4.31545989575e-10
-3.16802075148e-09
-3.28602861016e-11
-4.11291769398e-10
-2.99516125504e-09
-2.78552528382e-11
-3.86566336274e-10
-2.78786173437e-09
-1.69140611964e-11
-3.5905729446e-10
-2.5561870499e-09
-3.3140651294e-10
-2.31009251781e-09
-7.59082718855e-14
1.68487869448e-11
-3.78849974571e-10
-2.74818213593e-09
-2.90139316404e-13
2.77417528715e-11
-4.07983101198e-10
-3.04633990133e-09
3.27102663483e-11
-4.36203451685e-10
-3.32625386629e-09
3.21103424663e-11
-4.61103841486e-10
-3.57621721361e-09