/*--------------------------------*- C++ -*----------------------------------*\
  =========                 |
  \\      /  F ield         | OpenFOAM: The Open Source CFD Toolbox
   \\    /   O peration     | Website:  https://openfoam.org
    \\  /    A nd           | Version:  7
     \\/     M anipulation  |
\*---------------------------------------------------------------------------*/
FoamFile
{
    version     2.0;
    format      ascii;
    class       volVectorField;
    location    "0.76";
    object      U;
}
// * * * * * * * * * * * * * * * * * * * * * * * * * * * * * * * * * * * * * //

dimensions      [0 1 -1 0 0 0 0];

internalField   nonuniform List<vector> 
22500
(
(-2.50496102845e-05 -2.86344355885e-05 0.000127606731857)
(-2.28297892723e-05 -3.29654243407e-05 0.000136070822557)
(-1.99392241951e-05 -3.69896925456e-05 0.000145322745)
(-1.65990723496e-05 -4.04229260269e-05 0.000154249238125)
(-1.28340744915e-05 -4.31959254267e-05 0.000162019139847)
(-8.77869789243e-06 -4.52266947911e-05 0.000167995558503)
(-4.52185231079e-06 -4.64701220182e-05 0.000171734293581)
(-1.5911722389e-07 -4.6899170046e-05 0.000172979674383)
(4.20745187613e-06 -4.65019111782e-05 0.000171654718165)
(8.47611074806e-06 -4.52887772647e-05 0.000167835219659)
(1.2551028037e-05 -4.32851192041e-05 0.000161777120093)
(1.63421829234e-05 -4.0534043281e-05 0.000153924502102)
(1.97140139526e-05 -3.71163702927e-05 0.00014491216777)
(2.26357732324e-05 -3.31014843664e-05 0.000135567249334)
(2.48977497076e-05 -2.87653502117e-05 0.000127008050505)
(-7.61757761076e-05 -8.63980962901e-05 0.000119475124102)
(-6.94024507057e-05 -9.92621271684e-05 0.000117548485735)
(-6.06863055222e-05 -0.00011128009822 0.000119095288274)
(-5.0525383447e-05 -0.000121544259651 0.00012237012743)
(-3.90868434697e-05 -0.000129827799519 0.000126048455176)
(-2.67358051602e-05 -0.000135895788184 0.000129195287606)
(-1.3760348074e-05 -0.000139612623593 0.000131226160899)
(-4.59834541105e-07 -0.000140893173602 0.000131843909424)
(1.28518093834e-05 -0.000139702771679 0.000130992492357)
(2.58613900126e-05 -0.000136071214255 0.000128723661472)
(3.82696570664e-05 -0.000130078227783 0.000125335342501)
(4.97865141219e-05 -0.000121854312883 0.000121411367722)
(6.00437308867e-05 -0.000111629949361 0.000117880034329)
(6.88629262932e-05 -9.96335148025e-05 0.000116053282081)
(7.57635980958e-05 -8.67566436828e-05 0.00011768859562)
(-0.000126987068972 -0.000142862643146 -0.000142444183524)
(-0.000115507100858 -0.000163794737108 -0.000177369549151)
(-0.000101026821226 -0.000183240103434 -0.000204980237047)
(-8.40921880033e-05 -0.000199860307368 -0.000226430187998)
(-6.5052649618e-05 -0.000213268143237 -0.000242644889031)
(-4.44653112552e-05 -0.00022309622492 -0.000254139391469)
(-2.28173661959e-05 -0.000229116301614 -0.000261108694546)
(-6.19617033181e-07 -0.000231182933272 -0.000263571350869)
(2.15909942923e-05 -0.000229239446563 -0.000261462744297)
(4.32782890638e-05 -0.000223337499014 -0.000254857001611)
(6.39316240139e-05 -0.000213616264619 -0.000243734855087)
(8.30619572705e-05 -0.000200297503872 -0.000227902990212)
(0.000100110150788 -0.000183742779611 -0.000206857258377)
(0.000114718070346 -0.000164339886791 -0.000179694804716)
(0.000126362452728 -0.000143404500659 -0.00014525084685)
(-0.000174380912402 -0.000195028730788 -0.000596076063286)
(-0.000158326219239 -0.00022275986693 -0.000673125720247)
(-0.000138379788616 -0.000248269465711 -0.000737494447087)
(-0.000115086772952 -0.000270055697521 -0.000789719430345)
(-8.89844256757e-05 -0.000287611970723 -0.000830352928844)
(-6.07730021055e-05 -0.000300481244697 -0.000859579184748)
(-3.1110875402e-05 -0.000308362321868 -0.000877319480205)
(-6.97026521979e-07 -0.000311059478109 -0.0008834150732)
(2.97293342944e-05 -0.00030849847032 -0.000877737426784)
(5.94298095033e-05 -0.000300749112511 -0.000860431852421)
(8.7706031164e-05 -0.000288000975276 -0.000831658025568)
(0.0001138988631 -0.000270548889552 -0.000791499249117)
(0.000137307393205 -0.000248843560098 -0.00073978661446)
(0.00015738962153 -0.000223392024122 -0.000676001214759)
(0.000173621346147 -0.000195672624109 -0.000599605935982)
(-0.000216189768023 -0.000240797000799 -0.00115591888284)
(-0.000195908576244 -0.000273649069573 -0.00127067915301)
(-0.000170977785056 -0.000303534801269 -0.00136635205549)
(-0.000142004680544 -0.000329022172534 -0.0014437563393)
(-0.000109692602812 -0.000349537326563 -0.00150369777871)
(-7.48386458637e-05 -0.000364576181251 -0.00154656225124)
(-3.8229934837e-05 -0.00037378462208 -0.00157241848009)
(-7.11205125098e-07 -0.000376928345544 -0.00158120977212)
(3.68187220058e-05 -0.000373920007646 -0.00157285538253)
(7.34618537994e-05 -0.000364843392438 -0.00154745948057)
(0.000108374440436 -0.00034992725654 -0.00150508223419)
(0.000140769506676 -0.000329519999942 -0.00144566316091)
(0.000169850256561 -0.000304119925788 -0.0013688359024)
(0.000194912269264 -0.000274301294883 -0.00127383800444)
(0.000215364579514 -0.000241476712368 -0.00115986757668)
(-0.000251426303978 -0.000279295161648 -0.0017438742991)
(-0.000227400679254 -0.000315537631821 -0.00188444110591)
(-0.000198087053466 -0.000348172502114 -0.00199973674749)
(-0.000164253063999 -0.000375962179742 -0.00209185650327)
(-0.000126727145868 -0.000398315335332 -0.00216243420167)
(-8.63643159311e-05 -0.000414708620619 -0.00221246053904)
(-4.40373228811e-05 -0.000424748202331 -0.00224242906649)
(-6.90597933808e-07 -0.000428169611429 -0.00225255289484)
(4.2665942883e-05 -0.00042487538731 -0.00224286118038)
(8.5023113061e-05 -0.000414960219122 -0.00221335247404)
(0.000125437557203 -0.0003986837314 -0.00216381940807)
(0.000163037158285 -0.000376434869748 -0.00209377966548)
(0.000196967545876 -0.000348732155305 -0.00200226521203)
(0.000226401955477 -0.000316167323208 -0.00188769395281)
(0.000250583761069 -0.000279965619138 -0.00174800573651)
(-0.000279918115181 -0.000310433922103 -0.00230618863778)
(-0.000252685983602 -0.000348461554637 -0.002459782256)
(-0.000219646640436 -0.000382431497333 -0.00258333367423)
(-0.000181816465552 -0.000411312697434 -0.00268071394641)
(-0.000140097942256 -0.000434542472659 -0.00275454625646)
(-9.53714843295e-05 -0.000451593690812 -0.0028064683941)
(-4.85575493845e-05 -0.000462041714371 -0.00283739680377)
(-6.58792745757e-07 -0.000465598275878 -0.00284780232805)
(4.72487547526e-05 -0.000462158273695 -0.00283781795332)
(9.40896790063e-05 -0.000451824584155 -0.00280734016742)
(0.000138862234915 -0.000434881154272 -0.00275590518871)
(0.000180646605908 -0.000411748484961 -0.00268260936051)
(0.000218562776284 -0.000382949904316 -0.00258583914934)
(0.000251711755568 -0.000349048576928 -0.00246302985157)
(0.000279083853692 -0.000311070844565 -0.00231036163031)
(-0.000301976402555 -0.000334559145205 -0.00281530392872)
(-0.0002720742945 -0.000372944846049 -0.0029721439518)
(-0.000235972116955 -0.000407055280894 -0.00309611013072)
(-0.000194991840172 -0.000436005976064 -0.00319277055546)
(-0.000150056954135 -0.00045930410518 -0.00326551731445)
(-0.000102045110333 -0.000476427382001 -0.00331641273924)
(-5.18937774464e-05 -0.000486927934079 -0.00334662250323)
(-6.29988801858e-07 -0.000490500328115 -0.00335676497225)
(5.06419981105e-05 -0.000487034384598 -0.00334703625218)
(0.000100818436375 -0.000476638336075 -0.00331726975147)
(0.000148872925628 -0.000459613682594 -0.00326685446838)
(0.000193868368007 -0.000436404659971 -0.00319463760261)
(0.000234927017765 -0.000407530619718 -0.00309858116849)
(0.000271129760549 -0.000373484800801 -0.0029753570768)
(0.000301158347666 -0.000335153868781 -0.0028194601453)
(-0.000318126375223 -0.000352198089723 -0.00326315353597)
(-0.000286058371557 -0.000389679973678 -0.00341739695837)
(-0.000247533002805 -0.00042290254099 -0.00353775234381)
(-0.00020419582903 -0.000451046916978 -0.00363104792044)
(-0.000156943067887 -0.00047372174497 -0.00370104216526)
(-0.000106624836834 -0.000490413964132 -0.00374991989537)
(-5.41723010602e-05 -0.000500660087401 -0.00377889566623)
(-6.10367286403e-07 -0.000504145497578 -0.00378861941194)
(5.29594914579e-05 -0.000500757969879 -0.0037793089708)
(0.000105436235645 -0.000490607872555 -0.00375077524972)
(0.000155795333829 -0.000474006200967 -0.00370237527124)
(0.000203105590813 -0.000451413102148 -0.00363290634224)
(0.000246516261827 -0.000423339335391 -0.00354020699277)
(0.000285135748013 -0.000390176724821 -0.00342058785851)
(0.00031732087921 -0.000352750987604 -0.00326729021284)
(-0.000328928164373 -0.000363898707537 -0.00365270524693)
(-0.000295156012422 -0.000399344502922 -0.00380169920579)
(-0.000254815811074 -0.00043075688264 -0.00391716960169)
(-0.000209851890724 -0.000457324546425 -0.00400664770526)
(-0.000161093869033 -0.000478769220618 -0.00407384407038)
(-0.000109344665314 -0.000494586207206 -0.00412081164476)
(-5.55131749733e-05 -0.000504304954035 -0.00414866989905)
(-6.01300904929e-07 -0.000507611515344 -0.00415802484119)
(5.4318418353e-05 -0.00050439578147 -0.0041490896871)
(0.000108173800641 -0.000494766061414 -0.00412167908031)
(0.000159963120553 -0.000479032901744 -0.00407519320488)
(0.000208777127031 -0.000457663811784 -0.0040085227217)
(0.000253811787338 -0.000431161473488 -0.0039196363235)
(0.000294241998055 -0.000399804843193 -0.00380489821994)
(0.000328125536469 -0.000364414392422 -0.00365684931761)
(-0.000334890775624 -0.000370160113693 -0.00399132942199)
(-0.000299839457145 -0.000402525690563 -0.00413439580312)
(-0.000258267656223 -0.000431272350792 -0.00424524051318)
(-0.000212346139035 -0.000455578167995 -0.00433153126089)
(-0.000162811463952 -0.000475253978778 -0.00439658851602)
(-0.000110410168293 -0.000489796330926 -0.00444217791674)
(-5.60197979922e-05 -0.000498739049641 -0.00446925796277)
(-6.01824548896e-07 -0.000501782475027 -0.00447836236414)
(5.48239728631e-05 -0.000498823819314 -0.00446968972976)
(0.000109238161606 -0.00048996416697 -0.0044430687035)
(0.0001616792816 -0.000475500070787 -0.00439797098854)
(0.000211269216241 -0.000455894819173 -0.00433344604771)
(0.000257260031032 -0.000431650091884 -0.00424774745195)
(0.000298919277662 -0.000402955983546 -0.00413763615512)
(0.00033407898651 -0.000370643863083 -0.00399551884065)
(-0.000336436502401 -0.000371396047015 -0.00428675143207)
(-0.000300521966718 -0.000399694524175 -0.00442420131048)
(-0.000258292212867 -0.000424991010412 -0.00453137125914)
(-0.000212022370335 -0.000446442436096 -0.00461546587863)
(-0.000162356575315 -0.000463874965663 -0.00467918612083)
(-0.000109994145756 -0.000476779032193 -0.00472396563274)
(-5.57774626686e-05 -0.000484714900692 -0.00475060449199)
(-6.10192600289e-07 -0.000487415938255 -0.00475957131914)
(5.45648803954e-05 -0.00048479404168 -0.00475105182429)
(0.000108805269439 -0.000476935823217 -0.00472488748)
(0.000161207320348 -0.000464105022187 -0.00468061461173)
(0.000210927985064 -0.000446738854236 -0.00461743873554)
(0.000257266388459 -0.000425345184607 -0.00453394163126)
(0.00029958206045 -0.000400099068283 -0.00442751011266)
(0.000335603540505 -0.000371851657825 -0.00429102101841)
(-0.000333908965559 -0.000367837107748 -0.00454499909027)
(-0.000297616740446 -0.000391199707511 -0.00467770017717)
(-0.000255281819069 -0.000412405781555 -0.00478244740771)
(-0.00020918811639 -0.00043053054357 -0.00486532606333)
(-0.000159946030123 -0.000445305569032 -0.00492838444701)
(-0.000108234655003 -0.000456234502517 -0.00497278940097)
(-5.48530271878e-05 -0.000462944553757 -0.00499923096822)
(-6.24542979641e-07 -0.000465227861896 -0.00500813931434)
(5.3611640394e-05 -0.000463017977444 -0.00499969528003)
(0.000107016785561 -0.000456380068139 -0.00497374589524)
(0.000158767428761 -0.000445519614664 -0.00492986611717)
(0.000208063922714 -0.000430807072835 -0.00486736952846)
(0.000254225760366 -0.00041273732053 -0.00478509875707)
(0.000296645756927 -0.000391580477858 -0.00468109396519)
(0.000333044966005 -0.00036826584295 -0.00454936341236)
(-0.000327869434153 -0.000359646367779 -0.0047694103144)
(-0.000291737088105 -0.000377394166105 -0.00489922928)
(-0.000249648755477 -0.000394065985358 -0.00500294740259)
(-0.0002041048641 -0.00040849422052 -0.00508537720061)
(-0.000155748502939 -0.000420221688883 -0.00514822287042)
(-0.000105238154389 -0.000428849193103 -0.00519251729667)
(-5.32989803969e-05 -0.000434124149245 -0.00521889908103)
(-6.43141641682e-07 -0.000435917961316 -0.00522779066281)
(5.20203086703e-05 -0.000434191402066 -0.00521937908993)
(0.000103982573613 -0.000428982771314 -0.00519350681512)
(0.00015453166318 -0.000420418669248 -0.00514975752568)
(0.000202941995981 -0.000408749734696 -0.00508749626354)
(0.000248553565532 -0.000394374227142 -0.00500569232037)
(0.00029072655219 -0.00037775123453 -0.00490271862775)
(0.000326964398641 -0.00036005045634 -0.00477385115201)
(-0.000319925905972 -0.000348478642249 -0.00495914610383)
(-0.000283956444266 -0.000358701854845 -0.0050909509846)
(-0.000241964576243 -0.000370720091189 -0.00519475887333)
(-0.000197228529912 -0.000380973964989 -0.00527734906797)
(-0.00015013376701 -0.000389192555818 -0.00534039470493)
(-0.000101276610886 -0.000395170089347 -0.00538484525485)
(-5.12595204151e-05 -0.00039880139102 -0.00541130783553)
(-6.64123284219e-07 -0.000400036324442 -0.0054202223047)
(4.99385789223e-05 -0.000398861633234 -0.00541179800961)
(9.99780268889e-05 -0.000395290297445 -0.00538585752433)
(0.000148872878548 -0.00038937072624 -0.00534196812964)
(0.000196020597195 -0.000381206847647 -0.00527953024423)
(0.000240823824384 -0.000371003293683 -0.00519759191126)
(0.000282902379561 -0.00035903509521 -0.00509457356673)
(0.000318970718035 -0.000348858288837 -0.00496355250349)
(1.12099581448e-06 1.83549036119e-06 -8.33863473229e-05)
(6.23130524739e-07 2.48620164294e-06 -8.66122363523e-05)
(2.23861434096e-07 2.91709399623e-06 -8.89435894823e-05)
(-2.01845080142e-08 3.16967850792e-06 -9.06211399159e-05)
(-1.48532458132e-07 3.30824325595e-06 -9.17943839023e-05)
(-1.59308864755e-07 3.37211717982e-06 -9.2563427566e-05)
(-8.55561399747e-08 3.39691859116e-06 -9.29992895441e-05)
(3.34212374252e-08 3.40542999518e-06 -9.31435557067e-05)
(1.51089539696e-07 3.4051453956e-06 -9.2998999134e-05)
(2.21073979543e-07 3.38846502243e-06 -9.25632175882e-05)
(2.0521243264e-07 3.33241101374e-06 -9.17954541517e-05)
(7.18320643776e-08 3.20072679465e-06 -9.06262176562e-05)
(-1.76538671409e-07 2.95390993916e-06 -8.89574122335e-05)
(-5.78995131918e-07 2.52644994278e-06 -8.66435329004e-05)
(-1.08448751668e-06 1.87294820733e-06 -8.34531875537e-05)
(8.59349006013e-06 1.09810539355e-05 -0.000275598788973)
(7.1634796749e-06 1.36508548922e-05 -0.000287913688581)
(5.69630737913e-06 1.58377293783e-05 -0.000297532322454)
(4.39501716103e-06 1.75145924349e-05 -0.000304959809129)
(3.18671391163e-06 1.87636960247e-05 -0.000310504476354)
(2.09272538096e-06 1.96187703621e-05 -0.000314351938108)
(1.08025984353e-06 2.01204163855e-05 -0.000316621842841)
(1.1109010355e-07 2.02930486637e-05 -0.000317378246466)
(-8.62063056925e-07 2.01440713239e-05 -0.000316619123618)
(-1.88629870756e-06 1.96652452837e-05 -0.000314347774931)
(-2.99825873229e-06 1.88307858996e-05 -0.000310502890952)
(-4.22802435633e-06 1.7598711865e-05 -0.000304969568852)
(-5.55136079648e-06 1.59328487321e-05 -0.000297568217692)
(-7.03926231311e-06 1.37503697393e-05 -0.000288001994709)
(-8.49603712127e-06 1.10717943678e-05 -0.00027578548577)
(1.92959552851e-05 2.33743597674e-05 -0.000489152509209)
(1.68636588682e-05 2.81991204623e-05 -0.000512486884307)
(1.40869182438e-05 3.23745475356e-05 -0.000531238037675)
(1.13282196736e-05 3.5733338481e-05 -0.000546058684667)
(8.52041096931e-06 3.83330172133e-05 -0.000557330672825)
(5.72115271029e-06 4.01744953899e-05 -0.000565267559266)
(2.92876871852e-06 4.12780662543e-05 -0.000569994718562)
(1.41077299872e-07 4.16557393789e-05 -0.000571573334322)
(-2.65027748209e-06 4.13107714494e-05 -0.000569994696474)
(-5.45339253019e-06 4.02398079502e-05 -0.000565269365128)
(-8.26852103351e-06 3.84298630426e-05 -0.000557340441311)
(-1.10943052569e-05 3.58580457789e-05 -0.000546089746216)
(-1.38710749018e-05 3.25202013682e-05 -0.000531312909749)
(-1.6665869162e-05 2.8355229441e-05 -0.000512645006317)
(-1.91287552211e-05 2.35213941384e-05 -0.000489461287441)
(3.06336938933e-05 3.62418440527e-05 -0.000720393844714)
(2.71074183872e-05 4.27692859364e-05 -0.000755986903337)
(2.29314153889e-05 4.85298028628e-05 -0.000785020374219)
(1.86093108273e-05 5.32117641014e-05 -0.000808242117436)
(1.41037078664e-05 5.68635272432e-05 -0.000826058204854)
(9.50832800459e-06 5.94663955525e-05 -0.000838683099439)
(4.85349397116e-06 6.10314920499e-05 -0.000846231383741)
(1.69809137673e-07 6.15653197077e-05 -0.000848753645172)
(-4.51693957085e-06 6.10694987579e-05 -0.000846236068)
(-9.18075152154e-06 5.95426288192e-05 -0.0008386946788)
(-1.37893392501e-05 5.69774714244e-05 -0.000826084406398)
(-1.83097673414e-05 5.33600785099e-05 -0.000808299508398)
(-2.26472578067e-05 4.87053947907e-05 -0.000785136810377)
(-2.68406540691e-05 4.29604591231e-05 -0.00075621060124)
(-3.0401253614e-05 3.64263028468e-05 -0.000720806655898)
(4.05754423523e-05 4.73208282229e-05 -0.000964852330419)
(3.5905668725e-05 5.47932131372e-05 -0.00101325660249)
(3.04048403646e-05 6.14066706573e-05 -0.00105306091662)
(2.46648412421e-05 6.67555371475e-05 -0.00108510655084)
(1.86867534149e-05 7.09099865834e-05 -0.00110980380142)
(1.25865566665e-05 7.38608778421e-05 -0.00112735950159)
(6.40943571395e-06 7.56306186307e-05 -0.00113787466005)
(1.95822081666e-07 7.6232722854e-05 -0.00114138947543)
(-6.02021162345e-06 7.56716405058e-05 -0.00113788747496)
(-1.22045183575e-05 7.39432599337e-05 -0.00112738728389)
(-1.83155625719e-05 7.10333356324e-05 -0.00110985483768)
(-2.4306292128e-05 6.69167501376e-05 -0.0010851986053)
(-3.00604002223e-05 6.15986255924e-05 -0.00105322391742)
(-3.55790757326e-05 5.50041366829e-05 -0.00101354325064)
(-4.02852877235e-05 4.75279474866e-05 -0.000965353296661)
(4.81742984961e-05 5.55777770388e-05 -0.00121850399417)
(4.2403628684e-05 6.32607419915e-05 -0.0012798412296)
(3.5782610418e-05 7.00117907422e-05 -0.0013305225049)
(2.89164302403e-05 7.5407626087e-05 -0.00137149915941)
(2.18405369305e-05 7.95583549873e-05 -0.00140317277213)
(1.46735661805e-05 8.24845486836e-05 -0.00142573287148)
(7.45619284905e-06 8.42308884234e-05 -0.00143926144154)
(2.17151289763e-07 8.48239951738e-05 -0.0014437857619)
(-7.02369603728e-06 8.42731403078e-05 -0.00143928701066)
(-1.42466400245e-05 8.25694016951e-05 -0.00142578563251)
(-2.14224298186e-05 7.96853595123e-05 -0.00140326024986)
(-2.85092824773e-05 7.55738590668e-05 -0.00137163793682)
(-3.53887480314e-05 7.02103820067e-05 -0.00133074109693)
(-4.20279588522e-05 6.34805266292e-05 -0.00128019319637)
(-4.78354033628e-05 5.57968368515e-05 -0.00121908463948)
(5.32208747633e-05 6.0826358795e-05 -0.0014783576089)
(4.64913170425e-05 6.81659480576e-05 -0.00155255637674)
(3.9034699663e-05 7.45179460405e-05 -0.00161406471292)
(3.13910521177e-05 7.95199765322e-05 -0.00166395932811)
(2.36194176475e-05 8.33208919932e-05 -0.00170261869849)
(1.58234911355e-05 8.59761738685e-05 -0.00173020021936)
(8.02620569826e-06 8.75518749179e-05 -0.00174675699652)
(2.32994857444e-07 8.80866628306e-05 -0.00175229779436)
(-7.5614552779e-06 8.75938937944e-05 -0.00174680027687)
(-1.53628576613e-05 8.60605689812e-05 -0.00173028761626)
(-2.31658849449e-05 8.34472199061e-05 -0.00170275566123)
(-3.09471599566e-05 7.96854615249e-05 -0.00166415899344)
(-3.86035333989e-05 7.47162170369e-05 -0.00161435104683)
(-4.60784257259e-05 6.83865917808e-05 -0.00155298177625)
(-5.28431588512e-05 6.10494405276e-05 -0.00147901656341)
(5.59279608751e-05 6.33619140713e-05 -0.00174232315483)
(4.84534530058e-05 7.00127868214e-05 -0.00182919753273)
(4.04694241371e-05 7.5634429419e-05 -0.00190137537152)
(3.23873804903e-05 7.99900775786e-05 -0.00196008189167)
(2.4279295487e-05 8.32540710565e-05 -0.00200566011071)
(1.62228136778e-05 8.55117337928e-05 -0.00203822271057)
(8.21766505443e-06 8.68436697305e-05 -0.00205778643321)
(2.43469219948e-07 8.7295961688e-05 -0.00206433824841)
(-7.73148453287e-06 8.6884260543e-05 -0.00205785196624)
(-1.57395293331e-05 8.55932876825e-05 -0.00203835375147)
(-2.38016649656e-05 8.33761641318e-05 -0.00200585911829)
(-3.19181973018e-05 8.01502160526e-05 -0.00196035675217)
(-4.00122324404e-05 7.58268984314e-05 -0.00190174324604)
(-4.80140902353e-05 7.02282377443e-05 -0.00182970789186)
(-5.55210549253e-05 6.35828360973e-05 -0.00174306751904)
(5.66971010722e-05 6.36891554257e-05 -0.00200872753611)
(4.87208925356e-05 6.9477736512e-05 -0.00210791415009)
(4.04972063352e-05 7.42048139389e-05 -0.00219042380976)
(3.22690182381e-05 7.78036545364e-05 -0.00225767684519)
(2.41127327018e-05 8.0458075118e-05 -0.00230997227696)
(1.60760037183e-05 8.22741869027e-05 -0.00234737155896)
(8.13592431007e-06 8.33391691141e-05 -0.00236985481697)
(2.49423406647e-07 8.37014921698e-05 -0.00237738957633)
(-7.63744963297e-06 8.3377444337e-05 -0.00236994743372)
(-1.55794563478e-05 8.23511134067e-05 -0.00234755594104)
(-2.3620669028e-05 8.05732812711e-05 -0.00231024711864)
(-3.17844048033e-05 7.79550200648e-05 -0.0022580431061)
(-4.00237929627e-05 7.43873481881e-05 -0.00219088966814)
(-4.82645103851e-05 6.96831827099e-05 -0.00210852452873)
(-5.62695845011e-05 6.39030708726e-05 -0.00200957136952)
(5.59668609884e-05 6.23434147365e-05 -0.00227582093291)
(4.77251617175e-05 6.72119942752e-05 -0.00238666206122)
(3.9504671439e-05 7.09947503507e-05 -0.00247890399947)
(3.13626568343e-05 7.3816394399e-05 -0.00255422109964)
(2.33734983131e-05 7.58577973917e-05 -0.0026128546579)
(1.55562583645e-05 7.72366413284e-05 -0.00265481237703)
(7.86910023319e-06 7.80397052055e-05 -0.00268004426183)
(2.51877646962e-07 7.83139491738e-05 -0.0026885056541)
(-7.36544375355e-06 7.80748618995e-05 -0.00268016894164)
(-1.50538116041e-05 7.73072804218e-05 -0.00265505961245)
(-2.28745646097e-05 7.5963711438e-05 -0.00261321866019)
(-3.08701678235e-05 7.39559231273e-05 -0.00255469496638)
(-3.90224407323e-05 7.11638435588e-05 -0.0024794855746)
(-4.7258837221e-05 6.74036501614e-05 -0.00238739134832)
(-5.55256837526e-05 6.254637839e-05 -0.00227678370332)
(5.41325366628e-05 5.97979325074e-05 -0.00254140413809)
(4.58312156679e-05 6.37538320824e-05 -0.00266285814067)
(3.7805158081e-05 6.66104955979e-05 -0.00276395897348)
(2.99248650576e-05 6.86849500014e-05 -0.00284665255171)
(2.22565618895e-05 7.01479803763e-05 -0.00291108137608)
(1.4794560994e-05 7.11195943048e-05 -0.00295719650097)
(7.48330694575e-06 7.16805954598e-05 -0.00298492991275)
(2.51837076293e-07 7.18734451341e-05 -0.00299423588292)
(-6.97956861738e-06 7.17119818596e-05 -0.00298509131729)
(-1.42914987277e-05 7.11827110886e-05 -0.00295751556068)
(-2.17562034917e-05 7.02428224629e-05 -0.00291154773908)
(-2.94300074939e-05 6.88104594856e-05 -0.00284725109724)
(-3.7319484115e-05 6.67635892772e-05 -0.00276467639304)
(-4.53602042412e-05 6.3928810753e-05 -0.00266372984905)
(-5.368281861e-05 5.99869006606e-05 -0.00254251194495)
(5.15125130234e-05 5.64312741034e-05 -0.00280253958813)
(4.33195345581e-05 5.95073326949e-05 -0.00293319248489)
(3.56336370649e-05 6.14907510514e-05 -0.00304211781188)
(2.81446365037e-05 6.28750838411e-05 -0.00313138990798)
(2.09036116903e-05 6.38156057169e-05 -0.00320097191815)
(1.38851603892e-05 6.44246208235e-05 -0.00325076399542)
(7.02584601353e-06 6.47714528932e-05 -0.00328070161682)
(2.50089417816e-07 6.48922908036e-05 -0.0032907528931)
(-6.52549038983e-06 6.47985581591e-05 -0.00328090399078)
(-1.33851170232e-05 6.4479226456e-05 -0.00325116357694)
(-2.04055637724e-05 6.38980372496e-05 -0.0032015544271)
(-2.7651095735e-05 6.29849034115e-05 -0.00313213240073)
(-3.51480848017e-05 6.16259224735e-05 -0.00304299521723)
(-4.2847167692e-05 5.96635808231e-05 -0.00293423562924)
(-5.10578101047e-05 5.66038242863e-05 -0.00280382642947)
(4.83333030915e-05 5.25104844336e-05 -0.00305521691604)
(4.039042508e-05 5.47406359445e-05 -0.00319355670935)
(3.31628106763e-05 5.59239145111e-05 -0.00330939391087)
(2.61613772702e-05 5.66943722823e-05 -0.00340447693299)
(1.94187383983e-05 5.71847083569e-05 -0.00347854515272)
(1.28966885294e-05 5.74866353872e-05 -0.00353150170868)
(6.5309050996e-06 5.76535704758e-05 -0.00356332456651)
(2.47184886183e-07 5.77135447705e-05 -0.00357401437341)
(-6.03631536186e-06 5.76760474546e-05 -0.00356357161738)
(-1.24021022995e-05 5.75321062947e-05 -0.00353199006588)
(-1.89255202426e-05 5.72537553749e-05 -0.00347925830847)
(-2.56717000352e-05 5.67872834965e-05 -0.00340538585356)
(-3.26797687396e-05 5.60398886235e-05 -0.00331046126291)
(-3.99189868555e-05 5.48768294693e-05 -0.0031948057248)
(-4.78759481077e-05 5.26649572442e-05 -0.00305672062403)
(4.47483423599e-05 4.81895250055e-05 -0.00329380347005)
(3.72110687445e-05 4.96494271394e-05 -0.00343928282394)
(3.05466208214e-05 5.01037216858e-05 -0.00356161928176)
(2.40939816206e-05 5.0353459395e-05 -0.00366181464821)
(1.78873018051e-05 5.04760239386e-05 -0.00373968568774)
(1.18840387531e-05 5.05311843595e-05 -0.00379527654673)
(6.02539540528e-06 5.05541083538e-05 -0.00382865691431)
(2.43414809868e-07 5.05652015081e-05 -0.00383987563498)
(-5.53830711856e-06 5.0571860691e-05 -0.00382895108251)
(-1.13968432897e-05 5.05673347182e-05 -0.003795860007)
(-1.74009622522e-05 5.05314246643e-05 -0.00374054289166)
(-2.36100653167e-05 5.04291104286e-05 -0.00366291503089)
(-3.00677761487e-05 5.01999126178e-05 -0.00356291491389)
(-3.67419967756e-05 4.97654761715e-05 -0.00344077907045)
(-4.42901364947e-05 4.83262253886e-05 -0.00329555668545)
(4.08495697007e-05 4.40515940589e-05 -0.00351086893329)
(3.39859104587e-05 4.43663033661e-05 -0.00366713094948)
(2.79249525423e-05 4.41920646191e-05 -0.00379521493774)
(2.20372905381e-05 4.40096534523e-05 -0.00389948183109)
(1.63726137726e-05 4.382222069e-05 -0.00398030110607)
(1.08857339787e-05 4.36676256604e-05 -0.00403792547412)
(5.52760789118e-06 4.35670910698e-05 -0.00407250954868)
(2.38787872253e-07 4.35360428632e-05 -0.00408413992566)
(-5.04970148605e-06 4.35804744179e-05 -0.00407284931045)
(-1.04074563688e-05 4.36949795559e-05 -0.00403860256867)
(-1.58946840756e-05 4.38646894117e-05 -0.00398130501288)
(-2.15608653657e-05 4.40684575648e-05 -0.00390078891087)
(-2.74515432113e-05 4.42687862343e-05 -0.0037967738308)
(-3.35200117519e-05 4.44625398507e-05 -0.003668950059)
(-4.03901041732e-05 4.417183452e-05 -0.00351283787951)
(-4.33276826475e-07 -8.17463372891e-07 -0.000192167754541)
(-1.82375383322e-07 -1.11940122351e-06 -0.000200913984961)
(-2.41750693255e-08 -1.29564896688e-06 -0.00020833524861)
(7.64032447113e-08 -1.39732873525e-06 -0.000214496288402)
(1.17964511588e-07 -1.44812066651e-06 -0.000219367668429)
(1.07924332173e-07 -1.46821217738e-06 -0.000222898841144)
(6.0027946476e-08 -1.47355590212e-06 -0.000225044923553)
(-8.12824683331e-09 -1.47442599157e-06 -0.000225774953913)
(-7.55608714933e-08 -1.47429434046e-06 -0.000225057553822)
(-1.21191295998e-07 -1.46947458871e-06 -0.000222924070312)
(-1.27633850763e-07 -1.44949700295e-06 -0.000219405290325)
(-8.19363694791e-08 -1.39812320757e-06 -0.000214546068629)
(2.32486760329e-08 -1.29448746376e-06 -0.000208397910258)
(1.8546465365e-07 -1.11573318178e-06 -0.000200995309445)
(4.39016373229e-07 -8.10592067328e-07 -0.000192289877319)
(-1.58686552191e-06 -2.58071518126e-06 -0.000561050574557)
(-9.278748632e-07 -3.38135695577e-06 -0.000585305149469)
(-4.63056005964e-07 -3.89379240795e-06 -0.000605728137063)
(-1.43473014976e-07 -4.21079975619e-06 -0.000622540410278)
(3.43792030246e-08 -4.38773434699e-06 -0.000635745569241)
(8.87797976976e-08 -4.47383210586e-06 -0.000645272147537)
(5.25164949846e-08 -4.50879886668e-06 -0.000651042653749)
(-3.21034133286e-08 -4.51847747998e-06 -0.000652998169109)
(-1.14577870365e-07 -4.51148489918e-06 -0.000651081335678)
(-1.44154692867e-07 -4.47829669284e-06 -0.00064534935591)
(-7.86723854424e-08 -4.39235064377e-06 -0.000635860607473)
(1.13295951043e-07 -4.21302696194e-06 -0.000622692396262)
(4.4912684352e-07 -3.88901580711e-06 -0.000605918909734)
(9.302288445e-07 -3.36759251175e-06 -0.000585551022348)
(1.60227183595e-06 -2.55753292749e-06 -0.000561403131952)
(-3.02903944351e-06 -4.46132813686e-06 -0.000912086128415)
(-2.03591038217e-06 -5.6837723295e-06 -0.000950040095477)
(-1.27719045429e-06 -6.52123450083e-06 -0.00098176129071)
(-7.1460725702e-07 -7.07030230089e-06 -0.00100769395815)
(-3.42279466005e-07 -7.40235878083e-06 -0.00102794764346)
(-1.3567341069e-07 -7.58444856389e-06 -0.00104249779364)
(-5.10388828202e-08 -7.67055606071e-06 -0.00105128477)
(-3.16064287232e-08 -7.69585374759e-06 -0.001054254006)
(-1.00355413911e-08 -7.67217434103e-06 -0.00105134614284)
(8.11230861219e-08 -7.5870470663e-06 -0.00104262029671)
(2.98265602934e-07 -7.40476288667e-06 -0.00102813030573)
(6.83667044136e-07 -7.07030104938e-06 -0.00100793575865)
(1.26083217545e-06 -6.51496833575e-06 -0.000982065374713)
(2.0337406595e-06 -5.66958858853e-06 -0.000950430660111)
(3.03927596443e-06 -4.43805901546e-06 -0.000912636719657)
(-4.3510193053e-06 -6.07683310265e-06 -0.00124561493268)
(-3.10005374945e-06 -7.57694027341e-06 -0.00129572665684)
(-2.09733617664e-06 -8.63458292655e-06 -0.00133732461337)
(-1.32154057257e-06 -9.34270161153e-06 -0.00137113058324)
(-7.6614093341e-07 -9.78209594825e-06 -0.00139740503567)
(-4.02638305977e-07 -1.00311345052e-05 -0.00141621202648)
(-1.80262268882e-07 -1.01532711656e-05 -0.00142754074553)
(-3.32271520044e-08 -1.01895652761e-05 -0.0014313611001)
(1.15835422289e-07 -1.01538888214e-05 -0.00142762408654)
(3.44279998986e-07 -1.00318734546e-05 -0.00141637819042)
(7.17435483644e-07 -9.7820440115e-06 -0.00139765255039)
(1.28479492441e-06 -9.34011744395e-06 -0.00137145800105)
(2.07393669362e-06 -8.62648694949e-06 -0.00133773538815)
(3.08966062188e-06 -7.56213445013e-06 -0.0012962489104)
(4.35315507237e-06 -6.05430896965e-06 -0.00124633433146)
(-5.49428792071e-06 -7.39811631897e-06 -0.00156339529999)
(-4.05130799728e-06 -9.05594456112e-06 -0.0016245244886)
(-2.85605043541e-06 -1.02392121393e-05 -0.00167498123452)
(-1.90260394045e-06 -1.10373139353e-05 -0.00171579781971)