/*--------------------------------*- C++ -*----------------------------------*\
  =========                 |
  \\      /  F ield         | OpenFOAM: The Open Source CFD Toolbox
   \\    /   O peration     | Website:  https://openfoam.org
    \\  /    A nd           | Version:  7
     \\/     M anipulation  |
\*---------------------------------------------------------------------------*/
FoamFile
{
    version     2.0;
    format      ascii;
    class       volVectorField;
    location    "1.82";
    object      U;
}
// * * * * * * * * * * * * * * * * * * * * * * * * * * * * * * * * * * * * * //

dimensions      [0 1 -1 0 0 0 0];

internalField   nonuniform List<vector> 
22500
(
(-4.44002574982e-05 -4.96198434898e-05 0.000289894876962)
(-4.12726469017e-05 -5.68173055601e-05 0.000302687439152)
(-3.66369556559e-05 -6.38443759395e-05 0.000312949479647)
(-3.07210132201e-05 -7.00785550368e-05 0.000320976646281)
(-2.38183960005e-05 -7.519200347e-05 0.000327102331532)
(-1.6216086774e-05 -7.8967028425e-05 0.000331443956583)
(-8.14481319065e-06 -8.12755308465e-05 0.000334038664836)
(1.67921296461e-07 -8.20430177931e-05 0.000334921991509)
(8.47571472719e-06 -8.12408373639e-05 0.000334140373681)
(1.65325053084e-05 -7.89000338742e-05 0.000331646654232)
(2.41118930063e-05 -7.50971048117e-05 0.000327404818457)
(3.09849971427e-05 -6.99618521838e-05 0.000321377011534)
(3.68672857701e-05 -6.37127886412e-05 0.000313444441632)
(4.1468214812e-05 -5.66780288903e-05 0.00030326963666)
(4.45572298394e-05 -4.94838470156e-05 0.000290542149565)
(-0.000132486945018 -0.00014717862106 0.000208436613894)
(-0.000122809193606 -0.000168354022989 0.000178580605886)
(-0.000109115347178 -0.00018884123737 0.000144394604217)
(-9.16894069183e-05 -0.000206882835473 0.000110663621842)
(-7.12698044855e-05 -0.000221653707777 8.10410743436e-05)
(-4.86311617156e-05 -0.000232575682318 5.80842051169e-05)
(-2.44857809118e-05 -0.000239269733283 4.35787618783e-05)
(4.35211103503e-07 -0.000241499349989 3.86699578861e-05)
(2.53442960608e-05 -0.000239176747559 4.38669239866e-05)
(4.94548984484e-05 -0.000232395479197 5.86596881875e-05)
(7.20381276232e-05 -0.000221397166598 8.19023073078e-05)
(9.23856434595e-05 -0.000206565294144 0.000111807553096)
(0.000109728064269 -0.000188480890807 0.00014581452692)
(0.00012333225778 -0.000167970114867 0.000180258652272)
(0.000132910886852 -0.000146799699938 0.000210315699602)
(-0.000216550114546 -0.000239297962445 -0.000459238731579)
(-0.000199729003108 -0.000273026988861 -0.000573671083062)
(-0.000177094321518 -0.000304903912789 -0.000688009782978)
(-0.000148692179362 -0.000332700891545 -0.000792178298811)
(-0.000115591167399 -0.000355338016265 -0.000879307238673)
(-7.89222010184e-05 -0.000372049028241 -0.000944713209739)
(-3.98104361981e-05 -0.000382290076012 -0.000985218504452)
(5.61031862221e-07 -0.000385707622145 -0.000998862905912)
(4.09193726047e-05 -0.000382169579176 -0.000984823783979)
(7.99926796254e-05 -0.000371814273321 -0.000943921691607)
(0.000116599560128 -0.000355001106252 -0.000878114547519)
(0.000149618293282 -0.000332279394858 -0.00079057920557)
(0.000177922796977 -0.000304419720686 -0.000686001794258)
(0.000200448015824 -0.000272504151335 -0.000571264455636)
(0.000217146400659 -0.000238772939544 -0.00045649710389)
(-0.000290211100856 -0.000319674968503 -0.00146418400164)
(-0.000266352008222 -0.000362996507088 -0.00165863433582)
(-0.000235359854632 -0.000402973298865 -0.00184255297081)
(-0.000197186658891 -0.000437539733366 -0.00200391083883)
(-0.000153123306801 -0.000465549376588 -0.00213527946758)
(-0.000104517184455 -0.000486189114983 -0.00223200978605)
(-5.27820726682e-05 -0.000498833337103 -0.00229115521065)
(5.70043437442e-07 -0.000503060278396 -0.00231097388906)
(5.39113112698e-05 -0.000498711354632 -0.00229073105052)
(0.000105614452446 -0.00048595031684 -0.00223115584943)
(0.000154168105034 -0.000465203870456 -0.00213398348402)
(0.000198160365418 -0.000437102655139 -0.00200215541563)
(0.000236246898476 -0.000402464295823 -0.00184031945845)
(0.0002671365719 -0.00036243830603 -0.00165591298755)
(0.000290879250419 -0.000319101577033 -0.00146101897533)
(-0.000350632119418 -0.00038568052378 -0.00255135998824)
(-0.000320453839965 -0.000435294615634 -0.00279397267476)
(-0.000282098985719 -0.000480176139899 -0.00301435177604)
(-0.000235734669775 -0.000518743018666 -0.00320246866755)
(-0.000182768183061 -0.000549890537831 -0.00335261878701)
(-0.000124658300865 -0.000572820049514 -0.00346162379454)
(-6.29891721719e-05 -0.000586866869815 -0.00352765523422)
(5.22664399536e-07 -0.000591570265289 -0.00354968316052)
(6.40265005492e-05 -0.000586756611281 -0.00352724380092)
(0.000125671890721 -0.000572603501893 -0.00346079330375)
(0.000183742205453 -0.000549575279549 -0.00335135187884)
(0.000236654005243 -0.000518340680571 -0.00320073921846)
(0.000282950114277 -0.000479702035368 -0.00301212783176)
(0.000321219645191 -0.000434767695716 -0.00279122520479)
(0.000351300834459 -0.000385125677388 -0.00254810484313)
(-0.000397839021533 -0.000437544340312 -0.00355712644975)
(-0.000362366142564 -0.000490518457838 -0.00381514137565)
(-0.000317839850181 -0.00053777782509 -0.00404254554548)
(-0.000264928269266 -0.000578200703685 -0.00423306737303)
(-0.000205056928324 -0.0006107913292 -0.00438322642478)
(-0.000139730112072 -0.000634777971313 -0.00449130091368)
(-7.06141883633e-05 -0.000649476529142 -0.00455640575268)
(4.65924554154e-07 -0.00065440471306 -0.00457806204003)
(7.15400704639e-05 -0.00064938122606 -0.00455601834048)
(0.000140638181756 -0.000634590525843 -0.00449051817593)
(0.000205934994247 -0.000610517533599 -0.0043820297415)
(0.000265764362104 -0.000577849519704 -0.00423142760491)
(0.000318622962273 -0.000537360790687 -0.0040404246437)
(0.000363079744699 -0.000490050904397 -0.00381249900339)
(0.000398474740338 -0.00043704037127 -0.00355395545045)
(-0.000433177403416 -0.000476697177878 -0.0044165386538)
(-0.000393461197198 -0.000530614791415 -0.00466909923488)
(-0.000343957369688 -0.000578353753721 -0.00488740944378)
(-0.000286025313954 -0.000619019153665 -0.00506853969427)
(-0.000221024587056 -0.00065178501451 -0.00521052065713)
(-0.000150461849208 -0.000675905827302 -0.00531237865298)
(-7.60248734443e-05 -0.000690692330202 -0.00537361841838)
(4.21683041209e-07 -0.000695654842469 -0.00539396361009)
(7.68633620707e-05 -0.000690610429975 -0.00537325098439)
(0.000151285709277 -0.000675744767113 -0.00531163662511)
(0.000221823715553 -0.000651549641273 -0.00520938671746)
(0.000286789765278 -0.00061871687551 -0.0050669859303)
(0.000344678072998 -0.00057799363249 -0.00488539784954)
(0.000394122953842 -0.000530209606116 -0.00466658606965)
(0.00043377470561 -0.000476251988931 -0.00441350352033)
(-0.000458311369237 -0.000504807410675 -0.00512701384951)
(-0.000415283976602 -0.000557688609356 -0.00536531921018)
(-0.000361895088718 -0.000604427593726 -0.00556942260547)
(-0.000300283633059 -0.000644067133463 -0.0057384314337)
(-0.000231679005153 -0.000676007645079 -0.00587093560059)
(-0.000157555250152 -0.000699530818783 -0.00596605679114)
(-7.95792248091e-05 -0.000713956203828 -0.00602327427079)
(3.94784383664e-07 -0.000718800544861 -0.00604228073961)
(8.03643758084e-05 -0.000713884984182 -0.0060229188468)
(0.000158327109775 -0.000699390917263 -0.00596533991835)
(0.000232428406732 -0.000675803446836 -0.00586984233576)
(0.000301001658783 -0.000643805218393 -0.00573693712615)
(0.000362573758421 -0.000604115591467 -0.00556749261944)
(0.000415909504181 -0.000557337671912 -0.00536291110531)
(0.000458879742209 -0.00050441661737 -0.00512410186965)
(-0.000474747425364 -0.000523366316076 -0.00571194337179)
(-0.000429184247693 -0.000573555135072 -0.00593464929403)
(-0.0003728757707 -0.000618053951196 -0.00612515860366)
(-0.000308740703135 -0.00065561215233 -0.00628339705262)
(-0.000237837097446 -0.000685891928269 -0.00640784116634)
(-0.000161573557029 -0.000708204722927 -0.00649737946366)
(-8.15654250235e-05 -0.00072189153251 -0.0065513123956)
(3.82765516481e-07 -0.000726489253919 -0.00656923221397)
(8.23266847869e-05 -0.00072182869147 -0.00655096215798)
(0.000162321940629 -0.000708081433982 -0.00649667410768)
(0.000238563747668 -0.000685712277442 -0.0064067682861)
(0.000309437113269 -0.000655382166622 -0.00628193578787)
(0.000373534389426 -0.00061778040299 -0.00612327879678)
(0.000429792498084 -0.000573247953827 -0.00593231143989)
(0.000475301432474 -0.000523021634152 -0.00570912051385)
(-0.000483696086074 -0.000533580066173 -0.00619911012964)
(-0.00043623330673 -0.000579659080638 -0.00640806264369)
(-0.00037786228961 -0.000620811732787 -0.00658742741936)
(-0.000312204505616 -0.00065538208318 -0.00673714226226)
(-0.0002401279004 -0.000683286471739 -0.0068552639444)
(-0.000162946974627 -0.000703864015566 -0.00694041287313)
(-8.22033566682e-05 -0.000716487603241 -0.00699175158312)
(3.81460379058e-07 -0.000720728115342 -0.00700880983491)
(8.29620412872e-05 -0.000716431623297 -0.0069914021327)
(0.000163692864642 -0.000703754277462 -0.00693971010304)
(0.000240852200791 -0.000683126743476 -0.00685419777111)
(0.00031289883004 -0.000655177836842 -0.00673569546523)
(0.000378519132338 -0.000620569065399 -0.00658557430785)
(0.000436841057785 -0.000579386729121 -0.00640576646409)
(0.000484250026086 -0.00053327347475 -0.00619634361462)
(-0.000486100135837 -0.000536411853267 -0.00661186095427)
(-0.000437270758166 -0.000577134829875 -0.0068096114509)
(-0.000377619442522 -0.000613925846965 -0.0069802343802)
(-0.000311317476762 -0.00064473471231 -0.0071232150652)
(-0.00023904658815 -0.000669658177201 -0.00723617376917)
(-0.000162011105437 -0.000688051832331 -0.00731762068652)
(-8.16637649744e-05 -0.000699332262538 -0.00736672221066)
(3.87183403125e-07 -0.000703119960922 -0.00738302894021)
(8.24339200816e-05 -0.000699282307708 -0.0073663714005)
(0.000162768512025 -0.000687953921398 -0.00731691603989)
(0.000239782470852 -0.000669515668908 -0.00723510720748)
(0.00031202349188 -0.000644552405545 -0.00712177267376)
(0.000378287979977 -0.000613709098963 -0.00697839463969)
(0.000437890985836 -0.000576891025402 -0.00680733958108)
(0.000486665954224 -0.000536137105003 -0.00660912799372)
(-0.00048269806235 -0.000532642585131 -0.0069672504456)
(-0.000432991164938 -0.000566879653292 -0.00715610479893)
(-0.000372799203858 -0.000598401080745 -0.00731977998762)
(-0.000306624265596 -0.000624822606177 -0.007457023485)
(-0.000235003315651 -0.000646265129648 -0.0075652480034)
(-0.000159039127431 -0.000662090615987 -0.00764313267528)
(-8.00843108891e-05 -0.000671783501696 -0.0076900233567)
(3.97195788481e-07 -0.0006750344816 -0.00770557893835)
(8.0874545892e-05 -0.000671739228302 -0.00768967084482)
(0.000159816747897 -0.000662003787139 -0.0076424252786)
(0.000235759620302 -0.000646138608981 -0.0075641793018)
(0.000307350979905 -0.000624660375719 -0.00745558250859)
(0.000373488619189 -0.000598207570089 -0.00731794923537)
(0.000433633096282 -0.000566660646246 -0.00715385116314)
(0.000483284805689 -0.000532395611719 -0.0069645408234)
(-0.000474093273525 -0.000522779379147 -0.00727690421369)
(-0.000424075673164 -0.000549554416171 -0.00745898485384)
(-0.00036402020488 -0.000575115446187 -0.00761690388035)
(-0.000298608769728 -0.000596707280061 -0.00774862286521)
(-0.00022834269663 -0.000614264595001 -0.00785189705134)
(-0.00015425441294 -0.00062718673695 -0.00792592232151)
(-7.75765291939e-05 -0.000635074643688 -0.00797038156617)
(4.09538990015e-07 -0.00063771420572 -0.00798510716666)
(7.8391553742e-05 -0.000635035988249 -0.00797002849952)
(0.000155057078883 -0.00062711084003 -0.00792521423206)
(0.000229124454874 -0.000614153764252 -0.00785082877523)
(0.000299361496731 -0.000596564599992 -0.00774718590297)
(0.000364736199378 -0.000574944205892 -0.00761508472331)
(0.000424745327343 -0.000549358478688 -0.00745675317449)
(0.000474707218563 -0.000522557992447 -0.00727422195697)
(-0.000461178204913 -0.000506978621693 -0.00754833332946)
(-0.000411482414309 -0.000525489612816 -0.00772647096051)
(-0.000351931864935 -0.000544786784865 -0.00787915708573)
(-0.000287713563696 -0.000561298159308 -0.0080047807053)
(-0.000219368961368 -0.000574650119041 -0.00810238000223)
(-0.000147859270712 -0.000584394866801 -0.00817196113366)
(-7.42445707585e-05 -0.000590305577238 -0.00821362335625)
(4.22788719387e-07 -0.000592275908012 -0.00822739635004)
(7.5086218092e-05 -0.000590272361186 -0.00821327222971)
(0.000148688896442 -0.000584329549277 -0.00817125702205)
(0.000220178226995 -0.000574554471141 -0.00810131854778)
(0.000288494552787 -0.00056117444728 -0.00800335510193)
(0.000352677069848 -0.000544637192234 -0.00787735739299)
(0.000412182866625 -0.000525315895356 -0.00772427155387)
(0.000461824224913 -0.000506780781698 -0.00754569688754)
(-0.000446791099944 -0.000486514847634 -0.00778436764557)
(-0.000397089714828 -0.000494958763382 -0.0079640506965)
(-0.000337700600163 -0.000508283093351 -0.00811080722229)
(-0.000274901195673 -0.000519379030593 -0.0082293712424)
(-0.00020886429814 -0.000528184550714 -0.008320604674)
(-0.000140422028611 -0.000534511546673 -0.00838529953492)
(-7.03888256983e-05 -0.000538314067887 -0.0084239164945)
(4.36075551239e-07 -0.00053957396691 -0.00843665817784)
(7.12571560314e-05 -0.000538285832531 -0.00842357073853)
(0.000141278633995 -0.00053445588363 -0.00838460592294)
(0.000209701001969 -0.000528102762595 -0.00831955941345)
(0.000275710187331 -0.000519272774184 -0.00822796835883)
(0.000338474590013 -0.000508153882835 -0.00810903915646)
(0.000397819740375 -0.000494806424298 -0.00796188998993)
(0.000447471245854 -0.000486338754465 -0.00778181612479)
(2.57677192297e-06 3.66346489135e-06 -0.000209655948308)
(2.00609888154e-06 4.72495770967e-06 -0.000219555912161)
(1.506699999e-06 5.53333321508e-06 -0.000228387856706)
(1.11063098041e-06 6.12912228062e-06 -0.000236009868267)
(7.46790665972e-07 6.56684953085e-06 -0.000242204501299)
(4.45196857649e-07 6.8578890668e-06 -0.000246775244579)
(1.91168704385e-07 7.02209306725e-06 -0.000249580448827)
(-3.41062786711e-08 7.07312159952e-06 -0.000250531606163)
(-2.58698852276e-07 7.01517229504e-06 -0.000249570857855)
(-5.10591477628e-07 6.84438727977e-06 -0.000246755992446)
(-8.08453985448e-07 6.54762497676e-06 -0.000242175495632)
(-1.16668968858e-06 6.10554422975e-06 -0.000235971256598)
(-1.5550654694e-06 5.50711726265e-06 -0.000228340419365)
(-2.04596101482e-06 4.6980876606e-06 -0.0002195014881)
(-2.60579015431e-06 3.63872403008e-06 -0.000209599867271)
(1.78569102528e-05 2.15844074421e-05 -0.00065527826408)
(1.61060188327e-05 2.61195674629e-05 -0.000687880431871)
(1.39438016e-05 3.01544326129e-05 -0.000717337234096)
(1.15780840249e-05 3.35135193429e-05 -0.000742921892584)
(8.89158087545e-06 3.61966887642e-05 -0.000763822283238)
(6.00582193851e-06 3.81346293405e-05 -0.000779310177503)
(2.98655847115e-06 3.93031541293e-05 -0.000788839944019)
(-9.49238930864e-08 3.96889044739e-05 -0.000792065244276)
(-3.17467199881e-06 3.92864037315e-05 -0.00078881334435)
(-6.18846978153e-06 3.81019377968e-05 -0.000779256752149)
(-9.06470179509e-06 3.61501364253e-05 -0.000763741622462)
(-1.17371798594e-05 3.34563286747e-05 -0.000742814190868)
(-1.40838051884e-05 3.00907276775e-05 -0.000717204387942)
(-1.62243447554e-05 2.60538777407e-05 -0.000687727286867)
(-1.79474207223e-05 2.15234376834e-05 -0.000655117624489)
(3.75762615031e-05 4.40189860823e-05 -0.00111561692729)
(3.43099360859e-05 5.18296697726e-05 -0.00117184818469)
(2.99631204468e-05 5.89561574484e-05 -0.00122279457019)
(2.49786886516e-05 6.49305810976e-05 -0.00126707367017)
(1.9276056389e-05 6.97051141498e-05 -0.00130324961863)
(1.30779471686e-05 7.31587498349e-05 -0.00133006007532)
(6.54676857449e-06 7.52437694345e-05 -0.00134655312817)
(-1.46702442249e-07 7.593434487e-05 -0.00135212597055)
(-6.83778450654e-06 7.52211971575e-05 -0.00134650881428)
(-1.33613624382e-05 7.31146194939e-05 -0.00132997123306)
(-1.95462003495e-05 6.96422349472e-05 -0.00130311581652)
(-2.52294796527e-05 6.4853265753e-05 -0.00126689541573)
(-3.01876277678e-05 5.88699123471e-05 -0.00122257482762)
(-3.450396384e-05 5.17401135875e-05 -0.00117159413793)
(-3.77305306989e-05 4.3935394209e-05 -0.00111534800681)
(5.62234008109e-05 6.4901200013e-05 -0.00158152201799)
(5.11209950785e-05 7.47730905139e-05 -0.00166055596077)
(4.4450003963e-05 8.37929584771e-05 -0.00173207394146)
(3.68551440176e-05 9.12650299445e-05 -0.00179414740929)
(2.83306372943e-05 9.71678868861e-05 -0.00184479237714)
(1.91702976226e-05 0.000101398266541 -0.00188228860548)
(9.59218632296e-06 0.000103935768664 -0.00190533552188)
(-1.88017976954e-07 0.000104773676064 -0.00191311191646)
(-9.96559302688e-06 0.000103910241125 -0.00190527341727)
(-1.95351613313e-05 0.000101348298207 -0.00188216442749)
(-2.86804128931e-05 9.70966202437e-05 -0.00184460614707)
(-3.71829450506e-05 9.11772319482e-05 -0.00179390044616)
(-4.47479631375e-05 8.36948026433e-05 -0.00173177036925)
(-5.13836984004e-05 7.46704633726e-05 -0.00166020408851)
(-5.64394663716e-05 6.48051354273e-05 -0.00158114806046)
(7.04049184884e-05 8.04501089303e-05 -0.00204361569313)
(6.33753894577e-05 9.09627688206e-05 -0.00214357229583)
(5.46599314684e-05 0.000100479310937 -0.00223384998509)
(4.4968702658e-05 0.000108219537907 -0.00231210986551)
(3.43621925434e-05 0.000114239888293 -0.00237589680816)
(2.31524286112e-05 0.000118500697885 -0.00242309004831)
(1.15585028758e-05 0.000121034307868 -0.00245208010011)
(-2.17520007214e-07 0.000121866580089 -0.00246185186315)
(-1.19909708365e-05 0.000121007600243 -0.00245199915686)
(-2.35763713554e-05 0.000118448511239 -0.00242292873859)
(-3.47708868704e-05 0.000114165423217 -0.00237565623669)
(-4.53551150999e-05 0.000108127586088 -0.0023117929145)
(-5.50159484935e-05 0.000100376182371 -0.0022334625142)
(-6.36949912918e-05 9.08542574926e-05 -0.00214312397122)
(-7.06754358211e-05 8.03482178959e-05 -0.00204313787539)
(7.94935115731e-05 9.00345393169e-05 -0.00249580371359)
(7.07267101718e-05 0.000100189255122 -0.00261468101915)
(6.0488289548e-05 0.000109236772283 -0.0027218965498)
(4.93874425255e-05 0.000116461868606 -0.0028147870388)
(3.75224503731e-05 0.000121995372412 -0.00289046461003)
(2.51780056032e-05 0.000125864252691 -0.00294643605206)
(1.25390706362e-05 0.000128145781985 -0.00298080626804)
(-2.35603427425e-07 0.000128891235191 -0.00299238255568)
(-1.30079613097e-05 0.000128119383357 -0.0029807047622)
(-2.56390874484e-05 0.000125812731912 -0.00294623441949)
(-3.79693708702e-05 0.000121921714203 -0.00289016554664)
(-4.98135053897e-05 0.000116370561776 -0.00281439564671)
(-6.08856198006e-05 0.000109133833686 -0.00272142109655)
(-7.10891948574e-05 0.000100080117305 -0.0026141330682)
(-7.98079812419e-05 8.99315029293e-05 -0.00249521927792)
(8.42194619376e-05 9.45886152914e-05 -0.00293513520485)
(7.40916911066e-05 0.000103887153828 -0.00307108169914)
(6.28996423046e-05 0.000111987284768 -0.0031935374099)
(5.10244370297e-05 0.00011835885152 -0.00329958092216)
(3.85798220341e-05 0.000123172169969 -0.0033859312816)
(2.57991809524e-05 0.000126502713819 -0.00344976536795)
(1.28211668616e-05 0.000128453175755 -0.0034889448518)
(-2.44284047325e-07 0.00012908749282 -0.00350213075967)
(-1.33077980325e-05 0.000128428319492 -0.00348882127746)
(-2.62791389794e-05 0.000126454156599 -0.00344952053545)
(-3.90474572746e-05 0.000123102495573 -0.00338556973207)
(-5.14736917061e-05 0.000118271994948 -0.00329911032432)
(-6.33232157647e-05 0.000111888659861 -0.00319296886817)
(-7.44836766766e-05 0.000103781568135 -0.00307042915589)
(-8.45669137278e-05 9.44880532249e-05 -0.00293443909145)
(8.56659322031e-05 9.54351909127e-05 -0.00336007413847)
(7.46068430331e-05 0.000103716289445 -0.00351119144417)
(6.29537985158e-05 0.000110706197262 -0.00364705626899)
(5.07973746311e-05 0.0001161422553 -0.00376459358896)
(3.82580998959e-05 0.00012019875583 -0.00386020310131)
(2.55132593885e-05 0.000122980816 -0.00393081154574)
(1.26564345531e-05 0.00012460064297 -0.00397411176281)
(-2.46290486657e-07 0.000125125374289 -0.00398867112048)
(-1.31474997128e-05 0.000124578186123 -0.00397396536305)
(-2.5998938864e-05 0.000122936843863 -0.00393052202468)
(-3.87335918653e-05 0.000120135354992 -0.00385977687619)
(-5.12574058625e-05 0.000116062659452 -0.00376404094903)
(-6.33918491482e-05 0.000110615010617 -0.00364639129106)
(-7.50173838285e-05 0.000103617543311 -0.0035104306676)
(-8.60366863808e-05 9.53399201541e-05 -0.00335926199235)
(8.48170513336e-05 9.37517334092e-05 -0.00376914335433)
(7.32166409901e-05 0.000101020085488 -0.00393324683619)
(6.14756244816e-05 0.000106892413745 -0.0040803574747)
(4.93856858894e-05 0.000111418348414 -0.00420740316745)
(3.7073354587e-05 0.000114755151926 -0.00431056570403)
(2.46655155423e-05 0.000117024638407 -0.00438662920183)
(1.22165684333e-05 0.000118339056699 -0.00443321413912)
(-2.44225658068e-07 0.000118763383708 -0.0044488604734)
(-1.2703905976e-05 0.000118319495527 -0.00443304498334)
(-2.51487177535e-05 0.000116986214953 -0.00438629508486)
(-3.75484816284e-05 0.000114699427154 -0.00431007481848)
(-4.98482837175e-05 0.000111347808443 -0.00420676830332)
(-6.19200260364e-05 0.000106810752893 -0.00407959562642)
(-7.36378057912e-05 0.00010093050729 -0.00393237709617)
(-8.52035782496e-05 9.36638727924e-05 -0.00376821343042)
(8.24255942146e-05 9.04203865417e-05 -0.0041604135862)
(7.05952843831e-05 9.67367894221e-05 -0.00433495703869)
(5.90269806881e-05 0.000101545196182 -0.00449082933783)
(4.72374873233e-05 0.000105217740514 -0.00462512701815)
(3.53586870022e-05 0.00010788954228 -0.00473391204515)
(2.34756921711e-05 0.000109690964184 -0.00481394218081)
(1.16098295426e-05 0.000110728797346 -0.0048628711379)
(-2.40139350029e-07 0.000111062733158 -0.00487928287417)
(-1.20893442409e-05 0.000110712331759 -0.00486267997923)
(-2.39521808867e-05 0.000109658495434 -0.00481356488532)
(-3.58290087942e-05 0.000107842129381 -0.00473335841319)
(-4.76979713972e-05 0.000105157142895 -0.00462441214846)
(-5.94728030418e-05 0.00010147419544 -0.00448997300772)
(-7.10219238792e-05 9.66577655115e-05 -0.00433398066781)
(-8.28226227551e-05 9.0341381933e-05 -0.00415936721716)
(7.90169163932e-05 8.60452792388e-05 -0.00453153736237)
(6.71872137913e-05 9.14688404645e-05 -0.00471371744027)
(5.59664722517e-05 9.52800585442e-05 -0.00487573552506)
(4.46341375273e-05 9.81564013592e-05 -0.00501494042826)
(3.33221929615e-05 0.000100216381458 -0.00512734029356)
(2.20809509453e-05 0.000101592167204 -0.00520978704999)
(1.09037794076e-05 0.000102380558749 -0.00526008066144)
(-2.35418605869e-07 0.000102633399292 -0.00527692341697)
(-1.1374140926e-05 0.000102367180409 -0.00525986878212)
(-2.25492220846e-05 0.000101565658165 -0.00520936901371)
(-3.37859415061e-05 0.000100177351821 -0.00512672728614)
(-4.50904018194e-05 9.8105939815e-05 -0.00501414962405)
(-5.641120621e-05 9.52200874634e-05 -0.00487478933389)
(-6.76164029808e-05 9.14009515922e-05 -0.00471263927366)
(-7.94210917323e-05 8.59759660905e-05 -0.00453037851995)
(7.49301058533e-05 8.1015719374e-05 -0.00487993857359)
(6.32670274408e-05 8.55738123679e-05 -0.00506696573007)
(5.25151559827e-05 8.84439688186e-05 -0.0052326902593)
(4.17515945101e-05 9.05738765643e-05 -0.005374582824)
(3.10968482841e-05 9.20722877156e-05 -0.00548864755482)
(2.05704330853e-05 9.30637734508e-05 -0.00557198504755)
(1.01428096272e-05 9.36292940105e-05 -0.00562267479954)
(-2.30860206894e-07 9.38100930052e-05 -0.00563961775201)
(-1.06042848377e-05 9.36188631769e-05 -0.00562244396471)
(-2.1030583615e-05 9.30429846125e-05 -0.00557152961718)
(-3.15538564713e-05 9.20413621578e-05 -0.00548797978476)
(-4.22031351063e-05 9.05333151392e-05 -0.00537372163783)
(-5.2957882254e-05 8.83948974748e-05 -0.00523166053452)
(-6.36973821425e-05 8.55170910854e-05 -0.0050657925371)
(-7.53395305338e-05 8.09564480734e-05 -0.00487867325106)
(7.03493597265e-05 7.55454309371e-05 -0.00520290593614)
(5.89904960913e-05 7.92185154225e-05 -0.005392559663)
(4.88153744912e-05 8.1192764808e-05 -0.00556011534951)
(3.87133916815e-05 8.26269364069e-05 -0.00570273695728)
(2.87811968791e-05 8.36209160958e-05 -0.00581661663976)
(1.90121707009e-05 8.42754956917e-05 -0.00589936334433)
(9.36137969672e-06 8.46481948568e-05 -0.0059495041174)
(-2.26808246507e-07 8.4767061227e-05 -0.00596622454269)
(-9.81492137724e-06 8.46405068064e-05 -0.0059492566894)
(-1.94649928469e-05 8.42600558791e-05 -0.0058988749779)
(-2.92320104557e-05 8.35976456228e-05 -0.00581590017243)
(-3.91604430356e-05 8.25958276197e-05 -0.0057018125018)
(-4.92559605303e-05 8.11542206667e-05 -0.0055590099749)
(-5.94214778932e-05 7.91726677992e-05 -0.00539130005721)
(-7.07630119378e-05 7.54962198375e-05 -0.00520154252927)
(6.53597317081e-05 6.96873456969e-05 -0.00549745740804)
(5.44846419287e-05 7.24969560794e-05 -0.00568945568375)
(4.50166717829e-05 7.35932283594e-05 -0.00585779973519)
(3.56507616573e-05 7.43943286514e-05 -0.00599930265899)
(2.64789300752e-05 7.495020855e-05 -0.00611112362242)
(1.74766664523e-05 7.53190635977e-05 -0.00619178061895)
(8.59491568094e-06 7.55298308075e-05 -0.00624042551061)
(-2.23291099698e-07 7.55968769161e-05 -0.0062566022924)
(-9.04153635855e-06 7.55246251759e-05 -0.00624016473965)
(-1.79229885869e-05 7.53085055577e-05 -0.00619126545302)
(-2.69241016367e-05 7.49340163346e-05 -0.00611036675096)
(-3.60935509272e-05 7.4372108829e-05 -0.00599832434485)
(-4.54550108638e-05 7.35647165496e-05 -0.00585662844461)
(-5.49158509838e-05 7.24614794589e-05 -0.00568812036272)
(-6.5776954406e-05 6.96478314763e-05 -0.00549600835819)
(5.99705293756e-05 6.43184206188e-05 -0.00576092289016)
(4.99715104299e-05 6.56019898964e-05 -0.00596039418201)
(4.13079134654e-05 6.58196931024e-05 -0.00612768511146)
(3.27091297891e-05 6.60160979543e-05 -0.00626552840818)
(2.42961711712e-05 6.61392414696e-05 -0.00637307344035)
(1.60326215807e-05 6.62174958382e-05 -0.00645000920612)
(7.87720625378e-06 6.62593360219e-05 -0.00649617125364)
(-2.20168126412e-07 6.62713671179e-05 -0.00651147628369)
(-8.31761158638e-06 6.62562794589e-05 -0.00649590184525)
(-1.64729190188e-05 6.62112077389e-05 -0.00644947626355)
(-2.47358032672e-05 6.61293520363e-05 -0.00637228865422)
(-3.31473195872e-05 6.60020017915e-05 -0.0062645105963)
(-4.17432792948e-05 6.58006873173e-05 -0.00612646252331)
(-5.04018014488e-05 6.55766249953e-05 -0.00595899348594)
(-6.03906433491e-05 6.42878098628e-05 -0.00575941522935)
(-7.1252246659e-07 -1.36888256677e-06 -0.000402879773752)
(-2.49217468447e-07 -1.89920818169e-06 -0.000423160255401)
(5.08961675538e-08 -2.20229329512e-06 -0.000441691177858)
(2.44714895156e-07 -2.36754432436e-06 -0.000457806883259)
(3.18099155883e-07 -2.43633714951e-06 -0.000470936701902)
(2.81607568053e-07 -2.45001988725e-06 -0.000480634874285)
(1.60599943101e-07 -2.44304073395e-06 -0.000486587692431)
(-7.12742009852e-09 -2.43843748137e-06 -0.000488604431038)
(-1.74448182362e-07 -2.44429290461e-06 -0.000486578285569)
(-2.9429802829e-07 -2.45237450933e-06 -0.000480616091121)
(-3.29127388912e-07 -2.43955906669e-06 -0.000470908616497)
(-2.54134917096e-07 -2.37138266638e-06 -0.000457769549752)
(-5.86233047187e-08 -2.20612026594e-06 -0.000441644683723)
(2.43444109976e-07 -1.90286307431e-06 -0.000423105267312)
(7.08284028347e-07 -1.37211495141e-06 -0.000402816887625)
(-2.48995289293e-06 -4.09671740288e-06 -0.00114066355671)
(-1.32169298726e-06 -5.42464190522e-06 -0.0011937537196)
(-4.97406770959e-07 -6.24643914955e-06 -0.00124209453735)
(6.67733398755e-08 -6.72434853353e-06 -0.00128398615855)
(3.55745333361e-07 -6.95319852402e-06 -0.00131802188246)
(3.94927652349e-07 -7.03172738462e-06 -0.00134311095906)
(2.42689353004e-07 -7.04232280682e-06 -0.00135848664594)
(-1.50605697636e-08 -7.04027760946e-06 -0.00136368019522)
(-2.71960561265e-07 -7.04509521892e-06 -0.00135845879952)
(-4.2180261018e-07 -7.03690487105e-06 -0.00134305528773)
(-3.79203720926e-07 -6.96024722853e-06 -0.00131793851101)
(-8.67689545314e-08 -6.73264353691e-06 -0.001283875187)
(4.80920363846e-07 -6.25470633447e-06 -0.0012419562823)
(1.30921232855e-06 -5.43249833783e-06 -0.00119359006495)
(2.48079282231e-06 -4.10358706203e-06 -0.00114047728433)
(-4.6252680437e-06 -6.89122960052e-06 -0.00180795358428)
(-2.95103156698e-06 -8.82029904404e-06 -0.00188702280936)
(-1.69849186974e-06 -1.00930425249e-05 -0.0019587218528)
(-7.80960399728e-07 -1.08844222439e-05 -0.00202067034822)
(-2.07966307124e-07 -1.13160403542e-05 -0.00207088930294)
(5.56406016461e-08 -1.15153771051e-05 -0.00210784798772)
(8.37380091942e-08 -1.15883946463e-05 -0.00213046947359)
(-1.74305361718e-08 -1.16056658275e-05 -0.00213809537168)
(-1.17593335407e-07 -1.15917045137e-05 -0.00213042372232)
(-8.67335191331e-08 -1.15214741071e-05 -0.00210775641636)
(1.80755323197e-07 -1.13243041715e-05 -0.00207075197456)
(7.57743580031e-07 -1.0894080473e-05 -0.00202048740763)
(1.67926213625e-06 -1.01026637406e-05 -0.00195849404459)
(2.93628909544e-06 -8.82931616627e-06 -0.00188675317217)
(4.61441038738e-06 -6.8991767646e-06 -0.00180764736098)
(-6.44146746748e-06 -9.08096794182e-06 -0.00241239151144)
(-4.41786484741e-06 -1.13363203953e-05 -0.00251210775697)
(-2.85149873627e-06 -1.2860084156e-05 -0.00260217283849)
(-1.65698922673e-06 -1.38288478812e-05 -0.00267981649323)
(-8.37461225582e-07 -1.43775129476e-05 -0.0027426644993)
(-3.50562570448e-07 -1.46485881278e-05 -0.00278887076443)
(-1.14738480985e-07 -1.47598194541e-05 -0.00281712967543)
(-1.60154166194e-08 -1.47889978227e-05 -0.00282664272274)
(8.37034384065e-08 -1.4762942388e-05 -0.00281706627859)
(3.22147805749e-07 -1.46542871588e-05 -0.00278874382922)
(8.1262194029e-07 -1.43851953168e-05 -0.00274247403051)
(1.63584100816e-06 -1.38377562211e-05 -0.00267956279852)
(2.83399545285e-06 -1.28689416041e-05 -0.00260185734551)
(4.40439119895e-06 -1.13445177925e-05 -0.00251173472603)
(6.43151656238e-06 -9.08829383814e-06 -0.00241196865005)
(-7.87679868932e-06 -1.06770309961e-05 -0.00296280081679)
(-5.6185064482e-06 -1.3055199866e-05 -0.00307925636689)
(-3.83289366358e-06 -1.46682020763e-05 -0.00318407909613)
(-2.43125578042e-06 -1.56977869306e-05 -0.00327431272707)
(-1.4133867533e-06 -1.62849640097e-05 -0.00334729248869)