/*--------------------------------*- C++ -*----------------------------------*\
  =========                 |
  \\      /  F ield         | OpenFOAM: The Open Source CFD Toolbox
   \\    /   O peration     | Website:  https://openfoam.org
    \\  /    A nd           | Version:  7
     \\/     M anipulation  |
\*---------------------------------------------------------------------------*/
FoamFile
{
    version     2.0;
    format      ascii;
    class       volVectorField;
    location    "0.88";
    object      U;
}
// * * * * * * * * * * * * * * * * * * * * * * * * * * * * * * * * * * * * * //

dimensions      [0 1 -1 0 0 0 0];

internalField   nonuniform List<vector> 
22500
(
(-3.90252355848e-05 -4.35184887101e-05 0.000175018063278)
(-3.65573230227e-05 -4.958269427e-05 0.00018140405072)
(-3.26275641875e-05 -5.56185183096e-05 0.00018499695176)
(-2.75628080467e-05 -6.10140012034e-05 0.000186587168108)
(-2.14869123606e-05 -6.550503406e-05 0.000187071604795)
(-1.46826193486e-05 -6.88534498682e-05 0.000187063722145)
(-7.36945782519e-06 -7.09141646985e-05 0.000186940773316)
(2.06693940635e-07 -7.15966788515e-05 0.000186925790393)
(7.77936225189e-06 -7.08666933802e-05 0.000187123545071)
(1.50824213423e-05 -6.87595843037e-05 0.000187427289781)
(2.1872167666e-05 -6.53664059382e-05 0.000187612145912)
(2.79297289068e-05 -6.08348241905e-05 0.00018729833531)
(3.29724819718e-05 -5.54024591162e-05 0.000185871260017)
(3.6878545147e-05 -4.93377361103e-05 0.00018243020331)
(3.93029361586e-05 -4.32683976785e-05 0.000176166676272)
(-0.000115551089158 -0.000128211727493 3.50892378732e-05)
(-0.000107894487989 -0.000145904323873 4.07014522724e-06)
(-9.63802903885e-05 -0.000163358939847 -3.28788745844e-05)
(-8.15183860299e-05 -0.000178884198214 -7.05188044996e-05)
(-6.36751882939e-05 -0.000191778863456 -0.000104229796349)
(-4.35837659112e-05 -0.000201403111352 -0.000130586095356)
(-2.19218981346e-05 -0.000207335700641 -0.000147256984091)
(5.52798417394e-07 -0.000209302773985 -0.000152830686019)
(2.30188926994e-05 -0.000207203897967 -0.000146735436688)
(4.46561142576e-05 -0.000201142429762 -0.000129546536274)
(6.47103026193e-05 -0.000191394309612 -0.000102679271053)
(8.25059280405e-05 -0.000178386905075 -6.84704084155e-05)
(9.73094584843e-05 -0.000162761658524 -3.03487972349e-05)
(0.000108753506962 -0.000145230238252 7.05545101986e-06)
(0.000116294541791 -0.000127519138883 3.84565816269e-05)
(-0.000187179592895 -0.000206694711408 -0.000528149630686)
(-0.000173795341037 -0.000234665191256 -0.000626785992238)
(-0.00015485474284 -0.000261644140324 -0.000729687252416)
(-0.000130735103753 -0.000285402854419 -0.000826536546239)
(-0.000102038331645 -0.000304997288761 -0.000909252276327)
(-6.98310441719e-05 -0.000319574978993 -0.000972061600949)
(-3.51749460112e-05 -0.000328548413275 -0.0010111377789)
(7.47878028141e-07 -0.000331527360763 -0.00102421526637)
(3.66611219249e-05 -0.00032836827227 -0.00101040579164)
(7.12898892e-05 -0.000319217926971 -0.00097059728737)
(0.000103454760034 -0.000304469018994 -0.00090705331247)
(0.000132095951816 -0.000284716032968 -0.00082360343009)
(0.000156145798194 -0.000260816821237 -0.000726021972444)
(0.000174995817005 -0.000233727861564 -0.000622400088224)
(0.000188233945049 -0.000205721261894 -0.000523118120175)
(-0.000249502059755 -0.000274677646364 -0.00134297884142)
(-0.000230370680762 -0.000310499137569 -0.00150759524863)
(-0.000204464902099 -0.000344270021823 -0.00166983134212)
(-0.000172097008024 -0.000373722016791 -0.00181660873242)
(-0.000134073940116 -0.000397840787854 -0.00193856204587)
(-9.16732769627e-05 -0.000415718086489 -0.00202943544763)
(-4.62223587441e-05 -0.000426703687269 -0.00208531260484)
(8.06148923591e-07 -0.000430355639591 -0.0021039592774)
(4.78267912862e-05 -0.000426510630734 -0.00208450686752)
(9.3255426125e-05 -0.000415334706583 -0.0020278170654)
(0.000135620735728 -0.000397271734297 -0.0019361125316)
(0.000173596056807 -0.000372977969356 -0.00181330325256)
(0.000205902157629 -0.000343368297516 -0.00166563983615)
(0.000231719839089 -0.000309469272021 -0.00150248908296)
(0.000250709191402 -0.000273589162944 -0.00133699229462)
(-0.000300569599015 -0.000330400738569 -0.0022317249325)
(-0.000276157755757 -0.000371369446693 -0.00244020375574)
(-0.000244061012994 -0.000409240400281 -0.00263764167402)
(-0.000204744219044 -0.000441997665789 -0.00281136225794)
(-0.000159160111464 -0.000468670240211 -0.00295284074621)
(-0.000108696650579 -0.00048838157278 -0.0030567961323)
(-5.4834561008e-05 -0.000500477673575 -0.00312015108648)
(7.85767105574e-07 -0.000504504041397 -0.00314122471141)
(5.64002597431e-05 -0.000500291971764 -0.00311935675044)
(0.000110245943366 -0.000488012581758 -0.00305519534758)
(0.00016068292261 -0.000468121793501 -0.00295040156758)
(0.000206230390557 -0.000441278333465 -0.00280803650394)
(0.000245498639633 -0.000408364317952 -0.00263336661338)
(0.000277519567597 -0.000370362329971 -0.00243490616185)
(0.000301810343938 -0.00032931522527 -0.00222538045243)
(-0.000340339804361 -0.000373974574988 -0.00307167942263)
(-0.000311403193515 -0.000417612864866 -0.00329860769757)
(-0.000274082206581 -0.00045736379478 -0.00350725766667)
(-0.000229201591387 -0.000491513415086 -0.00368731167908)
(-0.000177786400079 -0.000519203718546 -0.00383197470825)
(-0.0001212638002 -0.000539624897594 -0.00393729043069)
(-6.11826421577e-05 -0.000552145183394 -0.00400110220363)
(7.40362539065e-07 -0.000556317158917 -0.00402227434076)
(6.26587084164e-05 -0.000551974217 -0.00400034897936)
(0.000122726836167 -0.000539285538822 -0.00393576970102)
(0.000179228199113 -0.000518699926732 -0.00382964806402)
(0.000230613825528 -0.000490852967314 -0.00368411776756)
(0.000275455297676 -0.000456558466048 -0.00350311263302)
(0.000312711444253 -0.000416684557393 -0.00329340513871)
(0.000341549639801 -0.000372955960469 -0.00306534237825)
(-0.000369800231723 -0.000406457354377 -0.00380514905612)
(-0.000337175001037 -0.000450685402257 -0.00403189829739)
(-0.000295640903622 -0.000490609361978 -0.00423622896148)
(-0.000246517581068 -0.000524699608987 -0.00441052739441)
(-0.000190830907213 -0.000552260778781 -0.00454953993989)
(-0.000129998267297 -0.000572559588728 -0.00465027072053)
(-6.55776160404e-05 -0.000584997634375 -0.00471113263766)
(7.00876182031e-07 -0.000589145144169 -0.00473129543139)
(6.69749697554e-05 -0.000584841900362 -0.00471041730503)
(0.000131383235564 -0.000572251174093 -0.00464882622021)
(0.000192195643881 -0.000551804504164 -0.00454732763494)
(0.000247854434731 -0.000524103637359 -0.00440748298396)
(0.00029694194991 -0.000489884566267 -0.00423226101182)
(0.00033841670345 -0.000449851018073 -0.00402688294756)
(0.00037095940442 -0.000405528782644 -0.0037989734474)
(-0.000390288401869 -0.000429204649373 -0.00442057689887)
(-0.000354757938029 -0.000472330652244 -0.00463716729252)
(-0.000309964489073 -0.000511114976106 -0.00483014764709)
(-0.000257779493051 -0.000544034232984 -0.00499399225275)
(-0.000199172370431 -0.000570593667904 -0.00512437044749)
(-0.000135513640299 -0.000590138289962 -0.00521874093761)
(-6.8329973583e-05 -0.000602109416941 -0.0052757274134)
(6.78939134659e-07 -0.000606102503872 -0.00529459218392)
(6.96831164783e-05 -0.000601966979151 -0.00527503480993)
(0.000136853267831 -0.000589857038131 -0.00521734388064)
(0.00020048989049 -0.000570179437226 -0.00512223380311)
(0.000259066920717 -0.000543496103971 -0.00499105552163)
(0.000311214424247 -0.000510463858467 -0.00482632166934)
(0.000355948994811 -0.000471584430125 -0.00463232314528)
(0.000391404436504 -0.000428366009931 -0.00441458243508)
(-0.000403106751503 -0.000443525565757 -0.00492961746497)
(-0.000365346892742 -0.000484177681447 -0.00513248270214)
(-0.000318147671581 -0.000520769305308 -0.0053124994466)
(-0.00026392459874 -0.000551635571093 -0.00546537082089)
(-0.000203551412697 -0.000576502997832 -0.00558711685957)
(-0.000138320946967 -0.000594793750315 -0.00567531009372)
(-6.96999494141e-05 -0.000605993028582 -0.00572859380031)
(6.7550534291e-07 -0.000609728372897 -0.00574622434967)
(7.1045618319e-05 -0.000605861875138 -0.00572790834235)
(0.000139651185384 -0.000594535501518 -0.00567392992901)
(0.000204856311886 -0.000576124264835 -0.00558501192966)
(0.000265195193628 -0.0005511461962 -0.0054624877239)
(0.00031937619155 -0.00052018055524 -0.00530875666984)
(0.000366513740094 -0.000483506330932 -0.00512775314516)
(0.000404199596914 -0.00044276707687 -0.00492376134869)
(-0.00040937121285 -0.000450554057631 -0.00535128111612)
(-0.000369944054844 -0.000487609003861 -0.00554039308127)
(-0.00032109155411 -0.000521117663952 -0.00570833642509)
(-0.000265711007458 -0.000549209681223 -0.00585131936627)
(-0.000204558389816 -0.000571825518065 -0.0059653721718)
(-0.000138823871222 -0.000588457543335 -0.00604807136277)
(-6.98935366382e-05 -0.000598637100269 -0.00609805909499)
(6.87325456154e-07 -0.000602030610462 -0.00611458728222)
(7.12621981593e-05 -0.000598515952214 -0.00609736901641)
(0.000140175055155 -0.000588219484557 -0.00604668459519)
(0.000205880738675 -0.000571477482799 -0.00596326397614)
(0.000266994274068 -0.000548761717419 -0.0058484445131)
(0.000322327037067 -0.00052058111865 -0.0057046232822)
(0.00037111336781 -0.000486999358964 -0.00553571888473)
(0.000410463550913 -0.000449863718639 -0.00534550396259)
(-0.00040999415609 -0.000451244880093 -0.00570397486011)
(-0.000369364215399 -0.000483759451546 -0.00588078746539)
(-0.000319529627919 -0.000513402179624 -0.00603827669442)
(-0.000263753100198 -0.000538128644918 -0.00617264885956)
(-0.000202666418084 -0.000558041667279 -0.00627985916376)
(-0.000137343010332 -0.00057268683089 -0.00635757474203)
(-6.90740340741e-05 -0.000581644167825 -0.00640453205524)
(7.10306802541e-07 -0.000584627017958 -0.00642003803618)
(7.04880893067e-05 -0.000581532535893 -0.00640383008855)
(0.000138737772371 -0.000572467727577 -0.0063561665339)
(0.000204029187991 -0.000557721803324 -0.00627772481992)
(0.000265072342334 -0.000537717615307 -0.00616975124805)
(0.000320795443954 -0.000512910786996 -0.00603455482956)
(0.000370559071089 -0.000483201339123 -0.00587612326196)
(0.000411106982042 -0.000450612019081 -0.00569822420831)
(-0.000405710182769 -0.000446401306543 -0.00600273250056)
(-0.00036428535729 -0.00047354721896 -0.00616914567561)
(-0.000314085395772 -0.000498639432778 -0.00631773298915)
(-0.00025857046385 -0.000519538048692 -0.0064443751519)
(-0.000198267733469 -0.000536395183969 -0.00654512941518)
(-0.000134140076693 -0.000548787983208 -0.00661798984791)
(-6.73738188941e-05 -0.00055635594907 -0.0066619413793)
(7.40774959311e-07 -0.000558870955966 -0.00667642471175)
(6.88483645603e-05 -0.000556254025406 -0.00666122430389)
(0.000135593914689 -0.000548587915746 -0.00661655320081)
(0.000199687078229 -0.000536102998359 -0.00654295721935)
(0.000259942628663 -0.000519162259962 -0.00644143762297)
(0.000315399285594 -0.000498189586822 -0.00631398023666)
(0.000365523981287 -0.000473034601617 -0.00616446524286)
(0.000406861138525 -0.000445819386467 -0.00599697443711)
(-0.000397113975712 -0.000436599659757 -0.00625900553027)
(-0.000355348142293 -0.000457663314182 -0.00641715111314)
(-0.000305339444367 -0.000477685820987 -0.00655804680992)
(-0.000250622230004 -0.000494447400906 -0.00667722067845)
(-0.000191692915301 -0.000507983574969 -0.00677135217979)
(-0.000129430363335 -0.00051790639475 -0.00683909653411)
(-6.49009045513e-05 -0.000523943736901 -0.00687984276649)
(7.75663325109e-07 -0.000525942846393 -0.0068932312915)
(6.64449796123e-05 -0.000523852087781 -0.00687911096038)
(0.000130952813225 -0.000517726244504 -0.00683763139403)
(0.000193179127272 -0.000507720048649 -0.00676914028246)
(0.000252058591179 -0.000494107333804 -0.00667423798479)
(0.000306713764407 -0.00047727687229 -0.00655425469332)
(0.000356643708247 -0.000457193714947 -0.00641244737766)
(0.000398316325657 -0.000436065922895 -0.0062532349015)
(-0.000384973570235 -0.000422096800471 -0.00648132400919)
(-0.000343399657466 -0.000436473251008 -0.00663407563028)
(-0.000293890847565 -0.000451196106468 -0.00676786234691)
(-0.000240325927318 -0.000463683312648 -0.00687904923349)
(-0.000183231444027 -0.000473713224949 -0.00696586332425)
(-0.000123404963459 -0.000481002735054 -0.00702792368161)
(-6.17534380223e-05 -0.000485406764308 -0.00706510885711)
(8.12487018598e-07 -0.000486855564956 -0.00707728392902)
(6.33710900712e-05 -0.00048532573112 -0.00706436628986)
(0.000125000461591 -0.00048084323118 -0.00702643689132)
(0.000184789685978 -0.000473479126093 -0.00696361973104)
(0.00024183268357 -0.000463379759948 -0.00687602752763)
(0.000295333055744 -0.000450828511873 -0.00676403325859)
(0.00034476054456 -0.000436046173854 -0.00662935407376)
(0.000386238778293 -0.000421608160648 -0.00647556993629)
(-0.000371554106245 -0.000404042719618 -0.00667487790346)
(-0.000330057090415 -0.000410047034565 -0.00682720647353)
(-0.000280737172676 -0.000419788506178 -0.00695305019971)
(-0.000228497530812 -0.000427839814285 -0.00705514436872)
(-0.000173537805251 -0.00043418234256 -0.00713383412111)
(-0.000116536140349 -0.000438712955765 -0.00718969287009)
(-5.81806725243e-05 -0.00044141989694 -0.00722303111801)
(8.49467257907e-07 -0.00044229945188 -0.00723390522999)
(5.98722286052e-05 -0.00044134952791 -0.00722228546781)
(0.000118205393094 -0.000438574129013 -0.00718819864234)
(0.000175169255776 -0.000433977761877 -0.00713157851908)
(0.000230076297714 -0.000427573166659 -0.00705210511185)
(0.000282249681658 -0.000419463298891 -0.0069492019504)
(0.000331484598695 -0.000409663551239 -0.00682245672282)
(0.000372890317363 -0.000403598763325 -0.00666923695708)
(1.94069114834e-06 2.64267912965e-06 -0.00023121665639)
(1.69278244919e-06 3.31567271139e-06 -0.0002427868129)
(1.47075791979e-06 3.86469421812e-06 -0.00025343703454)
(1.25520660321e-06 4.3159907085e-06 -0.00026280192876)
(9.76535168628e-07 4.69038810882e-06 -0.00027051439408)
(6.62404051893e-07 4.96547356492e-06 -0.000276259350119)
(3.21195295805e-07 5.13255260042e-06 -0.000279807405658)
(-3.13813005166e-08 5.18530626848e-06 -0.00028101580989)
(-3.84020352586e-07 5.12083938782e-06 -0.000279807917013)
(-7.26013385369e-07 4.94137903282e-06 -0.000276259201177)
(-1.04434803887e-06 4.6526104388e-06 -0.000270510465891)
(-1.33023281065e-06 4.26447731778e-06 -0.000262788880308)
(-1.55384366234e-06 3.79777120363e-06 -0.000253409036431)
(-1.78165353699e-06 3.23739312669e-06 -0.000242737382325)
(-2.02048059253e-06 2.56377807196e-06 -0.000231142968067)
(1.35076552624e-05 1.60410159462e-05 -0.0006932109282)
(1.26364078318e-05 1.91798126676e-05 -0.000727596632673)
(1.13831607192e-05 2.20922712341e-05 -0.000759308814899)
(9.79584538023e-06 2.46363663271e-05 -0.000787188849673)
(7.74744916404e-06 2.6762968398e-05 -0.000810146609961)
(5.3446649606e-06 2.83505239067e-05 -0.000827251802929)
(2.68857417347e-06 2.93278475667e-05 -0.000837815494946)
(-9.46430988188e-08 2.96486087701e-05 -0.000841405039361)
(-2.8780838289e-06 2.92955067553e-05 -0.000837819330787)
(-5.53609245036e-06 2.82846041935e-05 -0.000827255810315)
(-7.94729242922e-06 2.66614645231e-05 -0.00081014138452)
(-1.00114158647e-05 2.45000738904e-05 -0.000787158280444)
(-1.16161190559e-05 2.19199222383e-05 -0.000759234804786)
(-1.28799717844e-05 1.89816510101e-05 -0.000727459602203)
(-1.37291074521e-05 1.58409793785e-05 -0.000693003001172)
(2.87052986923e-05 3.32133900947e-05 -0.00115006762403)
(2.68746821491e-05 3.88149331192e-05 -0.00120643674382)
(2.41033269656e-05 4.40952927125e-05 -0.00125840675879)
(2.05764576225e-05 4.86808028815e-05 -0.00130406194796)
(1.61849093848e-05 5.24628454787e-05 -0.00134162830574)
(1.11269728361e-05 5.52618147074e-05 -0.00136960459547)
(5.60315740291e-06 5.69744256612e-05 -0.00138687249134)
(-1.55336726398e-07 5.75365140751e-05 -0.0013927292726)
(-5.9141339492e-06 5.69248235365e-05 -0.00138687320627)
(-1.1440211889e-05 5.51612470751e-05 -0.00136960040627)
(-1.65074867369e-05 5.2309806898e-05 -0.00134160507739)
(-2.09173864089e-05 4.84775884508e-05 -0.0013039956578)
(-2.44653890521e-05 4.38447249722e-05 -0.00125826939506)
(-2.72484318627e-05 3.8531411627e-05 -0.00120619815619)
(-2.90500710541e-05 3.29294125375e-05 -0.00114971884952)
(4.34220777636e-05 4.96289073998e-05 -0.00159644011185)
(4.03074357708e-05 5.68849838994e-05 -0.00167294044856)
(3.58155069571e-05 6.37072037064e-05 -0.00174331998536)
(3.02725598462e-05 6.95317696903e-05 -0.00180504988399)
(2.36292125128e-05 7.42550801174e-05 -0.00185577718126)
(1.61558501664e-05 7.77050925432e-05 -0.00189352105409)
(8.11515053991e-06 7.97965484147e-05 -0.00191679968175)
(-2.09072500835e-07 8.04795165968e-05 -0.0019246818669)
(-8.53396383295e-06 7.9736462294e-05 -0.00191678829492)
(-1.65777762074e-05 7.7583796508e-05 -0.0018934917969)
(-2.40611739882e-05 7.40718331629e-05 -0.00185571382774)
(-3.07237200327e-05 6.92896644158e-05 -0.00180492500961)
(-3.62892579698e-05 6.34120215224e-05 -0.00174310044475)
(-4.07926995437e-05 5.65526132192e-05 -0.00167259011611)
(-4.38752695143e-05 4.92954040336e-05 -0.00159595050187)
(5.49967959955e-05 6.23154415556e-05 -0.00202686477058)
(5.04411617162e-05 7.01890774947e-05 -0.002121033798)
(4.43460931381e-05 7.75129648929e-05 -0.00220746324184)
(3.71052489463e-05 8.36370242645e-05 -0.00228317923822)
(2.87335454534e-05 8.85136903861e-05 -0.00234534816967)
(1.95324869358e-05 9.20240791983e-05 -0.00239158120924)
(9.77724888342e-06 9.41300956219e-05 -0.00242008112176)
(-2.51822586678e-07 9.48124398346e-05 -0.00242971722188)
(-1.02820694765e-05 9.40647919224e-05 -0.00242004661865)
(-2.00415760755e-05 9.18927612861e-05 -0.00239150625955)
(-2.92534898613e-05 8.83162224646e-05 -0.00234521758193)
(-3.7644637432e-05 8.3376891151e-05 -0.00228296716132)
(-4.49083163669e-05 7.71972606228e-05 -0.00220713731503)
(-5.10152117984e-05 6.98342721553e-05 -0.00212055695647)
(-5.55393239424e-05 6.195717138e-05 -0.00202623090616)
(6.27450096916e-05 7.05481581447e-05 -0.00243780803961)
(5.68076063235e-05 7.8253139213e-05 -0.0025471597714)
(4.9433819528e-05 8.53049513314e-05 -0.00264735131722)
(4.09786366553e-05 9.10830210995e-05 -0.00273508767604)
(3.15040745737e-05 9.56035487326e-05 -0.00280711370299)
(2.13028062506e-05 9.8811459628e-05 -0.00286067238506)
(1.06263221915e-05 0.000100716225511 -0.0028936800795)
(-2.82309078163e-07 0.00010132759727 -0.00290482571737)
(-1.11926144446e-05 0.000100649400117 -0.00289361143186)
(-2.18745234798e-05 9.86774835024e-05 -0.00286053098864)
(-3.20873643347e-05 9.54027551444e-05 -0.00280688814007)
(-4.15812829829e-05 9.08190711554e-05 -0.00273475790999)
(-5.00589025151e-05 8.49853938468e-05 -0.00264689113721)
(-5.74453261584e-05 7.78939164065e-05 -0.00254653598406)
(-6.3355555957e-05 7.0182643351e-05 -0.00243701850587)
(6.7036580405e-05 7.48148113618e-05 -0.00282775666558)
(5.99406175205e-05 8.19174691005e-05 -0.00295000862956)
(5.16874289658e-05 8.82765545365e-05 -0.00306188358806)
(4.25014360774e-05 9.33973587613e-05 -0.00315985257019)
(3.24721568059e-05 9.73388605415e-05 -0.00324028178345)
(2.18578326689e-05 0.000100099480022 -0.00330008565939)
(1.08685857916e-05 0.000101722873872 -0.00333693198579)
(-3.01863293032e-07 0.000102238650326 -0.00334935741021)
(-1.1474393714e-05 0.00010165732449 -0.00333682015149)
(-2.24699839892e-05 9.99683201127e-05 -0.00329986067954)
(-3.30963546211e-05 9.71427634957e-05 -0.00323993790932)
(-4.31445360064e-05 9.31398450369e-05 -0.00315937848943)
(-5.23523284763e-05 8.79651916476e-05 -0.00306126306353)
(-6.06189479487e-05 8.15667646611e-05 -0.00294921602183)
(-6.76944101025e-05 7.44548028177e-05 -0.00282679489364)
(6.86076761707e-05 7.60141920161e-05 -0.00319624956078)
(6.06505649773e-05 8.23479349629e-05 -0.00332923178302)
(5.18946309166e-05 8.78515580002e-05 -0.0034507704801)
(4.23786739152e-05 9.22225708417e-05 -0.00355719071533)
(3.22082131312e-05 9.55365391967e-05 -0.00364453515369)
(2.15965023726e-05 9.78297841166e-05 -0.00370945351335)
(1.07078673521e-05 9.91661687052e-05 -0.00374942784652)
(-3.13170770574e-07 9.95862455928e-05 -0.00376288849689)
(-1.13365705251e-05 9.91040103696e-05 -0.00374926671283)
(-2.2232135772e-05 9.77055551762e-05 -0.00370913326283)
(-3.28560152262e-05 9.5351060813e-05 -0.00364405674356)
(-4.30445212782e-05 9.19790756962e-05 -0.00355655309491)
(-5.25812097194e-05 8.7557120014e-05 -0.00344996958733)
(-6.13512013849e-05 8.20154559377e-05 -0.00332825158498)
(-6.92950541578e-05 7.56687466426e-05 -0.00319509860351)
(6.82053860912e-05 7.50391368461e-05 -0.0035429941107)
(5.96845033622e-05 8.05883220055e-05 -0.00368449014945)
(5.07317615395e-05 8.52167889781e-05 -0.003813580844)
(4.11842982535e-05 8.88517969053e-05 -0.00392654954539)
(3.11585445287e-05 9.15672251835e-05 -0.00401918809532)
(2.08222943911e-05 9.34245348329e-05 -0.00408797136356)
(1.02963250884e-05 9.44973801101e-05 -0.00413028210128)
(-3.19166306195e-07 9.48308520751e-05 -0.00414450572398)
(-1.09371463487e-05 9.44400930675e-05 -0.00413006844146)
(-2.14702453166e-05 9.3310108889e-05 -0.00408754956927)
(-3.18183540979e-05 9.13964646025e-05 -0.00401856615997)
(-4.1860923923e-05 8.86274946106e-05 -0.00392573715183)
(-5.14275662345e-05 8.49451504491e-05 -0.00381258696283)
(-6.03944575081e-05 8.0280388354e-05 -0.00368330899439)
(-6.89089299442e-05 7.47145602043e-05 -0.00354163981582)
(6.64461373485e-05 7.26131441304e-05 -0.00386746650041)
(5.76165651999e-05 7.74238249931e-05 -0.00401514724425)
(4.86929796555e-05 8.12201036915e-05 -0.00414956739359)
(3.93227241141e-05 8.41699256326e-05 -0.0042670655342)
(2.96296263741e-05 8.63390968969e-05 -0.00436325919793)
(1.9740015148e-05 8.78053322224e-05 -0.00443455671638)
(9.73542941144e-06 8.86448428131e-05 -0.00447834526306)
(-3.22295776555e-07 8.89026276665e-05 -0.00449303702961)
(-1.03825023252e-05 8.85933856792e-05 -0.00447807819618)
(-2.03940784692e-05 8.77025386587e-05 -0.00443403149964)
(-3.02948664922e-05 8.61855959497e-05 -0.00436249063674)
(-4.00031990373e-05 8.39679281126e-05 -0.00426607376475)
(-4.93906493722e-05 8.09747263097e-05 -0.00414837433219)
(-5.83276067837e-05 7.71441116063e-05 -0.00401375690941)
(-6.71565712793e-05 7.23133152941e-05 -0.00386589817967)
(6.37849184832e-05 6.92619754288e-05 -0.0041689006535)
(5.48451237863e-05 7.33868907334e-05 -0.00432039366979)
(4.61082363109e-05 7.6409180909e-05 -0.00445792701478)
(3.70577646537e-05 7.87273519291e-05 -0.00457792378881)
(2.78189482626e-05 8.04024209434e-05 -0.00467589544436)
(1.84806776899e-05 8.15210921454e-05 -0.00474831282195)
(9.08977147944e-06 8.21560622865e-05 -0.00479268903585)
(-3.24275761383e-07 8.23483695174e-05 -0.00480754345233)
(-9.74069088818e-06 8.21109618617e-05 -0.0047923694158)
(-1.91381942176e-05 8.14309311268e-05 -0.00474768549287)
(-2.84867002461e-05 8.02675106294e-05 -0.00467498130998)
(-3.77390047764e-05 7.85491953462e-05 -0.0045767525803)
(-4.68044566107e-05 7.61915976344e-05 -0.00445653293771)
(-5.55532667345e-05 7.31368911496e-05 -0.00431878937224)
(-6.44965938433e-05 6.89884807267e-05 -0.00416710983643)
(6.05286074631e-05 6.53380944552e-05 -0.00444644937528)
(5.16254717331e-05 6.88056121258e-05 -0.00459955467552)
(4.3186288522e-05 7.11012144957e-05 -0.00473820683384)
(3.45567426376e-05 7.28319856657e-05 -0.00485879012974)
(2.5852942807e-05 7.40594715114e-05 -0.00495679716754)
(1.71287731561e-05 7.48703675034e-05 -0.00502894004336)
(8.40124200055e-06 7.53273624289e-05 -0.00507300757579)
(-3.26087852571e-07 7.54633793352e-05 -0.00508771686496)
(-9.05559730925e-06 7.52888923193e-05 -0.00507263755826)
(-1.77891892966e-05 7.47932778317e-05 -0.00502821421016)
(-2.65225622548e-05 7.39436674962e-05 -0.00495574126125)
(-3.52381241402e-05 7.26781576593e-05 -0.00485744203418)
(-4.38804791161e-05 7.09117947645e-05 -0.0047366120981)
(-5.23298742927e-05 6.85857010781e-05 -0.00459773333266)
(-6.12390967406e-05 6.50921485121e-05 -0.00444442805035)
(5.68551083419e-05 6.10449685314e-05 -0.00469935475236)
(4.81093482962e-05 6.38411959555e-05 -0.0048524971518)
(4.00632173463e-05 6.54418770884e-05 -0.00499076130894)
(3.19359587663e-05 6.66244976741e-05 -0.0051101954988)
(2.38228993256e-05 6.74517677583e-05 -0.00520652547558)
(1.5746679343e-05 6.79959856657e-05 -0.00527699186104)
(7.70116923855e-06 6.83014772743e-05 -0.00531984574155)
(-3.28078987547e-07 6.83906724304e-05 -0.00533409957807)
(-8.35932542978e-06 6.82696898827e-05 -0.00531942871337)
(-1.64103349316e-05 6.79320282892e-05 -0.00527617322536)
(-2.44947511952e-05 6.73551951391e-05 -0.0052053338229)
(-3.26180351998e-05 6.64950307947e-05 -0.00510867451348)
(-4.07561260995e-05 6.52804430467e-05 -0.00498896672308)
(-4.88106699862e-05 6.36510216703e-05 -0.00485045672377)
(-5.75638542948e-05 6.08274828769e-05 -0.0046970972312)
(5.28585872143e-05 5.64496988762e-05 -0.00492704010644)
(4.4419612392e-05 5.85786525678e-05 -0.00508032772583)
(3.68743032803e-05 5.94881586464e-05 -0.00521730177683)
(2.9312393101e-05 6.01676514239e-05 -0.00533383562451)
(2.18202619907e-05 6.06458176973e-05 -0.00542666677202)
(1.43957370579e-05 6.09640119195e-05 -0.00549397812941)
(7.02028971349e-06 6.11432993937e-05 -0.00553467638867)
(-3.30212979668e-07 6.11938059579e-05 -0.00554815461632)
(-7.68250965172e-06 6.11180104251e-05 -0.00553421740853)
(-1.50627948831e-05 6.09128942928e-05 -0.0054930753518)
(-2.24945636436e-05 6.05679864551e-05 -0.00542534869722)
(-2.99957663654e-05 6.00619733109e-05 -0.00533214757973)
(-3.75670489655e-05 5.93540775607e-05 -0.00521530700164)
(-4.511901121e-05 5.8417020185e-05 -0.00507806620377)
(-5.35657538737e-05 5.62594975228e-05 -0.00492454874578)
(4.85802118835e-05 5.22077853626e-05 -0.00512989717684)
(4.07518329016e-05 5.31344649979e-05 -0.00528762082573)
(3.37821836165e-05 5.33505735321e-05 -0.00542152897065)
(2.68123939249e-05 5.35484969265e-05 -0.0055326838355)
(1.99363562644e-05 5.36841073977e-05 -0.00561981143161)
(1.31351409336e-05 5.3774528864e-05 -0.00568232242277)
(6.38764287306e-06 5.382362036e-05 -0.00571986123264)
(-3.32233830701e-07 5.38333524627e-05 -0.0057322299377)
(-7.05366952009e-06 5.38044106291e-05 -0.00571936867794)
(-1.3805349111e-05 5.37356407926e-05 -0.00568135070293)
(-2.06127544366e-05 5.36243363999e-05 -0.00561838550202)
(-2.74966372094e-05 5.34662981033e-05 -0.00553084413471)
(-3.44750900888e-05 5.32438247585e-05 -0.00541934013121)
(-4.14502820075e-05 5.3001609126e-05 -0.00528511999776)
(-4.92872357506e-05 5.20438341766e-05 -0.00512722137038)
(-5.06462274459e-07 -9.75606891102e-07 -0.000360469289547)
(-2.00593174593e-07 -1.33940358221e-06 -0.000378989625845)
(-6.69701731687e-09 -1.54935677178e-06 -0.000396144575858)
(1.2116526369e-07 -1.66866609887e-06 -0.000411193504071)
(1.73446144245e-07 -1.7243901052e-06 -0.000423522091074)
(1.55525851276e-07 -1.74140484668e-06 -0.000432658952201)
(8.37845842124e-08 -1.74206710867e-06 -0.000438276329174)
(-1.77896138303e-08 -1.7412778762e-06 -0.000440176676344)
(-1.18516928698e-07 -1.7441195364e-06 -0.00043825497543)
(-1.87622044222e-07 -1.74497477006e-06 -0.000432616589214)
(-2.00787437424e-07 -1.72856045862e-06 -0.000423459528973)
(-1.42518368568e-07 -1.67259774619e-06 -0.000411111840435)
(-7.20508641647e-09 -1.5506738951e-06 -0.000396044428876)
(1.96175572792e-07 -1.3368560859e-06 -0.000378870370462)
(5.08770273225e-07 -9.70194112599e-07 -0.000360322326132)
(-1.8333764031e-06 -2.9853813129e-06 -0.00102243896258)
(-1.06350865829e-06 -3.91252949916e-06 -0.00107125282825)
(-5.25366500227e-07 -4.50114606843e-06 -0.00111641932752)
(-1.44821708099e-07 -4.8635386129e-06 -0.00115597850751)
(7.03932118285e-08 -5.05907818414e-06 -0.00118834440554)
(1.3375164593e-07 -5.14581138476e-06 -0.00121230717049)
(8.04552146521e-08 -5.17526663028e-06 -0.00122702558129)
(-3.73458388085e-08 -5.1821851264e-06 -0.00123199022714)
(-1.53346654866e-07 -5.17855587322e-06 -0.00122696139914)
(-2.01093686002e-07 -5.15127980129e-06 -0.00121217986772)
(-1.27916790007e-07 -5.06491253804e-06 -0.0011881563928)
(1.00430770884e-07 -4.86794862068e-06 -0.00115573318927)
(4.97474429629e-07 -4.49962520934e-06 -0.00111611902218)
(1.05608638568e-06 -3.90275222708e-06 -0.00107089597017)
(1.84111309906e-06 -2.96938970415e-06 -0.00102200724303)
(-3.45417107035e-06 -5.08166161342e-06 -0.00162256819577)
(-2.34976582808e-06 -6.44527906899e-06 -0.00169561553708)
(-1.52294564093e-06 -7.37358875345e-06 -0.00176306829297)
(-8.92146344938e-07 -7.98451992274e-06 -0.00182206788165)
(-4.58362405346e-07 -8.35102937737e-06 -0.00187029034989)
(-2.03272210024e-07 -8.54643394757e-06 -0.00190596615075)
(-8.50913976696e-08 -8.63506217482e-06 -0.00192786306022)
(-4.25187887579e-08 -8.6602560164e-06 -0.00193523512953)
(2.08527690714e-09 -8.63683921056e-06 -0.00192775797883)
(1.26469772193e-07 -8.54876095956e-06 -0.00190575765378)
(3.92547239503e-07 -8.35203903211e-06 -0.00186998209826)
(8.41659215863e-07 -7.98231019022e-06 -0.00182166514745)
(1.49238726563e-06 -7.36372963076e-06 -0.00176257538782)
(2.34392991267e-06 -6.4253663254e-06 -0.00169503079107)
(3.46772566598e-06 -5.05508592355e-06 -0.00162186727178)
(-4.87587130995e-06 -6.77656248371e-06 -0.0021667504746)
(-3.53635698825e-06 -8.39004728178e-06 -0.0022590774908)
(-2.49101631018e-06 -9.52225041452e-06 -0.00234414781255)
(-1.65603915636e-06 -1.02876558023e-05 -0.00241849186047)
(-1.025589549e-06 -1.0764334648e-05 -0.00247922393421)
(-5.77869600367e-07 -1.10326086607e-05 -0.0025241390812)
(-2.69394799122e-07 -1.11622419125e-05 -0.00255169565844)
(-3.76504708659e-08 -1.11999896641e-05 -0.00256096076719)
(1.95968062589e-07 -1.11618410866e-05 -0.00255155213892)
(5.1010582519e-07 -1.10307482484e-05 -0.00252385419213)
(9.679021372e-07 -1.07594324829e-05 -0.00247880224877)
(1.61301820263e-06 -1.02780472334e-05 -0.00241794007608)
(2.4677608466e-06 -9.50422462161e-06 -0.00234347226298)
(3.53773201669e-06 -8.36155261649e-06 -0.00225827730538)
(4.89717266841e-06 -6.74142011795e-06 -0.00216579916798)
(-6.0452807915e-06 -8.06877677615e-06 -0.00266138480411)
(-4.54231414907e-06 -9.79297983399e-06 -0.00276906705748)
(-3.33628418902e-06 -1.10167967939e-05 -0.0028680816082)
(-2.33984934846e-06 -1.18533794339e-05 -0.0029545739609)
(-1.5436535188e-06 -1.23820037803e-05 -0.00302522278397)