/*--------------------------------*- C++ -*----------------------------------*\
  =========                 |
  \\      /  F ield         | OpenFOAM: The Open Source CFD Toolbox
   \\    /   O peration     | Website:  https://openfoam.org
    \\  /    A nd           | Version:  7
     \\/     M anipulation  |
\*---------------------------------------------------------------------------*/
FoamFile
{
    version     2.0;
    format      ascii;
    class       volScalarField;
    location    "0.56";
    object      p;
}
// * * * * * * * * * * * * * * * * * * * * * * * * * * * * * * * * * * * * * //

dimensions      [0 2 -2 0 0 0 0];

internalField   nonuniform List<scalar> 
22500
(
1.1078152581e-05
1.10763425353e-05
1.10760120401e-05
1.10753793206e-05
1.10749455397e-05
1.10746079733e-05
1.10744019986e-05
1.10743283119e-05
1.10744017354e-05
1.10746074502e-05
1.10749447594e-05
1.10753782904e-05
1.10760107588e-05
1.10763410398e-05
1.1078150667e-05
1.10528707716e-05
1.10497640067e-05
1.10483464316e-05
1.1046765986e-05
1.10455637447e-05
1.10446614427e-05
1.10441106886e-05
1.10439219981e-05
1.10441104199e-05
1.10446609084e-05
1.10455629483e-05
1.10467649343e-05
1.10483451254e-05
1.10497624782e-05
1.10528688208e-05
1.10285446774e-05
1.10242464242e-05
1.10219021531e-05
1.1019488437e-05
1.10176233432e-05
1.10162337434e-05
1.10153863568e-05
1.10150985628e-05
1.10153860914e-05
1.10162332154e-05
1.10176225567e-05
1.10194873985e-05
1.10219008643e-05
1.10242449169e-05
1.10285427447e-05
1.10068697378e-05
1.10015855471e-05
1.0998503935e-05
1.09954405301e-05
1.09930603172e-05
1.09912952831e-05
1.09902201014e-05
1.09898563638e-05
1.0990219842e-05
1.0991294767e-05
1.09930595493e-05
1.09954395179e-05
1.09985026812e-05
1.10015840871e-05
1.10068678631e-05
1.09866470443e-05
1.09805169578e-05
1.09768109296e-05
1.09732222579e-05
1.09704240966e-05
1.09683581118e-05
1.09671010272e-05
1.09666768818e-05
1.09671007739e-05
1.0968357608e-05
1.09704233478e-05
1.09732212736e-05
1.09768097155e-05
1.0980515552e-05
1.09866452438e-05
1.09676014168e-05
1.09607647371e-05
1.09565384871e-05
1.09525384628e-05
1.09494117744e-05
1.09471128407e-05
1.09457156367e-05
1.09452451519e-05
1.09457153889e-05
1.09471123482e-05
1.09494110439e-05
1.09525375054e-05
1.09565373136e-05
1.09607633845e-05
1.09675996881e-05
1.0949811548e-05
1.09424159342e-05
1.09377733664e-05
1.09334724668e-05
1.09301041876e-05
1.09276374751e-05
1.09261400484e-05
1.0925636602e-05
1.09261398051e-05
1.0927636992e-05
1.09301034726e-05
1.09334715331e-05
1.09377722302e-05
1.09424146303e-05
1.09498098821e-05
1.09332945996e-05
1.09254833904e-05
1.09205198272e-05
1.0916017811e-05
1.09124863248e-05
1.09099096279e-05
1.09083472271e-05
1.09078226036e-05
1.09083469869e-05
1.09099091518e-05
1.09124856215e-05
1.09160168962e-05
1.09205187219e-05
1.09254821253e-05
1.09332929836e-05
1.09180084029e-05
1.09099153402e-05
1.09047166917e-05
1.09001010873e-05
1.0896475092e-05
1.08938380369e-05
1.0892240781e-05
1.08917050152e-05
1.08922405423e-05
1.08938375642e-05
1.08964743954e-05
1.0900100184e-05
1.09047156077e-05
1.09099141001e-05
1.09180068194e-05
1.09038942341e-05
1.08956424827e-05
1.08902884394e-05
1.08856361859e-05
1.08819758625e-05
1.08793208528e-05
1.08777143175e-05
1.08771759014e-05
1.08777140784e-05
1.08793203795e-05
1.08819751658e-05
1.08856352848e-05
1.08902873637e-05
1.08956412496e-05
1.0903892661e-05
1.08908858112e-05
1.08825889589e-05
1.08771578177e-05
1.0872537355e-05
1.08688953454e-05
1.08662584283e-05
1.08646642163e-05
1.08641303125e-05
1.08646639743e-05
1.08662579495e-05
1.08688946408e-05
1.08725364444e-05
1.08771567338e-05
1.08825877108e-05
1.08908842197e-05
1.08788959346e-05
1.08706740074e-05
1.08652531153e-05
1.08607260059e-05
1.08571470177e-05
1.08545580151e-05
1.08529940128e-05
1.08524705781e-05
1.08529937657e-05
1.08545575254e-05
1.08571462959e-05
1.08607250716e-05
1.08652520025e-05
1.08706727174e-05
1.08788942916e-05
1.08677778225e-05
1.08598236834e-05
1.0854525753e-05
1.08501423301e-05
1.08466598395e-05
1.08441418145e-05
1.08426224615e-05
1.08421144178e-05
1.08426222066e-05
1.08441413085e-05
1.08466590903e-05
1.08501413553e-05
1.0854524586e-05
1.08598223204e-05
1.08677760926e-05
1.0857498127e-05
1.08500615944e-05
1.08449475747e-05
1.08407268869e-05
1.08373590538e-05
1.08349315745e-05
1.08334710747e-05
1.08329834843e-05
1.08334708099e-05
1.08349310468e-05
1.08373582669e-05
1.08407258527e-05
1.08449463232e-05
1.08500601175e-05
1.08574962859e-05
1.08492226128e-05
1.08411956689e-05
1.08362733379e-05
1.08321855253e-05
1.08289595731e-05
1.08266596243e-05
1.0825284105e-05
1.08248261066e-05
1.08252838266e-05
1.08266590671e-05
1.08289587355e-05
1.08321844084e-05
1.08362719553e-05
1.08411940122e-05
1.08492206504e-05
8.16340525488e-06
8.16404970109e-06
8.1645244713e-06
8.16494965721e-06
8.16530399327e-06
8.16557091128e-06
8.16573794606e-06
8.16579478181e-06
8.16573797179e-06
8.16557095686e-06
8.1653040447e-06
8.16494970181e-06
8.16452450832e-06
8.16404974319e-06
8.16340526153e-06
8.16618800659e-06
8.16693519978e-06
8.16751528764e-06
8.16803617225e-06
8.16847169968e-06
8.1687996128e-06
8.16900460919e-06
8.16907444966e-06
8.16900463198e-06
8.16879965213e-06
8.16847174156e-06
8.16803620269e-06
8.16751530463e-06
8.16693522521e-06
8.16618800507e-06
8.16929320101e-06
8.17023763423e-06
8.17098581262e-06
8.17166557822e-06
8.17223763738e-06
8.17266952298e-06
8.17293974233e-06
8.17303187449e-06
8.17293976487e-06
8.17266956261e-06
8.17223768213e-06
8.17166561553e-06
8.17098583778e-06
8.17023767309e-06
8.1692932131e-06
8.1729606282e-06
8.1742503112e-06
8.17527540598e-06
8.17621141796e-06
8.17700229652e-06
8.17760055861e-06
8.17797493704e-06
8.17810257607e-06
8.17797496018e-06
8.17760060025e-06
8.17700234687e-06
8.17621146645e-06
8.17527544574e-06
8.17425036781e-06
8.17296065579e-06
8.17756160038e-06
8.17934513733e-06
8.180753244e-06
8.18203705314e-06
8.18312146719e-06
8.18394132464e-06
8.18445368549e-06
8.18462821485e-06
8.18445370888e-06
8.18394136744e-06
8.1831215213e-06
8.18203710947e-06
8.18075329551e-06
8.17934520776e-06
8.17756163938e-06
8.18315367474e-06
8.18554762453e-06
8.18741464549e-06
8.18910820694e-06
8.19053432706e-06
8.19161001291e-06
8.19228070153e-06
8.19250885909e-06
8.1922807244e-06
8.19161005518e-06
8.1905343821e-06
8.18910826686e-06
8.18741470354e-06
8.18554770317e-06
8.18315371613e-06
8.1896385264e-06
8.19271690836e-06
8.19508358162e-06
8.19721494495e-06
8.19900174517e-06
8.2003450461e-06
8.20118026031e-06
8.20146395145e-06
8.20118028211e-06
8.20034508668e-06
8.19900179877e-06
8.19721500464e-06
8.19508364071e-06
8.19271698863e-06
8.18963856291e-06
8.19686301387e-06
8.20065510868e-06
8.20352886563e-06
8.20609449484e-06
8.20823446689e-06
8.20983719864e-06
8.21083071278e-06
8.21116762585e-06
8.21083073293e-06
8.2098372362e-06
8.20823451675e-06
8.20609455063e-06
8.20352892116e-06
8.20065518309e-06
8.19686303958e-06
8.20465177053e-06
8.20914417544e-06
8.2125033088e-06
8.21547303645e-06
8.21793693292e-06
8.21977485199e-06
8.22091058916e-06
8.22129509065e-06
8.22091060757e-06
8.21977488609e-06
8.2179369779e-06
8.21547308578e-06
8.21250335688e-06
8.20914423842e-06
8.20465177824e-06
8.21282390517e-06
8.21796541101e-06
8.22176410946e-06
8.22508732228e-06
8.22782969322e-06
8.2298668613e-06
8.23112168416e-06
8.23154577722e-06
8.23112170098e-06
8.22986689214e-06
8.22782973313e-06
8.22508736444e-06
8.22176414823e-06
8.21796545914e-06
8.21282389088e-06
8.22120480989e-06
8.22691223619e-06
8.23108577044e-06
8.23469820282e-06
8.23766310255e-06
8.2398561444e-06
8.24120249173e-06
8.24165670989e-06
8.24120250777e-06
8.2398561735e-06
8.23766313919e-06
8.2346982391e-06
8.23108580037e-06
8.22691226878e-06
8.22120477045e-06
8.22962531253e-06
8.23579149872e-06
8.2402640712e-06
8.24409624474e-06
8.2472234397e-06
8.24952579524e-06
8.25093420976e-06
8.25140845916e-06
8.25093422656e-06
8.24952582526e-06
8.2472234769e-06
8.24409627946e-06
8.24026409624e-06
8.23579151835e-06
8.22962525025e-06
8.23791711291e-06
8.24443240919e-06
8.24912930143e-06
8.25311230924e-06
8.25634027234e-06
8.25870394047e-06
8.26014411589e-06
8.26062803687e-06
8.26014413521e-06
8.2587039758e-06
8.25634031582e-06
8.25311234963e-06
8.24912932866e-06
8.24443242264e-06
8.23791703438e-06
8.24605787155e-06
8.25282988316e-06
8.25762938821e-06
8.26166763636e-06
8.26491062394e-06
8.26727014365e-06
8.26870172308e-06
8.26918169011e-06
8.26870174714e-06
8.26727018789e-06
8.2649106799e-06
8.26166768963e-06
8.2576294263e-06
8.25282989588e-06
8.24605778809e-06
8.25478191773e-06
8.26105346286e-06
8.26573619886e-06
8.26967889865e-06
8.27280267492e-06
8.2750593586e-06
8.27642289775e-06
8.27687909136e-06
8.27642292627e-06
8.27505941244e-06
8.27280274499e-06
8.26967896916e-06
8.26573625004e-06
8.26105347553e-06
8.2547818421e-06
8.82311090418e-06
8.82292279052e-06
8.82270321392e-06
8.8224605815e-06
8.8222361077e-06
8.82205605258e-06
8.8219400226e-06
8.82189978289e-06
8.82193999238e-06
8.82205599369e-06
8.82223602291e-06
8.82246047253e-06
8.82270305602e-06
8.82292260827e-06
8.82311068722e-06
8.8233518804e-06
8.82317897116e-06
8.82297122577e-06
8.82273851692e-06
8.82252142375e-06
8.82234626836e-06
8.82223291847e-06
8.82219349394e-06
8.82223288446e-06
8.82234620152e-06
8.82252132699e-06
8.8227383916e-06
8.82297105361e-06
8.82317877024e-06
8.82335164857e-06
8.82380243587e-06
8.82365461462e-06
8.82347102019e-06
8.82325767002e-06
8.82305570727e-06
8.82289116493e-06
8.82278405084e-06
8.82274667269e-06
8.82278401797e-06
8.82289110008e-06
8.82305561261e-06
8.82325754631e-06
8.82347085368e-06
8.82365441771e-06
8.82380220532e-06
8.82413429987e-06
8.8239968519e-06
8.82382628088e-06
8.82362284034e-06
8.82342862118e-06
8.82326948563e-06
8.8231655371e-06
8.82312920528e-06
8.82316550675e-06
8.82326942543e-06
8.82342853207e-06
8.82362272246e-06
8.82382612381e-06
8.82399666535e-06
8.82413407108e-06
8.82433533622e-06
8.8241999614e-06
8.82403625304e-06
8.82383858204e-06
8.82364956461e-06
8.82349447663e-06
8.8233930746e-06
8.823357619e-06
8.82339304661e-06
8.82349442096e-06
8.82364948152e-06
8.82383847098e-06
8.82403610494e-06
8.82419978519e-06
8.82433511058e-06
8.82446315633e-06
8.82433115095e-06
8.82417598192e-06
8.82398715302e-06
8.8238069171e-06
8.82365914421e-06
8.82356255655e-06
8.82352878872e-06
8.82356253095e-06
8.82365909308e-06
8.82380684011e-06
8.82398704898e-06
8.82417584322e-06
8.82433098323e-06
8.8244629356e-06
8.82456205063e-06
8.82444114819e-06
8.82430091933e-06
8.82412809009e-06
8.82396351589e-06
8.8238287193e-06
8.82374066586e-06
8.82370988478e-06
8.82374064249e-06
8.82382867255e-06
8.82396344501e-06
8.8241279933e-06
8.82430078987e-06
8.82444098932e-06
8.82456183412e-06
8.82466579056e-06
8.82456762329e-06
8.8244510854e-06
8.82430307475e-06
8.82416217464e-06
8.82404670851e-06
8.82397127254e-06
8.82394488883e-06
8.82397125119e-06
8.82404666569e-06
8.82416210917e-06
8.82430298434e-06
8.82445096389e-06
8.82456747202e-06
8.82466557706e-06
8.82480187074e-06
8.82473952617e-06
8.82465582086e-06
8.82454115202e-06
8.82443137031e-06
8.82434098315e-06
8.82428179458e-06
8.82426105171e-06
8.82428177501e-06
8.82434094373e-06
8.82443130961e-06
8.82454106709e-06
8.82465570581e-06
8.82473938083e-06
8.82480165938e-06
8.82499056192e-06
8.82497613307e-06
8.82493301942e-06
8.8248583367e-06
8.8247852561e-06
8.82472415214e-06
8.82468381902e-06
8.82466960298e-06
8.82468380081e-06
8.82472411539e-06
8.82478519899e-06
8.82485825583e-06
8.82493290893e-06
8.82497599133e-06
8.82499035119e-06
8.82524392991e-06
8.82528637646e-06
8.82528887956e-06
8.82525800286e-06
8.82522466423e-06
8.82519505978e-06
8.82517491678e-06
8.82516767474e-06
8.82517489966e-06
8.82519502513e-06
8.82522461003e-06
8.82525792501e-06
8.8252887724e-06
8.82528623688e-06
8.82524371836e-06
8.82556384659e-06
8.82566794641e-06
8.82571810789e-06
8.82573214954e-06
8.82573926253e-06
8.82574161301e-06
8.82574188872e-06
8.82574168778e-06
8.82574187251e-06
8.82574157998e-06
8.82573921051e-06
8.82573207414e-06
8.82571800323e-06
8.82566780857e-06
8.82556363515e-06
8.82594467144e-06
8.82611227474e-06
8.82620929974e-06
8.82626633068e-06
8.82631230523e-06
8.82634544277e-06
8.8263653756e-06
8.8263719488e-06
8.82636536e-06
8.82634541111e-06
8.82631225527e-06
8.82626625739e-06
8.82620919757e-06
8.82611213847e-06
8.82594446056e-06
8.82642227912e-06
8.82665081119e-06
8.82677244948e-06
8.82685804362e-06
8.82693220633e-06
8.82698841195e-06
8.82702321846e-06
8.82703493301e-06
8.82702320317e-06
8.82698838144e-06
8.82693215759e-06
8.82685797211e-06
8.82677234958e-06
8.82665067581e-06
8.82642207055e-06
8.82722672579e-06
8.82731328148e-06
8.82739966381e-06
8.82747919485e-06
8.82755601738e-06
8.82761665198e-06
8.82765481382e-06
8.8276677592e-06
8.82765479861e-06
8.82761662146e-06
8.82755596955e-06
8.82747912437e-06
8.82739956443e-06
8.82731314502e-06
8.8272265229e-06
7.47493231238e-06
7.47507368031e-06
7.47524251445e-06
7.47541319247e-06
7.47556665565e-06
7.47568692761e-06
7.47576354751e-06
7.47578994289e-06
7.47576357718e-06
7.47568698024e-06
7.47556671557e-06
7.47541323473e-06
7.47524252476e-06
7.47507364801e-06
7.47493228855e-06
7.47507451425e-06
7.47521584918e-06
7.47538704727e-06
7.47556051466e-06
7.47571721779e-06
7.4758404375e-06
7.4759191287e-06
7.47594629159e-06
7.47591915905e-06
7.47584049103e-06
7.47571727794e-06
7.47556055515e-06
7.47538705043e-06
7.47521581088e-06
7.47507447485e-06
7.47507443971e-06
7.47520553717e-06
7.47536869693e-06
7.47553547574e-06
7.47568759957e-06
7.47580788252e-06
7.47588498614e-06
7.47591165841e-06
7.47588501459e-06
7.47580793289e-06
7.47568765689e-06
7.47553551695e-06
7.47536870314e-06
7.47520550869e-06
7.47507440262e-06
7.47505943375e-06
7.47518223978e-06
7.47533881584e-06
7.47549903206e-06
7.47564631863e-06
7.47576327727e-06
7.47583847247e-06
7.47586452434e-06
7.47583849854e-06
7.47576332359e-06
7.47564637196e-06
7.47549907257e-06
7.47533882605e-06
7.47518221904e-06
7.47505940116e-06
7.4750561135e-06
7.47517242139e-06
7.47532424204e-06
7.47547842228e-06
7.47562092783e-06
7.47573441067e-06
7.47580752562e-06
7.47583288519e-06
7.47580754992e-06
7.47573445397e-06
7.47562097863e-06
7.47547846274e-06
7.47532425705e-06
7.47517240728e-06
7.47505608633e-06
7.47505370047e-06
7.475163751e-06
7.47531143105e-06
7.47545930868e-06
7.4755965257e-06
7.47570601271e-06
7.4757766664e-06
7.47580119408e-06
7.4757766889e-06
7.47570605295e-06
7.47559657344e-06
7.47545934835e-06
7.47531144884e-06
7.4751637441e-06
7.47505367534e-06
7.47504658923e-06
7.4751506948e-06
7.47529487618e-06
7.47543648547e-06
7.47556823987e-06
7.47567351911e-06
7.47574154e-06
7.47576516988e-06
7.47574156101e-06
7.47567355698e-06
7.47556828546e-06
7.47543652524e-06
7.47529489698e-06
7.47515069495e-06
7.47504656765e-06
7.47503535374e-06
7.4751347076e-06
7.47527658415e-06
7.47541268571e-06
7.4755394557e-06
7.47564084515e-06
7.47570640348e-06
7.47572918732e-06
7.47570642308e-06
7.47564088068e-06
7.47553949925e-06
7.47541272553e-06
7.47527660867e-06
7.47513471383e-06
7.47503533777e-06
7.4750227633e-06
7.47511963375e-06
7.47526090885e-06
7.47539287955e-06
7.47551566907e-06
7.47561389835e-06
7.47567742628e-06
7.47569950554e-06
7.47567744478e-06
7.47561393215e-06
7.47551571142e-06
7.4753929201e-06
7.47526093744e-06
7.47511964619e-06
7.4750227521e-06
7.47501250925e-06
7.47511017547e-06
7.47525277744e-06
7.47538226811e-06
7.47550229607e-06
7.4755982495e-06
7.47566027077e-06
7.4756818162e-06
7.47566028833e-06
7.47559828194e-06
7.47550233753e-06
7.4753823099e-06
7.47525281033e-06
7.47511019444e-06
7.47501250304e-06
7.47500870363e-06
7.47511119125e-06
7.47525685898e-06
7.47538534994e-06
7.47550368528e-06
7.47559811886e-06
7.47565906726e-06
7.47568021682e-06
7.47565908419e-06
7.47559815042e-06
7.47550372656e-06
7.47538539315e-06
7.47525689603e-06
7.47511121585e-06
7.47500870125e-06
7.47501408945e-06
7.47512593221e-06
7.47527605993e-06
7.47540475007e-06
7.47552227345e-06
7.47561578585e-06
7.47567598456e-06
7.47569683455e-06
7.47567600106e-06
7.47561581691e-06
7.47552231472e-06
7.47540479509e-06
7.47527610089e-06
7.47512596172e-06
7.4750140905e-06
7.47502920168e-06
7.47515518251e-06
7.47531096146e-06
7.4754409324e-06
7.4755586868e-06
7.4756519999e-06
7.4757118239e-06
7.47573248519e-06
7.47571183992e-06
7.47565203027e-06
7.47555872829e-06
7.47544097865e-06
7.47531100583e-06
7.47515521601e-06
7.47502920589e-06
7.47507800332e-06
7.475222313e-06
7.47537484395e-06
7.47550152589e-06
7.47561669167e-06
7.47570764043e-06
7.47576565003e-06
7.47578561033e-06
7.47576566512e-06
7.47570766999e-06
7.47561673195e-06
7.47550157233e-06
7.4753748902e-06
7.47522234883e-06
7.47507800814e-06
7.47535476933e-06
7.4754264984e-06
7.47552648824e-06
7.47561600907e-06
7.47570289695e-06
7.47577246457e-06
7.47581695804e-06
7.47583227247e-06
7.47581697257e-06
7.47577249286e-06
7.47570293686e-06
7.47561605577e-06
7.4755265362e-06
7.47542653776e-06
7.47535477973e-06
7.37425630166e-06
7.37417764966e-06
7.37408800413e-06
7.37399125121e-06
7.37390296423e-06
7.37383239939e-06
7.3737870141e-06
7.37377128421e-06
7.37378698391e-06
7.37383234443e-06
7.37390289425e-06
7.37399116057e-06
7.37408787038e-06
7.37417749895e-06
7.37425611636e-06
7.37429917439e-06
7.37422527815e-06
7.37413875958e-06
7.37404424926e-06
7.37395738117e-06
7.37388759008e-06
7.3738425422e-06
7.37382689001e-06
7.37384251076e-06
7.37388753224e-06
7.373957306e-06
7.37404415283e-06
7.37413862163e-06
7.37422511621e-06
7.37429898219e-06
7.37442910868e-06
7.37436477686e-06
7.37428716848e-06
7.37419953708e-06
7.37411792684e-06
7.37405172345e-06
7.3740087521e-06
7.37399377433e-06
7.37400872271e-06
7.37405166871e-06
7.37411785428e-06
7.37419944407e-06
7.37428704017e-06
7.37436462255e-06
7.37442892748e-06
7.37454267199e-06
7.3744840275e-06
7.37441272544e-06
7.37432980398e-06
7.37425176303e-06
7.37418794245e-06
7.37414632648e-06
7.37413178852e-06
7.37414629999e-06
7.37418789238e-06
7.37425169476e-06
7.3743297167e-06
7.37441260867e-06
7.37448388644e-06
7.37454250254e-06
7.37462741958e-06
7.37457115764e-06
7.37450368068e-06
7.37442350582e-06
7.37434756269e-06
7.37428512499e-06
7.3742442799e-06
7.37422999131e-06
7.37424425619e-06
7.37428507977e-06
7.37434750007e-06
7.37442342565e-06
7.3745035749e-06
7.3745710304e-06
7.3746272626e-06
7.3746932311e-06
7.37463766338e-06
7.37457282116e-06
7.37449454786e-06
7.37442016727e-06
7.37435882741e-06
7.37431862094e-06
7.37430454596e-06
7.37431860014e-06
7.37435878739e-06
7.3744201109e-06
7.37449447549e-06
7.37457272681e-06
7.3746375471e-06
7.37469308893e-06
7.37474606381e-06
7.37469044226e-06
7.3746277992e-06
7.37455125202e-06
7.37447846499e-06
7.37441837776e-06
7.37437895946e-06
7.37436515975e-06
7.37437894158e-06
7.37441834317e-06
7.37447841568e-06
7.37455118829e-06
7.37462771669e-06
7.37469033762e-06
7.3747459353e-06
7.37478950354e-06
7.37473384077e-06
7.3746735303e-06
7.37459905774e-06
7.37452834387e-06
7.37447001518e-06
7.37443176077e-06
7.37441837586e-06
7.37443174577e-06
7.37446998598e-06
7.37452830159e-06
7.37459900237e-06
7.37467345835e-06
7.37473374693e-06
7.37478938659e-06
7.37482716691e-06
7.37477220022e-06
7.37471486158e-06
7.37464327244e-06
7.3745755075e-06
7.3745197529e-06
7.37448323573e-06
7.37447047261e-06
7.37448322349e-06
7.37451972885e-06
7.37457547223e-06
7.37464322534e-06
7.37471479936e-06
7.37477211638e-06
7.37482706115e-06
7.37486283502e-06
7.37480990494e-06
7.37475652594e-06
7.37468893563e-06
7.3746252708e-06
7.37457312531e-06
7.37453906096e-06
7.37452717518e-06
7.37453905116e-06
7.37457310592e-06
7.37462524173e-06
7.37468889587e-06
7.37475647201e-06
7.37480982935e-06
7.37486273935e-06
7.37490000731e-06
7.37485084042e-06
7.37480249993e-06
7.37474011807e-06
7.37468183099e-06
7.37463444396e-06
7.37460362344e-06
7.37459289678e-06
7.37460361574e-06
7.37463442855e-06
7.37468180756e-06
7.37474008486e-06
7.37480245363e-06
7.37485077249e-06
7.37489992104e-06
7.37494126999e-06
7.37489763162e-06
7.3748552238e-06
7.37479920097e-06
7.37474763022e-06
7.37470622586e-06
7.37467949177e-06
7.37467022214e-06
7.37467948573e-06
7.3747062137e-06
7.37474761106e-06
7.37479917353e-06
7.37485518415e-06
7.3748975716e-06
7.37494119416e-06
7.3749895432e-06
7.37495234212e-06
7.374915976e-06
7.37486705794e-06
7.37482345127e-06
7.37478922649e-06
7.37476739658e-06
7.37475987363e-06
7.37476739161e-06
7.37478921606e-06
7.37482343559e-06
7.37486703433e-06
7.3749159422e-06
7.3749522893e-06
7.37498947768e-06
7.37505734333e-06
7.37502580181e-06
7.37499081649e-06
7.37494709685e-06
7.37491087755e-06
7.37488355796e-06
7.37486647363e-06
7.37486063892e-06
7.37486646864e-06
7.3748835487e-06
7.37491086241e-06
7.37494707588e-06
7.37499078635e-06
7.37502575548e-06
7.37505728753e-06
7.37518526573e-06
7.3751300494e-06
7.37508291074e-06
7.37503778725e-06
7.37500438271e-06
7.37498037261e-06
7.37496570214e-06
7.37496075008e-06
7.37496569754e-06
7.37498036333e-06
7.37500436915e-06
7.37503776777e-06
7.37508288482e-06
7.37513000961e-06
7.37518521711e-06
6.54528736173e-06
6.5453382673e-06
6.5453980957e-06
6.54545963193e-06
6.54551529197e-06
6.54555919809e-06
6.5455872626e-06
6.54559694838e-06
6.54558728253e-06
6.54555923183e-06
6.54551532584e-06
6.54545964476e-06
6.54539807346e-06
6.54533819352e-06
6.5452872906e-06
6.5453344358e-06
6.54538520817e-06
6.54544574325e-06
6.5455081388e-06
6.54556481066e-06
6.54560965068e-06
6.54563837933e-06
6.54564831369e-06
6.54563840188e-06
6.54560968912e-06
6.54556485005e-06
6.54550815636e-06
6.5454457221e-06
6.54538513681e-06
6.54533435643e-06
6.5453311792e-06
6.54537842093e-06
6.54543603564e-06
6.54549610549e-06
6.54555117036e-06
6.54559498754e-06
6.54562316626e-06
6.54563293089e-06
6.54562318698e-06
6.54559502287e-06
6.54555120682e-06
6.54549612346e-06
6.54543601803e-06
6.54537836182e-06
6.54533110676e-06
6.54532368895e-06
6.54536846123e-06
6.54542386513e-06
6.54548195268e-06
6.54553560173e-06
6.54557848915e-06
6.54560615429e-06
6.54561575489e-06
6.54560617232e-06
6.54557851982e-06
6.5455356332e-06
6.54548196834e-06
6.54542385041e-06
6.5453684098e-06
6.54532362605e-06
6.5453222856e-06
6.54536565575e-06
6.54541974184e-06
6.54547635156e-06
6.54552888881e-06
6.54557101275e-06
6.5455982427e-06
6.54560770148e-06
6.54559825857e-06
6.54557103966e-06
6.54552891666e-06
6.54547636585e-06
6.54541973107e-06
6.54536561083e-06
6.54532223245e-06
6.54532356978e-06
6.54536595106e-06
6.54541907338e-06
6.54547428597e-06
6.54552567139e-06
6.54556694211e-06
6.54559365663e-06
6.54560294183e-06
6.54559367052e-06
6.54556696565e-06
6.54552569575e-06
6.54547429859e-06
6.54541906435e-06
6.54536591332e-06
6.54532352262e-06
6.54532525407e-06
6.5453668195e-06
6.54541909828e-06
6.5454728328e-06
6.54552289686e-06
6.54556313223e-06
6.54558919384e-06
6.54559825434e-06
6.54558920604e-06
6.54556315303e-06
6.5455229186e-06
6.54547284489e-06
6.54541909159e-06
6.54536678869e-06
6.54532521454e-06
6.54532660604e-06
6.5453674692e-06
6.54541893654e-06
6.54547106446e-06
6.54551960107e-06
6.54555859752e-06
6.54558385684e-06
6.54559263773e-06
6.5455838676e-06
6.54555861596e-06
6.54551962072e-06
6.54547107633e-06
6.54541893289e-06
6.5453674442e-06
6.54532657647e-06
6.54532725812e-06
6.54536753043e-06
6.54541816641e-06
6.54546853401e-06
6.54551532272e-06
6.54555287293e-06
6.54557718106e-06
6.54558562802e-06
6.54557719079e-06
6.54555288975e-06
6.54551534136e-06
6.54546854679e-06
6.54541816679e-06
6.54536751196e-06
6.5453272375e-06
6.54532701804e-06
6.54536687814e-06
6.54541662881e-06
6.54546506551e-06
6.54550988044e-06
6.54554578013e-06
6.54556899361e-06
6.54557705441e-06
6.54556900252e-06
6.54554579591e-06
6.54550989857e-06
6.54546507995e-06
6.54541663369e-06
6.54536686678e-06
6.54532700701e-06
6.54532597242e-06
6.54536572399e-06
6.54541450441e-06
6.54546082016e-06
6.54550343201e-06
6.54553748283e-06
6.5455594638e-06
6.54556708884e-06
6.54555947233e-06
6.54553749818e-06
6.5455034507e-06
6.54546083684e-06
6.54541451419e-06
6.54536571941e-06
6.54532596986e-06
6.54532418923e-06
6.54536434454e-06
6.54541210089e-06
6.54545615365e-06
6.54549639999e-06
6.54552845871e-06
6.54554910566e-06
6.54555625656e-06
6.54554911401e-06
6.54552847426e-06
6.54549641932e-06
6.54545617321e-06
6.5454121155e-06
6.5453643463e-06
6.54532419451e-06
6.54532145999e-06
6.54536279143e-06
6.54540963593e-06
6.5454514763e-06
6.54548942869e-06
6.54551953867e-06
6.54553885951e-06
6.54554553636e-06
6.5455388679e-06
6.54551955382e-06
6.54548944935e-06
6.54545149774e-06
6.54540965501e-06
6.54536279879e-06
6.54532147272e-06
6.54532384677e-06
6.54536736848e-06
6.54541117751e-06
6.5454496669e-06
6.54548460111e-06
6.54551219274e-06
6.54552980913e-06
6.54553587455e-06
6.54552981687e-06
6.54551220825e-06
6.54548462121e-06
6.54544969025e-06
6.54541119935e-06
6.54536738032e-06
6.54532386369e-06
6.54538553022e-06
6.5454087268e-06
6.54543633818e-06
6.54546202236e-06
6.54548656944e-06
6.54550613546e-06
6.54551863233e-06
6.54552293286e-06
6.54551864065e-06
6.54550615122e-06
6.54548659176e-06
6.54546204822e-06
6.5454363654e-06
6.54540874543e-06
6.54538555145e-06
6.15571438966e-06
6.15568856204e-06
6.15565852434e-06
6.15562596255e-06
6.15559615408e-06
6.15557231202e-06
6.15555697346e-06
6.15555165192e-06
6.15555694002e-06
6.15557224563e-06
6.15559605555e-06
6.15562583876e-06
6.15565838343e-06
6.15568841798e-06
6.15571419953e-06
6.15573084301e-06
6.15570663813e-06
6.15567770978e-06
6.15564595147e-06
6.15561665063e-06
6.15559308435e-06
6.15557786501e-06
6.15557257126e-06
6.15557783135e-06
6.15559301743e-06
6.15561655181e-06
6.15564582757e-06
6.15567756986e-06
6.15570649092e-06
6.15573065464e-06
6.15577461931e-06
6.15575350413e-06
6.15572745226e-06
6.15569791359e-06
6.15567029533e-06
6.15564786808e-06
6.15563330213e-06
6.1556282198e-06
6.15563327014e-06
6.15564780477e-06
6.15567020248e-06
6.15569779732e-06
6.15572732168e-06
6.15575336133e-06
6.15577444141e-06
6.15581230937e-06
6.15579298455e-06
6.15576891179e-06
6.15574084798e-06
6.15571433637e-06
6.15569264059e-06
6.15567848532e-06
6.1556735356e-06
6.15567845555e-06
6.15569258215e-06
6.15571425164e-06
6.15574074239e-06
6.1557687924e-06
6.15579285166e-06
6.1558121415e-06
6.15584035235e-06
6.15582176128e-06
6.15579885782e-06
6.15577164125e-06
6.15574576987e-06
6.15572449175e-06
6.15571056567e-06
6.15570568983e-06
6.15571053836e-06
6.1557244384e-06
6.1557456931e-06
6.15577154598e-06
6.15579874899e-06
6.15582163923e-06
6.15584019636e-06
6.15586219384e-06
6.15584382547e-06
6.1558217085e-06
6.15579508812e-06
6.15576970371e-06
6.15574876713e-06
6.15573503795e-06
6.15573022806e-06
6.15573501335e-06
6.15574871933e-06
6.15576963548e-06
6.15579500369e-06
6.15582161095e-06
6.15584371196e-06
6.15586205266e-06
6.1558798778e-06
6.15586151228e-06
6.1558400316e-06
6.15581396119e-06
6.15578907995e-06
6.15576853765e-06
6.15575505476e-06
6.15575033102e-06
6.15575503295e-06
6.15576849541e-06
6.15578901989e-06
6.15581388682e-06
6.15583994507e-06
6.15586140758e-06
6.15587975029e-06
6.15589457925e-06
6.15587620817e-06
6.15585536505e-06
6.15582993499e-06
6.15580568829e-06
6.15578568139e-06
6.15577255063e-06
6.15576795247e-06
6.15577253161e-06
6.15578564466e-06
6.15580563608e-06
6.15582986986e-06
6.15585528792e-06
6.15587611152e-06
6.15589446298e-06
6.1559073725e-06
6.15588916785e-06
6.15586908454e-06
6.15584449418e-06
6.15582110584e-06
6.15580184654e-06
6.15578921907e-06
6.15578480135e-06
6.15578920263e-06
6.15580181477e-06
6.15582106053e-06
6.15584443702e-06
6.15586901531e-06
6.1558890782e-06
6.15590726727e-06
6.15591928437e-06
6.15590154654e-06
6.15588242236e-06
6.15585893879e-06
6.15583669506e-06
6.15581844599e-06
6.15580650582e-06
6.15580233479e-06
6.15580649166e-06
6.15581841854e-06
6.15583665563e-06
6.15585888811e-06
6.1558823593e-06
6.15590146212e-06
6.15591918895e-06
6.1559311775e-06
6.15591426771e-06
6.15589632402e-06
6.15587423726e-06
6.15585345857e-06
6.1558365142e-06
6.15582546732e-06
6.15582161676e-06
6.15582545493e-06
6.1558364902e-06
6.15585342372e-06
6.15587419168e-06
6.15589626602e-06
6.15591418789e-06
6.15593109153e-06
6.15594359344e-06
6.15592786409e-06
6.15591129347e-06
6.15589089018e-06
6.15587192467e-06
6.15585661169e-06
6.15584668674e-06
6.1558432383e-06
6.15584667569e-06
6.15585658996e-06
6.15587189316e-06
6.15589084832e-06
6.15591123929e-06
6.15592778906e-06
6.1559435177e-06
6.15595708537e-06
6.15594273752e-06
6.15592757226e-06
6.15590904309e-06
6.15589222469e-06
6.15587887433e-06
6.15587030474e-06
6.15586734172e-06
6.15587029421e-06
6.1558788541e-06
6.15589219485e-06
6.15590900356e-06
6.15592752108e-06
6.15594266677e-06
6.15595701986e-06
6.15597463065e-06
6.15596148188e-06
6.15594655081e-06
6.1559294388e-06
6.15591467196e-06
6.15590328361e-06
6.15589608287e-06
6.15589361109e-06
6.15589607238e-06
6.15590326335e-06
6.15591464239e-06
6.15592939957e-06
6.15594650091e-06
6.15596141438e-06
6.15597457462e-06
6.15600540349e-06
6.15598498218e-06
6.15596741995e-06
6.15595055551e-06
6.15593716157e-06
6.15592721478e-06
6.15592104396e-06
6.15591894517e-06
6.15592103343e-06
6.15592719444e-06
6.15593713193e-06
6.1559505164e-06
6.15596737143e-06
6.15598491742e-06
6.15600534878e-06
5.53623845395e-06
5.53625198538e-06
5.53626857297e-06
5.53628593962e-06
5.53630182849e-06
5.53631444562e-06
5.53632253734e-06
5.53632532906e-06
5.53632253203e-06
5.53631443497e-06
5.53630181186e-06
5.53628590874e-06
5.5362685155e-06
5.53625187701e-06
5.5362383206e-06
5.53625088688e-06
5.53626445677e-06
5.53628127677e-06
5.53629891343e-06
5.53631511342e-06
5.53632801637e-06
5.53633631097e-06
5.53633917846e-06
5.53633630768e-06
5.53632800959e-06
5.53631510216e-06
5.53629888912e-06
5.53628122563e-06
5.53626435756e-06
5.536250751e-06
5.5362522216e-06
5.53626512104e-06
5.53628139971e-06
5.53629861969e-06
5.53631456599e-06
5.53632733133e-06
5.53633556621e-06
5.53633841859e-06
5.53633556318e-06
5.53632732495e-06
5.53631455482e-06
5.53629859664e-06
5.5362813514e-06
5.53626503225e-06
5.53625209387e-06
5.53625291023e-06
5.53626543196e-06
5.5362813702e-06
5.53629828016e-06
5.53631403574e-06
5.53632669708e-06
5.5363348871e-06
5.53633772764e-06
5.53633488385e-06
5.53632669017e-06
5.53631402358e-06
5.53629825719e-06
5.53628132577e-06
5.53626535147e-06
5.53625279545e-06
5.53625526775e-06
5.53626768224e-06
5.53628350531e-06
5.53630022976e-06