/*--------------------------------*- C++ -*----------------------------------*\
  =========                 |
  \\      /  F ield         | OpenFOAM: The Open Source CFD Toolbox
   \\    /   O peration     | Website:  https://openfoam.org
    \\  /    A nd           | Version:  7
     \\/     M anipulation  |
\*---------------------------------------------------------------------------*/
FoamFile
{
    version     2.0;
    format      ascii;
    class       volVectorField;
    location    "0.56";
    object      U;
}
// * * * * * * * * * * * * * * * * * * * * * * * * * * * * * * * * * * * * * //

dimensions      [0 1 -1 0 0 0 0];

internalField   nonuniform List<vector> 
22500
(
(1.28478468248e-05 1.43999652316e-05 0.000198867416514)
(1.19646003072e-05 1.62296097218e-05 0.000208754325095)
(1.04805467925e-05 1.80767528497e-05 0.000217755027789)
(8.81570002587e-06 1.96473943851e-05 0.000225522173803)
(6.85532397565e-06 2.0947652047e-05 0.000231813706962)
(4.69463691258e-06 2.1913980555e-05 0.000236440925953)
(2.38579618891e-06 2.25098573073e-05 0.000239273111571)
(9.61612955607e-11 2.27114375514e-05 0.000240231611034)
(-2.38560629846e-06 2.25098728689e-05 0.000239273108856)
(-4.69445368878e-06 2.19140109514e-05 0.000236440921568)
(-6.85515111068e-06 2.09476953781e-05 0.000231813701417)
(-8.81553970648e-06 1.96474487431e-05 0.000225522168397)
(-1.04804024306e-05 1.80768154314e-05 0.000217755032438)
(-1.19644579628e-05 1.62296892748e-05 0.000208754410907)
(-1.28477375138e-05 1.44000479182e-05 0.000198867953034)
(3.739182813e-05 4.19391394825e-05 0.000520986705962)
(3.47481001363e-05 4.71576123661e-05 0.000543124783439)
(3.0528727545e-05 5.2370958701e-05 0.000563046564254)
(2.56502369416e-05 5.68441749049e-05 0.000580074564657)
(1.99536028007e-05 6.05477019657e-05 0.000593755506568)
(1.36627632282e-05 6.33023761304e-05 0.000603755051219)
(6.94284710477e-06 6.50024119541e-05 0.000609849089988)
(2.45925717673e-10 6.55773937658e-05 0.000611904184647)
(-6.94236076721e-06 6.50024487766e-05 0.000609849080113)
(-1.36622923434e-05 6.33024479701e-05 0.000603755033792)
(-1.99531556325e-05 6.05478042913e-05 0.000593755482408)
(-2.56498183743e-05 5.68443029356e-05 0.000580074536778)
(-3.05283421309e-05 5.23711054532e-05 0.000563046560497)
(-3.47477251705e-05 4.71577958278e-05 0.000543125009059)
(-3.73915387357e-05 4.19393324103e-05 0.000520987991383)
(5.63272827888e-05 6.30736563814e-05 0.000781241881509)
(5.20809028872e-05 7.05368831572e-05 0.000810494079957)
(4.56617042874e-05 7.79316697468e-05 0.000836541023241)
(3.82485105052e-05 8.42610725305e-05 0.000858623957877)
(2.96925115067e-05 8.94802936931e-05 0.000876244184091)
(2.02981620434e-05 9.33521591564e-05 0.000889055274736)
(1.0304378369e-05 9.57375274808e-05 0.000896833781672)
(3.59351152895e-10 9.65435352747e-05 0.000899449533043)
(-1.03036668766e-05 9.57375761083e-05 0.000896833759013)
(-2.02974709285e-05 9.33522538745e-05 0.000889055232368)
(-2.96918514672e-05 8.94804284778e-05 0.00087624412184)
(-3.82478873578e-05 8.42612402804e-05 0.000858623877415)
(-4.56611221232e-05 7.79318611706e-05 0.000836540957452)
(-5.20803368999e-05 7.05371195088e-05 0.000810494303811)
(-5.63268374888e-05 6.3073908961e-05 0.000781243532765)
(7.08607239403e-05 7.92018375116e-05 0.000992146313534)
(6.51972808505e-05 8.80451558329e-05 0.00102494305336)
(5.70047695858e-05 9.67631054884e-05 0.00105382278848)
(4.75994110183e-05 0.000104184551877 0.00107810368817)
(3.68667461413e-05 0.000110278313445 0.00109734270372)
(2.5158190176e-05 0.000114784248536 0.00111125595965)
(1.27578062615e-05 0.000117554410759 0.00111967179297)
(4.43833966781e-10 0.000118489355694 0.00112249446065)
(-1.27569268352e-05 0.000117554467628 0.00111967174936)
(-2.51573341612e-05 0.00011478435908 0.00111125587458)
(-3.68659256904e-05 0.000110278470472 0.00109734257359)
(-4.7598632106e-05 0.000104184746192 0.00107810350783)
(-5.70040348435e-05 9.67633253853e-05 0.00105382257906)
(-6.51965651248e-05 8.80454230774e-05 0.00102494309373)
(-7.08601448956e-05 7.92021245569e-05 0.000992147855242)
(8.18899892956e-05 9.13857972792e-05 0.00116308277367)
(7.49978129685e-05 0.000100959413669 0.00119691715545)
(6.53798189247e-05 0.000110368388135 0.00122635306842)
(5.44235013714e-05 0.000118327681594 0.00125087903264)
(4.20551385832e-05 0.000124833959161 0.00127016768195)
(2.86487091245e-05 0.00012962872548 0.00128403690938)
(1.45123779359e-05 0.000132569933571 0.0012923923344)
(5.069657636e-10 0.000133561426536 0.00129518751352)
(-1.45113729634e-05 0.000132569997408 0.00129239226578)
(-2.86477296632e-05 0.000129628849347 0.00128403677153)
(-4.20541977533e-05 0.000124834134776 0.00127016746429)
(-5.44226051515e-05 0.000118327897933 0.00125087871572)
(-6.53789677547e-05 0.000110368631073 0.00122635264453)
(-7.49969817855e-05 0.000100959704719 0.00119691686819)
(-8.18892973579e-05 9.13861112207e-05 0.00116308387785)
(8.99008041107e-05 0.000100178170651 0.00130132076367)
(8.19647813222e-05 0.00010995158613 0.00133444369369)
(7.12282349504e-05 0.000119541627283 0.00136288116437)
(5.91075344912e-05 0.000127599602946 0.00138633978373)
(4.55684310966e-05 0.000134154925875 0.00140463843238)
(3.09877637339e-05 0.000138969162256 0.00141771285462)
(1.56805659963e-05 0.000141915528863 0.00142555471328)
(5.55751659097e-10 0.000142907581034 0.00142817111929)
(-1.5679464063e-05 0.00014191560002 0.00142555461883)
(-3.09866891321e-05 0.000138969300156 0.00141771266038)
(-4.55673977816e-05 0.000134155121199 0.00140463811673)
(-5.91065485215e-05 0.00012759984295 0.0013863393053)
(-7.12272941058e-05 0.000119541895957 0.00136288047323)
(-8.19638602564e-05 0.000109951903988 0.00133444298347)
(-8.99000189083e-05 0.000100178515556 0.00130132127139)
(9.52882405245e-05 0.000106016465411 0.00141265543194)
(8.64886498318e-05 0.000115560591173 0.00144388043277)
(7.49106638363e-05 0.000124921303741 0.00147029878568)
(6.19674170441e-05 0.000132731470013 0.00149185038998)
(4.7660571637e-05 0.000139052455467 0.00150850862384)
(3.23535809196e-05 0.000143678379763 0.00152032709461)
(1.63542946023e-05 0.000146502872887 0.00152738082383)
(5.9613574157e-10 0.000147452777033 0.00152972761973)
(-1.63531125758e-05 0.000146502953046 0.00152738070441)
(-3.23524281942e-05 0.000143678535069 0.001520326844)
(-4.76594631402e-05 0.000139052675668 0.00150850820569)
(-6.19663590984e-05 0.000132731740657 0.00149184973466)
(-7.49096515823e-05 0.000124921607305 0.00147029779325)
(-8.64876573483e-05 0.000115560946201 0.00144387925072)
(-9.52873788359e-05 0.000106016851991 0.00141265529073)
(9.84281119234e-05 0.000109320607501 0.00150180777665)
(8.89382813994e-05 0.000118301952784 0.00153037651195)
(7.6768046023e-05 0.000127113687752 0.00155415869793)
(6.33009529053e-05 0.000134412472235 0.00157331956385)
(4.85704138581e-05 0.000140287422537 0.00158797852093)
(3.291344207e-05 0.000144572194616 0.00159829580605)
(1.66197113643e-05 0.000147182400817 0.00160441943796)
(6.3302515067e-10 0.000148059261905 0.00160645049194)
(-1.66184563443e-05 0.00014718249251 0.0016044192954)
(-3.29122186365e-05 0.000144572372529 0.00159829550149)
(-4.85692381889e-05 0.000140287675548 0.00158797800068)
(-6.32998319757e-05 0.000134412784288 0.00157331872609)
(-7.67669726881e-05 0.000127114039775 0.00155415739094)
(-8.89372299368e-05 0.000118302360326 0.00153037485339)
(-9.84271879188e-05 0.000109321050591 0.00150180700807)
(9.96633388685e-05 0.000110476818983 0.00157268382699)
(8.96468277652e-05 0.00011864494972 0.00159816684208)
(7.7107138955e-05 0.000126665367439 0.00161900247459)
(6.33753829163e-05 0.000133258536777 0.00163555702791)
(4.85117338612e-05 0.000138535758814 0.00164807565937)
(3.28166849888e-05 0.000142372361972 0.00165680661093)
(1.65535824336e-05 0.000144704664318 0.00166195589805)
(6.70576759192e-10 0.000145487393161 0.0016636578823)
(-1.65522531652e-05 0.000144704770513 0.00166195573524)
(-3.28153898782e-05 0.000142372568613 0.00165680625779)
(-4.85104906687e-05 0.000138536054091 0.00164807504399)
(-6.33741998355e-05 0.000133258903091 0.00163555601546)
(-7.71060075206e-05 0.000126665783973 0.0016190008653)
(-8.96457239223e-05 0.000118645427616 0.00159816474777)
(-9.96623636662e-05 0.000110477335677 0.00157268251265)
(9.9299279916e-05 0.000109830846763 0.00162854700728)
(8.89073821529e-05 0.000117003386094 0.00165076624655)
(7.61965437415e-05 0.00012405281975 0.00166857565744)
(6.24244413963e-05 0.000129801800028 0.00168250700042)
(4.76711033719e-05 0.0001343781635 0.00169290337141)
(3.21932608999e-05 0.000137696496789 0.00170007836932)
(1.62225549428e-05 0.000139710325221 0.00170427894288)
(7.12370372616e-10 0.000140385645008 0.0017056618551)
(-1.6221142928e-05 0.000139710448755 0.00170427876496)
(-3.21918856613e-05 0.000137696738066 0.00170007797873)
(-4.76697846274e-05 0.000134378510376 0.00169290267947)
(-6.24231893064e-05 0.000129802233548 0.00168250584206)
(-7.61953500763e-05 0.000124053317017 0.00166857379299)
(-8.89062266225e-05 0.000117003952434 0.00165076381001)
(-9.9298260449e-05 0.00010983145451 0.00162854529022)
(9.76067610133e-05 0.000107692550628 0.00167213504404)
(8.69763371243e-05 0.000113738585179 0.00169110152645)
(7.42707183384e-05 0.000119685778265 0.00170597502017)
(6.06523245852e-05 0.000124496307807 0.0017174087276)
(4.62110117439e-05 0.000128308029537 0.00172581217378)
(3.11557548517e-05 0.000131067491263 0.00173154076824)
(1.56841351461e-05 0.000132740353826 0.00173486546382)
(7.61432638169e-10 0.000133301048918 0.00173595492989)
(-1.56826256985e-05 0.000132740496707 0.00173486528062)
(-3.11542844922e-05 0.000131067771557 0.00173154036241)
(-4.62096024192e-05 0.000128308435287 0.00172581144469)
(-6.06509894287e-05 0.000124496819184 0.00171740748658)
(-7.42694514665e-05 0.000119686370001 0.0017059729983)
(-8.69751243412e-05 0.00011373925566 0.00169109890861)
(-9.76056985461e-05 0.000107693264558 0.00167213314501)
(9.48233183868e-05 0.000104339578283 0.0017057405321)
(8.40776141935e-05 0.000109159862564 0.00172160552711)
(7.15365117067e-05 0.000113909884947 0.00173375579637)
(5.82392158272e-05 0.000117724980726 0.0017429143998)
(4.42733275935e-05 0.00012074103521 0.00174952632378)
(2.98012148068e-05 0.000122924261834 0.00175396753589)
(1.49874648264e-05 0.000124247203686 0.00175651798953)
(8.2013902562e-10 0.000124690479888 0.00175734904603)
(-1.49858383379e-05 0.00012424736631 0.00175651781918)
(-2.97996289628e-05 0.000122924582281 0.00175396715614)
(-4.42718067256e-05 0.00012074150259 0.00174952563143)
(-5.82377771634e-05 0.000117725575258 0.00174291319401)
(-7.15351543591e-05 0.000113910579195 0.00173375378905)
(-8.40763325369e-05 0.000109160646943 0.00172160297525)
(-9.48222069406e-05 0.000104340408032 0.00170573877402)
(9.11503747012e-05 0.0001000017372 0.00173126630455)
(8.04147621366e-05 0.000103515013765 0.00174429064991)
(6.81859767354e-05 0.0001070118826 0.00175401760554)
(5.5347939153e-05 0.000109811636562 0.00176118285431)
(4.19814840549e-05 0.000112029039622 0.00176624411669)
(2.82115783839e-05 0.000113635414351 0.00176958228017)
(1.41733323641e-05 0.000114608116907 0.00177147423305)
(8.89987114296e-10 0.000114933843956 0.00177208641133)
(-1.41715661817e-05 0.000114608297016 0.00177147410586)
(-2.8209853245e-05 0.000113635770924 0.00176958199563)
(-4.19798264558e-05 0.000112029563836 0.00176624358541)
(-5.5346371589e-05 0.000109812310442 0.00176118188298)
(-6.81845065127e-05 0.00010701267773 0.00175401589339)
(-8.04133951375e-05 0.000103515912401 0.00174428851558)
(-9.11492038017e-05 0.000100002680687 0.00173126509843)
(8.67944050998e-05 9.48450236311e-05 0.00175026056843)
(7.62216176251e-05 9.70295247793e-05 0.00176082217523)
(6.44144044e-05 9.92449029751e-05 0.00176848336213)
(5.21216234659e-05 0.000101050364952 0.00177395908442)
(3.94346801066e-05 0.000102483766819 0.00177772141592)
(2.64494032249e-05 0.000103519447082 0.00178014664446)
(1.32721991897e-05 0.000104144106213 0.00178149855717)
(9.71078903592e-10 0.000104352830147 0.00178193214148)
(-1.32702703122e-05 0.000104144298169 0.00178149851687)
(-2.64475144141e-05 0.00010351982886 0.00178014655487)
(-3.94328593539e-05 0.000102484332594 0.00177772122792)
(-5.21198990842e-05 0.000101051101106 0.00177395865168)
(-6.44127951746e-05 9.92457841035e-05 0.00176848238805)
(-7.62201452394e-05 9.70305259138e-05 0.00176082095446)
(-8.67931575783e-05 9.48460712506e-05 0.00175026036413)
(8.20490798794e-05 8.93272449911e-05 0.00176396729437)
(7.17894050386e-05 8.96036829572e-05 0.0017726662034)
(6.03423079564e-05 9.06838761963e-05 0.00177858121607)
(4.86354398024e-05 9.15517362795e-05 0.00178264488058)
(3.66804891842e-05 9.22319558115e-05 0.00178534478517)
(2.45454017641e-05 9.27138654894e-05 0.00178703777972)
(1.22996753238e-05 9.30004464382e-05 0.00178796248483)
(1.06183775765e-09 9.30955930072e-05 0.00178825581394)
(-1.22975640555e-05 9.30006385329e-05 0.00178796257116)
(-2.45433283089e-05 9.27142490078e-05 0.00178703797701)
(-3.66784815931e-05 9.22325283894e-05 0.00178534511521)
(-4.86335306801e-05 9.15524910302e-05 0.00178264531196)
(-6.03405294833e-05 9.06847955669e-05 0.00177858150808)
(-7.17878076812e-05 8.9604748933e-05 0.00177266683019)
(-8.20477230792e-05 8.93283645699e-05 0.00176396801518)
(2.96839692481e-07 4.68798070736e-07 0.000138753327607)
(1.92543040469e-07 6.06809597413e-07 0.000145620442655)
(1.49078300497e-07 6.87422878778e-07 0.000151838820609)
(1.06738253764e-07 7.50411198551e-07 0.000157204926625)
(7.11793143974e-08 7.95868965489e-07 0.000161554777743)
(4.2566118833e-08 8.26079479757e-07 0.000164755860264)
(1.95826366036e-08 8.43175906313e-07 0.000166716685608)
(2.79065709489e-11 8.48726012156e-07 0.00016738150651)
(-1.95260381108e-08 8.43180433917e-07 0.00016671669334)
(-4.25072054543e-08 8.26088331849e-07 0.000164755875362)
(-7.11181626815e-08 7.95881163011e-07 0.000161554799323)
(-1.06678385326e-07 7.50425271665e-07 0.000157204956214)
(-1.4902580657e-07 6.87437730929e-07 0.000151838875081)
(-1.92497180024e-07 6.0682641307e-07 0.000145620616599)
(-2.96815594099e-07 4.68814960724e-07 0.000138754005472)
(2.61162050431e-06 3.18647355165e-06 0.000398739846179)
(2.27289335529e-06 3.88350026568e-06 0.000417418874028)
(2.00358697333e-06 4.46945048945e-06 0.000434292847738)
(1.68184910927e-06 4.98240383234e-06 0.000448820357877)
(1.30950717017e-06 5.39953398093e-06 0.000460573071134)
(8.96787415612e-07 5.70731712371e-06 0.000469210339128)
(4.5552070971e-07 5.8960231675e-06 0.000474495172399)
(9.28085019592e-11 5.95973283708e-06 0.000476282081369)
(-4.55333781124e-07 5.89603524828e-06 0.000474495188331)
(-8.96596872439e-07 5.70734030062e-06 0.000469210369789)
(-1.30931394412e-06 5.39956546747e-06 0.00046057311417)
(-1.68166100876e-06 4.9824401829e-06 0.000448820418554)
(-2.00341861792e-06 4.46948921463e-06 0.000434292977035)
(-2.27274791353e-06 3.8835459648e-06 0.00041741935048)
(-2.61153866133e-06 3.18652373867e-06 0.00039874158242)
(6.20184907844e-06 7.20968139164e-06 0.000641620693115)
(5.57534581461e-06 8.6313388023e-06 0.00067042568217)
(4.96587812386e-06 9.90792417041e-06 0.000696353408499)
(4.20766406323e-06 1.10421466912e-05 0.000718611158411)
(3.30189549448e-06 1.19774254225e-05 0.000736572912671)
(2.27453357311e-06 1.26744480807e-05 0.000749748950668)
(1.15979673431e-06 1.31047375163e-05 0.000757799196912)
(1.62162501432e-10 1.32504337579e-05 0.000760515690862)
(-1.15947137345e-06 1.31047554178e-05 0.000757799206271)
(-2.27420559982e-06 1.26744818903e-05 0.000749748967149)
(-3.30156704038e-06 1.19774705348e-05 0.000736572931879)
(-4.20734496769e-06 1.10421979053e-05 0.000718611187162)
(-4.96558811144e-06 9.90797854929e-06 0.000696353519527)
(-5.57509470316e-06 8.63140692455e-06 0.000670426278091)
(-6.20169906297e-06 7.20976499743e-06 0.000641623077823)
(1.04923896811e-05 1.19118938398e-05 0.000867401947694)
(9.52387823017e-06 1.40982080181e-05 0.000904531241687)
(8.49875346929e-06 1.60980543839e-05 0.000937773532444)
(7.2087535682e-06 1.78831668428e-05 0.000966192573638)
(5.66178537778e-06 1.93598914421e-05 0.000989045506076)
(3.90255841171e-06 2.04623862889e-05 0.00100576407435)
(1.99083924053e-06 2.11437394466e-05 0.00101595808805)
(2.31318516624e-10 2.13744852949e-05 0.0010193915083)
(-1.9903763323e-06 2.11437625706e-05 0.00101595806873)
(-3.9020953044e-06 2.04624299196e-05 0.00100576403178)
(-5.66132579329e-06 1.93599499951e-05 0.000989045432272)
(-7.20830852176e-06 1.78832342743e-05 0.000966192472217)
(-8.49834507431e-06 1.60981271302e-05 0.000937773480623)
(-9.52352205843e-06 1.40983018736e-05 0.000904531701002)
(-1.04921625143e-05 1.19120150378e-05 0.000867404447054)
(1.5028195401e-05 1.68005451781e-05 0.00107532026355)
(1.3677064909e-05 1.97071698129e-05 0.00111882872363)
(1.21970740786e-05 2.23667910374e-05 0.00115750642643)
(1.033273096e-05 2.47426837174e-05 0.00119039195271)
(8.10660546609e-06 2.67072787383e-05 0.00121671463212)
(5.58311054784e-06 2.81728142039e-05 0.00123590264678)
(2.84681401209e-06 2.90779355756e-05 0.00124757207403)
(2.97941618103e-10 2.93842736509e-05 0.0012514948789)
(-2.84621883898e-06 2.90779638974e-05 0.00124757200768)
(-5.58251815868e-06 2.81728679028e-05 0.00123590250706)
(-8.10602122834e-06 2.67073518442e-05 0.00121671440424)
(-1.03321666803e-05 2.47427698221e-05 0.00119039162944)
(-1.21965524443e-05 2.23668858883e-05 0.00115750607024)
(-1.36766049917e-05 1.97072924611e-05 0.00111882881178)
(-1.50278834813e-05 1.68007059891e-05 0.00107532244731)
(1.94980838846e-05 2.15514210078e-05 0.00126459283945)
(1.77390464443e-05 2.50814933331e-05 0.00131248173808)
(1.57907152969e-05 2.82819820406e-05 0.00135468179457)
(1.33469604152e-05 3.11370258999e-05 0.00139032213911)
(1.04513386568e-05 3.34921248942e-05 0.00141868967169)
(7.18750440756e-06 3.52451716882e-05 0.00143927785869)
(3.66170424867e-06 3.63261842561e-05 0.00145175982221)
(3.60953113733e-10 3.66916926551e-05 0.00145594727231)
(-3.6609840611e-06 3.63262180224e-05 0.00145175969708)
(-7.18679000682e-06 3.52452361385e-05 0.00143927759649)
(-1.0450636909e-05 3.34922140083e-05 0.00141868924647)
(-1.33462835667e-05 3.11371330486e-05 0.00139032152403)
(-1.57900855882e-05 2.82821023826e-05 0.00135468102033)
(-1.77384843626e-05 2.50816473735e-05 0.00131248127517)
(-1.94976820144e-05 2.1551621542e-05 0.00126459442904)
(2.36695307246e-05 2.59300403457e-05 0.00143477120234)
(2.14932188481e-05 2.99510508721e-05 0.00148510561268)
(1.90838244939e-05 3.35412376902e-05 0.00152900603936)
(1.60851387156e-05 3.67342130136e-05 0.00156579305596)
(1.2565359927e-05 3.93579484143e-05 0.00159488225246)
(8.62576987642e-06 4.1304876296e-05 0.00161588673522)
(4.38963750085e-06 4.25028549854e-05 0.00162857534521)
(4.201863142e-10 4.29074157375e-05 0.00163282291468)
(-4.38879977549e-06 4.25028947126e-05 0.00162857515702)
(-8.62494064094e-06 4.13049526643e-05 0.00161588634004)
(-1.25645473228e-05 3.93580554949e-05 0.00159488160889)
(-1.6084355211e-05 3.67343439664e-05 0.00156579210942)
(-1.90830912688e-05 3.35413868388e-05 0.00152900477655)
(-2.14925568718e-05 2.99512389646e-05 0.00148510449179)
(-2.36690358197e-05 2.59302800953e-05 0.00143477204518)
(2.73710262441e-05 2.9767929222e-05 0.00158586504304)
(2.47838150697e-05 3.41253604433e-05 0.00163687716186)
(2.19382330546e-05 3.79398214782e-05 0.00168085136671)
(1.84326345071e-05 4.13169408915e-05 0.00171737635872)
(1.43605275377e-05 4.40779813262e-05 0.00174604619463)
(9.83823069759e-06 4.61187846741e-05 0.00176662884651)
(5.00051973267e-06 4.73712171438e-05 0.00177901241009)
(4.76147224736e-10 4.77935727413e-05 0.00178314824288)
(-4.99957087968e-06 4.73712635016e-05 0.00177901216267)
(-9.8372926434e-06 4.61188743992e-05 0.00176662832462)
(-1.43596094858e-05 4.40781086076e-05 0.00174604533821)
(-1.84317491189e-05 4.13170986263e-05 0.00171737507969)
(-2.1937400127e-05 3.79400028772e-05 0.00168084960126)
(-2.47830559957e-05 3.41255852315e-05 0.00163687536257)
(-2.73704381738e-05 2.97682083846e-05 0.00158586510501)
(3.04855730741e-05 3.29540454761e-05 0.0017183400452)
(2.75081930706e-05 3.74831605886e-05 0.00176850325635)
(2.42657645073e-05 4.13562790652e-05 0.00181119065042)
(2.03190811459e-05 4.47644128989e-05 0.00184630546514)
(1.57847951305e-05 4.75335329822e-05 0.0018736451968)
(1.0790791377e-05 4.95708129536e-05 0.00189314775177)
(5.47752969088e-06 5.08172863627e-05 0.00190482892477)
(5.29571862502e-10 5.12369815878e-05 0.00190872042505)
(-5.47647462484e-06 5.08173399005e-05 0.00190482863121)
(-1.0789748984e-05 4.95709171972e-05 0.0018931471291)
(-1.57837755267e-05 4.75336823186e-05 0.00187364416522)
(-2.03180973143e-05 4.4764599866e-05 0.00184630390071)
(-2.42648351066e-05 4.13564956502e-05 0.00181118843787)
(-2.75073400552e-05 3.74834243298e-05 0.00176850085706)
(-3.04848939294e-05 3.29543644871e-05 0.00171833941273)
(3.29432771285e-05 3.54259275286e-05 0.00183304982451)
(2.9608633918e-05 3.99611980637e-05 0.00188112153857)
(2.60199621219e-05 4.37368576992e-05 0.00192146501453)
(2.17104849506e-05 4.70327400974e-05 0.00195430996522)
(1.68154519569e-05 4.96908437383e-05 0.00197965717084)
(1.14699712826e-05 5.16360370157e-05 0.00199761149804)
(5.81448403367e-06 5.2822159626e-05 0.00200831222269)
(5.81145195008e-10 5.32208738589e-05 0.00201186744966)
(-5.81332632474e-06 5.28222204676e-05 0.00200831190732)
(-1.1468827751e-05 5.16361560866e-05 0.0019976108247)
(-1.68143335902e-05 4.96910157352e-05 0.00197965604205)
(-2.1709405293e-05 4.70329572814e-05 0.00195430822289)
(-2.6018939209e-05 4.37371108713e-05 0.00192146249518)
(-2.96076907912e-05 3.99615019283e-05 0.00188111873088)
(-3.29425104145e-05 3.54262863996e-05 0.00183304871576)
(3.47133003175e-05 3.71609104588e-05 0.00193113655366)
(3.10639468199e-05 4.1542707217e-05 0.00197617594923)
(2.71879290951e-05 4.50796461931e-05 0.00201343391881)
(2.26017353687e-05 4.8135415741e-05 0.00204343922281)
(1.74528249334e-05 5.05785469307e-05 0.00206637360186)
(1.18783112528e-05 5.23558621065e-05 0.00208249306646)
(6.01340446328e-06 5.3435715118e-05 0.00209204766511)
(6.31171983343e-10 5.37980859971e-05 0.00209521272436)
(-6.01214710676e-06 5.3435782592e-05 0.0020920473664)
(-1.18770693107e-05 5.23559947988e-05 0.00208249242318)
(-1.74516102468e-05 5.05787400333e-05 0.0020663725051)
(-2.26005624005e-05 4.81356615871e-05 0.00204343748624)
(-2.71868159668e-05 4.50799346953e-05 0.00201343133577)
(-3.10629181342e-05 4.15430502154e-05 0.00197617305412)
(-3.47124505716e-05 3.71613076086e-05 0.00193113533829)
(3.57943847761e-05 3.81662267797e-05 0.00201391859199)
(3.18805590761e-05 4.2244421809e-05 0.00205529360952)
(2.77828006078e-05 4.54181490654e-05 0.00208903823093)
(2.3010329719e-05 4.81246798444e-05 0.00211590575719)
(1.77151538892e-05 5.02673847946e-05 0.00213622409583)
(1.20306406016e-05 5.18164196873e-05 0.00215038077052)
(6.08253234374e-06 5.27541032205e-05 0.00215872054706)
(6.79433283232e-10 5.30682258368e-05 0.00216147417834)
(-6.08117881243e-06 5.27541757268e-05 0.00215872032076)
(-1.20293036079e-05 5.18165628368e-05 0.00215038027577)
(-1.77138461821e-05 5.02675946882e-05 0.00213622322414)
(-2.30090669333e-05 4.81249493882e-05 0.00211590430521)
(-2.77816016329e-05 4.54184680659e-05 0.00208903595116)
(-3.18794505815e-05 4.22447994712e-05 0.00205529108906)
(-3.57934571189e-05 3.81666580648e-05 0.00201391780766)
(3.62034842929e-05 3.84629405111e-05 0.00208277165041)
(3.2085660222e-05 4.20996430509e-05 0.00212018769821)
(2.78402397407e-05 4.4805968039e-05 0.00215029965417)
(2.29736681297e-05 4.70759042598e-05 0.00217396503301)
(1.76359653278e-05 4.88544660165e-05 0.00219163915253)
(1.19519037301e-05 5.01323420517e-05 0.00220383022692)
(6.03509537063e-06 5.09030473537e-05 0.00221096235088)
(7.25216772974e-10 5.1160787827e-05 0.00221330874395)
(-6.03365072473e-06 5.09031222299e-05 0.00221096227157)
(-1.19504767974e-05 5.01324905324e-05 0.00220383004067)
(-1.76345697502e-05 4.88546853912e-05 0.00219163877149)
(-2.29723209057e-05 4.70761889509e-05 0.00217396425817)
(-2.78389610249e-05 4.48063087669e-05 0.00215029819393)
(-3.20844792057e-05 4.21000473389e-05 0.0021201861553)
(-3.62024861306e-05 3.84633974392e-05 0.00208277195327)
(3.59872384758e-05 3.80788507821e-05 0.00213900074279)
(3.17413920985e-05 4.11978629739e-05 0.00217263882741)
(2.7429343766e-05 4.33351121113e-05 0.0021992792856)
(2.25526182096e-05 4.50992249917e-05 0.00221983544835)
(1.72643753276e-05 4.64674649487e-05 0.00223495121861)
(1.16762799568e-05 4.74444814019e-05 0.0022452577003)
(5.8885640998e-06 4.80313584253e-05 0.00225124116518)
(7.67407557989e-10 4.82272272509e-05 0.00225320201873)
(-5.88703554336e-06 4.803143219e-05 0.00225124132118)
(-1.1674770517e-05 4.74446283367e-05 0.00224525801384)
(-1.72628994637e-05 4.64676837926e-05 0.00223495165461)
(-2.25511941608e-05 4.50995126126e-05 0.00221983585951)
(-2.74279930394e-05 4.3335462222e-05 0.00219927934925)
(-3.17401464549e-05 4.11982824484e-05 0.00217263902767)
(-3.59861755922e-05 3.80793243911e-05 0.00213900280092)
(3.51894563539e-05 3.75624266369e-05 0.00218383978793)
(3.09363693451e-05 3.97590564993e-05 0.00221479381087)
(2.6618617774e-05 4.1184146812e-05 0.00223809861454)
(2.18043238478e-05 4.23522063335e-05 0.00225564178283)
(1.66456091806e-05 4.3242951053e-05 0.00226832212099)
(1.12348046712e-05 4.38726217085e-05 0.00227686660747)
(5.65871979726e-06 4.42480614118e-05 0.00228178956393)
(8.04928572625e-10 4.43728795117e-05 0.0022833967829)
(-5.6571167919e-06 4.42481285405e-05 0.00228179002637)
(-1.1233222331e-05 4.38727561347e-05 0.00227686757571)
(-1.66440626245e-05 4.32431531821e-05 0.00226832364894)
(-2.18028317738e-05 4.23524762406e-05 0.00225564386016)
(-2.66172022203e-05 4.11844824891e-05 0.00223810095477)
(-3.09350696206e-05 3.97594704259e-05 0.00221479702962)
(-3.51883265039e-05 3.7562892739e-05 0.00218384353197)
(-6.72278204241e-08 -1.37643654153e-07 9.94210874301e-05)
(-1.55810858799e-08 -1.96270454573e-07 0.000104347308154)
(2.00667347941e-08 -2.30922938112e-07 0.000108796651063)
(4.39683075107e-08 -2.49356802714e-07 0.000112646646452)
(5.15948839425e-08 -2.55576827872e-07 0.000115774174467)
(4.42943352597e-08 -2.55160842429e-07 0.000118080053772)
(2.53697249708e-08 -2.52793275114e-07 0.000119494534293)
(1.94059835353e-11 -2.51625974728e-07 0.000119974811151)
(-2.53314063249e-08 -2.52792278982e-07 0.000119494556634)
(-4.42574208848e-08 -2.55158631748e-07 0.00011808009668)
(-5.15597506054e-08 -2.55572918087e-07 0.000115774235167)
(-4.39328897984e-08 -2.49350183835e-07 0.000112646725911)
(-2.00337976692e-08 -2.3091663209e-07 0.000108796767348)
(1.5606780426e-08 -1.96263190458e-07 0.000104347549589)
(6.72438902839e-08 -1.37637473793e-07 9.9421785373e-05)
(5.3274137182e-08 -8.94395364621e-08 0.000297287666031)
(1.74620963329e-07 -1.76416643299e-07 0.000311735789625)
(2.5068447115e-07 -2.08558131543e-07 0.000324807958678)
(2.85559882135e-07 -2.02540879265e-07 0.000336118038354)
(2.70692028081e-07 -1.72472321258e-07 0.00034530622887)
(2.10239170442e-07 -1.35892737036e-07 0.000352081946037)
(1.14746137326e-07 -1.07377548775e-07 0.000356237761734)
(5.47955297038e-11 -9.66894699313e-08 0.000357645035869)
(-1.14637396673e-07 -1.07376859621e-07 0.000356237818287)
(-2.10132921989e-07 -1.35890624709e-07 0.000352082054184)
(-2.70589026555e-07 -1.72467344646e-07 0.000345306381458)
(-2.85457904848e-07 -2.0253066306e-07 0.000336118239995)
(-2.50589270932e-07 -2.08547495046e-07 0.000324808265186)
(-1.74544026686e-07 -1.76401698345e-07 0.000311736462909)
(-5.32255996768e-08 -8.94250408144e-08 0.000297289497355)
(4.55743706242e-07 3.05060038306e-07 0.00049214489308)
(6.153733054e-07 2.77523007914e-07 0.000515707411245)
(6.97675070745e-07 3.24263847147e-07 0.000537017981801)
(7.04274043472e-07 4.20203142605e-07 0.000555443294753)
(6.24664145225e-07 5.3871357587e-07 0.000570403826987)
(4.66884709431e-07 6.4927718545e-07 0.000581432527939)
(2.4964747576e-07 7.26786729473e-07 0.000588193837446)
(8.75818523676e-11 7.54622405254e-07 0.000590479639605)
(-2.49473093314e-07 7.26784610663e-07 0.0005881939091)
(-4.66712663769e-07 6.49274232221e-07 0.000581432663934)
(-6.24495438844e-07 5.38712495611e-07 0.000570404017042)
(-7.0410779748e-07 4.20207556009e-07 0.000555443546832)
(-6.97519523106e-07 3.24270544368e-07 0.000537018379741)
(-6.15243546184e-07 2.77537796598e-07 0.000515708342291)
(-4.55659612633e-07 3.05080182559e-07 0.000492147496112)
(1.21449853e-06 1.11848620668e-06 0.000683062777168)
(1.38394091133e-06 1.24421422387e-06 0.000715169357885)
(1.43528971904e-06 1.45734031458e-06 0.000744151373219)
(1.36718049801e-06 1.71932280356e-06 0.000769171457505)
(1.16868892547e-06 1.98810114391e-06 0.000789461049288)
(8.53528054298e-07 2.21812946035e-06 0.000804404036854)
(4.50529865702e-07 2.37242182993e-06 0.000813557483978)
(1.19128731263e-10 2.42674790393e-06 0.000816647842123)
(-4.50292276905e-07 2.37241745621e-06 0.000813557542809)
(-8.53292519316e-07 2.21812241532e-06 0.000804404145697)
(-1.16845688491e-06 1.98809501388e-06 0.000789461195852)
(-1.36695307799e-06 1.71932231948e-06 0.000769171651325)
(-1.43507739306e-06 1.457344996e-06 0.000744151712662)
(-1.38376028461e-06 1.24423182005e-06 0.000715170303351)
(-1.2143774583e-06 1.11851597543e-06 0.000683065684892)
(2.28441597573e-06 2.28817222704e-06 0.000868784494046)
(2.43692543086e-06 2.63505763347e-06 0.000908646150868)
(2.42298049879e-06 3.0773251725e-06 0.00094450260222)
(2.23853678319e-06 3.55846363837e-06 0.000975378267854)
(1.87374471233e-06 4.01937300156e-06 0.00100036282674)
(1.34967293719e-06 4.39884907983e-06 0.00101873296375)
(7.06785304122e-07 4.64787958095e-06 0.0010299712499)
(1.50673833513e-10 4.73466417892e-06 0.00103376058801)
(-7.06484610452e-07 4.64787391227e-06 0.00102997127046)
(-1.34937432636e-06 4.39883973488e-06 0.00101873299477)
(-1.87345021888e-06 4.01936410221e-06 0.0010003628535)
(-2.23824950244e-06 3.5584609102e-06 0.000975378297134)
(-2.42271277776e-06 3.07733082665e-06 0.000944502731691)
(-2.43669498416e-06 2.63508176451e-06 0.000908646879668)
(-2.28425594443e-06 2.2882140907e-06 0.000868787321535)
(3.6030888483e-06 3.73437044144e-06 0.00104784119388)
(3.71360112042e-06 4.34231065685e-06 0.00109443397278)