/*--------------------------------*- C++ -*----------------------------------*\
  =========                 |
  \\      /  F ield         | OpenFOAM: The Open Source CFD Toolbox
   \\    /   O peration     | Website:  https://openfoam.org
    \\  /    A nd           | Version:  7
     \\/     M anipulation  |
\*---------------------------------------------------------------------------*/
FoamFile
{
    version     2.0;
    format      ascii;
    class       volVectorField;
    location    "0.84";
    object      U;
}
// * * * * * * * * * * * * * * * * * * * * * * * * * * * * * * * * * * * * * //

dimensions      [0 1 -1 0 0 0 0];

internalField   nonuniform List<vector> 
22500
(
(1.23599497231e-05 1.37521371145e-05 0.000191730770784)
(1.15980649751e-05 1.54470135586e-05 0.000201476289721)
(1.0232881592e-05 1.7199655962e-05 0.000210438031263)
(8.65533944351e-06 1.87173182435e-05 0.000218201855464)
(6.76013325854e-06 1.99899288164e-05 0.000224499575011)
(4.64229350437e-06 2.0944580555e-05 0.000229133575486)
(2.36078879862e-06 2.153658298e-05 0.000231970372611)
(-5.83417240884e-09 2.17372207749e-05 0.000232930360193)
(-2.3722488109e-06 2.15360270121e-05 0.000231970285798)
(-4.65317163176e-06 2.09435567927e-05 0.00022913339553)
(-6.76998094702e-06 1.99886751532e-05 0.000224499309009)
(-8.6637110217e-06 1.87160683234e-05 0.000218201510544)
(-1.02391555126e-05 1.71989222799e-05 0.000210437406271)
(-1.16022404727e-05 1.54466961192e-05 0.000201473755836)
(-1.23616350802e-05 1.37522358169e-05 0.000191718065262)
(3.58487372684e-05 3.99645005094e-05 0.00050166642543)
(3.35339023251e-05 4.48071453796e-05 0.000523558158406)
(2.96505040845e-05 4.97471328917e-05 0.000543528829701)
(2.503991829e-05 5.40538082698e-05 0.00056069739619)
(1.95565648681e-05 5.76609771736e-05 0.000574523808522)
(1.34253240277e-05 6.03667366985e-05 0.000584639376148)
(6.82688147528e-06 6.20452662753e-05 0.00059080675488)
(-1.44392744346e-08 6.26141139647e-05 0.000592886692102)
(-6.8553000577e-06 6.20442747463e-05 0.000590806213212)
(-1.34524161304e-05 6.03649464672e-05 0.000584638330428)
(-1.95813646378e-05 5.76588736536e-05 0.000574522362217)
(-2.50613762797e-05 5.40518584531e-05 0.000560695677049)
(-2.96673233055e-05 4.9746265698e-05 0.000543526365562)
(-3.35458855991e-05 4.48069723993e-05 0.000523550363408)
(-3.5854472956e-05 3.99650189287e-05 0.000501634708455)
(5.37599074135e-05 5.98549631389e-05 0.000751078996828)
(5.00182366193e-05 6.67426750123e-05 0.000780054923038)
(4.41260732151e-05 7.37093190926e-05 0.000806301799511)
(3.71504443079e-05 7.97667775497e-05 0.00082872449565)
(2.89547070267e-05 8.4820635527e-05 0.000846675997534)
(1.98447511126e-05 8.86020885173e-05 0.000859747391609)
(1.00810644672e-05 9.09442653105e-05 0.000867689733854)
(-2.15374603799e-08 9.17375449222e-05 0.000870361207863)
(-1.01235141679e-05 9.09435192811e-05 0.000867688968637)
(-1.98853660185e-05 8.86008353266e-05 0.000859745958848)
(-2.899217562e-05 8.48194360802e-05 0.000846674124889)
(-3.71833297202e-05 7.97661936549e-05 0.000828722464)
(-4.41526227987e-05 7.37102072901e-05 0.000806299115739)
(-5.0038003598e-05 6.67442941244e-05 0.000780045383749)
(-5.37704427499e-05 5.98570114047e-05 0.000751037000841)
(6.73653295141e-05 7.48812038284e-05 0.000952420819707)
(6.235517334e-05 8.29959386221e-05 0.000984970965262)
(5.48545831422e-05 9.11637601066e-05 0.00101424212143)
(4.6038850168e-05 9.82279655512e-05 0.00103909536386)
(3.58013635346e-05 0.000104098419089 0.0010588790486)
(2.44951814187e-05 0.000108477658855 0.00107321750357)
(1.24303395782e-05 0.000111184973437 0.0010819003779)
(-2.67213513215e-08 0.000112101088507 0.00108481404747)
(-1.24830481503e-05 0.000111184492257 0.00108189973026)
(-2.45457124891e-05 0.000108476948494 0.00107321639244)
(-3.58481863978e-05 0.000104098031743 0.00105887786717)
(-4.60803453287e-05 9.8228481324e-05 0.00103909462765)
(-5.48888117893e-05 9.11658931885e-05 0.00101424163599)
(-6.23815653773e-05 8.29987054257e-05 0.000984964286651)
(-6.738073663e-05 7.48842028447e-05 0.000952379509833)
(7.7564186487e-05 8.60966357722e-05 0.00111495749921)
(7.14514359164e-05 9.4829183035e-05 0.00114862032815)
(6.26674024846e-05 0.000103595753676 0.00117866613398)
(5.24354720006e-05 0.000111132272802 0.00120401894829)
(4.06840910893e-05 0.00011736942872 0.0012240839941)
(2.77888851186e-05 0.000122007893276 0.00123855721483)
(1.40871349158e-05 0.00012486975693 0.00124729148354)
(-3.05207830715e-08 0.000125837195489 0.00125021591443)
(-1.41473662819e-05 0.000124869448464 0.0012472912854)
(-2.7846704791e-05 0.00012200752231 0.00123855711545)
(-4.07378341254e-05 0.00011736950479 0.00122408460145)
(-5.24834442879e-05 0.000111133344201 0.00120402112664)
(-6.2707683148e-05 0.000103598449841 0.00117867029653)
(-7.14834010093e-05 9.48323363859e-05 0.00114862058935)
(-7.75843184399e-05 8.6099933185e-05 0.00111492492053)
(8.4856052298e-05 9.40639814452e-05 0.00124583956959)
(7.78062314897e-05 0.000102922424022 0.00127890088129)
(6.80239090962e-05 0.000111807659806 0.00130818647349)
(5.67435290626e-05 0.000119398348763 0.00133274295894)
(4.39271594735e-05 0.000125652812826 0.00135206409935)
(2.99533954056e-05 0.000130289633177 0.00136593253097)
(1.51686665605e-05 0.000133144578043 0.00137427205674)
(-3.3294596887e-08 0.000134108666676 0.0013770583719)
(-1.52343985332e-05 0.000133144321018 0.00137427255991)
(-3.00165697995e-05 0.00013028934907 0.00136593397156)
(-4.39860450776e-05 0.00012565295764 0.0013520673571)
(-5.67964261104e-05 0.000119399422835 0.00133274937444)
(-6.80690455838e-05 0.000111810215891 0.00130819731334)
(-7.78430049688e-05 0.000102925221352 0.00127891109774)
(-8.48806418286e-05 9.40668520653e-05 0.00124582012813)
(8.9645286045e-05 9.92279597302e-05 0.00135073510597)
(8.18212830138e-05 0.000107819661765 0.00138203316804)
(7.1296439604e-05 0.000116442577751 0.00140955149489)
(5.92894045004e-05 0.000123762082902 0.00143248418525)
(4.57929050546e-05 0.00012976503146 0.0014504223242)
(3.11726667345e-05 0.000134201437126 0.00146323401198)
(1.57696416093e-05 0.000136927233225 0.00147091007775)
(-3.53351039252e-08 0.000137846700883 0.00147346943086)
(-1.58394274517e-05 0.000136926866327 0.00147091143872)
(-3.12398178789e-05 0.000134200917988 0.001463237327)
(-4.58556734014e-05 0.000129764758317 0.00145042880283)
(-5.93461332396e-05 0.000123762517379 0.0014324957602)
(-7.13455457343e-05 0.000116444212959 0.00140957043741)
(-8.18622541231e-05 0.000107821302642 0.00138205515854)
(-8.96740480682e-05 9.9229631602e-05 0.00135073073971)
(9.23103681955e-05 0.000102009163367 0.00143422592562)
(8.38692129054e-05 0.000110034292899 0.00146301598802)
(7.28298713917e-05 0.000118103118177 0.00148815689912)
(6.03742294433e-05 0.000124907774916 0.00150898917304)
(4.65225748312e-05 0.000130461077163 0.0015251927474)
(3.16154066822e-05 0.000134552525408 0.0015367087146)
(1.59767630952e-05 0.000137061118314 0.00154358341621)
(-3.68866330966e-08 0.00013790635803 0.00154587104173)
(-1.60496416195e-05 0.000137060468061 0.00154358568645)
(-3.16856294467e-05 0.000134551419861 0.00153671402266)
(-4.65884133039e-05 0.000130459869743 0.00152520267932)
(-6.04340936814e-05 0.000124906897809 0.00150900633631)
(-7.28823835682e-05 0.000118103044799 0.00148818461494)
(-8.39139298039e-05 0.000110033929778 0.00146305029963)
(-9.23430173506e-05 0.000102008849281 0.00143423666933)
(9.31933192779e-05 0.000102791209615 0.00150007019949)
(8.42826407304e-05 0.000110030379511 0.00152592534241)
(7.29302256009e-05 0.000117328919146 0.00154837813083)
(6.02639975588e-05 0.000123442530333 0.00156689493679)
(4.63284267158e-05 0.000128406286456 0.00158122413884)
(3.14295474994e-05 0.00013205265159 0.00159136063119)
(1.58658807151e-05 0.000134283895946 0.00159739068209)
(-3.8165819303e-08 0.000135034809068 0.00159939352918)
(-1.59413232573e-05 0.00013428279091 0.00159739379207)
(-3.15023580872e-05 0.000132050615259 0.00159136779646)
(-4.63969233032e-05 0.000128403639986 0.00158123734169)
(-6.03266642419e-05 0.000123439695809 0.00156691749194)
(-7.29858672743e-05 0.000117326383912 0.00154841435723)
(-8.43308316259e-05 0.000110027227015 0.00152597112734)
(-9.32296005562e-05 0.00010278814292 0.00150009437671)
(9.25969813616e-05 0.0001019162289 0.00155138592174)
(8.33518099425e-05 0.000108216232631 0.00157412274503)
(7.18624132449e-05 0.000114589259478 0.00159380060217)
(5.91880887924e-05 0.000119889116829 0.00160997672118)
(4.53928025579e-05 0.000124169778174 0.00162244124692)
(3.07416782322e-05 0.000127306111223 0.00163122177054)
(1.55017238377e-05 0.00012922183651 0.00163642832446)
(-3.93618425972e-08 0.000129865789241 0.00163815474888)
(-1.55795787989e-05 0.000129220135216 0.00163643204842)
(-3.08169658405e-05 0.000127302862172 0.00163123032163)
(-4.5463900043e-05 0.000124165274353 0.00162245697858)
(-5.92535525017e-05 0.000119883788217 0.00161000362469)
(-7.19211832265e-05 0.000114583636725 0.00159384386884)
(-8.34034116238e-05 0.000108209622434 0.00157417751271)
(-9.26367500776e-05 0.000101909732435 0.00155142001754)
(9.07890492698e-05 9.96905343718e-05 0.00159078908345)
(8.13287770692e-05 0.000104948675681 0.00161041357629)
(6.98548692176e-05 0.000110287570125 0.00162739382079)
(5.73438145446e-05 0.000114692702376 0.00164133306124)
(4.38718330159e-05 0.000118233533458 0.00165203756408)
(2.96595738766e-05 0.000120822559411 0.00165955041052)
(1.4939170816e-05 0.000122401636869 0.00166399230032)
(-4.06338301722e-08 0.000122931738925 0.00166546293072)
(-1.50196035443e-05 0.000122399251746 0.00166399619775)
(-2.9737540092e-05 0.000120817917872 0.00165955940786)
(-4.39457766355e-05 0.00011822690131 0.0016520542899)
(-5.74123433594e-05 0.000114684517498 0.00164136207718)
(-6.99169965095e-05 0.000110278429866 0.00162744103484)
(-8.13839027771e-05 0.000104938127832 0.00161047279286)
(-9.08323154028e-05 9.96801167189e-05 0.00159082728849)
(8.80039503016e-05 9.63893813613e-05 0.00162051167529)
(7.84317022663e-05 0.00010053417774 0.00163718536321)
(6.7106045791e-05 0.000104763903054 0.00165166077131)
(5.49022559902e-05 0.000108227162329 0.00166353982158)
(4.18995196048e-05 0.000111001471356 0.00167263200779)
(2.82746566406e-05 0.000113027623881 0.00167898996543)
(1.42244121821e-05 0.000114261775754 0.00168273854312)
(-4.21017791894e-08 0.000114675413998 0.00168397773939)
(-1.4307828611e-05 0.000114258693437 0.00168274188486)
(-2.83557392568e-05 0.000113021565503 0.00167899783031)
(-4.19767783184e-05 0.000110992655246 0.00167264709036)
(-5.4974323097e-05 0.000108216019315 0.00166356703986)
(-6.71719291819e-05 0.000104751086672 0.00165170663978)
(-7.84905968209e-05 0.000100519474821 0.00163724198924)
(-8.8050879983e-05 9.63747346656e-05 0.00162054529166)
(8.44398219332e-05 9.22432185676e-05 0.00164252232571)
(7.48553798908e-05 9.5218711683e-05 0.00165655211655)
(6.37964432428e-05 9.82969312062e-05 0.00166878413569)
(5.20154910048e-05 0.000100803582487 0.00167879140342)
(3.95911725329e-05 0.000102810428949 0.00168640736941)
(2.66635947886e-05 0.000104274424803 0.0016917071915)
(1.33956452854e-05 0.000105164262245 0.0016948217731)
(-4.3838715952e-08 0.000105461652997 0.00169584941296)
(-1.34825860136e-05 0.000105160571121 0.00169482348755)
(-2.67483580009e-05 0.000104267114252 0.00169171156994)
(-3.9672336109e-05 0.000102799652366 0.00168641677775)
(-5.20916730645e-05 0.000100789714412 0.00167881068163)
(-6.38665662492e-05 9.82806398953e-05 0.00166882039225)
(-7.49183576496e-05 9.51999824636e-05 0.00165659624061)
(-8.44906162671e-05 9.22244254492e-05 0.00164254024124)
(8.0292180097e-05 8.74194084151e-05 0.00165867354759)
(7.08162397325e-05 8.92130872601e-05 0.00167053018415)
(6.01063788598e-05 9.11182114825e-05 0.00168077579917)
(4.88172380873e-05 9.26906025844e-05 0.00168903006647)
(3.70409115782e-05 9.39475869456e-05 0.00169523415215)
(2.4886560287e-05 9.48594415409e-05 0.0016995167351)
(1.24824025705e-05 9.54102167915e-05 0.00170202179548)
(-4.58482903635e-08 9.55931228427e-05 0.00170284584791)
(-1.25734210625e-05 9.54061079095e-05 0.00170202052234)
(-2.49755651142e-05 9.48512542418e-05 0.00169951459311)
(-3.71265473905e-05 9.39353989161e-05 0.00169523250759)
(-4.88980809598e-05 9.26746648942e-05 0.00168903270188)
(-6.01811841377e-05 9.109907861e-05 0.00168079009167)
(-7.08835835721e-05 8.91909020905e-05 0.00167054821115)
(-8.03471931691e-05 8.73968801798e-05 0.00165866364571)
(7.58325788629e-05 8.22952504814e-05 0.00167096274863)
(6.65858704949e-05 8.23892328807e-05 0.00168130325035)
(5.61552823427e-05 8.32594539577e-05 0.00168959831748)
(4.53876350744e-05 8.39595431829e-05 0.00169604022838)
(3.43031343297e-05 8.45081501537e-05 0.00170076988192)
(2.29799228521e-05 8.48957372633e-05 0.00170399033312)
(1.15034317092e-05 8.51251391328e-05 0.00170585975778)
(-4.80710793551e-08 8.51998456725e-05 0.00170647146192)
(-1.15989450302e-05 8.51209428933e-05 0.00170585438886)
(-2.30735685761e-05 8.48873390439e-05 0.00170397914154)
(-3.43936317666e-05 8.44955533398e-05 0.00170075244619)
(-4.54735453802e-05 8.3942830485e-05 0.00169601752194)
(-5.62351329136e-05 8.32389887823e-05 0.00168957666868)
(-6.66575017997e-05 8.23648592652e-05 0.00168127086309)
(-7.58925028838e-05 8.22702496773e-05 0.00167092663413)
(3.00391332454e-07 4.29136997799e-07 0.000140528407624)
(2.39245046011e-07 5.37513551808e-07 0.000147768506046)
(2.26019078762e-07 6.08144418846e-07 0.000154492659068)
(1.9779512059e-07 6.75002814781e-07 0.000160377446283)
(1.58742036527e-07 7.32365486772e-07 0.000165185340432)
(1.10857785448e-07 7.76061254402e-07 0.000168739278787)
(5.68394451022e-08 8.03291094156e-07 0.000170921323449)
(-6.68838836651e-11 8.12508319166e-07 0.000171661550214)
(-5.71609819324e-08 8.03091766592e-07 0.000170921547039)
(-1.11754746564e-07 7.75603396594e-07 0.000168739634398)
(-1.6053171522e-07 7.31586476115e-07 0.000165185646452)
(-2.00368660979e-07 6.73919422392e-07 0.000160377382209)
(-2.28968590396e-07 6.06648250027e-07 0.000154491556778)
(-2.42225945511e-07 5.35808604386e-07 0.000147764069509)
(-3.02470415069e-07 4.27297965571e-07 0.000140512976781)
(2.39764656994e-06 2.83678202644e-06 0.000399928680855)
(2.18798453792e-06 3.41470233847e-06 0.000419309844666)
(2.02645106162e-06 3.93350761766e-06 0.000437316171834)
(1.77513314569e-06 4.42139726337e-06 0.000453070019206)
(1.42949148626e-06 4.84154540901e-06 0.000465932004867)
(1.00235028306e-06 5.16437822801e-06 0.000475433926924)
(5.15527943671e-07 5.36739368672e-06 0.000481264074745)
(-2.27278828068e-09 5.43655614939e-06 0.000483237294505)
(-5.20457414507e-07 5.36669695154e-06 0.000481264599562)
(-1.00842743783e-06 5.16291012281e-06 0.000475434723486)
(-1.43727707396e-06 4.83924853441e-06 0.000465932560606)
(-1.78437528293e-06 4.41834810415e-06 0.000453069437102)
(-2.03606361947e-06 3.9295619076e-06 0.000437312529216)
(-2.19700989144e-06 3.41020290752e-06 0.000419296506153)
(-2.40380873692e-06 2.83191604335e-06 0.000399887368182)
(5.58897151518e-06 6.36720144923e-06 0.000638303594126)
(5.17765996811e-06 7.56229662003e-06 0.000667786600805)
(4.76538749099e-06 8.69310077555e-06 0.000695145087755)
(4.15596536581e-06 9.75120018366e-06 0.00071905437609)
(3.33692132436e-06 1.06599082844e-05 0.000738550262675)
(2.33557343985e-06 1.13568850159e-05 0.000752937685829)
(1.20023092059e-06 1.17948707649e-05 0.000761756928314)
(-5.31897559613e-09 1.19440396709e-05 0.000764736923231)
(-1.21131959488e-06 1.17935486939e-05 0.000761757832494)
(-2.34799283965e-06 1.13542117213e-05 0.000752939131622)
(-3.3512856217e-06 1.06559312046e-05 0.000738551502172)
(-4.17198839951e-06 9.74612347742e-06 0.000719054079459)
(-4.78165162433e-06 8.6869023217e-06 0.000695140381535)
(-5.19268129859e-06 7.55513492303e-06 0.000667767739932)
(-5.59950826869e-06 6.35935472431e-06 0.000638244201104)
(9.33620846203e-06 1.04338636185e-05 0.000856576132877)
(8.66806346629e-06 1.22774785671e-05 0.000894133809609)
(7.93642049204e-06 1.40421717943e-05 0.000928891734596)
(6.88938373109e-06 1.56876040212e-05 0.000959204591029)
(5.5124723024e-06 1.7095640701e-05 0.000983871879467)
(3.84902085372e-06 1.81724876871e-05 0.00100204451188)
(1.9751277967e-06 1.88479807467e-05 0.00101316856037)
(-9.285634099e-09 1.90778167369e-05 0.00101692180949)
(-1.9941098959e-06 1.88460885402e-05 0.00101316996809)
(-3.86919329256e-06 1.816872517e-05 0.00100204694248)
(-5.53432115395e-06 1.7090148053e-05 0.000983874510589)
(-6.91253842776e-06 1.56806652697e-05 0.000959205910453)
(-7.95932737895e-06 1.40339306865e-05 0.000928888380349)
(-8.68890005595e-06 1.22678842558e-05 0.000894114251991)
(-9.35118197246e-06 1.04232559025e-05 0.000856508978024)
(1.3243574743e-05 1.46105947832e-05 0.00105480128991)
(1.22746338501e-05 1.70623774904e-05 0.00109837044276)
(1.11849458659e-05 1.94002041033e-05 0.0011385325207)
(9.66503531019e-06 2.1572531138e-05 0.00117345596256)
(7.70592889024e-06 2.3424106159e-05 0.00120179771719)
(5.36697274901e-06 2.48355967319e-05 0.00122262973624)
(2.74973049993e-06 2.5719119864e-05 0.00123535921102)
(-1.36917930864e-08 2.60193671657e-05 0.00123964800205)
(-2.77742097098e-06 2.57167007212e-05 0.00123536127124)
(-5.39552587447e-06 2.48308241751e-05 0.00122263354223)
(-7.7356088598e-06 2.34171846917e-05 0.00120180254983)
(-9.69534906976e-06 2.15638077571e-05 0.00117346041175)
(-1.12143087607e-05 1.93899706578e-05 0.00113853323835)
(-1.23011310904e-05 1.70505123443e-05 0.00109835501834)
(-1.32630669137e-05 1.45973917941e-05 0.0010547350756)
(1.70466105252e-05 1.86244754759e-05 0.00123292525466)
(1.57462923285e-05 2.1601028885e-05 0.00128047451587)
(1.4280794972e-05 2.44052561425e-05 0.00132408915154)
(1.22835038982e-05 2.70010552511e-05 0.00136187964155)
(9.7577568616e-06 2.92036813197e-05 0.00139244863027)
(6.77799183369e-06 3.08767395001e-05 0.00141485692298)
(3.46684170371e-06 3.19214327437e-05 0.00142852164032)
(-1.82215096884e-08 3.22759407135e-05 0.00143311900641)
(-3.50345448092e-06 3.1918521587e-05 0.00142852445054)
(-6.81505016177e-06 3.08710208396e-05 0.00141486238381)
(-9.79526680508e-06 2.91954082994e-05 0.00139245629427)
(-1.23208475893e-05 2.69906338658e-05 0.00136188848146)
(-1.43163986193e-05 2.43930984954e-05 0.00132409628584)
(-1.57783268323e-05 2.15870025743e-05 0.00128046714124)
(-1.70707421828e-05 1.8608869704e-05 0.00123286597416)
(2.05522947355e-05 2.22831871904e-05 0.00139110844221)
(1.89042696147e-05 2.56726090181e-05 0.00144073052029)
(1.70620675858e-05 2.88108662944e-05 0.00148599110307)
(1.46068293699e-05 3.17029595037e-05 0.00152505294202)
(1.15590741942e-05 3.41443582079e-05 0.00155653772928)
(8.00680200276e-06 3.59912542715e-05 0.00157954865346)
(4.08806545532e-06 3.71413001465e-05 0.00159354972325)
(-2.26728367659e-08 3.75309219256e-05 0.00159825360556)
(-4.1334357515e-06 3.71379368518e-05 0.00159355325798)
(-8.05218526952e-06 3.59846582598e-05 0.00157955578606)
(-1.16042228879e-05 3.41348201797e-05 0.00155654842814)
(-1.46510055088e-05 3.16909310498e-05 0.0015250668108)
(-1.71037439562e-05 2.87968768149e-05 0.00148600608295)
(-1.89417356475e-05 2.56565060644e-05 0.00144073357899)
(-2.05812054546e-05 2.22653817329e-05 0.00139105954642)
(2.36228978009e-05 2.54536046777e-05 0.00152983906456)
(2.16250053602e-05 2.91270346617e-05 0.00157983081294)
(1.94196853014e-05 3.24569341943e-05 0.00162515741659)
(1.65447167789e-05 3.55090457418e-05 0.00166411723089)
(1.30404339815e-05 3.80701626829e-05 0.00169540365647)
(9.00635275075e-06 3.99986949842e-05 0.0017181984586)
(4.58970155785e-06 4.11958283617e-05 0.00173203595618)
(-2.69345439223e-08 4.16006559184e-05 0.00173667836362)
(-4.64345949051e-06 4.11920569664e-05 0.00173203998754)
(-9.05972150139e-06 3.99912982889e-05 0.00171820685217)
(-1.3092938834e-05 3.80594565261e-05 0.00169541690393)
(-1.65955075249e-05 3.5495516257e-05 0.00166413576216)
(-1.94673038837e-05 3.2441207154e-05 0.00162518024605)
(-2.16678502058e-05 2.91089647984e-05 0.00157984461239)
(-2.36566704651e-05 2.54337261615e-05 0.00152980130993)
(2.61691238234e-05 2.80530615689e-05 0.00164994101233)
(2.38321887447e-05 3.18746519776e-05 0.00169885979424)
(2.1289299372e-05 3.5255537046e-05 0.00174295125316)
(1.80467791001e-05 3.83333685841e-05 0.00178070014754)
(1.41651978121e-05 4.08981037135e-05 0.00181090186386)
(9.75298052017e-06 4.2819213331e-05 0.00183283661102)
(4.96020652716e-06 4.40075769976e-05 0.00184612056881)
(-3.09535444774e-08 4.4408611258e-05 0.00185057098699)
(-5.02188705098e-06 4.40034542731e-05 0.00184612458141)
(-9.81393143755e-06 4.28111178924e-05 0.0018328452502)
(-1.42247546626e-05 4.08863554198e-05 0.00181091620327)
(-1.81039917718e-05 3.83184727158e-05 0.00178072157562)
(-2.13427666937e-05 3.52381806479e-05 0.00174298001579)
(-2.38804008497e-05 3.18547256314e-05 0.00169888205688)
(-2.62078228349e-05 2.80312149509e-05 0.00164991213384)
(2.81426085308e-05 3.00406037843e-05 0.00175253289624)
(2.54884568006e-05 3.38751613292e-05 0.00179923015104)
(2.26429069491e-05 3.71757120609e-05 0.00184108825584)
(1.90946485214e-05 4.01542829384e-05 0.00187679343577)
(1.49228494288e-05 4.26159880505e-05 0.00190525356652)
(1.02415500598e-05 4.44489076112e-05 0.00192585579615)
(5.19764137127e-06 4.55783369168e-05 0.00193830224268)
(-3.47118571555e-08 4.59586126311e-05 0.00194246592651)
(-5.26674821592e-06 4.55739398988e-05 0.00193830534527)
(-1.03096622377e-05 4.44402547997e-05 0.00192586287434)
(-1.49891534704e-05 4.26033795098e-05 0.00190526627028)
(-1.91581081838e-05 4.01382156469e-05 0.00187681417528)
(-2.27021581524e-05 3.71568961125e-05 0.00184111860826)
(-2.55420297246e-05 3.38535222429e-05 0.00179925549645)
(-2.8186297807e-05 3.00169108383e-05 0.00175250712546)
(2.95281543443e-05 3.14086222887e-05 0.00183897287986)
(2.65872556253e-05 3.51265923528e-05 0.00188261297746)
(2.34810484094e-05 3.82283640259e-05 0.00192154560845)
(1.96949469727e-05 4.09959937408e-05 0.00195463627892)
(1.53232041821e-05 4.32613639486e-05 0.0019809044399)
(1.04813031127e-05 4.49368456097e-05 0.00199985046946)
(5.30750427282e-06 4.59649520333e-05 0.00201126540458)
(-3.8199450313e-08 4.63102493559e-05 0.0020150776087)
(-5.3835221878e-06 4.59603904858e-05 0.00201126624903)
(-1.05561398318e-05 4.49278393072e-05 0.00199985321122)
(-1.53959411277e-05 4.32481665372e-05 0.00198091120878)
(-1.97644754068e-05 4.09790527503e-05 0.00195465049146)
(-2.35460159067e-05 3.82083643245e-05 0.0019215702739)
(-2.66461771782e-05 3.51034657017e-05 0.0018826324388)
(-2.95768743441e-05 3.13832625729e-05 0.00183894033938)
(3.03348557989e-05 3.21737736302e-05 0.00191081175652)
(2.71446427109e-05 3.56530924789e-05 0.00195089054986)
(2.38261085368e-05 3.84507119031e-05 0.00198650074006)
(1.98739587278e-05 4.09110942002e-05 0.00201663050501)
(1.53922056664e-05 4.29028510955e-05 0.00204041787148)
(1.04928500171e-05 4.43654913537e-05 0.00205749432708)
(5.30114934871e-06 4.52591144623e-05 0.00206774857853)
(-4.13957654818e-08 4.55584474199e-05 0.00207116585029)
(-5.38351936206e-06 4.52545329654e-05 0.0020677453168)
(-1.05739213728e-05 4.43564105318e-05 0.00205748887708)
(-1.54709952936e-05 4.2889446137e-05 0.00204041260409)
(-1.994930751e-05 4.08937224548e-05 0.00201662970405)
(-2.38966599693e-05 3.84299680776e-05 0.00198650904516)
(-2.72088448089e-05 3.56288789477e-05 0.00195089133227)
(-3.03886283444e-05 3.21470767766e-05 0.00191075807835)
(3.05857842169e-05 3.23628211492e-05 0.00196977060194)
(2.71932531287e-05 3.54887364594e-05 0.00200615928994)
(2.37197627026e-05 3.78912376049e-05 0.00203831815488)
(1.96761054745e-05 3.99657185057e-05 0.00206529648458)
(1.51704404261e-05 4.16257238939e-05 0.00208640831465)
(1.03068564364e-05 4.28362879743e-05 0.00210146125758)
(5.19501360456e-06 4.35727674476e-05 0.00211045959013)
(-4.42588553759e-08 4.38187751909e-05 0.00211344945509)
(-5.28308247166e-06 4.35683419193e-05 0.00211044993484)
(-1.0393559279e-05 4.28274724038e-05 0.00210144277171)
(-1.52547638345e-05 4.16126020937e-05 0.00208638313406)
(-1.97568631816e-05 3.99485041912e-05 0.0020652693274)
(-2.37955931434e-05 3.78703724528e-05 0.00203829562249)
(-2.72625075514e-05 3.54640188707e-05 0.00200612501532)
(-3.06444726184e-05 3.23353419806e-05 0.00196967848077)
(3.03270029056e-05 3.20023629818e-05 0.0020177564099)
(2.67953545757e-05 3.4706759182e-05 0.00205082761449)
(2.3234376138e-05 3.66226310057e-05 0.00207958636936)
(1.91690045703e-05 3.82483632162e-05 0.0021032541244)
(1.47147746205e-05 3.95354131103e-05 0.00212150068301)
(9.9640665742e-06 4.0468032736e-05 0.00213437991759)
(5.01030973412e-06 4.10330203149e-05 0.00214203042199)
(-4.6723232984e-08 4.12211369739e-05 0.00214456165143)
(-5.10328778291e-06 4.1028933738e-05 0.00214201193086)
(-1.00556239816e-05 4.04598511728e-05 0.00213434312845)
(-1.48038930441e-05 3.95231220057e-05 0.00212144666508)
(-1.92545017706e-05 3.82320067051e-05 0.00210318683573)
(-2.33149106949e-05 3.66024071458e-05 0.00207951418249)
(-2.68691980572e-05 3.46822863094e-05 0.00205073821028)
(-3.03904135313e-05 3.19746605506e-05 0.00201760882513)
(2.96059284764e-05 3.15628202713e-05 0.00205709307639)
(2.60424277875e-05 3.34964486607e-05 0.00208799678064)
(2.24497949767e-05 3.47953584242e-05 0.0021131505266)
(1.84233835068e-05 3.58914205323e-05 0.00213317403272)
(1.40829828504e-05 3.67465769135e-05 0.00214828028834)
(9.50504943254e-06 3.73611151367e-05 0.00215879847405)
(4.76797985617e-06 3.77310296005e-05 0.00216499396767)
(-4.87113671498e-08 3.78535266082e-05 0.00216703138358)
(-4.86490589916e-06 3.77275209143e-05 0.00216496501061)
(-9.60048804097e-06 3.73540554338e-05 0.00215873978375)
(-1.41759076189e-05 3.67358648182e-05 0.00214819089911)
(-1.85126498499e-05 3.58769367026e-05 0.00213305486475)
(-2.25341496889e-05 3.4777049885e-05 0.00211300996037)
(-2.61198696814e-05 3.34735092736e-05 0.0020878200422)
(-2.96739434773e-05 3.15363720928e-05 0.00205689393445)
(-6.81284099562e-08 -1.52532399069e-07 0.000104346369678)
(-2.09132260024e-09 -2.21466242477e-07 0.000109802508583)
(4.50097746239e-08 -2.60514028458e-07 0.000114924030894)
(7.47132302383e-08 -2.78053770843e-07 0.000119463097596)
(8.17972338685e-08 -2.80550324299e-07 0.000123207424562)
(6.74540471401e-08 -2.75447787288e-07 0.00012599491501)
(3.68333889234e-08 -2.69448737891e-07 0.000127714146371)
(-2.58250102799e-09 -2.67055599293e-07 0.000128298350076)
(-4.18536060026e-08 -2.69867324685e-07 0.000127712777951)
(-7.20701255646e-08 -2.76275186912e-07 0.000125992168369)
(-8.59092245077e-08 -2.81797113748e-07 0.000123203236555)
(-7.85955973815e-08 -2.79765295419e-07 0.000119457224533)
(-4.86420246665e-08 -2.62410685411e-07 0.000114915802316)
(-1.09203209412e-09 -2.2359362152e-07 0.000109790055939)
(6.57213198039e-08 -1.54451795414e-07 0.000104323927604)
(-4.06130564313e-08 -2.30161180848e-07 0.000307156963455)
(1.2390254056e-07 -3.62213024499e-07 0.000322698848334)
(2.40518968942e-07 -4.22562020281e-07 0.000337328531076)
(3.04030725856e-07 -4.28763427413e-07 0.000350312314574)
(3.02483456354e-07 -4.00348770363e-07 0.000361035395586)
(2.39176086982e-07 -3.59724145778e-07 0.000369026007999)
(1.28586079473e-07 -3.26649785439e-07 0.000373956323413)
(-7.62427083355e-09 -3.14435590363e-07 0.000375628325372)
(-1.43497992084e-07 -3.27866743137e-07 0.000373952355649)
(-2.53149673699e-07 -3.6213935715e-07 0.000369018022401)
(-3.15246103405e-07 -4.0396230107e-07 0.000361023153508)
(-3.15944326409e-07 -4.33588636099e-07 0.000350295035797)
(-2.51567190325e-07 -4.27989418647e-07 0.000337304201733)
(-1.33573649367e-07 -3.68248404719e-07 0.000322661926701)
(3.32698111166e-08 -2.3578825574e-07 0.000307093707652)
(1.70362141783e-07 -6.53702355625e-08 0.000502228584323)
(4.02313546604e-07 -1.87571514914e-07 0.000526998253398)
(5.60626832985e-07 -2.0806275142e-07 0.000550329972972)
(6.30286158702e-07 -1.52342236965e-07 0.000571047465021)
(5.93959342727e-07 -5.38194261514e-08 0.000588165281345)
(4.57223771479e-07 4.99997249987e-08 0.000600925701239)
(2.43407209165e-07 1.26582929196e-07 0.000608799372916)
(-1.222165831e-08 1.54096210457e-07 0.00061146639529)
(-2.6741365157e-07 1.24703894201e-07 0.000608793047773)
(-4.80010428491e-07 4.62463376931e-08 0.000600912940784)
(-6.15110603133e-07 -5.94655555908e-08 0.000588145647639)
(-6.50036396904e-07 -1.59830898088e-07 0.000571019686648)
(-5.78862490995e-07 -2.16638680992e-07 0.000550290961762)
(-4.18406841286e-07 -1.97026066427e-07 0.000526939642561)
(-1.82717463702e-07 -7.45207366243e-08 0.000502130505688)
(6.46372380516e-07 4.21889414978e-07 0.000689134438281)
(9.18093308312e-07 3.90989105584e-07 0.00072218793993)
(1.08652334168e-06 4.85190552533e-07 0.000753301142913)
(1.12629344424e-06 6.67000504113e-07 0.000780923335903)
(1.01573765386e-06 8.87072870841e-07 0.000803743033779)
(7.63634196517e-07 1.0914719103e-06 0.000820751847262)
(4.02933882746e-07 1.23419480557e-06 0.000831244276089)
(-1.66588923569e-08 1.28458890081e-06 0.000834795111828)
(-4.35760508508e-07 1.23169203033e-06 0.00083123597957)
(-7.9508115625e-07 1.08647623466e-06 0.000820735076324)
(-1.04524910042e-06 8.79594404501e-07 0.000803717156872)
(-1.15386908803e-06 6.57169207671e-07 0.000780886700336)
(-1.111864941e-06 4.73790712914e-07 0.000753249955235)
(-9.40542451646e-07 3.78382187192e-07 0.000722111952929)
(-6.63862348252e-07 4.0935175773e-07 0.000689009706655)
(1.35774602854e-06 1.18681366115e-06 0.000867163925557)
(1.64299379821e-06 1.30763678738e-06 0.000907422780793)
(1.7911368684e-06 1.57150533061e-06 0.00094524559026)
(1.76746779063e-06 1.92518544697e-06 0.000978792946689)
(1.54724286262e-06 2.30215291645e-06 0.00100648606852)
(1.14346758096e-06 2.63195673331e-06 0.00102711404883)
(5.99259883206e-07 2.85545508924e-06 0.00103983157387)
(-2.09986229403e-08 2.93356431093e-06 0.00104413180122)
(-6.40730892036e-07 2.8523733222e-06 0.00103982162497)
(-1.18344611145e-06 2.62582402635e-06 0.00102709392486)
(-1.5850374019e-06 2.29303308863e-06 0.00100645500641)
(-1.80282233769e-06 1.91327989487e-06 0.000978749095489)
(-1.82353542215e-06 1.5575840161e-06 0.000945184865874)
(-1.67172492259e-06 1.29210317724e-06 0.000907333715279)
(-1.38049816253e-06 1.17113795487e-06 0.000867019542477)
(2.25868373662e-06 2.16885043356e-06 0.00103542845292)
(2.53247491363e-06 2.47917425216e-06 0.00108166953993)