/*--------------------------------*- C++ -*----------------------------------*\
  =========                 |
  \\      /  F ield         | OpenFOAM: The Open Source CFD Toolbox
   \\    /   O peration     | Website:  https://openfoam.org
    \\  /    A nd           | Version:  7
     \\/     M anipulation  |
\*---------------------------------------------------------------------------*/
FoamFile
{
    version     2.0;
    format      ascii;
    class       volVectorField;
    location    "0.86";
    object      U;
}
// * * * * * * * * * * * * * * * * * * * * * * * * * * * * * * * * * * * * * //

dimensions      [0 1 -1 0 0 0 0];

internalField   nonuniform List<vector> 
22500
(
(-4.86505008763e-06 -5.54855329853e-06 -1.98110786558e-05)
(-4.45176856858e-06 -6.33765565561e-06 -2.06382820161e-05)
(-3.86635555353e-06 -7.08515441649e-06 -2.12797548284e-05)
(-3.22285185869e-06 -7.70999064192e-06 -2.17742094658e-05)
(-2.48989460731e-06 -8.21650831452e-06 -2.21431256344e-05)
(-1.69878610691e-06 -8.58762696201e-06 -2.23994270404e-05)
(-8.64788180151e-07 -8.81461128691e-06 -2.25516807498e-05)
(-8.5655808991e-09 -8.89162847581e-06 -2.26043836478e-05)
(8.47868201627e-07 -8.81626168416e-06 -2.25559727706e-05)
(1.68250057968e-06 -8.59083225893e-06 -2.24080083641e-05)
(2.47466692565e-06 -8.22107534234e-06 -2.21559861276e-05)
(3.20902735099e-06 -7.71564806763e-06 -2.17913591454e-05)
(3.85429591556e-06 -7.09154550284e-06 -2.13012981201e-05)
(4.44124319299e-06 -6.34463006405e-06 -2.06646888484e-05)
(4.85718449906e-06 -5.55521731736e-06 -1.98436191336e-05)
(-1.45822303513e-05 -1.65496016323e-05 -6.82595865056e-05)
(-1.33499404279e-05 -1.88503804195e-05 -7.15607496864e-05)
(-1.16379384355e-05 -2.10342353742e-05 -7.42649532212e-05)
(-9.70261151915e-06 -2.28790881745e-05 -7.64389882804e-05)
(-7.50549052586e-06 -2.43776099625e-05 -7.81158339535e-05)
(-5.12339168182e-06 -2.54780645064e-05 -7.93104523147e-05)
(-2.60888670815e-06 -2.61522496317e-05 -8.00300118833e-05)
(-2.57584365506e-08 -2.63810087996e-05 -8.02763386059e-05)
(2.55799917679e-06 -2.61570775074e-05 -8.00434086115e-05)
(5.07440066309e-06 -2.54874218504e-05 -7.93372191281e-05)
(7.45967101473e-06 -2.43909065921e-05 -7.81558980332e-05)
(9.66107152485e-06 -2.28954948843e-05 -7.64923128644e-05)
(1.1601726452e-05 -2.10526955654e-05 -7.43317633319e-05)
(1.33189938705e-05 -1.88702763508e-05 -7.16423096583e-05)
(1.45592026982e-05 -1.6568864106e-05 -6.83587657239e-05)
(-2.35022899909e-05 -2.65297458452e-05 -0.000124056046461)
(-2.14720994214e-05 -3.01289508051e-05 -0.000130460033467)
(-1.87301623514e-05 -3.35306110278e-05 -0.000135818580945)
(-1.56028477814e-05 -3.64146459243e-05 -0.000140193882583)
(-1.20667147615e-05 -3.8756218705e-05 -0.000143607345603)
(-8.23410123137e-06 -4.04765111671e-05 -0.000146058849307)
(-4.19154342071e-06 -4.15306110129e-05 -0.000147541538777)
(-4.03283120041e-08 -4.18882203453e-05 -0.000148047022698)
(4.1118317108e-06 -4.15380165362e-05 -0.000147564078938)
(8.15721604404e-06 -4.0490897374e-05 -0.000146103879)
(1.19945025242e-05 -3.87767334182e-05 -0.000143674714347)
(1.55369168858e-05 -3.64400962075e-05 -0.000140283467628)
(1.8672036867e-05 -3.35594440726e-05 -0.000135930629387)
(2.14221028178e-05 -3.01602188961e-05 -0.000130596361728)
(2.34642994981e-05 -2.65606664864e-05 -0.000124220746116)
(-3.16053722651e-05 -3.55109758161e-05 -0.000185883452527)
(-2.88226817201e-05 -4.01905875776e-05 -0.000195801110434)
(-2.51432742753e-05 -4.45946726486e-05 -0.000204187580206)
(-2.09269438593e-05 -4.83346058583e-05 -0.000211087056616)
(-1.61771475057e-05 -5.13695614301e-05 -0.000216497751461)
(-1.10343342053e-05 -5.35994178116e-05 -0.000220396847167)
(-5.61524563014e-06 -5.49657443473e-05 -0.000222758485577)
(-5.32987462168e-08 -5.54292003043e-05 -0.000223561525067)
(5.50985147459e-06 -5.49752807939e-05 -0.000222789887063)
(1.0932527397e-05 -5.36179650076e-05 -0.000220459587409)
(1.60812438641e-05 -5.13960632164e-05 -0.000216591604867)
(2.08389892221e-05 -4.83675838023e-05 -0.000211211785733)
(2.50652073651e-05 -4.46321862494e-05 -0.000204343346041)
(2.87552432067e-05 -4.02314236685e-05 -0.000195990031557)
(3.15531928827e-05 -3.55518757851e-05 -0.000186110481692)
(-3.88585785944e-05 -4.34899806362e-05 -0.000252260038731)
(-3.53811092776e-05 -4.90295147511e-05 -0.000265871591779)
(-3.08548556554e-05 -5.4219565807e-05 -0.000277431647146)
(-2.56569504983e-05 -5.86297383638e-05 -0.000286971542242)
(-1.98226054816e-05 -6.22057438726e-05 -0.000294466373452)
(-1.35144337148e-05 -6.48328701544e-05 -0.00029987240453)
(-6.87505468484e-06 -6.64424341851e-05 -0.000303146975345)
(-6.45133610005e-08 -6.69883101841e-05 -0.00030425821869)
(6.74742915326e-06 -6.64536632665e-05 -0.000303186714275)
(1.33909833772e-05 -6.48547349723e-05 -0.000299951821679)
(1.9706015918e-05 -6.22370477664e-05 -0.000294585175486)
(2.55496201988e-05 -5.86687930698e-05 -0.000287129351462)
(3.07590450433e-05 -5.42641606177e-05 -0.000277628437043)
(3.52979266653e-05 -4.9078253775e-05 -0.000266109631617)
(3.87931005435e-05 -4.35392872703e-05 -0.000252545001481)
(-4.52100310625e-05 -5.04284145057e-05 -0.000321664814899)
(-4.1100685816e-05 -5.66013681767e-05 -0.000338933293587)
(-3.58200228488e-05 -6.23568477406e-05 -0.000353603297684)
(-2.97550230781e-05 -6.72469214945e-05 -0.000365713308182)
(-2.29732672282e-05 -7.12074808859e-05 -0.000375224733651)
(-1.56539499252e-05 -7.41164108656e-05 -0.000382081650892)
(-7.96058794615e-06 -7.58982696862e-05 -0.000386231869249)
(-7.40076791138e-08 -7.65025018251e-05 -0.000387637906465)
(7.81411493732e-06 -7.59107645712e-05 -0.00038627929739)
(1.55120702175e-05 -7.41407718883e-05 -0.000382176457445)
(2.28389336362e-05 -7.12424357198e-05 -0.000375366558197)
(2.96309023117e-05 -6.72906567305e-05 -0.000365901598764)
(3.57086103918e-05 -6.24069842766e-05 -0.0003538377446)
(4.10033928345e-05 -5.66563935519e-05 -0.000339216249857)
(4.51321743791e-05 -5.0484573468e-05 -0.000322002731371)
(-5.06236468171e-05 -5.62976128173e-05 -0.000392632524655)
(-4.59470375305e-05 -6.2876171544e-05 -0.000413335564938)
(-4.00064056981e-05 -6.89775521352e-05 -0.000430880241037)
(-3.31941899095e-05 -7.41573521049e-05 -0.000445341815836)
(-2.56082860739e-05 -7.83463799187e-05 -0.00045668271398)
(-1.74388419846e-05 -8.14220205079e-05 -0.000464846889027)
(-8.86484118e-06 -8.33055492032e-05 -0.000469782126378)
(-8.19307419229e-08 -8.39442016793e-05 -0.000471451686879)
(8.70260922238e-06 -8.33189050991e-05 -0.000469836571707)
(1.72814649685e-05 -8.14481012605e-05 -0.000464955740756)
(2.54588883941e-05 -7.83838943424e-05 -0.000456845532815)
(3.30556219933e-05 -7.42044413155e-05 -0.000445557829096)
(3.98813066488e-05 -6.9031767523e-05 -0.000431148764626)
(4.58370649645e-05 -6.29359555144e-05 -0.000413659036732)
(5.05342617629e-05 -5.63591384701e-05 -0.000393018260901)
(-5.5083948029e-05 -6.10874180309e-05 -0.00046382264859)
(-4.99045973961e-05 -6.78474596203e-05 -0.000487594149856)
(-4.33997165288e-05 -7.40811198811e-05 -0.000507653606508)
(-3.59633651536e-05 -7.93655967134e-05 -0.000524146485263)
(-2.77197120438e-05 -8.36319787709e-05 -0.00053705135906)
(-1.88641480953e-05 -8.67631637026e-05 -0.000546323695766)
(-9.5855264334e-06 -8.86802780447e-05 -0.000551920334529)
(-8.8519055979e-08 -8.93303105559e-05 -0.000553811265472)
(9.41015900742e-06 -8.86941350558e-05 -0.000551981178709)
(1.86937619773e-05 -8.67902711982e-05 -0.000546445348316)
(2.75575202e-05 -8.36710822742e-05 -0.000537233279879)
(3.58123287146e-05 -7.941486015e-05 -0.000524387624401)
(4.3262554133e-05 -7.41381129424e-05 -0.000507952819578)
(4.97831719086e-05 -6.79106215765e-05 -0.000487954018306)
(5.49837880619e-05 -6.11529624737e-05 -0.000464251390899)
(-5.85918172514e-05 -6.48025658491e-05 -0.000534058616783)
(-5.29736257877e-05 -7.15270061071e-05 -0.000560432459753)
(-4.60010357265e-05 -7.76884170124e-05 -0.000582570734009)
(-3.80651196909e-05 -8.29012076517e-05 -0.000600719810955)
(-2.93106668162e-05 -8.71021477642e-05 -0.000614884998744)
(-1.99326472088e-05 -9.01842342992e-05 -0.000625041438009)
(-1.01243397562e-05 -9.20709910264e-05 -0.000631161849249)
(-9.40376243699e-08 -9.27107920681e-05 -0.000633227556841)
(9.93793730935e-06 -9.20850253404e-05 -0.000631228578479)
(1.97512375101e-05 -9.02117443911e-05 -0.00062517485426)
(2.91374834622e-05 -8.71419652156e-05 -0.000615084437863)
(3.7903170974e-05 -8.29515804541e-05 -0.000600983887988)
(4.58530680811e-05 -7.77470094951e-05 -0.000582897768466)
(5.28416871425e-05 -7.15923149102e-05 -0.000560825292014)
(5.84814790802e-05 -6.48709162051e-05 -0.000534526325611)
(-6.11614877317e-05 -6.746031093e-05 -0.000602337080666)
(-5.5167937277e-05 -7.39412429139e-05 -0.000630787589162)
(-4.78249612358e-05 -7.98368904704e-05 -0.000654538294536)
(-3.95141937424e-05 -8.48130599233e-05 -0.000673956099704)
(-3.03940451126e-05 -8.88166892129e-05 -0.000689074435405)
(-2.06538311624e-05 -9.1753482068e-05 -0.000699891199993)
(-1.04863793156e-05 -9.35512012425e-05 -0.00070639903968)
(-9.87523469599e-08 -9.41609390649e-05 -0.000708593609452)
(1.02905181721e-05 -9.35651243272e-05 -0.000706471267284)
(2.04628800067e-05 -9.17808404841e-05 -0.000700035605332)
(3.02112025361e-05 -8.88564381927e-05 -0.000689290221402)
(3.93424711369e-05 -8.48635952343e-05 -0.000674241501682)
(4.7667098069e-05 -7.98960344032e-05 -0.000654891032436)
(5.50261628234e-05 -7.40076042776e-05 -0.000631210940583)
(6.10413840224e-05 -6.7530398713e-05 -0.00060284089712)
(-6.2818587184e-05 -6.90898389464e-05 -0.000667808205498)
(-5.65134298208e-05 -7.51288871646e-05 -0.000697786518096)
(-4.88984749033e-05 -8.05774978757e-05 -0.000722695832592)
(-4.03363478548e-05 -8.5166078381e-05 -0.000743019067841)
(-3.09912221881e-05 -8.8853597707e-05 -0.000758806796793)
(-2.10427684507e-05 -9.15586533134e-05 -0.000770078641094)
(-1.06794712291e-05 -9.32145090521e-05 -0.000776849463406)
(-1.02894789089e-07 -9.37763042447e-05 -0.000779131140669)
(1.04752686912e-05 -9.32280521301e-05 -0.000776926923479)
(2.08433180211e-05 -9.15853382485e-05 -0.000770233524368)
(3.0799641264e-05 -8.88925441251e-05 -0.000759038202742)
(4.01556124011e-05 -8.52158812929e-05 -0.000743324841719)
(4.87313022389e-05 -8.06362092133e-05 -0.000723073033434)
(5.6362223057e-05 -7.51952882086e-05 -0.00069823908091)
(6.26889296085e-05 -6.9160680767e-05 -0.000668346760997)
(-6.35965189599e-05 -6.97289171657e-05 -0.000729726449612)
(-5.70463098795e-05 -7.51359079014e-05 -0.000760701199076)
(-4.92600560979e-05 -7.9971335093e-05 -0.000786373714421)
(-4.05669270528e-05 -8.40390948862e-05 -0.00080729341929)
(-3.11301485793e-05 -8.73068438252e-05 -0.00082350786798)
(-2.11184032657e-05 -8.97040993668e-05 -0.000835058541048)
(-1.07132022692e-05 -9.11711953532e-05 -0.000841985510793)
(-1.06648744614e-07 -9.16690784002e-05 -0.000844318515334)
(1.05014170329e-05 -9.11841033584e-05 -0.000842068017858)
(2.0911151584e-05 -8.97296134402e-05 -0.00083522359148)
(3.09304341482e-05 -8.73442691043e-05 -0.000823754562788)
(4.03776638523e-05 -8.40872869959e-05 -0.000807619280745)
(4.90839304032e-05 -8.00286424999e-05 -0.000786775048628)
(5.68858970835e-05 -7.52013450917e-05 -0.000761182695899)
(6.3457342515e-05 -6.97995218147e-05 -0.00073029982594)
(-6.3532438843e-05 -6.94063591451e-05 -0.000787366606167)
(-5.68170601878e-05 -7.40070623193e-05 -0.000818901050849)
(-4.89619751075e-05 -7.80901547779e-05 -0.000845055651752)
(-4.02494297425e-05 -8.15274619162e-05 -0.000866335494934)
(-3.08424937344e-05 -8.42884327035e-05 -0.000882780002528)
(-2.09011501067e-05 -8.63119135458e-05 -0.000894464068772)
(-1.05976386329e-05 -8.75487488966e-05 -0.000901458868292)
(-1.10138915726e-07 -8.79685121432e-05 -0.000903813656227)
(1.03787847588e-05 -8.75607771908e-05 -0.000901546228151)
(2.06865814415e-05 -8.63357617685e-05 -0.000894639015291)
(3.06350677385e-05 -8.43236206103e-05 -0.000883041874554)
(4.00519691984e-05 -8.15731441226e-05 -0.000866681745966)
(4.87771433482e-05 -7.81450498639e-05 -0.000845481723305)
(5.66476055743e-05 -7.40705114602e-05 -0.00081941185358)
(6.33838277898e-05 -6.94755748446e-05 -0.000787975009363)
(-6.27059510589e-05 -6.81428813811e-05 -0.00083989274131)
(-5.59202424804e-05 -7.18284129011e-05 -0.000871859207446)
(-4.80752212051e-05 -7.50402041317e-05 -0.000898373158136)
(-3.94294834208e-05 -7.77595707835e-05 -0.000919832684871)
(-3.01574807418e-05 -7.99363006105e-05 -0.000936342739324)
(-2.04088370717e-05 -8.15247087183e-05 -0.00094803849968)
(-1.03414454819e-05 -8.24923882805e-05 -0.000955028101718)
(-1.13431039029e-07 -8.28206788795e-05 -0.000957380359347)
(1.01159246807e-05 -8.25033059603e-05 -0.000955119940941)
(2.01873393156e-05 -8.15464280357e-05 -0.000948222770639)
(2.99427109191e-05 -7.99685426374e-05 -0.000936619437174)
(3.92241638977e-05 -7.78018223312e-05 -0.00092019988186)
(4.78819653674e-05 -7.5091654284e-05 -0.00089882568471)
(5.57419682283e-05 -7.18888055245e-05 -0.000872400438437)
(6.25477610229e-05 -6.82098481575e-05 -0.000840534418071)
(-6.12929641793e-05 -6.64379345801e-05 -0.000886192706575)
(-5.44930960746e-05 -6.87115069551e-05 -0.000919376334744)
(-4.66438874775e-05 -7.09672741054e-05 -0.000946091218315)
(-3.81364674772e-05 -7.28586118738e-05 -0.000967530226101)
(-2.90978959051e-05 -7.43532108355e-05 -0.000983954532906)
(-1.96588319751e-05 -7.54324175694e-05 -0.00099556321769)
(-9.95422983442e-06 -7.60857298146e-05 -0.00100249229802)
(-1.16528563367e-07 -7.63073234701e-05 -0.00100482392273)
(9.72243130312e-06 -7.60952224181e-05 -0.0010025876436)
(1.94308180115e-05 -7.54513734722e-05 -0.00099575501744)
(2.88762066035e-05 -7.43815203473e-05 -0.000984243889116)
(3.79236873123e-05 -7.28960956579e-05 -0.000967917023727)
(4.64425754334e-05 -7.10135463821e-05 -0.000946570820108)
(5.43067012205e-05 -6.8767098799e-05 -0.000919954945325)
(6.11246877788e-05 -6.65007120065e-05 -0.00088685237465)
(3.7300223086e-08 6.16982984878e-08 -3.02211451136e-05)
(1.94437145522e-08 8.39749189319e-08 -3.16105620866e-05)
(5.26272129867e-09 9.82066311341e-08 -3.27992900167e-05)
(-3.06496059051e-09 1.06049198388e-07 -3.3788405759e-05)
(-7.16091086363e-09 1.09980819429e-07 -3.45718439199e-05)
(-6.87467005262e-09 1.11452737426e-07 -3.51399860739e-05)
(-3.49413456325e-09 1.11834121346e-07 -3.5485340666e-05)
(1.53177936956e-09 1.11980549039e-07 -3.5602720248e-05)
(6.49228949023e-09 1.12163612897e-07 -3.54868404085e-05)
(9.68929124309e-09 1.12091631764e-07 -3.51429810272e-05)
(9.71810519809e-09 1.10898118611e-07 -3.45763378035e-05)
(5.37352537469e-09 1.07216897711e-07 -3.37944506007e-05)
(-3.17137444829e-09 9.95807091576e-08 -3.28070805568e-05)
(-1.75122790159e-08 8.55357746522e-08 -3.16208080263e-05)
(-3.57238377224e-08 6.3217051788e-08 -3.0236129486e-05)
(3.39113015991e-07 4.2391791855e-07 -9.07255094602e-05)
(2.83931102604e-07 5.27707618381e-07 -9.48327086696e-05)
(2.26020741625e-07 6.12346621608e-07 -9.83433309335e-05)
(1.74157600533e-07 6.77219914964e-07 -0.000101257905994)
(1.25751048082e-07 7.25383555257e-07 -0.000103561159708)
(8.20565463645e-08 7.58160189342e-07 -0.00010522898333)
(4.17550584794e-08 7.77293059554e-07 -0.000106241436814)
(3.26812372936e-09 7.83853177532e-07 -0.000106584310175)
(-3.53568380002e-08 7.78175081238e-07 -0.000106246090008)
(-7.60197239912e-08 7.59931146516e-07 -0.000105238271121)
(-1.20145113486e-07 7.28046901638e-07 -0.000103575088499)
(-1.6882908709e-07 6.80787088024e-07 -0.000101276625196)
(-2.20728892446e-07 6.16733365977e-07 -9.8367410506e-05)
(-2.78513221258e-07 5.32822631442e-07 -9.48642116274e-05)
(-3.34120517233e-07 4.29176728673e-07 -9.07698356213e-05)
(8.18537127279e-07 9.77315504417e-07 -0.000150901784721)
(7.22454600614e-07 1.18428332217e-06 -0.000157674641083)
(6.08513989934e-07 1.36364052498e-06 -0.000163455715435)
(4.92414174695e-07 1.50935078913e-06 -0.000168248084842)
(3.71965940025e-07 1.62282398333e-06 -0.000172029291229)
(2.50497639154e-07 1.70350747108e-06 -0.000174764237727)
(1.28452111851e-07 1.75198928776e-06 -0.000176422799929)
(6.16598270678e-09 1.76861654269e-06 -0.000176983352305)
(-1.16325010659e-07 1.75344480018e-06 -0.000176430843213)
(-2.38938093275e-07 1.70640858051e-06 -0.000174780279449)
(-3.61187785884e-07 1.62713732629e-06 -0.000172053309592)
(-4.82396028556e-07 1.51499871923e-06 -0.000168280255177)
(-5.99108255889e-07 1.37040403722e-06 -0.000163496814904)
(-7.13525795746e-07 1.19188978031e-06 -0.000157727632851)
(-8.10739954824e-07 9.84964649295e-07 -0.000150974313702)
(1.40325098497e-06 1.63925322056e-06 -0.0002105859)
(1.26111734464e-06 1.95274070893e-06 -0.00021995403225)
(1.08188196834e-06 2.23166667959e-06 -0.000227936583533)
(8.88076087141e-07 2.4630276639e-06 -0.000234544837215)
(6.79033968463e-07 2.6461768543e-06 -0.000239751371626)
(4.6075598137e-07 2.77821569542e-06 -0.000243513243224)
(2.36271518477e-07 2.8582289998e-06 -0.000245792463574)
(8.65027211525e-09 2.88563092855e-06 -0.000246561709418)
(-2.19213448698e-07 2.86014176783e-06 -0.000245804016994)
(-4.4438253264e-07 2.78202445356e-06 -0.000243536265819)
(-6.63647680508e-07 2.65182701195e-06 -0.00023978577976)
(-8.73750270689e-07 2.4703813357e-06 -0.000234590752661)
(-1.06855809447e-06 2.24041575833e-06 -0.000227994805581)
(-1.24871154534e-06 1.9624835334e-06 -0.000220027956757)
(-1.39253955468e-06 1.64902901116e-06 -0.000210684436138)
(2.02092799732e-06 2.329216559e-06 -0.000269618244954)
(1.82825647978e-06 2.73682920276e-06 -0.0002814914726)
(1.57944535793e-06 3.10356690394e-06 -0.000291587739947)
(1.30289942995e-06 3.40974154661e-06 -0.000299934449854)
(1.00020386437e-06 3.65333958261e-06 -0.000306501907102)
(6.80162549358e-07 3.82968365803e-06 -0.000311242233096)
(3.48495732175e-07 3.93678458324e-06 -0.000314111848747)
(1.09449730546e-08 3.97339701656e-06 -0.000315079395514)
(-3.26863107852e-07 3.93902466096e-06 -0.000314127054258)
(-6.59265385871e-07 3.83414400594e-06 -0.00031127250138)
(-9.80403124209e-07 3.6599480232e-06 -0.000306547041328)
(-1.28435826375e-06 3.41832675964e-06 -0.000299994409254)
(-1.56220920103e-06 3.11376393845e-06 -0.000291663133645)
(-1.81233065012e-06 2.74817602072e-06 -0.000281585783206)
(-2.00717590084e-06 2.34065543718e-06 -0.00026974103294)
(2.62013563589e-06 2.99029840407e-06 -0.000327837611912)
(2.37372346813e-06 3.47041223922e-06 -0.000342104013373)
(2.05505115926e-06 3.90340640122e-06 -0.000354206327882)
(1.69699064084e-06 4.26468125432e-06 -0.000364197889335)
(1.30377038626e-06 4.55194199124e-06 -0.000372049733492)
(8.86728348784e-07 4.75981762876e-06 -0.000377711651707)
(4.53897067582e-07 4.88599824278e-06 -0.000381136541507)
(1.3114458877e-08 4.92905648973e-06 -0.000382290493754)
(-4.27927211424e-07 4.88845816205e-06 -0.000381155562267)
(-8.61510784341e-07 4.76471365399e-06 -0.000377749470674)
(-1.27970525425e-06 4.55918792931e-06 -0.000372105976536)
(-1.67432043254e-06 4.27408591402e-06 -0.000364272227944)
(-2.03392267924e-06 3.914578668e-06 -0.000354298974192)
(-2.35424133019e-06 3.48287812647e-06 -0.000342218322988)
(-2.60325377635e-06 3.00294151796e-06 -0.000327983561458)
(3.16334823554e-06 3.58149842028e-06 -0.000385080258745)
(2.86176403713e-06 4.10765350885e-06 -0.000401604893704)
(2.47648082111e-06 4.58029506758e-06 -0.000415585491031)
(2.04304731038e-06 4.97272951183e-06 -0.00042711263414)
(1.56840000716e-06 5.28347100128e-06 -0.000436160945364)
(1.0658400345e-06 5.50765608979e-06 -0.000442679903996)
(5.45051200999e-07 5.6434290547e-06 -0.000446620542534)
(1.51585261862e-08 5.68968361707e-06 -0.000447947619132)
(-5.14985105993e-07 5.64601112782e-06 -0.000446643568528)
(-1.03651386369e-06 5.51279470531e-06 -0.000442725626398)
(-1.54024256935e-06 5.29107826588e-06 -0.000436228744893)
(-2.01637423578e-06 4.98260218946e-06 -0.000427201768456)
(-2.45154022995e-06 4.59203975258e-06 -0.000415695591381)
(-2.83875616629e-06 4.12079427301e-06 -0.000401739078302)
(-3.14329181644e-06 3.5949138535e-06 -0.000385248825529)
(3.62450162084e-06 4.07478085975e-06 -0.000441177615615)
(3.26853420382e-06 4.61909363101e-06 -0.000459801391466)
(2.82297394136e-06 5.10350958414e-06 -0.000475512790743)
(2.32403054828e-06 5.50249301495e-06 -0.00048845197812)
(1.78114795935e-06 5.81627769494e-06 -0.000498598998318)
(1.20882333109e-06 6.04152746555e-06 -0.000505904013105)
(6.17607177384e-07 6.17747699331e-06 -0.000510317252032)
(1.7051806333e-08 6.22371785736e-06 -0.000511803034038)
(-5.83739719869e-07 6.18008913673e-06 -0.00051034452096)
(-1.17566277143e-06 6.04672773422e-06 -0.000505958084184)
(-1.74913680229e-06 5.82398103812e-06 -0.000498678932488)
(-2.29353976468e-06 5.51250242866e-06 -0.000488556495947)
(-2.79433779973e-06 5.11544626306e-06 -0.000475640784982)
(-3.24204379857e-06 4.63251321364e-06 -0.000459955711377)
(-3.60124675716e-06 4.08856941845e-06 -0.000441368831004)
(3.98784957856e-06 4.4538612312e-06 -0.000495950095024)
(3.58063204899e-06 4.98970560062e-06 -0.000516488089584)
(3.08366300479e-06 5.45963918021e-06 -0.000533764290592)
(2.53168322726e-06 5.84255004052e-06 -0.000547980210857)
(1.93617776616e-06 6.14097829438e-06 -0.00055912068415)
(1.31199522594e-06 6.35378889461e-06 -0.000567136019335)
(6.69785324059e-07 6.48166858825e-06 -0.000571976048749)
(1.87708326877e-08 6.52509593415e-06 -0.000573605282893)
(-6.32458596158e-07 6.48422730666e-06 -0.0005720078457)
(-1.27532315185e-06 6.35888915764e-06 -0.000567198980066)
(-1.90060188511e-06 6.14854731049e-06 -0.000559213488846)
(-2.49761717459e-06 5.85241226569e-06 -0.000548100936345)
(-3.05151036544e-06 5.47144408234e-06 -0.000533910964148)
(-3.55077085895e-06 5.00305236286e-06 -0.000516663334343)
(-3.96141411209e-06 4.4676779516e-06 -0.000496164648759)
(4.24647393589e-06 4.7125305631e-06 -0.000549195088124)
(3.79338072651e-06 5.21635077021e-06 -0.000571434460475)
(3.25572056536e-06 5.64914740653e-06 -0.000590094119944)
(2.66469473088e-06 5.9970651021e-06 -0.000605444085399)
(2.03314507448e-06 6.26518705215e-06 -0.000617468649699)
(1.37546649592e-06 6.45483854647e-06 -0.000626115921588)
(7.01740469947e-07 6.56819827443e-06 -0.000631335362069)
(2.0292580855e-08 6.60663969835e-06 -0.000633092288827)
(-6.61343994071e-07 6.57062642177e-06 -0.000631372023796)
(-1.33565613069e-06 6.45968654382e-06 -0.000626188431173)
(-1.99434547253e-06 6.27240619021e-06 -0.000617575269242)
(-2.62733962744e-06 6.00651171652e-06 -0.000605582167581)
(-3.22026687716e-06 5.6605216162e-06 -0.000590260726373)
(-3.76028167539e-06 5.22931530095e-06 -0.000571632092403)
(-4.21691664253e-06 4.72606925228e-06 -0.00054943449681)
(4.40046762438e-06 4.85256495097e-06 -0.000600666105039)
(3.90870395864e-06 5.30479898194e-06 -0.000624365730274)
(3.34224273844e-06 5.68243163008e-06 -0.000644220519189)
(2.72675083697e-06 5.98099469156e-06 -0.000660562186741)
(2.07557760788e-06 6.20800189904e-06 -0.000673362008321)
(1.40196631808e-06 6.36701717709e-06 -0.000682562558219)
(7.14948185174e-07 6.46147133724e-06 -0.000688113543925)
(2.16020964228e-08 6.49346019163e-06 -0.000689982206743)
(-6.71903520779e-07 6.46370086219e-06 -0.000688155459005)
(-1.35942482913e-06 6.37148231242e-06 -0.000682645405629)
(-2.03393378235e-06 6.21468216565e-06 -0.00067348363718)
(-2.6864419597e-06 5.98979554787e-06 -0.000660719185371)
(-3.30375652315e-06 5.69311570005e-06 -0.00064440889516)
(-3.87256347028e-06 5.31710363057e-06 -0.000624588001942)
(-4.36788263135e-06 4.86556132749e-06 -0.000600932914057)
(4.45491859554e-06 4.88150123626e-06 -0.000650037284321)
(3.93314757942e-06 5.26666803296e-06 -0.000674937639859)
(3.35039928126e-06 5.57608138419e-06 -0.000695812308948)
(2.72484326097e-06 5.81580905148e-06 -0.000713015635375)
(2.06943418713e-06 5.99519833698e-06 -0.000726487363489)
(1.39579996066e-06 6.11939690051e-06 -0.00073616407416)
(7.11655199925e-07 6.19259006803e-06 -0.000741998896128)
(2.26857486235e-08 6.2173576525e-06 -0.000743963296353)
(-6.66410552908e-07 6.19455844067e-06 -0.000742046487157)
(-1.35096784216e-06 6.12335529369e-06 -0.000736258157296)
(-2.02536291031e-06 6.00116639765e-06 -0.00072662545412)
(-2.68195278646e-06 5.82374997794e-06 -0.000713193589461)
(-3.30919348214e-06 5.58583652286e-06 -0.000696024970619)
(-3.894200726e-06 5.27806743419e-06 -0.000675187591475)
(-4.41945521541e-06 4.89370939511e-06 -0.000650335131074)
(4.41773775591e-06 4.80944923302e-06 -0.000696842814064)
(3.87627336036e-06 5.11609272098e-06 -0.000722714848355)
(3.29011886757e-06 5.34960013511e-06 -0.000744487420531)
(2.6680109967e-06 5.52598536869e-06 -0.000762446348933)
(2.022028801e-06 5.65544568479e-06 -0.000776493136285)
(1.36205798624e-06 5.74368610956e-06 -0.000786569546291)
(6.94462889848e-07 5.7951289372e-06 -0.000792639966373)
(2.35335400444e-08 5.81250856663e-06 -0.0007946838203)
(-6.47491179756e-07 5.79678487519e-06 -0.00079269363149)
(-1.31540010385e-06 5.7470382718e-06 -0.000786675772937)
(-1.97598025967e-06 5.66055039244e-06 -0.000776649312481)
(-2.62296153562e-06 5.53287635598e-06 -0.000762647792789)
(-3.2465651164e-06 5.35822034906e-06 -0.000744727674434)
(-3.83483173732e-06 5.12636557555e-06 -0.000722996110362)
(-4.37961150148e-06 4.82064453709e-06 -0.000697175574419)
(4.30013976337e-06 4.64710444841e-06 -0.000740373775186)
(3.75167534464e-06 4.87159291553e-06 -0.00076719967926)
(3.17412437948e-06 5.02522298518e-06 -0.000789848194021)
(2.56657998895e-06 5.13814467203e-06 -0.000808469223204)
(1.94117148117e-06 5.21856719457e-06 -0.00082298875741)
(1.30599453372e-06 5.2718827978e-06 -0.000833382468811)
(6.66013512213e-07 5.30232987239e-06 -0.000839636690454)
(2.41393123767e-08 5.31260145665e-06 -0.000841742516113)
(-6.17797999477e-07 5.30364312127e-06 -0.000839696663725)
(-1.25800188174e-06 5.27456702355e-06 -0.000833501484156)
(-1.89363103798e-06 5.22271112038e-06 -0.000823164472811)
(-2.51982559485e-06 5.14385384147e-06 -0.000808697003612)
(-3.12863946596e-06 5.03252773157e-06 -0.000790120422664)
(-3.70809873822e-06 4.88054720297e-06 -0.00076751656284)
(-4.25961919567e-06 4.65708917354e-06 -0.000740744001414)
(4.11546581745e-06 4.44504123723e-06 -0.000779646572304)
(3.57641426474e-06 4.55072548207e-06 -0.000808165643362)
(3.01318919953e-06 4.62542712922e-06 -0.00083158662063)
(2.42876691054e-06 4.6761651562e-06 -0.0008506995161)
(1.83302191136e-06 4.70878753185e-06 -0.000865547610729)
(1.23176231632e-06 4.72833953027e-06 -0.000876155844598)
(6.28418585651e-07 4.73862903518e-06 -0.000882532824752)
(2.4516692012e-08 4.74210485428e-06 -0.000884680293452)
(-5.79418533163e-07 4.73960531942e-06 -0.000882598739953)
(-1.18289764765e-06 4.73033974906e-06 -0.000876287091897)
(-1.78446314956e-06 4.71191788915e-06 -0.000865742624787)
(-2.38079424975e-06 4.68054657329e-06 -0.000850954844759)
(-2.96622147616e-06 4.63117652863e-06 -0.000831894409409)
(-3.53113687375e-06 4.55804531863e-06 -0.000808527432885)
(-4.07271771139e-06 4.45351326897e-06 -0.000780045602719)
(-1.82024311533e-08 -3.214658777e-08 -3.3213303347e-05)
(-9.96691151768e-09 -4.32101975703e-08 -3.47403803705e-05)
(-4.76667455608e-09 -5.00409652824e-08 -3.60420241007e-05)
(-1.4112131343e-09 -5.43564530085e-08 -3.71253122605e-05)
(3.8624686838e-10 -5.70077545865e-08 -3.7982778161e-05)
(7.62457218483e-10 -5.84917383149e-08 -3.86045451165e-05)
(1.72625662881e-10 -5.92359115151e-08 -3.89824998879e-05)
(-9.09424506587e-10 -5.94992608037e-08 -3.91110724959e-05)
(-1.93684723577e-09 -5.93576178277e-08 -3.89844858481e-05)
(-2.35865134716e-09 -5.87112632502e-08 -3.86085077058e-05)
(-1.71663378066e-09 -5.72837138776e-08 -3.79887063107e-05)
(3.78123251258e-10 -5.46382168075e-08 -3.71332271156e-05)
(4.08446179136e-09 -5.0217783963e-08 -3.6052081576e-05)
(9.65937718072e-09 -4.32423690893e-08 -3.4753296042e-05)
(1.82204895019e-08 -3.19838289994e-08 -3.3231607304e-05)
(-8.38104142908e-08 -1.2179528658e-07 -9.94480186634e-05)
(-6.06642829211e-08 -1.56131887498e-07 -0.000103934111048)
(-4.2947134601e-08 -1.80785559178e-07 -0.000107756565058)
(-2.93336070404e-08 -1.98429531381e-07 -0.000110928726694)
(-1.90583226096e-08 -2.10705951674e-07 -0.000113433627298)
(-1.17582762053e-08 -2.18605394047e-07 -0.000115246932709)
(-6.48444360511e-09 -2.23014261345e-07 -0.00011634759607)
(-2.23047051697e-09 -2.24500528399e-07 -0.000116720631005)
(2.15341724985e-09 -2.23236503363e-07 -0.000116353632567)
(7.81684192838e-09 -2.19016182912e-07 -0.000115258975939)
(1.57144735111e-08 -2.11252818634e-07 -0.000113451644816)
(2.66506282772e-08 -1.99025015326e-07 -0.000110952783605)
(4.09807595282e-08 -1.81192247835e-07 -0.000107787124215)
(5.94757851995e-08 -1.56259442001e-07 -0.000103973255379)
(8.33974594264e-08 -1.21528082473e-07 -9.95016609236e-05)
(-1.75987079203e-07 -2.35437874673e-07 -0.000164906696009)
(-1.39192113024e-07 -2.94042454703e-07 -0.000172251723692)
(-1.07582094925e-07 -3.39494698457e-07 -0.000178501655391)
(-8.06446691633e-08 -3.73954174557e-07 -0.000183677605908)
(-5.73536524577e-08 -3.99162678977e-07 -0.000187757198523)
(-3.73237449746e-08 -4.16199248898e-07 -0.000190706335723)
(-1.95330110585e-08 -4.26047365029e-07 -0.000192494351045)
(-2.87907673143e-09 -4.2933478507e-07 -0.000193099087518)
(1.39196691693e-08 -4.26249713229e-07 -0.000192504649751)
(3.21437760205e-08 -4.16572539522e-07 -0.000190726859743)
(5.28487445719e-08 -3.99654572422e-07 -0.000187787844453)
(7.69234580384e-08 -3.74469842879e-07 -0.000183718393107)
(1.04730283627e-07 -3.39806240902e-07 -0.000178553168349)
(1.37281590903e-07 -2.94076264008e-07 -0.000172316912263)
(1.75087676074e-07 -2.35085283239e-07 -0.000164993867131)
(-2.77517807566e-07 -3.5498310296e-07 -0.000229405780591)
(-2.28342293113e-07 -4.35196653314e-07 -0.000239493492136)
(-1.82731657055e-07 -5.00027841931e-07 -0.000248061475233)
(-1.41436463368e-07 -5.50621260362e-07 -0.000255143891727)
(-1.03383764078e-07 -5.8852820044e-07 -0.000260716628843)
(-6.83067205701e-08 -6.14688482142e-07 -0.000264739906913)
(-3.52869960886e-08 -6.30028398457e-07 -0.000267176560417)
(-3.31436546439e-09 -6.35135972898e-07 -0.000267999477463)
(2.8804544288e-08 -6.30190453296e-07 -0.00026719116159)
(6.22587279412e-08 -6.14990103802e-07 -0.000264768976306)
(9.80154232888e-08 -5.88929505354e-07 -0.000260759956834)
(1.36882245682e-07 -5.51044977498e-07 -0.000255201375779)