/*--------------------------------*- C++ -*----------------------------------*\
  =========                 |
  \\      /  F ield         | OpenFOAM: The Open Source CFD Toolbox
   \\    /   O peration     | Website:  https://openfoam.org
    \\  /    A nd           | Version:  7
     \\/     M anipulation  |
\*---------------------------------------------------------------------------*/
FoamFile
{
    version     2.0;
    format      ascii;
    class       volScalarField;
    location    "1.38";
    object      p;
}
// * * * * * * * * * * * * * * * * * * * * * * * * * * * * * * * * * * * * * //

dimensions      [0 2 -2 0 0 0 0];

internalField   nonuniform List<scalar> 
22500
(
9.36111705161e-06
9.3598982946e-06
9.35958043897e-06
9.35905639122e-06
9.35867151627e-06
9.35837266249e-06
9.35818936544e-06
9.35812590034e-06
9.35819335545e-06
9.35838055111e-06
9.35868322409e-06
9.35907154619e-06
9.35959878121e-06
9.35991838033e-06
9.36113982793e-06
9.34539120944e-06
9.34336940275e-06
9.34237846276e-06
9.34126629902e-06
9.34040279695e-06
9.33975139042e-06
9.33935254589e-06
9.33921724599e-06
9.33935670439e-06
9.33975961908e-06
9.34041498273e-06
9.34128210607e-06
9.3423975043e-06
9.34339027131e-06
9.34541474337e-06
9.33036556566e-06
9.32761854592e-06
9.32606003357e-06
9.32443691833e-06
9.32316568486e-06
9.32221379773e-06
9.3216317288e-06
9.3214351688e-06
9.32163578251e-06
9.32222181774e-06
9.32317753876e-06
9.32445230683e-06
9.32607856743e-06
9.32763892983e-06
9.33038883469e-06
9.31702935842e-06
9.3136904507e-06
9.31168019885e-06
9.30966000078e-06
9.30807273458e-06
9.30689001126e-06
9.30616761937e-06
9.30592420341e-06
9.30617148886e-06
9.30689766959e-06
9.30808403563e-06
9.30967466023e-06
9.31169788875e-06
9.3137099641e-06
9.31705200542e-06
9.30463428198e-06
9.30079420985e-06
9.29840100956e-06
9.29606077967e-06
9.29421771913e-06
9.29285049488e-06
9.29201637818e-06
9.29173579556e-06
9.29202007209e-06
9.29285780354e-06
9.29422849591e-06
9.29607474693e-06
9.29841787535e-06
9.30081284621e-06
9.30465617622e-06
9.29299303673e-06
9.28873921866e-06
9.28602631841e-06
9.2834360511e-06
9.28139235324e-06
9.27988273288e-06
9.27896285146e-06
9.27865384995e-06
9.27896636901e-06
9.27988969573e-06
9.28140261105e-06
9.28344933993e-06
9.28604233887e-06
9.28875700351e-06
9.29301420023e-06
9.28213929995e-06
9.2775624024e-06
9.27459316476e-06
9.2718208071e-06
9.26963033632e-06
9.2680188921e-06
9.26703819467e-06
9.26670916132e-06
9.26704155028e-06
9.26802553355e-06
9.26964011474e-06
9.27183346922e-06
9.27460840487e-06
9.27757936562e-06
9.2821597876e-06
9.27207817426e-06
9.26726564475e-06
9.26409940863e-06
9.26120710689e-06
9.25891928972e-06
9.25724267897e-06
9.2562236389e-06
9.25588211309e-06
9.25622684952e-06
9.25724903029e-06
9.25892864053e-06
9.26121921005e-06
9.2641139495e-06
9.26728189365e-06
9.27209809433e-06
9.26278332629e-06
9.2578165576e-06
9.25450805085e-06
9.25155130507e-06
9.24921042678e-06
9.24750087206e-06
9.24646316811e-06
9.24611573355e-06
9.24646625803e-06
9.2475069845e-06
9.24921942452e-06
9.25156295783e-06
9.25452202426e-06
9.25783225876e-06
9.26280282817e-06
9.25421955566e-06
9.24917308562e-06
9.24577391787e-06
9.24280239236e-06
9.24044805383e-06
9.23873374816e-06
9.23769449182e-06
9.23734685915e-06
9.23769749001e-06
9.23873968086e-06
9.24045679194e-06
9.24281371828e-06
9.24578749155e-06
9.24918844111e-06
9.25423888276e-06
9.24634633018e-06
9.2412879398e-06
9.2378492178e-06
9.23490793715e-06
9.2325755418e-06
9.23088106068e-06
9.22985507883e-06
9.22951218632e-06
9.2298580172e-06
9.23088687873e-06
9.23258412364e-06
9.23491908508e-06
9.23786258669e-06
9.24130319021e-06
9.24636576457e-06
9.23910549777e-06
9.23410664702e-06
9.23068606414e-06
9.2278168696e-06
9.22553754531e-06
9.22388403197e-06
9.22288405573e-06
9.22255017483e-06
9.22288696413e-06
9.22388980605e-06
9.22554608285e-06
9.22782800203e-06
9.23069945104e-06
9.23412206199e-06
9.23912532902e-06
9.2323912801e-06
9.22757305979e-06
9.22424719269e-06
9.22148664773e-06
9.21928545298e-06
9.21769040978e-06
9.21672739021e-06
9.21640621296e-06
9.21673030278e-06
9.21769619407e-06
9.21929405184e-06
9.22149792825e-06
9.22426084022e-06
9.22758893434e-06
9.23241181004e-06
9.22617998975e-06
9.22170301187e-06
9.21851127231e-06
9.2158749751e-06
9.21376610823e-06
9.21224406593e-06
9.2113282572e-06
9.21102348738e-06
9.21133118784e-06
9.21224991032e-06
9.21377485405e-06
9.21588656542e-06
9.21852543288e-06
9.22171971333e-06
9.22620136779e-06
9.22134375974e-06
9.21637796172e-06
9.21331229151e-06
9.210775693e-06
9.20877230818e-06
9.20734417727e-06
9.20649079267e-06
9.20620771229e-06
9.20649378177e-06
9.20735014867e-06
9.2087813004e-06
9.21078775591e-06
9.21332736111e-06
9.21639606699e-06
9.2213658583e-06
7.51356681932e-06
7.51389670723e-06
7.51412940684e-06
7.51432712453e-06
7.51448818101e-06
7.51460776557e-06
7.51468200457e-06
7.51470687725e-06
7.51468098362e-06
7.51460587196e-06
7.51448578724e-06
7.51432476196e-06
7.51412722927e-06
7.51389495668e-06
7.51356560662e-06
7.51510315783e-06
7.51548833819e-06
7.5157794517e-06
7.51603029634e-06
7.51623601558e-06
7.51638888794e-06
7.51648370562e-06
7.51651561319e-06
7.51648270531e-06
7.51638704143e-06
7.51623369741e-06
7.5160280487e-06
7.51577753134e-06
7.51548677865e-06
7.51510217622e-06
7.51669897849e-06
7.5171757024e-06
7.51754695501e-06
7.51787385015e-06
7.51814506237e-06
7.51834783178e-06
7.5184739582e-06
7.5185165922e-06
7.51847301775e-06
7.51834609101e-06
7.51814285054e-06
7.51787164152e-06
7.5175450751e-06
7.51717406649e-06
7.51669802128e-06
7.5184937683e-06
7.5191301383e-06
7.51963179623e-06
7.52007992815e-06
7.52045543787e-06
7.52073792241e-06
7.5209141366e-06
7.52097390276e-06
7.52091326745e-06
7.52073630496e-06
7.52045334558e-06
7.5200777565e-06
7.51962989501e-06
7.51912841703e-06
7.51849281608e-06
7.5207067873e-06
7.52157686684e-06
7.5222631755e-06
7.52287993631e-06
7.52339907678e-06
7.52379072648e-06
7.524035234e-06
7.52411828577e-06
7.52403443333e-06
7.52378923212e-06
7.5233971176e-06
7.52287785175e-06
7.52226128983e-06
7.52157511305e-06
7.5207058678e-06
7.52339123915e-06
7.52455709078e-06
7.52547024875e-06
7.52629111814e-06
7.52698224631e-06
7.52750370217e-06
7.52782899191e-06
7.52793950914e-06
7.52782826826e-06
7.52750234835e-06
7.52698045342e-06
7.52628916976e-06
7.5254684452e-06
7.5245553213e-06
7.52339043915e-06
7.52651907052e-06
7.52802410094e-06
7.5291905131e-06
7.53023540475e-06
7.53111326859e-06
7.53177457456e-06
7.53218639932e-06
7.53232624595e-06
7.53218575466e-06
7.53177336618e-06
7.53111165925e-06
7.53023362999e-06
7.52918884878e-06
7.52802238482e-06
7.52651842454e-06
7.5300316461e-06
7.53189835129e-06
7.53332831702e-06
7.53460153213e-06
7.535667578e-06
7.53646860882e-06
7.53696633764e-06
7.53713520156e-06
7.53696577526e-06
7.5364675547e-06
7.53566616776e-06
7.53459996195e-06
7.53332681814e-06
7.53189675328e-06
7.53003115736e-06
7.53385446365e-06
7.53608417903e-06
7.5377728699e-06
7.53926463682e-06
7.54050855944e-06
7.54144035598e-06
7.54201786667e-06
7.54221356928e-06
7.54201738195e-06
7.54143944978e-06
7.54050734659e-06
7.53926328574e-06
7.53777156722e-06
7.53608274426e-06
7.53385420268e-06
7.53790516194e-06
7.54047925925e-06
7.54240845387e-06
7.54409735029e-06
7.54549934165e-06
7.54654592583e-06
7.5471927818e-06
7.54741168593e-06
7.5471923679e-06
7.5465451555e-06
7.54549831537e-06
7.54409621328e-06
7.54240735476e-06
7.5404780164e-06
7.53790514493e-06
7.54209953208e-06
7.54498150798e-06
7.54712178899e-06
7.5489779004e-06
7.55051136183e-06
7.55165176263e-06
7.55235447797e-06
7.55259191389e-06
7.55235412045e-06
7.55165110122e-06
7.55051049111e-06
7.54897695696e-06
7.54712089158e-06
7.54498048086e-06
7.54209981441e-06
7.54635078897e-06
7.54949004374e-06
7.55180496038e-06
7.55379440143e-06
7.5554293076e-06
7.55663990423e-06
7.5573833342e-06
7.55763407627e-06
7.55738301067e-06
7.55663931281e-06
7.55542853958e-06
7.55379360016e-06
7.55180423007e-06
7.54948923889e-06
7.54635138073e-06
7.55056738509e-06
7.5539109191e-06
7.5563640187e-06
7.55845238654e-06
7.56015721579e-06
7.56141290927e-06
7.56218098097e-06
7.56243947614e-06
7.56218066454e-06
7.56141232504e-06
7.56015647481e-06
7.55845163878e-06
7.55636338643e-06
7.55391028532e-06
7.55056823319e-06
7.55474066598e-06
7.55824446337e-06
7.5607710016e-06
7.56290701839e-06
7.56463510162e-06
7.56589963627e-06
7.56666969358e-06
7.56692824293e-06
7.56666935037e-06
7.56589900645e-06
7.56463429432e-06
7.56290622819e-06
7.56077036725e-06
7.55824398479e-06
7.55474163771e-06
7.55933144085e-06
7.56256115233e-06
7.56502891854e-06
7.56711904132e-06
7.56878787735e-06
7.56999996308e-06
7.57073473593e-06
7.57098084163e-06
7.57073437485e-06
7.56999928619e-06
7.56878700616e-06
7.56711818224e-06
7.56502832168e-06
7.56256095863e-06
7.55933245633e-06
7.87636681046e-06
7.87624117272e-06
7.87610541174e-06
7.87596095579e-06
7.87582968514e-06
7.87572567814e-06
7.87565927221e-06
7.87563646443e-06
7.87565964358e-06
7.87572632391e-06
7.87583041195e-06
7.87596161777e-06
7.87610652583e-06
7.87624231793e-06
7.87636857025e-06
7.87641219758e-06
7.87629295373e-06
7.87616147086e-06
7.87602025019e-06
7.87589126602e-06
7.87578863034e-06
7.87572288975e-06
7.87570026629e-06
7.87572331014e-06
7.87578937716e-06
7.8758921442e-06
7.87602111501e-06
7.87616271706e-06
7.8762943402e-06
7.87641415152e-06
7.8766046012e-06
7.87649947649e-06
7.87638170694e-06
7.87625122009e-06
7.87613067803e-06
7.87603392472e-06
7.87597161525e-06
7.87595010792e-06
7.87597203483e-06
7.87603468222e-06
7.87613160816e-06
7.87625219475e-06
7.87638300827e-06
7.8765009422e-06
7.87660665152e-06
7.87674843297e-06
7.87664884717e-06
7.8765384815e-06
7.87641342763e-06
7.87629711096e-06
7.87620322649e-06
7.87614253936e-06
7.87612154882e-06
7.87614294207e-06
7.87620396735e-06
7.87629806592e-06
7.87641448267e-06
7.87653982419e-06
7.87665031084e-06
7.87675060258e-06
7.87682207984e-06
7.87672145409e-06
7.87661356224e-06
7.87649022413e-06
7.8763754232e-06
7.87628263489e-06
7.87622258762e-06
7.87620180619e-06
7.87622297913e-06
7.87628336364e-06
7.87637638903e-06
7.87649132994e-06
7.87661494946e-06
7.87672291514e-06
7.87682436691e-06
7.87685125391e-06
7.87674758311e-06
7.8766411276e-06
7.87651924333e-06
7.8764062428e-06
7.87631507085e-06
7.87625611108e-06
7.87623571399e-06
7.87625649056e-06
7.87631578568e-06
7.87640721541e-06
7.87652038924e-06
7.87664254347e-06
7.87674907722e-06
7.8768536242e-06
7.87685623906e-06
7.87675083605e-06
7.87664717778e-06
7.87652867132e-06
7.8764195586e-06
7.8763318599e-06
7.87627526703e-06
7.87625571226e-06
7.87627563623e-06
7.8763325605e-06
7.87642052917e-06
7.87652984208e-06
7.87664861213e-06
7.87675235641e-06
7.8768587143e-06
7.87685230057e-06
7.87674868571e-06
7.8766506227e-06
7.8765386095e-06
7.87643639785e-06
7.87635468444e-06
7.87630212239e-06
7.87628399451e-06
7.87630248187e-06
7.87635537197e-06
7.87643736748e-06
7.87653980693e-06
7.87665208517e-06
7.87675023747e-06
7.87685490452e-06
7.87685267261e-06
7.87675563754e-06
7.87666663591e-06
7.87656462166e-06
7.87647253039e-06
7.87639940492e-06
7.8763525684e-06
7.87633645769e-06
7.87635291901e-06
7.87640008091e-06
7.87647349704e-06
7.87656584101e-06
7.87666813214e-06
7.87675723262e-06
7.87685540371e-06
7.8768680971e-06
7.87678271921e-06
7.87670611528e-06
7.8766172545e-06
7.87653810866e-06
7.87647581936e-06
7.87643615221e-06
7.87642255881e-06
7.87643649613e-06
7.87647648695e-06
7.87653907762e-06
7.87661850211e-06
7.87670765553e-06
7.87678438033e-06
7.87687096118e-06
7.87690601725e-06
7.87683669008e-06
7.87677501138e-06
7.87670159625e-06
7.87663743742e-06
7.87658759932e-06
7.87655613418e-06
7.87654541105e-06
7.8765564717e-06
7.87658825859e-06
7.87663840657e-06
7.87670287012e-06
7.87677659521e-06
7.87683842388e-06
7.87690901679e-06
7.8769694325e-06
7.87691915011e-06
7.8768738474e-06
7.87681725248e-06
7.87676936537e-06
7.8767330237e-06
7.87671041247e-06
7.87670278667e-06
7.87671074217e-06
7.87673367303e-06
7.87677033254e-06
7.87681854586e-06
7.87687547157e-06
7.87692094862e-06
7.87697253979e-06
7.87705872884e-06
7.87702875715e-06
7.87699997484e-06
7.87696040077e-06
7.87692927469e-06
7.8769068659e-06
7.87689338774e-06
7.87688893476e-06
7.87689370705e-06
7.87690749774e-06
7.87693022383e-06
7.87696169694e-06
7.87700161988e-06
7.87703061046e-06
7.87706191693e-06
7.87719205736e-06
7.87718175866e-06
7.87716066468e-06
7.8771329113e-06
7.87711497026e-06
7.87710381178e-06
7.87709768688e-06
7.87709580581e-06
7.87709799225e-06
7.87710441006e-06
7.87711588601e-06
7.87713417846e-06
7.87716230303e-06
7.87718366176e-06
7.87719524578e-06
7.8774596581e-06
7.87739445043e-06
7.87735594766e-06
7.87732581124e-06
7.87731037326e-06
7.87730217151e-06
7.8772981209e-06
7.87729697346e-06
7.87729842381e-06
7.8773027735e-06
7.87731128851e-06
7.87732709879e-06
7.87735766068e-06
7.87739654112e-06
7.87746279742e-06
6.87448038199e-06
6.87456491622e-06
6.87465910587e-06
6.87475319773e-06
6.87483664771e-06
6.87490146418e-06
6.87494240706e-06
6.87495617899e-06
6.87494146346e-06
6.87489964712e-06
6.87483413201e-06
6.87475036146e-06
6.87465617502e-06
6.8745622994e-06
6.87447766997e-06
6.87452977213e-06
6.87461264145e-06
6.87470699713e-06
6.87480187572e-06
6.87488642726e-06
6.87495234759e-06
6.8749940936e-06
6.87500816546e-06
6.8749931201e-06
6.87495047598e-06
6.87488384865e-06
6.87479897968e-06
6.87470410176e-06
6.87461004334e-06
6.87452727382e-06
6.87447072852e-06
6.87454425168e-06
6.87463069246e-06
6.87471928653e-06
6.8747991564e-06
6.8748619248e-06
6.87490187261e-06
6.87491538797e-06
6.87490096178e-06
6.87486017298e-06
6.87479674014e-06
6.87471653813e-06
6.87462795479e-06
6.87454168798e-06
6.87446837001e-06
6.87440570226e-06
6.87447166812e-06
6.8745514116e-06
6.8746341467e-06
6.87470954401e-06
6.87476921984e-06
6.874807374e-06
6.8748203294e-06
6.87480654667e-06
6.87476762883e-06
6.87470734637e-06
6.8746316191e-06
6.87454886282e-06
6.87446921511e-06
6.87440347556e-06
6.87435411455e-06
6.87441444216e-06
6.87448914467e-06
6.87456687781e-06
6.87463830587e-06
6.87469512893e-06
6.87473159525e-06
6.87474401183e-06
6.87473084063e-06
6.87469367877e-06
6.87463629478e-06
6.87456454959e-06
6.8744867563e-06
6.87441210992e-06
6.8743520262e-06
6.87430777187e-06
6.87436319352e-06
6.87443343894e-06
6.8745063292e-06
6.8745737162e-06
6.87462754471e-06
6.87466219137e-06
6.87467402078e-06
6.8746615116e-06
6.87462623774e-06
6.87457190187e-06
6.87450421047e-06
6.87443124455e-06
6.87436096355e-06
6.87430588514e-06
6.87426201841e-06
6.87431282178e-06
6.87437902106e-06
6.874447115e-06
6.87451035404e-06
6.87456103295e-06
6.87459373255e-06
6.87460492372e-06
6.87459312256e-06
6.87455985814e-06
6.87450871967e-06
6.87444518892e-06
6.87437701102e-06
6.87431070385e-06
6.87426031817e-06
6.87421580689e-06
6.87426236677e-06
6.87432503035e-06
6.87438853931e-06
6.87444772272e-06
6.87449527214e-06
6.87452601876e-06
6.87453656257e-06
6.87452547687e-06
6.87449422784e-06
6.87444626359e-06
6.87438680441e-06
6.87432318772e-06
6.87426037261e-06
6.87421426082e-06
6.87416902028e-06
6.87421201396e-06
6.87427176585e-06
6.87433113633e-06
6.87438656296e-06
6.87443117992e-06
6.87446007812e-06
6.87447000401e-06
6.87445959727e-06
6.87443025199e-06
6.87438525985e-06
6.87432957288e-06
6.87427007549e-06
6.87421013587e-06
6.87416764235e-06
6.87412203921e-06
6.87416241125e-06
6.87421996911e-06
6.87427580376e-06
6.8743279256e-06
6.8743699393e-06
6.87439717807e-06
6.87440654608e-06
6.87439675304e-06
6.87436911656e-06
6.87432676501e-06
6.87427439475e-06
6.87421841599e-06
6.87416063711e-06
6.8741208153e-06
6.8740755519e-06
6.8741145321e-06
6.87417064192e-06
6.87422360594e-06
6.8742729514e-06
6.8743127417e-06
6.87433854558e-06
6.87434742219e-06
6.87433816773e-06
6.87431200954e-06
6.87427191246e-06
6.87422233595e-06
6.87416921667e-06
6.87411287177e-06
6.87407449451e-06
6.87402999842e-06
6.87406907034e-06
6.8741244861e-06
6.87417532026e-06
6.87422249709e-06
6.87426051347e-06
6.87428513289e-06
6.87429359889e-06
6.87428479338e-06
6.8742598548e-06
6.87422156239e-06
6.8741741681e-06
6.87412317894e-06
6.87406753124e-06
6.87402911925e-06
6.87398462603e-06
6.87402538332e-06
6.87408110582e-06
6.87413088958e-06
6.8741768875e-06
6.87421382203e-06
6.87423766575e-06
6.87424583684e-06
6.87423735532e-06
6.87421322335e-06
6.87417603037e-06
6.87412983794e-06
6.87407990299e-06
6.87402396876e-06
6.87398392125e-06
6.87394503566e-06
6.87398961589e-06
6.87404414995e-06
6.8740926223e-06
6.87413745835e-06
6.87417326179e-06
6.87419620843e-06
6.87420404855e-06
6.87419592595e-06
6.8741727059e-06
6.87413667039e-06
6.87409164826e-06
6.87404304217e-06
6.87398833484e-06
6.87394451626e-06
6.87398819816e-06
6.87401070577e-06
6.87404573897e-06
6.87407902609e-06
6.87411178301e-06
6.87413823274e-06
6.87415521772e-06
6.87416099953e-06
6.87415496504e-06
6.87413774285e-06
6.87411107686e-06
6.87407815993e-06
6.87404476783e-06
6.87400960748e-06
6.87398771209e-06
6.77283676151e-06
6.77277937307e-06
6.77271529658e-06
6.77264969552e-06
6.77259053725e-06
6.77254380991e-06
6.77251402929e-06
6.7725037426e-06
6.77251392826e-06
6.77254351084e-06
6.77258985685e-06
6.7726486778e-06
6.7727142495e-06
6.77277801026e-06
6.77283572295e-06
6.77281160043e-06
6.77275586725e-06
6.77269238967e-06
6.77262691973e-06
6.77256759433e-06
6.77252060028e-06
6.77249056975e-06
6.77248017791e-06
6.77249048705e-06
6.7725203412e-06
6.77256698406e-06
6.77262597224e-06
6.77269139419e-06
6.77275466456e-06
6.77281068042e-06
6.77285752372e-06
6.77280810646e-06
6.77275029149e-06
6.77268928525e-06
6.77263341915e-06
6.7725888411e-06
6.77256020989e-06
6.77255026865e-06
6.7725601262e-06
6.77258859655e-06
6.77263286728e-06
6.77268842296e-06
6.77274933111e-06
6.77280697481e-06
6.77285662337e-06
6.77290523557e-06
6.7728604289e-06
6.77280709898e-06
6.7727498157e-06
6.77269687225e-06
6.77265436048e-06
6.77262692508e-06
6.77261736935e-06
6.77262683423e-06
6.7726541209e-06
6.77269637377e-06
6.77274903055e-06
6.77280617571e-06
6.77285930948e-06
6.77290436592e-06
6.77294119094e-06
6.7728991809e-06
6.77284888064e-06
6.7727943206e-06
6.77274356576e-06
6.77270262003e-06
6.77267610148e-06
6.77266684451e-06
6.77267600561e-06
6.77270238229e-06
6.77274309768e-06
6.772793586e-06
6.77284799122e-06
6.77289805571e-06
6.77294035838e-06
6.77297040526e-06
6.772930183e-06
6.7728822448e-06
6.77282996448e-06
6.77278114044e-06
6.77274163584e-06
6.77271598352e-06
6.77270701406e-06
6.77271588114e-06
6.77274139521e-06
6.77278069395e-06
6.77282926882e-06
6.77288137996e-06
6.77292908994e-06
6.77296958104e-06
6.77299599523e-06
6.77295707396e-06
6.77291112682e-06
6.77286094722e-06
6.77281401422e-06
6.77277598318e-06
6.77275125095e-06
6.77274259428e-06
6.77275114216e-06
6.77277573649e-06
6.7728135762e-06
6.77286027625e-06
6.77291027426e-06
6.77295600307e-06
6.77299520646e-06
6.77301923342e-06
6.77298135123e-06
6.77293719985e-06
6.77288909724e-06
6.77284414068e-06
6.77280771698e-06
6.77278402082e-06
6.77277572295e-06
6.77278390532e-06
6.77280746312e-06
6.77284370867e-06
6.77288845184e-06
6.77293637357e-06
6.77298030927e-06
6.77301851624e-06
6.77304121798e-06
6.77300428917e-06
6.77296190614e-06
6.77291597909e-06
6.77287318611e-06
6.7728385832e-06
6.77281609247e-06
6.77280821782e-06
6.7728159711e-06
6.77283832316e-06
6.77287275699e-06
6.77291535434e-06
6.77296111048e-06
6.77300328273e-06
6.77304058002e-06
6.77306303257e-06
6.7730271093e-06
6.77298659164e-06
6.77294302791e-06
6.77290267417e-06
6.772870178e-06
6.772849104e-06
6.7728417335e-06
6.77284897924e-06
6.77286991484e-06
6.77290225328e-06
6.77294243108e-06
6.77298583898e-06
6.77302616001e-06
6.7730624858e-06
6.77308558643e-06
6.77305080547e-06
6.77301229455e-06
6.77297132571e-06
6.77293374311e-06
6.77290368171e-06
6.77288426954e-06
6.77287749105e-06
6.77288414336e-06
6.77290342006e-06
6.77293333208e-06
6.77297075966e-06
6.77301158624e-06
6.77304991945e-06
6.7730851396e-06
6.77310962034e-06
6.77307599742e-06
6.77303954709e-06
6.77300139818e-06
6.77296693952e-06
6.77293968285e-06
6.77292218933e-06
6.77291610422e-06
6.77292206507e-06
6.77293942656e-06
6.7729665485e-06
6.77300086568e-06
6.77303888891e-06
6.77307516917e-06
6.77310926356e-06
6.77313645534e-06
6.77310338896e-06
6.77306868632e-06
6.7730333881e-06
6.77300232879e-06
6.77297815119e-06
6.77296280258e-06
6.77295747595e-06
6.77296268256e-06
6.77297791182e-06
6.77300195648e-06
6.77303290001e-06
6.77306807781e-06
6.77310262367e-06
6.77313619108e-06
6.77316725526e-06
6.77313356471e-06
6.77310009069e-06
6.77306752026e-06
6.77303989954e-06
6.77301887966e-06
6.7730056733e-06
6.773001134e-06
6.77300556614e-06
6.77301865288e-06
6.77303956548e-06
6.77306706866e-06
6.77309953923e-06
6.7731328596e-06
6.77316707524e-06
6.77318324276e-06
6.77315485058e-06
6.77312536288e-06
6.77309838366e-06
6.77307639535e-06
6.77305990105e-06
6.77304963376e-06
6.77304611053e-06
6.77304954296e-06
6.7730597186e-06
6.77307611117e-06
6.77309801151e-06
6.77312489716e-06
6.77315424289e-06
6.77318304899e-06
6.08113817633e-06
6.08117462397e-06
6.08121502755e-06
6.08125609089e-06
6.08129272012e-06
6.08132134642e-06
6.08133941123e-06
6.08134537536e-06
6.08133864678e-06
6.08131988284e-06
6.08129069802e-06
6.08125371647e-06
6.08121245455e-06
6.08117218569e-06
6.08113548098e-06
6.08115127962e-06
6.08118671661e-06
6.08122678838e-06
6.0812678323e-06
6.08130461213e-06
6.08133345074e-06
6.08135169053e-06
6.08135772021e-06
6.08135089845e-06
6.08133193637e-06
6.08130252949e-06
6.08126540778e-06
6.08122421657e-06
6.0811842644e-06
6.08114872058e-06
6.08111796234e-06
6.08114919577e-06
6.08118546445e-06
6.08122355568e-06
6.08125808667e-06
6.08128540011e-06
6.08130276792e-06
6.08130853136e-06
6.08130201813e-06
6.08128396432e-06
6.08125610446e-06
6.0812212212e-06
6.08118298194e-06
6.08114673013e-06
6.0811154593e-06
6.08108349555e-06
6.08111150035e-06
6.08114466898e-06
6.08118020395e-06
6.08121278545e-06
6.08123876476e-06
6.08125537008e-06
6.08126090452e-06
6.0812546753e-06
6.08123743124e-06
6.081210936e-06
6.08117800518e-06
6.08114229861e-06
6.08110909238e-06
6.08108102985e-06
6.0810563384e-06
6.08108220793e-06
6.08111315842e-06
6.08114671238e-06
6.08117774977e-06
6.08120264644e-06
6.08121862941e-06
6.0812239746e-06
6.08121798246e-06
6.08120140293e-06
6.08117601419e-06
6.08114463189e-06
6.08111087505e-06
6.0810798624e-06
6.08105391801e-06
6.081033028e-06
6.08105733063e-06
6.08108640474e-06
6.08111821202e-06
6.08114780919e-06
6.08117165743e-06
6.08118701701e-06
6.08119216959e-06
6.0811864155e-06
6.08117049886e-06
6.08114618571e-06
6.08111625233e-06
6.081084235e-06
6.08105503407e-06
6.08103070797e-06
6.08101150171e-06
6.08103446216e-06
6.08106185231e-06
6.08109197065e-06
6.08112010073e-06
6.08114283811e-06
6.08115751692e-06
6.08116245277e-06
6.08115695792e-06
6.08114175806e-06
6.08111857961e-06
6.0810901176e-06
6.08105978454e-06
6.08103221784e-06
6.08100927064e-06
6.08099094019e-06
6.08101264139e-06
6.08103846103e-06
6.08106688147e-06
6.08109348252e-06
6.08111501988e-06
6.08112894521e-06
6.08113363397e-06
6.08112842567e-06
6.0811140138e-06
6.0810920579e-06
6.08106513205e-06
6.08103648623e-06
6.08101046302e-06
6.08098877616e-06
6.08097067442e-06
6.08099117512e-06
6.0810154636e-06
6.08104214821e-06
6.08106713092e-06
6.08108736274e-06
6.0811004516e-06
6.08110485997e-06
6.08109996724e-06
6.08108642263e-06
6.08106579083e-06
6.08104048849e-06
6.08101356739e-06
6.08098905372e-06
6.08096859706e-06
6.08095015555e-06
6.08096944481e-06
6.08099221034e-06
6.08101711539e-06
6.08104038758e-06
6.08105921335e-06
6.08107138292e-06
6.08107547991e-06
6.08107093088e-06
6.08105833225e-06
6.08103912595e-06
6.0810155371e-06
6.0809903861e-06
6.08096737457e-06
6.08094816066e-06
6.08092894144e-06
6.08094702295e-06
6.08096829748e-06
6.08099139543e-06
6.08101288403e-06
6.08103020595e-06
6.08104138235e-06
6.08104513544e-06
6.08104095789e-06
6.08102937737e-06
6.08101168918e-06
6.08098989171e-06
6.08096653991e-06
6.080945011e-06
6.08092704786e-06
6.0809067322e-06
6.08092369036e-06
6.08094357121e-06
6.08096489502e-06
6.08098454921e-06
6.08100030187e-06
6.08101041596e-06
6.08101380307e-06
6.08101001693e-06
6.08099951786e-06
6.08098341949e-06
6.08096345797e-06
6.0809418807e-06
6.08092174557e-06
6.08090495549e-06
6.0808828299e-06
6.08089900293e-06
6.08091784043e-06
6.08093759722e-06
6.08095552645e-06
6.08096971453e-06
6.08097877487e-06
6.08098177906e-06
6.08097839691e-06
6.08096897986e-06
6.08095444977e-06
6.08093623359e-06
6.08091621779e-06
6.08089713605e-06
6.08088118127e-06
6.08085653411e-06
6.08087277189e-06
6.0808910926e-06
6.08090965399e-06
6.08092602451e-06
6.08093878648e-06
6.08094682669e-06
6.08094948299e-06
6.08094647609e-06
6.08093808788e-06
6.08092501538e-06
6.08090835208e-06
6.08088954816e-06
6.08087099049e-06
6.08085505628e-06
6.08084219377e-06
6.08085604968e-06
6.08087149672e-06
6.0808863848e-06
6.08089919592e-06
6.08090902426e-06
6.08091517059e-06
6.08091716347e-06
6.08091483936e-06
6.08090837518e-06
6.0808982395e-06
6.08088515732e-06
6.08087002164e-06
6.0808543364e-06
6.08084074597e-06
5.77274173561e-06
5.77271816637e-06
5.77269124422e-06
5.77266380066e-06
5.77263928205e-06
5.77262005459e-06
5.77260778449e-06
5.77260353428e-06
5.77260772621e-06
5.77261993111e-06
5.77263907951e-06
5.77266342821e-06
5.77269060594e-06
5.77271717011e-06
5.77274107742e-06
5.77272944411e-06
5.77270642989e-06
5.77267965702e-06
5.77265216811e-06
5.77262748787e-06
5.77260806539e-06
5.77259564406e-06
5.77259133515e-06
5.7725955939e-06
5.77260795814e-06
5.77262730165e-06
5.77265181085e-06
5.7726790256e-06
5.77270548965e-06
5.77272879419e-06
5.77274639175e-06
5.77272586945e-06
5.77270138248e-06
5.77267567657e-06
5.77265233399e-06
5.77263381712e-06
5.77262191914e-06
5.77261777888e-06
5.77262186564e-06
5.77263370076e-06
5.77265213016e-06
5.77267530504e-06
5.77270074325e-06
5.77272498692e-06
5.77274572799e-06
5.77276454893e-06
5.77274592884e-06
5.7727232701e-06
5.77269911227e-06
5.77267693205e-06
5.77265920858e-06
5.77264777259e-06
5.77264378162e-06
5.7726477111e-06
5.77265907264e-06
5.7726766925e-06
5.77269870097e-06
5.77272261457e-06
5.77274504872e-06
5.77276388858e-06
5.77277839404e-06
5.77276100749e-06
5.77273962116e-06
5.77271665027e-06
5.77269538672e-06
5.77267830633e-06
5.77266724828e-06
5.77266337964e-06
5.77266717705e-06
5.77267814963e-06
5.7726951142e-06
5.77271620185e-06
5.77273895043e-06
5.77276011245e-06
5.77277772531e-06
5.77279001839e-06
5.7727734933e-06
5.7727531688e-06
5.77273125299e-06
5.7727108495e-06
5.77269439816e-06
5.77268372007e-06
5.77267997576e-06
5.77268363686e-06
5.77269421678e-06
5.77271053897e-06
5.77273076208e-06
5.77275247359e-06
5.77277260839e-06
5.77278931205e-06
5.7728006771e-06
5.77278487907e-06
5.77276549461e-06
5.77274459065e-06
5.77272506866e-06
5.77270929113e-06
5.77269903216e-06
5.77269542707e-06
5.77269893698e-06
5.77270908614e-06
5.77272472526e-06
5.77274406644e-06
5.77276477487e-06
5.77278400048e-06
5.77279995493e-06
5.77281084097e-06
5.77279570354e-06
5.7727771815e-06
5.77275729752e-06
5.77273870594e-06
5.77272366385e-06
5.77271387286e-06
5.77271042606e-06
5.77271376583e-06
5.7727234361e-06
5.77273833319e-06
5.77275674902e-06
5.77277645415e-06
5.77279483721e-06
5.77281013775e-06
5.77282087861e-06
5.77280635054e-06
5.77278865654e-06
5.77276981694e-06
5.77275221753e-06
5.7727379848e-06
5.77272871923e-06
5.77272545382e-06
5.7727286028e-06
5.77273774027e-06
5.77275182573e-06
5.77276925668e-06
5.77278793557e-06
5.77280550614e-06
5.77282020185e-06
5.77283108363e-06
5.77281712879e-06
5.77280025863e-06
5.7727825006e-06
5.77276596847e-06
5.77275262398e-06
5.77274394527e-06
5.77274088426e-06
5.77274382243e-06
5.77275236905e-06
5.77276556731e-06
5.7727819437e-06
5.77279956059e-06
5.77281632607e-06
5.77283044975e-06
5.77284166076e-06
5.7728282411e-06
5.77281219001e-06
5.77279555119e-06
5.77278016075e-06
5.77276778802e-06
5.77275975936e-06
5.77275692852e-06
5.77275963488e-06
5.77276753074e-06
5.77277976294e-06
5.77279501023e-06
5.77281152407e-06
5.7728274865e-06
5.77284107858e-06
5.77285276675e-06
5.77283977369e-06
5.77282450155e-06
5.77280900318e-06
5.77279482241e-06
5.77278349731e-06
5.77277618075e-06
5.77277360406e-06
5.77277605841e-06
5.77278324865e-06
5.77279443863e-06
5.77280849086e-06
5.77282387881e-06
5.77283906538e-06
5.77285223335e-06
5.77286476953e-06
5.77285191634e-06
5.77283726344e-06
5.77282283543e-06
5.77280985475e-06
5.77279960566e-06
5.77279302487e-06
5.77279071699e-06
5.77279291174e-06
5.77279937062e-06
5.77280949908e-06
5.77282236126e-06
5.77283668859e-06
5.77285125919e-06
5.77286428971e-06
5.77287729158e-06
5.77286408878e-06
5.77285009127e-06
5.77283674773e-06
5.77282500536e-06
5.77281586019e-06
5.77281004761e-06
5.77280801801e-06
5.77280994665e-06
5.772815652e-06
5.77282468549e-06
5.77283632453e-06
5.77284957348e-06
5.77286348653e-06
5.77287687559e-06
5.77287753555e-06
5.7728680583e-06
5.77285731676e-06
5.77284723796e-06
5.7728384369e-06
5.77283163052e-06
5.77282732148e-06
5.77282582162e-06
5.77282723763e-06
5.77283145575e-06
5.77283816721e-06
5.77284687733e-06
5.77285686572e-06
5.77286751054e-06
5.77287714674e-06
5.22120087907e-06
5.22121525034e-06
5.22123141886e-06
5.22124783104e-06
5.22126247664e-06
5.22127394486e-06
5.22128121959e-06
5.22128363668e-06
5.22128093148e-06
5.22127336672e-06
5.2212616086e-06
5.22124674765e-06
5.22123023919e-06
5.22121426959e-06
5.22119992458e-06
5.22120477082e-06
5.22121878144e-06
5.22123473371e-06
5.22125106531e-06
5.22126570501e-06
5.22127721043e-06
5.22128452576e-06
5.22128695647e-06
5.22128422043e-06
5.22127659897e-06
5.22126479012e-06
5.22124992479e-06
5.22123350495e-06
5.22121772538e-06
5.2212038755e-06
5.2211914492e-06
5.22120387033e-06
5.22121832105e-06
5.22123351872e-06
5.22124730009e-06
5.22125822977e-06
5.2212652103e-06
5.22126753517e-06
5.2212649124e-06
5.22125763479e-06
5.22124641673e-06
5.22123241071e-06
5.22121712598e-06
5.22120277182e-06
5.22119054233e-06
5.22117811657e-06
5.22118931676e-06
5.22120258374e-06
5.22121681489e-06
5.22122987457e-06
5.22124031865e-06
5.22124701807e-06
5.2212492552e-06
5.22124673281e-06
5.22123975046e-06
5.22122903532e-06
5.22121575446e-06
5.22120141426e-06
5.22118820334e-06
5.22117715258e-06
5.22116780437e-06
5.22117821615e-06
5.22119065139e-06
5.22120414587e-06
5.22121664818e-06