/*--------------------------------*- C++ -*----------------------------------*\
  =========                 |
  \\      /  F ield         | OpenFOAM: The Open Source CFD Toolbox
   \\    /   O peration     | Website:  https://openfoam.org
    \\  /    A nd           | Version:  7
     \\/     M anipulation  |
\*---------------------------------------------------------------------------*/
FoamFile
{
    version     2.0;
    format      ascii;
    class       volScalarField;
    location    "2.44";
    object      p;
}
// * * * * * * * * * * * * * * * * * * * * * * * * * * * * * * * * * * * * * //

dimensions      [0 2 -2 0 0 0 0];

internalField   nonuniform List<scalar> 
22500
(
-3.48800179255e-05
-3.4880883193e-05
-3.48814441441e-05
-3.4882340298e-05
-3.48836130797e-05
-3.48848410367e-05
-3.48857214186e-05
-3.48860723634e-05
-3.48858641861e-05
-3.48851236913e-05
-3.48840283186e-05
-3.48828789142e-05
-3.48820934742e-05
-3.48816329032e-05
-3.48808701734e-05
-3.49043679181e-05
-3.49062582151e-05
-3.49078265597e-05
-3.49094634802e-05
-3.49112593974e-05
-3.49128450363e-05
-3.49139389362e-05
-3.49143664731e-05
-3.4914089712e-05
-3.49131434455e-05
-3.49116981376e-05
-3.49100331316e-05
-3.49085148519e-05
-3.49070541878e-05
-3.49052748694e-05
-3.4926644218e-05
-3.49295168616e-05
-3.49317728051e-05
-3.49339905816e-05
-3.49361843501e-05
-3.49380293612e-05
-3.4939272943e-05
-3.49397541144e-05
-3.49394322729e-05
-3.49383449019e-05
-3.49366487501e-05
-3.49345943047e-05
-3.49325034324e-05
-3.4930362379e-05
-3.49276042004e-05
-3.49441182715e-05
-3.49474870225e-05
-3.494977975e-05
-3.49520532249e-05
-3.49541939219e-05
-3.49559439073e-05
-3.49571082362e-05
-3.49575628418e-05
-3.49572747703e-05
-3.49562742785e-05
-3.49546808797e-05
-3.49526872781e-05
-3.49505478361e-05
-3.49483772169e-05
-3.4945120375e-05
-3.4956272605e-05
-3.49591576837e-05
-3.49606001501e-05
-3.49620740398e-05
-3.49634144533e-05
-3.49644827191e-05
-3.49651922106e-05
-3.49654904816e-05
-3.49653656449e-05
-3.49648271609e-05
-3.4963922531e-05
-3.49627362041e-05
-3.49614025004e-05
-3.49600892094e-05
-3.49573104725e-05
-3.49615130461e-05
-3.49624251304e-05
-3.49618856433e-05
-3.49614276336e-05
-3.4960998116e-05
-3.49606368155e-05
-3.49604194623e-05
-3.49603998373e-05
-3.49606000146e-05
-3.4960995502e-05
-3.49615273235e-05
-3.49621174185e-05
-3.49627211751e-05
-3.4963395838e-05
-3.49625838876e-05
-3.49580228485e-05
-3.49551427853e-05
-3.49513535244e-05
-3.49477185283e-05
-3.49444765014e-05
-3.49418970323e-05
-3.4940261903e-05
-3.49397575997e-05
-3.49404499469e-05
-3.49422705502e-05
-3.49450274247e-05
-3.49484361953e-05
-3.49522219203e-05
-3.49561514671e-05
-3.49591269678e-05
-3.4944349848e-05
-3.49357902571e-05
-3.4927493025e-05
-3.49195081555e-05
-3.49124927318e-05
-3.49069844229e-05
-3.49034957736e-05
-3.49023599782e-05
-3.4903691694e-05
-3.49073734103e-05
-3.49130660665e-05
-3.49202542065e-05
-3.492839452e-05
-3.49368358975e-05
-3.49454890469e-05
-3.49196112778e-05
-3.49036762552e-05
-3.48897663494e-05
-3.48764873955e-05
-3.48649454969e-05
-3.48559690554e-05
-3.48503035769e-05
-3.48484286323e-05
-3.48505074713e-05
-3.48563736119e-05
-3.48655412885e-05
-3.48772616084e-05
-3.48907005813e-05
-3.4904757436e-05
-3.49207872805e-05
-3.48835663475e-05
-3.48589529873e-05
-3.48385953429e-05
-3.48194107006e-05
-3.48028783348e-05
-3.479012275e-05
-3.47821036798e-05
-3.47794323394e-05
-3.47823152012e-05
-3.4790542168e-05
-3.48034955192e-05
-3.48202116968e-05
-3.48395607138e-05
-3.48600674041e-05
-3.48847791839e-05
-3.48365953309e-05
-3.48025212815e-05
-3.47752373991e-05
-3.47499157795e-05
-3.47282502221e-05
-3.47116512154e-05
-3.4701258071e-05
-3.46977865178e-05
-3.4701476347e-05
-3.47120838109e-05
-3.47288864158e-05
-3.47507406285e-05
-3.47762307022e-05
-3.48036652998e-05
-3.4837843217e-05
-3.47794708683e-05
-3.47358723174e-05
-3.47016489689e-05
-3.46703388126e-05
-3.46437025168e-05
-3.46234244336e-05
-3.46107805839e-05
-3.46065539698e-05
-3.46110042568e-05
-3.46238675565e-05
-3.46443540485e-05
-3.46711831227e-05
-3.47026653743e-05
-3.4737040856e-05
-3.47807498674e-05
-3.47128019045e-05
-3.46608519105e-05
-3.46202538778e-05
-3.45834398387e-05
-3.45522778361e-05
-3.45287094465e-05
-3.45140828449e-05
-3.45091963793e-05
-3.45143098753e-05
-3.45291593186e-05
-3.4552939412e-05
-3.458429736e-05
-3.46212866373e-05
-3.46620382636e-05
-3.4714104906e-05
-3.46381444939e-05
-3.45795557244e-05
-3.45333353666e-05
-3.44917143172e-05
-3.44568179949e-05
-3.44306735109e-05
-3.44145502898e-05
-3.44091737062e-05
-3.44147773012e-05
-3.44311235164e-05
-3.44574803355e-05
-3.44925738411e-05
-3.45343725717e-05
-3.4580749205e-05
-3.46394605655e-05
-3.4565547787e-05
-3.44962820181e-05
-3.4444174429e-05
-3.43979682152e-05
-3.43601004162e-05
-3.433212337e-05
-3.43150071097e-05
-3.43093156554e-05
-3.43152302039e-05
-3.43325659384e-05
-3.43607526633e-05
-3.4398816243e-05
-3.4445200606e-05
-3.44974676706e-05
-3.45668596447e-05
-4.68843629499e-05
-4.68813396054e-05
-4.68772977237e-05
-4.68734793656e-05
-4.68700135409e-05
-4.68672952834e-05
-4.68655494224e-05
-4.68649300952e-05
-4.68654893045e-05
-4.68671747466e-05
-4.68698323205e-05
-4.68732378772e-05
-4.68769997329e-05
-4.6880992218e-05
-4.68839697068e-05
-4.68751982047e-05
-4.68729206486e-05
-4.68695655826e-05
-4.68664238593e-05
-4.68635412462e-05
-4.68612698833e-05
-4.68598039021e-05
-4.685927896e-05
-4.68597415339e-05
-4.6861144807e-05
-4.68633533444e-05
-4.68661736155e-05
-4.68692564495e-05
-4.68725609987e-05
-4.68747903592e-05
-4.68767760452e-05
-4.68761654145e-05
-4.68742516854e-05
-4.68724149457e-05
-4.68705921091e-05
-4.68691025751e-05
-4.68681137486e-05
-4.68677487142e-05
-4.68680506603e-05
-4.68689760527e-05
-4.6870402274e-05
-4.68721625044e-05
-4.68739394783e-05
-4.68758023078e-05
-4.68763614207e-05
-4.68877007395e-05
-4.68886579333e-05
-4.68879636609e-05
-4.68871268101e-05
-4.68860499079e-05
-4.68850711879e-05
-4.6884377738e-05
-4.68841096067e-05
-4.68843172242e-05
-4.68849492158e-05
-4.68858665453e-05
-4.68868827277e-05
-4.68876609117e-05
-4.6888304732e-05
-4.68872930763e-05
-4.69003296776e-05
-4.69017877869e-05
-4.69013293682e-05
-4.69005553459e-05
-4.68994339763e-05
-4.68983665358e-05
-4.6897595538e-05
-4.68972980305e-05
-4.68975388072e-05
-4.68982517597e-05
-4.68992612957e-05
-4.69003252672e-05
-4.69010433892e-05
-4.69014531215e-05
-4.68999393383e-05
-4.69097870254e-05
-4.6910544914e-05
-4.69093903653e-05
-4.69078658718e-05
-4.69060628757e-05
-4.69044499479e-05
-4.69033282011e-05
-4.69029105385e-05
-4.69032754152e-05
-4.69043430744e-05
-4.69059021063e-05
-4.69076516396e-05
-4.69091237346e-05
-4.69102324763e-05
-4.6909419224e-05
-4.69143835414e-05
-4.69135797124e-05
-4.69111815984e-05
-4.69084667048e-05
-4.69056623869e-05
-4.6903287801e-05
-4.69016912518e-05
-4.69011132169e-05
-4.69016425194e-05
-4.69031890744e-05
-4.69055138196e-05
-4.69082686499e-05
-4.69109347695e-05
-4.69132900955e-05
-4.69140404993e-05
-4.69141148552e-05
-4.69112608555e-05
-4.69073751531e-05
-4.69032933177e-05
-4.68993689913e-05
-4.68961576864e-05
-4.6894045367e-05
-4.68932941316e-05
-4.6894000783e-05
-4.68960672534e-05
-4.68992327634e-05
-4.69031114944e-05
-4.69071481878e-05
-4.69109938168e-05
-4.6913797466e-05
-4.69095852518e-05
-4.69044489209e-05
-4.68989822437e-05
-4.68934808625e-05
-4.68884052325e-05
-4.68843408836e-05
-4.68817056333e-05
-4.68807794145e-05
-4.68816653415e-05
-4.68842589973e-05
-4.68882816247e-05
-4.68933154705e-05
-4.68987751992e-05
-4.69042043074e-05
-4.69092935464e-05
-4.69015061341e-05
-4.6894012474e-05
-4.68869375713e-05
-4.68800220813e-05
-4.68738068089e-05
-4.68689043141e-05
-4.68657582667e-05
-4.68646618313e-05
-4.68657224119e-05
-4.68688312473e-05
-4.68736961578e-05
-4.68798734668e-05
-4.68867507137e-05
-4.68937903955e-05
-4.69012403237e-05
-4.68905278284e-05
-4.6880707222e-05
-4.68720389014e-05
-4.68637557626e-05
-4.68564492698e-05
-4.68507539304e-05
-4.68471294215e-05
-4.68458746221e-05
-4.68470981322e-05
-4.685068993e-05
-4.68563518899e-05
-4.68636242266e-05
-4.68718724547e-05
-4.6880507842e-05
-4.68902878134e-05
-4.68772331186e-05
-4.68651949824e-05
-4.6854984903e-05
-4.6845417143e-05
-4.68371070973e-05
-4.68306986608e-05
-4.68266513863e-05
-4.68252582347e-05
-4.68266247365e-05
-4.68306438535e-05
-4.68370231711e-05
-4.68453028651e-05
-4.68548389798e-05
-4.686501833e-05
-4.68770187681e-05
-4.68622021198e-05
-4.68480770797e-05
-4.68363940795e-05
-4.68256587079e-05
-4.68164776904e-05
-4.68094761561e-05
-4.68050885391e-05
-4.68035863688e-05
-4.68050665101e-05
-4.68094305649e-05
-4.6816407202e-05
-4.68255616815e-05
-4.68362685726e-05
-4.68479230712e-05
-4.68620131429e-05
-4.68457749058e-05
-4.68296322503e-05
-4.68166481551e-05
-4.68049564502e-05
-4.67951378448e-05
-4.67877420988e-05
-4.67831448197e-05
-4.67815790688e-05
-4.67831273622e-05
-4.67877055883e-05
-4.67950807428e-05
-4.6804876586e-05
-4.68165430164e-05
-4.68295006081e-05
-4.68456111038e-05
-4.68264155253e-05
-4.68097568703e-05
-4.67959196499e-05
-4.678369466e-05
-4.67736595551e-05
-4.67661993461e-05
-4.67615990138e-05
-4.67600397955e-05
-4.67615859896e-05
-4.67661717528e-05
-4.67736156363e-05
-4.67836319568e-05
-4.67958347424e-05
-4.68096468663e-05
-4.68262768538e-05
-3.48305766576e-05
-3.48324686497e-05
-3.48346517898e-05
-3.48369185432e-05
-3.48389731839e-05
-3.48405957736e-05
-3.484162896e-05
-3.48419756539e-05
-3.4841598512e-05
-3.48405360768e-05
-3.4838886616e-05
-3.48368080127e-05
-3.48345176312e-05
-3.48323156473e-05
-3.48304069096e-05
-3.48319093277e-05
-3.48337622806e-05
-3.48359375778e-05
-3.48382061786e-05
-3.48402714725e-05
-3.48419080481e-05
-3.48429530102e-05
-3.48433045473e-05
-3.48429223909e-05
-3.48418479193e-05
-3.48401842536e-05
-3.48380948095e-05
-3.48358030311e-05
-3.48336084131e-05
-3.48317390401e-05
-3.48312057438e-05
-3.48329029302e-05
-3.48349416708e-05
-3.48371053343e-05
-3.48390949593e-05
-3.48406823396e-05
-3.48417003013e-05
-3.48420434151e-05
-3.48416697527e-05
-3.48406223653e-05
-3.48390078403e-05
-3.4836993945e-05
-3.48348075787e-05
-3.48327493819e-05
-3.48310360062e-05
-3.48304069224e-05
-3.48320288979e-05
-3.48339904186e-05
-3.4836097489e-05
-3.48380505243e-05
-3.48396174582e-05
-3.4840626004e-05
-3.48409664247e-05
-3.48405953569e-05
-3.4839557532e-05
-3.48379634954e-05
-3.48359861817e-05
-3.48338568845e-05
-3.48318761533e-05
-3.48302379987e-05
-3.48300677269e-05
-3.48317080896e-05
-3.48336657878e-05
-3.48357762554e-05
-3.48377400935e-05
-3.48393207306e-05
-3.48403405518e-05
-3.48406853236e-05
-3.48403101292e-05
-3.48392613647e-05
-3.48376538259e-05
-3.48356658123e-05
-3.48335334055e-05
-3.48315567466e-05
-3.48299002845e-05
-3.48301541533e-05
-3.48318850983e-05
-3.48338914826e-05
-3.48360482383e-05
-3.48380552143e-05
-3.48396718353e-05
-3.48407158979e-05
-3.48410693342e-05
-3.48406859468e-05
-3.48396133936e-05
-3.48379701869e-05
-3.48359392467e-05
-3.48337609073e-05
-3.48317355714e-05
-3.48299889361e-05
-3.48306260775e-05
-3.48325058443e-05
-3.48346004521e-05
-3.48368339766e-05
-3.483890543e-05
-3.48405715564e-05
-3.48416470911e-05
-3.48420114588e-05
-3.48416177594e-05
-3.48405143157e-05
-3.4838822068e-05
-3.48367269731e-05
-3.48344722244e-05
-3.48323587405e-05
-3.48304634421e-05
-3.48314669367e-05
-3.48335404222e-05
-3.48357505824e-05
-3.48380787962e-05
-3.48402248101e-05
-3.48419449763e-05
-3.48430534259e-05
-3.48434289894e-05
-3.48430248598e-05
-3.48418892034e-05
-3.48401434841e-05
-3.4837974225e-05
-3.48356251453e-05
-3.48333962696e-05
-3.48313071553e-05
-3.48326434689e-05
-3.48349386669e-05
-3.48372775064e-05
-3.48397038667e-05
-3.48419219349e-05
-3.48436908492e-05
-3.48448273859e-05
-3.48452122547e-05
-3.48447997236e-05
-3.48436367983e-05
-3.48418430167e-05
-3.48396021844e-05
-3.48371553057e-05
-3.48347979581e-05
-3.48324869377e-05
-3.4834102923e-05
-3.48366291619e-05
-3.48390955297e-05
-3.48416093926e-05
-3.48438848308e-05
-3.48456877971e-05
-3.48468416737e-05
-3.48472319315e-05
-3.48468150302e-05
-3.48456356886e-05
-3.48438086255e-05
-3.48415109792e-05
-3.4838976983e-05
-3.48364923403e-05
-3.48339499894e-05
-3.48357828563e-05
-3.48385317957e-05
-3.48411121379e-05
-3.48436911682e-05
-3.48459991462e-05
-3.48478136678e-05
-3.48489692054e-05
-3.4849359267e-05
-3.48489436867e-05
-3.48477637062e-05
-3.48459259581e-05
-3.48435964076e-05
-3.48409976998e-05
-3.48383993837e-05
-3.48356339607e-05
-3.48376153436e-05
-3.48405654268e-05
-3.48432386211e-05
-3.48458536559e-05
-3.48481627399e-05
-3.48499609112e-05
-3.48510990345e-05
-3.48514821046e-05
-3.48510747337e-05
-3.48499132651e-05
-3.48480928158e-05
-3.48457628945e-05
-3.48431287076e-05
-3.484043797e-05
-3.483747111e-05
-3.48395127175e-05
-3.48426433727e-05
-3.48453925911e-05
-3.48480161052e-05
-3.4850293984e-05
-3.48520466768e-05
-3.4853147308e-05
-3.48535163618e-05
-3.48531242932e-05
-3.48520014997e-05
-3.48502275698e-05
-3.48479296539e-05
-3.4845287613e-05
-3.48425213147e-05
-3.48393735925e-05
-3.48414331071e-05
-3.4844742627e-05
-3.48475422623e-05
-3.48501398487e-05
-3.48523457751e-05
-3.48540177032e-05
-3.4855057734e-05
-3.48554045927e-05
-3.48550361027e-05
-3.48539752248e-05
-3.48522831666e-05
-3.48500581598e-05
-3.48474427921e-05
-3.48446266287e-05
-3.48412996566e-05
-3.48440985206e-05
-3.48472688568e-05
-3.48499591785e-05
-3.48523794986e-05
-3.48543780252e-05
-3.4855867836e-05
-3.48567850227e-05
-3.48570889702e-05
-3.48567649398e-05
-3.48558283096e-05
-3.48543197108e-05
-3.48523032001e-05
-3.48498659724e-05
-3.48471599544e-05
-3.48439723409e-05
-3.969901868e-05
-3.96978806832e-05
-3.96965787515e-05
-3.96952225138e-05
-3.96939967602e-05
-3.96930282729e-05
-3.96924096102e-05
-3.96921979959e-05
-3.9692415978e-05
-3.96930405163e-05
-3.96940138832e-05
-3.96952426803e-05
-3.96966012533e-05
-3.96979039604e-05
-3.96990460922e-05
-3.96986910855e-05
-3.96975938071e-05
-3.96963142678e-05
-3.96949724758e-05
-3.96937536468e-05
-3.96927869317e-05
-3.96921675915e-05
-3.96919552887e-05
-3.96921742037e-05
-3.96927996209e-05
-3.9693771322e-05
-3.9694993199e-05
-3.96963368142e-05
-3.96976171392e-05
-3.96987174697e-05
-3.96996098808e-05
-3.96986277905e-05
-3.96974545772e-05
-3.96961974713e-05
-3.96950429538e-05
-3.96941200628e-05
-3.9693525892e-05
-3.9693321605e-05
-3.96935322645e-05
-3.96941323001e-05
-3.969506004e-05
-3.96962177518e-05
-3.96974766596e-05
-3.96986512689e-05
-3.96996358323e-05
-3.97004700503e-05
-3.96995566677e-05
-3.96984552716e-05
-3.969725637e-05
-3.9696145246e-05
-3.9695251264e-05
-3.96946733642e-05
-3.9694474199e-05
-3.96946794107e-05
-3.96952628939e-05
-3.96961615449e-05
-3.96972759475e-05
-3.96984768646e-05
-3.96995800133e-05
-3.97004957592e-05
-3.97010283623e-05
-3.97001376373e-05
-3.96990701145e-05
-3.96979003475e-05
-3.96968103666e-05
-3.96959299382e-05
-3.96953592688e-05
-3.96951623094e-05
-3.96953650692e-05
-3.96959411178e-05
-3.96968261218e-05
-3.96979194175e-05
-3.96990914492e-05
-3.97001608703e-05
-3.97010538869e-05
-3.97013762237e-05
-3.97004794658e-05
-3.96994234528e-05
-3.96982661985e-05
-3.96971856931e-05
-3.96963113241e-05
-3.96957438066e-05
-3.96955477624e-05
-3.96957493497e-05
-3.96963220442e-05
-3.96972008614e-05
-3.96982847341e-05
-3.96994443867e-05
-3.97005027442e-05
-3.97014012831e-05
-3.97015690259e-05
-3.97006470547e-05
-3.9699587646e-05
-3.96984331463e-05
-3.96973561543e-05
-3.96964847827e-05
-3.96959191316e-05
-3.96957236996e-05
-3.96959244406e-05
-3.96964950932e-05
-3.96973708122e-05
-3.96984512278e-05
-3.96996082243e-05
-3.97006703301e-05
-3.97015937483e-05
-3.97016312474e-05
-3.97006712323e-05
-3.96995990267e-05
-3.96984427233e-05
-3.96973676092e-05
-3.96964994899e-05
-3.96959364999e-05
-3.96957420884e-05
-3.96959415754e-05
-3.96965093813e-05
-3.96973817593e-05
-3.96984603428e-05
-3.96996193383e-05
-3.97006944462e-05
-3.97016558475e-05
-3.97015875095e-05
-3.97005823743e-05
-3.96994934373e-05
-3.9698335546e-05
-3.96972648774e-05
-3.96964034595e-05
-3.96958459691e-05
-3.96956536808e-05
-3.96958508392e-05
-3.96964129856e-05
-3.96972785906e-05
-3.96983527736e-05
-3.969951353e-05
-3.97006055472e-05
-3.97016119131e-05
-3.97014643267e-05
-3.970041236e-05
-3.9699307351e-05
-3.96981522469e-05
-3.96970921873e-05
-3.96962436345e-05
-3.96956961915e-05
-3.96955077013e-05
-3.96957008723e-05
-3.96962528281e-05
-3.96971054983e-05
-3.9698169133e-05
-3.9699327265e-05
-3.9700435526e-05
-3.97014886e-05
-3.97012862531e-05
-3.9700189442e-05
-3.96990722856e-05
-3.96979273621e-05
-3.96968867929e-05
-3.96960594588e-05
-3.96955279779e-05
-3.96953454541e-05
-3.96955324998e-05
-3.96960683656e-05
-3.9696899764e-05
-3.96979439289e-05
-3.96990920053e-05
-3.97002124936e-05
-3.97013102878e-05
-3.97010748623e-05
-3.96999365129e-05
-3.96988124102e-05
-3.96976863336e-05
-3.96966757586e-05
-3.96958793615e-05
-3.96953707298e-05
-3.96951966392e-05
-3.96953751166e-05
-3.96958880287e-05
-3.96966884229e-05
-3.96977026194e-05
-3.96988319068e-05
-3.96999593317e-05
-3.97010985149e-05
-3.97008591613e-05
-3.96996788863e-05
-3.96985489818e-05
-3.9697447677e-05
-3.96964761389e-05
-3.96957198007e-05
-3.96952405111e-05
-3.96950772745e-05
-3.96952447807e-05
-3.96957282387e-05
-3.96964885409e-05
-3.9697463663e-05
-3.96985682155e-05
-3.96997013598e-05
-3.97008823119e-05
-3.97006495509e-05
-3.96994163551e-05
-3.96982836075e-05
-3.96972141708e-05
-3.96962925554e-05
-3.96955863912e-05
-3.96951435167e-05
-3.96949935564e-05
-3.9695147644e-05
-3.96955946145e-05
-3.96963046334e-05
-3.96972298294e-05
-3.96983024893e-05
-3.96994383542e-05
-3.97006719142e-05
-3.97000175794e-05
-3.9698851251e-05
-3.96978078583e-05
-3.96968556875e-05
-3.96960568197e-05
-3.96954548551e-05
-3.96950812063e-05
-3.96949555888e-05
-3.969508517e-05
-3.96954627233e-05
-3.96960684632e-05
-3.96968708196e-05
-3.9697826185e-05
-3.96988726475e-05
-3.97000396093e-05
-3.3947347698e-05
-3.39480573767e-05
-3.39488752751e-05
-3.39497283177e-05
-3.39505004509e-05
-3.39511109825e-05
-3.39515000479e-05
-3.39516323895e-05
-3.39514943679e-05
-3.39511003468e-05
-3.39504861928e-05
-3.39497106393e-05
-3.39488529901e-05
-3.39480326762e-05
-3.39473178335e-05
-3.39474752479e-05
-3.39481587617e-05
-3.39489623426e-05
-3.39498068393e-05
-3.39505755064e-05
-3.39511856136e-05
-3.39515756056e-05
-3.39517085652e-05
-3.39515698135e-05
-3.3951174746e-05
-3.39505608651e-05
-3.39497887875e-05
-3.39489397921e-05
-3.39481332161e-05
-3.39474447575e-05
-3.39468293686e-05
-3.39474405139e-05
-3.39481780659e-05
-3.39489705314e-05
-3.39496995964e-05
-3.39502825658e-05
-3.39506570001e-05
-3.39507849789e-05
-3.39506512453e-05
-3.39502716901e-05
-3.39496847542e-05
-3.39489521765e-05
-3.39481555328e-05
-3.39474147894e-05
-3.39467989923e-05
-3.3946231745e-05
-3.39467977479e-05
-3.39474892256e-05
-3.39482444581e-05
-3.3948945207e-05
-3.3949508847e-05
-3.39498723223e-05
-3.39499968063e-05
-3.3949866661e-05
-3.39494980561e-05
-3.39489302444e-05
-3.3948225913e-05
-3.39474667776e-05
-3.39467722351e-05
-3.39462015018e-05
-3.39458204902e-05
-3.39463665873e-05
-3.39470324334e-05
-3.39477653203e-05
-3.39484488195e-05
-3.39490006631e-05
-3.3949357488e-05
-3.39494798599e-05
-3.39493519312e-05
-3.39489900148e-05
-3.3948433915e-05
-3.39477467847e-05
-3.39470101295e-05
-3.39463414223e-05
-3.39457904428e-05
-3.39455284931e-05
-3.3946068357e-05
-3.39467186794e-05
-3.39474359209e-05
-3.39481063647e-05
-3.39486486867e-05
-3.39489999282e-05
-3.39491204873e-05
-3.39489945125e-05
-3.39486382572e-05
-3.39480916322e-05
-3.39474175369e-05
-3.39466966639e-05
-3.39460434159e-05
-3.39454989242e-05
-3.3945314196e-05
-3.3945854874e-05
-3.39464949925e-05
-3.39471990225e-05
-3.39478570921e-05
-3.39483895776e-05
-3.39487346525e-05
-3.39488531306e-05
-3.39487294047e-05
-3.39483794346e-05
-3.39478426698e-05
-3.39471809434e-05
-3.39464734097e-05
-3.39458303069e-05
-3.39452850787e-05
-3.39451572554e-05
-3.3945702061e-05
-3.39463342194e-05
-3.39470247167e-05
-3.39476688168e-05
-3.39481894074e-05
-3.39485266523e-05
-3.39486424157e-05
-3.39485215977e-05
-3.39481796012e-05
-3.39476547785e-05
-3.39470070122e-05
-3.39463130788e-05
-3.39456779334e-05
-3.39451285045e-05
-3.39450395821e-05
-3.39455889461e-05
-3.3946212789e-05
-3.39468872346e-05
-3.39475139265e-05
-3.39480191734e-05
-3.39483460396e-05
-3.39484581523e-05
-3.39483411928e-05
-3.39480097356e-05
-3.39475003408e-05
-3.39468699933e-05
-3.39461921365e-05
-3.3945565315e-05
-3.39450112759e-05
-3.3944944191e-05
-3.39454965415e-05
-3.3946109861e-05
-3.3946764207e-05
-3.39473686791e-05
-3.39478540732e-05
-3.39481673678e-05
-3.39482746624e-05
-3.39481627299e-05
-3.39478450158e-05
-3.39473555598e-05
-3.39467474459e-05
-3.39460896991e-05
-3.39454733863e-05
-3.39449163636e-05
-3.39448575253e-05
-3.39454104315e-05
-3.39460101191e-05
-3.39466394861e-05
-3.39472160735e-05
-3.39476764465e-05
-3.3947972516e-05
-3.39480736902e-05
-3.3947968088e-05
-3.39476677684e-05
-3.39472034485e-05
-3.39466232406e-05
-3.39459905062e-05
-3.39453878161e-05
-3.3944830243e-05
-3.39447696647e-05
-3.39453216156e-05
-3.39459048725e-05
-3.39465043509e-05
-3.39470471172e-05
-3.39474768854e-05
-3.39477518639e-05
-3.39478454859e-05
-3.3947747638e-05
-3.39474685849e-05
-3.39470349626e-05
-3.39464886494e-05
-3.3945885836e-05
-3.3945299655e-05
-3.39447430879e-05
-3.39446680438e-05
-3.39452212059e-05
-3.39457882642e-05
-3.39463552176e-05
-3.39468594649e-05
-3.39472540058e-05
-3.39475044017e-05
-3.39475892979e-05
-3.39475003733e-05
-3.39472460413e-05
-3.39468478167e-05
-3.39463400451e-05
-3.39457698592e-05
-3.39451999357e-05
-3.39446422214e-05
-3.39445465754e-05
-3.39451094346e-05
-3.39456621204e-05
-3.39461948884e-05
-3.39466568336e-05
-3.3947012076e-05
-3.39472352751e-05
-3.39473103359e-05
-3.39472314137e-05
-3.39470044998e-05
-3.39466456357e-05
-3.39461803453e-05
-3.39456443904e-05
-3.39450889678e-05
-3.39445215952e-05
-3.39446318573e-05
-3.39451603913e-05
-3.39456524208e-05
-3.39461065835e-05
-3.39464888113e-05
-3.39467777831e-05
-3.39469573091e-05
-3.39470171965e-05
-3.39469536315e-05
-3.39467705035e-05
-3.39464781172e-05
-3.39460925995e-05
-3.39456353986e-05
-3.39451406981e-05
-3.39446081122e-05
-3.47478583478e-05
-3.47474250843e-05
-3.47469287737e-05
-3.47464143121e-05
-3.47459509756e-05
-3.4745586138e-05
-3.47453538655e-05
-3.4745274818e-05
-3.47453569843e-05
-3.47455919765e-05
-3.47459586382e-05
-3.47464224091e-05
-3.47469363375e-05
-3.47474307712e-05
-3.4747865119e-05
-3.47477317118e-05
-3.4747311754e-05
-3.47468220329e-05
-3.47463110441e-05
-3.474584859e-05
-3.47454831633e-05
-3.47452499205e-05
-3.47451704131e-05
-3.47452532118e-05
-3.47454893226e-05
-3.47458566469e-05
-3.47463194969e-05
-3.4746829688e-05
-3.47473176174e-05
-3.47477378183e-05
-3.47480774397e-05
-3.47476999561e-05
-3.47472494657e-05
-3.47467693268e-05
-3.47463301626e-05
-3.47459804788e-05
-3.47457562092e-05
-3.47456795032e-05
-3.47457592717e-05
-3.47459862142e-05
-3.47463376868e-05
-3.47467773345e-05
-3.47472567141e-05
-3.47477060231e-05
-3.47480833392e-05
-3.47483988243e-05
-3.47480480724e-05
-3.47476248671e-05
-3.47471670657e-05
-3.4746744554e-05
-3.47464059908e-05
-3.47461879579e-05
-3.47461131506e-05
-3.47461907075e-05
-3.47464111423e-05
-3.47467513252e-05
-3.47471743353e-05
-3.47476315644e-05
-3.47480539283e-05
-3.47484046013e-05
-3.47486117555e-05
-3.47482730752e-05
-3.47478650018e-05
-3.47474209104e-05
-3.47470086815e-05
-3.47466770124e-05
-3.47464627854e-05
-3.47463891149e-05
-3.47464652515e-05
-3.47466816266e-05
-3.4747014771e-05
-3.47474274987e-05
-3.47478712585e-05
-3.47482786707e-05
-3.4748617357e-05
-3.47487589394e-05
-3.47484248128e-05
-3.47480263672e-05
-3.47475923419e-05
-3.47471882704e-05
-3.47468623991e-05
-3.47466515217e-05
-3.47465788636e-05
-3.47466536972e-05
-3.47468664677e-05
-3.4747193646e-05
-3.47475982011e-05
-3.47480320183e-05
-3.47484302358e-05
-3.47487640629e-05
-3.47488664583e-05
-3.47485333945e-05
-3.4748141702e-05
-3.47477166213e-05
-3.4747320594e-05
-3.47470009293e-05
-3.47467938702e-05
-3.47467224276e-05
-3.47467957612e-05
-3.47470044714e-05
-3.47473252923e-05
-3.47477218158e-05
-3.47481468014e-05
-3.47485386254e-05
-3.47488712012e-05
-3.47489462731e-05
-3.47486128006e-05
-3.47482265694e-05
-3.47478107085e-05
-3.47474236858e-05
-3.47471114546e-05
-3.47469091897e-05
-3.47468393468e-05
-3.47469108104e-05
-3.47471144948e-05
-3.47474277479e-05
-3.47478152742e-05
-3.47482311974e-05
-3.47486177906e-05
-3.47489508135e-05
-3.47490083463e-05
-3.4748674088e-05
-3.47482934284e-05
-3.47478880961e-05
-3.47475119653e-05
-3.47472090825e-05
-3.47470130283e-05
-3.47469453207e-05
-3.47470144125e-05
-3.47472116877e-05
-3.47475154918e-05
-3.47478921501e-05
-3.47482977027e-05
-3.47486789203e-05
-3.47490126306e-05
-3.47490613677e-05
-3.47487269684e-05
-3.4748352953e-05
-3.47479602006e-05
-3.47475975106e-05
-3.47473063661e-05
-3.47471182572e-05
-3.47470533212e-05
-3.47471194412e-05
-3.47473086148e-05
-3.47476005936e-05
-3.47479638552e-05
-3.4748356971e-05
-3.47487317271e-05
-3.47490654829e-05
-3.47491121843e-05
-3.47487784781e-05
-3.47484126056e-05
-3.47480349089e-05
-3.4747688595e-05
-3.47474119568e-05
-3.47472337371e-05
-3.47471723084e-05
-3.4747234775e-05
-3.47474139389e-05
-3.47476913696e-05
-3.47480382771e-05
-3.47484164591e-05
-3.47487831712e-05
-3.4749116087e-05
-3.47491658771e-05
-3.47488330312e-05
-3.47484766082e-05
-3.47481162997e-05
-3.4747789422e-05
-3.47475301223e-05
-3.47473638729e-05
-3.47473066936e-05
-3.47473648114e-05
-3.47475319449e-05
-3.47477919833e-05
-3.4748119511e-05
-3.47484803676e-05
-3.47488376579e-05
-3.47491695309e-05
-3.47492301822e-05
-3.47488960222e-05
-3.47485482524e-05
-3.47482061979e-05
-3.47479006371e-05
-3.47476609526e-05
-3.47475082638e-05
-3.4747456021e-05
-3.47475091637e-05
-3.47476626633e-05
-3.47479031384e-05
-3.47482093143e-05
-3.47485519945e-05
-3.47489005872e-05
-3.47492335863e-05
-3.47493033298e-05
-3.4748961056e-05
-3.47486226812e-05
-3.47483002192e-05
-3.47480185543e-05
-3.47478007907e-05
-3.47476635241e-05
-3.4747616772e-05
-3.47476643905e-05
-3.47478025256e-05
-3.47480210144e-05
-3.47483033957e-05
-3.47486264403e-05
-3.47489655812e-05
-3.47493063206e-05
-3.47491951175e-05
-3.47488974992e-05
-3.47486083737e-05
-3.47483407384e-05
-3.47481116603e-05
-3.4747937154e-05
-3.47478280968e-05
-3.47477912405e-05
-3.47478289814e-05
-3.47479388619e-05
-3.4748114169e-05
-3.47483439193e-05
-3.47486121845e-05
-3.47489020054e-05
-3.47491983017e-05
-3.14938076573e-05
-3.14940742936e-05
-3.14943838426e-05
-3.14947077048e-05
-3.14949998584e-05
-3.14952305315e-05
-3.14953778407e-05
-3.14954283097e-05
-3.14953766301e-05
-3.14952281471e-05
-3.14949964328e-05
-3.14947039936e-05
-3.14943808634e-05
-3.14940734003e-05
-3.1493805417e-05
-3.14938156382e-05
-3.14940708778e-05
-3.14943731553e-05
-3.14946921252e-05
-3.14949815129e-05
-3.14952109503e-05
-3.14953578846e-05
-3.1495408322e-05
-3.14953566131e-05
-3.1495208445e-05
-3.14949779535e-05
-3.14946882814e-05
-3.1494370095e-05
-3.14940696352e-05
-3.14938132609e-05
-3.14935300554e-05
-3.14937567099e-05
-3.14940319893e-05
-3.14943296564e-05
-3.14946027911e-05
-3.14948210995e-05
-3.14949615718e-05
-3.14950099084e-05
-3.1494960302e-05
-3.14948186141e-05
-3.14945992886e-05
-3.14943258444e-05
-3.14940289177e-05
-3.14937550779e-05
-3.14935276142e-05
-3.14932714102e-05
-3.14934801421e-05
-3.14937366429e-05
-3.14940190799e-05
-3.1494280735e-05
-3.14944912778e-05
-3.14946272744e-05
-3.14946741558e-05
-3.14946260273e-05
-3.14944888625e-05
-3.14942773822e-05
-3.14940154305e-05
-3.1493733582e-05
-3.14934784078e-05
-3.14932687615e-05
-3.14930888619e-05
-3.14932893185e-05
-3.14935349618e-05
-3.1493808015e-05
-3.14940624947e-05
-3.14942681361e-05
-3.14944013138e-05
-3.14944472769e-05
-3.14944000938e-05
-3.14942657884e-05
-3.1494059266e-05
-3.14938045007e-05
-3.14935318883e-05
-3.14932875517e-05
-3.14930860413e-05
-3.14929536378e-05
-3.14931508889e-05
-3.14933891912e-05
-3.14936552526e-05
-3.14939039933e-05
-3.14941054722e-05
-3.14942361585e-05
-3.1494281293e-05
-3.1494234981e-05
-3.14941032219e-05
-3.14939009302e-05
-3.149365192e-05
-3.14933861724e-05
-3.14931489467e-05
-3.14929508226e-05
-3.14928481569e-05
-3.14930442713e-05
-3.14932768974e-05
-3.1493536638e-05
-3.14937796148e-05
-3.14939765668e-05
-3.14941043952e-05
-3.14941485547e-05
-3.14941032689e-05
-3.14939744259e-05
-3.14937767162e-05
-3.1493533471e-05
-3.14932739765e-05
-3.14930422082e-05
-3.14928452561e-05
-3.14927633422e-05
-3.14929588384e-05
-3.14931862802e-05
-3.14934392138e-05
-3.14936755162e-05
-3.14938669236e-05
-3.14939911224e-05
-3.1494034021e-05
-3.1493990063e-05
-3.14938649191e-05
-3.14936728082e-05
-3.14934362188e-05
-3.14931834265e-05
-3.14929566826e-05
-3.1492760217e-05
-3.14926911733e-05
-3.14928855559e-05
-3.14931073179e-05
-3.14933521782e-05
-3.14935802316e-05
-3.14937645553e-05
-3.14938840209e-05
-3.1493925255e-05
-3.1493883036e-05
-3.14937626952e-05
-3.14935777161e-05
-3.14933493617e-05
-3.14931045407e-05
-3.14928833373e-05
-3.14926878714e-05
-3.14926245102e-05
-3.1492816592e-05
-3.14930315436e-05
-3.1493266553e-05
-3.14934843045e-05
-3.14936596637e-05
-3.14937730718e-05
-3.14938121718e-05
-3.14937721692e-05
-3.14936579593e-05
-3.14934819925e-05
-3.14932639103e-05
-3.14930288438e-05
-3.14928142938e-05
-3.14926210336e-05
-3.14925577673e-05
-3.14927461725e-05
-3.14929530187e-05
-3.14931762043e-05
-3.14933813852e-05
-3.14935456889e-05
-3.14936515837e-05
-3.14936880236e-05
-3.14936507622e-05
-3.14935441437e-05
-3.14933792733e-05
-3.14931737475e-05
-3.14929504388e-05
-3.14927438567e-05
-3.14925541699e-05
-3.14924873814e-05
-3.14926713033e-05
-3.14928690121e-05
-3.14930784572e-05
-3.14932687015e-05
-3.14934197622e-05
-3.14935166023e-05
-3.1493549832e-05
-3.14935158632e-05
-3.14934183581e-05
-3.14932667876e-05
-3.14930761842e-05
-3.14928665657e-05
-3.14926690646e-05
-3.14924837753e-05
-3.14924095211e-05
-3.14925897312e-05
-3.14927784286e-05
-3.14929730627e-05
-3.14931464995e-05
-3.14932823911e-05
-3.14933688274e-05
-3.14933983466e-05
-3.1493368152e-05
-3.14932811344e-05
-3.1493144755e-05
-3.14929709748e-05
-3.14927761453e-05
-3.14925876002e-05
-3.14924059438e-05
-3.14923186037e-05
-3.14924980403e-05
-3.14926802933e-05
-3.14928605101e-05
-3.14930162836e-05
-3.1493136052e-05
-3.14932113518e-05
-3.14932369071e-05