/*--------------------------------*- C++ -*----------------------------------*\
  =========                 |
  \\      /  F ield         | OpenFOAM: The Open Source CFD Toolbox
   \\    /   O peration     | Website:  https://openfoam.org
    \\  /    A nd           | Version:  7
     \\/     M anipulation  |
\*---------------------------------------------------------------------------*/
FoamFile
{
    version     2.0;
    format      ascii;
    class       surfaceScalarField;
    location    "2.44";
    object      phi;
}
// * * * * * * * * * * * * * * * * * * * * * * * * * * * * * * * * * * * * * //

dimensions      [0 3 -1 0 0 0 0];

internalField   nonuniform List<scalar> 
65775
(
-4.20436402419e-11
-9.83349977107e-09
2.26027154569e-10
-6.04679263943e-14
-7.5858968153e-11
-1.03698120912e-08
2.54242517426e-10
-8.47458208977e-11
-1.08698537378e-08
2.7985459754e-10
-7.74256796909e-11
-1.1295148649e-08
3.01994212299e-10
-6.00060290698e-11
-1.16356343346e-08
3.20098986114e-10
-3.61646033356e-11
-1.18852083594e-08
3.33588614663e-10
-8.62472438104e-12
-1.20417909019e-08
3.42048645373e-10
2.01145376964e-11
-1.209999384e-08
3.45104327283e-10
4.73548132131e-11
-1.20415253932e-08
3.4220724509e-10
7.06139745331e-11
-1.18846989073e-08
3.33903359076e-10
8.7220610935e-11
-1.16349249064e-08
3.20561216768e-10
9.35545318585e-11
-1.12943176305e-08
3.02590762951e-10
8.35928812237e-11
-1.08689916564e-08
2.80567194828e-10
4.8621133966e-11
-1.03690327497e-08
2.55045038735e-10
-9.83293623415e-09
2.26871400056e-10
5.3469614843e-12
-1.42123518288e-10
-1.85465572206e-08
-3.37924020899e-10
-2.46874805884e-13
-2.42521922321e-10
-1.9544905158e-08
-4.15818644594e-10
-2.77572347601e-10
-2.04725150508e-08
-5.00300099449e-10
-2.62393578245e-10
-2.12485934952e-08
-5.8349089579e-10
-2.09836895945e-10
-2.18616395721e-08
-6.5755374013e-10
-1.30689298787e-10
-2.23067063159e-08
-7.15831396914e-10
-3.53658835179e-11
-2.25845296289e-08
-7.53288603973e-10
6.51629358941e-11
-2.26877060641e-08
-7.66423673275e-10
1.59790361545e-10
-2.2583826187e-08
-7.52854734268e-10
2.37584069115e-10
-2.23053610223e-08
-7.14968543871e-10
2.88222631325e-10
-2.1859774776e-08
-6.5628412864e-10
3.0104030958e-10
-2.12464013009e-08
-5.81848930578e-10
2.63328685311e-10
-2.04702388767e-08
-4.98334556954e-10
1.59982131294e-10
-1.95427528957e-08
-4.13599759092e-10
-1.85449036064e-08
-3.35577850281e-10
1.4598322288e-11
-2.51349362517e-10
-2.54836586182e-08
-1.54795287325e-09
-4.319197385e-13
-4.12964531753e-10
-2.67990200732e-08
-1.81713338916e-09
-4.79186116168e-10
-2.79934508111e-08
-2.08958329838e-09
-4.62107187192e-10
-2.89778016762e-08
-2.34517654292e-09
-3.76742926276e-10
-2.97452081006e-08
-2.56536628036e-09
-2.39802858921e-10
-3.0297138906e-08
-2.73482930199e-09
-7.06368983704e-11
-3.06402193799e-08
-2.8424699341e-09
1.09092520837e-10
-3.07679693291e-08
-2.88036244725e-09
2.77512477625e-10
-3.06392010326e-08
-2.84188706653e-09
4.12985843307e-10
-3.02951919798e-08
-2.73366682587e-09
4.96231011886e-10
-2.97425062278e-08
-2.56364887959e-09
5.10631661628e-10
-2.89746104269e-08
-2.34294094082e-09
4.41269649196e-10
-2.79901127188e-08
-2.08688464772e-09
2.76038580173e-10
-2.67957677331e-08
-1.81405488025e-09
-2.54810173826e-08
-1.54465513881e-09
2.03512949431e-11
-3.56772901409e-10
-3.04268124934e-08
-2.97984710118e-09
-5.61040878289e-13
-5.77236229753e-10
-3.1910782221e-08
-3.44219085877e-09
-6.75561460771e-10
-3.32156122253e-08
-3.89498558724e-09
-6.5915978795e-10
-3.42774318522e-08
-4.3096224327e-09
-5.43620969129e-10
-3.50964078743e-08
-4.66048279199e-09
-3.50891707238e-10
-3.56812680263e-08
-4.92706743426e-09
-1.09322154101e-10
-3.60439437057e-08
-5.09513469715e-09
1.48452937477e-10
-3.61796246889e-08
-5.15431234065e-09
3.89426246224e-10
-3.60428020024e-08
-5.09453550959e-09
5.8096189082e-10
-3.5679091989e-08
-4.92585394551e-09
6.94733254698e-10
-3.50933897508e-08
-4.6586687593e-09
7.08825713174e-10
-3.42738562789e-08
-4.30723541579e-09
6.07667721356e-10
-3.32118362016e-08
-3.89207041606e-09
3.83801203047e-10
-3.19070196868e-08
-3.438819482e-09
-3.04235362838e-08
-2.97617437059e-09
2.25122801672e-11
-4.50360699859e-10
-3.34794827864e-08
-4.32016822862e-09
-6.27317554154e-13
-7.28093475112e-10
-3.50159437754e-08
-4.9330879931e-09
-8.56747326465e-10
-3.63220969429e-08
-5.51908443133e-09
-8.41217006978e-10
-3.73746348608e-08
-6.04674311291e-09
-6.9802569383e-10
-3.8180538697e-08
-6.48779311722e-09
-4.54238261926e-10
-3.87536731882e-08
-6.82000517192e-09
-1.46541906929e-10
-3.91088455273e-08
-7.02838766979e-09
1.82470972989e-10
-3.92423835876e-08
-7.10174672093e-09
4.89739359141e-10
-3.91077463521e-08
-7.02781067744e-09
7.32651345717e-10
-3.87515859761e-08
-6.81883181983e-09
8.7451462415e-10
-3.81776453259e-08
-6.48603548535e-09
8.88252826763e-10
-3.7371201877e-08
-6.04442198522e-09
7.57305804137e-10
-3.63184392458e-08
-5.51623416959e-09
4.76719540643e-10
-3.50122456138e-08
-4.92976512083e-09
-3.34760047984e-08
-4.31650698703e-09
2.21790095262e-11
-5.29450296603e-10
-3.49153374727e-08
-5.40137463874e-09
-6.43780246887e-13
-8.62038781713e-10
-3.64241790979e-08
-6.11673613097e-09
-1.01816513007e-09
-3.76695684919e-08
-6.78937850552e-09
-1.00297169092e-09
-3.8665277689e-08
-7.38854091531e-09
-8.34740657005e-10
-3.94244592486e-08
-7.88563957262e-09
-5.45629236733e-10
-3.99633972532e-08
-8.25817378461e-09
-1.79735229163e-10
-4.02974846092e-08
-8.49115810845e-09
2.11799513336e-10
-4.04235758971e-08
-8.57314209794e-09
5.77370090739e-10
-4.02965206049e-08
-8.49061251948e-09
8.65808702708e-10
-3.99615733052e-08
-8.25706595115e-09
1.03300282982e-09
-3.9421936687e-08
-7.88398236918e-09
1.04676935553e-09
-3.86622880137e-08
-7.38635478419e-09
8.88770219087e-10
-3.76663661002e-08
-6.78669454594e-09
5.53817806883e-10
-3.64209103637e-08
-6.11360222587e-09
-3.49119992793e-08
-5.39790624309e-09
2.06698906774e-11
-5.95823324864e-10
-3.50485431032e-08
-6.18116544809e-09
-6.30015378553e-13
-9.79521482742e-10
-3.64758240436e-08
-6.96379857116e-09
-1.16021800668e-09
-3.7628508215e-08
-7.69211162518e-09
-1.14491132956e-09
-3.85432929838e-08
-8.33686846224e-09
-9.54201414722e-10
-3.92394144139e-08
-8.86969039061e-09
-6.25175637183e-10
-3.97334129688e-08
-9.26796692906e-09
-2.08465052413e-10
-4.00397877258e-08
-9.51662540492e-09
2.37505817454e-10
-4.0155631762e-08
-9.60402395243e-09
6.53930360623e-10
-4.00389872323e-08
-9.51610453416e-09
9.8235815748e-10
-3.9731904634e-08
-9.26691261611e-09
1.17214566414e-09
-3.92373362655e-08
-8.86811960073e-09
1.18618267117e-09
-3.85408381022e-08
-8.33480640506e-09
1.00382311887e-09
-3.76258706431e-08
-7.68959295506e-09
6.18044311324e-10
-3.64731236531e-08
-6.96087054392e-09
-3.50455427102e-08
-6.17793302027e-09
1.89366095664e-11
-6.53195394128e-10
-3.41656821643e-08
-6.68339616173e-09
-6.00261546795e-13
-1.08339565271e-09
-3.54741410858e-08
-7.51221794974e-09
-1.2861207335e-09
-3.65174584117e-08
-8.27885431113e-09
-1.27040944484e-09
-3.73389533085e-08
-8.9552245947e-09
-1.05941795383e-09
-3.7963953196e-08
-9.51300341275e-09
-6.9491132533e-10
-3.8407704825e-08
-9.92934835591e-09
-2.33349624492e-10
-3.86829467514e-08
-1.01889408803e-08
2.60549010646e-10
-3.87869666466e-08
-1.02799861408e-08
7.21817634771e-10
-3.86823006642e-08
-1.01884358196e-08
1.08571486449e-09
-3.84064923687e-08
-9.92833007799e-09
1.29577490528e-09
-3.79622884522e-08
-9.51149426499e-09
1.31021972114e-09
-3.73369931804e-08
-8.95325688419e-09
1.10586839532e-09
-3.65153454469e-08
-8.27646989257e-09
6.73678311414e-10
-3.54719730018e-08
-7.50946836776e-09
-3.41630712904e-08
-6.68038288444e-09
1.74697000478e-11
-7.05103279431e-10
-3.25057331264e-08
-6.95212203339e-09
-5.64445954528e-13
-1.17709343155e-09
-3.36693940951e-08
-7.81509631541e-09
-1.39975736235e-09
-3.45938431894e-08
-8.61027333408e-09
-1.38334270112e-09
-3.5315937526e-08
-9.31021065977e-09
-1.15369972039e-09
-3.58662447648e-08
-9.88652358922e-09
-7.57074946952e-10
-3.62574591887e-08
-1.0316186263e-08
-2.55228393578e-10
-3.64999807655e-08
-1.05836742659e-08
2.81605654082e-10
-3.65913473759e-08
-1.06771909497e-08
7.83128939951e-10
-3.64994599095e-08
-1.05831796499e-08
1.17908779576e-09
-3.62564836398e-08
-1.03151930361e-08
1.40772341714e-09
-3.58649059113e-08
-9.88505945854e-09
1.42278841303e-09
-3.531435753e-08
-9.30831534615e-09
1.19842967286e-09
-3.45921247054e-08
-8.60799687056e-09
7.24412210737e-10
-3.3667612369e-08
-7.8124962202e-09
-3.25034445129e-08
-6.94929982438e-09
1.64281928354e-11
-7.54024266847e-10
-3.0263423205e-08
-7.02911721914e-09
-5.28040833781e-13
-1.26369193564e-09
-3.12650730892e-08
-7.91860582891e-09
-1.50465854484e-09
-3.2065288351e-08
-8.73571344326e-09
-1.48705709383e-09
-3.26865791608e-08
-9.45335444622e-09
-1.23973813614e-09
-3.31621714434e-08
-1.00431933483e-08
-8.13432572192e-10
-3.35009843532e-08
-1.04822835475e-08
-2.74800138785e-10
-3.37106958056e-08
-1.07551065865e-08
3.01091673064e-10
-3.37891967342e-08
-1.08500978677e-08
8.39360786154e-10
-3.37102603754e-08
-1.07546211528e-08
1.26492453329e-09
-3.35001664395e-08
-1.04813123565e-08
1.51113140164e-09
-3.31610412868e-08
-1.00417688309e-08
1.5272609652e-09
-3.26852275098e-08
-9.45152307084e-09
1.2844796253e-09
-3.20637853666e-08
-8.73353297237e-09
7.72677960101e-10
-3.12634710639e-08
-7.91613947994e-09
-3.02612949866e-08
-7.02646715147e-09
1.58013944132e-11
-8.01339913692e-10
-2.75992489606e-08
-6.9472231947e-09
-4.94140580181e-13
-1.34586124917e-09
-2.84287309454e-08
-7.85739171229e-09
-1.60391561076e-09
-2.91031992655e-08
-8.69097024631e-09
-1.58423512667e-09
-2.96271485211e-08
-9.4211269559e-09
-1.31948717913e-09
-3.00314986276e-08
-1.0019855699e-08
-8.65188719268e-10
-3.03202920812e-08
-1.04646858691e-08
-2.92546717519e-10
-3.04984559384e-08
-1.07404008729e-08
3.19236955637e-10
-3.05644288838e-08
-1.08359271194e-08
8.91472350813e-10
-3.04980591216e-08
-1.0739926421e-08
1.34494684121e-09
-3.03195398981e-08
-1.04637397523e-08
1.60846871267e-09
-3.00304424713e-08
-1.00184741928e-08
1.62654291023e-09
-2.96258516169e-08
-9.41936223718e-09
1.36653487099e-09
-2.91017057043e-08
-8.688886856e-09
8.1974477468e-10
-2.84270693461e-08
-7.85505755664e-09
-2.75970583088e-08
-6.94473985708e-09
1.55161404975e-11
-8.47676669212e-10
-2.46487611065e-08
-6.73075051452e-09
-4.62270835798e-13
-1.42647424015e-09
-2.5300494726e-08
-7.65663338066e-09
-1.70048662431e-09
-2.58530994339e-08
-8.50183865093e-09
-1.67693423841e-09
-2.62886675954e-08
-9.23967588692e-09
-1.39415980735e-09
-2.66284728274e-08
-9.84287386526e-09
-9.12994128914e-10
-2.68714367037e-08
-1.02899093767e-08
-3.08731041762e-10
-2.70203862179e-08
-1.05661843629e-08
3.36116421997e-10
-2.70746098121e-08
-1.06613608305e-08
9.39928996609e-10
-2.70199759638e-08
-1.05657246814e-08
1.42018800558e-09
-2.68706471727e-08
-1.02889953191e-08
1.70162163033e-09
-2.66273418612e-08
-9.84154453385e-09
1.72343305404e-09
-2.62872364464e-08
-9.23798794115e-09
1.44732569195e-09
-2.58513914531e-08
-8.49986238368e-09
8.66118603409e-10
-2.52985148913e-08
-7.65444058914e-09
-2.46462495476e-08
-6.72844029846e-09
1.54809427829e-11
-8.95335652922e-10
-2.15271144737e-08
-6.39779957522e-09
-4.34494250951e-13
-1.51088686308e-09
-2.19983945173e-08
-7.33537111629e-09
-1.79763412185e-09
-2.24428745381e-08
-8.18804944121e-09
-1.76629508535e-09
-2.28041611296e-08
-8.92911831609e-09
-1.4639220849e-09
-2.30879036792e-08
-9.53265720475e-09
-9.56782743068e-10
-2.32900506151e-08
-9.97861298345e-09
-3.23350696218e-10
-2.34127006507e-08
-1.02533000501e-08
3.51592612297e-10
-2.34562504299e-08
-1.03473212075e-08
9.84531449489e-10
-2.34122184823e-08
-1.02528602147e-08
1.49068221224e-09
-2.3289111074e-08
-9.97774050935e-09
1.79160217063e-09
-2.30865354667e-08
-9.53139283765e-09
1.82106964729e-09
-2.28023931927e-08
-8.92752169642e-09
1.53209266708e-09
-2.24407157839e-08
-8.18619548022e-09
9.13997388219e-10
-2.19958245692e-08
-7.33333562569e-09
-2.1523976375e-08
-6.39567846161e-09
1.55957347517e-11
-9.59517447725e-10
-1.8320268315e-08
-5.96236939067e-09
-4.12144573206e-13
-1.61220278754e-09
-1.86267978867e-08
-6.90936396067e-09
-1.90039957593e-09
-1.89920149241e-08
-7.7660581999e-09
-1.85364396526e-09
-1.92935946507e-08
-8.50623194633e-09
-1.52905343274e-09
-1.95285261074e-08
-9.10633058633e-09
-9.96645262845e-10
-1.96944804978e-08
-9.54826363532e-09
-3.3647051477e-10
-1.97939283601e-08
-9.81946893001e-09
3.65631977689e-10
-1.98280581136e-08
-9.91163217898e-09
1.02527234418e-09
-1.97933113764e-08
-9.81905491907e-09
1.55661392044e-09
-1.96932671163e-08
-9.5474440285e-09
1.87964317252e-09
-1.9526742908e-08
-9.10514644245e-09
1.9244025065e-09
-1.9291269392e-08
-8.50474391718e-09
1.63385278461e-09
-1.89891602024e-08
-7.76434406016e-09
9.78514233368e-10
-1.86233693e-08
-6.90750422211e-09
-1.83161969906e-08
-5.96046003544e-09
1.58499157233e-11
-1.09171585485e-09
-5.43406897157e-09
-3.78080229069e-13
-1.50530847776e-08
-1.75643943332e-09
-6.39182943997e-09
-1.53023329282e-08
-2.02764891868e-09
-7.249004029e-09
-1.56140272896e-08
-1.95674427967e-09
-7.98473410862e-09
-1.58643128244e-08
-1.60506709416e-09
-8.57852249824e-09
-1.60566923037e-08
-1.04317352985e-09
-9.01435634788e-09
-1.61925087931e-08
-3.51853438014e-10
-9.28078811181e-09
-1.62733170989e-08
3.81936949694e-10
-9.37061358367e-09
-1.62998992629e-08
1.0726835134e-09
-9.28040633757e-09
-1.62724951501e-08
1.63343532042e-09
-9.01360195911e-09
-1.61908859181e-08
1.98344481774e-09
-8.57743570054e-09
-1.60542980339e-08
2.05222453453e-09
-7.98337435669e-09
-1.58611854264e-08
1.77853160659e-09
-7.24744933962e-09
-1.56101973393e-08
1.11106469604e-09
-6.39015854096e-09
-1.52977808002e-08
-5.43240385962e-09
1.61579733369e-11
-1.50477725289e-08
-2.23425267236e-11
1.1304060476e-09
-8.82048241151e-10
-1.28831455603e-13
-3.45270389519e-11
1.24662645352e-09
-9.80427716169e-10
-3.89056145883e-11
1.35813801955e-09
-1.07410827525e-09
-3.79367053505e-11
1.45956899826e-09
-1.15871731642e-09
-3.18238230993e-11
1.54366201951e-09
-1.22978449519e-09
-2.14808388317e-11
1.60675803402e-09
-1.2835909221e-09
-8.28670727543e-12
1.64639792943e-09
-1.31762484289e-09
5.9388453933e-12
1.66062942844e-09
-1.32984461266e-09
1.91751759712e-11
1.6464651796e-09
-1.31759690975e-09
2.96077663243e-11
1.60689808715e-09
-1.28353441763e-09
3.58665294799e-11
1.54389515349e-09
-1.22970078238e-09
3.70505513809e-11
1.45990733361e-09
-1.15860870798e-09
3.2941459141e-11
1.3585477827e-09
-1.07397859017e-09
2.10650152726e-11
1.24709978166e-09
-9.80282948736e-10
1.13081781472e-09
-8.81897714184e-10
-1.08395264945e-12
-3.09713495602e-11
3.07194253963e-09
-2.2484227687e-09
-3.30400642255e-13
-4.59564118188e-11
3.33714679139e-09
-2.49169594171e-09
-5.11356916502e-11
3.58482488433e-09
-2.72212928758e-09
-4.92703053181e-11
3.80320954675e-09
-2.92924808593e-09
-4.13310406945e-11
3.9805703189e-09
-3.10256922127e-09
-2.83948181353e-11
4.1112959557e-09
-3.23343988967e-09
-1.20744939871e-11
4.19271959744e-09
-3.31607034372e-09
5.53760096928e-12
4.22213451817e-09
-3.34569655103e-09
2.1980338454e-11
4.19299973071e-09
-3.31599915898e-09
3.51745610348e-11
4.11185496604e-09
-3.23329188366e-09
4.35237522411e-11
3.98143598943e-09
-3.1023475164e-09
4.59710294865e-11
3.80439707414e-09
-2.92895835741e-09
4.15222351465e-11
3.58627345386e-09
-2.72178130402e-09
2.73791172654e-11
3.33878473361e-09
-2.49130550443e-09
3.07353717617e-09
-2.2480131209e-09
-3.05929166778e-12
-1.91938074808e-11
4.89459047726e-09
-3.35118624243e-09
-4.69709431194e-13
-2.41893451198e-11
5.23784584735e-09
-3.71313926703e-09
-2.50225444921e-11
5.55065302683e-09
-4.05486868797e-09
-2.3325279298e-11
5.81733828092e-09
-4.36122370005e-09
-1.98713862779e-11
6.02867482417e-09
-4.61707907901e-09
-1.48147960033e-11
6.18126234805e-09
-4.80997993797e-09
-8.5127860648e-12
6.275397113e-09
-4.93158177226e-09
-1.58301389844e-12
6.30975676353e-09
-4.975059697e-09
4.90884476408e-12
6.27593360677e-09
-4.93146726608e-09
1.03642571934e-11
6.18232096504e-09
-4.80974684196e-09
1.44440637692e-11
6.03027867607e-09
-4.61673068588e-09
1.70139612209e-11
5.81949727323e-09
-4.36076936552e-09
1.72764528036e-11
5.55329469654e-09
-4.05432400008e-09
1.3552021097e-11
5.24083289492e-09
-3.71252843516e-09
4.89764818732e-09
-3.35054538834e-09
-4.80858735524e-12
1.92086757152e-12
6.1811659302e-09
-4.26801301205e-09
-5.63695460596e-13
1.12094897066e-11
6.51858164561e-09
-4.73248755512e-09
1.61154201538e-11
6.82010231671e-09
-5.16959564965e-09
1.64889243097e-11
7.06767387121e-09
-5.56052670012e-09
1.27054213648e-11
7.25827212422e-09
-5.88644252504e-09
6.01342407899e-12
7.39260618132e-09
-6.13184552968e-09
-2.21894138992e-12
7.47468399673e-09
-6.28631826416e-09
-1.0718733734e-11
7.50519371739e-09
-6.34138731199e-09
-1.87153428285e-11
7.47539418513e-09
-6.28614356792e-09
-2.49073272913e-11
7.39402294487e-09
-6.1315108666e-09
-2.79093729075e-11
7.26042366017e-09
-5.88595893567e-09
-2.64555941168e-11
7.07057057642e-09
-5.55990861588e-09
-2.01908254366e-11
6.82368125348e-09
-5.16886500051e-09
-9.31569424508e-12
6.52267667243e-09
-4.73167515461e-09
6.18551908301e-09
-4.26717023327e-09
-6.31768894142e-12
2.53137555625e-11
6.84426724463e-09
-5.00817474091e-09
-6.19519978746e-13
4.75164179363e-11
7.12347631119e-09
-5.56043121767e-09
5.71580512004e-11
7.36974208271e-09
-6.07858710076e-09
5.54599824095e-11
7.56348748728e-09
-6.54103440959e-09
4.42407589362e-11
7.70756452124e-09
-6.92600270104e-09
2.61324753651e-11
7.80614510364e-09
-7.21555740951e-09
4.07043482157e-12
7.86581695482e-09
-7.39758176298e-09
-1.90395150701e-11
7.88871505129e-09
-7.46228763659e-09
-4.08426212973e-11
7.86661946466e-09
-7.39736676849e-09
-5.83959813637e-11
7.80775794506e-09
-7.21514919542e-09
-6.87483853175e-11
7.71001876846e-09
-6.92541376673e-09
-6.9249364099e-11
7.56680003686e-09
-6.54028455909e-09
-5.80954046144e-11
7.37386719611e-09
-6.07770482932e-09
-3.41123295579e-11
7.1282575459e-09
-5.55945375979e-09
6.84949073546e-09
-5.0071632476e-09
-7.54415463942e-12
4.71007850196e-11
6.97956823126e-09
-5.58333054492e-09
-6.45617030452e-13
7.90304443322e-11
7.18523990356e-09
-6.21064150277e-09
9.19080625125e-11
7.36490516831e-09
-6.79761575459e-09
8.79764033987e-11
7.49922946063e-09
-7.32051222683e-09
7.03464219508e-11
7.59466739624e-09
-7.75524403926e-09
4.27697931117e-11
7.65734360098e-09
-8.08191558516e-09
9.40012888175e-12
7.69490520886e-09
-8.28699674712e-09
-2.5617004003e-11
7.71013902421e-09
-8.35967242346e-09
-5.8722371528e-11
7.69573270643e-09
-8.28674650887e-09
-8.57296284047e-11
7.65901163453e-09
-8.08143912081e-09
-1.02468149926e-10
7.59720678743e-09
-7.75455820089e-09
-1.05166132101e-10
7.50266161851e-09
-7.31964301381e-09
-9.07188748069e-11
7.3692032945e-09
-6.79659887165e-09
-5.69272488923e-11
7.19027031182e-09
-6.20952079608e-09
6.98518772213e-09
-5.5821751057e-09
-8.46298106367e-12
6.54207856003e-11
6.73944446794e-09
-6.00599668232e-09
-6.48448841266e-13
1.04165359811e-10
6.8798786228e-09
-6.69736740458e-09
1.19074394688e-10
7.00029805101e-09
-7.34258982538e-09
1.13126008308e-10
7.0844850348e-09
-7.91632292371e-09
9.04366083607e-11
7.14023924924e-09
-8.39269796188e-09
5.55878403835e-11
7.17440687482e-09
-8.75029704738e-09
1.36180983067e-11
7.19459585809e-09
-8.97446133103e-09
-3.04371023223e-11
7.20368002588e-09
-9.05362677585e-09
-7.21492030868e-11
7.19540110687e-09
-8.97417900811e-09
-1.06440832164e-10
7.17603065211e-09
-8.7497582958e-09
-1.28255271056e-10
7.1427085942e-09
-8.39192433442e-09
-1.32989250996e-10
7.08782091916e-09
-7.9153469858e-09
-1.16523968032e-10
7.00448873579e-09
-7.34145475855e-09
-7.59188303528e-11
6.88481338134e-09
-6.69612371676e-09
6.74504711607e-09
-6.00472012285e-09
-9.08859464383e-12
7.96629636094e-11
6.26448484381e-09
-6.28762592643e-09
-6.34034498302e-13
1.23169757453e-10
6.35714712478e-09
-7.03315536563e-09
1.39308121635e-10
6.43215480438e-09
-7.72700472855e-09
1.31694844445e-10
6.47946598615e-09
-8.34272774095e-09
1.05204538971e-10
6.5067996338e-09
-8.85319294998e-09
6.50265756958e-11
6.52103706233e-09
-9.23591262775e-09
1.68175418315e-11
6.52916600669e-09
-9.4754126833e-09
-3.37799707676e-11
6.53385277886e-09
-9.55967259522e-09
-8.17434347339e-11
6.5299199052e-09
-9.47510239726e-09
-1.21388924502e-10
6.52255483264e-09
-9.2353195186e-09
-1.47041506521e-10
6.50910058536e-09
-8.85234326241e-09
-1.53489434825e-10
6.48256524206e-09
-8.34166051491e-09
-1.35850372274e-10
6.43604728614e-09
-7.72577044192e-09
-9.05352321005e-11
6.36174465928e-09
-7.03181087736e-09
6.26975388192e-09
-6.28625243671e-09
-9.46360568214e-12
8.99414628644e-11
5.66073773668e-09
-6.43785148459e-09
-6.08451864909e-13
1.3687558882e-10
5.72322445467e-09
-7.22824819468e-09
1.53745111939e-10
5.76649997259e-09
-7.96162485395e-09
1.44834839336e-10
5.78895521287e-09
-8.61091332115e-09
1.15597305825e-10
5.79762968919e-09
-9.14822819366e-09
7.16759559434e-11
5.79913860015e-09
-9.55047315279e-09
1.91441385513e-11
5.79960876897e-09
-9.80169042652e-09
-3.59697227059e-11
5.80137202131e-09
-9.88970124585e-09
-8.82684206564e-11
5.8002917997e-09
-9.80135729055e-09
-1.3168413794e-10
5.80050962629e-09
-9.54983561835e-09
-1.60126496931e-10
5.79969835474e-09
-9.14731692815e-09
-1.6793039232e-10
5.79172786089e-09
-8.60977342368e-09
-1.49632449054e-10
5.76997146491e-09
-7.9603135922e-09
-1.00967621228e-10
5.72732295249e-09
-7.22682811048e-09
5.66545715662e-09
-6.43640795113e-09
-9.64502436882e-12
9.67693703171e-11
5.00009039314e-09
-6.46478942746e-09
-5.75217814496e-13
1.462181093e-10
5.04626100808e-09
-7.29121024033e-09
1.63523926179e-10
5.06884507968e-09
-8.05548354026e-09
1.53672149217e-10
5.07568875514e-09
-8.73034786817e-09
1.22544603857e-10
5.07308904968e-09
-9.28762992503e-09
7.61246586989e-11
5.06724450759e-09
-9.70407043533e-09
2.07566682606e-11
5.0633274177e-09
-9.96355694111e-09
-3.73057807856e-11
5.06327982126e-09
-1.00540419853e-08
-9.2450671312e-11
5.0639244423e-09
-9.96320682247e-09
-1.38388117399e-10
5.06843816069e-09
-9.70339990687e-09
-1.6875896305e-10
5.07487899949e-09
-9.28667362351e-09
-1.77560576147e-10
5.07807070742e-09
-8.72915633226e-09
-1.58899044065e-10
5.07180981916e-09
-8.05412011977e-09
-1.07802192225e-10
5.04974805681e-09
-7.28974223196e-09
5.00410724739e-09
-6.46330504594e-09
-9.6910578869e-12
1.00823141164e-10
4.32820915819e-09
-6.37573768287e-09
-5.38967797529e-13
1.5211124597e-10
4.36736036846e-09
-7.22988072883e-09
1.69730458942e-10
4.3772293299e-09
-8.01707772588e-09
1.59298330652e-10
4.37504825147e-09
-8.71015474082e-09
1.26969196465e-10
4.36650933523e-09
-9.28104335029e-09
7.89728562311e-11
4.35720263805e-09
-9.70674227723e-09
2.18344678427e-11
4.35127403181e-09
-9.97130236294e-09
-3.80627659838e-11
4.35023749758e-09
-1.00630802828e-08
-9.49846888362e-11
4.35177060094e-09
-9.97094164882e-09
-1.42515702978e-10
4.35819051379e-09
-9.70605117452e-09
-1.74118799694e-10
4.36797982698e-09
-9.28005984468e-09
-1.83548023032e-10
4.37698694065e-09
-8.70893403001e-09
-1.64637173443e-10
4.37962065224e-09
-8.01568842341e-09
-1.11777557818e-10
4.37015031324e-09
-7.22839380684e-09
4.33141540026e-09
-6.37424280617e-09
-9.65147087711e-12
1.02758067656e-10
3.67289716233e-09
-6.17779460117e-09
-5.02150278935e-13
1.55471073734e-10
3.71008445487e-09
-7.05215812651e-09
1.7354100141e-10
3.71248459993e-09
-7.8552541957e-09
1.62936170276e-10
3.70589632229e-09
-8.56000877848e-09
1.29916703738e-10
3.69536511435e-09
-9.13879811124e-09
8.09103058646e-11
3.68551552142e-09
-9.56930268198e-09
2.26010832592e-11
3.67936262598e-09
-9.83605023163e-09
-3.85190039033e-11
3.67796669545e-09
-9.92805503369e-09
-9.66151605024e-11
3.67974336464e-09
-9.83568571507e-09
-1.4516706822e-10
3.6862689865e-09
-9.56860413579e-09
-1.77482651645e-10
3.69647561175e-09
-9.13780604828e-09
-1.87121383837e-10
3.70734197661e-09
-8.55878206614e-09
-1.678125425e-10
3.71424237519e-09
-7.85386582617e-09
-1.13592556633e-10
3.71210453748e-09
-7.05068174433e-09
3.67520467761e-09
-6.17631976633e-09
-9.56524572567e-12
1.03234958811e-10
3.05045632815e-09
-5.87821694129e-09
-4.66942006955e-13
1.57604165747e-10
3.08682602016e-09
-6.76655828164e-09
1.76706167873e-10
3.08502215403e-09
-7.57976842735e-09
1.66341188341e-10
3.07762862759e-09
-8.29056452124e-09
1.32827168407e-10
3.0683552539e-09
-8.87221298124e-09
8.28656632037e-11
3.06034813156e-09
-9.30356326165e-09
2.33697824004e-11
3.05541224838e-09
-9.56993224957e-09
-3.90113955193e-11
3.05416678328e-09
-9.66121825098e-09
-9.82941768877e-11
3.05566097365e-09
-9.56957114799e-09
-1.47806615738e-10
3.06083564643e-09
-9.30287111414e-09
-1.80630356814e-10
3.06906383942e-09
-8.87123173267e-09
-1.90056557484e-10
3.07853055641e-09
-8.28935536674e-09
-1.69757382191e-10
3.0860891178e-09
-7.57840773322e-09
-1.13934449304e-10
3.08800647156e-09
-6.76512194417e-09
3.05178405268e-09
-5.876793225e-09
-9.45492794326e-12
1.03302717686e-10
2.46965370338e-09
-5.48452099923e-09
-4.35610127538e-13
1.61003798394e-10
2.50252268269e-09
-6.38282966891e-09
1.82273699081e-10
2.49929034587e-09
-7.2016654979e-09
1.72299639979e-10
2.4948292393e-09
-7.91353008401e-09
1.37857429204e-10
2.48990593806e-09
-8.493510244e-09
8.61938078461e-11
2.48585087696e-09
-8.92217431976e-09
2.46011528654e-11
2.48336091382e-09
-9.1858962622e-09
-4.00023030984e-11
2.48270126905e-09
-9.27563310897e-09
-1.01378996537e-10
2.48345942194e-09
-9.1855463292e-09
-1.52592120476e-10
2.48603943443e-09
-8.92150335622e-09
-1.86349944395e-10
2.49016725276e-09
-8.49256021661e-09
-1.95402551989e-10
2.49513683175e-09
-7.91236255482e-09
-1.72970860795e-10
2.49961123758e-09
-7.20035862561e-09
-1.13862250296e-10
2.5028011338e-09
-6.38146234393e-09
2.46992734657e-09
-5.48318089933e-09
-9.33497862156e-12
9.83949551263e-11
-5.00702396062e-09
-4.06895815187e-13
1.94453767246e-09
1.67550009119e-10
-5.91539855897e-09
1.95687466386e-09
1.93168727956e-10
-6.73465403984e-09
1.95925807426e-09
1.83704655535e-10
-7.44210357214e-09
1.96159923228e-09
1.47496218948e-10
-8.01571647544e-09
1.96324303321e-09
9.25965599109e-11
-8.43816788025e-09
1.96449693923e-09
2.69039538661e-11
-8.69703035602e-09
1.96523179513e-09
-4.20906447542e-11
-8.78442343899e-09
1.96544270016e-09
-1.07560332518e-10
-8.69670021343e-09
1.96516136218e-09
-1.6200137347e-10
-8.43753455252e-09
1.96435039609e-09
-1.97520008358e-10
-8.01482042895e-09
1.96300849511e-09
-2.06069500804e-10
-7.44100414621e-09
1.96125618491e-09
-1.7931461612e-10
-6.73342863148e-09
1.95877968921e-09
-1.0880520649e-10
-5.91412400624e-09
1.95620503531e-09
-5.00580928816e-09
-9.18294160838e-12
1.94366208011e-09
1.84721091498e-11
-2.18288884345e-10
-6.82287727417e-10
-8.22781498046e-14
2.92405977511e-11
-2.42442208053e-10
-7.48901781702e-10
3.4273398863e-11
-2.67688848531e-10
-8.11623218457e-10
3.38455127113e-11
-2.9062815905e-10
-8.67790670874e-10
2.83619548395e-11
-3.09817237889e-10
-9.14629135114e-10
1.87535536422e-11
-3.24242115181e-10
-9.49892810492e-10
6.41473790277e-12
-3.33293831627e-10
-9.72131437561e-10
-6.89887270525e-12
-3.36509012133e-10
-9.80140527125e-10
-1.92105049908e-11
-3.33281203356e-10
-9.72106438092e-10
-2.87700816578e-11
-3.24223100741e-10
-9.49842976186e-10
-3.41967821214e-11
-3.09802312055e-10
-9.14555273972e-10
-3.4573305992e-11
-2.90616599671e-10
-8.67694034167e-10
-2.94731437497e-11
-2.67647336946e-10
-8.11505836997e-10
-1.86479365253e-11
-2.42411096841e-10
-7.48767724828e-10
-2.18252580527e-10
-6.82143582115e-10
-2.16084046484e-13
4.09276267418e-11
-4.73217245238e-10
-2.03443886733e-09
-2.00996206608e-13
6.66236774595e-11
-5.18928289879e-10
-2.2411521712e-09
7.87200967837e-11
-5.65900831559e-10
-2.43626016718e-09
7.78935415322e-11
-6.08052183166e-10
-2.61121834698e-09
6.52858173338e-11
-6.42694536811e-10
-2.75731872948e-09
4.31644833613e-11
-6.68358691152e-10
-2.8674378167e-09
1.47886728744e-11
-6.84336328389e-10
-2.93686590324e-09
-1.58096738182e-11
-6.90034391447e-10
-2.96175813008e-09
-4.41300640727e-11
-6.84327515723e-10
-2.93679445219e-09
-6.61519548837e-11
-6.68343319321e-10
-2.86729496081e-09
-7.86428176118e-11
-6.42685928008e-10
-2.75710665591e-09
-7.93552371072e-11
-6.08047163442e-10
-2.61094067437e-09
-6.71252513411e-11
-5.65853966753e-10
-2.43592320811e-09
-4.1305804815e-11
-5.18879519895e-10
-2.24076779951e-09
-4.73162247712e-10
-2.0340263403e-09
-4.8544750101e-13
5.21849819324e-11
-6.58383981209e-10
-3.2181231993e-09
-2.7574372617e-13
8.59583796067e-11
-7.14391744988e-10
-3.5516748224e-09
1.01855252528e-10
-7.7089567824e-10
-3.86598808777e-09
1.00737130303e-10
-8.20930053656e-10
-4.14743134655e-09
8.43285160264e-11
-8.6136260698e-10
-4.38221520296e-09
5.57071905974e-11
-8.90880479763e-10
-4.5590502686e-09
1.91171517578e-11
-9.09094112995e-10
-4.67042856194e-09
-2.02940808255e-11
-9.15605434456e-10
-4.71024754349e-09
-5.68201257279e-11
-9.09104555797e-10
-4.67031402742e-09
-8.53288022955e-11
-8.90894626385e-10
-4.55882185589e-09
-1.01604852818e-10
-8.6138851733e-10
-4.38187659475e-09
-1.02589866212e-10
-8.2095959988e-10
-4.14698887561e-09
-8.65429828103e-11
-7.70882570549e-10
-3.86545277123e-09
-5.26260837117e-11
-7.14362442298e-10
-3.5510657847e-09
-6.58351928051e-10
-3.21747083155e-09
-6.06043706372e-13
5.59810978885e-11
-7.81511145672e-10
-4.20072998698e-09
-3.15734157145e-13
9.2850560061e-11
-8.40219105688e-10
-4.64372184745e-09
1.10251968496e-10
-8.97946984667e-10
-5.06013688324e-09
1.0899368433e-10
-9.48066086873e-10
-5.43231936453e-09
9.11459174246e-11
-9.87754875724e-10
-5.74239375715e-09
6.01762811875e-11
-1.01623069358e-09
-5.97571353855e-09
2.07013736283e-11
-1.03361895794e-09
-6.12249098022e-09
-2.17766344246e-11
-1.03985024957e-09
-6.17481807989e-09
-6.11899461811e-11
-1.03363549946e-09
-6.12233647635e-09
-9.20558085689e-11
-1.01625814404e-09
-5.97540633388e-09
-1.09782265547e-10
-9.87797435512e-10
-5.74193949544e-09
-1.10917890387e-10
-9.48113996476e-10
-5.4317277905e-09
-9.33807828823e-11
-8.97963491382e-10
-5.05942426688e-09
-5.63818865822e-11
-8.40218077237e-10
-4.64291417723e-09
-7.81509344434e-10
-4.19986678455e-09
-6.14587475914e-13
5.50383319882e-11
-8.48330163299e-10
-4.99622674685e-09
-3.28813187481e-13
9.18204104055e-11
-9.04420758706e-10
-5.53317184691e-09
1.09241801919e-10
-9.57643856575e-10
-6.036479695e-09
1.07996423659e-10
-1.00259960897e-09
-6.48541969504e-09