/*--------------------------------*- C++ -*----------------------------------*\
  =========                 |
  \\      /  F ield         | OpenFOAM: The Open Source CFD Toolbox
   \\    /   O peration     | Website:  https://openfoam.org
    \\  /    A nd           | Version:  7
     \\/     M anipulation  |
\*---------------------------------------------------------------------------*/
FoamFile
{
    version     2.0;
    format      ascii;
    class       volScalarField;
    location    "0.52";
    object      p;
}
// * * * * * * * * * * * * * * * * * * * * * * * * * * * * * * * * * * * * * //

dimensions      [0 2 -2 0 0 0 0];

internalField   nonuniform List<scalar> 
22500
(
1.5458081411e-05
1.54532480457e-05
1.54526587105e-05
1.54513636104e-05
1.54505687059e-05
1.54499499346e-05
1.54495717946e-05
1.54494210509e-05
1.54495293782e-05
1.54498666145e-05
1.5450446768e-05
1.54512084298e-05
1.54524767788e-05
1.54530555485e-05
1.54578836955e-05
1.53832943174e-05
1.53745826891e-05
1.53707326991e-05
1.53665905914e-05
1.53634954266e-05
1.53611880367e-05
1.53597799534e-05
1.53592849023e-05
1.53597368425e-05
1.53611032702e-05
1.53633715364e-05
1.53664326875e-05
1.53705480573e-05
1.53743868146e-05
1.53830920835e-05
1.53100684605e-05
1.52976614317e-05
1.52909734631e-05
1.52842717854e-05
1.52791445308e-05
1.52753457642e-05
1.52730310887e-05
1.52722333941e-05
1.5272989519e-05
1.52752640328e-05
1.52790252768e-05
1.5284119785e-05
1.52907958027e-05
1.52974721505e-05
1.53098700066e-05
1.52444449522e-05
1.52289318017e-05
1.52200243459e-05
1.52113454276e-05
1.52046576346e-05
1.51997233299e-05
1.51967211467e-05
1.5195694885e-05
1.51966818972e-05
1.51996461497e-05
1.52045451762e-05
1.52112022221e-05
1.52198567147e-05
1.52287525358e-05
1.52442537412e-05
1.5182929864e-05
1.51647110022e-05
1.51539489348e-05
1.51436768947e-05
1.51357295492e-05
1.51298885939e-05
1.51263396399e-05
1.51251324719e-05
1.51263027817e-05
1.51298161361e-05
1.51356240236e-05
1.51435425813e-05
1.51537915059e-05
1.51645421599e-05
1.51827475169e-05
1.51248410183e-05
1.51043242559e-05
1.5092024514e-05
1.5080494817e-05
1.5071548303e-05
1.50649965293e-05
1.50610200243e-05
1.5059671989e-05
1.50609856532e-05
1.50649289255e-05
1.50714498773e-05
1.50803695011e-05
1.50918776016e-05
1.51041658189e-05
1.51246676446e-05
1.50705091436e-05
1.50481282072e-05
1.50345871943e-05
1.50221104012e-05
1.5012403913e-05
1.50053185489e-05
1.50010217861e-05
1.49995686466e-05
1.50009898283e-05
1.50052556807e-05
1.50123123664e-05
1.50219937641e-05
1.50344503376e-05
1.50479799748e-05
1.50703443619e-05
1.50199533187e-05
1.49961192507e-05
1.49815859829e-05
1.49684269274e-05
1.49581625107e-05
1.4950691072e-05
1.49461631452e-05
1.49446345026e-05
1.49461334846e-05
1.49506327236e-05
1.49580774752e-05
1.49683184787e-05
1.49814585838e-05
1.49959804467e-05
1.5019796411e-05
1.49729685368e-05
1.49480582177e-05
1.49327420195e-05
1.49191239484e-05
1.49084715541e-05
1.49007361581e-05
1.48960507061e-05
1.48944709748e-05
1.48960231623e-05
1.49006819478e-05
1.49083924862e-05
1.49190229061e-05
1.49326231582e-05
1.49479277267e-05
1.49728185637e-05
1.49293131133e-05
1.49036762792e-05
1.48877681875e-05
1.4873886576e-05
1.48629959337e-05
1.4855102113e-05
1.48503228815e-05
1.48487131755e-05
1.48502972367e-05
1.48550516067e-05
1.48629221695e-05
1.48737921098e-05
1.48876567881e-05
1.49035528842e-05
1.49291687247e-05
1.4888753157e-05
1.48627240078e-05
1.4846417813e-05
1.48324507755e-05
1.48214582635e-05
1.48135005234e-05
1.48086847217e-05
1.48070640768e-05
1.48086607381e-05
1.48134532526e-05
1.48213890983e-05
1.48323619305e-05
1.48463127184e-05
1.48626063849e-05
1.48886129447e-05
1.4851051432e-05
1.48249888424e-05
1.48085062151e-05
1.47946167925e-05
1.47836442475e-05
1.47757062145e-05
1.47709051865e-05
1.47692907083e-05
1.47708826355e-05
1.47756616617e-05
1.4783578915e-05
1.47945325517e-05
1.48084061413e-05
1.48248755406e-05
1.48509141378e-05
1.48159021633e-05
1.47903242346e-05
1.4773942538e-05
1.47602647236e-05
1.47494101328e-05
1.47415626586e-05
1.47368214406e-05
1.47352288274e-05
1.47368000304e-05
1.474152037e-05
1.47493478297e-05
1.47601839777e-05
1.47738460224e-05
1.47902135874e-05
1.48157660566e-05
1.47831719813e-05
1.47587157374e-05
1.47426462984e-05
1.4729265052e-05
1.47186130914e-05
1.47109345221e-05
1.4706307239e-05
1.47047548981e-05
1.47062867794e-05
1.47108939604e-05
1.47185529866e-05
1.47291864851e-05
1.47425516705e-05
1.4758605758e-05
1.47830356589e-05
1.47546378214e-05
1.4729674136e-05
1.47141156535e-05
1.4701049135e-05
1.46907488663e-05
1.46833870167e-05
1.46789708474e-05
1.46774926541e-05
1.4678951083e-05
1.46833477541e-05
1.46906903073e-05
1.47009717388e-05
1.47140207044e-05
1.47295623107e-05
1.47545026057e-05
7.04591037007e-06
7.04840292048e-06
7.05035588622e-06
7.0522304508e-06
7.05385967347e-06
7.0551146195e-06
7.05591418801e-06
7.05619473874e-06
7.05593566965e-06
7.05515542619e-06
7.05391507179e-06
7.05229476181e-06
7.05042663713e-06
7.04847774101e-06
7.04598857084e-06
7.05537541175e-06
7.0582931802e-06
7.06065677669e-06
7.06290440979e-06
7.06485456846e-06
7.06635357306e-06
7.0673066509e-06
7.06763993549e-06
7.06732786106e-06
7.06639377594e-06
7.06490903445e-06
7.06296725296e-06
7.0607248692e-06
7.05836580882e-06
7.05545143686e-06
7.06812868898e-06
7.07207603765e-06
7.07529678581e-06
7.07834484608e-06
7.08097899092e-06
7.08299703781e-06
7.08427520824e-06
7.08471928087e-06
7.08429617632e-06
7.08303694333e-06
7.08103356104e-06
7.07840862917e-06
7.07536596973e-06
7.07215044192e-06
7.06820568709e-06
7.08502787915e-06
7.09071951718e-06
7.09531458546e-06
7.09961835575e-06
7.1033106888e-06
7.10612510491e-06
7.10789847162e-06
7.10851052029e-06
7.10791906207e-06
7.10616450276e-06
7.10336517313e-06
7.09968304309e-06
7.0953852394e-06
7.09079564655e-06
7.08510589926e-06
7.10675075257e-06
7.11475348375e-06
7.12109117374e-06
7.1269535263e-06
7.13193814959e-06
7.13571487192e-06
7.13808182786e-06
7.13889438362e-06
7.13810188812e-06
7.13575337586e-06
7.13199182468e-06
7.12701795381e-06
7.12116217343e-06
7.11483010918e-06
7.10682893858e-06
7.13280816095e-06
7.1434541585e-06
7.15170163179e-06
7.15923644619e-06
7.16558535327e-06
7.1703663681e-06
7.1733475883e-06
7.17436667805e-06
7.17336681264e-06
7.17040337998e-06
7.16563730777e-06
7.15929940814e-06
7.1517715821e-06
7.14353019691e-06
7.13288489944e-06
7.1622270508e-06
7.1756194735e-06
7.18577017136e-06
7.19493236533e-06
7.20258602967e-06
7.20831532968e-06
7.21187099347e-06
7.21308222262e-06
7.21188916261e-06
7.20835040704e-06
7.20263551904e-06
7.19499280893e-06
7.18583775761e-06
7.17569358406e-06
7.16230125802e-06
7.19395807445e-06
7.21000202416e-06
7.22191859584e-06
7.2325469607e-06
7.24135378196e-06
7.24790895293e-06
7.25195920002e-06
7.25333479893e-06
7.2519761125e-06
7.24794168024e-06
7.24140017991e-06
7.2326040269e-06
7.22198291114e-06
7.21007296855e-06
7.19402902749e-06
7.22702095646e-06
7.24546699698e-06
7.25892492276e-06
7.27078471223e-06
7.28053853497e-06
7.28775976272e-06
7.29220308456e-06
7.2937082217e-06
7.29221864137e-06
7.28778991745e-06
7.28058145645e-06
7.27083777946e-06
7.25898518015e-06
7.24553390354e-06
7.22708761227e-06
7.26056113906e-06
7.28105153414e-06
7.29577500442e-06
7.3085945408e-06
7.31906522526e-06
7.32677803419e-06
7.33150527711e-06
7.33310276518e-06
7.33151943125e-06
7.32680551616e-06
7.31910447817e-06
7.30864332973e-06
7.29583080017e-06
7.28111388397e-06
7.26062302605e-06
7.29387169705e-06
7.31597866635e-06
7.3316663321e-06
7.34516526087e-06
7.35612058997e-06
7.36415143256e-06
7.36905503344e-06
7.37070843357e-06
7.36906783423e-06
7.36417633331e-06
7.35615625123e-06
7.34520974194e-06
7.33171751438e-06
7.31603619922e-06
7.29392830126e-06
7.32637248016e-06
7.34963060691e-06
7.36597946417e-06
7.37989362357e-06
7.39111601084e-06
7.39930255174e-06
7.40428235728e-06
7.40595773562e-06
7.40429394923e-06
7.39932510398e-06
7.39114841707e-06
7.37993413459e-06
7.36602628673e-06
7.34968334109e-06
7.32642384988e-06
7.3575707546e-06
7.38153821395e-06
7.39827491171e-06
7.41236902403e-06
7.42365865011e-06
7.4318499092e-06
7.43681264546e-06
7.4384786584e-06
7.43682320198e-06
7.43187057604e-06
7.42368833986e-06
7.4124062461e-06
7.39831797111e-06
7.38158667282e-06
7.35761721452e-06
7.38737511011e-06
7.41170635303e-06
7.42846954838e-06
7.44246642605e-06
7.45357696553e-06
7.4615880047e-06
7.46642178665e-06
7.46804084861e-06
7.46643156916e-06
7.46160714447e-06
7.45360460271e-06
7.44250102528e-06
7.4285097274e-06
7.41175106215e-06
7.38741729288e-06
7.41743526552e-06
7.44018400811e-06
7.45645976741e-06
7.47002460691e-06
7.48063602824e-06
7.48823261372e-06
7.49279818392e-06
7.49432450708e-06
7.49280725377e-06
7.48825053553e-06
7.48066201898e-06
7.47005740338e-06
7.45649765514e-06
7.44022574276e-06
7.41747505755e-06
8.79761318415e-06
8.79711893311e-06
8.79627241394e-06
8.79531621087e-06
8.79439630875e-06
8.79364930555e-06
8.79316232092e-06
8.79299212736e-06
8.79316019655e-06
8.79364599834e-06
8.79439350373e-06
8.79531478777e-06
8.79626700527e-06
8.79711184764e-06
8.79759950034e-06
8.79899153351e-06
8.79856065973e-06
8.79777202708e-06
8.79687038595e-06
8.79599135299e-06
8.79527230759e-06
8.79480107897e-06
8.79463580255e-06
8.79479862564e-06
8.79526828813e-06
8.79598742967e-06
8.79686737765e-06
8.79776565164e-06
8.79855167247e-06
8.79897669516e-06
8.80076126615e-06
8.80041649863e-06
8.79970100522e-06
8.79886981348e-06
8.79804454119e-06
8.79736415947e-06
8.79691591679e-06
8.79675835447e-06
8.79691371589e-06
8.79736051518e-06
8.79804084405e-06
8.79886670971e-06
8.79969517304e-06
8.80040780477e-06
8.80074690373e-06
8.80203659838e-06
8.80175777674e-06
8.80109169505e-06
8.80031605679e-06
8.79953570764e-06
8.79888966224e-06
8.79846295268e-06
8.79831290118e-06
8.798461161e-06
8.79888666654e-06
8.79953252073e-06
8.80031318702e-06
8.80108664446e-06
8.80175021776e-06
8.80202270381e-06
8.80299222637e-06
8.80280554191e-06
8.80220520527e-06
8.80150890751e-06
8.80079834677e-06
8.80020781999e-06
8.79981684656e-06
8.7996792413e-06
8.79981536274e-06
8.8002053364e-06
8.80079563567e-06
8.80150633166e-06
8.8022007014e-06
8.80279899216e-06
8.80297887095e-06
8.80393243172e-06
8.8039026961e-06
8.80341420634e-06
8.80284712062e-06
8.80225176301e-06
8.80175240853e-06
8.80141999237e-06
8.80130265207e-06
8.80141877934e-06
8.80175035679e-06
8.80224942406e-06
8.80284475464e-06
8.80341019408e-06
8.80389667119e-06
8.80391985325e-06
8.8050614654e-06
8.8052662175e-06
8.8049442703e-06
8.8045594403e-06
8.80412591024e-06
8.80375318802e-06
8.80350154319e-06
8.80341200603e-06
8.80350051351e-06
8.80375143082e-06
8.80412381683e-06
8.80455716907e-06
8.80494054879e-06
8.80526054142e-06
8.80504930677e-06
8.80650450961e-06
8.80701617414e-06
8.80690978001e-06
8.80674981212e-06
8.80651439813e-06
8.80629490872e-06
8.80614034018e-06
8.80608407563e-06
8.80613941089e-06
8.80629328762e-06
8.80651233248e-06
8.80674736912e-06
8.80690597505e-06
8.80701052228e-06
8.80649231148e-06
8.80832569542e-06
8.80919778941e-06
8.8093420208e-06
8.80943206905e-06
8.80941532704e-06
8.80936319863e-06
8.80931395165e-06
8.80929365486e-06
8.80931303737e-06
8.80936154929e-06
8.80941309929e-06
8.80942923724e-06
8.80933778485e-06
8.80919177627e-06
8.80831318122e-06
8.8105370527e-06
8.81179494322e-06
8.81220699694e-06
8.81255289165e-06
8.81275845061e-06
8.81287487995e-06
8.81293109189e-06
8.81294669706e-06
8.81293010422e-06
8.8128730448e-06
8.81275583611e-06
8.8125494052e-06
8.81220199266e-06
8.81178813713e-06
8.81052387354e-06
8.81310931947e-06
8.81474613899e-06
8.81542465439e-06
8.816014922e-06
8.81643158463e-06
8.81670687688e-06
8.81686192527e-06
8.8169111188e-06
8.81686080813e-06
8.81670475424e-06
8.81642846827e-06
8.81601064025e-06
8.81541871054e-06
8.81473832233e-06
8.81309521187e-06
8.81597647716e-06
8.81795585137e-06
8.81888481306e-06
8.81969630059e-06
8.82030253805e-06
8.82071948162e-06
8.82096233332e-06
8.82104125427e-06
8.8209610633e-06
8.82071701225e-06
8.82029884322e-06
8.81969118117e-06
8.81887785388e-06
8.81794699826e-06
8.81596149483e-06
8.81903891104e-06
8.82131450078e-06
8.82247133538e-06
8.82347278044e-06
8.82423934061e-06
8.82477583135e-06
8.82509254799e-06
8.82519660327e-06
8.82509111214e-06
8.82477302688e-06
8.82423513018e-06
8.8234668821e-06
8.82246346192e-06
8.82130464216e-06
8.819023028e-06
8.82231387409e-06
8.82483818359e-06
8.8261398236e-06
8.8272678113e-06
8.82814116683e-06
8.82875922346e-06
8.82912748069e-06
8.82924900477e-06
8.8291258819e-06
8.82875616309e-06
8.82813648894e-06
8.82726130997e-06
8.82613122568e-06
8.82482744191e-06
8.82229744093e-06
8.82649493378e-06
8.82845348214e-06
8.8297440797e-06
8.83090691226e-06
8.83181389126e-06
8.83246413794e-06
8.83285449064e-06
8.83298386147e-06
8.83285275197e-06
8.83246074694e-06
8.83180883615e-06
8.83089987707e-06
8.82973477678e-06
8.82844169842e-06
8.82647821826e-06
6.22045329194e-06
6.22089836017e-06
6.22148576889e-06
6.22209557632e-06
6.22265259131e-06
6.22309555184e-06
6.22338086299e-06
6.22348180608e-06
6.2233880735e-06
6.22310875586e-06
6.22266910207e-06
6.22211089226e-06
6.22149723611e-06
6.22090221448e-06
6.22045546359e-06
6.22109539574e-06
6.22155337874e-06
6.22215874619e-06
6.22278618962e-06
6.22336233994e-06
6.22382207395e-06
6.22411896531e-06
6.22422417642e-06
6.22412647461e-06
6.22383581937e-06
6.22337948782e-06
6.22280210109e-06
6.22217001015e-06
6.22155732311e-06
6.22109608762e-06
6.22153927006e-06
6.22199679043e-06
6.22260714259e-06
6.22323830351e-06
6.22382146592e-06
6.22428810153e-06
6.22459001933e-06
6.22469693982e-06
6.22459708573e-06
6.22430103375e-06
6.2238376129e-06
6.22325355968e-06
6.22261787939e-06
6.22200144157e-06
6.22153987303e-06
6.22193782232e-06
6.22239763062e-06
6.22301523167e-06
6.22364855362e-06
6.22423560915e-06
6.2247060625e-06
6.22501070253e-06
6.22511840434e-06
6.22501710592e-06
6.22471776353e-06
6.22425020607e-06
6.22366248668e-06
6.22302517208e-06
6.22240227333e-06
6.22193844505e-06
6.22233955823e-06
6.22280427185e-06
6.22343298078e-06
6.22406917323e-06
6.22465962611e-06
6.22513325055e-06
6.22543999427e-06
6.22554826273e-06
6.22544576063e-06
6.22514376679e-06
6.22467278152e-06
6.22408178007e-06
6.22344219564e-06
6.22280865109e-06
6.22234016116e-06
6.22274336721e-06
6.22321744218e-06
6.22386401566e-06
6.22450697538e-06
6.2251038179e-06
6.22558259158e-06
6.22589260814e-06
6.22600176186e-06
6.22589764495e-06
6.22559176597e-06
6.22511526863e-06
6.22451798708e-06
6.22387205499e-06
6.22322162246e-06
6.22274334466e-06
6.22316450134e-06
6.22366025916e-06
6.22433508895e-06
6.22499369656e-06
6.22560400834e-06
6.22609309835e-06
6.22640949475e-06
6.22652055933e-06
6.22641379392e-06
6.22610092956e-06
6.22561376695e-06
6.22500311767e-06
6.22434189266e-06
6.2236640704e-06
6.22316400038e-06
6.22363332069e-06
6.22417002625e-06
6.22488621169e-06
6.2255723858e-06
6.2262051315e-06
6.22671086792e-06
6.22703732904e-06
6.22715151709e-06
6.22704086558e-06
6.22671729608e-06
6.22621314146e-06
6.2255801259e-06
6.22489184104e-06
6.22417328458e-06
6.22363261807e-06
6.22418059977e-06
6.22478059381e-06
6.22555093312e-06
6.22627552107e-06
6.22693825966e-06
6.2274655094e-06
6.22780470814e-06
6.22792286854e-06
6.22780753631e-06
6.22747064025e-06
6.22694465643e-06
6.22628169874e-06
6.22555545335e-06
6.22478331262e-06
6.22417952424e-06
6.22482850798e-06
6.22551391361e-06
6.22634738267e-06
6.22711698666e-06
6.22781309515e-06
6.22836317292e-06
6.22871545962e-06
6.22883762556e-06
6.22871764044e-06
6.2283671303e-06
6.22781801956e-06
6.22712176619e-06
6.22635091241e-06
6.22551618929e-06
6.22482711346e-06
6.22558909869e-06
6.22637778934e-06
6.2272770936e-06
6.22809200907e-06
6.22881912409e-06
6.22938893269e-06
6.22975180757e-06
6.22987709632e-06
6.22975345498e-06
6.22939191228e-06
6.22882283487e-06
6.22809557903e-06
6.22727973348e-06
6.22637953808e-06
6.22558721836e-06
6.22645883157e-06
6.22736333577e-06
6.22832562947e-06
6.22918031318e-06
6.22993103877e-06
6.23051349244e-06
6.2308820863e-06
6.23100874002e-06
6.23088332613e-06
6.23051573196e-06
6.22993379604e-06
6.22918295805e-06
6.22832752622e-06
6.22736452496e-06
6.22645633195e-06
6.22741720472e-06
6.22845095525e-06
6.22947099968e-06
6.23035489255e-06
6.2311177034e-06
6.23170308968e-06
6.23207074465e-06
6.23219660399e-06
6.23207170512e-06
6.23170479814e-06
6.23111984661e-06
6.23035685858e-06
6.22947234626e-06
6.2284516088e-06
6.22741410585e-06
6.22853041338e-06
6.22970556943e-06
6.23073660484e-06
6.23161486112e-06
6.23236181176e-06
6.23292919385e-06
6.23328327283e-06
6.23340386224e-06
6.23328404007e-06
6.23293065342e-06
6.23236356295e-06
6.23161648624e-06
6.23073760808e-06
6.22970571095e-06
6.22852658478e-06
6.23043386685e-06
6.23130684869e-06
6.23219213522e-06
6.23295959316e-06
6.233613604e-06
6.23410904382e-06
6.23441712046e-06
6.23452191482e-06
6.23441782934e-06
6.23411033693e-06
6.2336152693e-06
6.23296110792e-06
6.2321929895e-06
6.23130655009e-06
6.23042998656e-06
5.77528818513e-06
5.77514496537e-06
5.77497314921e-06
5.77475831538e-06
5.7745563551e-06
5.7743893732e-06
5.7742782091e-06
5.77423718652e-06
5.77427244388e-06
5.77437918423e-06
5.77454418632e-06
5.77474434152e-06
5.77495475907e-06
5.77512524413e-06
5.77526126762e-06
5.77576673824e-06
5.77564296022e-06
5.77548642485e-06
5.77528451216e-06
5.77509219126e-06
5.77493139835e-06
5.77482372283e-06
5.7747837984e-06
5.77481786549e-06
5.77492098393e-06
5.7750795696e-06
5.77527015123e-06
5.77546792511e-06
5.77562213188e-06
5.77573925971e-06
5.77633811625e-06
5.77623352399e-06
5.77609632921e-06
5.77590844244e-06
5.77572635836e-06
5.77557201919e-06
5.77546809532e-06
5.77542946833e-06
5.77546239527e-06
5.77556175094e-06
5.77571359099e-06
5.77589381445e-06
5.77607821348e-06
5.77621280126e-06
5.77631139698e-06
5.77677563757e-06
5.77667549279e-06
5.77654830466e-06
5.77636476346e-06
5.77618518766e-06
5.77603156128e-06
5.77592794689e-06
5.77588951062e-06
5.77592249137e-06
5.77602158055e-06
5.77617238229e-06
5.7763500184e-06
5.77653063797e-06
5.77665551467e-06
5.77674966839e-06
5.77709254092e-06
5.77698786457e-06
5.7768647822e-06
5.77667987318e-06
5.77649869788e-06
5.77634320118e-06
5.77623835416e-06
5.77619959533e-06
5.77623315071e-06
5.77633358799e-06
5.7764861325e-06
5.77666531015e-06
5.77684760556e-06
5.77696880684e-06
5.77706734894e-06
5.77732685512e-06
5.77721588316e-06
5.77709561707e-06
5.77690896405e-06
5.77672654381e-06
5.77656993869e-06
5.77646452273e-06
5.77642571163e-06
5.77645961967e-06
5.77656079829e-06
5.77671437736e-06
5.77689476678e-06
5.77707907722e-06
5.77719740684e-06
5.77730281432e-06
5.77750616913e-06
5.77739181111e-06
5.77727820038e-06
5.77709410255e-06
5.77691482333e-06
5.77676109422e-06
5.77665778023e-06
5.77661986548e-06
5.77665319857e-06
5.77675249875e-06
5.7769032324e-06
5.77708044983e-06
5.77726242789e-06
5.77737402422e-06
5.77748308541e-06
5.77765698017e-06
5.77754792708e-06
5.77744924005e-06
5.77727619071e-06
5.77710797892e-06
5.7769637425e-06
5.77686686671e-06
5.77683136071e-06
5.77686262242e-06
5.77695572624e-06
5.77709701361e-06
5.77726309478e-06
5.77743410042e-06
5.77753076275e-06
5.77763454402e-06
5.7778075502e-06
5.77771778448e-06
5.77764540085e-06
5.777494957e-06
5.77734816217e-06
5.77722177534e-06
5.77713669768e-06
5.77710544847e-06
5.77713278117e-06
5.77721432492e-06
5.7773378454e-06
5.77748244608e-06
5.7776308146e-06
5.7777011513e-06
5.77778571678e-06
5.77798572695e-06
5.7779325782e-06
5.77789896431e-06
5.77778365123e-06
5.77766909944e-06
5.7775690866e-06
5.77750124724e-06
5.77747609191e-06
5.77749762061e-06
5.77756214572e-06
5.77765934298e-06
5.77777161159e-06
5.77788475915e-06
5.77791623485e-06
5.7779643744e-06
5.77821508884e-06
5.77821634496e-06
5.77823268876e-06
5.77816364826e-06
5.77809076323e-06
5.77802449099e-06
5.77797847765e-06
5.77796099306e-06
5.77797510049e-06
5.77801797505e-06
5.77808150022e-06
5.7781519954e-06
5.77821879346e-06
5.77820020004e-06
5.77819412477e-06
5.77850924599e-06
5.77858108108e-06
5.77865570594e-06
5.7786411329e-06
5.77861694812e-06
5.7785897267e-06
5.77856895647e-06
5.77856021294e-06
5.77856577488e-06
5.77858355573e-06
5.77860802422e-06
5.77862978223e-06
5.77864201075e-06
5.77856515756e-06
5.77848874956e-06
5.77887188421e-06
5.77902828253e-06
5.77916519874e-06
5.77920892869e-06
5.77923714584e-06
5.77925227586e-06
5.77925858925e-06
5.77925937029e-06
5.7792555608e-06
5.77924630349e-06
5.77922853041e-06
5.77919772622e-06
5.779151662e-06
5.7790125007e-06
5.77885182945e-06
5.77935995997e-06
5.77960741284e-06
5.77977938869e-06
5.77986712152e-06
5.77993967056e-06
5.77999149775e-06
5.78002196192e-06
5.78003096901e-06
5.78001899357e-06
5.77998575211e-06
5.77993115453e-06
5.77985611535e-06
5.77976589893e-06
5.77959172832e-06
5.77934045976e-06
5.78033541878e-06
5.78040374749e-06
5.78051612468e-06
5.78059339785e-06
5.7806724369e-06
5.7807346317e-06
5.78077297689e-06
5.78078503134e-06
5.78077008432e-06
5.78072889933e-06
5.78066404869e-06
5.78058232716e-06
5.78050254688e-06
5.78038765149e-06
5.78031617389e-06
4.52007602627e-06
4.5201816269e-06
4.52031907865e-06
4.52045903191e-06
4.52058731133e-06
4.5206891504e-06
4.52075568409e-06
4.52078072805e-06
4.52076174713e-06
4.5207003163e-06
4.52060166729e-06
4.52047406954e-06
4.52033302273e-06
4.52019127985e-06
4.52008568706e-06
4.52041778115e-06
4.52053318665e-06
4.52068193307e-06
4.52083144033e-06
4.52096877331e-06
4.52107800354e-06
4.52114945974e-06
4.52117632393e-06
4.52115581601e-06
4.52108971075e-06
4.52098378786e-06
4.52084706578e-06
4.52069600522e-06
4.52054319768e-06
4.52042634544e-06
4.52073172839e-06
4.52085510564e-06
4.5210138611e-06
4.52117066065e-06
4.52131508166e-06
4.52142970626e-06
4.52150455791e-06
4.52153244884e-06
4.52151051982e-06
4.52144069041e-06
4.52132920248e-06
4.52118556552e-06
4.52102731012e-06
4.52086561104e-06
4.52074013526e-06
4.52100621515e-06
4.52113748562e-06
4.52130550017e-06
4.52146846124e-06
4.52161847963e-06
4.52173723993e-06
4.52181458985e-06
4.52184313024e-06
4.52181999904e-06
4.52174721235e-06
4.52163132696e-06
4.521482136e-06
4.52131804594e-06
4.52114771662e-06
4.52101461118e-06
4.52126294318e-06
4.52140219472e-06
4.52157974779e-06
4.52174855624e-06
4.52190359952e-06
4.52202602706e-06
4.52210551164e-06
4.52213459978e-06
4.52211040516e-06
4.52203505132e-06
4.52191528986e-06
4.52176108832e-06
4.52159154273e-06
4.52141199776e-06
4.52127121728e-06
4.52150858869e-06
4.52165565752e-06
4.52184382644e-06
4.52201817094e-06
4.52217793851e-06
4.52230371497e-06
4.5223851293e-06
4.52241467362e-06
4.52238949654e-06
4.52231178083e-06
4.52218841694e-06
4.52202946348e-06
4.52185454434e-06
4.52166510393e-06
4.52151618213e-06
4.52174511705e-06
4.5219015247e-06
4.52210118982e-06
4.52228146369e-06
4.52244616487e-06
4.52257540093e-06
4.52265878363e-06
4.52268879719e-06
4.52266263444e-06
4.52258253707e-06
4.52245548223e-06
4.5222916074e-06
4.52211089551e-06
4.52191053572e-06
4.52175216455e-06
4.52197696092e-06
4.52214566254e-06
4.52235820588e-06
4.52254556675e-06
4.52271589521e-06
4.52284912388e-06
4.52293477604e-06
4.52296537607e-06
4.52293813092e-06
4.52285535779e-06
4.52272408876e-06
4.52255457684e-06
4.5223669862e-06
4.52215409533e-06
4.52198372987e-06
4.52221071217e-06
4.5223954437e-06
4.52262297015e-06
4.52281908348e-06
4.52299621592e-06
4.52313433683e-06
4.52322280561e-06
4.5232541947e-06
4.52322571423e-06
4.52313975975e-06
4.5230034176e-06
4.52282711287e-06
4.52263098453e-06
4.52240340173e-06
4.5222170694e-06
4.52245334875e-06
4.52265936075e-06
4.52290421659e-06
4.52311084896e-06
4.52329601517e-06
4.52343990829e-06
4.52353176237e-06
4.52356413189e-06
4.52353427339e-06
4.5234446248e-06
4.52330233049e-06
4.52311803085e-06
4.52291157965e-06
4.52266694711e-06
4.52245940144e-06
4.52271282484e-06
4.52294612015e-06
4.52321001623e-06
4.52342837698e-06
4.52362223888e-06
4.5237724512e-06
4.52386797654e-06
4.52390146916e-06
4.52387016926e-06
4.52377658406e-06
4.52362785439e-06
4.52343485087e-06
4.52321683987e-06
4.52295331521e-06
4.52271845089e-06
4.52299449438e-06
4.52326155664e-06
4.52354538002e-06
4.52377578788e-06
4.52397847181e-06
4.52413493965e-06
4.52423417494e-06
4.52426875931e-06
4.5242361145e-06
4.52413864436e-06
4.52398350173e-06
4.52378172865e-06
4.52355174091e-06
4.52326833449e-06
4.52299960336e-06
4.52330138595e-06
4.52360926277e-06
4.52391266865e-06
4.52415423935e-06
4.52436499057e-06
4.52452747207e-06
4.52462999306e-06
4.52466569266e-06
4.5246317727e-06
4.5245307987e-06
4.52436967071e-06
4.52415970533e-06
4.52391866282e-06
4.52361561099e-06
4.52330599663e-06
4.5236854882e-06
4.52403850451e-06
4.52433920549e-06
4.52457845594e-06
4.52478854571e-06
4.52495031142e-06
4.52505234518e-06
4.52508763022e-06
4.52505396249e-06
4.52495349349e-06
4.52479287432e-06
4.52458369686e-06
4.52434484605e-06
4.52404438955e-06
4.5236893948e-06
4.52447331635e-06
4.52467564108e-06
4.52488856276e-06
4.52507185714e-06
4.52524120127e-06
4.52537338536e-06
4.52545687661e-06
4.5254859151e-06
4.52545845112e-06
4.52537637098e-06
4.52524542051e-06
4.52507684278e-06
4.52489396545e-06
4.5246809659e-06
4.52447697555e-06
3.68342307502e-06
3.68341886455e-06
3.68342177789e-06
3.68341130473e-06
3.68339750456e-06
3.68338279772e-06
3.68337191183e-06
3.68336717721e-06
3.68336971042e-06
3.68337874768e-06
3.68339224473e-06
3.68340631223e-06
3.68341838713e-06
3.68341806541e-06
3.68341701417e-06
3.68369510545e-06
3.68370090317e-06
3.68371192506e-06
3.68370858419e-06
3.68370054448e-06
3.68369002467e-06
3.68368161474e-06
3.68367768547e-06
3.6836793421e-06
3.6836858327e-06
3.68369515211e-06
3.68370347172e-06
3.68370849183e-06
3.68369955613e-06
3.68368900174e-06
3.68397621098e-06
3.68399020969e-06
3.68400843284e-06
3.68401054104e-06
3.68400700769e-06
3.68399975187e-06
3.68399330141e-06
3.68399004272e-06
3.68399109714e-06
3.68399572241e-06
3.68400190016e-06
3.68400571341e-06
3.68400524051e-06
3.68398844804e-06
3.68397038969e-06
3.68419855723e-06
3.68421509039e-06
3.68423748e-06
3.68424118043e-06
3.68423913988e-06
3.68423290068e-06
3.68422702257e-06
3.68422399222e-06
3.68422496842e-06
3.68422920411e-06
3.68423458551e-06
3.6842369899e-06
3.68423470845e-06
3.68421355488e-06
3.68419291896e-06
3.68437545901e-06
3.68439137552e-06
3.68441607625e-06
3.68441926804e-06
3.68441697137e-06
3.6844104368e-06
3.68440435088e-06
3.68440130887e-06
3.68440250558e-06
3.6844071585e-06
3.68441303317e-06
3.68441577715e-06
3.68441378838e-06
3.68439029367e-06
3.6843701777e-06
3.68451979419e-06
3.6845343778e-06
3.68456034695e-06
3.68456231453e-06
3.68455918396e-06
3.68455200422e-06
3.68454553218e-06
3.6845424461e-06
3.68454395779e-06
3.68454925438e-06
3.68455599717e-06
3.6845596569e-06
3.68455869691e-06
3.6845335378e-06
3.68451521721e-06
3.68463969791e-06
3.6846529756e-06
3.68468066399e-06
3.68468191181e-06
3.68467832636e-06
3.68467088385e-06
3.68466430837e-06
3.68466129939e-06
3.68466303222e-06
3.68466869869e-06
3.68467589244e-06
3.68468004036e-06
3.684679683e-06
3.68465242865e-06
3.68463564301e-06
3.68474273088e-06
3.68475638919e-06
3.68478743593e-06
3.68478941285e-06
3.68478667458e-06
3.68478009277e-06
3.68477417308e-06
3.68477151128e-06
3.68477320523e-06
3.68477848007e-06
3.68478497e-06
3.68478823453e-06
3.68478693796e-06
3.68475605298e-06
3.68473886263e-06
3.6848368714e-06
3.68485450394e-06
3.68489143295e-06
3.68489656353e-06
3.68489677599e-06
3.68489275483e-06
3.68488859977e-06
3.6848866564e-06
3.68488790839e-06
3.68489163749e-06
3.68489566758e-06
3.68489590879e-06
3.68489122524e-06
3.68485423211e-06
3.68483311716e-06
3.68493071959e-06
3.68495731324e-06
3.68500314204e-06
3.68501434645e-06
3.68501999803e-06
3.68502057908e-06
3.68501950288e-06
3.68501872646e-06
3.68501903396e-06
3.68501984623e-06
3.68501932039e-06
3.68501398135e-06
3.68500297398e-06
3.68495683671e-06
3.68492690396e-06
3.68503244732e-06
3.68507377822e-06
3.68513157053e-06
3.6851517458e-06
3.68516538323e-06
3.68517262621e-06
3.68517596546e-06
3.68517678802e-06
3.6851756367e-06
3.68517213123e-06
3.6851649217e-06
3.68515144571e-06
3.6851312556e-06
3.68507295621e-06
3.68502846695e-06
3.68514773732e-06
3.68521011053e-06
3.68528258279e-06
3.68531427403e-06
3.68533828141e-06
3.68535420496e-06
3.68536325028e-06
3.68536609441e-06
3.68536298416e-06
3.68535376568e-06
3.68533783179e-06
3.68531380885e-06
3.68528191351e-06
3.68520888708e-06
3.68514360887e-06
3.68528044541e-06
3.68537021265e-06
3.68545899069e-06
3.68550388228e-06
3.68554049644e-06
3.68556704129e-06
3.68558311633e-06
3.68558839115e-06
3.68558280629e-06
3.68556653881e-06
3.68553983675e-06
3.685503067e-06
3.68545783514e-06
3.68536847158e-06
3.68527613378e-06
3.68546938167e-06
3.68559034243e-06
3.68568051711e-06
3.68573132783e-06
3.68577681057e-06
3.68581177793e-06
3.68583350501e-06
3.68584074562e-06
3.68583309041e-06
3.68581103319e-06
3.68577579463e-06
3.68572996473e-06
3.68567870113e-06
3.68558792734e-06
3.68546486712e-06
3.68594918484e-06
3.68595862966e-06
3.68599000073e-06
3.68601044244e-06
3.68603886633e-06
3.68606327963e-06
3.68607906782e-06
3.6860843e-06
3.6860784593e-06
3.68606214236e-06
3.68603724677e-06
3.68600827341e-06
3.68598722111e-06
3.68595510241e-06
3.68594411986e-06
2.81239801702e-06
2.81241333162e-06
2.81243831769e-06
2.81246248573e-06
2.8124856241e-06
2.81250409661e-06
2.81251637836e-06
2.81252173149e-06
2.81251997206e-06
2.81251117451e-06
2.81249589989e-06
2.81247474686e-06
2.81245077425e-06
2.81242269057e-06
2.81240565576e-06
2.81259996932e-06
2.81262151723e-06
2.81265362607e-06
2.81268349137e-06
2.81271162587e-06
2.81273391969e-06
2.81274863272e-06
2.81275487121e-06
2.81275237411e-06
2.81274128164e-06
2.81272229632e-06
2.8126962354e-06
2.81266648716e-06
2.81263158992e-06
2.8126069776e-06
2.81281717958e-06
2.81284578356e-06
2.8128859887e-06
2.81292136196e-06
2.81295421602e-06
2.81297985877e-06
2.81299666245e-06
2.81300357155e-06
2.81300029202e-06
2.81298698069e-06
2.81296445905e-06
2.81293364411e-06
2.81289837011e-06
2.81285619656e-06
2.81282421607e-06
2.81300044115e-06
2.81303421327e-06
2.81308049418e-06
2.8131196482e-06
2.81315550739e-06
2.81318316707e-06
2.81320118426e-06
2.81320844167e-06
2.81320463282e-06
2.81318991326e-06
2.81316515367e-06
2.81313127357e-06
2.81309244743e-06
2.81304467215e-06
2.81300794652e-06
2.81315809563e-06
2.81319541395e-06
2.81324667481e-06