/*--------------------------------*- C++ -*----------------------------------*\
  =========                 |
  \\      /  F ield         | OpenFOAM: The Open Source CFD Toolbox
   \\    /   O peration     | Website:  https://openfoam.org
    \\  /    A nd           | Version:  7
     \\/     M anipulation  |
\*---------------------------------------------------------------------------*/
FoamFile
{
    version     2.0;
    format      ascii;
    class       surfaceScalarField;
    location    "0.52";
    object      phi;
}
// * * * * * * * * * * * * * * * * * * * * * * * * * * * * * * * * * * * * * //

dimensions      [0 3 -1 0 0 0 0];

internalField   nonuniform List<scalar> 
65775
(
3.61192193134e-11
6.45096167014e-09
1.196330638e-09
3.3155134741e-13
5.04114285028e-11
6.74521720833e-09
1.32232804832e-09
5.87726954575e-11
6.99002385433e-09
1.44141538993e-09
5.7118515377e-11
7.20145465352e-09
1.54806985621e-09
4.75131179988e-11
7.36898454191e-09
1.63709889516e-09
3.14064868784e-11
7.49120779458e-09
1.70419094278e-09
1.11894103345e-11
7.56794007788e-09
1.74652010091e-09
-1.05028927188e-11
7.59711218687e-09
1.76173775719e-09
-3.07543181404e-11
7.56780163475e-09
1.74652086474e-09
-4.69265844849e-11
7.49093805801e-09
1.70419275836e-09
-5.66351823876e-11
7.36858793535e-09
1.6371021476e-09
-5.84226576011e-11
7.20096446692e-09
1.54807430641e-09
-5.02262789964e-11
6.98947181433e-09
1.44142081444e-09
-3.60565785037e-11
6.74471507755e-09
1.3223415653e-09
6.45064721909e-09
1.19639539516e-09
2.98012158651e-13
9.31354056638e-11
1.07727046294e-08
2.90501139726e-09
7.56508552718e-13
1.49504943982e-10
1.12123063997e-08
3.19383623628e-09
1.75004392753e-10
1.1573797835e-08
3.46375912758e-09
1.71838083139e-10
1.18797792202e-08
3.70338405791e-09
1.43221112383e-10
1.21203253581e-08
3.90197997534e-09
9.47145003802e-11
1.22943749925e-08
4.05085649294e-09
3.35513246783e-11
1.24035273796e-08
4.14450568257e-09
-3.19373888368e-11
1.24454268685e-08
4.17816600651e-09
-9.31801775401e-11
1.2403215546e-08
4.14451038918e-09
-1.41842777511e-10
1.22937652826e-08
4.05086610255e-09
-1.70697394424e-10
1.21194350953e-08
3.90199475517e-09
-1.74175918562e-10
1.18786674036e-08
3.70340239074e-09
-1.49037635425e-10
1.15725505713e-08
3.46377950298e-09
-9.29637381945e-11
1.12111220691e-08
3.19387742383e-09
1.07718500513e-08
2.90516460502e-09
6.91467068046e-13
1.38844654315e-10
1.34725350387e-08
4.11742375638e-09
1.02122049863e-12
2.29439698369e-10
1.39574750485e-08
4.51645122344e-09
2.68205378299e-10
1.43545411372e-08
4.8861881901e-09
2.62968932384e-10
1.46814032729e-08
5.21229696312e-09
2.18703307323e-10
1.49359326478e-08
5.48113624514e-09
1.44369992123e-10
1.51182025135e-08
5.6818717241e-09
5.10104078783e-11
1.52323947058e-08
5.80780273331e-09
-4.87845847982e-11
1.52768058342e-08
5.85299653026e-09
-1.42254048394e-10
1.52319642327e-08
5.80780955747e-09
-2.16804156174e-10
1.51173617763e-08
5.68188559511e-09
-2.61394683761e-10
1.49347108742e-08
5.48115683254e-09
-2.6705495222e-10
1.46798733724e-08
5.21232111829e-09
-2.28764586871e-10
1.43528265087e-08
4.88621234185e-09
-1.38574623232e-10
1.39558096398e-08
4.51649799245e-09
1.34712471799e-08
4.11761304164e-09
9.62584325277e-13
1.76522076143e-10
1.49250750755e-08
4.96337293223e-09
1.17780625277e-12
2.9317939307e-10
1.53912198136e-08
5.43672250718e-09
3.42426187361e-10
1.57720141719e-08
5.87163491041e-09
3.34801908685e-10
1.60751182403e-08
6.25271889527e-09
2.77768898878e-10
1.63080132843e-08
6.56520140635e-09
1.82997249838e-10
1.64726060811e-08
6.79758192961e-09
6.45257061068e-11
1.65756123595e-08
6.94294657421e-09
-6.19118150403e-11
1.66164052916e-08
6.9950121207e-09
-1.80512806685e-10
1.65751154983e-08
6.94295245194e-09
-2.75540231873e-10
1.64716350029e-08
6.79759373541e-09
-3.32951939715e-10
1.63066079708e-08
6.56521791985e-09
-3.41061695092e-10
1.6073359868e-08
6.25273540404e-09
-2.92351154398e-10
1.57700362467e-08
5.87164526734e-09
-1.7615685625e-10
1.53892639117e-08
5.43674699604e-09
1.49234639899e-08
4.96353843227e-09
1.1574369172e-12
2.06360146762e-10
1.54348553998e-08
5.51268797302e-09
1.26059919436e-12
3.4284042562e-10
1.58437989915e-08
6.03298676886e-09
4.00221418866e-10
1.6178758163e-08
6.5069062718e-09
3.90395949459e-10
1.64345814485e-08
6.91931617423e-09
3.23230510575e-10
1.66276070754e-08
7.25560552831e-09
2.12585668851e-10
1.67616850497e-08
7.50463485165e-09
7.48316482163e-11
1.68455138061e-08
7.65993350618e-09
-7.19855546638e-11
1.68795644702e-08
7.7154268302e-09
-2.0988103745e-10
1.68449910158e-08
7.65993673874e-09
-3.20804426256e-10
1.67606647826e-08
7.50464039249e-09
-3.88378034748e-10
1.66261345357e-08
7.25561101133e-09
-3.9871768481e-10
1.64327416791e-08
6.91931509741e-09
-3.41897050616e-10
1.61766784108e-08
6.50688936629e-09
-2.0590425273e-10
1.58417192239e-08
6.03296948697e-09
1.54330668635e-08
5.51279346061e-09
1.30189850342e-12
2.29679642393e-10
1.52503265001e-08
5.82012668126e-09
1.29130018044e-12
3.80644340435e-10
1.55830333466e-08
6.36677955321e-09
4.43946182266e-10
1.58587997758e-08
6.86035996887e-09
4.32123784914e-10
1.6058666269e-08
7.28684205467e-09
3.5713297692e-10
1.62057803432e-08
7.63263998554e-09
2.3453503289e-10
1.63055986034e-08
7.88761422675e-09
8.24402263636e-11
1.63679745832e-08
8.04610781653e-09
-7.94715309e-11
1.63942615407e-08
8.10258479038e-09
-2.31713555764e-10
1.63674633744e-08
8.04610677414e-09
-3.54600733821e-10
1.63046012812e-08
7.88761052933e-09
-4.30010582786e-10
1.62043447352e-08
7.63262998225e-09
-4.42353124457e-10
1.6056874618e-08
7.28681729206e-09
-3.79607873505e-10
1.58567689058e-08
6.86030785453e-09
-2.29131648818e-10
1.55809747609e-08
6.36671088036e-09
1.52484976993e-08
5.82015976359e-09
1.4106288423e-12
2.47947919938e-10
1.457234341e-08
5.93180043887e-09
1.28638513293e-12
4.08880405537e-10
1.48240078158e-08
6.49000574074e-09
4.76080762965e-10
1.50382945328e-08
6.98970264862e-09
4.62396706085e-10
1.51831816821e-08
7.41843663931e-09
3.81501745138e-10
1.52861659816e-08
7.76413064167e-09
2.50204923486e-10
1.53537313887e-08
8.01796111699e-09
8.78413229007e-11
1.53959865751e-08
8.17522223705e-09
-8.48234109345e-11
1.54148279532e-08
8.23107099366e-09
-2.47335425256e-10
1.53955155721e-08
8.175216629e-09
-3.78922478863e-10
1.53528131483e-08
8.01794756978e-09
-4.60233657514e-10
1.52848475064e-08
7.76410412121e-09
-4.74426503385e-10
1.51815378225e-08
7.41838661313e-09
-4.07762616878e-10
1.50364258813e-08
6.98961336529e-09
-2.47301739914e-10
1.48220974938e-08
6.4898850645e-09
1.4570599717e-08
5.93176349104e-09
1.49924058013e-12
2.62192263983e-10
1.35609778485e-08
5.88745781362e-09
1.25552430758e-12
4.294808536e-10
1.37363106743e-08
6.44727012733e-09
4.989054968e-10
1.3893636704e-08
6.94433706083e-09
4.83498031006e-10
1.39900831172e-08
7.36794856111e-09
3.98270164427e-10
1.40551019471e-08
7.70772157001e-09
2.60891344817e-10
1.40955575588e-08
7.95622345247e-09
9.14986076927e-11
1.41209811361e-08
8.10967175447e-09
-8.84770101855e-11
1.41334391331e-08
8.16394403785e-09
-2.58015714769e-10
1.41205728732e-08
8.1096619532e-09
-3.95678103112e-10
1.40947628775e-08
7.95620081123e-09
-4.81309030352e-10
1.4053962937e-08
7.70767967906e-09
-4.97201962083e-10
1.39886652631e-08
7.36787488174e-09
-4.28281963557e-10
1.38920205536e-08
6.94421330703e-09
-2.61439250627e-10
1.37346479992e-08
6.44710366977e-09
1.35594239451e-08
5.88736200737e-09
1.57541545678e-12
2.73142990608e-10
1.23414598177e-08
5.72119980467e-09
1.20763097793e-12
4.44078510298e-10
1.24506474459e-08
6.27655251572e-09
5.14502814248e-10
1.25590429158e-08
6.76599341516e-09
4.9757152958e-10
1.26161234071e-08
7.180521087e-09
4.09265459042e-10
1.26512297237e-08
7.5114237174e-09
2.67816740404e-10
1.26709804601e-08
7.75257703582e-09
9.38471215461e-11
1.26836338361e-08
7.90099685373e-09
-9.08449713597e-11
1.26910855391e-08
7.95323374721e-09
-2.64954969642e-10
1.2683304019e-08
7.90098360879e-09
-4.0667491847e-10
1.26703396628e-08
7.75254688996e-09
-4.95362647836e-10
1.26503137132e-08
7.51136904934e-09
-5.12748402114e-10
1.26149842188e-08
7.18042768792e-09
-4.42790443313e-10
1.25577419633e-08
6.76584145692e-09
-2.72272405259e-10
1.24493034976e-08
6.27635139515e-09
1.2340179324e-08
5.72106136859e-09
1.64658803126e-12
2.8136908117e-10
1.10097485483e-08
5.46173015319e-09
1.14907578829e-12
4.54110515058e-10
1.10652468672e-08
6.00945931066e-09
5.24834432176e-10
1.11338694396e-08
6.48900873175e-09
5.06680636931e-10
1.11611861268e-08
6.89291913862e-09
4.1624945007e-10
1.11747312651e-08
7.21400094296e-09
2.72151530286e-10
1.11802473564e-08
7.44726903762e-09
9.5300701519e-11
1.11842064849e-08
7.59036950557e-09
-9.23228737258e-11
1.11880649082e-08
7.64044368531e-09
-2.69305987365e-10
1.11839644106e-08
7.59035382036e-09
-4.13658104149e-10
1.11797783909e-08
7.44723358534e-09
-5.04444119438e-10
1.11740636468e-08
7.21393724873e-09
-5.23016235805e-10
1.11603581834e-08
6.89281192214e-09
-4.52718837571e-10
1.11329219662e-08
6.48883779512e-09
-2.8036695121e-10
1.10642680435e-08
6.00923823013e-09
1.10087968215e-08
5.46156825747e-09
1.71848423434e-12
2.87300608495e-10
9.63782521518e-09
5.13258604841e-09
1.08523707761e-12
4.60906128103e-10
9.65189533381e-09
5.67152935889e-09
5.31845728601e-10
9.68948797392e-09
6.14074649335e-09
5.12882241171e-10
9.69609866894e-09
6.53408660476e-09
4.20952200925e-10
9.69589735296e-09
6.84566768528e-09
2.75027031117e-10
9.69306679859e-09
7.07143710011e-09
9.62547579803e-11
9.69198871672e-09
7.20949542788e-09
-9.32910845005e-11
9.69354090675e-09
7.2574839176e-09
-2.72185500366e-10
9.69183742453e-09
7.20947861622e-09
-4.18344246301e-10
9.69277623304e-09
7.07139928617e-09
-5.1059843516e-10
9.69548756577e-09
6.84560012121e-09
-5.29942492313e-10
9.69559442816e-09
6.53397373466e-09
-4.59391257072e-10
9.68891126294e-09
6.14056881917e-09
-2.86151486189e-10
9.65130551941e-09
5.67130603669e-09
9.63723321987e-09
5.13242204007e-09
1.79643439852e-12
2.91255978579e-10
8.27862403014e-09
4.75248096468e-09
1.01648268975e-12
4.6595258853e-10
8.26126861295e-09
5.28270499627e-09
5.37717626109e-10
8.27554334517e-09
5.74223761745e-09
5.18340552332e-10
8.26975146841e-09
6.12597558082e-09
4.25094150032e-10
8.2627887985e-09
6.42909829844e-09
2.77524840614e-10
8.25659426964e-09
6.64826755045e-09
9.70809267232e-11
8.25348476736e-09
6.78187127548e-09
-9.41089956751e-11
8.25379240359e-09
6.82796385545e-09
-2.74662970881e-10
8.2534223376e-09
6.78185515989e-09
-4.22442987221e-10
8.256476679e-09
6.64823148703e-09
-5.15980978814e-10
8.26263072011e-09
6.42903409298e-09
-5.35701758392e-10
8.26956549642e-09
6.12586832463e-09
-4.6429180066e-10
8.27533541903e-09
5.74206907869e-09
-2.89944502277e-10
8.26107146106e-09
5.28249990428e-09
8.27840606932e-09
4.75233803723e-09
1.88605403268e-12
2.9391201048e-10
6.97007209052e-09
4.33575528611e-09
9.45319276796e-13
4.71680221643e-10
6.92733086306e-09
4.85794150869e-09
5.45199611523e-10
6.92585769541e-09
5.30898527894e-09
5.25272880848e-10
6.91560061377e-09
5.68454977826e-09
4.30209149201e-10
6.90783017543e-09
5.98060916552e-09
2.80541518951e-10
6.90207182204e-09
6.19431946405e-09
9.80747175513e-11
6.89908877692e-09
6.32420087339e-09
-9.50623187699e-11
6.8989334555e-09
6.36864134729e-09
-2.77626922586e-10
6.89910651315e-09
6.3241879775e-09
-4.27480224343e-10
6.90211288794e-09
6.19429082452e-09
-5.2280349842e-10
6.90790306228e-09
5.98055825748e-09
-5.43040469459e-10
6.91571077769e-09
5.68446346e-09
-4.6985072481e-10
6.92599789569e-09
5.30884631736e-09
-2.92424080104e-10
6.92751088573e-09
4.85777729113e-09
6.97021910399e-09
4.33565559453e-09
1.9837651119e-12
2.98453511997e-10
5.73643671913e-09
3.89289134882e-09
8.72996609288e-13
4.82614454783e-10
5.67202357344e-09
4.40792061441e-09
5.57136151793e-10
5.66504261388e-09
4.8518782393e-09
5.34977796878e-10
5.65759371068e-09
5.22086934307e-09
4.36841707215e-10
5.65302175121e-09
5.51138413868e-09
2.84301762319e-10
5.64978633033e-09
5.72085608245e-09
9.93070081219e-11
5.64805589645e-09
5.84779382695e-09
-9.62170343595e-11
5.64786881312e-09
5.89084504752e-09
-2.81296598031e-10
5.64814130676e-09
5.84778725019e-09
-4.33998428319e-10
5.64995976325e-09
5.72084178394e-09
-5.32363881255e-10
5.65328812098e-09
5.51135869245e-09
-5.54805854641e-10
5.65795461365e-09
5.22082321282e-09
-4.80597455467e-10
5.66548867278e-09
4.85179490734e-09
-2.96781979649e-10
5.67254562563e-09
4.40782220746e-09
5.73690770223e-09
3.89285171609e-09
2.08995424245e-12
3.23772154693e-10
3.43177568421e-09
7.95476895173e-13
4.57519560021e-09
5.09326400217e-10
3.94055707485e-09
4.51769967171e-09
5.77420772576e-10
4.37868934027e-09
4.51662301155e-09
5.48470766558e-10
4.7425111461e-09
4.51497153341e-09
4.45110717691e-10
5.02879307469e-09
4.51388546006e-09
2.88738925523e-10
5.23507199683e-09
4.51303154409e-09
1.00731793723e-10
5.35973171632e-09
4.51251900802e-09
-9.7527347235e-11
5.40161956163e-09
4.5123888841e-09
-2.85608585482e-10
5.3597336602e-09
4.51265501121e-09
-4.42121861359e-10
5.23507694031e-09
4.51330537383e-09
-5.45686312867e-10
5.02880188085e-09
4.51429854236e-09
-5.74898165392e-10
4.74252070916e-09
4.51552542056e-09
-5.07114210777e-10
4.37868501344e-09
4.51731020441e-09
-3.21926634706e-10
3.940562443e-09
4.51850322738e-09
3.4317829193e-09
2.20030306067e-12
4.57595282035e-09
-1.69738268252e-11
5.47282403771e-10
6.66273589545e-10
6.55854150976e-14
-2.31584414565e-11
5.97275612995e-10
7.31761342816e-10
-2.56865615362e-11
6.51953175274e-10
7.92506203192e-10
-2.48343383206e-11
7.01292421733e-10
8.46386304212e-10
-2.06259418383e-11
7.42162220828e-10
8.91060088209e-10
-1.3655207009e-11
7.72887986513e-10
9.24579298037e-10
-4.81653113586e-12
7.92211463294e-10
9.45692781614e-10
4.69147389736e-12
7.99139799561e-10
9.53312635482e-10
1.35596866288e-11
7.92178824865e-10
9.45696994267e-10
2.0582547023e-11
7.72804082317e-10
9.24587458567e-10
2.48399016473e-11
7.41990444702e-10
8.91071423514e-10
2.57067252241e-11
7.01021010268e-10
8.46399846494e-10
2.31702454498e-11
6.5164349685e-10
7.92522460259e-10
1.69574812481e-11
5.96967317725e-10
7.31789385001e-10
5.47159704206e-10
6.6635600547e-10
2.99767388898e-14
-2.85457657098e-11
1.54287744893e-09
1.93834120147e-09
2.09873159789e-13
-4.06296590435e-11
1.66928918919e-09
2.13470908883e-09
-4.52374382955e-11
1.80386161429e-09
2.31727051548e-09
-4.35883900272e-11
1.9243875632e-09
2.47932545574e-09
-3.60817195611e-11
2.02335820421e-09
2.6137840994e-09
-2.38013930318e-11
2.09713570427e-09
2.71472871171e-09
-8.34641826531e-12
2.14335076196e-09
2.77827850151e-09
8.26617747769e-12
2.15994187721e-09
2.80111435395e-09
2.37750620238e-11
2.14325273265e-09
2.77828886139e-09
3.61454664532e-11
2.0969068735e-09
2.71474874419e-09
4.37280410835e-11
2.02293917639e-09
2.61381181119e-09
4.53795918812e-11
1.92375402208e-09
2.47935825228e-09
4.07104137108e-11
1.80311400882e-09
2.31730960245e-09
2.85307877431e-11
1.66856148047e-09
2.13478006558e-09
1.54249862148e-09
1.93853891724e-09
1.13911671578e-13
-2.58363680842e-11
2.63546574129e-09
3.05087303749e-09
3.54269941651e-13
-3.76062836327e-11
2.8329727943e-09
3.36525446327e-09
-4.19556795784e-11
3.03822962781e-09
3.65690419139e-09
-4.02526045904e-11
3.22041335175e-09
3.91517725001e-09
-3.31798574347e-11
3.3688485375e-09
4.12903325941e-09
-2.17912460125e-11
3.47865953401e-09
4.28933077124e-09
-7.5640168539e-12
3.54718973031e-09
4.39007899259e-09
7.7275862728e-12
3.57181572281e-09
4.42616841002e-09
2.20065878766e-11
3.54702541856e-09
4.39009227591e-09
3.34760486007e-11
3.47829589231e-09
4.28935609982e-09
4.06014597768e-11
3.36822489242e-09
4.12906747195e-09
4.22656449607e-11
3.21950922895e-09
3.91521610884e-09
3.77901551132e-11
3.03715886083e-09
3.6569483047e-09
2.58579562857e-11
2.83194481691e-09
3.36533831751e-09
2.63487662839e-09
3.05112578935e-09
2.37886666826e-13
-1.38548882072e-11
3.63997100097e-09
3.9727552903e-09
4.91220903855e-13
-2.05985517627e-11
3.89093406719e-09
4.38615245087e-09
-2.30386489951e-11
4.14501256429e-09
4.76794050442e-09
-2.19846854795e-11
4.3679806446e-09
5.10463395565e-09
-1.80135062249e-11
4.54805854227e-09
5.382440487e-09
-1.17402307894e-11
4.6802221852e-09
5.59009650505e-09
-3.95537555981e-12
4.76237500314e-09
5.72030115521e-09
4.45050226206e-12
4.79193348221e-09
5.76680538163e-09
1.2270455921e-11
4.76215654953e-09
5.72031303371e-09
1.85910489067e-11
4.67975611971e-09
5.59011842822e-09
2.25683821363e-11
4.54729598829e-09
5.38246812822e-09
2.35308066567e-11
4.36691229389e-09
5.10466133431e-09
2.09057826999e-11
4.14374503848e-09
4.76796646947e-09
1.3942283104e-11
3.8897086481e-09
4.3862137123e-09
3.63920678071e-09
3.97299699591e-09
3.99251801778e-13
3.98193757668e-12
4.45035667471e-09
4.69818464785e-09
6.12086403746e-13
5.17172897185e-12
4.73353758015e-09
5.18977563909e-09
5.69993977016e-12
5.01099098085e-09
5.64096452953e-09
5.52626947839e-12
5.25128138556e-09
6.03666494006e-09
4.62487810347e-12
5.44331048566e-09
6.36163604326e-09
3.14393531124e-12
5.58300432672e-09
6.60365873636e-09
1.32808279647e-12
5.66945849364e-09
6.75496818485e-09
-4.88504033187e-13
5.70062107835e-09
6.80884991636e-09
-2.29086445305e-12
5.66920949278e-09
6.75497413878e-09
-3.76560155559e-12
5.58248410683e-09
6.60366893055e-09
-4.71213256045e-12
5.44248360453e-09
6.36164498729e-09
-5.02841722104e-12
5.25014672773e-09
6.03666483406e-09
-4.73113875588e-12
5.00964376706e-09
5.64095166011e-09
-3.80434686053e-12
4.73220972737e-09
5.1897857198e-09
4.44947545087e-09
4.6983692185e-09
5.7794970413e-13
2.47896365253e-11
5.01730918274e-09
5.2281209809e-09
7.12105694873e-13
3.56086772163e-11
5.31280603752e-09
5.77719843733e-09
3.96971102593e-11
5.59036099631e-09
6.27739778409e-09
3.78959692511e-11
5.82714054647e-09
6.7132095365e-09
3.10985572299e-11
6.01394089199e-09
7.0691585937e-09
2.04540056384e-11
6.14845690807e-09
7.33311316733e-09
7.43141408184e-12
6.23129777588e-09
7.49757751917e-09
-6.27629407319e-12
6.26123182661e-09
7.55595825977e-09
-1.93067546084e-11
6.23104067417e-09
7.4975755721e-09
-2.99840918226e-11
6.14792735103e-09
7.33310715978e-09
-3.68725079584e-11
6.01311644845e-09
7.06914178854e-09
-3.88566854862e-11
5.82602517913e-09
6.7131721334e-09
-3.50317117303e-11
5.58903273808e-09
6.27733305452e-09
-2.45002836493e-11
5.31147249247e-09
5.77714041307e-09
5.01636158703e-09
5.22822506849e-09
7.57396172291e-13
4.6266197544e-11
5.33125560786e-09
5.57121003773e-09
7.87841526265e-13
6.75503893002e-11
5.62303828342e-09
6.15892986901e-09
7.54466562213e-11
5.88268707311e-09
6.68991816308e-09
7.18131792041e-11
6.10036461303e-09
7.14922517273e-09
5.87076267956e-11
6.2693806701e-09
7.52211809733e-09
3.84290078661e-11
6.3896364812e-09
7.79734547782e-09
1.37376379833e-11
6.46327571099e-09
7.96820314463e-09
-1.23148934511e-11
6.48997217918e-09
8.02864107766e-09
-3.70320015324e-11
6.46303237188e-09
7.96819241025e-09
-5.73747055153e-11
6.38913996026e-09
7.79732141406e-09
-7.06061909624e-11
6.26861674576e-09
7.52207268871e-09
-7.44493509981e-11
6.09933834623e-09
7.14914661077e-09
-6.68349039041e-11
5.88145420075e-09
6.68979683256e-09
-4.58511627383e-11
5.6217803565e-09
6.15879894743e-09
5.33030417742e-09
5.57122785653e-09
9.32121965576e-13
6.67608054917e-11
5.40887139138e-09
5.74260616346e-09
8.38839662293e-13
9.87079559954e-11
5.68557732361e-09
6.35316769307e-09
1.10436016875e-10
5.91562644921e-09
6.90005050593e-09
1.0495809589e-10
6.10456275264e-09
7.36956706231e-09
8.56042572495e-11
6.24835680311e-09
7.74839525789e-09
5.58866146019e-11
6.3491849624e-09
8.02666006964e-09
1.983971276e-11
6.41051133691e-09
8.19873471763e-09
-1.81997131436e-11
6.43283714593e-09
8.25936054058e-09
-5.42853213642e-11
6.41029830025e-09
8.19871574939e-09
-8.40890132122e-11
6.34875299711e-09
8.02661901462e-09
-1.03591121285e-10
6.24769703142e-09
7.74832289654e-09
-1.09292462426e-10
6.10367873743e-09
7.36944975832e-09
-9.78509308099e-11
5.91455291827e-09
6.89987631211e-09
-6.62107473142e-11
5.68446175924e-09
6.3529704097e-09
5.40799018487e-09
5.74254557826e-09
1.09697216427e-12
8.52144321783e-11
5.2824296429e-09
5.76188495747e-09
8.69012620388e-13
1.27547838982e-10
5.53707846152e-09
6.38304941426e-09
1.43020209607e-10
5.73178588859e-09
6.93469210532e-09
1.35870241636e-10
5.88774497338e-09
7.40479016957e-09
1.1067371534e-10
6.00345614031e-09
7.78179010703e-09
7.21380226617e-11
6.08313630748e-09
8.05740906564e-09
2.55073256972e-11
6.13120112797e-09
8.22717223829e-09
-2.369378619e-11
6.14878986313e-09
8.28670764373e-09
-7.03710208505e-11
6.13103051847e-09
8.22714677104e-09
-1.09005267447e-10
6.08279136946e-09
8.05735456004e-09
-1.34360514692e-10
6.00293064098e-09
7.7816963841e-09
-1.41736547428e-10
5.88703819645e-09
7.40464216956e-09
-1.26546890483e-10
5.73091496468e-09
6.93447636453e-09
-8.45207209143e-11
5.53615870834e-09
6.38280185479e-09
5.28167709934e-09
5.76176417037e-09
1.2501493744e-12
1.01072252582e-10
4.99169998877e-09
5.65079747037e-09
8.80297167609e-13
1.53176596732e-10
5.22086731078e-09
6.27384840618e-09
1.72284204882e-10
5.37924351264e-09
6.82272815151e-09
1.63807554053e-10
5.50219574813e-09
7.287210963e-09
1.33408041336e-10
5.59049901072e-09
7.65760246031e-09
8.68986720578e-11
5.6499425252e-09
7.92720102751e-09
3.06532012574e-11
5.68543572614e-09
8.09259888471e-09
-2.8698634809e-11
5.6985031305e-09
8.15029230758e-09
-8.49940530209e-11
5.68531348957e-09
8.09256963227e-09
-1.31606443944e-10
5.64969545269e-09
7.92713871324e-09
-1.62165997447e-10
5.59012229666e-09
7.65749640041e-09
-1.70863218867e-10
5.50168539439e-09
7.28704526741e-09
-1.52029352302e-10
5.37860239499e-09
6.82248867709e-09
-1.00230132885e-10
5.22018190806e-09
6.27357426106e-09
4.99112982219e-09
5.65064233594e-09
1.39226701441e-12
1.14183048882e-10
4.57821398963e-09
5.43127211941e-09
8.78603811837e-13
1.75228049615e-10
4.78100357679e-09
6.05058839928e-09
1.97925797677e-10
4.90526348271e-09
6.59227412012e-09
1.88629302074e-10
4.99799526026e-09
7.04781785889e-09
1.53795328303e-10
5.061950476e-09
7.40927076148e-09
1.00207194113e-10
5.1038369954e-09
7.67134109465e-09
3.53017972005e-11
5.12853803844e-09
7.83150004531e-09
-3.32272719468e-11
5.13769087056e-09
7.8870206339e-09
-9.81827368036e-11
5.12846492516e-09
7.83147061322e-09
-1.51872497964e-10
5.10368927547e-09
7.67127855144e-09
-1.86861414508e-10
5.06172356348e-09
7.40916458226e-09
-1.96368687584e-10
4.99768318488e-09
7.04765200739e-09
-1.73934032742e-10
4.90485993297e-09
6.59203429902e-09
-1.13190390033e-10
4.78057268537e-09
6.05031712489e-09
4.57785799073e-09
5.43111404053e-09
1.52365433123e-12
1.24666682032e-10
4.08153763974e-09
5.12385918598e-09
8.66339979313e-13
1.93770044278e-10
4.25852759316e-09
5.73628401944e-09
2.20200525709e-10
4.35252998676e-09
6.26875113136e-09
2.10733401776e-10
4.41942650677e-09
6.71421689117e-09
1.7224346841e-10
4.46350979413e-09
7.06622599545e-09
1.12359392864e-10
4.49154983941e-09
7.32062820462e-09
3.95637278395e-11
4.50785854381e-09
7.4755310291e-09
-3.73810332317e-11
4.51392362215e-09
7.5288531722e-09
-1.10224814309e-10
4.50783161371e-09
7.47550588921e-09
-1.70206437684e-10
4.4914938225e-09
7.32057489306e-09
-2.08843302049e-10
4.46342274024e-09
7.06613501177e-09
-2.18510489821e-10
4.41930085841e-09
6.71407273811e-09
-1.92332831004e-10
4.35235605792e-09
6.26853914081e-09
-1.23528153472e-10
4.25835065379e-09
5.73604874009e-09
4.08141180399e-09
5.12373275065e-09
1.64596463093e-12
1.32842079481e-10
3.53714450232e-09
4.74667046332e-09
8.46857175826e-13
2.09436386007e-10
3.68919898569e-09
5.35085392962e-09
2.40103925469e-10
3.7572281022e-09
5.873801936e-09
2.31147706157e-10
3.80354987963e-09
6.30956023564e-09
1.89579969829e-10
3.83301579389e-09
6.65284600441e-09
1.23879143826e-10
3.85140024584e-09
6.90034093886e-09
4.36178254753e-11
3.86195713545e-09
7.05052832677e-09
-4.133274347e-11
3.86585229161e-09
7.10182582587e-09
-1.2164084437e-10
3.86196965257e-09
7.05051264561e-09
-1.87434167842e-10
3.8514249858e-09
6.90030782307e-09
-2.29142525991e-10
3.83305019132e-09
6.65278807164e-09
-2.38289735278e-10
3.80359003087e-09
6.30946336201e-09
-2.07867951869e-10
3.75726186865e-09
5.87364987306e-09
-1.31569623351e-10
3.68926163956e-09
5.35068856489e-09
3.53724717553e-09
4.74660752146e-09
1.75232424641e-12
1.38713460113e-10
2.97590819546e-09
4.31479128976e-09
8.23863526764e-13
2.23287994014e-10
3.10198743761e-09
4.91071340729e-09
2.5932219233e-10
3.14825089387e-09
5.42497744366e-09
2.51408208094e-10
3.18018946814e-09
5.85230257148e-09
2.06918788578e-10
3.20075963152e-09
6.18828491084e-09
1.35425651128e-10
3.21377020406e-09
6.43013117918e-09
4.76848622246e-11
3.22119464207e-09
6.57644730891e-09
-4.53017462376e-11
3.22382396448e-09
6.62600343282e-09
-1.33088628887e-10
3.22124037468e-09
6.57644625303e-09
-2.04673726438e-10
3.21386046079e-09
6.43012922359e-09
-2.49300577001e-10
3.20089427507e-09
6.18827814883e-09
-2.57403307544e-10
3.18036526604e-09
5.85227997757e-09
-2.21609293937e-10
3.14846246219e-09
5.42492029808e-09
-1.37329057648e-10
3.10226062491e-09
4.910650715e-09
2.97620917489e-09
4.31481339264e-09
1.84573036719e-12
1.31879790131e-10
3.83965642884e-09
7.9726117939e-13
2.43553888595e-09
2.33526206034e-10
4.42873033128e-09
2.51230794133e-09
2.77991190457e-10
4.93572194162e-09
2.54689514148e-09
2.72063986457e-10
5.35637274573e-09
2.5723938442e-09
2.24898395535e-10
5.68684811706e-09
2.59001062462e-09
1.47507447627e-10
5.92456678164e-09
2.60180474982e-09
5.19545945805e-11
6.06801373715e-09
2.60859857988e-09
-4.94792064298e-11
6.11616892133e-09
2.61083876429e-09
-1.45081874893e-10
6.0680302145e-09
2.60867106571e-09
-2.22569440386e-10
5.92460203293e-09
2.6019497601e-09
-2.69879039184e-10
5.68690271068e-09
2.59022713703e-09
-2.75997782096e-10
5.3564418155e-09
2.57268190547e-09
-2.31777350547e-10
4.93578584139e-09
2.54725168339e-09
-1.30421727092e-10
4.42881322513e-09
2.51275689737e-09
3.83974502566e-09
1.90113469544e-12
2.43601939589e-09
4.59415812895e-12
2.69668954113e-11
6.34976774505e-10
-1.63894517416e-14
8.50839370857e-12
2.74630328681e-11
7.00643505324e-10
1.07111303246e-11
2.88610877435e-11
7.61743008125e-10
1.09890836702e-11
3.02752316251e-11
8.16061067164e-10
9.41530362099e-12
3.17173483469e-11
8.61173562038e-10
6.3391356573e-12
3.2857833561e-11
8.95068944497e-10
2.25973138479e-12
3.358884499e-11
9.16433351466e-10
-2.18703359968e-12
3.38411328433e-11
9.24132866466e-10
-6.27653679386e-12
3.35377034348e-11
9.16435445889e-10
-9.36584380625e-12
3.27709919667e-11
8.95072951856e-10
-1.0938038927e-11
3.16178479838e-11
8.61179269398e-10
-1.06323045783e-11
3.01696372146e-11
8.16068855766e-10
-8.43075507852e-12
2.87029520463e-11
7.61755036219e-10
-4.5155330617e-12
2.73342602014e-11
7.00670081142e-10
2.68713103765e-11
6.35056047208e-10
3.58436116244e-14
1.06580668682e-11
1.8937109348e-10
1.76570200627e-09
-3.4145425971e-14
1.94416106992e-11
2.05127624447e-10
1.94869356919e-09
2.43401735638e-11
2.2310876543e-10
2.11855752577e-09
2.48000851964e-11
2.40400146514e-10
2.26913009269e-09
2.11424764241e-11
2.55672312359e-10
2.39390283737e-09
1.41819965175e-11
2.67470008387e-10
2.48749847089e-09
5.05706493963e-12
2.74976608547e-10
2.54640094425e-09
-4.84719197439e-12
2.77631944652e-10
2.56756421444e-09
-1.39906886176e-11
2.74860296579e-10
2.54640586869e-09
-2.09741458118e-11
2.67262104193e-10
2.48750771788e-09
-2.46270554445e-11
2.55412917415e-10
2.39391572882e-09
-2.41248110241e-11
2.40109074608e-10
2.26914761055e-09
-1.9222539986e-11
2.22742966242e-10
2.11858601615e-09
-1.04597700222e-11
2.04795008137e-10
1.94876185694e-09
1.8914369348e-10
1.76589527478e-09
1.00795439489e-13
1.48554507648e-11
4.78790974547e-10
2.74698082118e-09
-3.65196113354e-14
2.65713084797e-11
5.23452461833e-10
3.03561019192e-09
3.28605443406e-11
5.71088686111e-10
3.30301679052e-09
3.31551057996e-11
6.16070913208e-10
3.53957173655e-09
2.80664888302e-11
6.54900028446e-10
3.73527269438e-09
1.87393127702e-11
6.84622217205e-10
3.88188811805e-09
6.68300330855e-12
7.03444067675e-10
3.97401913175e-09
-6.33864604367e-12
7.10114963151e-10
4.00701638027e-09
-1.84153029776e-11
7.03279052904e-10
3.97402436315e-09
-2.77670364603e-11
6.84320408111e-10
3.88189763333e-09
-3.2851739115e-11
6.54509279415e-10
3.73528529277e-09
-3.2520771995e-11
6.1562149491e-10
3.53958845009e-09
-2.62316377418e-11
5.70559710953e-10
3.30304631761e-09
-1.4559218052e-11
5.22959035774e-10
3.0356926597e-09
4.78480393003e-10
2.74723298899e-09
1.72376587602e-13
1.88169399305e-11
8.47068308041e-10
3.58599419389e-09
-1.606338448e-14
3.28277147144e-11
9.27192455846e-10
3.9687376634e-09
3.99603728859e-11
1.00983649468e-09
4.32239432617e-09
3.98762373854e-11
1.08667393718e-09
4.63444476298e-09
3.35013231724e-11
1.15200957198e-09
4.89204594921e-09
2.22640537524e-11
1.20158891335e-09
5.08470367886e-09
7.94445499779e-12
1.23282944288e-09
5.2055466417e-09
-7.44538286464e-12
1.24389929673e-09
5.24869003112e-09
-2.17858283587e-11
1.23263460767e-09
5.20554867707e-09
-3.30497165206e-11
1.20122544774e-09
5.08470650707e-09
-3.94300230332e-11
1.15152328436e-09
4.89204781252e-09
-3.94967505932e-11
1.08610460832e-09
4.63444617688e-09
-3.23800111617e-11
1.00919510309e-09
4.32240440369e-09
-1.84298093605e-11
9.26597665922e-10
3.96880154101e-09
8.46697323047e-10
3.58624512916e-09
2.65171315271e-13
2.37546703938e-11
1.24292372653e-09
4.27883751696e-09
2.23593820251e-14
4.0309048541e-11
1.35804081783e-09
4.74265089093e-09
4.82740541016e-11
1.47353746216e-09
5.16959151782e-09
4.76707117386e-11
1.57924696583e-09
5.54498425214e-09
3.97782170466e-11
1.66788717993e-09
5.85394934587e-09
2.63300927281e-11
1.73452704812e-09
6.08446547104e-09
9.39916612339e-12
1.77628111152e-09
6.22872507036e-09
-8.72177993854e-12
1.79106196418e-09
6.28006069614e-09
-2.56755479213e-11
1.77607111479e-09
6.22872090674e-09
-3.91563828969e-11
1.73413115006e-09
6.08445559028e-09
-4.70701575107e-11
1.6673486122e-09
5.85393129286e-09
-4.76817317271e-11
1.57861037078e-09
5.54495746549e-09
-3.97559784375e-11
1.47283310658e-09
5.16956395289e-09
-2.32790375511e-11
1.35740034028e-09
4.74266943216e-09
1.24251755503e-09
4.27904475247e-09
3.75546224085e-13
3.02931554727e-11
1.61845376697e-09
4.82246462825e-09
7.07429009276e-14
5.02175283198e-11
1.76250511094e-09
5.35304983064e-09
5.93609161271e-11
1.9030279744e-09
5.83901140407e-09
5.81611384185e-11
2.02954713521e-09
6.26436112458e-09
4.8294007995e-11