/*--------------------------------*- C++ -*----------------------------------*\
  =========                 |
  \\      /  F ield         | OpenFOAM: The Open Source CFD Toolbox
   \\    /   O peration     | Website:  https://openfoam.org
    \\  /    A nd           | Version:  7
     \\/     M anipulation  |
\*---------------------------------------------------------------------------*/
FoamFile
{
    version     2.0;
    format      ascii;
    class       volVectorField;
    location    "0.36";
    object      U;
}
// * * * * * * * * * * * * * * * * * * * * * * * * * * * * * * * * * * * * * //

dimensions      [0 1 -1 0 0 0 0];

internalField   nonuniform List<vector> 
22500
(
(-1.32696172976e-05 -1.4973877918e-05 -1.76884665044e-05)
(-1.22919936187e-05 -1.70550159652e-05 -1.83649269756e-05)
(-1.08256444073e-05 -1.9080787648e-05 -1.88868515617e-05)
(-9.11144585215e-06 -2.08304305205e-05 -1.93262983133e-05)
(-7.09134391643e-06 -2.22772497013e-05 -1.96849731668e-05)
(-4.85826537583e-06 -2.33525476343e-05 -1.99521929535e-05)
(-2.47121689006e-06 -2.40154680839e-05 -2.01193596962e-05)
(-4.59062219017e-09 -2.42400660544e-05 -2.01793599388e-05)
(2.46211725958e-06 -2.4016395456e-05 -2.01218275918e-05)
(4.84940229342e-06 -2.33543642898e-05 -1.99571459258e-05)
(7.0828519774e-06 -2.22798881674e-05 -1.96924407712e-05)
(9.10344271575e-06 -2.08337917728e-05 -1.93363389809e-05)
(1.08183072498e-05 -1.90847531987e-05 -1.8899602734e-05)
(1.22853109544e-05 -1.70595196962e-05 -1.8380703881e-05)
(1.32642978664e-05 -1.49784048562e-05 -1.77076757297e-05)
(-3.95526598181e-05 -4.44446427818e-05 -0.000113424818777)
(-3.65862101364e-05 -5.05183963489e-05 -0.000121428762384)
(-3.22856593323e-05 -5.64282620897e-05 -0.000128713894676)
(-2.71642523222e-05 -6.15602311437e-05 -0.000135149409706)
(-2.11593707723e-05 -6.58031171757e-05 -0.000140491018932)
(-1.45009098906e-05 -6.89595202898e-05 -0.000144500567489)
(-7.37681872449e-06 -7.09073848201e-05 -0.000146993094876)
(-1.16662677318e-08 -7.15672402266e-05 -0.000147847112534)
(7.35367048911e-06 -7.09101490532e-05 -0.00014700077215)
(1.44782794043e-05 -6.8964965914e-05 -0.000144515968927)
(2.11375088343e-05 -6.58110772203e-05 -0.000140514218633)
(2.71433264854e-05 -6.1570433177e-05 -0.000135180558043)
(3.22659698374e-05 -5.64403803382e-05 -0.000128753359253)
(3.65678887419e-05 -5.05321716709e-05 -0.000121477419512)
(3.95375090568e-05 -4.44587420334e-05 -0.000113483708913)
(-6.38582733808e-05 -7.1408246287e-05 -0.000261829826632)
(-5.88781158273e-05 -8.09726435024e-05 -0.00028164879483)
(-5.19380537432e-05 -9.02079383735e-05 -0.000299895802808)
(-4.36451372131e-05 -9.82300581051e-05 -0.000316005076315)
(-3.39799008852e-05 -0.000104846417338 -0.000329336024221)
(-2.32769176386e-05 -0.00010976404096 -0.000339312204243)
(-1.1838609919e-05 -0.000112797044265 -0.000345494146657)
(-1.96935015944e-08 -0.000113824116396 -0.000347600097848)
(1.17995865503e-05 -0.000112801350159 -0.000345506185625)
(2.32389501995e-05 -0.000109772480452 -0.000339336414869)
(3.39436025304e-05 -0.000104858643639 -0.000329372630805)
(4.36110076304e-05 -9.82455636946e-05 -0.00031605447393)
(5.19066756038e-05 -9.02260673341e-05 -0.000299958756964)
(5.88498431569e-05 -8.09928836049e-05 -0.000281726918227)
(6.38353622897e-05 -7.14288769804e-05 -0.00026192503508)
(-8.57713283623e-05 -9.55252496871e-05 -0.000450918788949)
(-7.88387053515e-05 -0.000107965792519 -0.000484824236106)
(-6.94632304441e-05 -0.000119879223027 -0.000515959588007)
(-5.82750530303e-05 -0.000130211692075 -0.000543282876749)
(-4.53243533297e-05 -0.000138709703432 -0.000565756889981)
(-3.10239726962e-05 -0.00014501597682 -0.000582490387916)
(-1.57711082167e-05 -0.000148901520853 -0.000592818823179)
(-2.5362665636e-08 -0.0001502164605 -0.000596324277844)
(1.5720848467e-05 -0.00014890693306 -0.000592834511342)
(3.09750773729e-05 -0.000145026580546 -0.000582522005118)
(4.52776536159e-05 -0.000138725048589 -0.000565804845473)
(5.82312621254e-05 -0.000130231121836 -0.00054334784343)
(6.94231156899e-05 -0.000119901861653 -0.000516042736092)
(7.8802819656e-05 -0.000107990947528 -0.000484927906096)
(8.57421283475e-05 -9.55509796968e-05 -0.000451045931642)
(-0.000104973340573 -0.000116543500469 -0.000666425082746)
(-9.62088299517e-05 -0.000131181581127 -0.00071441936243)
(-8.46208927008e-05 -0.000145078613243 -0.000758118916997)
(-7.08525079562e-05 -0.000157101349068 -0.000796141022222)
(-5.50332633354e-05 -0.000166958383734 -0.000827176986637)
(-3.76319935667e-05 -0.000174259774028 -0.000850145153986)
(-1.91182783207e-05 -0.000178753002044 -0.000864259134418)
(-2.90616831378e-08 -0.000180272488761 -0.000869034169575)
(1.9060660616e-05 -0.000178759061845 -0.000864277649744)
(3.75758664126e-05 -0.00017427165648 -0.000850182542053)
(5.49795627575e-05 -0.000166975601354 -0.000827233853754)
(7.08020699982e-05 -0.000157123186715 -0.000796218320353)
(8.45745985447e-05 -0.000145104100436 -0.00075821819088)
(9.61673925058e-05 -0.000131209942189 -0.000714543639207)
(0.000104939261508 -0.000116572750625 -0.00066657844086)
(-0.000121250144606 -0.000134286622686 -0.000894383151035)
(-0.000110812055021 -0.000150417804466 -0.000954704672147)
(-9.72587273206e-05 -0.000165601218773 -0.00100900090306)
(-8.12582652494e-05 -0.000178695525243 -0.00105578482739)
(-6.30179946238e-05 -0.000189395099929 -0.00109365841567)
(-4.30427032431e-05 -0.000197305621199 -0.00112150695764)
(-2.18514253089e-05 -0.00020216764286 -0.00113854228124)
(-3.12567187373e-08 -0.000203810678514 -0.00114428908607)
(2.17894185243e-05 -0.000202173987738 -0.00113856290623)
(4.29821970233e-05 -0.000197318078417 -0.00112154866801)
(6.29599538152e-05 -0.000189413187624 -0.00109372198824)
(8.12035800598e-05 -0.000178718530347 -0.00105587144217)
(9.72083320025e-05 -0.000165628161734 -0.00100911239134)
(0.000110766774799 -0.000150447899971 -0.000954844656439)
(0.00012121242554 -0.000134317975906 -0.000894556842777)
(-0.000134531940209 -0.000148707683377 -0.00112295989154)
(-0.000122601360627 -0.000165643643024 -0.00119283248025)
(-0.000107348986129 -0.000181455156748 -0.00125492868291)
(-8.94834979765e-05 -0.000195041443314 -0.00130790533785)
(-6.92804944915e-05 -0.000206105348253 -0.00135044392171)
(-4.72621192371e-05 -0.000214270585557 -0.00138152778519)
(-2.3975212488e-05 -0.000219283360941 -0.00140045978754)
(-3.24352977308e-08 -0.000220976276705 -0.00140683002712)
(2.3910828778e-05 -0.000219289728531 -0.00140048201067)
(4.71991839141e-05 -0.000214283104935 -0.00138157276446)
(6.92199563686e-05 -0.000206123568448 -0.00135051254692)
(8.94262552857e-05 -0.000195064689331 -0.00130799892337)
(0.000107295977281 -0.000181482494363 -0.00125504921358)
(0.000122553482325 -0.000165674325514 -0.00119298404785)
(0.000134491532701 -0.000148739992045 -0.00112314874875)
(-0.000144872215956 -0.000159875004311 -0.00134332924319)
(-0.000131641467758 -0.000176972928807 -0.00141967140006)
(-0.000114966780316 -0.000192816762212 -0.00148665348897)
(-9.56074540459e-05 -0.000206375609895 -0.00154326906925)
(-7.38927473694e-05 -0.000217380777119 -0.00158839016356)
(-5.03448492142e-05 -0.000225489866695 -0.00162117410287)
(-2.55191485616e-05 -0.000230463271983 -0.00164106352192)
(-3.30329424288e-08 -0.000232142032407 -0.00164774104233)
(2.54535421149e-05 -0.000230469489564 -0.00164108705055)
(5.02806148184e-05 -0.00022550210862 -0.00162122172936)
(7.38307971928e-05 -0.000217398636714 -0.00158846282122)
(9.55486686228e-05 -0.000206398468651 -0.00154336809565)
(0.000114912073334 -0.000192843761106 -0.00148678087328)
(0.000131591775709 -0.000177003381863 -0.00141983157347)
(0.000144829756209 -0.000159907422203 -0.00134352932489)
(-0.000152408129733 -0.000167935716904 -0.00154972944525)
(-0.000138072287855 -0.000184613260543 -0.00162966442441)
(-0.00012025406886 -0.000199962869846 -0.00169896593669)
(-9.97645289008e-05 -0.000213041240193 -0.00175706876787)
(-7.69689651054e-05 -0.000223623999804 -0.00180307537973)
(-5.23738621166e-05 -0.000231411996272 -0.00183633809001)
(-2.65269169722e-05 -0.000236184813625 -0.0018564496763)
(-3.33868857981e-08 -0.000237795246422 -0.00186318917396)
(2.6460574839e-05 -0.000236190775155 -0.00185647439801)
(5.23088133854e-05 -0.000231423751627 -0.00183638810725)
(7.69060799968e-05 -0.000223641192477 -0.00180315160716)
(9.97046601596e-05 -0.000213063317831 -0.00175717246343)
(0.000120198092861 -0.000199989062205 -0.00169909895666)
(0.000138021160901 -0.000184642959251 -0.00162983143828)
(0.000152363952441 -0.000167967664143 -0.00154993821656)
(-0.000157326247067 -0.000173085156243 -0.00173900437405)
(-0.000142077395845 -0.000188824245514 -0.00182013923539)
(-0.00012339041797 -0.000203218360225 -0.00188975841839)
(-0.000102118700741 -0.000215427349693 -0.00194774610854)
(-7.86445409017e-05 -0.000225281012975 -0.0019934134368)
(-5.34453865351e-05 -0.000232526235757 -0.00202629208386)
(-2.70484760777e-05 -0.000236963989097 -0.00204611374433)
(-3.37271633485e-08 -0.00023846094636 -0.00205274573243)
(2.69814280072e-05 -0.00023696963102 -0.00204613967095)
(5.33795600096e-05 -0.000232537379425 -0.00202634449668)
(7.85807664571e-05 -0.000225297355547 -0.00199349319118)
(0.000102057803227 -0.000215448411343 -0.00194785430646)
(0.000123333236256 -0.000203243466169 -0.00188989667505)
(0.000142024900691 -0.000188852873115 -0.00182031240778)
(0.000157280433818 -0.000173116264521 -0.00173922065958)
(-0.000159837020951 -0.000175546475578 -0.00190992530019)
(-0.000143860744352 -0.00018988664438 -0.00199044942582)
(-0.000124572832105 -0.000202920181181 -0.0020589924986)
(-0.000102846454449 -0.000213930269679 -0.00211579966578)
(-7.90619781996e-05 -0.000222800611223 -0.00216033090471)
(-5.36587820465e-05 -0.000229320017065 -0.00219227137276)
(-2.71347699093e-05 -0.000233311459166 -0.00221147731773)
(-3.41891834949e-08 -0.000234657515579 -0.00221789463263)
(2.70667748625e-05 -0.000233316738725 -0.00221150452916)
(5.35919439181e-05 -0.000229330464804 -0.00219232634003)
(7.89970921906e-05 -0.000222815982007 -0.00216041441568)
(0.00010278432145 -0.00021395016285 -0.00211591262786)
(0.000124514261456 -0.000202944023297 -0.00205913620568)
(0.000143806718079 -0.000189914009337 -0.00199062891518)
(0.000159789450724 -0.0001755765105 -0.0019101490951)
(-0.000160152169519 -0.000175550250859 -0.0020624985351)
(-0.00014363121491 -0.000188073982492 -0.00214119222119)
(-0.000124005078857 -0.000199393757041 -0.00220783210642)
(-0.000102127045713 -0.00020893411492 -0.00226283577862)
(-7.8361913601e-05 -0.000216615680892 -0.00230575524005)
(-5.31097920316e-05 -0.000222259585105 -0.00233642273269)
(-2.68341908576e-05 -0.000225712558261 -0.00235481575239)
(-3.48355586555e-08 -0.000226876505107 -0.00236095366913)
(2.67648818801e-05 -0.00022571743726 -0.00235484434438)
(5.30415798114e-05 -0.000222269261224 -0.00233648046715)
(7.82955609458e-05 -0.000216629972769 -0.00230584287197)
(0.000102063334226 -0.000208952707126 -0.00226295403483)
(0.000123944799836 -0.000199416187277 -0.00220798189167)
(0.00014357536552 -0.000188099927441 -0.00214137870563)
(0.00016010258457 -0.00017557900604 -0.00206273063828)
(-0.000158467704693 -0.000173281326626 -0.00219735854318)
(-0.000141610461221 -0.000183623680715 -0.00227363581529)
(-0.00012190202379 -0.000192947122764 -0.00233804746401)
(-0.000100138342858 -0.000200813032936 -0.00239092799512)
(-7.66764342219e-05 -0.000207145763604 -0.00243195018799)
(-5.18853243646e-05 -0.000211791628848 -0.00246113303906)
(-2.61899622787e-05 -0.000214628672791 -0.00247858692217)
(-3.5675577312e-08 -0.000215584019265 -0.00248440399258)
(2.61189530896e-05 -0.000214633108198 -0.00247861695079)
(5.18153520656e-05 -0.00021180045123 -0.00246119369904)
(7.6608231212e-05 -0.000207158852374 -0.00243204229311)
(0.000100072675844 -0.000200830172738 -0.00239105219658)
(0.000121839678028 -0.000192967972197 -0.00233820423251)
(0.000141552458863 -0.000183648038552 -0.00227383014959)
(0.000158415829081 -0.000173308553293 -0.00219759969567)
(-0.000155058351118 -0.00016888214998 -0.00231525695579)
(-0.000138111581045 -0.000176786622197 -0.00238946234222)
(-0.000118502225511 -0.000183898193457 -0.00245168943806)
(-9.70463018605e-05 -0.000189947541299 -0.00250223120344)
(-7.41192185716e-05 -0.000194799279259 -0.00254112458517)
(-5.00582719056e-05 -0.000198339778302 -0.00256865150933)
(-2.52382794129e-05 -0.000200492509871 -0.00258506606376)
(-3.66817406947e-08 -0.00020121595813 -0.00259052970533)
(2.5165234848e-05 -0.000200496458478 -0.00258509747176)
(4.99862046972e-05 -0.000198347653616 -0.00256871504777)
(7.40488275594e-05 -0.000194811024451 -0.00254122128057)
(9.69783388986e-05 -0.000189963041255 -0.00250236190713)
(0.000118437479596 -0.000183917249041 -0.00245185432451)
(0.0001380511118 -0.000176809169496 -0.0023896655636)
(0.000155003795842 -0.000168907660986 -0.00231550686417)
(-0.000150544831358 -0.000163329572841 -0.00241641887818)
(-0.000133629658827 -0.000167724564675 -0.00249079726289)
(-0.000114057076941 -0.000172562668829 -0.0025506736869)
(-9.30459623951e-05 -0.000176630407601 -0.0025985677783)
(-7.0843503803e-05 -0.000179847262013 -0.00263511513445)
(-4.77391119815e-05 -0.000182166820863 -0.00266086057055)
(-2.40375825532e-05 -0.000183566607317 -0.00267617223304)
(-3.78193749951e-08 -0.000184035574089 -0.00268126302326)
(2.39622458986e-05 -0.000183570004663 -0.0026762047053)
(4.76646957974e-05 -0.000182173612646 -0.00266092641644)
(7.07706738704e-05 -0.000179857433704 -0.00263521573247)
(9.29754527004e-05 -0.000176643923412 -0.00259870461144)
(0.000113989676101 -0.000172579447862 -0.00255084713794)
(0.000133566604436 -0.00016774479105 -0.00249101258439)
(0.000150487083227 -0.000163352773364 -0.0024166718895)
(2.7516314651e-07 3.99546426923e-07 -8.68964319755e-05)
(2.01061609796e-07 5.22536642465e-07 -9.1144051861e-05)
(1.39738994409e-07 6.11217268345e-07 -9.4952997632e-05)
(9.78433721711e-08 6.72797369515e-07 -9.82254646005e-05)
(6.25554593968e-08 7.16769535349e-07 -0.000100873112247)
(3.65796149675e-08 7.45457925383e-07 -0.000102819872915)
(1.67743312206e-08 7.61629485257e-07 -0.000104012206376)
(4.57522708941e-10 7.66931141856e-07 -0.000104416819438)
(-1.58646561252e-08 7.61813341285e-07 -0.000104012439422)
(-3.566130931e-08 7.45842876825e-07 -0.000102820341757)
(-6.15319121656e-08 7.17406951329e-07 -0.000100873834464)
(-9.65569758795e-08 6.73758393243e-07 -9.82265001419e-05)
(-1.38083857814e-07 6.12589765424e-07 -9.49544943256e-05)
(-1.99051936272e-07 5.24346031159e-07 -9.11463935279e-05)
(-2.73197539833e-07 4.0151758996e-07 -8.69006778745e-05)
(2.23654082067e-06 2.701694328e-06 -0.000257442308074)
(1.99879311989e-06 3.30375661876e-06 -0.000269680454736)
(1.71854264156e-06 3.83131756734e-06 -0.00028065175118)
(1.42731263289e-06 4.27011514248e-06 -0.000290069937763)
(1.09996098274e-06 4.6232063985e-06 -0.000297683803376)
(7.48682721447e-07 4.88081275786e-06 -0.000303280188974)
(3.79070311624e-07 5.03794971992e-06 -0.000306706115449)
(1.84232940177e-10 5.09104000594e-06 -0.000307865479659)
(-3.78658038213e-07 5.03853339758e-06 -0.000306706933674)
(-7.48063048499e-07 4.8820592714e-06 -0.000303281829794)
(-1.09874618601e-06 4.62529620996e-06 -0.000297686312283)
(-1.42491962163e-06 4.27324101791e-06 -0.000290073481301)
(-1.71454878193e-06 3.83572675868e-06 -0.000280656749827)
(-1.99324720845e-06 3.30945254127e-06 -0.000269688016141)
(-2.23057247426e-06 2.70798073714e-06 -0.000257454991872)
(5.18631565101e-06 6.06355869366e-06 -0.000423642320638)
(4.746189584e-06 7.2499935335e-06 -0.000443391797246)
(4.16333929519e-06 8.33354306938e-06 -0.000461072865051)
(3.49855112542e-06 9.25948778176e-06 -0.000476237288231)
(2.72477580856e-06 1.00151336431e-05 -0.000488486570656)
(1.86811623608e-06 1.05727882999e-05 -0.000497485717446)
(9.50815510181e-07 1.09152970048e-05 -0.000502991753328)
(2.1558862705e-09 1.10312823279e-05 -0.000504851953486)
(-9.46505182002e-07 1.09163911632e-05 -0.000502993197202)
(-1.86373490173e-06 1.05750439291e-05 -0.000497488616267)
(-2.72002810895e-06 1.00186843307e-05 -0.000488491000371)
(-3.49291829023e-06 9.26447192939e-06 -0.000476243507362)
(-4.15639551791e-06 8.34006143964e-06 -0.000461081505843)
(-4.73798166692e-06 7.25792944038e-06 -0.000443404503598)
(-5.17803558909e-06 6.07207276886e-06 -0.000423662770428)
(8.55660203358e-06 9.85292778713e-06 -0.000585178193209)
(7.86900045567e-06 1.15891510212e-05 -0.000611907032443)
(6.92843634564e-06 1.31982070522e-05 -0.000635784368677)
(5.82571468389e-06 1.45795564183e-05 -0.000656238449515)
(4.53998974654e-06 1.57075730584e-05 -0.00067274375354)
(3.11294065115e-06 1.65401474228e-05 -0.00068486134599)
(1.58453831097e-06 1.7051279129e-05 -0.000692270743193)
(3.79507557839e-09 1.72242152985e-05 -0.000694770949614)
(-1.57697074216e-06 1.70527983053e-05 -0.000692272903831)
(-3.10537416074e-06 1.65432418461e-05 -0.000684865680867)
(-4.53219998998e-06 1.5712334898e-05 -0.000672750350862)
(-5.81725354115e-06 1.45860574901e-05 -0.000656247611433)
(-6.918901202e-06 1.32064238105e-05 -0.000635796835789)
(-7.85842901459e-06 1.15988475023e-05 -0.000611924758785)
(-8.54619514705e-06 9.86318079256e-06 -0.000585205508019)
(1.18431381564e-05 1.35054614158e-05 -0.000741623097199)
(1.08706928145e-05 1.56583020605e-05 -0.000774736073636)
(9.55372032601e-06 1.76593431716e-05 -0.000804232685334)
(8.00823197377e-06 1.93697841165e-05 -0.000829462721155)
(6.2248482401e-06 2.07595549074e-05 -0.000849797867113)
(4.2592162534e-06 2.17809410488e-05 -0.00086471483078)
(2.16517314028e-06 2.24059393786e-05 -0.000873829719277)
(5.22147621047e-09 2.26169737511e-05 -0.000876902503527)
(-2.15475696814e-06 2.24077485974e-05 -0.000873832699296)
(-4.24882611321e-06 2.17846024229e-05 -0.000864720795847)
(-6.21431162355e-06 2.07651294353e-05 -0.000849806888693)
(-7.99717602672e-06 1.93772954175e-05 -0.000829475081794)
(-9.54179883972e-06 1.76686937476e-05 -0.000804249118251)
(-1.0857947022e-05 1.56691832022e-05 -0.000774758674733)
(-1.18307414737e-05 1.3516919472e-05 -0.000741656497548)
(1.47362446298e-05 1.66782373011e-05 -0.000892554613051)
(1.34573904265e-05 1.90780680483e-05 -0.000931410160908)
(1.17760822434e-05 2.12997146664e-05 -0.000965908699328)
(9.8244225982e-06 2.31822633948e-05 -0.000995368795189)
(7.60693904046e-06 2.46996401011e-05 -0.00101908403557)
(5.18927525276e-06 2.58075563713e-05 -0.00103646539315)
(2.63311730624e-06 2.64823437119e-05 -0.00104707896265)
(6.47290406646e-09 2.67096150372e-05 -0.00105065426684)
(-2.62019376467e-06 2.64843339674e-05 -0.00104708287963)
(-5.17637744844e-06 2.58115680699e-05 -0.00103647320798)
(-7.59393617803e-06 2.47057094897e-05 -0.00101909576556)
(-9.81101779325e-06 2.31903784092e-05 -0.00099538463233)
(-1.17619995064e-05 2.13097296668e-05 -0.000965929254729)
(-1.34426871659e-05 1.90896446237e-05 -0.000931437534688)
(-1.47220185426e-05 1.66904238223e-05 -0.000892593636552)
(1.70657186008e-05 1.91879324158e-05 -0.00103762454341)
(1.54792341942e-05 2.1667760568e-05 -0.00108156056051)
(1.34708164602e-05 2.39420984845e-05 -0.00112043271031)
(1.11767742099e-05 2.58479779883e-05 -0.00115357380981)
(8.61553624482e-06 2.73689776766e-05 -0.00118022092765)
(5.85757527908e-06 2.84708475046e-05 -0.00119973489329)
(2.96617886581e-06 2.9138283782e-05 -0.00121164318517)
(7.55594307916e-09 2.93624593938e-05 -0.00121565217996)
(-2.95107983679e-06 2.91403620937e-05 -0.00121164817183)
(-5.84248753166e-06 2.84750261582e-05 -0.00119974480504)
(-8.60036117325e-06 2.73752743357e-05 -0.00118023568651)
(-1.11612877383e-05 2.5856357468e-05 -0.00115359344629)
(-1.34548126433e-05 2.39523869491e-05 -0.00112045761092)
(-1.5462793451e-05 2.16796123229e-05 -0.00108159274594)
(-1.70498463173e-05 1.92004375276e-05 -0.00103766899516)
(1.87640523591e-05 2.09679153436e-05 -0.00117657769442)
(1.6889491489e-05 2.33854485248e-05 -0.00122493147371)
(1.46094574412e-05 2.55710495528e-05 -0.0012675592702)
(1.20518025934e-05 2.73795720608e-05 -0.0013038487423)
(9.2470539719e-06 2.88065921606e-05 -0.00133299634466)
(6.2652985858e-06 2.98313505369e-05 -0.00135432475484)
(3.16611490882e-06 3.04483603758e-05 -0.00136733253081)
(8.47236774583e-09 3.06550047009e-05 -0.00137170943089)
(-3.14917072135e-06 3.04504462277e-05 -0.00136733873442)
(-6.24834133566e-06 2.98355381346e-05 -0.00135433704029)
(-9.23000821637e-06 2.88128883178e-05 -0.00133301450007)
(-1.20345086042e-05 2.73879275644e-05 -0.00130387257229)
(-1.45917793868e-05 2.55812814255e-05 -0.00126758885258)
(-1.68715291153e-05 2.33972175225e-05 -0.00122496870934)
(-1.8746716041e-05 2.09803912991e-05 -0.00117662767175)
(1.98377288088e-05 2.20354561275e-05 -0.00130922916215)
(1.77120313787e-05 2.42825533082e-05 -0.00136134549327)
(1.52263301251e-05 2.62739171254e-05 -0.00140713110594)
(1.24885072962e-05 2.78989516085e-05 -0.00144606071102)
(9.5382891995e-06 2.91650824721e-05 -0.00147729843467)
(6.44091343704e-06 3.00656820006e-05 -0.00150013798409)
(3.24841045101e-06 3.0604478246e-05 -0.00151405858121)
(9.23189878227e-09 3.07844034081e-05 -0.00151874040705)
(-3.22993369146e-06 3.06065034146e-05 -0.00151406616454)
(-6.4223939213e-06 3.00697454773e-05 -0.0015001529549)
(-9.51966659044e-06 2.91711865321e-05 -0.00147732041604)
(-1.2469674549e-05 2.79070440428e-05 -0.00144608922922)
(-1.52072146692e-05 2.6283819791e-05 -0.00140716586555)
(-1.7692756632e-05 2.42939545735e-05 -0.00136138827094)
(-1.98191023155e-05 2.20476184628e-05 -0.00130928509564)
(2.03401939216e-05 2.24605683265e-05 -0.00143541671061)
(1.80119764364e-05 2.44633819281e-05 -0.00149064688648)
(1.53897122786e-05 2.6190728906e-05 -0.00153901692088)
(1.25522813583e-05 2.75785726902e-05 -0.00158010491033)
(9.54504914366e-06 2.86447776164e-05 -0.00161304128747)
(6.42503643044e-06 2.93954276661e-05 -0.00163709933603)
(3.23443612512e-06 2.9841504823e-05 -0.00165175101887)
(9.84897384294e-09 2.99900381534e-05 -0.00165667618071)
(-3.2147111395e-06 2.98434106942e-05 -0.00165176016303)
(-6.40523558922e-06 2.93992534211e-05 -0.00163711734798)
(-9.52511920092e-06 2.86505286368e-05 -0.00161306760733)
(-1.25321571449e-05 2.75862041614e-05 -0.00158013874963)
(-1.53693755415e-05 2.62000812973e-05 -0.00153905756357)
(-1.79915799686e-05 2.44741857633e-05 -0.00149069600981)
(-2.03204432149e-05 2.24721942103e-05 -0.00143547942682)
(2.03492353426e-05 2.2339878955e-05 -0.00155494071549)
(1.78725067768e-05 2.4053040761e-05 -0.00161264334866)
(1.51803796652e-05 2.54763878042e-05 -0.00166306009122)
(1.23164417079e-05 2.65994931281e-05 -0.00170585536188)
(9.32761299264e-06 2.74488247841e-05 -0.00174011418229)
(6.26042962143e-06 2.80402601284e-05 -0.00176510250471)
(3.14635640498e-06 2.83892715806e-05 -0.00178030349288)
(1.03415594985e-08 2.85051595512e-05 -0.0017854099567)
(-3.12563249691e-06 2.83910102222e-05 -0.00178031440007)
(-6.23959543705e-06 2.80437547746e-05 -0.00176512396741)
(-9.30661623097e-06 2.7454090945e-05 -0.00174014546012)
(-1.22952468348e-05 2.66065031836e-05 -0.00170589533582)
(-1.5159011895e-05 2.54850152957e-05 -0.00166310758784)
(-1.7851149776e-05 2.40630685805e-05 -0.00161269998707)
(-2.03285025999e-05 2.23508065982e-05 -0.00155501151732)
(1.99495977002e-05 2.17772166938e-05 -0.00166749363777)
(1.73788233218e-05 2.31746995945e-05 -0.00172706210211)
(1.46783766096e-05 2.42757265146e-05 -0.00177905847072)
(1.18517255137e-05 2.51259816165e-05 -0.00182315015724)
(8.94287715156e-06 2.57579080973e-05 -0.00185836492301)
(5.98676747959e-06 2.6192903166e-05 -0.00188399127527)
(3.004513857e-06 2.64477270759e-05 -0.00189955373693)
(1.07263331052e-08 2.65321217278e-05 -0.00190477693706)
(-2.98300772938e-06 2.64492576138e-05 -0.00189956662809)
(-5.96511670233e-06 2.61959895082e-05 -0.00188401665333)
(-8.92102386353e-06 2.57625815931e-05 -0.00185840190141)
(-1.1829653215e-05 2.513224199e-05 -0.00182319730282)
(-1.46561432602e-05 2.42834909623e-05 -0.00177911411238)
(-1.73566384614e-05 2.31838105573e-05 -0.00172712780846)
(-1.99279970076e-05 2.17872938399e-05 -0.00166757434378)
(1.92192503566e-05 2.08658954871e-05 -0.00177256800029)
(1.66096685287e-05 2.19323595663e-05 -0.00183354944025)
(1.3958189377e-05 2.27091082342e-05 -0.00188680083244)
(1.12229230537e-05 2.32935050768e-05 -0.00193181935754)
(8.44188085836e-06 2.37200996772e-05 -0.00196761524614)
(5.63900226028e-06 2.40101725445e-05 -0.00199356825044)
(2.82662594656e-06 2.41787134069e-05 -0.00200928978053)
(1.1015552524e-08 2.42343773228e-05 -0.00201455995222)
(-2.80452833585e-06 2.41800053507e-05 -0.00200930487753)
(-5.61672546909e-06 2.40127918374e-05 -0.00199359803468)
(-8.41935763616e-06 2.37240945299e-05 -0.00196765877103)
(-1.12001455888e-05 2.32989130762e-05 -0.00193187495813)
(-1.3935239559e-05 2.27159034606e-05 -0.00188686629275)
(-1.65867798981e-05 2.1940446271e-05 -0.00183362609843)
(-1.91968875653e-05 2.08749798623e-05 -0.00177266064552)
(1.82302329237e-05 1.9677250896e-05 -0.00186931736254)
(1.56453774731e-05 2.04189435547e-05 -0.00193181659802)
(1.30947152909e-05 2.08761578566e-05 -0.00198620007738)
(1.04911262409e-05 2.12139417311e-05 -0.00203175142789)
(7.87065852251e-06 2.14552539234e-05 -0.00206769453688)
(5.24771988773e-06 2.16164375518e-05 -0.00209361694835)
(2.62792925557e-06 2.17088080232e-05 -0.00210926864835)
(1.12198060172e-08 2.17391877816e-05 -0.00211450747597)
(-2.60541122232e-06 2.17098449483e-05 -0.00210928612363)
(-5.22499162708e-06 2.16185545773e-05 -0.00209365155737)
(-7.84763652299e-06 2.14585202256e-05 -0.00206774543516)
(-1.04677963693e-05 2.1218433841e-05 -0.00203181695375)
(-1.30711767717e-05 2.08819071856e-05 -0.00198627753505)
(-1.56218966827e-05 2.04259302881e-05 -0.0019319064757)
(-1.82072057998e-05 1.96852544634e-05 -0.00186942362264)
(1.70511796343e-05 1.84308957896e-05 -0.00195666491305)
(1.4580715797e-05 1.86971516913e-05 -0.00202248252593)
(1.21541857689e-05 1.88584708901e-05 -0.00207755394218)
(9.70628201923e-06 1.89714280636e-05 -0.0021229675445)
(7.26508091232e-06 1.90436237518e-05 -0.00215846570302)
(4.83619687745e-06 1.90871468913e-05 -0.00218391887477)
(2.41992247898e-06 1.91100160088e-05 -0.00219923358901)
(1.13591277849e-08 1.91173310588e-05 -0.00220435147462)
(-2.39711781881e-06 1.91107982845e-05 -0.00219925340015)
(-4.8131578639e-06 1.9088749259e-05 -0.00218395829936)
(-7.24171044323e-06 1.90461233769e-05 -0.0021585242044)
(-9.68255567979e-06 1.89749154838e-05 -0.00212304391604)
(-1.21301873044e-05 1.8863032478e-05 -0.00207764537893)
(-1.45567562205e-05 1.87028530322e-05 -0.00202258992688)
(-1.7027511403e-05 1.84376479427e-05 -0.00195678239203)
(-1.01848887672e-07 -1.74478845276e-07 -0.000106423665324)
(-5.37907791494e-08 -2.3728047354e-07 -0.000111659756132)
(-2.31258568237e-08 -2.75883234327e-07 -0.000116365873847)
(-2.41658627784e-09 -3.00338123423e-07 -0.000120422219628)
(8.74445820512e-09 -3.147569787e-07 -0.000123708969885)
(1.13390588023e-08 -3.22401400338e-07 -0.000126128558978)
(7.55205305115e-09 -3.2586205348e-07 -0.000127611425399)
(2.46755191474e-10 -3.26808488577e-07 -0.000128114723187)
(-7.05949369895e-09 -3.25810122649e-07 -0.00012761201486)
(-1.08639138478e-08 -3.22306560843e-07 -0.000126129740117)
(-8.35285875435e-09 -3.14651389935e-07 -0.00012371074975)
(2.60794631437e-09 -3.00274980091e-07 -0.000120424626209)
(2.30504515735e-08 -2.75913143127e-07 -0.000116369004264)
(5.34606007984e-08 -2.37481263998e-07 -0.000111663986086)
(1.01427763688e-07 -1.74791055263e-07 -0.00010643025018)
(-4.13230636704e-07 -6.03111385232e-07 -0.000310610361184)
(-2.83018670267e-07 -7.82534733413e-07 -0.000325209495523)
(-1.86539018878e-07 -9.07567038857e-07 -0.000338307939404)
(-1.13569436594e-07 -9.94626701293e-07 -0.00034956962169)
(-6.17005298535e-08 -1.05205851431e-06 -0.000358677943727)
(-2.8601212255e-08 -1.08708983939e-06 -0.000365374974716)
(-9.46590118342e-09 -1.1055496151e-06 -0.000369475073157)
(1.9779608941e-09 -1.11122894523e-06 -0.000370862674181)
(1.33680669511e-08 -1.10545433331e-06 -0.000369476812058)
(3.2288412531e-08 -1.08695931263e-06 -0.000365378458523)
(6.48543175049e-08 -1.05202517159e-06 -0.000358683195183)
(1.15718083626e-07 -9.94870230777e-07 -0.000349576728534)
(1.87307682273e-07 -9.08309703422e-07 -0.000338317201452)
(2.82340095797e-07 -7.83999020913e-07 -0.000325222024183)
(4.11625340354e-07 -6.05077063055e-07 -0.000310629149885)
(-8.21291502744e-07 -1.11250675305e-06 -0.000504592472544)
(-6.22428214117e-07 -1.40080738086e-06 -0.000527499346963)
(-4.60774090505e-07 -1.61687764244e-06 -0.000547996251962)
(-3.2759523296e-07 -1.77585916777e-06 -0.000565579904152)
(-2.18955535131e-07 -1.88734207247e-06 -0.000579777818496)
(-1.31923787753e-07 -1.95979707687e-06 -0.000590205080172)
(-6.08783731299e-08 -2.0002331047e-06 -0.000596582939212)
(1.38034194166e-09 -2.01319196241e-06 -0.00059873759612)
(6.36129866522e-08 -2.00022213721e-06 -0.000596585979679)
(1.34530867816e-07 -1.9598219604e-06 -0.000590211160212)
(2.21183589529e-07 -1.88750670247e-06 -0.000579786950924)
(3.29029792046e-07 -1.77630789228e-06 -0.000565592184108)
(4.61052440396e-07 -1.61776418555e-06 -0.000548012073109)
(6.21471625191e-07 -1.40231387287e-06 -0.000527520276031)
(8.19601741216e-07 -1.11443898322e-06 -0.000504622722852)
(-1.23518054521e-06 -1.60318984576e-06 -0.000688615286436)
(-9.78958754555e-07 -1.97655256818e-06 -0.000718850747227)
(-7.57224294061e-07 -2.26730991033e-06 -0.000745818933239)
(-5.64822499435e-07 -2.48709759517e-06 -0.000768904679858)
(-3.97056248067e-07 -2.64548672116e-06 -0.000787515990833)
(-2.50877959757e-07 -2.7511007124e-06 -0.00080116960463)
(-1.20573568567e-07 -2.81130215371e-06 -0.000809513668195)
(1.02780483012e-09 -2.83086448289e-06 -0.000812328945888)
(1.2261509551e-07 -2.81139623374e-06 -0.000809517991614)
(2.52833572817e-07 -2.75132909352e-06 -0.000801178236006)
(3.98718620584e-07 -2.64593225789e-06 -0.000787528918247)
(5.65823254643e-07 -2.48786877576e-06 -0.000768921978159)
(7.57211697803e-07 -2.26851215154e-06 -0.000745841016789)
(9.77815539002e-07 -1.97830370348e-06 -0.000718879409049)
(1.2333690342e-06 -1.60528969818e-06 -0.000688655426461)
(-1.63355612479e-06 -2.0577633657e-06 -0.000863042037482)
(-1.33010195636e-06 -2.49456456247e-06 -0.000899709821935)