/*--------------------------------*- C++ -*----------------------------------*\
  =========                 |
  \\      /  F ield         | OpenFOAM: The Open Source CFD Toolbox
   \\    /   O peration     | Website:  https://openfoam.org
    \\  /    A nd           | Version:  7
     \\/     M anipulation  |
\*---------------------------------------------------------------------------*/
FoamFile
{
    version     2.0;
    format      ascii;
    class       volScalarField;
    location    "0.48";
    object      p;
}
// * * * * * * * * * * * * * * * * * * * * * * * * * * * * * * * * * * * * * //

dimensions      [0 2 -2 0 0 0 0];

internalField   nonuniform List<scalar> 
22500
(
-1.76532593065e-05
-1.76531078207e-05
-1.76536107407e-05
-1.76537566265e-05
-1.76540319542e-05
-1.76542688115e-05
-1.76544368516e-05
-1.76544897702e-05
-1.76544329206e-05
-1.76542610287e-05
-1.76540205724e-05
-1.76537422354e-05
-1.7653594326e-05
-1.76530905526e-05
-1.76532417528e-05
-1.76544166167e-05
-1.76541769669e-05
-1.76547451584e-05
-1.7654919685e-05
-1.76552031299e-05
-1.76554384173e-05
-1.76556037038e-05
-1.76556572326e-05
-1.76556003421e-05
-1.76554317607e-05
-1.76551933867e-05
-1.76549073621e-05
-1.76547311158e-05
-1.76541622466e-05
-1.76544019445e-05
-1.76542979634e-05
-1.76538733265e-05
-1.76543068242e-05
-1.76543546994e-05
-1.76545286995e-05
-1.76546728619e-05
-1.76547797366e-05
-1.7654814287e-05
-1.76547770161e-05
-1.76546674748e-05
-1.76545208177e-05
-1.76543447552e-05
-1.76542955397e-05
-1.76538615489e-05
-1.7654286375e-05
-1.76522340311e-05
-1.76514368926e-05
-1.7651434904e-05
-1.76511247423e-05
-1.76509933908e-05
-1.76509002581e-05
-1.76508567716e-05
-1.7650840705e-05
-1.76508546869e-05
-1.76508961397e-05
-1.76509873674e-05
-1.76511171594e-05
-1.76514263465e-05
-1.76514280559e-05
-1.76522253866e-05
-1.76478422158e-05
-1.76463667899e-05
-1.76455959743e-05
-1.76446464695e-05
-1.7643965175e-05
-1.76434495888e-05
-1.7643138903e-05
-1.76430322463e-05
-1.76431374869e-05
-1.76434467955e-05
-1.7643961092e-05
-1.76446413577e-05
-1.76455902709e-05
-1.76463610213e-05
-1.76478364186e-05
-1.76407836522e-05
-1.76382196629e-05
-1.76363307505e-05
-1.76344251482e-05
-1.76329191102e-05
-1.76317719136e-05
-1.76310623584e-05
-1.76308201053e-05
-1.7631061614e-05
-1.76317704516e-05
-1.7632916969e-05
-1.76344225015e-05
-1.76363278866e-05
-1.76382169796e-05
-1.76407806366e-05
-1.76307814522e-05
-1.76266459073e-05
-1.76232865141e-05
-1.76200961004e-05
-1.76174831268e-05
-1.76154901576e-05
-1.76142477046e-05
-1.76138241718e-05
-1.76142476474e-05
-1.76154900527e-05
-1.76174829644e-05
-1.76200959642e-05
-1.7623286545e-05
-1.76266463516e-05
-1.76307811874e-05
-1.76176351987e-05
-1.76114209392e-05
-1.7606254786e-05
-1.76014699151e-05
-1.75974882125e-05
-1.75944526063e-05
-1.75925552308e-05
-1.75919090095e-05
-1.75925558509e-05
-1.75944538359e-05
-1.75974899919e-05
-1.7601472234e-05
-1.76062576498e-05
-1.76114244472e-05
-1.7617637694e-05
-1.76012367515e-05
-1.75924716729e-05
-1.75852041025e-05
-1.75785678643e-05
-1.75730049218e-05
-1.7568769619e-05
-1.75661215566e-05
-1.75652204042e-05
-1.75661228373e-05
-1.75687721474e-05
-1.75730085889e-05
-1.75785725714e-05
-1.75852097225e-05
-1.75924781392e-05
-1.76012419677e-05
-1.75815932331e-05
-1.75698969735e-05
-1.75603029623e-05
-1.75516407864e-05
-1.75443577731e-05
-1.75388239739e-05
-1.75353672309e-05
-1.7534191985e-05
-1.75353691246e-05
-1.75388277085e-05
-1.75443631903e-05
-1.75516477107e-05
-1.75603111557e-05
-1.75699061911e-05
-1.7581601109e-05
-1.75588403663e-05
-1.75439687272e-05
-1.75319227663e-05
-1.75211637484e-05
-1.75121112021e-05
-1.75052495269e-05
-1.75009706337e-05
-1.74995175179e-05
-1.75009730689e-05
-1.75052543231e-05
-1.75121181672e-05
-1.75211726352e-05
-1.75319332529e-05
-1.75439803808e-05
-1.75588506767e-05
-1.75331633186e-05
-1.7515099257e-05
-1.75006304093e-05
-1.74878208162e-05
-1.74770432352e-05
-1.74688963285e-05
-1.74638279227e-05
-1.7462109072e-05
-1.74638307961e-05
-1.74689019869e-05
-1.74770514503e-05
-1.74878313042e-05
-1.75006427847e-05
-1.75151129284e-05
-1.75331757413e-05
-1.75046105336e-05
-1.74838341601e-05
-1.74671841093e-05
-1.7452475787e-05
-1.74401063443e-05
-1.74307913146e-05
-1.74250153689e-05
-1.74230602093e-05
-1.74250185422e-05
-1.74307975558e-05
-1.74401154289e-05
-1.74524873888e-05
-1.7467197824e-05
-1.74838492915e-05
-1.75046246178e-05
-1.74739601014e-05
-1.74511034406e-05
-1.74324475079e-05
-1.74159947665e-05
-1.74022401171e-05
-1.73919617105e-05
-1.73856228659e-05
-1.73834829064e-05
-1.73856261482e-05
-1.73919681817e-05
-1.74022495255e-05
-1.74160068165e-05
-1.74324618185e-05
-1.74511192952e-05
-1.74739753752e-05
-1.74465744449e-05
-1.74184068861e-05
-1.73974317901e-05
-1.73791266412e-05
-1.73641485443e-05
-1.73531093458e-05
-1.73463543547e-05
-1.73440821529e-05
-1.73463575499e-05
-1.73531156447e-05
-1.73641577302e-05
-1.73791384166e-05
-1.73974457819e-05
-1.74184225626e-05
-1.74465902169e-05
-2.14917153621e-05
-2.14906977408e-05
-2.14893344112e-05
-2.14880972141e-05
-2.14869918347e-05
-2.14861395599e-05
-2.148559926e-05
-2.14854137582e-05
-2.14855970591e-05
-2.1486135106e-05
-2.14869851384e-05
-2.14880885386e-05
-2.14893245559e-05
-2.14906880486e-05
-2.14917072566e-05
-2.14870894843e-05
-2.14861783364e-05
-2.14848968154e-05
-2.14837520398e-05
-2.14827287774e-05
-2.14819411699e-05
-2.14814421315e-05
-2.14812706603e-05
-2.14814398388e-05
-2.14819365425e-05
-2.14827218371e-05
-2.14837430592e-05
-2.14848865668e-05
-2.14861681934e-05
-2.14870807724e-05
-2.14856288952e-05
-2.14851563208e-05
-2.14842413541e-05
-2.14834453809e-05
-2.14827105614e-05
-2.14821400453e-05
-2.14817752891e-05
-2.14816491863e-05
-2.14817729695e-05
-2.14821353876e-05
-2.14827036226e-05
-2.14834364533e-05
-2.14842311413e-05
-2.14851461402e-05
-2.14856198425e-05
-2.14876030212e-05
-2.14877064769e-05
-2.14872561722e-05
-2.14868762008e-05
-2.14864725218e-05
-2.14861422074e-05
-2.14859224132e-05
-2.14858446757e-05
-2.14859201914e-05
-2.14861377475e-05
-2.14864658955e-05
-2.14868676938e-05
-2.14872464164e-05
-2.14876967038e-05
-2.14875941223e-05
-2.14911528419e-05
-2.14916807195e-05
-2.14915422279e-05
-2.14914132557e-05
-2.14911913986e-05
-2.14909811939e-05
-2.14908288752e-05
-2.14907727256e-05
-2.14908268437e-05
-2.14909771214e-05
-2.14911853726e-05
-2.14914055406e-05
-2.14915333762e-05
-2.14916718239e-05
-2.14911445348e-05
-2.14947969438e-05
-2.14954364122e-05
-2.14953425741e-05
-2.14952074343e-05
-2.14949513264e-05
-2.14946974758e-05
-2.14945109031e-05
-2.14944418606e-05
-2.14945091164e-05
-2.14946938992e-05
-2.14949460451e-05
-2.14952006917e-05
-2.14953348438e-05
-2.14954286772e-05
-2.14947895954e-05
-2.14976270523e-05
-2.14980363285e-05
-2.14977279415e-05
-2.14973524053e-05
-2.14968750662e-05
-2.14964415673e-05
-2.1496138567e-05
-2.14960291989e-05
-2.14961370598e-05
-2.14964385578e-05
-2.14968706437e-05
-2.14973467902e-05
-2.14977215297e-05
-2.14980299753e-05
-2.14976209111e-05
-2.14991723408e-05
-2.14990626451e-05
-2.14983462989e-05
-2.14975665028e-05
-2.14967437458e-05
-2.1496044092e-05
-2.14955739539e-05
-2.14954076176e-05
-2.14955727336e-05
-2.14960416607e-05
-2.1496740193e-05
-2.14975620252e-05
-2.14983412407e-05
-2.14990577399e-05
-2.14991675945e-05
-2.14992822711e-05
-2.14984501574e-05
-2.14972062963e-05
-2.14959298433e-05
-2.14946961694e-05
-2.14936875595e-05
-2.14930263766e-05
-2.14927954526e-05
-2.14930254431e-05
-2.14936857068e-05
-2.14946934863e-05
-2.14959265071e-05
-2.14972025973e-05
-2.14984467162e-05
-2.14992789578e-05
-2.14980087301e-05
-2.14963368347e-05
-2.14945055683e-05
-2.14926947854e-05
-2.14910275409e-05
-2.14896981709e-05
-2.14888407356e-05
-2.14885438429e-05
-2.14888400742e-05
-2.14896968654e-05
-2.14910256754e-05
-2.1492692521e-05
-2.14945031565e-05
-2.14963347944e-05
-2.1498006876e-05
-2.14955067186e-05
-2.14929511269e-05
-2.14905147443e-05
-2.14881690346e-05
-2.14860744767e-05
-2.14844335856e-05
-2.14833874765e-05
-2.14830275281e-05
-2.14833870698e-05
-2.14844327887e-05
-2.14860733716e-05
-2.14881677595e-05
-2.14905135164e-05
-2.14929503752e-05
-2.14955062191e-05
-2.14919803279e-05
-2.14885519496e-05
-2.14855185803e-05
-2.14826602325e-05
-2.14801643328e-05
-2.14782363689e-05
-2.1477018755e-05
-2.14766019158e-05
-2.14770185755e-05
-2.14782360264e-05
-2.14801638968e-05
-2.14826598292e-05
-2.14855183939e-05
-2.14885523302e-05
-2.14919810783e-05
-2.14876753478e-05
-2.14833986811e-05
-2.1479782706e-05
-2.14764486121e-05
-2.14735941224e-05
-2.14714175439e-05
-2.14700545195e-05
-2.14695900345e-05
-2.14700545318e-05
-2.14714175809e-05
-2.14735942538e-05
-2.14764489388e-05
-2.14797833796e-05
-2.14833999905e-05
-2.14876771128e-05
-2.14827396143e-05
-2.14776192729e-05
-2.14734799826e-05
-2.14697437528e-05
-2.14666105172e-05
-2.14642513865e-05
-2.14627856846e-05
-2.14622882621e-05
-2.14627858435e-05
-2.14642517171e-05
-2.14666110728e-05
-2.1469744631e-05
-2.14734813243e-05
-2.1477621287e-05
-2.14827421689e-05
-2.14764427098e-05
-2.1471235359e-05
-2.14667346119e-05
-2.14627507132e-05
-2.14594843982e-05
-2.14570538322e-05
-2.14555543003e-05
-2.1455047284e-05
-2.14555545575e-05
-2.14570543713e-05
-2.14594852667e-05
-2.14627519999e-05
-2.14667363968e-05
-2.14712378221e-05
-2.14764457589e-05
-1.68132047033e-05
-1.68138223944e-05
-1.68144995057e-05
-1.68151776783e-05
-1.68157813337e-05
-1.68162530913e-05
-1.68165526515e-05
-1.68166548812e-05
-1.68165497574e-05
-1.68162474785e-05
-1.68157733622e-05
-1.6815167797e-05
-1.68144880048e-05
-1.68138098716e-05
-1.68131915939e-05
-1.68138365233e-05
-1.68144413364e-05
-1.68151186282e-05
-1.68157989741e-05
-1.68164070123e-05
-1.68168835156e-05
-1.68171867808e-05
-1.68172905225e-05
-1.68171839138e-05
-1.68168779469e-05
-1.68163990821e-05
-1.68157891112e-05
-1.68151071625e-05
-1.68144288293e-05
-1.68138234493e-05
-1.6813669924e-05
-1.68142082107e-05
-1.68148294984e-05
-1.68154642001e-05
-1.68160378161e-05
-1.68164904924e-05
-1.68167798984e-05
-1.68168791633e-05
-1.68167771101e-05
-1.68164850702e-05
-1.68160300737e-05
-1.68154545476e-05
-1.68148182993e-05
-1.6814195952e-05
-1.68136570369e-05
-1.68133645912e-05
-1.68138535388e-05
-1.68144304658e-05
-1.68150280765e-05
-1.68155740746e-05
-1.68160079552e-05
-1.68162865811e-05
-1.68163823705e-05
-1.68162838851e-05
-1.68160027108e-05
-1.68155665628e-05
-1.68150186758e-05
-1.68144195482e-05
-1.68138415702e-05
-1.68133519513e-05
-1.68131330727e-05
-1.68135980389e-05
-1.68141511018e-05
-1.68147281835e-05
-1.68152595606e-05
-1.68156840447e-05
-1.68159576019e-05
-1.6816051841e-05
-1.68159550251e-05
-1.68156790275e-05
-1.68152523586e-05
-1.68147191452e-05
-1.68141405875e-05
-1.6813586468e-05
-1.68131207558e-05
-1.68129746256e-05
-1.68134354041e-05
-1.68139796795e-05
-1.68145485753e-05
-1.68150746663e-05
-1.68154962687e-05
-1.68157685958e-05
-1.68158625463e-05
-1.68157661462e-05
-1.68154914945e-05
-1.68150677935e-05
-1.68145399203e-05
-1.68139695795e-05
-1.68134242415e-05
-1.68129626936e-05
-1.68128830847e-05
-1.68133563416e-05
-1.68139035684e-05
-1.6814473932e-05
-1.68150017222e-05
-1.68154250996e-05
-1.68156988123e-05
-1.68157933079e-05
-1.68156965035e-05
-1.68154205963e-05
-1.68149952257e-05
-1.68144657261e-05
-1.68138939628e-05
-1.68133456583e-05
-1.68128715751e-05
-1.68128612461e-05
-1.68133612366e-05
-1.68139206565e-05
-1.68144997771e-05
-1.68150341427e-05
-1.68154622609e-05
-1.68157388707e-05
-1.68158343581e-05
-1.68157367046e-05
-1.68154580317e-05
-1.68150280275e-05
-1.68144920236e-05
-1.68139115448e-05
-1.68133510457e-05
-1.6812850196e-05
-1.6812907564e-05
-1.68134451753e-05
-1.68140231338e-05
-1.68146154566e-05
-1.68151587756e-05
-1.68155926111e-05
-1.68158723474e-05
-1.68159688298e-05
-1.68158703272e-05
-1.68155886624e-05
-1.68151530537e-05
-1.68146081767e-05
-1.68140145391e-05
-1.6813435503e-05
-1.68128969802e-05
-1.68130146581e-05
-1.68135968994e-05
-1.68141967458e-05
-1.68148037076e-05
-1.6815355705e-05
-1.68157941357e-05
-1.6816075886e-05
-1.68161729014e-05
-1.68160740081e-05
-1.68157904615e-05
-1.68153503672e-05
-1.68147968913e-05
-1.68141886611e-05
-1.68135877465e-05
-1.6813004571e-05
-1.68131720408e-05
-1.68138018336e-05
-1.6814424212e-05
-1.68150445376e-05
-1.68156024845e-05
-1.68160424286e-05
-1.68163238196e-05
-1.68164204766e-05
-1.68163220802e-05
-1.68160390202e-05
-1.68155975223e-05
-1.68150381763e-05
-1.68144166332e-05
-1.68137931992e-05
-1.68131624411e-05
-1.68133655588e-05
-1.68140431415e-05
-1.68146874811e-05
-1.6815318266e-05
-1.68158776429e-05
-1.68163144786e-05
-1.6816592144e-05
-1.6816687202e-05
-1.68165905366e-05
-1.68163113249e-05
-1.68158730369e-05
-1.68153123424e-05
-1.68146803913e-05
-1.68140350225e-05
-1.68133564566e-05
-1.68135688887e-05
-1.68142983188e-05
-1.68149671381e-05
-1.68156062897e-05
-1.68161624584e-05
-1.68165913031e-05
-1.68168616613e-05
-1.6816953824e-05
-1.6816860177e-05
-1.68165883825e-05
-1.68161581903e-05
-1.68156007763e-05
-1.68149605132e-05
-1.68142906915e-05
-1.68135602565e-05
-1.6813772278e-05
-1.68145653998e-05
-1.68152561183e-05
-1.68158983367e-05
-1.68164437539e-05
-1.68168579797e-05
-1.68171166898e-05
-1.68172044072e-05
-1.68171153151e-05
-1.68168552798e-05
-1.68164397893e-05
-1.68158932096e-05
-1.68152499358e-05
-1.6814558251e-05
-1.68137641161e-05
-1.68142960443e-05
-1.68150013569e-05
-1.68156566512e-05
-1.68162483939e-05
-1.68167384537e-05
-1.68171057013e-05
-1.68173331818e-05
-1.68174099365e-05
-1.68173319097e-05
-1.68171031965e-05
-1.68167347803e-05
-1.68162436281e-05
-1.68156508831e-05
-1.68149946701e-05
-1.68142883683e-05
-1.85750925063e-05
-1.85746834813e-05
-1.85742407432e-05
-1.85737921885e-05
-1.85733935085e-05
-1.8573081613e-05
-1.85728835063e-05
-1.85728157378e-05
-1.85728850342e-05
-1.85730843982e-05
-1.85733970363e-05
-1.85737957311e-05
-1.85742436942e-05
-1.85746854556e-05
-1.85750938091e-05
-1.85748917368e-05
-1.85744964025e-05
-1.85740585857e-05
-1.85736125993e-05
-1.8573214238e-05
-1.85729015221e-05
-1.85727023631e-05
-1.85726340536e-05
-1.85727038434e-05
-1.85729042186e-05
-1.85732176514e-05
-1.8573616036e-05
-1.85740614358e-05
-1.85744983283e-05
-1.85748929813e-05
-1.85752179679e-05
-1.85748710248e-05
-1.85744759363e-05
-1.85740646642e-05
-1.85736930225e-05
-1.85733989889e-05
-1.85732108053e-05
-1.85731460501e-05
-1.85732121851e-05
-1.85734015079e-05
-1.85736962279e-05
-1.85740679395e-05
-1.85744787016e-05
-1.85748729743e-05
-1.85752192117e-05
-1.85755658258e-05
-1.85752537862e-05
-1.85748923956e-05
-1.85745094013e-05
-1.85741596097e-05
-1.85738808479e-05
-1.85737016262e-05
-1.85736397862e-05
-1.85737028928e-05
-1.8573883161e-05
-1.85741625581e-05
-1.85745124384e-05
-1.85748949993e-05
-1.85752556739e-05
-1.85755670655e-05
-1.85758294071e-05
-1.85755371572e-05
-1.85751972004e-05
-1.85748332221e-05
-1.85744982649e-05
-1.85742298908e-05
-1.85740567279e-05
-1.85739968432e-05
-1.85740578674e-05
-1.85742319758e-05
-1.85745009402e-05
-1.85748360141e-05
-1.85751996543e-05
-1.85755389985e-05
-1.85758306368e-05
-1.85760391311e-05
-1.85757574238e-05
-1.85754313682e-05
-1.85750807939e-05
-1.85747566421e-05
-1.85744960143e-05
-1.85743274287e-05
-1.85742690291e-05
-1.85743284441e-05
-1.85744978739e-05
-1.85747590317e-05
-1.85750833063e-05
-1.85754336067e-05
-1.8575759166e-05
-1.85760403219e-05
-1.85762130131e-05
-1.85759349888e-05
-1.85756173244e-05
-1.85752761739e-05
-1.85749601222e-05
-1.85747055952e-05
-1.85745407282e-05
-1.85744835564e-05
-1.85745416179e-05
-1.857470723e-05
-1.85749622364e-05
-1.85752784279e-05
-1.85756193797e-05
-1.85759366555e-05
-1.85762141782e-05
-1.85763560454e-05
-1.85760762313e-05
-1.85757625674e-05
-1.85754277736e-05
-1.85751178782e-05
-1.8574868396e-05
-1.85747067784e-05
-1.85746507173e-05
-1.85747075516e-05
-1.85748698192e-05
-1.85751197261e-05
-1.85754297622e-05
-1.8575764419e-05
-1.85760777942e-05
-1.85763571929e-05
-1.85764726106e-05
-1.85761868507e-05
-1.85758739734e-05
-1.85755435195e-05
-1.85752387529e-05
-1.85749939632e-05
-1.8574835572e-05
-1.85747806569e-05
-1.8574836239e-05
-1.85749951954e-05
-1.85752403669e-05
-1.85755452828e-05
-1.85758756589e-05
-1.85761883359e-05
-1.85764737346e-05
-1.85765680796e-05
-1.85762735894e-05
-1.8575959423e-05
-1.8575632308e-05
-1.85753325304e-05
-1.857509277e-05
-1.85749380284e-05
-1.85748844478e-05
-1.85749386003e-05
-1.85750938318e-05
-1.85753339299e-05
-1.85756338605e-05
-1.8575960948e-05
-1.8576274999e-05
-1.85765691996e-05
-1.85766476707e-05
-1.85763426824e-05
-1.8576026083e-05
-1.85757022015e-05
-1.85754081183e-05
-1.8575174416e-05
-1.85750241863e-05
-1.85749722828e-05
-1.85750246778e-05
-1.85751753323e-05
-1.85754093401e-05
-1.85757035774e-05
-1.85760274755e-05
-1.85763440216e-05
-1.85766487721e-05
-1.85767166278e-05
-1.85763997456e-05
-1.85760799295e-05
-1.85757596388e-05
-1.85754725618e-05
-1.85752464676e-05
-1.85751019775e-05
-1.8575052214e-05
-1.85751023995e-05
-1.85752472629e-05
-1.85754736241e-05
-1.85757608623e-05
-1.85760812035e-05
-1.85764010275e-05
-1.85767177212e-05
-1.85767856746e-05
-1.85764535181e-05
-1.85761279312e-05
-1.85758105929e-05
-1.85755313113e-05
-1.85753141571e-05
-1.85751764826e-05
-1.85751292925e-05
-1.85751768495e-05
-1.85753148382e-05
-1.85755322481e-05
-1.85758116766e-05
-1.85761291017e-05
-1.85764547375e-05
-1.85767867409e-05
-1.85768604769e-05
-1.85765056862e-05
-1.85761727609e-05
-1.85758582051e-05
-1.85755880628e-05
-1.85753813067e-05
-1.85752515613e-05
-1.85752073293e-05
-1.85752518724e-05
-1.85753819057e-05
-1.85755888725e-05
-1.85758591792e-05
-1.85761738377e-05
-1.85765068602e-05
-1.85768615112e-05
-1.85767627665e-05
-1.85764390593e-05
-1.85761332236e-05
-1.85758536563e-05
-1.85756192089e-05
-1.85754422053e-05
-1.85753320249e-05
-1.85752946581e-05
-1.85753323008e-05
-1.85754427255e-05
-1.85756199374e-05
-1.85758545404e-05
-1.85761342339e-05
-1.85764401917e-05
-1.85767638217e-05
-1.59615674063e-05
-1.59618401677e-05
-1.59621357576e-05
-1.59624361351e-05
-1.59627033947e-05
-1.59629127266e-05
-1.59630457333e-05
-1.59630912821e-05
-1.59630448244e-05
-1.59629109938e-05
-1.59627009721e-05
-1.59624330672e-05
-1.59621319937e-05
-1.59618358595e-05
-1.59615624988e-05
-1.59616784198e-05
-1.59619419004e-05
-1.59622342827e-05
-1.59625331657e-05
-1.5962800491e-05
-1.59630106125e-05
-1.5963144484e-05
-1.59631904432e-05
-1.5963143582e-05
-1.5963008889e-05
-1.59627980719e-05
-1.59625300933e-05
-1.59622305095e-05
-1.59619375664e-05
-1.59616735046e-05
-1.5961437283e-05
-1.59616684028e-05
-1.59619324547e-05
-1.59622085772e-05
-1.59624584402e-05
-1.5962656361e-05
-1.59627830731e-05
-1.59628267053e-05
-1.59627822029e-05
-1.59626546859e-05
-1.59624560686e-05
-1.59622055739e-05
-1.59619288128e-05
-1.59616642088e-05
-1.59614325071e-05
-1.59611886177e-05
-1.5961396497e-05
-1.5961638235e-05
-1.59618957624e-05
-1.59621312434e-05
-1.59623190957e-05
-1.59624398948e-05
-1.59624815914e-05
-1.59624390646e-05
-1.59623174901e-05
-1.59621289515e-05
-1.59618928492e-05
-1.59616347128e-05
-1.5961392452e-05
-1.59611839962e-05
-1.59609991899e-05
-1.59611932473e-05
-1.59614202609e-05
-1.59616647534e-05
-1.59618899515e-05
-1.59620705142e-05
-1.59621870137e-05
-1.59622273025e-05
-1.59621862299e-05
-1.59620689908e-05
-1.59618877668e-05
-1.59616619799e-05
-1.59614169293e-05
-1.59611894281e-05
-1.59609947761e-05
-1.59608446623e-05
-1.59610299682e-05
-1.59612462679e-05
-1.59614804052e-05
-1.59616970789e-05
-1.5961871393e-05
-1.59619841325e-05
-1.59620231729e-05
-1.59619833973e-05
-1.59618699605e-05
-1.59616950141e-05
-1.5961477776e-05
-1.59612431085e-05
-1.59610263449e-05
-1.59608404699e-05
-1.59607099514e-05
-1.59608895295e-05
-1.59610975364e-05
-1.59613227885e-05
-1.59615317196e-05
-1.5961700095e-05
-1.59618091481e-05
-1.59618469411e-05
-1.59618084642e-05
-1.59616987599e-05
-1.59615297897e-05
-1.59613203301e-05
-1.59610945895e-05
-1.59608861397e-05
-1.59607059922e-05
-1.59605893416e-05
-1.59607652219e-05
-1.59609665545e-05
-1.59611837312e-05
-1.59613851762e-05
-1.59615475431e-05
-1.5961652747e-05
-1.59616892133e-05
-1.59616521147e-05
-1.59615463067e-05
-1.59613833826e-05
-1.59611814367e-05
-1.59609637987e-05
-1.59607620458e-05
-1.59605856137e-05
-1.59604782267e-05
-1.59606515425e-05
-1.59608471501e-05
-1.59610565464e-05
-1.59612503405e-05
-1.59614063102e-05
-1.59615072988e-05
-1.59615422891e-05
-1.59615067162e-05
-1.59614051687e-05
-1.59612486812e-05
-1.59610544179e-05
-1.5960844589e-05
-1.59606485853e-05
-1.59604747209e-05
-1.59603720426e-05
-1.59605433756e-05
-1.59607337093e-05
-1.59609352182e-05
-1.59611208483e-05
-1.59612697661e-05
-1.59613660105e-05
-1.59613993168e-05
-1.5961365474e-05
-1.59612687138e-05
-1.59611193124e-05
-1.59609332408e-05
-1.59607313223e-05
-1.59605406154e-05
-1.59603687611e-05
-1.59602671816e-05
-1.59604368149e-05
-1.5960622051e-05
-1.59608153262e-05
-1.5960992023e-05
-1.5961133026e-05
-1.59612238521e-05
-1.59612552213e-05
-1.59612233558e-05
-1.59611320503e-05
-1.59609905973e-05
-1.59608134838e-05
-1.59606198255e-05
-1.59604342373e-05
-1.59602641054e-05
-1.59601606832e-05
-1.59603292429e-05
-1.59605097107e-05
-1.59606944197e-05
-1.59608613151e-05
-1.59609934009e-05
-1.59610780495e-05
-1.59611071865e-05
-1.59610775859e-05
-1.59609924887e-05
-1.59608599755e-05
-1.5960692692e-05
-1.59605076216e-05
-1.59603268312e-05
-1.59601578023e-05
-1.59600467116e-05
-1.59602165735e-05
-1.59603940599e-05
-1.59605708584e-05
-1.59607276813e-05
-1.59608502744e-05
-1.59609281993e-05
-1.59609549088e-05
-1.59609277587e-05
-1.59608494006e-05
-1.59607264109e-05
-1.59605692073e-05
-1.5960392079e-05
-1.59602142952e-05
-1.5960043999e-05
-1.59599218682e-05
-1.59600982676e-05
-1.59602746684e-05
-1.59604444287e-05
-1.59605911823e-05
-1.59607039727e-05
-1.59607749525e-05
-1.59607991012e-05
-1.59607745184e-05
-1.59607031271e-05
-1.59605899358e-05
-1.5960442836e-05
-1.59602727503e-05
-1.59600960892e-05
-1.59599192853e-05
-1.59598993834e-05
-1.5960054048e-05
-1.59602081261e-05
-1.59603507936e-05
-1.59604711356e-05
-1.59605624229e-05
-1.59606193848e-05
-1.59606386547e-05
-1.59606189523e-05
-1.59605615706e-05
-1.59604699007e-05
-1.59603492019e-05
-1.59602062411e-05
-1.59600519184e-05
-1.59598969075e-05
-1.62803362333e-05
-1.62801530614e-05
-1.62799553817e-05
-1.62797551225e-05
-1.62795773697e-05
-1.62794384351e-05
-1.6279350333e-05
-1.62793202784e-05
-1.62793511741e-05
-1.62794398931e-05
-1.62795790336e-05
-1.62797565231e-05
-1.62799561071e-05
-1.62801527876e-05
-1.62803351403e-05
-1.6280257463e-05
-1.62800803761e-05
-1.6279884825e-05
-1.62796855786e-05
-1.6279507828e-05
-1.62793684252e-05
-1.62792797849e-05
-1.62792494645e-05
-1.62792805962e-05
-1.62793698315e-05
-1.62795094351e-05
-1.62796869201e-05
-1.62798854895e-05
-1.62800800784e-05
-1.62802563388e-05
-1.62804133796e-05
-1.62802577699e-05
-1.62800811996e-05
-1.62798972847e-05
-1.62797312953e-05
-1.62796000849e-05
-1.62795162341e-05
-1.62794874457e-05
-1.6279516953e-05
-1.62796013287e-05
-1.62797327142e-05
-1.62798984685e-05
-1.6280081773e-05
-1.62802574833e-05
-1.62804122596e-05
-1.6280574003e-05
-1.62804338274e-05
-1.62802721452e-05
-1.62801006843e-05
-1.62799443128e-05
-1.62798198208e-05
-1.62797398995e-05
-1.62797123727e-05
-1.62797405217e-05
-1.62798208917e-05
-1.62799455208e-05
-1.62801016645e-05
-1.62802725648e-05
-1.62804334733e-05
-1.62805728886e-05
-1.62806949213e-05
-1.62805638983e-05
-1.62804120389e-05
-1.628024936e-05
-1.62800998955e-05
-1.6279980272e-05
-1.62799031938e-05
-1.62798765674e-05
-1.62799037024e-05
-1.627998114e-05
-1.62801008616e-05
-1.62802501194e-05
-1.62804123125e-05
-1.62805634934e-05
-1.62806938047e-05
-1.62807930181e-05
-1.62806679674e-05
-1.62805233259e-05
-1.6280367674e-05
-1.62802239778e-05
-1.62801085677e-05
-1.62800340082e-05
-1.62800081922e-05
-1.62800344144e-05
-1.62801092507e-05
-1.62802247125e-05
-1.62803682011e-05
-1.62805234099e-05
-1.62806674695e-05
-1.62807918751e-05
-1.62808788554e-05
-1.62807579283e-05
-1.62806189977e-05
-1.62804695266e-05
-1.62803311825e-05
-1.62802198514e-05
-1.62801478004e-05
-1.62801228055e-05
-1.62801481014e-05
-1.62802203474e-05
-1.62803316906e-05
-1.62804698393e-05
-1.6280618927e-05
-1.62807573652e-05
-1.62808777016e-05
-1.6280956547e-05
-1.6280838618e-05
-1.6280704416e-05
-1.62805606456e-05
-1.62804275287e-05
-1.62803203618e-05
-1.62802509576e-05
-1.62802268521e-05
-1.62802511675e-05
-1.62803206943e-05
-1.62804278325e-05
-1.62805607534e-05
-1.62807041814e-05
-1.62808379709e-05
-1.62809553908e-05
-1.62810292804e-05
-1.62809136823e-05
-1.62807836416e-05
-1.62806454283e-05
-1.628051769e-05
-1.62804149723e-05
-1.62803484696e-05
-1.62803253598e-05
-1.62803485989e-05
-1.6280415161e-05
-1.62805178216e-05
-1.62806453726e-05
-1.62807832866e-05
-1.62809129855e-05
-1.62810281202e-05
-1.62811000007e-05
-1.62809864493e-05
-1.62808602963e-05
-1.6280727707e-05
-1.62806056748e-05
-1.62805078194e-05
-1.62804445624e-05
-1.62804225849e-05
-1.62804446234e-05
-1.62805078881e-05
-1.62806056571e-05
-1.62807275076e-05
-1.62808598334e-05
-1.62809857075e-05
-1.62810988573e-05
-1.62811710032e-05
-1.62810592745e-05
-1.62809368758e-05
-1.62808101139e-05
-1.62806942549e-05
-1.62806018048e-05
-1.62805422113e-05
-1.62805215314e-05
-1.62805422179e-05
-1.62806017766e-05
-1.62806941243e-05
-1.62808098051e-05
-1.62809363378e-05
-1.62810585023e-05
-1.62811698672e-05
-1.62812440545e-05
-1.62811336613e-05
-1.62810147793e-05
-1.62808939924e-05
-1.62807848229e-05
-1.62806983546e-05
-1.62806428926e-05
-1.62806236828e-05
-1.62806428528e-05
-1.62806982511e-05
-1.62807845905e-05
-1.62808935974e-05
-1.62810141806e-05
-1.62811328747e-05
-1.62812429379e-05
-1.62813229087e-05
-1.62812121449e-05
-1.62810955259e-05
-1.6280980203e-05
-1.62808777341e-05
-1.62807975645e-05
-1.62807464906e-05
-1.62807288809e-05
-1.62807464189e-05
-1.62807973843e-05
-1.6280877435e-05
-1.62809797232e-05
-1.62810948828e-05
-1.6281211346e-05
-1.6281321803e-05
-1.62814087662e-05
-1.62812940139e-05
-1.62811787218e-05
-1.6281068298e-05
-1.62809725828e-05
-1.62808988138e-05
-1.62808523123e-05
-1.6280836344e-05
-1.62808522039e-05
-1.6280898595e-05
-1.62809722038e-05
-1.62810677764e-05
-1.62811780375e-05
-1.62812932247e-05
-1.62814076668e-05
-1.62814195142e-05
-1.62813228499e-05
-1.62812246062e-05
-1.62811335305e-05
-1.62810561117e-05
-1.62809971587e-05
-1.62809602294e-05
-1.62809476007e-05
-1.62809601094e-05
-1.62809968999e-05
-1.62810557109e-05
-1.62811329724e-05
-1.62812239253e-05
-1.62813220707e-05
-1.62814184918e-05
-1.46354059763e-05
-1.46355279035e-05
-1.46356593028e-05
-1.46357924195e-05
-1.46359104721e-05
-1.46360027502e-05
-1.46360612479e-05
-1.46360810636e-05
-1.46360601567e-05
-1.46360005493e-05
-1.46359071684e-05
-1.46357881483e-05
-1.4635654399e-05
-1.46355229844e-05
-1.46354012986e-05
-1.4635447946e-05
-1.46355654107e-05
-1.46356950487e-05
-1.46358272479e-05
-1.46359451254e-05
-1.46360375996e-05
-1.46360963826e-05
-1.46361163476e-05
-1.46360953073e-05
-1.46360354344e-05
-1.46359418818e-05
-1.46358230628e-05
-1.46356902458e-05
-1.46355605479e-05
-1.46354432943e-05
-1.46353324505e-05
-1.46354351885e-05
-1.46355518497e-05
-1.46356736513e-05
-1.46357835678e-05
-1.46358704958e-05
-1.46359260202e-05
-1.46359449308e-05
-1.46359249884e-05
-1.46358684255e-05
-1.46357804807e-05
-1.46356696753e-05
-1.46355472796e-05
-1.46354305125e-05
-1.46353279472e-05
-1.46352153367e-05
-1.4635307504e-05
-1.463541398e-05
-1.46355273697e-05
-1.46356308064e-05
-1.46357132102e-05
-1.46357660772e-05
-1.46357841266e-05
-1.46357650991e-05
-1.4635711254e-05
-1.46356279027e-05
-1.46355236413e-05
-1.4635409687e-05
-1.46353030728e-05
-1.46352110009e-05
-1.4635125846e-05
-1.46352116836e-05
-1.46353113993e-05
-1.46354188813e-05
-1.46355176899e-05
-1.46355968314e-05
-1.4635647783e-05
-1.46356652188e-05
-1.46356468756e-05
-1.46355950234e-05
-1.46355150159e-05
-1.46354154541e-05
-1.46353074374e-05
-1.46352075636e-05
-1.46351217368e-05
-1.46350524958e-05
-1.46351342105e-05
-1.46352289086e-05
-1.46353316591e-05
-1.46354265958e-05
-1.46355029108e-05
-1.46355521667e-05
-1.46355690548e-05
-1.46355513326e-05
-1.4635501254e-05
-1.46354241554e-05
-1.46353285379e-05
-1.46352252908e-05
-1.46351304034e-05
-1.46350486387e-05
-1.46349881116e-05
-1.46350669301e-05
-1.46351576136e-05
-1.46352561997e-05
-1.46353475356e-05
-1.4635421105e-05
-1.46354686663e-05
-1.46354849993e-05
-1.46354679128e-05
-1.46354196114e-05
-1.46353453408e-05
-1.46352533915e-05
-1.46351543442e-05
-1.46350634509e-05
-1.46349845022e-05
-1.46349297921e-05
-1.46350064566e-05
-1.46350937403e-05
-1.46351884287e-05
-1.46352761992e-05
-1.46353469264e-05
-1.46353926788e-05
-1.46354084064e-05
-1.46353920034e-05
-1.46353455901e-05
-1.46352742397e-05
-1.46351859206e-05
-1.46350908036e-05
-1.46350032893e-05
-1.4634926424e-05
-1.46348752001e-05
-1.46349500562e-05
-1.46350342614e-05
-1.46351250839e-05
-1.46352091287e-05
-1.46352767736e-05
-1.46353205154e-05
-1.46353355568e-05
-1.46353199142e-05
-1.46352755855e-05
-1.46352073852e-05
-1.46351228459e-05
-1.46350316219e-05
-1.46349471731e-05
-1.46348720455e-05
-1.46348221086e-05
-1.46348952539e-05
-1.46349764918e-05
-1.46350633254e-05
-1.46351433539e-05
-1.46352075808e-05
-1.46352490446e-05
-1.4635263297e-05
-1.4635248511e-05
-1.46352065251e-05
-1.46351418045e-05
-1.46350613275e-05
-1.4634974115e-05
-1.46348926164e-05
-1.46348191477e-05
-1.46347687829e-05
-1.46348402254e-05
-1.46349185323e-05
-1.46350011784e-05
-1.46350768137e-05
-1.46351372046e-05
-1.46351760745e-05
-1.4635189414e-05
-1.46351755967e-05
-1.46351362598e-05
-1.46350754218e-05
-1.46349993762e-05
-1.46349163703e-05
-1.4634837797e-05
-1.46347659825e-05
-1.46347139079e-05
-1.46347838554e-05
-1.46348593612e-05
-1.46349376613e-05
-1.46350084986e-05
-1.46350646069e-05
-1.4635100531e-05
-1.46351128266e-05
-1.46351000973e-05
-1.46350637447e-05
-1.46350072317e-05
-1.46349360102e-05
-1.46348573673e-05
-1.46347815929e-05
-1.46347112516e-05
-1.46346549893e-05
-1.46347244631e-05
-1.46347979843e-05
-1.46348722405e-05
-1.46349381803e-05
-1.46349897313e-05
-1.46350224869e-05
-1.46350336346e-05
-1.46350220801e-05
-1.46349889329e-05
-1.46349369928e-05
-1.46348706943e-05
-1.46347961079e-05
-1.46347223259e-05
-1.46346524525e-05
-1.46345898906e-05
-1.46346611856e-05
-1.46347339282e-05
-1.4634804765e-05
-1.46348659434e-05