/*--------------------------------*- C++ -*----------------------------------*\
  =========                 |
  \\      /  F ield         | OpenFOAM: The Open Source CFD Toolbox
   \\    /   O peration     | Website:  https://openfoam.org
    \\  /    A nd           | Version:  7
     \\/     M anipulation  |
\*---------------------------------------------------------------------------*/
FoamFile
{
    version     2.0;
    format      ascii;
    class       volScalarField;
    location    "0.12";
    object      p;
}
// * * * * * * * * * * * * * * * * * * * * * * * * * * * * * * * * * * * * * //

dimensions      [0 2 -2 0 0 0 0];

internalField   nonuniform List<scalar> 
22500
(
-3.03296149987e-05
-3.03307779503e-05
-3.03313397737e-05
-3.03321875158e-05
-3.03333263981e-05
-3.03344099341e-05
-3.03351624071e-05
-3.03354260334e-05
-3.03351766668e-05
-3.03344381603e-05
-3.03333681963e-05
-3.03322439386e-05
-3.03314133812e-05
-3.03308735112e-05
-3.03297354289e-05
-3.03560769367e-05
-3.03584159969e-05
-3.03601890496e-05
-3.03620076377e-05
-3.03638858018e-05
-3.03655005582e-05
-3.03665774781e-05
-3.03669547431e-05
-3.03665961986e-05
-3.03655376016e-05
-3.0363940596e-05
-3.03620808854e-05
-3.03602826698e-05
-3.0358533981e-05
-3.03562230107e-05
-3.03804277808e-05
-3.03839321588e-05
-3.03866086967e-05
-3.03892601357e-05
-3.03917729569e-05
-3.03938397822e-05
-3.03951905722e-05
-3.03956632881e-05
-3.03952140731e-05
-3.03938863167e-05
-3.03918417999e-05
-3.03893516784e-05
-3.03867240618e-05
-3.0384074314e-05
-3.03805988217e-05
-3.03999388584e-05
-3.04041644563e-05
-3.04071138007e-05
-3.04100908768e-05
-3.04128029369e-05
-3.04149798584e-05
-3.04163840654e-05
-3.04168753262e-05
-3.04164121236e-05
-3.04150354947e-05
-3.041288521e-05
-3.04101997943e-05
-3.04072496027e-05
-3.04043295379e-05
-3.04001311482e-05
-3.04143632095e-05
-3.04183623537e-05
-3.04207128835e-05
-3.04231669343e-05
-3.0425335051e-05
-3.04270370423e-05
-3.04281199593e-05
-3.04285002308e-05
-3.04281523977e-05
-3.04271015964e-05
-3.04254305962e-05
-3.04232930686e-05
-3.04208688669e-05
-3.04185500602e-05
-3.04145746312e-05
-3.04220888469e-05
-3.04243579628e-05
-3.04249563772e-05
-3.04257207134e-05
-3.0426342764e-05
-3.04267944419e-05
-3.04270662799e-05
-3.04271677687e-05
-3.04271032704e-05
-3.04268681163e-05
-3.04264517222e-05
-3.04258640338e-05
-3.04251322852e-05
-3.04245678936e-05
-3.04223188503e-05
-3.04211385144e-05
-3.04197894135e-05
-3.04173046021e-05
-3.0415059021e-05
-3.04130244171e-05
-3.04113820586e-05
-3.04103163751e-05
-3.04099599816e-05
-3.04103581767e-05
-3.041146527e-05
-3.04131473064e-05
-3.04152200281e-05
-3.04175008906e-05
-3.04200215936e-05
-3.0421387737e-05
-3.04098571888e-05
-3.04028869886e-05
-3.0395964695e-05
-3.03894302328e-05
-3.03836832472e-05
-3.03791604921e-05
-3.0376272868e-05
-3.03752949253e-05
-3.03763195915e-05
-3.03792534022e-05
-3.03838202317e-05
-3.03896089978e-05
-3.03961814158e-05
-3.04031411342e-05
-3.04101268724e-05
-3.03871597409e-05
-3.03727257689e-05
-3.03601432955e-05
-3.03482517716e-05
-3.03379287669e-05
-3.03298987335e-05
-3.03248096946e-05
-3.03230831802e-05
-3.03248613351e-05
-3.03300012975e-05
-3.03380797463e-05
-3.03484481336e-05
-3.03603802923e-05
-3.03730013673e-05
-3.03874507085e-05
-3.03526306164e-05
-3.03292716429e-05
-3.03100662085e-05
-3.02920771854e-05
-3.02765987039e-05
-3.02646595481e-05
-3.02571341911e-05
-3.0254581881e-05
-3.02571904748e-05
-3.02647712214e-05
-3.02767628734e-05
-3.02922901469e-05
-3.0310322467e-05
-3.03295674694e-05
-3.03529430005e-05
-3.03065227008e-05
-3.02733050825e-05
-3.02468727938e-05
-3.02224328455e-05
-3.02015461045e-05
-3.01855473919e-05
-3.01755102557e-05
-3.01721095792e-05
-3.01755706608e-05
-3.01856671365e-05
-3.02017220045e-05
-3.02226606124e-05
-3.02471463761e-05
-3.02736190281e-05
-3.03068551659e-05
-3.02495276174e-05
-3.0206269591e-05
-3.01724887968e-05
-3.0141641201e-05
-3.01154127768e-05
-3.00954441237e-05
-3.00829711961e-05
-3.00787513181e-05
-3.00830349394e-05
-3.00955704226e-05
-3.01155982088e-05
-3.01418811211e-05
-3.01727767771e-05
-3.02065986719e-05
-3.02498776401e-05
-3.01822222313e-05
-3.01300484326e-05
-3.00894003636e-05
-3.00525449319e-05
-3.00213438708e-05
-2.99977366668e-05
-2.99830604359e-05
-2.99781048313e-05
-2.99831264335e-05
-2.99978673861e-05
-3.00215358949e-05
-3.00527933887e-05
-3.00896987357e-05
-3.01303886997e-05
-3.01825860282e-05
-3.0106346815e-05
-3.00469303521e-05
-3.00000674028e-05
-2.99578179531e-05
-2.9922376361e-05
-2.98958059358e-05
-2.98793909391e-05
-2.98738631231e-05
-2.98794575062e-05
-2.98959378802e-05
-2.9922570272e-05
-2.99580692434e-05
-3.00003699633e-05
-3.00472760257e-05
-3.01067197128e-05
-3.00325176499e-05
-2.99615634444e-05
-2.99080496978e-05
-2.98605372848e-05
-2.98215717962e-05
-2.9792757651e-05
-2.97750967136e-05
-2.97691695448e-05
-2.97751620089e-05
-2.97928871028e-05
-2.98217623268e-05
-2.98607846157e-05
-2.99083482694e-05
-2.99619064244e-05
-3.00328918948e-05
-4.33000194552e-05
-4.32967006908e-05
-4.3292208686e-05
-4.32879120359e-05
-4.32840072504e-05
-4.32809458784e-05
-4.32789879359e-05
-4.3278308933e-05
-4.32789683794e-05
-4.32809064435e-05
-4.32839479864e-05
-4.32878343131e-05
-4.32921166063e-05
-4.32966017223e-05
-4.32999200385e-05
-4.32905474663e-05
-4.32879925307e-05
-4.32841953238e-05
-4.32805785376e-05
-4.32772553016e-05
-4.32746374908e-05
-4.32729567899e-05
-4.32723715753e-05
-4.32729363704e-05
-4.32745963403e-05
-4.3277193526e-05
-4.32804975691e-05
-4.32840991496e-05
-4.32878888883e-05
-4.32904422596e-05
-4.32921830261e-05
-4.3291360783e-05
-4.32890632217e-05
-4.32868076647e-05
-4.32845920686e-05
-4.32827932635e-05
-4.32816133743e-05
-4.32811963349e-05
-4.32815929241e-05
-4.32827521981e-05
-4.32845306323e-05
-4.3286727311e-05
-4.32889674719e-05
-4.32912570602e-05
-4.32920756648e-05
-4.3303522382e-05
-4.33043516479e-05
-4.33033560583e-05
-4.33021845925e-05
-4.33007908905e-05
-4.32995635211e-05
-4.3298718061e-05
-4.32984109467e-05
-4.32986988999e-05
-4.32995250659e-05
-4.33007334259e-05
-4.33021094185e-05
-4.33032661337e-05
-4.33042537427e-05
-4.33034191296e-05
-4.33166813724e-05
-4.33180709285e-05
-4.33173780926e-05
-4.33163409788e-05
-4.3314969447e-05
-4.33137068621e-05
-4.3312818308e-05
-4.33124933698e-05
-4.33128016314e-05
-4.33136729654e-05
-4.33149186109e-05
-4.33162743009e-05
-4.33172979753e-05
-4.33179832399e-05
-4.33165868298e-05
-4.33266159266e-05
-4.33273288691e-05
-4.33259802823e-05
-4.33242399125e-05
-4.33222331565e-05
-4.33204629618e-05
-4.33192480019e-05
-4.33188107596e-05
-4.33192335662e-05
-4.33204335489e-05
-4.33221890516e-05
-4.33241820876e-05
-4.33259107072e-05
-4.33272527324e-05
-4.33265324483e-05
-4.333157286e-05
-4.33307171839e-05
-4.33281445291e-05
-4.33252409996e-05
-4.33222625524e-05
-4.33197557876e-05
-4.33180823188e-05
-4.33174897487e-05
-4.33180700903e-05
-4.33197308607e-05
-4.33222252436e-05
-4.33251921686e-05
-4.33280857708e-05
-4.33306529793e-05
-4.33315013715e-05
-4.33315345348e-05
-4.33285975956e-05
-4.33245392171e-05
-4.33202779628e-05
-4.3316193277e-05
-4.33128625012e-05
-4.33106816973e-05
-4.33099182703e-05
-4.33106716707e-05
-4.33128420026e-05
-4.33161626033e-05
-4.33202378392e-05
-4.33244909815e-05
-4.33285450335e-05
-4.33314754661e-05
-4.33271017533e-05
-4.33218276239e-05
-4.33161699818e-05
-4.33104784156e-05
-4.33052382363e-05
-4.33010529395e-05
-4.32983485383e-05
-4.32974092983e-05
-4.32983407126e-05
-4.33010368584e-05
-4.33052141448e-05
-4.33104468977e-05
-4.33161320756e-05
-4.33217864331e-05
-4.33270549137e-05
-4.33189778963e-05
-4.33112658252e-05
-4.33039582733e-05
-4.32968197873e-05
-4.32904159143e-05
-4.3285375385e-05
-4.32821495166e-05
-4.32810357187e-05
-4.32821438396e-05
-4.32853636017e-05
-4.3290398187e-05
-4.32967965484e-05
-4.33039303044e-05
-4.33112355762e-05
-4.3318943151e-05
-4.33078006503e-05
-4.3297654322e-05
-4.328868739e-05
-4.32801267229e-05
-4.32725882231e-05
-4.32667226137e-05
-4.32629979288e-05
-4.3261718033e-05
-4.32629943285e-05
-4.32667149712e-05
-4.3272576613e-05
-4.32801113942e-05
-4.32886688568e-05
-4.32976344453e-05
-4.33077773131e-05
-4.32941406768e-05
-4.32816454965e-05
-4.32710492643e-05
-4.32611307879e-05
-4.32525288114e-05
-4.32459049823e-05
-4.32417289791e-05
-4.32403001312e-05
-4.32417273178e-05
-4.32459012027e-05
-4.32525228695e-05
-4.3261122773e-05
-4.32710394411e-05
-4.32816351851e-05
-4.32941280388e-05
-4.32785740562e-05
-4.32638414928e-05
-4.32516684697e-05
-4.32404958022e-05
-4.32309513175e-05
-4.32236804372e-05
-4.32191298373e-05
-4.32175794203e-05
-4.32191299078e-05
-4.32236801038e-05
-4.32309504533e-05
-4.32404943173e-05
-4.32516663448e-05
-4.32638396348e-05
-4.32785707609e-05
-4.32614333981e-05
-4.32445204636e-05
-4.32309390021e-05
-4.32187198551e-05
-4.32084637612e-05
-4.3200742728e-05
-4.31959471814e-05
-4.31943200606e-05
-4.31959487079e-05
-4.3200745305e-05
-4.32084671567e-05
-4.32187238582e-05
-4.3230943456e-05
-4.32445257353e-05
-4.32614381213e-05
-4.32411014279e-05
-4.32235779325e-05
-4.320905327e-05
-4.31962209566e-05
-4.31856853035e-05
-4.31778526747e-05
-4.31730239587e-05
-4.31713921029e-05
-4.31730266182e-05
-4.31778576018e-05
-4.3185692196e-05
-4.31962295277e-05
-4.32090629289e-05
-4.32235886193e-05
-4.32411123084e-05
-3.09048833548e-05
-3.09068551272e-05
-3.09091172319e-05
-3.09114589168e-05
-3.09135733216e-05
-3.09152400109e-05
-3.0916301266e-05
-3.09166600417e-05
-3.09162785248e-05
-3.09151955716e-05
-3.09135093421e-05
-3.09113781679e-05
-3.09090217696e-05
-3.09067486357e-05
-3.09047686481e-05
-3.09062837405e-05
-3.09082149351e-05
-3.09104706478e-05
-3.09128156113e-05
-3.09149429416e-05
-3.09166258508e-05
-3.09177006486e-05
-3.09180650254e-05
-3.09176779944e-05
-3.09165815276e-05
-3.09148790319e-05
-3.09127348094e-05
-3.09103752364e-05
-3.09081084149e-05
-3.09061691119e-05
-3.09055385353e-05
-3.09073040281e-05
-3.09094158853e-05
-3.09116503409e-05
-3.09136984584e-05
-3.09153299592e-05
-3.09163766169e-05
-3.09167323379e-05
-3.09163543215e-05
-3.09152862849e-05
-3.09136353646e-05
-3.09115704453e-05
-3.09093216662e-05
-3.09071986196e-05
-3.0905424751e-05
-3.09046771237e-05
-3.0906359797e-05
-3.09083884935e-05
-3.09105620376e-05
-3.09125710054e-05
-3.09141805069e-05
-3.09152168444e-05
-3.09155697421e-05
-3.09151950015e-05
-3.09141377051e-05
-3.09125090325e-05
-3.09104833645e-05
-3.09082956577e-05
-3.09062558145e-05
-3.0904564596e-05
-3.09042736132e-05
-3.09059689865e-05
-3.09079897763e-05
-3.09101645826e-05
-3.09121836833e-05
-3.09138068876e-05
-3.09148546332e-05
-3.09152119795e-05
-3.09148332207e-05
-3.09137650701e-05
-3.09121231343e-05
-3.09100876321e-05
-3.09078989189e-05
-3.09058669935e-05
-3.09041628451e-05
-3.0904290878e-05
-3.09060730053e-05
-3.09081407068e-05
-3.09103616875e-05
-3.09124251611e-05
-3.0914085941e-05
-3.09151591956e-05
-3.09155257261e-05
-3.0915138437e-05
-3.09140454109e-05
-3.09123663775e-05
-3.09102868115e-05
-3.09080521194e-05
-3.09059732645e-05
-3.09041823214e-05
-3.0904692671e-05
-3.09066232801e-05
-3.09087804019e-05
-3.09110810152e-05
-3.09132127187e-05
-3.09149265257e-05
-3.09160337552e-05
-3.09164121613e-05
-3.09160137881e-05
-3.09148875225e-05
-3.09131560575e-05
-3.09110086766e-05
-3.09086946128e-05
-3.09065262803e-05
-3.09045866221e-05
-3.09054708561e-05
-3.09075998361e-05
-3.09098774662e-05
-3.09122789766e-05
-3.0914491705e-05
-3.09162651003e-05
-3.09174089769e-05
-3.09177999121e-05
-3.0917389852e-05
-3.09162277148e-05
-3.09144372979e-05
-3.09122093213e-05
-3.09097946135e-05
-3.09075057953e-05
-3.09053675802e-05
-3.09066004494e-05
-3.09089609889e-05
-3.09113760684e-05
-3.09138851182e-05
-3.0916178808e-05
-3.09180082097e-05
-3.09191849217e-05
-3.09195868058e-05
-3.09191666977e-05
-3.09179725547e-05
-3.09161268253e-05
-3.09138183851e-05
-3.09112964122e-05
-3.09088701918e-05
-3.09065001097e-05
-3.09080346142e-05
-3.09106413131e-05
-3.09131960557e-05
-3.09158044259e-05
-3.09181660362e-05
-3.09200377883e-05
-3.09212371355e-05
-3.09216461947e-05
-3.0921219843e-05
-3.09200039201e-05
-3.09181165583e-05
-3.09157407154e-05
-3.09131197328e-05
-3.09105539501e-05
-3.09079374857e-05
-3.09097151106e-05
-3.09125639575e-05
-3.09152472122e-05
-3.09179338875e-05
-3.09203391875e-05
-3.09222309318e-05
-3.09234372023e-05
-3.09238477815e-05
-3.09234208656e-05
-3.09221988973e-05
-3.09202922923e-05
-3.09178733172e-05
-3.09151743804e-05
-3.09124802221e-05
-3.09096213361e-05
-3.09115758327e-05
-3.09146483595e-05
-3.0917440319e-05
-3.09201762871e-05
-3.09225932787e-05
-3.09244763346e-05
-3.09256697797e-05
-3.09260748285e-05
-3.09256544131e-05
-3.09244461581e-05
-3.09225490031e-05
-3.09201189209e-05
-3.09173710855e-05
-3.09145684384e-05
-3.09114856619e-05
-3.09135273041e-05
-3.09168052281e-05
-3.09196898318e-05
-3.09224468609e-05
-3.09248418026e-05
-3.09266854659e-05
-3.09278448694e-05
-3.09282368792e-05
-3.09278304695e-05
-3.09266571385e-05
-3.09248001698e-05
-3.09223927463e-05
-3.09196242681e-05
-3.09167292219e-05
-3.09134408355e-05
-3.09155238e-05
-3.09190082376e-05
-3.0921959995e-05
-3.09247021907e-05
-3.09270318453e-05
-3.09287985049e-05
-3.09298990904e-05
-3.09302693093e-05
-3.09298856566e-05
-3.09287720724e-05
-3.09269928863e-05
-3.09246514238e-05
-3.09218982925e-05
-3.09189363953e-05
-3.09154413532e-05
-3.09183175923e-05
-3.0921677875e-05
-3.09245313036e-05
-3.09271000959e-05
-3.09292218473e-05
-3.09308044813e-05
-3.09317804378e-05
-3.09321068434e-05
-3.09317680084e-05
-3.09307799753e-05
-3.09291856992e-05
-3.09270528704e-05
-3.09244736655e-05
-3.09216105631e-05
-3.091823989e-05
-3.63944700101e-05
-3.63932622843e-05
-3.63918904007e-05
-3.63904641802e-05
-3.63891786526e-05
-3.63881647409e-05
-3.63875183622e-05
-3.63872983217e-05
-3.6387527711e-05
-3.638818203e-05
-3.63892012326e-05
-3.63904883105e-05
-3.63919129414e-05
-3.63932811727e-05
-3.63944864829e-05
-3.63941223098e-05
-3.63929592614e-05
-3.63916117331e-05
-3.63902017201e-05
-3.6388923919e-05
-3.63879120071e-05
-3.63872648181e-05
-3.63870438435e-05
-3.63872739279e-05
-3.6387928842e-05
-3.63889459014e-05
-3.63902252791e-05
-3.63916336998e-05
-3.6392977819e-05
-3.6394138379e-05
-3.6395087893e-05
-3.63940471628e-05
-3.63928119596e-05
-3.63914918096e-05
-3.63902820769e-05
-3.63893165632e-05
-3.63886959379e-05
-3.63884833211e-05
-3.63887045207e-05
-3.6389332455e-05
-3.63903029298e-05
-3.63915144397e-05
-3.63928333484e-05
-3.63940656886e-05
-3.63951038013e-05
-3.6395989098e-05
-3.63950206598e-05
-3.63938609078e-05
-3.63926018359e-05
-3.63914375233e-05
-3.63905022342e-05
-3.63898985367e-05
-3.63896911542e-05
-3.63899065119e-05
-3.6390517017e-05
-3.63914569813e-05
-3.63926231465e-05
-3.63938813447e-05
-3.63950387431e-05
-3.63960048201e-05
-3.63965693598e-05
-3.63956237195e-05
-3.63944989373e-05
-3.63932696702e-05
-3.63921268049e-05
-3.63912050197e-05
-3.63906083318e-05
-3.6390402903e-05
-3.63906156249e-05
-3.63912185754e-05
-3.63921447726e-05
-3.63932895989e-05
-3.63945184447e-05
-3.63956413937e-05
-3.63965848432e-05
-3.63969250176e-05
-3.63959716488e-05
-3.6394857239e-05
-3.63936394845e-05
-3.63925049606e-05
-3.63915881971e-05
-3.63909938491e-05
-3.639078891e-05
-3.6391000468e-05
-3.6391600528e-05
-3.63925213687e-05
-3.63936578596e-05
-3.63948754981e-05
-3.63959886607e-05
-3.63969400892e-05
-3.63971139138e-05
-3.63961313923e-05
-3.63950107878e-05
-3.63937934654e-05
-3.63926602381e-05
-3.63917446447e-05
-3.63911508593e-05
-3.63909459306e-05
-3.63911567967e-05
-3.63917557539e-05
-3.63926751313e-05
-3.63938103757e-05
-3.63950279277e-05
-3.63961478222e-05
-3.63971286166e-05
-3.63971609037e-05
-3.63961345518e-05
-3.63949969546e-05
-3.63937741702e-05
-3.639263961e-05
-3.63917247483e-05
-3.63911319527e-05
-3.63909273349e-05
-3.63911372503e-05
-3.63917346941e-05
-3.63926530282e-05
-3.63937895792e-05
-3.63950128785e-05
-3.6396150253e-05
-3.63971752615e-05
-3.63970909055e-05
-3.63960121869e-05
-3.6394852487e-05
-3.63936236204e-05
-3.63924896996e-05
-3.63915786251e-05
-3.63909894379e-05
-3.63907861715e-05
-3.63909941466e-05
-3.63915875081e-05
-3.63925017942e-05
-3.63936377137e-05
-3.63948673615e-05
-3.63960272596e-05
-3.63971048796e-05
-3.63969312398e-05
-3.63957975233e-05
-3.63946156193e-05
-3.6393384585e-05
-3.63922571698e-05
-3.63913559162e-05
-3.63907748481e-05
-3.63905746266e-05
-3.63907790253e-05
-3.63913638381e-05
-3.63922680437e-05
-3.63933974351e-05
-3.63946294729e-05
-3.63958119666e-05
-3.63969449021e-05
-3.63967075259e-05
-3.63955201177e-05
-3.63943196534e-05
-3.63930938849e-05
-3.63919820808e-05
-3.63910992593e-05
-3.63905324511e-05
-3.63903375279e-05
-3.63905361699e-05
-3.63911063503e-05
-3.63919919111e-05
-3.63931056621e-05
-3.63943326116e-05
-3.63955339401e-05
-3.63967207977e-05
-3.63964424535e-05
-3.63952045605e-05
-3.63939909838e-05
-3.63927796508e-05
-3.63916945813e-05
-3.63908405063e-05
-3.6390295273e-05
-3.63901083017e-05
-3.63902985955e-05
-3.63908468884e-05
-3.63917034796e-05
-3.63927904732e-05
-3.63940031196e-05
-3.63952178032e-05
-3.63964553636e-05
-3.63961672586e-05
-3.63948784482e-05
-3.63936532205e-05
-3.63924629251e-05
-3.63914145016e-05
-3.63905991684e-05
-3.63900826022e-05
-3.63899062208e-05
-3.63900856006e-05
-3.63906049029e-05
-3.63914226307e-05
-3.6392472888e-05
-3.6393664609e-05
-3.639489109e-05
-3.63961797125e-05
-3.63958926673e-05
-3.63945416029e-05
-3.63933087406e-05
-3.63921478245e-05
-3.63911484592e-05
-3.63903832497e-05
-3.63899033433e-05
-3.63897403317e-05
-3.63899060295e-05
-3.63903884841e-05
-3.63911558515e-05
-3.63921570623e-05
-3.63933194592e-05
-3.6394553728e-05
-3.63959046594e-05
-3.63951616169e-05
-3.6393878304e-05
-3.63927372665e-05
-3.6391697667e-05
-3.6390826028e-05
-3.63901695193e-05
-3.6389761892e-05
-3.63896242806e-05
-3.63897643436e-05
-3.63901742586e-05
-3.63908328401e-05
-3.63917062498e-05
-3.63927473704e-05
-3.63938898932e-05
-3.63951734244e-05
-3.06048086411e-05
-3.06055561606e-05
-3.06064104435e-05
-3.06073018791e-05
-3.06081065343e-05
-3.06087419666e-05
-3.06091469451e-05
-3.06092847124e-05
-3.06091408343e-05
-3.06087302449e-05
-3.06080900088e-05
-3.06072809787e-05
-3.0606385166e-05
-3.06055276074e-05
-3.06047766627e-05
-3.06049309577e-05
-3.06056500773e-05
-3.06064894879e-05
-3.06073716188e-05
-3.06081724439e-05
-3.06088074265e-05
-3.06092133963e-05
-3.06093518583e-05
-3.06092073003e-05
-3.06087957191e-05
-3.06081559017e-05
-3.06073506681e-05
-3.0606464141e-05
-3.06056213666e-05
-3.06048988886e-05
-3.06042343898e-05
-3.0604876277e-05
-3.06056458739e-05
-3.06064729125e-05
-3.060723203e-05
-3.06078384566e-05
-3.06082280329e-05
-3.060836127e-05
-3.06082220771e-05
-3.0607826957e-05
-3.0607215677e-05
-3.06064522401e-05
-3.06056210974e-05
-3.06048481745e-05
-3.06042029209e-05
-3.06035933273e-05
-3.06041880124e-05
-3.06049092646e-05
-3.06056973292e-05
-3.06064270918e-05
-3.0607013676e-05
-3.06073920004e-05
-3.06075216649e-05
-3.0607386236e-05
-3.06070025052e-05
-3.06064111081e-05
-3.06056770729e-05
-3.06048850512e-05
-3.0604160617e-05
-3.06035625574e-05
-3.06031538473e-05
-3.0603728845e-05
-3.06044239893e-05
-3.0605189709e-05
-3.06059024833e-05
-3.06064776015e-05
-3.06068495089e-05
-3.06069771846e-05
-3.06068439795e-05
-3.06064668467e-05
-3.06058870354e-05
-3.06051701406e-05
-3.06044006977e-05
-3.06037025379e-05
-3.06031240525e-05
-3.06028451971e-05
-3.06034155354e-05
-3.0604096154e-05
-3.0604847171e-05
-3.06055479353e-05
-3.06061144688e-05
-3.06064814068e-05
-3.06066075115e-05
-3.06064761363e-05
-3.0606104195e-05
-3.06055331212e-05
-3.0604828358e-05
-3.06040737522e-05
-3.06033902146e-05
-3.06028164744e-05
-3.06026234651e-05
-3.06031973787e-05
-3.06038697256e-05
-3.06046092968e-05
-3.06052993716e-05
-3.0605857407e-05
-3.06062190367e-05
-3.06063433824e-05
-3.06062140497e-05
-3.06058476686e-05
-3.06052852933e-05
-3.06045913989e-05
-3.06038484333e-05
-3.06031732486e-05
-3.06025958945e-05
-3.0602467227e-05
-3.06030490472e-05
-3.06037159943e-05
-3.06044442786e-05
-3.06051224073e-05
-3.06056701212e-05
-3.06060249103e-05
-3.06061469047e-05
-3.0606020218e-05
-3.06056609425e-05
-3.06051090986e-05
-3.06044272966e-05
-3.06036957468e-05
-3.06030260519e-05
-3.06024408163e-05
-3.06023573253e-05
-3.0602947774e-05
-3.06036093218e-05
-3.06043240533e-05
-3.06049869329e-05
-3.06055209245e-05
-3.06058663428e-05
-3.06059850464e-05
-3.06058619438e-05
-3.06055123045e-05
-3.06049744055e-05
-3.06043080239e-05
-3.0603590164e-05
-3.06029259638e-05
-3.06023320704e-05
-3.06022753349e-05
-3.06028729655e-05
-3.06035270306e-05
-3.06042241211e-05
-3.06048668403e-05
-3.06053824904e-05
-3.06057152547e-05
-3.06058294652e-05
-3.06057111388e-05
-3.06053744129e-05
-3.06048550648e-05
-3.0604208998e-05
-3.06035088967e-05
-3.06028522699e-05
-3.06022512699e-05
-3.06022064667e-05
-3.06028086038e-05
-3.06034519556e-05
-3.06041262633e-05
-3.06047428451e-05
-3.06052346642e-05
-3.06055509032e-05
-3.0605659224e-05
-3.06055470454e-05
-3.06052270827e-05
-3.06047317704e-05
-3.06041119965e-05
-3.06034348109e-05
-3.06027889836e-05
-3.06021835407e-05
-3.06021394042e-05
-3.06027440767e-05
-3.06033735505e-05
-3.0604019728e-05
-3.06046036956e-05
-3.06050656406e-05
-3.06053611367e-05
-3.06054620168e-05
-3.06053575081e-05
-3.06050584969e-05
-3.06045932322e-05
-3.06040062353e-05
-3.06033573066e-05
-3.06027254799e-05
-3.06021176013e-05
-3.0602059812e-05
-3.06026686595e-05
-3.06032842851e-05
-3.06038992743e-05
-3.06044453663e-05
-3.06048722125e-05
-3.06051430807e-05
-3.06052351761e-05
-3.06051396375e-05
-3.06048654106e-05
-3.06044354404e-05
-3.06038864198e-05
-3.06032688345e-05
-3.06026509677e-05
-3.06020390445e-05
-3.06019584897e-05
-3.06025802111e-05
-3.06031843271e-05
-3.06037663721e-05
-3.06042702558e-05
-3.06046573785e-05
-3.06049005616e-05
-3.0604982604e-05
-3.06048972429e-05
-3.06046508802e-05
-3.06042607078e-05
-3.06037540933e-05
-3.06031695274e-05
-3.06025633226e-05
-3.06019386544e-05
-3.06020673337e-05
-3.06026604961e-05
-3.0603205877e-05
-3.06037084979e-05
-3.06041305045e-05
-3.06044491198e-05
-3.06046470214e-05
-3.06047132817e-05
-3.0604643803e-05
-3.06044427796e-05
-3.06041212711e-05
-3.06036965703e-05
-3.06031915951e-05
-3.06026442139e-05
-3.06020484348e-05
-3.18013831585e-05
-3.18009179475e-05
-3.18003901283e-05
-3.17998439397e-05
-3.17993531964e-05
-3.17989673046e-05
-3.17987222362e-05
-3.17986392989e-05
-3.17987266006e-05
-3.17989749051e-05
-3.17993619578e-05
-3.17998515115e-05
-3.18003944931e-05
-3.18009176062e-05
-3.18013790777e-05
-3.18012427545e-05
-3.18007926063e-05
-3.18002719686e-05
-3.1799729883e-05
-3.17992402797e-05
-3.17988538648e-05
-3.17986077e-05
-3.17985241431e-05
-3.17986119261e-05
-3.17988612272e-05
-3.1799248789e-05
-3.17997372034e-05
-3.18002760769e-05
-3.18007921852e-05
-3.1801238532e-05
-3.18016042732e-05
-3.18011995892e-05
-3.18007204968e-05
-3.18002114869e-05
-3.1799746741e-05
-3.17993771399e-05
-3.17991404886e-05
-3.17990598242e-05
-3.1799144261e-05
-3.17993837008e-05
-3.17997543168e-05
-3.18002180166e-05
-3.1800724129e-05
-3.18011992023e-05
-3.18016000403e-05
-3.18019389772e-05
-3.18015624371e-05
-3.18011120367e-05
-3.18006264982e-05
-3.18001792284e-05
-3.17998212983e-05
-3.17995911355e-05
-3.17995123887e-05
-3.17995944152e-05
-3.17998269764e-05
-3.18001857284e-05
-3.18006319924e-05
-3.18011148898e-05
-3.1801561711e-05
-3.18019347402e-05
-3.18021569483e-05
-3.18017924571e-05
-3.18013576601e-05
-3.18008861154e-05
-3.18004493038e-05
-3.18000982648e-05
-3.17998717929e-05
-3.1799794022e-05
-3.17998744979e-05
-3.18001029142e-05
-3.18004545713e-05
-3.1800890476e-05
-3.18013597505e-05
-3.18017914482e-05
-3.18021526659e-05
-3.18023033686e-05
-3.18019430293e-05
-3.18015173593e-05
-3.18010555587e-05
-3.18006265355e-05
-3.18002809538e-05
-3.18000575334e-05
-3.17999805856e-05
-3.18000597092e-05
-3.18002846463e-05
-3.18006306089e-05
-3.18010587259e-05
-3.18015184837e-05
-3.18019415522e-05
-3.18022989156e-05
-3.18024060614e-05
-3.18020456159e-05
-3.18016257035e-05
-3.18011722018e-05
-3.18007505732e-05
-3.18004106582e-05
-3.18001906298e-05
-3.18001146587e-05
-3.18001922647e-05
-3.18004133877e-05
-3.18007534765e-05
-3.1801174259e-05
-3.18016260162e-05
-3.1802043789e-05
-3.18024015122e-05
-3.1802477725e-05
-3.18021151727e-05
-3.18016994046e-05
-3.1801254083e-05
-3.1800840567e-05
-3.18005073984e-05
-3.18002916976e-05
-3.18002170913e-05
-3.18002928581e-05
-3.1800509276e-05
-3.18008424098e-05
-3.18012550826e-05
-3.18016988771e-05
-3.18021129133e-05
-3.18024731241e-05
-3.1802528766e-05
-3.18021634176e-05
-3.18017516507e-05
-3.18013157012e-05
-3.18009121467e-05
-3.18005876365e-05
-3.18003776865e-05
-3.18003049917e-05
-3.18003784259e-05
-3.18005887639e-05
-3.18009130894e-05
-3.18013158457e-05
-3.1801750491e-05
-3.18021608809e-05
-3.18025241099e-05
-3.18025684174e-05
-3.1802200803e-05
-3.18017939737e-05
-3.18013694376e-05
-3.18009784183e-05
-3.18006650162e-05
-3.18004626111e-05
-3.18003925065e-05
-3.18004629948e-05
-3.18006655177e-05
-3.18009785899e-05
-3.18013688396e-05
-3.18017922563e-05
-3.18021980181e-05
-3.1802563797e-05
-3.18026039446e-05
-3.18022347165e-05
-3.1801834353e-05
-3.18014238729e-05
-3.18010485491e-05
-3.18007492238e-05
-3.18005564584e-05
-3.18004897305e-05
-3.18005565584e-05
-3.18007492247e-05
-3.18010481323e-05
-3.18014227115e-05
-3.18018322378e-05
-3.18022317486e-05
-3.18025993184e-05
-3.18026407226e-05
-3.18022699922e-05
-3.18018776343e-05
-3.18014838592e-05
-3.18011276288e-05
-3.18008454892e-05
-3.18006646345e-05
-3.18006021049e-05
-3.18006645005e-05
-3.18008451026e-05
-3.18011267069e-05
-3.18014822555e-05
-3.18018752031e-05
-3.18022669096e-05
-3.18026361362e-05
-3.18026870811e-05
-3.18023124852e-05
-3.1801927548e-05
-3.18015517135e-05
-3.18012167963e-05
-3.1800954479e-05
-3.18007873358e-05
-3.18007297613e-05
-3.1800787041e-05
-3.18009537294e-05
-3.18012155399e-05
-3.18015497109e-05
-3.18019248871e-05
-3.18023093057e-05
-3.18026825038e-05
-3.18027395711e-05
-3.18023541522e-05
-3.18019784105e-05
-3.18016225942e-05
-3.18013123427e-05
-3.18010726486e-05
-3.18009214599e-05
-3.18008695403e-05
-3.18009210002e-05
-3.18010717149e-05
-3.18013107367e-05
-3.18016203978e-05
-3.18019755735e-05
-3.18023509898e-05
-3.18027350056e-05
-3.18025889277e-05
-3.1802253307e-05
-3.18019315449e-05
-3.1801634861e-05
-3.18013810121e-05
-3.18011876558e-05
-3.18010666328e-05
-3.18010252486e-05
-3.18010661161e-05
-3.18011865433e-05
-3.18013792978e-05
-3.18016325041e-05
-3.18019287029e-05
-3.18022501532e-05
-3.18025847195e-05
-2.86569216663e-05
-2.86572077912e-05
-2.86575312601e-05
-2.86578671282e-05
-2.8658168467e-05
-2.86584055415e-05
-2.86585558551e-05
-2.8658605675e-05
-2.86585494379e-05
-2.86583926334e-05
-2.8658149161e-05
-2.86578422392e-05
-2.86575027218e-05
-2.86571790929e-05
-2.86568943869e-05
-2.86569194112e-05
-2.86571926449e-05
-2.86575083327e-05
-2.86578390015e-05
-2.86581375191e-05
-2.86583733862e-05
-2.86585234168e-05
-2.86585732805e-05
-2.86585170768e-05
-2.86583606555e-05
-2.86581185202e-05
-2.86578145643e-05
-2.86574803399e-05
-2.8657164278e-05
-2.86568922893e-05
-2.86566032267e-05
-2.86568451753e-05
-2.86571321457e-05
-2.86574402921e-05
-2.86577217939e-05
-2.86579460603e-05
-2.86580893997e-05
-2.86581371553e-05
-2.86580832733e-05
-2.8657933799e-05
-2.86577035733e-05
-2.86574169025e-05
-2.86571053213e-05
-2.86568177453e-05
-2.8656576832e-05
-2.8656318409e-05
-2.86565410332e-05
-2.86568080712e-05
-2.86571005423e-05
-2.86573703398e-05
-2.8657586749e-05
-2.86577256315e-05
-2.86577720205e-05
-2.86577197776e-05
-2.86575750691e-05
-2.86573530571e-05
-2.865707842e-05
-2.86567826627e-05
-2.8656514859e-05
-2.86562928575e-05
-2.86561170309e-05
-2.86563309836e-05
-2.86565867326e-05
-2.86568700089e-05
-2.86571329534e-05
-2.86573448211e-05
-2.86574812045e-05
-2.86575268931e-05
-2.86574757104e-05
-2.86573338973e-05
-2.86571168473e-05
-2.86568494334e-05
-2.86565630221e-05
-2.86563063997e-05
-2.86560926175e-05
-2.86559685463e-05
-2.86561792912e-05
-2.86564279149e-05
-2.86567048139e-05
-2.86569626705e-05
-2.8657170965e-05
-2.86573053086e-05
-2.86573504355e-05
-2.86573001951e-05
-2.86571608265e-05
-2.86569477783e-05
-2.86566858276e-05
-2.86564059849e-05
-2.86561563204e-05
-2.86559454099e-05
-2.865585406e-05
-2.86560641616e-05
-2.86563076871e-05
-2.86565790767e-05
-2.86568320236e-05
-2.86570365383e-05
-2.86571685835e-05
-2.86572130476e-05
-2.8657163892e-05
-2.86570272554e-05
-2.86568184193e-05
-2.86565617307e-05
-2.86562875761e-05
-2.86560428853e-05
-2.8655832194e-05
-2.86557638845e-05
-2.86559742641e-05
-2.8656213337e-05
-2.86564788932e-05
-2.86567261332e-05
-2.86569259064e-05
-2.86570548997e-05
-2.86570984156e-05
-2.86570506259e-05
-2.86569174642e-05
-2.86567137834e-05
-2.86564631401e-05
-2.8656194983e-05
-2.86559546209e-05
-2.86557432616e-05
-2.86556894799e-05
-2.86558996952e-05
-2.86561338973e-05
-2.86563923482e-05
-2.86566322641e-05
-2.86568257143e-05
-2.86569505249e-05
-2.86569926727e-05
-2.8656946657e-05
-2.86568180815e-05
-2.86566210917e-05
-2.86563780639e-05
-2.86561171479e-05
-2.8655881565e-05
-2.86556699885e-05
-2.8655622865e-05
-2.86558316256e-05
-2.86560597895e-05
-2.86563092553e-05
-2.8656539694e-05
-2.8656724846e-05
-2.86568440628e-05
-2.86568843336e-05
-2.86568405744e-05
-2.86567179553e-05
-2.8656529607e-05
-2.86562963064e-05
-2.86560444938e-05
-2.8655814837e-05
-2.86556044199e-05
-2.86555576893e-05
-2.86557633795e-05
-2.86559841091e-05
-2.86562224267e-05
-2.86564409324e-05
-2.86566155026e-05
-2.8656727551e-05
-2.86567653478e-05
-2.86567243887e-05
-2.86566092614e-05
-2.86564317651e-05
-2.86562106182e-05
-2.86559700505e-05
-2.86557477704e-05
-2.86555401526e-05
-2.8655489652e-05
-2.8655691128e-05
-2.8655903172e-05
-2.86561282304e-05
-2.8656332182e-05
-2.86564937923e-05
-2.86565969449e-05
-2.86566316599e-05
-2.86565940562e-05
-2.8656488067e-05
-2.86563237907e-05
-2.86561173524e-05
-2.86558901416e-05
-2.86556765059e-05
-2.86554729574e-05
-2.86554138821e-05
-2.8655611552e-05
-2.86558150274e-05
-2.86560256182e-05
-2.86562129541e-05
-2.86563593836e-05
-2.86564521539e-05
-2.86564831625e-05
-2.86564494602e-05
-2.86563540952e-05
-2.86562051261e-05
-2.86560154739e-05
-2.86558027957e-05
-2.86555977428e-05
-2.86553979251e-05
-2.86553220575e-05
-2.86555189069e-05
-2.86557172227e-05
-2.86559141049e-05
-2.86560839245e-05
-2.865621419e-05
-2.86562956653e-05