/*--------------------------------*- C++ -*----------------------------------*\
  =========                 |
  \\      /  F ield         | OpenFOAM: The Open Source CFD Toolbox
   \\    /   O peration     | Website:  https://openfoam.org
    \\  /    A nd           | Version:  7
     \\/     M anipulation  |
\*---------------------------------------------------------------------------*/
FoamFile
{
    version     2.0;
    format      ascii;
    class       volVectorField;
    location    "2.32";
    object      U;
}
// * * * * * * * * * * * * * * * * * * * * * * * * * * * * * * * * * * * * * //

dimensions      [0 1 -1 0 0 0 0];

internalField   nonuniform List<vector> 
22500
(
(-8.46838645455e-06 -9.3385832695e-06 -5.50131497659e-05)
(-8.05709202187e-06 -1.04817377379e-05 -5.81133023124e-05)
(-7.25423248723e-06 -1.16908608858e-05 -6.12303655259e-05)
(-6.22399766909e-06 -1.27897612946e-05 -6.41418427498e-05)
(-4.91580702637e-06 -1.37382281694e-05 -6.66344575525e-05)
(-3.39801069797e-06 -1.44646297749e-05 -6.8536301988e-05)
(-1.72722278141e-06 -1.49204138309e-05 -6.97256025475e-05)
(2.34217183515e-08 -1.50744806273e-05 -7.01285040862e-05)
(1.77362881859e-06 -1.49156250604e-05 -6.97119667861e-05)
(3.44318182548e-06 -1.44552488803e-05 -6.85091027906e-05)
(4.95907276912e-06 -1.37245976414e-05 -6.65937722947e-05)
(6.26483724309e-06 -1.27723616365e-05 -6.40876643441e-05)
(7.29178893509e-06 -1.16702890194e-05 -6.11623515317e-05)
(8.09176278697e-06 -1.04581781678e-05 -5.80300729772e-05)
(8.49599163328e-06 -9.31488400604e-06 -5.49116403773e-05)
(-2.4655890242e-05 -2.72051494731e-05 -0.000176138412357)
(-2.33622424884e-05 -3.05065030696e-05 -0.000186341930448)
(-2.10544696808e-05 -3.39665733863e-05 -0.000196586362579)
(-1.80473389786e-05 -3.7122226751e-05 -0.000206139317164)
(-1.42619854198e-05 -3.98424867547e-05 -0.000214314937398)
(-9.86203960386e-06 -4.19266096169e-05 -0.000220555223975)
(-5.01617998761e-06 -4.32352509267e-05 -0.000224458304131)
(6.29961914403e-08 -4.36774190191e-05 -0.000225778262894)
(5.14106092404e-06 -4.32209596334e-05 -0.000224415665782)
(9.98383739792e-06 -4.18985136714e-05 -0.000220470220505)
(1.43791920349e-05 -3.98014956736e-05 -0.000214187884554)
(1.81589725333e-05 -3.70697408361e-05 -0.000205970319347)
(2.11588827987e-05 -3.39043216173e-05 -0.000196374613707)
(2.3459339032e-05 -3.04355193652e-05 -0.000186083696036)
(2.4735337162e-05 -2.71325452945e-05 -0.000175826505471)
(-3.82741780971e-05 -4.21183616558e-05 -0.00030248599661)
(-3.60603027003e-05 -4.70914531974e-05 -0.000319910186206)
(-3.24320274097e-05 -5.22490934643e-05 -0.000337354707072)
(-2.77317912372e-05 -5.69440425067e-05 -0.000353580817577)
(-2.18819630747e-05 -6.09754587428e-05 -0.00036744437778)
(-1.51114948728e-05 -6.40576594334e-05 -0.000378015197663)
(-7.67542761067e-06 -6.59901489507e-05 -0.000384621849719)
(1.08458930196e-07 -6.66420174333e-05 -0.000386853591588)
(7.89020766303e-06 -6.59672011583e-05 -0.000384552279952)
(1.53201622105e-05 -6.40127917806e-05 -0.00037787640874)
(2.20810550053e-05 -6.09105926894e-05 -0.000367236606448)
(2.79185839298e-05 -5.68618843991e-05 -0.000353303812444)
(3.26033623258e-05 -5.21531939551e-05 -0.000337006765815)
(3.62149813256e-05 -4.69841802367e-05 -0.000319485052032)
(3.83986939586e-05 -4.2008982674e-05 -0.000301972501848)
(-4.95694434297e-05 -5.44224019102e-05 -0.000429428088276)
(-4.64536905299e-05 -6.06274199697e-05 -0.000453533426429)
(-4.16664970529e-05 -6.70049122478e-05 -0.000477573512196)
(-3.55293283434e-05 -7.27903827797e-05 -0.000499865434538)
(-2.79820091146e-05 -7.77377140773e-05 -0.000518866466013)
(-1.92959585407e-05 -8.15097220726e-05 -0.000533329359554)
(-9.78909063531e-06 -8.38701942618e-05 -0.000542356891838)
(1.46237878752e-07 -8.46650383242e-05 -0.000545402272074)
(1.00786739793e-05 -8.38402826501e-05 -0.000542261520557)
(1.9577197042e-05 -8.14513072584e-05 -0.000533139053408)
(2.82499651251e-05 -7.76534355732e-05 -0.000518581348274)
(3.57798929443e-05 -7.26839486456e-05 -0.000499484926361)
(4.18953046202e-05 -6.68812841903e-05 -0.000477095266363)
(4.66584245235e-05 -6.04900433367e-05 -0.000452949283525)
(4.97348388963e-05 -5.42820367257e-05 -0.000428723519064)
(-5.87511154877e-05 -6.43922760595e-05 -0.000553029256441)
(-5.47838832179e-05 -7.14315920878e-05 -0.000582802074593)
(-4.89837264485e-05 -7.86072402251e-05 -0.000612362101653)
(-4.16427616696e-05 -8.50910210587e-05 -0.00063968171886)
(-3.27262832385e-05 -9.06107632914e-05 -0.00066290551492)
(-2.25309262611e-05 -9.48061547625e-05 -0.000680546056244)
(-1.14164086348e-05 -9.74258331767e-05 -0.000691540093589)
(1.77417586778e-07 -9.83063759094e-05 -0.000695243257688)
(1.17678374087e-05 -9.73907937943e-05 -0.0006914204929)
(2.28724756337e-05 -9.47377278359e-05 -0.00068030740902)
(3.30519542438e-05 -9.05120330428e-05 -0.000662547858981)
(4.19473651212e-05 -8.49663284964e-05 -0.000639204275687)
(4.92619332614e-05 -7.84624389661e-05 -0.000611762239791)
(5.50323704594e-05 -7.12708024536e-05 -0.000582070282623)
(5.89536854692e-05 -6.42270998388e-05 -0.000552148032688)
(-6.59513953325e-05 -7.21876262969e-05 -0.000670219953258)
(-6.12047825317e-05 -7.96924756712e-05 -0.000704375912528)
(-5.45361203953e-05 -8.72853930137e-05 -0.000738132596887)
(-4.62141075951e-05 -9.41168457384e-05 -0.000769229936004)
(-3.623295077e-05 -9.99045712012e-05 -0.000795592961171)
(-2.49009401003e-05 -0.000104288907993 -0.00081557486747)
(-1.26009588962e-05 -0.000107019976402 -0.00082800786891)
(2.03256592645e-07 -0.000107936191931 -0.000832188835862)
(1.30037295393e-05 -0.000106981408432 -0.00082786562243)
(2.52928131319e-05 -0.000104213554282 -0.000815291114967)
(3.66071807804e-05 -9.97957412958e-05 -0.000795167783307)
(4.65646868362e-05 -9.39792199835e-05 -0.000768662618851)
(5.48569918467e-05 -8.71253084155e-05 -0.000737420702163)
(6.14917853266e-05 -7.95143897087e-05 -0.000703509049802)
(6.61879154804e-05 -7.20034863673e-05 -0.000669177792456)
(-7.13170685457e-05 -7.79707770565e-05 -0.000778839169927)
(-6.58770230516e-05 -8.56093134081e-05 -0.000816005130552)
(-5.84844407294e-05 -9.32850876789e-05 -0.000852579230376)
(-4.9393336192e-05 -0.000100159198741 -0.000886173952516)
(-3.86275407284e-05 -0.00010595300514 -0.000914580516634)
(-2.64961673115e-05 -0.000110326283556 -0.000936065843886)
(-1.33893464833e-05 -0.000113043403256 -0.000949412462916)
(2.25015691962e-07 -0.000113953010156 -0.000953892604082)
(1.38354276291e-05 -0.000113002663903 -0.000949248887662)
(2.69307042906e-05 -0.000110246624271 -0.000935739721965)
(3.90432794677e-05 -0.000105837784795 -0.000914092194064)
(4.97836683769e-05 -0.000100013203941 -0.000885523170231)
(5.88428078459e-05 -9.31148123974e-05 -0.000851764308745)
(6.61985727341e-05 -8.54192849017e-05 -0.000815015179408)
(7.15850404222e-05 -7.77729147808e-05 -0.00077765119663)
(-7.50178607413e-05 -8.19257244746e-05 -0.00087755870523)
(-6.89770416285e-05 -8.94105356271e-05 -0.000916411478351)
(-6.10020284624e-05 -9.68852997118e-05 -0.000954506103349)
(-5.13396545159e-05 -0.000103545279265 -0.000989411812453)
(-4.00423053965e-05 -0.00010912738119 -0.00101885609189)
(-2.74111610149e-05 -0.000113324853284 -0.00104108029396)
(-1.3830374336e-05 -0.000115925521496 -0.00105486306278)
(2.43858186133e-07 -0.000116794074251 -0.0010594803223)
(1.43140229788e-05 -0.000115883733412 -0.00105467907746)
(2.78828835924e-05 -0.000113243056691 -0.0010407137589)
(4.04945139889e-05 -0.000109008839133 -0.0010183078992)
(5.17653130684e-05 -0.000103394698481 -0.000988682626418)
(6.13942500986e-05 -9.67090758223e-05 -0.000953595606974)
(6.93303952248e-05 -8.92130871072e-05 -0.000915308532057)
(7.53155722148e-05 -8.1718610726e-05 -0.000876237966205)
(-7.72319367017e-05 -8.42451726507e-05 -0.000965752033939)
(-7.06838237918e-05 -9.13356235896e-05 -0.00100511206906)
(-6.2261099264e-05 -9.83747380039e-05 -0.00104359791109)
(-5.22088196242e-05 -0.000104610004406 -0.00107879131828)
(-4.06054441532e-05 -0.000109804423974 -0.00110840842184)
(-2.77370364598e-05 -0.000113694482065 -0.00113071462294)
(-1.39709658456e-05 -0.000116097527273 -0.00114452344926)
(2.60767451703e-07 -0.00011689788237 -0.00114913861314)
(1.44883811334e-05 -0.000116055623393 -0.00114431955924)
(2.82423375961e-05 -0.000113612346108 -0.0011303087953)
(4.10908400294e-05 -0.000109685104863 -0.00110780238017)
(5.26669785181e-05 -0.000104457966984 -0.00107798713272)
(6.2684931354e-05 -9.81960775027e-05 -0.00104259721508)
(7.1067389709e-05 -9.11344702289e-05 -0.00100390355018)
(7.75584856169e-05 -8.40325475928e-05 -0.000964308474621)
(-7.81372684582e-05 -8.51232533626e-05 -0.00104335265265)
(-7.11714039347e-05 -9.16240995724e-05 -0.0010822421651)
(-6.24258303792e-05 -9.80374272566e-05 -0.00112020107273)
(-5.2147282783e-05 -0.00010367911605 -0.00115484763004)
(-4.04364074042e-05 -0.000108347712263 -0.00118392516458)
(-2.75581613751e-05 -0.000111828662335 -0.00120576773759)
(-1.38544654379e-05 -0.000113972074512 -0.00121926021818)
(2.7650573996e-07 -0.000114683637042 -0.0012237567212)
(1.4403357225e-05 -0.000113930850986 -0.00121903657499)
(2.80949031371e-05 -0.000111747718527 -0.00120532298827)
(4.09531082437e-05 -0.000108229779306 -0.00118326209035)
(5.26364147954e-05 -0.000103528267485 -0.00115397013652)
(6.2880181945e-05 -9.78592821023e-05 -0.00111911328011)
(7.1584542422e-05 -9.14223494743e-05 -0.00108093245214)
(7.84924966946e-05 -8.49082187415e-05 -0.00104179243151)
(-7.79071017384e-05 -8.47534681728e-05 -0.00111073207079)
(-7.06050114132e-05 -9.05091097663e-05 -0.0011484129095)
(-6.16498419724e-05 -9.61434010575e-05 -0.00118515376032)
(-5.12907806778e-05 -0.000101058884854 -0.00121860149558)
(-3.96450070799e-05 -0.000105097128679 -0.00124656256836)
(-2.6951577391e-05 -0.000108093859545 -0.00126748961174)
(-1.352035591e-05 -0.000109932552185 -0.00128037880246)
(2.91595782862e-07 -0.000110540504908 -0.00128465843337)
(1.4099473103e-05 -0.000109892726666 -0.00128013532286)
(2.75186417611e-05 -0.000108015493991 -0.00126700575767)
(4.01921173545e-05 -0.000104982538586 -0.0012458422646)
(5.18102961676e-05 -0.000100911609711 -0.00121765078333)
(6.21344745608e-05 -9.59684151613e-05 -0.00118397975095)
(7.10478630887e-05 -9.03094962153e-05 -0.00114700338706)
(7.82915286926e-05 -8.45387230498e-05 -0.00110905722468)
(-7.67048105876e-05 -8.33259063292e-05 -0.00116861703768)
(-6.91388025922e-05 -8.82086103213e-05 -0.00120462727355)
(-6.00768913096e-05 -9.29389543919e-05 -0.00123968355678)
(-4.97658629121e-05 -9.7027576e-05 -0.00127142988835)
(-3.83326512488e-05 -0.000100361218038 -0.0012977935149)
(-2.59877951497e-05 -0.000102822208235 -0.00131741482912)
(-1.30046488914e-05 -0.00010432590367 -0.00132944944017)
(3.06329023055e-07 -0.000104820445733 -0.00133342576391)
(1.36133162131e-05 -0.000104288165091 -0.00132918599695)
(2.65846275455e-05 -0.000102747761932 -0.00131689145983)
(3.89098217777e-05 -0.000100251871105 -0.00129701511552)
(5.03156927752e-05 -9.68862054574e-05 -0.00127040466974)
(6.05920412898e-05 -9.27697112753e-05 -0.00123842217975)
(6.96119263539e-05 -8.80138301336e-05 -0.00120311698084)
(7.71194385644e-05 -8.31141895022e-05 -0.00116682607481)
(-7.46766901568e-05 -8.10087092949e-05 -0.00121806064527)
(-6.69212587357e-05 -8.49079472798e-05 -0.00125227536858)
(-5.78484355683e-05 -8.86371065953e-05 -0.00128537800064)
(-4.76949237273e-05 -9.18306176256e-05 -0.00131500085692)
(-3.65952641731e-05 -9.44141918679e-05 -0.00133932039966)
(-2.47325375706e-05 -9.63090860642e-05 -0.00135726575619)
(-1.23407414308e-05 -9.74603996876e-05 -0.0013682069712)
(3.20780632664e-07 -9.78361106949e-05 -0.00137179805235)
(1.29784269115e-05 -9.74254292048e-05 -0.00136792371269)
(2.53587149238e-05 -9.62398785807e-05 -0.00135670281238)
(3.72022550033e-05 -9.43120211467e-05 -0.00133848302995)
(4.82750787329e-05 -9.16975416361e-05 -0.00131389887201)
(5.8394376239e-05 -8.84762925485e-05 -0.00128402616324)
(6.74251952689e-05 -8.47207803205e-05 -0.00125066221279)
(7.51223238584e-05 -8.08032080449e-05 -0.00121615254154)
(-7.19826686886e-05 -7.79233786608e-05 -0.00126048311638)
(-6.41340735388e-05 -8.07618880256e-05 -0.00129324376789)
(-5.51202173143e-05 -8.34130987415e-05 -0.0013242109196)
(-4.52008296139e-05 -8.56804496668e-05 -0.00135123941621)
(-3.45253240635e-05 -8.74943470039e-05 -0.00137302268082)
(-2.32482340107e-05 -8.8810898603e-05 -0.00138889945286)
(-1.15603423711e-05 -8.96036745061e-05 -0.00139850082753)
(3.34849359631e-07 -8.98589385285e-05 -0.00140162348448)
(1.22263197693e-05 -8.95720905224e-05 -0.00139819874165)
(2.39031024842e-05 -8.87481955627e-05 -0.00138829833523)
(3.51616294411e-05 -8.74012284627e-05 -0.00137212693391)
(4.58110245289e-05 -8.55581023257e-05 -0.00135005854391)
(5.56968997898e-05 -8.32634822578e-05 -0.00132276317718)
(6.46690438201e-05 -8.05852802255e-05 -0.00129152413645)
(7.24606568074e-05 -7.77267245002e-05 -0.00125846312916)
(-6.89092809795e-05 -7.44863616069e-05 -0.0012978325215)
(-6.10543813959e-05 -7.57611345154e-05 -0.00133018024812)
(-5.20577469238e-05 -7.73492652687e-05 -0.00135847133131)
(-4.24180960937e-05 -7.86778019137e-05 -0.00138221033769)
(-3.22279691381e-05 -7.97161742473e-05 -0.00140087010052)
(-2.16089806164e-05 -8.04546556105e-05 -0.00141425790845)
(-1.07020822971e-05 -8.08920773677e-05 -0.00142227011798)
(3.48383189572e-07 -8.10287853384e-05 -0.00142484297733)
(1.13952683045e-05 -8.08647261205e-05 -0.00142195228787)
(2.22914961179e-05 -8.04001766257e-05 -0.00141362419262)
(3.28926070868e-05 -7.96348123991e-05 -0.00139992260061)
(4.30574665119e-05 -7.8569968508e-05 -0.00138095473535)
(5.26644671076e-05 -7.72158696076e-05 -0.00135692598699)
(6.16188088604e-05 -7.56003879113e-05 -0.00132833461326)
(6.94218213545e-05 -7.43045602209e-05 -0.00129574331895)
(4.74257689954e-08 3.62855165122e-08 -8.18069970414e-05)
(7.87006412664e-08 2.45847105168e-08 -8.61302021518e-05)
(1.0342124309e-07 2.45062545549e-08 -9.02234494644e-05)
(1.14906036156e-07 3.51586731845e-08 -9.38607979727e-05)
(1.07450784334e-07 5.26488708237e-08 -9.68667350326e-05)
(8.23957752153e-08 7.06720825218e-08 -9.91067415052e-05)
(4.37864204881e-08 8.38128277003e-08 -0.00010048861299)
(-2.05501103563e-09 8.83292381207e-08 -0.000100957073154)
(-4.78934182894e-08 8.28489991571e-08 -0.000100484571766)
(-8.6628981621e-08 6.86500224423e-08 -9.90986804441e-05)
(-1.12338920473e-07 4.93015554417e-08 -9.68546341585e-05)
(-1.21263327724e-07 3.01149998833e-08 -9.38444671928e-05)
(-1.11785448991e-07 1.7328080292e-08 -9.02022816049e-05)
(-8.90076897761e-08 1.51277876996e-08 -8.61022741685e-05)
(-5.76888208714e-08 2.58464943109e-08 -8.17666273566e-05)
(4.45127901122e-07 4.55490887652e-07 -0.000233775550074)
(5.19702070435e-07 4.90137889623e-07 -0.000245409831395)
(5.63956888434e-07 5.57188936396e-07 -0.000256454168003)
(5.59410852894e-07 6.4759750123e-07 -0.0002662859754)
(4.91417114624e-07 7.47027809285e-07 -0.000274419931534)
(3.64445828601e-07 8.35310288295e-07 -0.000280486063522)
(1.92499584203e-07 8.95592779793e-07 -0.000284229040951)
(-3.54278883238e-09 9.16148538726e-07 -0.000285495033519)
(-1.99694992579e-07 8.92648910178e-07 -0.000284216114323)
(-3.72346557837e-07 8.29083092363e-07 -0.00028046031154)
(-5.01657347276e-07 7.3669403109e-07 -0.000274381356836)
(-5.74528740801e-07 6.32245693867e-07 -0.000266234113535)
(-5.85781062395e-07 5.35655150869e-07 -0.000256387359498)
(-5.48043668035e-07 4.62379714775e-07 -0.000245322603458)
(-4.74803684625e-07 4.24789218387e-07 -0.000233654559393)
(1.02893033342e-06 1.0721021297e-06 -0.000373323354422)
(1.11743046802e-06 1.18620260951e-06 -0.000391023304541)
(1.14704994552e-06 1.34856343964e-06 -0.000407844692747)
(1.09199016839e-06 1.53809615324e-06 -0.000422837086215)
(9.32867289162e-07 1.72997639147e-06 -0.000435250020076)
(6.78333013737e-07 1.89315895932e-06 -0.000444512217989)
(3.5154701888e-07 2.0017259435e-06 -0.000450227739973)
(-1.3853871067e-08 2.03810929014e-06 -0.000452158044507)
(-3.79123528213e-07 1.99590486547e-06 -0.000450205212629)
(-7.05912858317e-07 1.88126128543e-06 -0.000444467376121)
(-9.61654112104e-07 1.71144426093e-06 -0.000435182968007)
(-1.12423148824e-06 1.51233841384e-06 -0.000422747284017)
(-1.18457558698e-06 1.31518204755e-06 -0.00040772990072)
(-1.16002992127e-06 1.14577366348e-06 -0.00039087569885)
(-1.07099931743e-06 1.02862116747e-06 -0.000373124175974)
(1.67712485904e-06 1.76565939368e-06 -0.000500964129534)
(1.7547928944e-06 1.96187842592e-06 -0.000523573365434)
(1.74807136806e-06 2.2163199656e-06 -0.000545071480334)
(1.62550725198e-06 2.49580788462e-06 -0.000564252781219)
(1.36582586141e-06 2.76771318582e-06 -0.00058014588116)
(9.81775725019e-07 2.99346191822e-06 -0.000592010847142)
(5.04161699682e-07 3.14144948807e-06 -0.000599333164117)
(-2.33235758845e-08 3.1905523963e-06 -0.000601803255824)
(-5.50508343573e-07 3.13315990231e-06 -0.000599300371582)
(-1.02759059191e-06 2.9767161132e-06 -0.00059194564902)
(-1.41186947128e-06 2.74220678739e-06 -0.000580048626005)
(-1.67359702292e-06 2.46134801503e-06 -0.000564123157248)
(-1.79984596101e-06 2.17319111743e-06 -0.000544907277965)
(-1.81007027632e-06 1.91129589935e-06 -0.000523365718477)
(-1.73026319345e-06 1.71208108154e-06 -0.000500691386014)
(2.2854480558e-06 2.41710834366e-06 -0.000617198814425)
(2.33175248779e-06 2.67652722505e-06 -0.000643644543566)
(2.27590210539e-06 2.9985348256e-06 -0.000668796184112)
(2.08175899267e-06 3.34067567587e-06 -0.000691261414396)
(1.72841048794e-06 3.66568564977e-06 -0.000709890031344)
(1.2319653354e-06 3.93129930738e-06 -0.00072380427367)
(6.28516112609e-07 4.10364665089e-06 -0.000732392218945)
(-3.18110061401e-08 4.16037166447e-06 -0.000735286341891)
(-6.91741354374e-07 4.09350715454e-06 -0.000732348494275)
(-1.29432558777e-06 3.91094412572e-06 -0.00072371746931)
(-1.79030601006e-06 3.63501448956e-06 -0.000709760929148)
(-2.14455882355e-06 3.299807338e-06 -0.000691090301421)
(-2.34091314946e-06 2.94820809307e-06 -0.000668581540086)
(-2.39876662918e-06 2.61838354017e-06 -0.00064337745402)
(-2.348937548e-06 2.35584557628e-06 -0.000616856298161)
(2.79688067707e-06 2.96138767646e-06 -0.000722521401019)
(2.79724580719e-06 3.25836244007e-06 -0.000751813968658)
(2.68669884039e-06 3.61733436215e-06 -0.000779677094113)
(2.42513120915e-06 3.99093112e-06 -0.000804592623082)
(1.99368445214e-06 4.33988683211e-06 -0.000825270089496)
(1.41085471048e-06 4.62166486631e-06 -0.000840722593764)
(7.15505147653e-07 4.80297534544e-06 -0.00085026101143)
(-3.94836149993e-08 4.86214836422e-06 -0.00085347237582)
(-7.94026095924e-07 4.79152912261e-06 -0.000850205689228)
(-1.48831158654e-06 4.59877183964e-06 -0.000840612949466)
(-2.070175547e-06 4.30560718409e-06 -0.000825107555322)
(-2.50158599413e-06 3.94561861921e-06 -0.000804378479526)
(-2.76403863829e-06 3.56204142034e-06 -0.000779411133288)
(-2.87516713882e-06 3.19494115987e-06 -0.000751487880496)
(-2.87016612788e-06 2.89463090911e-06 -0.000722111433587)
(3.18627122669e-06 3.37079844101e-06 -0.000817423886216)
(3.13222861153e-06 3.68092085159e-06 -0.000848657208903)
(2.96699360282e-06 4.04855041878e-06 -0.00087837347957)
(2.64700401819e-06 4.42592079974e-06 -0.00090497967669)
(2.1566940395e-06 4.77372396481e-06 -0.000927078941186)
(1.51595607922e-06 5.05172130033e-06 -0.000943601830283)
(7.64099777242e-07 5.22923862234e-06 -0.000953801627563)
(-4.64699539629e-08 5.28661159674e-06 -0.000957232247506)
(-8.56573118179e-07 5.21696868826e-06 -0.000953734053557)
(-1.60724944735e-06 5.02724017362e-06 -0.000943468136417)
(-2.24665590869e-06 4.73721300345e-06 -0.000926881430521)
(-2.73614498836e-06 4.37789490824e-06 -0.00090472100193)
(-3.05585190805e-06 3.99025876041e-06 -0.0008780552813)
(-3.220363861e-06 3.61430172741e-06 -0.000848272130595)
(-3.26883189312e-06 3.30054502168e-06 -0.000816947609412)
(3.44856208088e-06 3.64091647399e-06 -0.000902396959457)
(3.33718847575e-06 3.94476759804e-06 -0.000934749699017)
(3.12125195166e-06 4.29874510976e-06 -0.000965546510126)
(2.75427075543e-06 4.65867825363e-06 -0.000993158902469)
(2.22487176797e-06 4.98656022279e-06 -0.00101611217953)
(1.55342399547e-06 5.2461501317e-06 -0.00103327946617)
(7.7774442391e-07 5.41066710798e-06 -0.00104387635319)
(-5.28217581644e-08 5.46322970723e-06 -0.0010474364775)
(-8.82920355289e-07 5.39800625328e-06 -0.00104379587727)
(-1.65736526478e-06 5.22092973469e-06 -0.00103312050824)
(-2.32722524255e-06 4.94904080315e-06 -0.001015878109)
(-2.85517198988e-06 4.60948061117e-06 -0.000992854076123)
(-3.2208587369e-06 4.23920623305e-06 -0.000965174843793)
(-3.4349323448e-06 3.87682505685e-06 -0.000934304886413)
(-3.53995389169e-06 3.56897088106e-06 -0.0009018542683)
(3.5916556593e-06 3.78213465267e-06 -0.000977934911564)
(3.42445822847e-06 4.0665077416e-06 -0.00101067426121)
(3.16415727868e-06 4.3915257727e-06 -0.00104186795149)
(2.76227963412e-06 4.719696389e-06 -0.00106987778642)
(2.21213008569e-06 5.01524645245e-06 -0.00109317458829)
(1.53379635226e-06 5.24699658304e-06 -0.00111059920782)
(7.62103100945e-07 5.39270175401e-06 -0.00112135123813)
(-5.85659378578e-08 5.43861625462e-06 -0.00112495838727)
(-8.7877823737e-07 5.38003192401e-06 -0.00112125719424)
(-1.64922364201e-06 5.22178300475e-06 -0.00111041370967)
(-2.32580059883e-06 4.97779522044e-06 -0.00109290221572)
(-2.87401515289e-06 4.67067220155e-06 -0.00106952485995)
(-3.273774252e-06 4.33226944426e-06 -0.00104144097776)
(-3.53123883305e-06 3.99883355411e-06 -0.00101016786413)
(-3.69149798802e-06 3.71007055672e-06 -0.000977324187839)
(3.63109381317e-06 3.81339160557e-06 -0.00104454783894)
(3.41250304651e-06 4.07084654595e-06 -0.00107703881493)
(3.11513823843e-06 4.35796961224e-06 -0.00110804086488)
(2.68987852955e-06 4.64585683126e-06 -0.00113591530389)
(2.13483370331e-06 4.90190322128e-06 -0.00115909836757)
(1.46916703888e-06 5.10059795113e-06 -0.00117642701352)
(7.23598104848e-07 5.22443579308e-06 -0.00118711066423)
(-6.37144569689e-08 5.2628036861e-06 -0.00119068818466)
(-8.50590494909e-07 5.21209883218e-06 -0.00118700234717)
(-1.59493280406e-06 5.07605723565e-06 -0.00117621357053)
(-2.25875701958e-06 4.86547146626e-06 -0.00115878564875)
(-2.81153176713e-06 4.59818579791e-06 -0.00113551175736)
(-3.23405358594e-06 4.30032048305e-06 -0.00110755580654)
(-3.52779220409e-06 4.00481754563e-06 -0.00107646748924)
(-3.73903119831e-06 3.74253297822e-06 -0.00104386550883)
(3.58585390187e-06 3.75743322785e-06 -0.00110278454593)
(3.32177239639e-06 3.98488399946e-06 -0.00113450937695)
(2.99456437506e-06 4.2298156576e-06 -0.00116483692257)
(2.55620419048e-06 4.47293366221e-06 -0.00119211715845)
(2.00931252955e-06 4.68600032161e-06 -0.00121477402413)
(1.37147506355e-06 4.84945150775e-06 -0.00123167824466)
(6.68529842935e-07 4.95034177939e-06 -0.0012420822672)
(-6.82840049054e-08 4.98094461847e-06 -0.00124555717866)
(-8.04686766412e-07 4.93863114243e-06 -0.00124195892425)
(-1.50645254268e-06 4.82615871925e-06 -0.00123143527995)
(-2.14243072035e-06 4.65141056357e-06 -0.00121441848723)
(-2.6868615069e-06 4.42763322202e-06 -0.00119165966063)
(-3.12208339796e-06 4.17490311744e-06 -0.00116428975114)
(-3.4451058452e-06 3.92166447944e-06 -0.00113386796551)
(-3.70160680005e-06 3.68884117275e-06 -0.00110202454749)
(3.47530654683e-06 3.63723025978e-06 -0.00115327118298)
(3.17190132278e-06 3.83405412409e-06 -0.00118386715361)
(2.82152748943e-06 4.0348067562e-06 -0.00121315680033)
(2.3790390455e-06 4.23089285555e-06 -0.00123944793976)
(1.85070941101e-06 4.39980877279e-06 -0.00126119317033)
(1.25176864796e-06 4.52782701849e-06 -0.00127735411915)
(6.02721096211e-07 4.60606789196e-06 -0.00128727012081)
(-7.22917845994e-08 4.62912463509e-06 -0.00129057000706)
(-7.46920968356e-07 4.59524233876e-06 -0.00128713099042)
(-1.39485617352e-06 4.50627923859e-06 -0.00127707992303)
(-1.99198658233e-06 4.36776629341e-06 -0.00126079187732)
(-2.51780191207e-06 4.18883023479e-06 -0.00123893215142)
(-2.95696901532e-06 3.98359809952e-06 -0.00121254197127)
(-3.30286562331e-06 3.77465439165e-06 -0.00118314868753)
(-3.59868097944e-06 3.57194546534e-06 -0.00115242480445)
(3.31701449319e-06 3.47358245733e-06 -0.00119677399952)
(2.98039840122e-06 3.63907637523e-06 -0.00122610733604)
(2.61337384009e-06 3.79390707007e-06 -0.00125412127512)
(2.17479739534e-06 3.94164107378e-06 -0.00127905817588)
(1.67305175614e-06 4.0667733343e-06 -0.00129949828323)
(1.12029107457e-06 4.16065817263e-06 -0.00131458278361)
(5.31549764863e-07 4.21744334992e-06 -0.00132379227703)
(-7.57563780811e-08 4.23355942567e-06 -0.00132684130024)
(-6.82715371823e-07 4.20771162973e-06 -0.00132363673432)
(-1.27043724534e-06 4.14125617261e-06 -0.00131427576018)
(-1.82149368604e-06 4.03787044817e-06 -0.00129904804479)
(-2.32079498038e-06 3.90354572808e-06 -0.00127847869962)
(-2.75606359499e-06 3.7472119895e-06 -0.00125343143601)
(-3.11855835573e-06 3.5843661573e-06 -0.00122530356859)
(-3.44780441372e-06 3.41264272007e-06 -0.00119583216304)
(3.12666155378e-06 3.2833096994e-06 -0.00123429870299)
(2.76416446058e-06 3.41686094788e-06 -0.00126261806115)
(2.38772000968e-06 3.52194866238e-06 -0.00128919043139)
(1.96002276546e-06 3.6206263451e-06 -0.00131234797213)
(1.49029739955e-06 3.70339071935e-06 -0.0013310239352)
(9.86981650876e-07 3.76522942982e-06 -0.00134465474152)
(4.60173081023e-07 3.80229564416e-06 -0.00135291570077)
(-7.87220202207e-08 3.81212011004e-06 -0.00135563089562)
(-6.1731501091e-07 3.79379408589e-06 -0.0013527436128)
(-1.14320843715e-06 3.74825043999e-06 -0.00134431410719)
(-1.64498665591e-06 3.678008266e-06 -0.00133052219203)
(-2.1124823884e-06 3.58697448662e-06 -0.00131169882774)
(-2.53707351943e-06 3.48033358621e-06 -0.00128841567866)
(-2.90912051629e-06 3.36745908882e-06 -0.0012617192678)
(-3.26469202572e-06 3.22746721897e-06 -0.00123325616552)
(2.91817261367e-06 3.106797175e-06 -0.0012673963101)
(2.54328786281e-06 3.17899963454e-06 -0.00129561084037)
(2.16319489311e-06 3.2295242009e-06 -0.00132025812783)
(1.75138726714e-06 3.27849161913e-06 -0.0013409754651)
(1.31568906095e-06 3.31972846497e-06 -0.00135729829078)
(8.61003187739e-07 3.35064652462e-06 -0.00136903476518)
(3.93188956844e-07 3.36888584559e-06 -0.00137607737201)
(-8.13095050306e-08 3.372791148e-06 -0.00137836850616)
(-5.55542209286e-07 3.36179560169e-06 -0.00137589022194)
(-1.02254706266e-06 3.3364779369e-06 -0.00136866297477)
(-1.47584877026e-06 3.29846418427e-06 -0.00135674707807)
(-1.90952660862e-06 3.25015635497e-06 -0.00134025518556)
(-2.31854157266e-06 3.19415493031e-06 -0.00131939094524)
(-2.69440243714e-06 3.13629791483e-06 -0.00129459452401)
(-3.06354292874e-06 3.05759328178e-06 -0.00126627795004)
(7.75000208223e-10 9.59778563699e-10 -7.93155633685e-05)
(-4.23644669082e-09 4.65580570964e-09 -8.3565190161e-05)
(-8.61199341034e-09 6.61762553653e-09 -8.7616460725e-05)
(-1.15971706396e-08 6.80789809002e-09 -9.12370580386e-05)
(-1.20977684638e-08 5.77731923031e-09 -9.42389787835e-05)
(-1.01111743673e-08 4.25576027833e-09 -9.6480748047e-05)
(-6.27153330107e-09 2.94335987252e-09 -9.78651491408e-05)
(-1.49167851086e-09 2.3652695008e-09 -9.8334104093e-05)
(3.3381380196e-09 2.7197838316e-09 -9.78591904274e-05)
(7.40354655258e-09 3.87593005936e-09 -9.64688510445e-05)
(1.00311213681e-08 5.43874616509e-09 -9.42211568802e-05)
(1.08039549358e-08 6.81904782925e-09 -9.1213222219e-05)
(9.447373508e-09 7.28882274085e-09 -8.75861539589e-05)
(6.59386757492e-09 6.36690277154e-09 -8.35264747437e-05)
(2.14495553137e-09 3.37671115294e-09 -7.92618100058e-05)
(-1.92165274984e-08 -3.14543063121e-08 -0.000227498179073)
(-3.4837201345e-08 -2.62900305241e-08 -0.00023902310351)
(-4.81597107204e-08 -2.51992527275e-08 -0.000250049921983)
(-5.5812083078e-08 -2.86314850379e-08 -0.000259926026139)
(-5.47705966631e-08 -3.50513741373e-08 -0.000268127259126)
(-4.5228379733e-08 -4.19669428097e-08 -0.000274258434024)
(-2.92960619717e-08 -4.72950623481e-08 -0.000278046280331)
(-9.97332586797e-09 -4.94642315453e-08 -0.000279326594003)
(9.69055507817e-09 -4.77973275396e-08 -0.000278027987977)
(2.69008933489e-08 -4.26415492307e-08 -0.000274221949167)
(3.93851662994e-08 -3.5182470295e-08 -0.000268072684622)
(4.56978093236e-08 -2.72559766981e-08 -0.000259853181538)
(4.51070123799e-08 -2.10951611459e-08 -0.000249957535524)
(3.90949390568e-08 -1.83680384016e-08 -0.000238905597938)
(2.80505396013e-08 -2.08808037612e-08 -0.000227340075703)
(-6.75518887044e-08 -7.70612667801e-08 -0.000364196815106)
(-8.71658021771e-08 -7.78564151162e-08 -0.000381827940289)
(-1.00918901565e-07 -8.524256051e-08 -0.000398728437919)
(-1.04900158354e-07 -9.81002754958e-08 -0.000413888175504)
(-9.55652076673e-08 -1.13581386332e-07 -0.000426490891043)
(-7.37394723363e-08 -1.27989391923e-07 -0.000435919653243)
(-4.25896270205e-08 -1.38146605929e-07 -0.000441746047079)
(-6.53250052488e-09 -1.41784850967e-07 -0.000443712487105)
(2.97277964076e-08 -1.38007126892e-07 -0.000441714580564)
(6.17228615075e-08 -1.27455008086e-07 -0.00043585695041)
(8.57334042627e-08 -1.12098564516e-07 -0.000426397266228)
(9.93096021795e-08 -9.49073852835e-08 -0.000413763619355)
(1.01296512581e-07 -7.95109107427e-08 -0.000398571440277)
(9.37832301415e-08 -6.8731081421e-08 -0.000381630767645)
(7.77139282541e-08 -6.56109170408e-08 -0.000363937904058)
(-1.29829222774e-07 -1.40889817545e-07 -0.000489862731129)
(-1.51559654e-07 -1.50763118554e-07 -0.00051250657707)
(-1.63726493323e-07 -1.68947813071e-07 -0.000534236132177)
(-1.61893599758e-07 -1.92662543045e-07 -0.000553754198038)
(-1.42350625518e-07 -2.18081945694e-07 -0.000569996789294)
(-1.06530446549e-07 -2.40387293352e-07 -0.000582157086477)
(-5.85830743881e-08 -2.55524406625e-07 -0.000589672978257)
(-4.23762964496e-09 -2.60658818047e-07 -0.000592206781984)
(5.02358659128e-08 -2.54707701953e-07 -0.000589628131972)
(9.8772982009e-08 -2.38541373381e-07 -0.000582067813501)
(1.36266298415e-07 -2.14779114002e-07 -0.000569863740283)
(1.59277383174e-07 -1.87352981266e-07 -0.000553577772066)
(1.66220788074e-07 -1.61099432276e-07 -0.000534015104673)
(1.59614957083e-07 -1.39874889477e-07 -0.000512232407926)
(1.40985013463e-07 -1.28082023152e-07 -0.000489510682015)
(-1.98622870249e-07 -2.13588384743e-07 -0.000604900754558)