/*--------------------------------*- C++ -*----------------------------------*\
  =========                 |
  \\      /  F ield         | OpenFOAM: The Open Source CFD Toolbox
   \\    /   O peration     | Website:  https://openfoam.org
    \\  /    A nd           | Version:  7
     \\/     M anipulation  |
\*---------------------------------------------------------------------------*/
FoamFile
{
    version     2.0;
    format      ascii;
    class       volScalarField;
    location    "1.32";
    object      p;
}
// * * * * * * * * * * * * * * * * * * * * * * * * * * * * * * * * * * * * * //

dimensions      [0 2 -2 0 0 0 0];

internalField   nonuniform List<scalar> 
22500
(
-2.12159395455e-05
-2.12143431132e-05
-2.12125605534e-05
-2.12107159895e-05
-2.12091099906e-05
-2.12078800221e-05
-2.12071138804e-05
-2.12068595411e-05
-2.12071364583e-05
-2.12079249973e-05
-2.12091777256e-05
-2.12108067572e-05
-2.12126772932e-05
-2.12144841559e-05
-2.12161390054e-05
-2.12080297963e-05
-2.12060896252e-05
-2.12039540525e-05
-2.12017622215e-05
-2.11998420569e-05
-2.11983633041e-05
-2.11974381014e-05
-2.11971296092e-05
-2.11974617153e-05
-2.11984103729e-05
-2.11999128883e-05
-2.12018572466e-05
-2.12040760315e-05
-2.12062369244e-05
-2.12082343579e-05
-2.1200968346e-05
-2.11987691035e-05
-2.1196372527e-05
-2.11939163639e-05
-2.11917533376e-05
-2.11900793599e-05
-2.1189028032e-05
-2.11886761601e-05
-2.11890519492e-05
-2.11901270479e-05
-2.1191825062e-05
-2.11940126161e-05
-2.11964960836e-05
-2.11989177639e-05
-2.12011740566e-05
-2.11951717794e-05
-2.11928056848e-05
-2.11902319856e-05
-2.11875971519e-05
-2.11852656956e-05
-2.11834544003e-05
-2.11823134164e-05
-2.11819305287e-05
-2.11823374463e-05
-2.118350232e-05
-2.11853376985e-05
-2.11876936477e-05
-2.11903556742e-05
-2.11929537192e-05
-2.11953764303e-05
-2.11902754621e-05
-2.11878153018e-05
-2.11851272031e-05
-2.11823790096e-05
-2.11799364833e-05
-2.11780331232e-05
-2.11768313827e-05
-2.11764274469e-05
-2.11768555666e-05
-2.117808133e-05
-2.11800088255e-05
-2.11824757531e-05
-2.11852507143e-05
-2.11879623601e-05
-2.11904785007e-05
-2.11861450729e-05
-2.11836588467e-05
-2.11809168359e-05
-2.11781169083e-05
-2.11756185482e-05
-2.11736671677e-05
-2.11724331058e-05
-2.11720179376e-05
-2.11724574563e-05
-2.11737156978e-05
-2.11756912487e-05
-2.1178213898e-05
-2.11810399087e-05
-2.11838048931e-05
-2.11863466643e-05
-2.11827558886e-05
-2.11803069542e-05
-2.11775697997e-05
-2.11747775607e-05
-2.11722777587e-05
-2.11703222114e-05
-2.11690843688e-05
-2.11686678747e-05
-2.11691089337e-05
-2.11703711461e-05
-2.11723509305e-05
-2.11748749073e-05
-2.11776924781e-05
-2.1180452062e-05
-2.11829563487e-05
-2.11800760322e-05
-2.11777167579e-05
-2.1175036897e-05
-2.11723055905e-05
-2.11698546642e-05
-2.11679361869e-05
-2.11667216573e-05
-2.11663133017e-05
-2.11667465168e-05
-2.11679856815e-05
-2.11699285532e-05
-2.11724036043e-05
-2.11751595165e-05
-2.11778615029e-05
-2.11802759959e-05
-2.11780494694e-05
-2.11758165271e-05
-2.11732367429e-05
-2.11706116281e-05
-2.11682543994e-05
-2.11664105425e-05
-2.11652443008e-05
-2.11648528549e-05
-2.11652695856e-05
-2.11664608785e-05
-2.11683294336e-05
-2.11707109244e-05
-2.11733600789e-05
-2.11759620259e-05
-2.11782501989e-05
-2.11765985696e-05
-2.11745096914e-05
-2.11720620423e-05
-2.11695810229e-05
-2.11673573379e-05
-2.116562226e-05
-2.11645271746e-05
-2.11641607144e-05
-2.11645530717e-05
-2.11656738328e-05
-2.11674341726e-05
-2.11696825296e-05
-2.11721873871e-05
-2.11746576927e-05
-2.11768021579e-05
-2.11756221716e-05
-2.11736727076e-05
-2.11713792798e-05
-2.11690755257e-05
-2.11670224999e-05
-2.11654282662e-05
-2.11644257906e-05
-2.11640918593e-05
-2.11644525246e-05
-2.11654815632e-05
-2.11671019653e-05
-2.11691805206e-05
-2.11715084438e-05
-2.11738256522e-05
-2.11758318081e-05
-2.11749905631e-05
-2.11731496802e-05
-2.11710257835e-05
-2.11689331407e-05
-2.11670889735e-05
-2.1165667883e-05
-2.11647790656e-05
-2.11644850606e-05
-2.11648068598e-05
-2.11657234413e-05
-2.11671720343e-05
-2.1169043158e-05
-2.11711610374e-05
-2.11733105608e-05
-2.11752100912e-05
-2.11745174852e-05
-2.11727282679e-05
-2.11707976484e-05
-2.11689648456e-05
-2.11673768027e-05
-2.11661652841e-05
-2.11654128449e-05
-2.11651663121e-05
-2.11654418722e-05
-2.11662234923e-05
-2.11674643277e-05
-2.11690814726e-05
-2.11709415757e-05
-2.11729003271e-05
-2.11747502144e-05
-2.11737702272e-05
-2.11720048792e-05
-2.1170391261e-05
-2.11689260652e-05
-2.1167675762e-05
-2.11667298795e-05
-2.11661461931e-05
-2.11659580109e-05
-2.11661764826e-05
-2.11667909983e-05
-2.11677684408e-05
-2.11690509006e-05
-2.11705469094e-05
-2.11721929242e-05
-2.11740172583e-05
-2.11715748087e-05
-2.11704708203e-05
-2.11694777648e-05
-2.11685724216e-05
-2.11677916944e-05
-2.11671989583e-05
-2.11668348161e-05
-2.11667215711e-05
-2.11668672319e-05
-2.11672646904e-05
-2.11678922063e-05
-2.11687096251e-05
-2.11696525725e-05
-2.11706855867e-05
-2.11718385587e-05
-1.93986330764e-05
-1.93986854916e-05
-1.93987117628e-05
-1.93987318701e-05
-1.93987442607e-05
-1.93987517916e-05
-1.93987556913e-05
-1.93987571535e-05
-1.93987561608e-05
-1.93987530881e-05
-1.93987472541e-05
-1.93987372775e-05
-1.9398718955e-05
-1.93986925703e-05
-1.93986389048e-05
-1.93985411766e-05
-1.9398591643e-05
-1.93986227172e-05
-1.93986498852e-05
-1.93986684788e-05
-1.93986806322e-05
-1.93986874279e-05
-1.93986900208e-05
-1.93986883119e-05
-1.93986827835e-05
-1.93986727477e-05
-1.93986570472e-05
-1.93986322331e-05
-1.93986007817e-05
-1.93985492472e-05
-1.93982402521e-05
-1.93982731469e-05
-1.93982915191e-05
-1.93983101685e-05
-1.93983216427e-05
-1.93983285249e-05
-1.93983321044e-05
-1.93983337276e-05
-1.9398333304e-05
-1.93983312338e-05
-1.9398326501e-05
-1.93983177396e-05
-1.93983014701e-05
-1.93982824101e-05
-1.93982493371e-05
-1.93979262775e-05
-1.93979403275e-05
-1.93979418086e-05
-1.93979471392e-05
-1.93979471747e-05
-1.93979454548e-05
-1.93979437284e-05
-1.93979436556e-05
-1.93979452156e-05
-1.9397948656e-05
-1.93979525102e-05
-1.93979549373e-05
-1.93979518919e-05
-1.93979496666e-05
-1.93979364653e-05
-1.93976271775e-05
-1.93976235303e-05
-1.93976071586e-05
-1.93975977067e-05
-1.9397585041e-05
-1.93975736976e-05
-1.93975660317e-05
-1.93975640309e-05
-1.93975677823e-05
-1.93975773757e-05
-1.93975909032e-05
-1.93976059206e-05
-1.93976175386e-05
-1.93976331733e-05
-1.93976386113e-05
-1.93973367144e-05
-1.93973171191e-05
-1.93972826863e-05
-1.93972584014e-05
-1.93972331145e-05
-1.93972123279e-05
-1.93971989003e-05
-1.93971950455e-05
-1.93972009149e-05
-1.93972164973e-05
-1.93972395601e-05
-1.93972671507e-05
-1.9397293525e-05
-1.93973271137e-05
-1.93973497007e-05
-1.93970570839e-05
-1.93970233762e-05
-1.93969717311e-05
-1.93969337463e-05
-1.93968971584e-05
-1.9396868176e-05
-1.93968498746e-05
-1.9396844467e-05
-1.93968521203e-05
-1.9396872779e-05
-1.93969041501e-05
-1.93969430392e-05
-1.93969830931e-05
-1.93970337708e-05
-1.93970716589e-05
-1.93967920673e-05
-1.93967456577e-05
-1.93966781917e-05
-1.93966282464e-05
-1.9396582501e-05
-1.93965473224e-05
-1.93965255596e-05
-1.93965190927e-05
-1.93965280134e-05
-1.93965523226e-05
-1.93965900041e-05
-1.93966380831e-05
-1.93966900458e-05
-1.93967565687e-05
-1.93968081367e-05
-1.93965419741e-05
-1.93964833173e-05
-1.93964012816e-05
-1.93963414283e-05
-1.93962891017e-05
-1.93962500911e-05
-1.93962265014e-05
-1.93962195382e-05
-1.93962291111e-05
-1.93962553992e-05
-1.93962970239e-05
-1.93963517682e-05
-1.93964136201e-05
-1.93964947917e-05
-1.93965596984e-05
-1.9396303332e-05
-1.93962306784e-05
-1.93961348613e-05
-1.93960671936e-05
-1.93960109646e-05
-1.93959705401e-05
-1.93959467485e-05
-1.93959398475e-05
-1.93959494697e-05
-1.93959760723e-05
-1.93960192197e-05
-1.9396077962e-05
-1.93961476492e-05
-1.93962427645e-05
-1.93963227403e-05
-1.93960679056e-05
-1.93959765035e-05
-1.93958673654e-05
-1.93957942378e-05
-1.93957369958e-05
-1.93956975537e-05
-1.93956751092e-05
-1.93956687595e-05
-1.93956778763e-05
-1.93957031861e-05
-1.93957454401e-05
-1.93958053403e-05
-1.93958805728e-05
-1.93959892652e-05
-1.93960892036e-05
-1.93958226872e-05
-1.93957044385e-05
-1.93955830552e-05
-1.93955079554e-05
-1.93954531584e-05
-1.93954172525e-05
-1.93953975802e-05
-1.93953922531e-05
-1.93954002955e-05
-1.93954228244e-05
-1.93954615747e-05
-1.93955191875e-05
-1.93955965503e-05
-1.93957178966e-05
-1.93958458046e-05
-1.93955436474e-05
-1.93953884795e-05
-1.93952604453e-05
-1.9395190825e-05
-1.93951438318e-05
-1.93951146837e-05
-1.9395099491e-05
-1.93950955612e-05
-1.93951020446e-05
-1.93951199027e-05
-1.93951518675e-05
-1.93952017798e-05
-1.9395273928e-05
-1.93954024198e-05
-1.93955682423e-05
-1.93951575012e-05
-1.9394970653e-05
-1.93948651259e-05
-1.93948198916e-05
-1.93947920022e-05
-1.93947760222e-05
-1.93947683608e-05
-1.93947668816e-05
-1.93947705794e-05
-1.93947805967e-05
-1.93947991503e-05
-1.93948300308e-05
-1.93948780341e-05
-1.93949849954e-05
-1.93951826968e-05
-1.93945417823e-05
-1.93944529975e-05
-1.93944201052e-05
-1.93944176612e-05
-1.93944160907e-05
-1.93944161375e-05
-1.93944171564e-05
-1.93944182324e-05
-1.93944190854e-05
-1.93944199939e-05
-1.93944221878e-05
-1.93944266181e-05
-1.93944325158e-05
-1.93944683288e-05
-1.93945663175e-05
-1.89542816038e-05
-1.8954170091e-05
-1.89540393907e-05
-1.89539114345e-05
-1.89537956627e-05
-1.89537060221e-05
-1.89536497753e-05
-1.89536311755e-05
-1.89536517008e-05
-1.89537095795e-05
-1.89538002353e-05
-1.89539162551e-05
-1.89540460011e-05
-1.89541757747e-05
-1.8954287852e-05
-1.8954098344e-05
-1.89539862923e-05
-1.89538548197e-05
-1.89537258332e-05
-1.89536092879e-05
-1.89535188634e-05
-1.89534620785e-05
-1.89534433717e-05
-1.89534643876e-05
-1.89535231976e-05
-1.89536149951e-05
-1.89537321489e-05
-1.89538627725e-05
-1.89539937678e-05
-1.89541061953e-05
-1.89540502882e-05
-1.89539486913e-05
-1.89538269073e-05
-1.89537065234e-05
-1.89535971138e-05
-1.89535118057e-05
-1.89534580367e-05
-1.89534403254e-05
-1.89534603918e-05
-1.89535162566e-05
-1.89536030754e-05
-1.89537132829e-05
-1.8953835075e-05
-1.89539565473e-05
-1.89540587864e-05
-1.89540397259e-05
-1.89539488112e-05
-1.89538363495e-05
-1.89537252496e-05
-1.89536237149e-05
-1.89535442264e-05
-1.89534939342e-05
-1.89534773566e-05
-1.89534962442e-05
-1.89535486249e-05
-1.89536297301e-05
-1.89537322206e-05
-1.89538445605e-05
-1.89539566095e-05
-1.89540489068e-05
-1.89540343099e-05
-1.89539529741e-05
-1.89538485859e-05
-1.89537464437e-05
-1.89536526547e-05
-1.89535790404e-05
-1.89535323752e-05
-1.89535170161e-05
-1.89535346704e-05
-1.89535834221e-05
-1.89536586988e-05
-1.89537535458e-05
-1.89538568909e-05
-1.89539607329e-05
-1.89540441299e-05
-1.89540390118e-05
-1.8953966973e-05
-1.89538706284e-05
-1.89537776332e-05
-1.89536920437e-05
-1.89536248193e-05
-1.89535821775e-05
-1.89535681875e-05
-1.89535844555e-05
-1.89536291823e-05
-1.89536981109e-05
-1.89537848455e-05
-1.89538789811e-05
-1.89539748633e-05
-1.89540493406e-05
-1.8954058197e-05
-1.89539958054e-05
-1.89539074858e-05
-1.89538239251e-05
-1.89537470107e-05
-1.89536866788e-05
-1.89536484627e-05
-1.89536359941e-05
-1.89536507256e-05
-1.89536910144e-05
-1.89537530634e-05
-1.8953831184e-05
-1.89539158383e-05
-1.89540037552e-05
-1.89540691171e-05
-1.8954092217e-05
-1.89540392913e-05
-1.89539587338e-05
-1.89538846113e-05
-1.89538166472e-05
-1.89537635659e-05
-1.89537300686e-05
-1.89537192344e-05
-1.89537323134e-05
-1.89537678702e-05
-1.89538226863e-05
-1.89538919252e-05
-1.8953967123e-05
-1.89540473187e-05
-1.89541038197e-05
-1.89541397905e-05
-1.89540952654e-05
-1.89540218605e-05
-1.89539568211e-05
-1.89538977764e-05
-1.89538520554e-05
-1.89538234146e-05
-1.89538142718e-05
-1.89538256299e-05
-1.89538563111e-05
-1.89539037706e-05
-1.89539641582e-05
-1.89540302947e-05
-1.89541033992e-05
-1.89541520817e-05
-1.89541982748e-05
-1.89541600606e-05
-1.89540927917e-05
-1.89540361587e-05
-1.89539857714e-05
-1.89539473471e-05
-1.89539235612e-05
-1.89539161215e-05
-1.89539257441e-05
-1.89539515454e-05
-1.89539917235e-05
-1.89540435273e-05
-1.89541013013e-05
-1.89541683774e-05
-1.89542112955e-05
-1.89542636617e-05
-1.89542285362e-05
-1.8954166068e-05
-1.89541170542e-05
-1.89540749648e-05
-1.89540436238e-05
-1.89540245998e-05
-1.89540188141e-05
-1.89540267353e-05
-1.89540477419e-05
-1.89540808399e-05
-1.89541244308e-05
-1.89541746367e-05
-1.89542370488e-05
-1.89542774493e-05
-1.89543313093e-05
-1.89542945046e-05
-1.8954235322e-05
-1.89541932826e-05
-1.89541591156e-05
-1.89541346034e-05
-1.89541200994e-05
-1.89541159098e-05
-1.89541221566e-05
-1.89541385971e-05
-1.89541648628e-05
-1.89542005932e-05
-1.89542439042e-05
-1.89543031535e-05
-1.89543457204e-05
-1.89543956683e-05
-1.89543507256e-05
-1.89542938604e-05
-1.89542587376e-05
-1.89542321884e-05
-1.89542139156e-05
-1.89542035536e-05
-1.89542006962e-05
-1.89542054972e-05
-1.89542176961e-05
-1.89542376648e-05
-1.89542658403e-05
-1.89543023058e-05
-1.89543594289e-05
-1.8954410614e-05
-1.89544302203e-05
-1.89543747387e-05
-1.89543288562e-05
-1.8954305139e-05
-1.89542879466e-05
-1.89542764894e-05
-1.89542701194e-05
-1.89542686598e-05
-1.89542718974e-05
-1.89542799179e-05
-1.89542930016e-05
-1.89543117829e-05
-1.8954336913e-05
-1.89543833424e-05
-1.89544453715e-05
-1.89543024298e-05
-1.89543147681e-05
-1.8954314019e-05
-1.89543213494e-05
-1.89543255381e-05
-1.89543282738e-05
-1.8954330176e-05
-1.89543313074e-05
-1.89543317553e-05
-1.89543313483e-05
-1.89543300493e-05
-1.89543274116e-05
-1.89543216631e-05
-1.89543233272e-05
-1.8954316638e-05
-1.7434109129e-05
-1.74341590022e-05
-1.74342038832e-05
-1.74342451409e-05
-1.74342797254e-05
-1.74343053482e-05
-1.74343208929e-05
-1.74343254988e-05
-1.74343187656e-05
-1.74343013022e-05
-1.74342743333e-05
-1.74342395793e-05
-1.74341985516e-05
-1.74341545228e-05
-1.74341026425e-05
-1.74341226856e-05
-1.74341720395e-05
-1.74342184317e-05
-1.74342622062e-05
-1.74342988909e-05
-1.74343261182e-05
-1.74343426326e-05
-1.74343475521e-05
-1.74343404188e-05
-1.74343219352e-05
-1.74342933966e-05
-1.74342566938e-05
-1.74342136584e-05
-1.74341681105e-05
-1.74341175729e-05
-1.74340212157e-05
-1.74340613667e-05
-1.74340997263e-05
-1.74341377929e-05
-1.74341699458e-05
-1.74341941499e-05
-1.74342089421e-05
-1.7434213393e-05
-1.74342069721e-05
-1.74341904134e-05
-1.74341650009e-05
-1.74341326757e-05
-1.74340953235e-05
-1.74340572695e-05
-1.74340165482e-05
-1.74339101825e-05
-1.74339415869e-05
-1.74339719138e-05
-1.74340035571e-05
-1.7434030708e-05
-1.74340515199e-05
-1.74340643778e-05
-1.74340683028e-05
-1.74340627121e-05
-1.74340483485e-05
-1.74340264781e-05
-1.74339990599e-05
-1.74339679149e-05
-1.74339376003e-05
-1.74339058771e-05
-1.74338102534e-05
-1.74338345626e-05
-1.74338579747e-05
-1.74338836976e-05
-1.74339062087e-05
-1.74339237487e-05
-1.74339347332e-05
-1.74339381135e-05
-1.7433933311e-05
-1.74339210351e-05
-1.74339025368e-05
-1.7433879726e-05
-1.74338542681e-05
-1.74338307544e-05
-1.74338063155e-05
-1.74337158468e-05
-1.74337343084e-05
-1.7433750935e-05
-1.74337710092e-05
-1.74337889139e-05
-1.74338031949e-05
-1.74338122661e-05
-1.74338150971e-05
-1.74338110882e-05
-1.74338009376e-05
-1.74337858412e-05
-1.74337676196e-05
-1.74337476978e-05
-1.74337306174e-05
-1.74337126041e-05
-1.7433624575e-05
-1.74336376427e-05
-1.74336477542e-05
-1.7433662324e-05
-1.74336756409e-05
-1.74336866216e-05
-1.7433693732e-05
-1.74336959835e-05
-1.74336927689e-05
-1.74336847565e-05
-1.74336730789e-05
-1.74336594273e-05
-1.74336449411e-05
-1.74336340883e-05
-1.74336219371e-05
-1.74335360839e-05
-1.74335439169e-05
-1.74335478688e-05
-1.74335570736e-05
-1.74335659927e-05
-1.74335737791e-05
-1.74335790036e-05
-1.74335806872e-05
-1.74335782467e-05
-1.74335722987e-05
-1.74335639244e-05
-1.74335546739e-05
-1.74335454161e-05
-1.74335405811e-05
-1.74335339071e-05
-1.74334495616e-05
-1.74334523871e-05
-1.74334504241e-05
-1.74334546312e-05
-1.74334595114e-05
-1.7433464364e-05
-1.74334678569e-05
-1.74334690152e-05
-1.74334672762e-05
-1.74334632112e-05
-1.74334578598e-05
-1.74334526596e-05
-1.74334482863e-05
-1.74334492529e-05
-1.74334479498e-05
-1.74333638934e-05
-1.74333613914e-05
-1.74333537654e-05
-1.7433353547e-05
-1.74333549767e-05
-1.7433357385e-05
-1.74333594332e-05
-1.74333601646e-05
-1.74333590102e-05
-1.74333565189e-05
-1.74333537046e-05
-1.7433351957e-05
-1.74333519181e-05
-1.74333584387e-05
-1.74333628421e-05
-1.74332769588e-05
-1.74332683156e-05
-1.74332555197e-05
-1.74332518188e-05
-1.74332507673e-05
-1.74332514322e-05
-1.74332524811e-05
-1.74332529023e-05
-1.74332521727e-05
-1.74332507812e-05
-1.74332497755e-05
-1.74332505554e-05
-1.7433253945e-05
-1.74332656229e-05
-1.74332765979e-05
-1.74331857704e-05
-1.74331696307e-05
-1.743315263e-05
-1.74331470045e-05
-1.74331448197e-05
-1.74331447733e-05
-1.74331453698e-05
-1.74331456838e-05
-1.74331451347e-05
-1.74331442584e-05
-1.74331440397e-05
-1.74331459838e-05
-1.74331513118e-05
-1.74331672564e-05
-1.74331861816e-05
-1.743308363e-05
-1.7433058862e-05
-1.74330402561e-05
-1.74330355572e-05
-1.74330344667e-05
-1.74330350771e-05
-1.74330361193e-05
-1.74330365011e-05
-1.74330359161e-05
-1.74330346412e-05
-1.74330337716e-05
-1.74330347167e-05
-1.74330391529e-05
-1.7433056858e-05
-1.74330848363e-05
-1.74329515454e-05
-1.74329213532e-05
-1.74329094195e-05
-1.74329115619e-05
-1.74329153633e-05
-1.74329193059e-05
-1.74329221115e-05
-1.74329231517e-05
-1.74329219124e-05
-1.74329188165e-05
-1.7432914675e-05
-1.74329107303e-05
-1.74329084344e-05
-1.74329197487e-05
-1.74329536234e-05
-1.74327796592e-05
-1.74327667802e-05
-1.7432771892e-05
-1.7432783567e-05
-1.7432793151e-05
-1.7432800621e-05
-1.74328054714e-05
-1.7432807073e-05
-1.7432805203e-05
-1.74328000425e-05
-1.74327922664e-05
-1.74327825607e-05
-1.74327708713e-05
-1.74327654706e-05
-1.74327815568e-05
-1.67524644195e-05
-1.67524064134e-05
-1.67523413845e-05
-1.67522797467e-05
-1.67522240347e-05
-1.67521804007e-05
-1.67521531678e-05
-1.67521440444e-05
-1.67521535442e-05
-1.67521807404e-05
-1.67522235316e-05
-1.67522786143e-05
-1.67523410662e-05
-1.67524048955e-05
-1.67524640528e-05
-1.67523799151e-05
-1.67523219354e-05
-1.67522565729e-05
-1.67521940825e-05
-1.67521375714e-05
-1.67520933805e-05
-1.67520657602e-05
-1.67520565229e-05
-1.67520662835e-05
-1.6752094028e-05
-1.67521375653e-05
-1.67521934991e-05
-1.67522567558e-05
-1.67523214836e-05
-1.67523804306e-05
-1.67523865838e-05
-1.67523356096e-05
-1.67522767184e-05
-1.67522194791e-05
-1.67521674837e-05
-1.6752126699e-05
-1.67521010869e-05
-1.67520924875e-05
-1.67521015851e-05
-1.67521273702e-05
-1.67521676769e-05
-1.67522191773e-05
-1.67522768682e-05
-1.67523353249e-05
-1.67523870813e-05
-1.67524139777e-05
-1.67523702256e-05
-1.6752317649e-05
-1.67522662064e-05
-1.67522192291e-05
-1.67521823197e-05
-1.67521590013e-05
-1.67521511277e-05
-1.67521594331e-05
-1.67521829421e-05
-1.67522195612e-05
-1.67522661023e-05
-1.67523177362e-05
-1.67523697734e-05
-1.67524144964e-05
-1.67524421532e-05
-1.67524048817e-05
-1.67523578258e-05
-1.67523119981e-05
-1.67522699187e-05
-1.67522367818e-05
-1.67522157649e-05
-1.6752208643e-05
-1.67522161521e-05
-1.67522373607e-05
-1.67522702985e-05
-1.67523119866e-05
-1.67523578728e-05
-1.67524041976e-05
-1.67524427028e-05
-1.6752474236e-05
-1.67524428392e-05
-1.67524013702e-05
-1.67523612076e-05
-1.67523241882e-05
-1.67522950132e-05
-1.67522764424e-05
-1.67522701328e-05
-1.67522767851e-05
-1.67522955408e-05
-1.67523245962e-05
-1.67523612616e-05
-1.67524013606e-05
-1.67524421581e-05
-1.67524746604e-05
-1.67525122668e-05
-1.67524868463e-05
-1.67524508864e-05
-1.67524164435e-05
-1.67523846324e-05
-1.67523595503e-05
-1.67523435536e-05
-1.67523381115e-05
-1.67523438582e-05
-1.67523600215e-05
-1.67523850176e-05
-1.67524165047e-05
-1.67524507662e-05
-1.67524860991e-05
-1.67525126777e-05
-1.67525562627e-05
-1.67525366925e-05
-1.67525060177e-05
-1.67524772388e-05
-1.67524506523e-05
-1.67524297094e-05
-1.67524163413e-05
-1.67524117916e-05
-1.67524166103e-05
-1.67524301276e-05
-1.67524510171e-05
-1.67524773289e-05
-1.67525058743e-05
-1.67525359186e-05
-1.6752556825e-05
-1.67526058147e-05
-1.67525916179e-05
-1.6752565888e-05
-1.67525425064e-05
-1.67525209544e-05
-1.67525040321e-05
-1.67524932525e-05
-1.67524895856e-05
-1.67524934896e-05
-1.67525044038e-05
-1.67525212838e-05
-1.67525426028e-05
-1.67525657431e-05
-1.6752590839e-05
-1.67526065413e-05
-1.67526601318e-05
-1.67526504779e-05
-1.67526292207e-05
-1.67526107752e-05
-1.67525939211e-05
-1.67525808016e-05
-1.67525724726e-05
-1.67525696581e-05
-1.67525726867e-05
-1.67525811346e-05
-1.67525942384e-05
-1.67526109092e-05
-1.67526291367e-05
-1.67526497945e-05
-1.67526610718e-05
-1.6752718136e-05
-1.67527119702e-05
-1.6752694523e-05
-1.67526803779e-05
-1.67526677508e-05
-1.67526580561e-05
-1.67526519802e-05
-1.67526499321e-05
-1.67526521708e-05
-1.67526583584e-05
-1.67526680413e-05
-1.67526805474e-05
-1.675269449e-05
-1.67527113964e-05
-1.67527193196e-05
-1.67527789753e-05
-1.67527747035e-05
-1.67527601231e-05
-1.67527495413e-05
-1.67527404806e-05
-1.67527337832e-05
-1.67527296177e-05
-1.67527282679e-05
-1.67527297863e-05
-1.67527340474e-05
-1.67527407728e-05
-1.67527497277e-05
-1.67527601513e-05
-1.67527741862e-05
-1.67527803212e-05
-1.67528424835e-05
-1.67528376951e-05
-1.67528247987e-05
-1.67528167845e-05
-1.6752810512e-05
-1.67528059711e-05
-1.67528033373e-05
-1.67528024208e-05
-1.67528034763e-05
-1.67528062268e-05
-1.67528107421e-05
-1.67528170102e-05
-1.67528248477e-05
-1.67528372459e-05
-1.67528440036e-05
-1.67529029529e-05
-1.67528956582e-05
-1.67528855788e-05
-1.6752880343e-05
-1.67528762268e-05
-1.67528734258e-05
-1.67528716791e-05
-1.67528711879e-05
-1.67528718124e-05
-1.67528735869e-05
-1.67528764527e-05
-1.67528804828e-05
-1.67528856327e-05
-1.67528952125e-05
-1.675290463e-05
-1.6752906208e-05
-1.67529229468e-05
-1.67529274388e-05
-1.6752932481e-05
-1.67529356398e-05
-1.67529375533e-05
-1.675293865e-05
-1.67529389943e-05
-1.67529387173e-05
-1.67529376677e-05
-1.67529357082e-05
-1.67529325495e-05
-1.67529273899e-05
-1.67529224887e-05
-1.67529075194e-05
-1.53868906567e-05
-1.53869286615e-05
-1.53869666819e-05
-1.53870020674e-05
-1.53870321869e-05
-1.53870547344e-05
-1.53870684145e-05
-1.538707244e-05
-1.53870665251e-05
-1.53870511821e-05
-1.53870275413e-05
-1.53869972937e-05
-1.53869624041e-05
-1.53869259782e-05
-1.53868870585e-05
-1.53869141736e-05
-1.53869522676e-05
-1.53869911959e-05
-1.53870280651e-05
-1.53870594395e-05
-1.53870829149e-05
-1.53870971304e-05
-1.53871012943e-05
-1.53870950836e-05
-1.53870790814e-05
-1.5387054479e-05
-1.53870230718e-05
-1.53869870173e-05
-1.53869496567e-05
-1.53869114561e-05
-1.53868610814e-05
-1.53868931224e-05
-1.53869263338e-05
-1.53869590671e-05
-1.53869871643e-05
-1.53870084558e-05
-1.53870214475e-05
-1.53870252968e-05
-1.5387019619e-05
-1.5387005024e-05
-1.53869826997e-05
-1.53869544614e-05
-1.53869224804e-05
-1.53868902572e-05
-1.53868585566e-05
-1.53867987031e-05
-1.53868245782e-05
-1.53868521462e-05
-1.53868801943e-05
-1.53869046654e-05
-1.53869234764e-05
-1.53869350664e-05
-1.53869385558e-05
-1.53869335121e-05
-1.53869205516e-05
-1.53869008461e-05
-1.53868761948e-05
-1.53868487008e-05
-1.53868218211e-05
-1.53867962349e-05
-1.53867413339e-05
-1.53867619862e-05
-1.53867846229e-05
-1.53868082056e-05
-1.53868291739e-05
-1.53868455007e-05
-1.53868556745e-05
-1.53868587682e-05
-1.53868543481e-05
-1.53868430043e-05
-1.53868258796e-05
-1.53868047042e-05
-1.53867814391e-05
-1.53867593551e-05
-1.53867389438e-05
-1.53866853318e-05
-1.53867015217e-05
-1.53867191564e-05
-1.53867384178e-05
-1.5386755827e-05
-1.53867695855e-05
-1.53867782431e-05
-1.53867809036e-05
-1.53867771232e-05
-1.53867674753e-05
-1.5386753035e-05
-1.53867354224e-05
-1.53867163853e-05
-1.53866989448e-05
-1.53866833135e-05
-1.53866291504e-05
-1.53866409999e-05
-1.53866537639e-05
-1.53866686993e-05
-1.53866824444e-05
-1.5386693518e-05
-1.53867005682e-05
-1.53867027542e-05
-1.53866996337e-05
-1.53866917466e-05
-1.53866800826e-05
-1.53866661106e-05
-1.53866513224e-05
-1.53866384727e-05
-1.53866274007e-05
-1.53865726299e-05
-1.53865801146e-05
-1.53865882429e-05
-1.53865989219e-05
-1.53866090771e-05
-1.53866174793e-05
-1.53866229196e-05
-1.53866246136e-05
-1.53866221473e-05
-1.53866160098e-05
-1.53866070993e-05
-1.53865967143e-05
-1.53865860786e-05
-1.53865777176e-05
-1.53865709972e-05
-1.53865154356e-05
-1.53865188572e-05
-1.53865225552e-05
-1.53865292163e-05
-1.53865359826e-05
-1.53865418407e-05
-1.53865457423e-05
-1.5386546955e-05
-1.53865451033e-05
-1.53865406192e-05
-1.53865343068e-05
-1.53865272998e-05
-1.53865205819e-05
-1.53865165319e-05
-1.53865140181e-05
-1.53864573869e-05
-1.53864567878e-05
-1.53864563273e-05
-1.53864594073e-05
-1.53864631768e-05
-1.53864668125e-05
-1.53864693457e-05
-1.53864701382e-05
-1.53864688237e-05
-1.53864657975e-05
-1.53864617706e-05
-1.53864577391e-05
-1.538645452e-05
-1.53864545128e-05
-1.53864561502e-05
-1.53863977541e-05
-1.53863930967e-05
-1.53863889873e-05
-1.53863891668e-05
-1.53863906099e-05
-1.53863924789e-05
-1.53863939472e-05
-1.53863943917e-05
-1.53863935114e-05
-1.53863916294e-05
-1.53863893999e-05
-1.5386387712e-05
-1.5386387327e-05
-1.53863909264e-05
-1.53863968194e-05
-1.53863354694e-05
-1.53863265798e-05
-1.53863196208e-05
-1.53863179845e-05
-1.53863179738e-05
-1.53863188064e-05
-1.53863195714e-05
-1.53863198236e-05
-1.53863192048e-05
-1.5386318066e-05
-1.53863169485e-05
-1.53863166936e-05
-1.53863181198e-05
-1.53863245756e-05
-1.53863349273e-05
-1.53862673908e-05
-1.53862543943e-05
-1.53862463366e-05
-1.53862446121e-05
-1.53862446714e-05
-1.53862453261e-05
-1.53862460734e-05
-1.5386246235e-05
-1.5386245743e-05
-1.53862447198e-05
-1.53862437387e-05
-1.53862435265e-05
-1.53862450051e-05
-1.53862526339e-05
-1.53862673001e-05
-1.53861850993e-05
-1.53861703461e-05
-1.53861652924e-05
-1.53861667512e-05
-1.5386168917e-05
-1.53861711515e-05
-1.53861726312e-05
-1.53861731451e-05
-1.53861723656e-05
-1.53861705602e-05
-1.53861681416e-05
-1.53861657509e-05
-1.53861641734e-05
-1.53861688993e-05
-1.53861856763e-05
-1.53860946804e-05
-1.53860843818e-05
-1.53860855807e-05
-1.53860901656e-05
-1.53860942963e-05
-1.53860976417e-05
-1.538609987e-05
-1.53861005506e-05
-1.53860995831e-05
-1.53860970942e-05
-1.53860934724e-05
-1.53860892118e-05
-1.53860845105e-05
-1.538608319e-05
-1.53860952786e-05
-1.45844092983e-05
-1.45843693904e-05
-1.45843234496e-05
-1.4584279518e-05
-1.45842412311e-05
-1.4584211832e-05
-1.45841932304e-05
-1.45841869249e-05
-1.45841935497e-05
-1.45842125047e-05
-1.45842423077e-05
-1.4584280591e-05
-1.45843239823e-05
-1.45843682835e-05
-1.45844097734e-05
-1.45843559551e-05
-1.45843160457e-05
-1.458426973e-05
-1.45842251234e-05
-1.4584186197e-05
-1.45841562665e-05
-1.45841373371e-05
-1.45841309338e-05
-1.45841377375e-05
-1.45841571031e-05
-1.45841874758e-05
-1.45842264227e-05
-1.45842704445e-05
-1.45843153944e-05
-1.4584356669e-05
-1.45843684017e-05
-1.45843334416e-05
-1.45842920159e-05
-1.4584251335e-05
-1.45842155127e-05
-1.45841877786e-05
-1.45841701794e-05
-1.45841642187e-05
-1.45841705753e-05
-1.45841885872e-05
-1.4584216712e-05
-1.45842525527e-05
-1.45842926472e-05
-1.45843330732e-05
-1.45843690752e-05
-1.45843946121e-05
-1.45843648948e-05
-1.45843282378e-05
-1.45842919539e-05
-1.45842595853e-05
-1.45842343422e-05
-1.45842182728e-05
-1.45842128224e-05
-1.45842186432e-05
-1.45842350705e-05
-1.45842606069e-05
-1.45842929419e-05
-1.45843287293e-05
-1.45843644877e-05
-1.45843953688e-05
-1.45844207075e-05
-1.45843956839e-05
-1.45843632242e-05
-1.45843311573e-05
-1.45843022131e-05
-1.45842795191e-05
-1.45842650289e-05
-1.45842601092e-05
-1.45842653714e-05
-1.45842801741e-05
-1.45843030923e-05
-1.45843319576e-05
-1.45843636154e-05
-1.45843951617e-05
-1.4584421473e-05
-1.45844491584e-05
-1.45844283425e-05
-1.45844001934e-05
-1.45843723822e-05
-1.45843470153e-05
-1.45843270325e-05
-1.45843142428e-05
-1.45843098963e-05
-1.45843145506e-05
-1.45843276023e-05
-1.45843477326e-05
-1.45843729722e-05
-1.45844004347e-05
-1.45844278644e-05
-1.45844497631e-05
-1.4584481345e-05
-1.45844648299e-05
-1.45844409468e-05
-1.45844174076e-05
-1.45843957772e-05
-1.45843786744e-05
-1.45843677068e-05
-1.45843639738e-05
-1.45843679787e-05
-1.45843791617e-05
-1.45843963568e-05
-1.45844178327e-05
-1.45844410305e-05
-1.45844643525e-05
-1.45844818873e-05
-1.45845172303e-05
-1.45845050015e-05
-1.45844852261e-05
-1.45844659401e-05
-1.45844480856e-05
-1.45844339194e-05
-1.4584424818e-05
-1.45844217161e-05
-1.45844250493e-05
-1.45844343175e-05
-1.45844485293e-05
-1.45844662261e-05
-1.45844852211e-05
-1.45845045347e-05
-1.45845178728e-05
-1.45845566077e-05
-1.45845483405e-05
-1.45845324277e-05
-1.45845171864e-05
-1.45845029848e-05
-1.4584491701e-05
-1.45844844423e-05
-1.45844819704e-05
-1.45844846359e-05
-1.45844920233e-05
-1.4584503323e-05
-1.45845173731e-05
-1.4584532379e-05
-1.45845479049e-05
-1.458455734e-05
-1.45845989749e-05
-1.45845941695e-05
-1.45845817892e-05
-1.45845702348e-05
-1.45845594343e-05
-1.45845508478e-05
-1.45845453281e-05
-1.45845434468e-05
-1.45845454853e-05
-1.45845511015e-05
-1.45845596828e-05
-1.45845703625e-05
-1.45845817469e-05
-1.45845938365e-05
-1.45845998461e-05
-1.45846437996e-05
-1.45846418365e-05
-1.45846324783e-05
-1.45846240924e-05
-1.45846162781e-05
-1.45846100977e-05
-1.45846061352e-05
-1.45846047885e-05
-1.4584606265e-05
-1.45846102944e-05
-1.45846164661e-05
-1.45846241869e-05
-1.45846324505e-05
-1.45846416005e-05
-1.45846448046e-05
-1.45846907552e-05
-1.4584690695e-05
-1.45846836267e-05
-1.45846777528e-05
-1.45846723911e-05
-1.45846681986e-05
-1.45846655438e-05
-1.45846646455e-05
-1.45846656458e-05
-1.45846683644e-05
-1.45846725297e-05
-1.45846778346e-05
-1.45846836321e-05
-1.45846905037e-05
-1.45846918154e-05
-1.4584740279e-05
-1.45847406175e-05
-1.45847348031e-05
-1.45847305492e-05
-1.45847268443e-05
-1.45847240574e-05
-1.45847223008e-05
-1.45847217221e-05
-1.45847223959e-05
-1.45847241757e-05
-1.45847269632e-05
-1.4584730618e-05
-1.45847348189e-05
-1.45847404621e-05
-1.45847413715e-05
-1.45847903301e-05
-1.45847894843e-05
-1.45847848737e-05
-1.45847817353e-05
-1.45847790471e-05