/*--------------------------------*- C++ -*----------------------------------*\
  =========                 |
  \\      /  F ield         | OpenFOAM: The Open Source CFD Toolbox
   \\    /   O peration     | Website:  https://openfoam.org
    \\  /    A nd           | Version:  7
     \\/     M anipulation  |
\*---------------------------------------------------------------------------*/
FoamFile
{
    version     2.0;
    format      ascii;
    class       volVectorField;
    location    "2.42";
    object      U;
}
// * * * * * * * * * * * * * * * * * * * * * * * * * * * * * * * * * * * * * //

dimensions      [0 1 -1 0 0 0 0];

internalField   nonuniform List<vector> 
22500
(
(-2.65047129858e-05 -2.92393122443e-05 -1.02177033066e-05)
(-2.52147597209e-05 -3.2969706546e-05 -1.29453240171e-05)
(-2.2763563632e-05 -3.68636256178e-05 -1.75647188463e-05)
(-1.95022541374e-05 -4.04238758557e-05 -2.31424557131e-05)
(-1.53671808381e-05 -4.34797093196e-05 -2.86032190325e-05)
(-1.05770394932e-05 -4.58079679099e-05 -3.30824708929e-05)
(-5.31304958179e-06 -4.72603393811e-05 -3.59846718233e-05)
(1.96677235817e-07 -4.77415859457e-05 -3.69566642272e-05)
(5.70212783711e-06 -4.72171755128e-05 -3.58568009149e-05)
(1.09540497427e-05 -4.57232617726e-05 -3.28257846401e-05)
(1.57262960596e-05 -4.33562461533e-05 -2.8215157148e-05)
(1.9839057753e-05 -4.02664396895e-05 -2.26192739714e-05)
(2.30733162509e-05 -3.66774046471e-05 -1.69016271343e-05)
(2.54975466885e-05 -3.2761042189e-05 -1.21393464537e-05)
(2.67411580954e-05 -2.90289186363e-05 -9.28187492703e-06)
(-7.74577300614e-05 -8.52993107986e-05 -0.000226767099063)
(-7.33701794601e-05 -9.61043426293e-05 -0.000254288386501)
(-6.62710133862e-05 -0.000107280777439 -0.000286527581115)
(-5.6760319375e-05 -0.000117491943123 -0.000319576400796)
(-4.4770880625e-05 -0.000126237787256 -0.000349473669747)
(-3.08411055929e-05 -0.00013290356616 -0.000373024185221)
(-1.55158619279e-05 -0.000137065090421 -0.000387985708255)
(5.34994999105e-07 -0.000138443919655 -0.000393016999618)
(1.65749002369e-05 -0.000136941423624 -0.000387608573648)
(3.18692772853e-05 -0.000132661021416 -0.000372266437113)
(4.57520035883e-05 -0.000125884848954 -0.000348326211857)
(5.76819551704e-05 -0.000117042391612 -0.000318025659723)
(6.71201845813e-05 -0.0001067513029 -0.00028455690906)
(7.41397233903e-05 -9.55150720542e-05 -0.000251885949244)
(7.81020038516e-05 -8.4701856037e-05 -0.000223962041955)
(-0.000122776654758 -0.000134796420151 -0.000599556654567)
(-0.000115532361543 -0.000151549566436 -0.000662629501441)
(-0.00010402471212 -0.000168545571381 -0.000731440434878)
(-8.8818998303e-05 -0.000183939278261 -0.000798813613258)
(-6.99223183341e-05 -0.00019701546714 -0.000858051101662)
(-4.81078220631e-05 -0.00020693318363 -0.000903897829529)
(-2.42088990136e-05 -0.000213106874448 -0.000932732804468)
(7.71706801751e-07 -0.000215150718448 -0.000942417362244)
(2.57380807807e-05 -0.00021292815283 -0.000932159501672)
(4.95968274968e-05 -0.000206582416587 -0.0009027443199)
(7.13486715942e-05 -0.000196504486391 -0.000856297840354)
(9.01641768382e-05 -0.000183286890867 -0.00079643068459)
(0.000105269383233 -0.000167777098754 -0.00072839124014)
(0.000116660828353 -0.000150694518906 -0.000658880597871)
(0.000123729621429 -0.000133923265578 -0.000595131436003)
(-0.000161306610763 -0.000176741611286 -0.00106581846964)
(-0.000150807900494 -0.000198007208705 -0.00116438221377)
(-0.000135197778691 -0.00021917181975 -0.00126761714259)
(-0.000114976544834 -0.000238147780755 -0.00136579001795)
(-9.02669338168e-05 -0.000254122888435 -0.00145037929427)
(-6.19984624971e-05 -0.000266167551574 -0.00151495672024)
(-3.12034820092e-05 -0.000273638439179 -0.0015552318306)
(8.99951158519e-07 -0.000276110032208 -0.00156872333183)
(3.29889889908e-05 -0.00027343189411 -0.00155452874062)
(6.37433351007e-05 -0.000265761729509 -0.001513540041)
(9.19472630253e-05 -0.00025353046642 -0.00144821703803)
(0.000116571230954 -0.00023738867686 -0.00136283195341)
(0.000136684057034 -0.000218274425921 -0.00126380072191)
(0.000152162753741 -0.000197004078657 -0.00115964188329)
(0.000162466403917 -0.000175704811404 -0.00106014811479)
(-0.000192685507579 -0.000210907023469 -0.00156384345889)
(-0.000179071206564 -0.00023516421264 -0.00169007557047)
(-0.000159770452984 -0.000258888453686 -0.00181842064777)
(-0.000135300263647 -0.00027994483547 -0.00193784636711)
(-0.000105904343719 -0.000297517258458 -0.00203913048613)
(-7.26012581662e-05 -0.000310688477314 -0.00211559932901)
(-3.6539013303e-05 -0.000318828947792 -0.00216295591803)
(9.49975251284e-07 -0.000321520445668 -0.00217877263739)
(3.84258916511e-05 -0.000318615036033 -0.00216217838354)
(7.44512173125e-05 -0.000310267827866 -0.00211403109756)
(0.000107694716115 -0.000296902050485 -0.00203672877755)
(0.000137009874196 -0.000279153938923 -0.00193454238165)
(0.000161375591982 -0.000257949310772 -0.00181412665068)
(0.000180544469756 -0.000234108358765 -0.00168469184498)
(0.000193965318538 -0.000209799931348 -0.00155732191777)
(-0.000217015499994 -0.000237453683633 -0.00204660705046)
(-0.000200598832746 -0.000263244611337 -0.00218968368199)
(-0.000178126127748 -0.000288101097189 -0.00233187046199)
(-0.000150223345088 -0.000309949234929 -0.00246202415165)
(-0.000117235968467 -0.000328035660442 -0.00257108064017)
(-8.02168106228e-05 -0.000341519235187 -0.00265271893697)
(-4.03622414004e-05 -0.000349825290841 -0.00270300091756)
(9.570517911e-07 -0.000352569726502 -0.00271974702702)
(4.22647903089e-05 -0.000349616254009 -0.00270218286965)
(8.20866915814e-05 -0.000341108073357 -0.0026510686623)
(0.000119052460836 -0.00032743371622 -0.00256854886004)
(0.000151966348834 -0.000309173734239 -0.00245852984899)
(0.000179772602266 -0.000287176958676 -0.002327307863)
(0.000202119615975 -0.000262200279879 -0.00218392489842)
(0.000218355021582 -0.000236342621669 -0.0020395616462)
(-0.00023479634554 -0.00025690555117 -0.00248581622836)
(-0.000215984846059 -0.000282944884749 -0.00263561677527)
(-0.000190916151199 -0.000307759122476 -0.00278197131513)
(-0.000160387677661 -0.000329368271053 -0.00291438801163)
(-0.000124816064946 -0.000347126157694 -0.00302439783815)
(-8.52458976556e-05 -0.000360301660913 -0.00310625972563)
(-4.28722154227e-05 -0.000368393960914 -0.00315648498368)
(9.48852445248e-07 -0.000371065479782 -0.00317316938064)
(4.47594648405e-05 -0.000368195801213 -0.00315564103406)
(8.71035046367e-05 -0.000359912026544 -0.00310455839912)
(0.000126624847472 -0.000346555703517 -0.00302178828773)
(0.000162128692911 -0.000328632752174 -0.0029107848654)
(0.000192567793697 -0.000306880734353 -0.0027772606647)
(0.000217517829213 -0.000281948415599 -0.00262965257143)
(0.000236162256573 -0.000255830951249 -0.00247847300714)
(-0.000246738819683 -0.000269989488105 -0.0028691411969)
(-0.000225964354145 -0.000295209771244 -0.00301801854955)
(-0.000198877274428 -0.000319058328044 -0.0031617841158)
(-0.000166473228062 -0.000339637623957 -0.00329089722189)
(-0.000129208852928 -0.000356436067966 -0.00339758174995)
(-8.80879595385e-05 -0.000368846999994 -0.00347667006231)
(-4.42689781292e-05 -0.000376449335725 -0.00352507253806)
(9.42291321553e-07 -0.000378956101284 -0.00354111350257)
(4.614365138e-05 -0.000376264229623 -0.00352420474632)
(8.99344123213e-05 -0.000368483308456 -0.00347492328182)
(0.000131008649259 -0.000355903923169 -0.00339490771099)
(0.000168208138575 -0.000338951655912 -0.00328721314294)
(0.00020052704381 -0.000318238337191 -0.00315697724438)
(0.000227500507791 -0.000294277293724 -0.00301193457961)
(0.000248119299204 -0.000268971800926 -0.00286163013413)
(-0.000253607301624 -0.000277491505793 -0.00319500021747)
(-0.000231279504348 -0.00030104373602 -0.00333804834333)
(-0.000202714150494 -0.000323214548479 -0.0034752398854)
(-0.000169103270266 -0.000342169139191 -0.00359795518951)
(-0.000130917008627 -0.000357544300787 -0.00369903162968)
(-8.90933681724e-05 -0.000368860357401 -0.0037737906485)
(-4.47290394056e-05 -0.000375774651526 -0.00381946892139)
(9.45440650256e-07 -0.000378050704029 -0.00383457068842)
(4.6610108006e-05 -0.00037560293287 -0.00381857320055)
(9.09463442829e-05 -0.000368523251408 -0.0037719912507)
(0.000132723465065 -0.000357051445124 -0.00369628570181)
(0.00017084510631 -0.000341534188295 -0.00359418754231)
(0.0002043720016 -0.000322455295685 -0.00347034592353)
(0.000232826005208 -0.000300178756655 -0.00333187281316)
(0.000255005094232 -0.000276538196756 -0.00318737875141)
(-0.000256132235339 -0.000280177272008 -0.00346773798628)
(-0.000232613297933 -0.000301407615419 -0.0036023217155)
(-0.000203052928167 -0.000321351711788 -0.00373100696441)
(-0.000168816151601 -0.000338238332573 -0.00384589082779)
(-0.000130365793756 -0.000351854479217 -0.00394030913127)
(-8.85550200629e-05 -0.000361840786118 -0.00401001734012)
(-4.44006053642e-05 -0.000367927444235 -0.00405254876273)
(9.60695610647e-07 -0.000369926294022 -0.00406657074416)
(4.63120107873e-05 -0.000367768852927 -0.00405161923778)
(9.04376722109e-05 -0.000361529625764 -0.0040081540902)
(0.000132200786987 -0.000351399739365 -0.00393747627744)
(0.000170585016175 -0.000337652575453 -0.00384202382545)
(0.000204736634279 -0.000320650869021 -0.00372601390797)
(0.000234185388102 -0.000300607513747 -0.00359605046237)
(0.000257558339445 -0.000279288460987 -0.00346001706683)
(-0.000254973085343 -0.000278762142707 -0.00369426564459)
(-0.000230567131379 -0.000297172082515 -0.00381938993975)
(-0.000200434813892 -0.000314458042409 -0.00393894688385)
(-0.000166070014123 -0.000328950485115 -0.00404548718981)
(-0.000127911682498 -0.000340572382641 -0.0041327963425)
(-8.67159540632e-05 -0.000349068013146 -0.00419709619988)
(-4.34069470281e-05 -0.000354232232611 -0.00423625191253)
(9.87382955943e-07 -0.000355922385158 -0.00424911428699)
(4.53714460615e-05 -0.000354086569665 -0.00423528343915)
(8.86507249931e-05 -0.00034878223627 -0.00419515883557)
(0.000129797114147 -0.000340154536103 -0.00412986163014)
(0.000167886980207 -0.000328411723877 -0.00404150268365)
(0.000202164139659 -0.000313812296511 -0.00393383614344)
(0.000232183003036 -0.000296432350793 -0.00381300555984)
(0.00025644242561 -0.000277934791588 -0.00368643157889)
(-0.000250703047633 -0.000273900592568 -0.00388216854425)
(-0.000225663785684 -0.000289092817157 -0.00399798719926)
(-0.000195332370446 -0.000303374786554 -0.00410853898881)
(-0.000161261838083 -0.000315244602789 -0.00420659755772)
(-0.000123858662209 -0.000324719741168 -0.00428650689839)
(-8.37808796583e-05 -0.000331621838401 -0.00434510213978)
(-4.185178353e-05 -0.000335803102092 -0.00438067355525)
(1.02339935428e-06 -0.000337164458124 -0.00439230148837)
(4.38880384853e-05 -0.000335670549188 -0.0043796631721)
(8.57864640138e-05 -0.000331361594376 -0.00434308424487)
(0.000125813264478 -0.000324338573398 -0.00428345984502)
(0.000163145584534 -0.000314751844704 -0.00420248100939)
(0.000197125644899 -0.000302781993938 -0.00410329390741)
(0.000227341079466 -0.000288409998429 -0.00399147275007)
(0.000252231400482 -0.000273132323731 -0.00387420155776)
(-0.000243801175761 -0.000266129580084 -0.00403890809884)
(-0.000218386539061 -0.000277773671539 -0.00414649115805)
(-0.000188186095468 -0.000288797806492 -0.00424848689404)
(-0.000154750721299 -0.000297916254217 -0.00433788209533)
(-0.000118473233704 -0.000305163650095 -0.00440996774595)
(-7.99261037427e-05 -0.000310414408308 -0.00446244807565)
(-3.98241448493e-05 -0.000313577530567 -0.00449415716825)
(1.06602857222e-06 -0.000314598721516 -0.00450445391066)
(4.19454823339e-05 -0.000313458626998 -0.00449310524441)
(8.20160919383e-05 -0.00031018057812 -0.00446034931002)
(0.000120510980212 -0.00030482023011 -0.00440680547986)
(0.000156715676657 -0.00029747025043 -0.00433362612607)
(0.000190058064391 -0.000288257911009 -0.00424309668556)
(0.000220139993402 -0.000277146353325 -0.00413983928645)
(0.00024540214356 -0.000265420177172 -0.00403080509475)
(-0.000234787058023 -0.000255781395763 -0.00417172158017)
(-0.000209321755373 -0.000263594032903 -0.00427314863597)
(-0.000179452363985 -0.000271233163157 -0.00436685252463)
(-0.00014687413152 -0.000277589990949 -0.00444695958871)
(-0.000111997053813 -0.000282594185229 -0.00451047351722)
(-7.53112274752e-05 -0.000286178408016 -0.00455624003698)
(-3.74056093238e-05 -0.000288315454112 -0.00458371531797)
(1.11238296269e-06 -0.000288994341623 -0.00459255778464)
(3.96196082132e-05 -0.000288210641491 -0.00458262700413)
(7.74934551638e-05 -0.000285971917397 -0.00455406902141)
(0.000114126280391 -0.000282289740516 -0.00450720505232)
(0.000148929358502 -0.000277192233938 -0.00444256827829)
(0.00018141291704 -0.000270747487339 -0.00436131348402)
(0.000211161845901 -0.00026302272894 -0.00426636042218)
(0.000236474059877 -0.000255129387917 -0.00416351581275)
(-0.000224895121587 -0.000243722306315 -0.00428745965203)
(-0.000199504212086 -0.000246438611289 -0.00438624734081)
(-0.000169773358025 -0.000250937573586 -0.0044706511305)
(-0.000138151889364 -0.000254569588323 -0.00454019469334)
(-0.000104837525866 -0.000257352676883 -0.00459416358692)
(-7.02251901045e-05 -0.000259295558283 -0.00463257648263)
(-3.47479959292e-05 -0.000260430661234 -0.004655461455)
(1.15985114816e-06 -0.000260777163947 -0.00466274035696)
(3.70569049389e-05 -0.000260340301485 -0.00465434861057)
(7.25022042292e-05 -0.000259117153717 -0.00463035514404)
(0.000107061154793 -0.0002570885921 -0.00459081815549)
(0.000140300725538 -0.000254222541829 -0.00453569658968)
(0.00017182651137 -0.000250510303398 -0.00446498110396)
(0.000201432811134 -0.000245927592615 -0.00437929111752)
(0.000226680059381 -0.000243131625296 -0.00427929480306)
(8.3529108017e-07 9.48196630162e-07 -0.000213751151156)
(9.43889254067e-07 1.0765639476e-06 -0.000224842555031)
(1.02741814069e-06 1.23439784392e-06 -0.000235245257762)
(1.02935649043e-06 1.42869264438e-06 -0.000244452734052)
(9.00918940413e-07 1.64092021588e-06 -0.000252051853714)
(6.57582711752e-07 1.82667033288e-06 -0.00025771472612)
(3.26424313569e-07 1.95128923654e-06 -0.000261211092589)
(-5.03153572097e-08 1.99098728844e-06 -0.000262400570612)
(-4.26417174949e-07 1.93711580778e-06 -0.000261211622024)
(-7.56221377033e-07 1.79805987248e-06 -0.000257715169242)
(-9.99654926019e-07 1.59714053594e-06 -0.000252050355614)
(-1.13010641784e-06 1.36981064378e-06 -0.000244445607357)
(-1.13047988714e-06 1.1599082459e-06 -0.000235227407151)
(-1.04748870463e-06 9.89807939024e-07 -0.000224805986958)
(-9.26092700113e-07 8.60265187698e-07 -0.000213684696448)
(5.84554590425e-06 6.48810861122e-06 -0.000618345024499)
(6.02029928334e-06 7.47791601402e-06 -0.000648930514844)
(5.94629939789e-06 8.57428694262e-06 -0.000677684641319)
(5.5108895337e-06 9.70472891785e-06 -0.00070317260055)
(4.60541309249e-06 1.07771461067e-05 -0.000724230431042)
(3.28528296437e-06 1.16504581264e-05 -0.000739936953387)
(1.6557020438e-06 1.22155887648e-05 -0.000749637568881)
(-1.35850925156e-07 1.23992554746e-05 -0.000752930000553)
(-1.9260631262e-06 1.21751252684e-05 -0.000749633765491)
(-3.55301958963e-06 1.15691109912e-05 -0.000739927784917)
(-4.87361654129e-06 1.06539515077e-05 -0.000724210875694)
(-5.78482655236e-06 9.54084941865e-06 -0.000703132511524)
(-6.22717110209e-06 8.37068860795e-06 -0.000677609625877)
(-6.30235803271e-06 7.24400557758e-06 -0.000648797990937)
(-6.09801457033e-06 6.24941315504e-06 -0.000618128920379)
(1.26336624749e-05 1.39569776742e-05 -0.000997444305455)
(1.26372087545e-05 1.59594251565e-05 -0.00104489765551)
(1.21044611161e-05 1.81086993123e-05 -0.0010895268789)
(1.09170670678e-05 2.02179545543e-05 -0.00112910323975)
(8.95065043305e-06 2.21330609592e-05 -0.00116180823494)
(6.30980382818e-06 2.36505108001e-05 -0.0011862068953)
(3.17407609605e-06 2.46162657955e-05 -0.00120127418499)
(-2.19653907607e-07 2.49293291635e-05 -0.00120637932595)
(-3.61123402358e-06 2.45537578667e-05 -0.00120125933921)
(-6.74211195377e-06 2.35253305814e-05 -0.00118617521615)
(-9.38007858585e-06 2.19452311659e-05 -0.00116175271568)
(-1.13485613498e-05 1.99706550131e-05 -0.00112900960308)
(-1.25388235668e-05 1.78074678046e-05 -0.00108937414981)
(-1.30660688606e-05 1.56188771408e-05 -0.00104465279572)
(-1.3018867096e-05 1.36115671537e-05 -0.000997071544697)
(1.95370387449e-05 2.15322322414e-05 -0.00135051839274)
(1.91482479249e-05 2.43342644882e-05 -0.00141212289076)
(1.79765276193e-05 2.72806166154e-05 -0.00147002855802)
(1.59239922737e-05 3.00800761225e-05 -0.00152138043659)
(1.28819750649e-05 3.25518306816e-05 -0.00156381599969)
(9.00054384271e-06 3.44721777323e-05 -0.00159547402671)
(4.51268513425e-06 3.56785963458e-05 -0.00161502001735)
(-2.8936775117e-07 3.60670391863e-05 -0.0016216325354)
(-5.08903313216e-06 3.56010076472e-05 -0.00161498596094)
(-9.57124390689e-06 3.4317244213e-05 -0.00159540433614)
(-1.34479917048e-05 3.23206255123e-05 -0.00156370355166)
(-1.64892962907e-05 2.9777226344e-05 -0.00152121016737)
(-1.85412655707e-05 2.69149703401e-05 -0.00146977719992)
(-1.97021306378e-05 2.39232154389e-05 -0.00141175223131)
(-2.00385444973e-05 2.11145499528e-05 -0.00134998863346)
(2.538132421e-05 2.78889429918e-05 -0.00167709954647)
(2.44440093566e-05 3.11157296636e-05 -0.00175013025317)
(2.25824599305e-05 3.44512895861e-05 -0.00181871985608)
(1.97189378095e-05 3.7540046034e-05 -0.00187955784432)
(1.57772053879e-05 4.02082748273e-05 -0.0019298422414)
(1.093839191e-05 4.2247179905e-05 -0.0019673621126)
(5.46079273906e-06 4.35132331683e-05 -0.00199052514809)
(-3.45522363815e-07 4.39167347951e-05 -0.00199835052786)
(-6.14958615349e-06 4.34267704225e-05 -0.00199046351643)
(-1.16217092215e-05 4.20749423238e-05 -0.00196723868422)
(-1.64552500606e-05 3.99521293956e-05 -0.00192965190856)
(-2.03944555692e-05 3.72055252769e-05 -0.00187928825511)
(-2.32546069266e-05 3.40489433464e-05 -0.0018183501008)
(-2.5101678291e-05 3.06642551983e-05 -0.00174962178827)
(-2.59824056262e-05 2.74278285734e-05 -0.00167641235717)
(2.97049182161e-05 3.25153608435e-05 -0.00197713009656)
(2.81514522845e-05 3.58247488409e-05 -0.00205898960722)
(2.56485704753e-05 3.91876411321e-05 -0.00213582856522)
(2.21215543065e-05 4.22354780447e-05 -0.00220402891819)
(1.75303279615e-05 4.48189876486e-05 -0.00226043340651)
(1.20690959541e-05 4.67636945436e-05 -0.00230253953972)
(5.9964977049e-06 4.79577388071e-05 -0.00232853645383)
(-3.88696664016e-07 4.83332258356e-05 -0.00233730796473)
(-6.77197731201e-06 4.78672044709e-05 -0.00232843949371)
(-1.28398331554e-05 4.65836636558e-05 -0.00230234783462)
(-1.82959752824e-05 4.45518814296e-05 -0.00226014583683)
(-2.2883693178e-05 4.18873259805e-05 -0.00220363892642)
(-2.64053575886e-05 3.87697340318e-05 -0.00213532172191)
(-2.88917708564e-05 3.53557215088e-05 -0.00205833102591)
(-3.0388768528e-05 3.20334214699e-05 -0.00197628123629)
(3.24774582094e-05 3.53950711547e-05 -0.00225104075472)
(3.0321727763e-05 3.8550591771e-05 -0.00233933918421)
(2.7287051802e-05 4.16955568103e-05 -0.0024222169892)
(2.32790462284e-05 4.44955363359e-05 -0.0024958649112)
(1.82900902432e-05 4.68284437484e-05 -0.00255683410991)
(1.25116597397e-05 4.85598508217e-05 -0.00260237771623)
(6.18492601134e-06 4.96110572644e-05 -0.00263050203724)
(-4.20576389932e-07 4.99362027382e-05 -0.00263997917244)
(-7.02458471994e-06 4.95202077057e-05 -0.0026303632835)
(-1.33475401483e-05 4.83793957356e-05 -0.00260210556796)
(-1.91215129516e-05 4.65611271135e-05 -0.00255643295876)
(-2.4106562167e-05 4.41474501545e-05 -0.0024953363262)
(-2.81081256349e-05 4.12780955496e-05 -0.00242155613759)
(-3.1125579896e-05 3.80813937419e-05 -0.00233851765576)
(-3.32279688824e-05 3.49096580827e-05 -0.00225002222491)
(3.388550095e-05 3.67576946151e-05 -0.00249959138986)
(3.11991374743e-05 3.96306232576e-05 -0.00259215338704)
(2.77673433162e-05 4.24260661391e-05 -0.00267907021119)
(2.34567266661e-05 4.48789137486e-05 -0.00275642811197)
(1.82867058279e-05 4.68896069041e-05 -0.00282053769459)
(1.2434785222e-05 4.83613844118e-05 -0.00286845577569)
(6.11416980214e-06 4.92447247628e-05 -0.00289804849488)
(-4.43608652742e-07 4.95125801364e-05 -0.00290800639726)
(-7.00030995505e-06 4.91564492972e-05 -0.00289786313061)
(-1.33181242906e-05 4.81861521554e-05 -0.00286809401181)
(-1.91663748812e-05 4.66302260871e-05 -0.00282001039155)
(-2.43324101204e-05 4.45412590907e-05 -0.00275574642531)
(-2.86359845413e-05 4.20210282367e-05 -0.00267824091563)
(-3.20507129737e-05 3.91744579524e-05 -0.0025911560478)
(-3.4688496926e-05 3.62817610829e-05 -0.00249839228958)
(3.41984770259e-05 3.69237026638e-05 -0.0027236826087)
(3.10831318196e-05 3.94666905063e-05 -0.00281852362542)
(2.73865297972e-05 4.18641018771e-05 -0.00290765494877)
(2.29266229779e-05 4.3942379473e-05 -0.0029871173031)
(1.77445643169e-05 4.56185568222e-05 -0.00305302643605)
(1.19973995148e-05 4.68284063367e-05 -0.00310230104033)
(5.86546809516e-06 4.75457851038e-05 -0.00313272362141)
(-4.60428766204e-07 4.77582590213e-05 -0.0031429436298)
(-6.78559492913e-06 4.74622332778e-05 -0.00313248847265)
(-1.29155437476e-05 4.66625784557e-05 -0.00310184344809)
(-1.86597329555e-05 4.5373110391e-05 -0.0030523640985)
(-2.38378235253e-05 4.36226921032e-05 -0.00298627160831)
(-2.8290297747e-05 4.14801154319e-05 -0.00290664527667)
(-3.19702975241e-05 3.90328697554e-05 -0.00281733782726)
(-3.5042520229e-05 3.64666844891e-05 -0.00272228985594)
(3.36894603764e-05 3.62128444919e-05 -0.00292425331037)
(3.02528058835e-05 3.84268718855e-05 -0.00301957288634)
(2.6405495443e-05 4.04271057734e-05 -0.00310925906764)
(2.19174404183e-05 4.21412930128e-05 -0.00318933195559)
(1.68465590513e-05 4.3500184879e-05 -0.00325575806929)
(1.13263516797e-05 4.44668305762e-05 -0.00330539409737)
(5.50278914363e-06 4.50326975472e-05 -0.00333601401041)
(-4.73325905152e-07 4.51956577612e-05 -0.00334627861825)
(-6.44897066706e-06 4.49554450514e-05 -0.00333572727423)
(-1.22711583438e-05 4.43134422008e-05 -0.0033048368842)
(-1.77889038354e-05 4.32729504575e-05 -0.00325495472219)
(-2.28557671282e-05 4.18448484039e-05 -0.0031883140326)
(-2.73360089453e-05 4.00701178281e-05 -0.00310805874439)
(-3.11670165904e-05 3.80217490396e-05 -0.00301818560844)
(-3.45658692949e-05 3.578128407e-05 -0.00292265140492)
(3.25947302926e-05 3.48990520501e-05 -0.00310229094214)
(2.89344149722e-05 3.68043247166e-05 -0.00319651598027)
(2.50266879592e-05 3.84290743583e-05 -0.0032852955359)
(2.06015623565e-05 3.98027924969e-05 -0.00336460345882)
(1.57280183355e-05 4.08714758323e-05 -0.00343031381144)
(1.05143289414e-05 4.16204692569e-05 -0.0034793282435)
(5.07250479512e-06 4.20531661343e-05 -0.00350951170304)
(-4.84013369544e-07 4.21736212832e-05 -0.00351960201735)
(-6.04023562759e-06 4.19833330474e-05 -0.00350917259964)
(-1.14810950327e-05 4.14816748873e-05 -0.00347866932237)
(-1.66926493427e-05 4.06654456623e-05 -0.00342936528782)
(-2.15620730711e-05 3.95331867322e-05 -0.00336340634831)
(-2.59790045385e-05 3.81029760885e-05 -0.00328389446905)
(-2.98704881299e-05 3.64319385649e-05 -0.00319491260248)
(-3.34975507404e-05 3.4497015925e-05 -0.00310046069865)
(3.10978657309e-05 3.31938894022e-05 -0.00325893932189)
(2.72945945819e-05 3.48074563616e-05 -0.00335084492314)
(2.33960417239e-05 3.60778570487e-05 -0.00343752653862)
(1.91022386313e-05 3.7133538924e-05 -0.00351482025485)
(1.44854768806e-05 3.79390684186e-05 -0.00357861410191)
(9.6273227954e-06 3.84961348204e-05 -0.00362601799497)
(4.60765001048e-06 3.88141491831e-05 -0.0036551191854)
(-4.93546608144e-07 3.88988973669e-05 -0.00366481146583)
(-5.59455123024e-06 3.87525799576e-05 -0.00365472773264)
(-1.06135276523e-05 3.83734877107e-05 -0.00362525647714)
(-1.54697853071e-05 3.77563639077e-05 -0.00357751712301)
(-2.00823568891e-05 3.68932316232e-05 -0.00351343682311)
(-2.43676816677e-05 3.57852225326e-05 -0.00343591318189)
(-2.82499974395e-05 3.44704423603e-05 -0.00334900830042)
(-3.20236562035e-05 3.28246130229e-05 -0.00325685676355)
(2.93253105144e-05 3.12415820473e-05 -0.00339568765129)
(2.54486634487e-05 3.25595386355e-05 -0.00348464765535)
(2.16194366261e-05 3.34858442573e-05 -0.00356838408888)
(1.75119048893e-05 3.42409634518e-05 -0.00364249156163)
(1.31925108823e-05 3.48093801814e-05 -0.00370313667388)
(8.71609023243e-06 3.51999526005e-05 -0.00374789250734)
(4.13380679172e-06 3.54209168097e-05 -0.0037752319395)
(-5.02351543852e-07 3.54767185723e-05 -0.00378429124136)
(-5.13841829899e-06 3.53681880103e-05 -0.00377478908252)
(-9.72021531871e-06 3.50945559284e-05 -0.0037470288716)
(-1.41949542018e-05 3.46515921084e-05 -0.00370188877278)
(-1.85102399767e-05 3.40318038263e-05 -0.00364091364617)
(-2.26092053767e-05 3.3228477024e-05 -0.00356654389651)
(-2.64222080969e-05 3.22595501632e-05 -0.00348255849416)
(-3.02721062371e-05 3.09077284504e-05 -0.00339332859718)
(2.73620572527e-05 2.91158317565e-05 -0.00351464099583)
(2.34939298537e-05 3.012986956e-05 -0.00360115586835)
(1.97971786035e-05 3.07021243656e-05 -0.00368136573248)
(1.59185858213e-05 3.11738075152e-05 -0.00375098022589)
(1.191878716e-05 3.15309843256e-05 -0.00380707687)
(7.82782354744e-06 3.17785892061e-05 -0.00384803203566)
(3.67478821343e-06 3.19184502378e-05 -0.00387286892726)
(-5.10417599042e-07 3.19507184624e-05 -0.00388104202444)
(-4.69558681389e-06 3.18747990779e-05 -0.00387237729491)
(-8.84822534068e-06 3.16909725389e-05 -0.0038470696264)
(-1.29377174305e-05 3.13988456758e-05 -0.00380567827703)
(-1.69337885017e-05 3.09967384794e-05 -0.00374919951449)
(-2.08041830035e-05 3.04810846503e-05 -0.00367927902164)
(-2.44848980119e-05 2.98673876769e-05 -0.00359879178889)
(-2.83287740401e-05 2.88176944757e-05 -0.00351199092379)
(2.52747590217e-05 2.71219045903e-05 -0.0036193512991)
(2.15621635287e-05 2.75604620635e-05 -0.00370607653331)
(1.80410281885e-05 2.77681238274e-05 -0.00378137040615)
(1.44137872112e-05 2.79645920321e-05 -0.00384455897176)
(1.07322303057e-05 2.81179260209e-05 -0.0038943633943)
(7.00744053255e-06 2.82270390683e-05 -0.00393020208844)
(3.25286518791e-06 2.82879157761e-05 -0.00395172750873)
(-5.17508640287e-07 2.82971152161e-05 -0.00395874434366)
(-4.28787205002e-06 2.82531909069e-05 -0.00395119404129)
(-8.04211205431e-06 2.81571414764e-05 -0.00392915282018)
(-1.17655273714e-05 2.80116957327e-05 -0.00389282646651)
(-1.54436580713e-05 2.78206909362e-05 -0.00384257921605)
(-1.90637782263e-05 2.75852983142e-05 -0.00377902428545)
(-2.25694388641e-05 2.73377869279e-05 -0.00370338491565)
(-2.6262403809e-05 2.68596230952e-05 -0.003616468583)
(-1.89244997815e-07 -3.30573316201e-07 -0.000253338069627)
(-1.09760197484e-07 -4.41075166459e-07 -0.000266805450112)
(-6.30340056786e-08 -5.08711325521e-07 -0.000279566454059)
(-2.86366066631e-08 -5.54377732492e-07 -0.000290922548088)
(-7.33756096271e-09 -5.83397564917e-07 -0.000300311092278)
(1.7010860903e-09 -5.99988602836e-07 -0.000307308859876)
(9.32255490478e-10 -6.08220499342e-07 -0.000311624740255)
(-5.66076367273e-09 -6.10829114696e-07 -0.000313084748944)
(-1.20239133955e-08 -6.08715130944e-07 -0.000311602629464)
(-1.19745860195e-08 -6.00736722972e-07 -0.000307264778663)
(-1.0675509891e-09 -5.83929246309e-07 -0.000300245346526)
(2.32021096323e-08 -5.54201504947e-07 -0.000290835344389)
(6.12886177983e-08 -5.0689386359e-07 -0.000279457008659)
(1.12669798791e-07 -4.36611223749e-07 -0.000266668976086)
(1.94736717319e-07 -3.24574275773e-07 -0.000253156360401)
(-7.20087671887e-07 -1.07917507481e-06 -0.000721030084384)
(-5.22392680593e-07 -1.37393655771e-06 -0.000756943677771)
(-3.89163861022e-07 -1.5779094392e-06 -0.000791058510893)
(-2.80373467746e-07 -1.72699724159e-06 -0.000821455206877)
(-1.90951681719e-07 -1.83074934079e-06 -0.000846604961828)
(-1.18887387034e-07 -1.89689705172e-06 -0.000865359422487)
(-6.10912402958e-08 -1.93305580325e-06 -0.000876926280957)
(-1.20506326432e-08 -1.94445898368e-06 -0.000880829795347)
(3.75400824879e-08 -1.93280762348e-06 -0.000876860161915)
(9.73145331762e-08 -1.89583428462e-06 -0.000865227607084)
(1.73857153409e-07 -1.82786619399e-06 -0.000846408338081)
(2.70874202802e-07 -1.72125848536e-06 -0.000821194430358)
(3.89716122635e-07 -1.56741460212e-06 -0.000790731384204)
(5.34986342319e-07 -1.35673820708e-06 -0.000756536469862)
(7.39603927542e-07 -1.05805269883e-06 -0.000720500596404)
(-1.39844790722e-06 -1.90798664905e-06 -0.00114692745568)
(-1.11304014685e-06 -2.36020267877e-06 -0.00120110391108)
(-8.98354079833e-07 -2.70125426795e-06 -0.00125261828309)
(-7.04505781259e-07 -2.96472095294e-06 -0.00129855827226)
(-5.20154168553e-07 -3.15894034141e-06 -0.00133659100145)
(-3.43035577103e-07 -3.29041193345e-06 -0.00136496284801)
(-1.72487372648e-07 -3.36576961453e-06 -0.00138246068695)
(-6.6907559519e-09 -3.38969212427e-06 -0.00138835628566)
(1.59612948503e-07 -3.36361544445e-06 -0.0013823507654)
(3.31990261183e-07 -3.28553642953e-06 -0.00136474377659)
(5.13359384401e-07 -3.15044208906e-06 -0.00133626436681)
(7.05254396673e-07 -2.95174461637e-06 -0.00129812545214)
(9.09518726319e-07 -2.68229263088e-06 -0.00125207674097)
(1.13692481629e-06 -2.33355863113e-06 -0.00120043443637)
(1.42908407085e-06 -1.87741772175e-06 -0.00114607112039)
(-2.02647893748e-06 -2.62805911132e-06 -0.00153385271157)
(-1.67675188149e-06 -3.18172009245e-06 -0.00160259299468)
(-1.39527112622e-06 -3.61782860282e-06 -0.00166798352782)
(-1.12579436473e-06 -3.96403000666e-06 -0.0017263524995)
(-8.5159738948e-07 -4.22601162393e-06 -0.00177470961868)
(-5.70302498665e-07 -4.40770495664e-06 -0.0018108002377)
(-2.84413407256e-07 -4.51366112466e-06 -0.0018330600588)
(2.77365997408e-09 -4.54721915605e-06 -0.00184055112179)
(2.90332931291e-07 -4.50936320835e-06 -0.0018329075852)
(5.77586799912e-07 -4.39864827931e-06 -0.00181049644918)
(8.62245430107e-07 -4.21154201217e-06 -0.00177425686767)
(1.14286817106e-06 -3.94359856213e-06 -0.00172575309164)
(1.42166906551e-06 -3.5904506081e-06 -0.00166723559245)
(1.71483706548e-06 -3.14622659765e-06 -0.00160167522404)
(2.06998900629e-06 -2.58868522052e-06 -0.00153269758568)
(-2.57537039049e-06 -3.2239940611e-06 -0.00188451315279)
(-2.17641429016e-06 -3.83541884788e-06 -0.00196455240573)
(-1.83938783004e-06 -4.32873556618e-06 -0.00204070528519)
(-1.5035275731e-06 -4.72661365709e-06 -0.00210875143244)