/*--------------------------------*- C++ -*----------------------------------*\
  =========                 |
  \\      /  F ield         | OpenFOAM: The Open Source CFD Toolbox
   \\    /   O peration     | Website:  https://openfoam.org
    \\  /    A nd           | Version:  7
     \\/     M anipulation  |
\*---------------------------------------------------------------------------*/
FoamFile
{
    version     2.0;
    format      ascii;
    class       volScalarField;
    location    "1.14";
    object      p;
}
// * * * * * * * * * * * * * * * * * * * * * * * * * * * * * * * * * * * * * //

dimensions      [0 2 -2 0 0 0 0];

internalField   nonuniform List<scalar> 
22500
(
1.56845524337e-05
1.56796801143e-05
1.56790714848e-05
1.56777526395e-05
1.56769378263e-05
1.56763031609e-05
1.56759146224e-05
1.56757596903e-05
1.56758704973e-05
1.56762165603e-05
1.56768113316e-05
1.5677592048e-05
1.56788838503e-05
1.56794821094e-05
1.56843499644e-05
1.56092700197e-05
1.560049393e-05
1.55966028369e-05
1.55924177942e-05
1.55892871898e-05
1.55869524775e-05
1.55855270422e-05
1.55850255154e-05
1.55854823414e-05
1.5586864655e-05
1.55891590425e-05
1.55922548221e-05
1.55964128257e-05
1.56002928528e-05
1.56090632965e-05
1.55355582257e-05
1.55230623948e-05
1.55163146516e-05
1.55095531095e-05
1.55043769262e-05
1.55005409314e-05
1.54982028909e-05
1.54973967313e-05
1.54981598011e-05
1.55004562726e-05
1.55042535785e-05
1.55093962165e-05
1.55161317838e-05
1.55228680623e-05
1.5535355438e-05
1.54695004627e-05
1.54538784769e-05
1.54448974903e-05
1.54361463744e-05
1.54293999508e-05
1.54244213836e-05
1.54213915971e-05
1.54203554784e-05
1.54213508927e-05
1.54243413974e-05
1.54292835555e-05
1.54359984462e-05
1.54447248208e-05
1.54536943277e-05
1.54693051005e-05
1.54075809163e-05
1.5389236056e-05
1.53783895389e-05
1.53680358506e-05
1.53600224886e-05
1.53541319934e-05
1.535055228e-05
1.53493342306e-05
1.53505140327e-05
1.53540568541e-05
1.53599131954e-05
1.53678970114e-05
1.53782272843e-05
1.5389062553e-05
1.54073946404e-05
1.53491127038e-05
1.53284554925e-05
1.53160625353e-05
1.53044439469e-05
1.52954257639e-05
1.5288820467e-05
1.52848108337e-05
1.5283451155e-05
1.52847751365e-05
1.52887503044e-05
1.52953237442e-05
1.53043143198e-05
1.53159110393e-05
1.53282926641e-05
1.53489356682e-05
1.52944279412e-05
1.52718948063e-05
1.52582535606e-05
1.52456824694e-05
1.52359000677e-05
1.52287582357e-05
1.52244266013e-05
1.5222961264e-05
1.52243933789e-05
1.52286929304e-05
1.52358051059e-05
1.52455617523e-05
1.52581123937e-05
1.52717424862e-05
1.52942597973e-05
1.52435447662e-05
1.52195491574e-05
1.52049099316e-05
1.51916525975e-05
1.51813091039e-05
1.51737790452e-05
1.51692149817e-05
1.51676737454e-05
1.51691841151e-05
1.51737183776e-05
1.51812208325e-05
1.51915403081e-05
1.52047785133e-05
1.52194065922e-05
1.52433848139e-05
1.51962559276e-05
1.51711768583e-05
1.51557499725e-05
1.51420307962e-05
1.51312970475e-05
1.51235015268e-05
1.51187790689e-05
1.5117186479e-05
1.51187503738e-05
1.512344511e-05
1.51312149185e-05
1.51419261533e-05
1.51556273872e-05
1.51710429376e-05
1.5196103222e-05
1.51523175992e-05
1.51265067976e-05
1.51104842061e-05
1.50964997105e-05
1.50855262643e-05
1.50775714216e-05
1.50727546898e-05
1.50711319849e-05
1.50727279426e-05
1.50775188109e-05
1.50854496012e-05
1.50964018698e-05
1.51103693639e-05
1.5126380284e-05
1.51521707657e-05
1.51114941167e-05
1.50852877223e-05
1.50688642177e-05
1.50547935519e-05
1.50437176353e-05
1.50356985993e-05
1.50308451921e-05
1.50292115362e-05
1.50308201458e-05
1.50356493093e-05
1.50436457105e-05
1.50547015307e-05
1.50687559261e-05
1.50851672458e-05
1.51113516937e-05
1.50735467414e-05
1.50473056551e-05
1.50307041094e-05
1.50167113596e-05
1.50056556907e-05
1.49976567439e-05
1.49928184159e-05
1.49911910514e-05
1.49927948279e-05
1.49976102312e-05
1.50055877016e-05
1.50166240947e-05
1.50306010269e-05
1.50471896931e-05
1.50734073885e-05
1.50381680519e-05
1.50124128925e-05
1.49959121615e-05
1.49821323631e-05
1.49711958429e-05
1.49632885384e-05
1.49585107754e-05
1.49569055447e-05
1.49584883358e-05
1.49632443128e-05
1.49711309364e-05
1.49820486822e-05
1.49958127485e-05
1.50122996866e-05
1.50380299431e-05
1.50052222504e-05
1.49805928483e-05
1.49644061733e-05
1.49509255868e-05
1.49401941272e-05
1.49324578067e-05
1.49277953574e-05
1.49262308812e-05
1.4927773855e-05
1.49324152933e-05
1.49401314185e-05
1.4950844107e-05
1.49643086751e-05
1.49804803137e-05
1.50050838807e-05
1.49764839416e-05
1.495135153e-05
1.49356807795e-05
1.4922519221e-05
1.49121438736e-05
1.4904727949e-05
1.49002789932e-05
1.48987894744e-05
1.49002581683e-05
1.49046867076e-05
1.49120826856e-05
1.49224388904e-05
1.49355829289e-05
1.49512370747e-05
1.49763465127e-05
7.20746259775e-06
7.20997217251e-06
7.2119392394e-06
7.21382815122e-06
7.21547066664e-06
7.21673613627e-06
7.21754248832e-06
7.21782534636e-06
7.217563882e-06
7.21677678653e-06
7.21552587828e-06
7.21389227408e-06
7.21200973666e-06
7.21004659515e-06
7.20754009298e-06
7.21699165575e-06
7.21993039202e-06
7.22231179265e-06
7.22457711241e-06
7.22654338764e-06
7.22805504426e-06
7.22901623812e-06
7.22935228134e-06
7.22903734084e-06
7.22809505416e-06
7.22659761729e-06
7.22463971423e-06
7.22237959835e-06
7.22000259941e-06
7.21706698604e-06
7.22984651542e-06
7.23382479831e-06
7.23707180271e-06
7.24014535187e-06
7.24280222784e-06
7.24483792489e-06
7.24612733578e-06
7.24657522757e-06
7.24614818508e-06
7.24487761429e-06
7.24285652481e-06
7.24020884218e-06
7.23714065198e-06
7.23389873678e-06
7.22992280541e-06
7.24689237501e-06
7.25263091608e-06
7.25726511102e-06
7.26160604011e-06
7.26533088165e-06
7.26817027752e-06
7.26995943242e-06
7.27057683887e-06
7.26997989339e-06
7.26820943616e-06
7.2653850534e-06
7.26167037639e-06
7.25733536815e-06
7.25270652921e-06
7.24696966798e-06
7.26880474385e-06
7.27687392512e-06
7.28326569035e-06
7.28917846926e-06
7.29420653321e-06
7.29801633661e-06
7.30040406455e-06
7.3012236583e-06
7.30042398496e-06
7.29805457895e-06
7.29425985833e-06
7.28924249312e-06
7.28333623512e-06
7.27694999087e-06
7.26888218826e-06
7.29508427985e-06
7.30581729947e-06
7.31413371225e-06
7.32173183916e-06
7.32813459098e-06
7.33295628847e-06
7.33596290531e-06
7.33699058361e-06
7.33598198148e-06
7.3329930207e-06
7.32818616512e-06
7.32179435421e-06
7.3142031616e-06
7.30589274118e-06
7.29516027874e-06
7.3247460191e-06
7.33824498926e-06
7.34847794386e-06
7.35771465989e-06
7.3654310081e-06
7.37120734274e-06
7.37479221781e-06
7.37601330641e-06
7.37481023264e-06
7.371242127e-06
7.3654800949e-06
7.35777462581e-06
7.34854499932e-06
7.33831848355e-06
7.32481950055e-06
7.35672977791e-06
7.37289731691e-06
7.38490709e-06
7.39561882525e-06
7.40449510481e-06
7.41110207574e-06
7.4151843473e-06
7.41657073539e-06
7.41520110201e-06
7.41113450227e-06
7.40454108718e-06
7.3956753963e-06
7.38497085884e-06
7.37296764319e-06
7.35680002746e-06
7.39004644499e-06
7.40862980638e-06
7.42218919067e-06
7.43413864023e-06
7.44396653698e-06
7.4512427078e-06
7.45571985839e-06
7.4572363727e-06
7.4557352559e-06
7.45127255862e-06
7.4440090381e-06
7.43419120782e-06
7.42224890196e-06
7.40869610822e-06
7.39011243335e-06
7.42383479908e-06
7.44447259987e-06
7.45930313373e-06
7.47221618256e-06
7.48276355602e-06
7.49053297288e-06
7.49529493951e-06
7.49690408603e-06
7.49530893456e-06
7.49056015175e-06
7.48280239094e-06
7.47226447774e-06
7.45935839602e-06
7.44453436915e-06
7.42389605876e-06
7.45738321422e-06
7.47964403601e-06
7.49544194519e-06
7.50903610012e-06
7.52006901446e-06
7.52815687135e-06
7.53309532204e-06
7.53476040274e-06
7.53310796492e-06
7.52818147234e-06
7.52010426525e-06
7.50908010172e-06
7.49549261637e-06
7.47970101982e-06
7.45743923466e-06
7.49010841228e-06
7.51352341442e-06
7.52998359899e-06
7.54399295187e-06
7.55529242313e-06
7.56353535682e-06
7.56854950856e-06
7.57023637752e-06
7.5685609441e-06
7.56355761409e-06
7.55532442904e-06
7.5440330018e-06
7.53002993665e-06
7.51357563328e-06
7.49015923785e-06
7.52151564051e-06
7.54564003514e-06
7.56248748969e-06
7.5766754241e-06
7.58804050771e-06
7.5962866823e-06
7.60128273085e-06
7.60295986409e-06
7.60129313271e-06
7.59630705848e-06
7.58806980803e-06
7.57671220281e-06
7.56253008791e-06
7.54568800519e-06
7.5215615858e-06
7.55151326181e-06
7.57599955332e-06
7.59287135057e-06
7.60695940672e-06
7.61814257333e-06
7.62620610268e-06
7.63107157758e-06
7.63270119245e-06
7.63108120727e-06
7.62622495757e-06
7.6181698306e-06
7.60699357738e-06
7.59291108217e-06
7.57604378923e-06
7.5515549463e-06
7.58175662553e-06
7.60465207203e-06
7.62103254936e-06
7.63468473069e-06
7.64536452959e-06
7.65301008373e-06
7.65760506634e-06
7.65914115653e-06
7.65761398864e-06
7.6530277296e-06
7.64539015185e-06
7.63471710586e-06
7.62106999066e-06
7.60469333017e-06
7.58179591268e-06
8.96080451981e-06
8.96030509291e-06
8.95944844486e-06
8.95848158358e-06
8.95755160437e-06
8.9567967422e-06
8.95630493878e-06
8.95613345433e-06
8.95630390943e-06
8.95679555498e-06
8.95755179416e-06
8.95848381515e-06
8.95944714728e-06
8.96030222223e-06
8.96079490254e-06
8.96219120746e-06
8.96175563116e-06
8.96095738154e-06
8.96004551931e-06
8.9591567084e-06
8.95842997012e-06
8.9579539917e-06
8.95778742957e-06
8.95795259519e-06
8.95842799716e-06
8.95915567895e-06
8.9600460513e-06
8.9609549915e-06
8.96175076404e-06
8.9621803603e-06
8.9639705965e-06
8.96362180248e-06
8.96289717992e-06
8.96205630379e-06
8.96122164135e-06
8.96053382247e-06
8.96008096106e-06
8.95992214096e-06
8.96007977942e-06
8.96053215407e-06
8.9612207452e-06
8.96205663845e-06
8.96289522151e-06
8.96361713155e-06
8.96396014188e-06
8.96525287258e-06
8.96497091533e-06
8.96429620149e-06
8.96351154653e-06
8.96272235596e-06
8.96206928468e-06
8.96163819827e-06
8.96148695442e-06
8.96163738054e-06
8.96206817991e-06
8.96272185805e-06
8.96351198903e-06
8.96429488587e-06
8.96496724344e-06
8.96524277515e-06
8.966215202e-06
8.96602692347e-06
8.96541889638e-06
8.96471476186e-06
8.9639963824e-06
8.96339962135e-06
8.96300476077e-06
8.96286611322e-06
8.96300420193e-06
8.96339893556e-06
8.96399623328e-06
8.96471535003e-06
8.9654179657e-06
8.9660240977e-06
8.96620550635e-06
8.96716450082e-06
8.96713555335e-06
8.96664092204e-06
8.96606778742e-06
8.96546617339e-06
8.96496179318e-06
8.9646262447e-06
8.96450810253e-06
8.96462590523e-06
8.96496144078e-06
8.9654662603e-06
8.96606842274e-06
8.96664030144e-06
8.96713307187e-06
8.96715541907e-06
8.96830640324e-06
8.96851508674e-06
8.96818906087e-06
8.96780043779e-06
8.96736261497e-06
8.96698637256e-06
8.96673253511e-06
8.96664249935e-06
8.96673232732e-06
8.96698621482e-06
8.96736280691e-06
8.96780099709e-06
8.96818853868e-06
8.96851276001e-06
8.96829756737e-06
8.96976651488e-06
8.97028574104e-06
8.97017764404e-06
8.97001636594e-06
8.96977881165e-06
8.96955743698e-06
8.96940169223e-06
8.96934525848e-06
8.96940153442e-06
8.96955731741e-06
8.96977889251e-06
8.97001658307e-06
8.97017684542e-06
8.97028324077e-06
8.96975746299e-06
8.97160871586e-06
8.97249212583e-06
8.97263712262e-06
8.97272832683e-06
8.97271157862e-06
8.97265917229e-06
8.97260974431e-06
8.97258960109e-06
8.97260955414e-06
8.9726589321e-06
8.97271136507e-06
8.97272799122e-06
8.97263570719e-06
8.97248907243e-06
8.97159917428e-06
8.97384433382e-06
8.97511705621e-06
8.97553224303e-06
8.97588155072e-06
8.97608906261e-06
8.97620668032e-06
8.97626361579e-06
8.97627966778e-06
8.97626330965e-06
8.97620617086e-06
8.97608834219e-06
8.97588041073e-06
8.97552988865e-06
8.97511303351e-06
8.97383396574e-06
8.97644317062e-06
8.97809778556e-06
8.9787815586e-06
8.97937717321e-06
8.97979748037e-06
8.98007522225e-06
8.98023177061e-06
8.98028166266e-06
8.98023129883e-06
8.98007435402e-06
8.97979615454e-06
8.97937510783e-06
8.97877811554e-06
8.97809259777e-06
8.97643173201e-06
8.97933815926e-06
8.98133750993e-06
8.98227353662e-06
8.98309195404e-06
8.98370323159e-06
8.98412366426e-06
8.98436865474e-06
8.98444848244e-06
8.9843680022e-06
8.98412239395e-06
8.98370124578e-06
8.98308894684e-06
8.98226895775e-06
8.98133115954e-06
8.97932572879e-06
8.98242850703e-06
8.98472543086e-06
8.98589085632e-06
8.98690050341e-06
8.98767321722e-06
8.9882140243e-06
8.98853338993e-06
8.98863851942e-06
8.98853255406e-06
8.988212383e-06
8.98767066055e-06
8.98689664447e-06
8.98588527666e-06
8.98471798457e-06
8.98241509215e-06
8.98573059335e-06
8.98827698521e-06
8.98958840517e-06
8.99072555754e-06
8.99160586243e-06
8.99222883039e-06
8.99260010726e-06
8.99272283109e-06
8.99259910199e-06
8.99222691704e-06
8.99160281053e-06
8.99072105419e-06
8.98958204991e-06
8.98826860422e-06
8.98571657833e-06
8.98993980777e-06
8.99191761987e-06
8.99321895932e-06
8.99439173775e-06
8.99530618777e-06
8.99596174127e-06
8.99635536426e-06
8.99648602045e-06
8.99635421786e-06
8.9959594929e-06
8.99530274601e-06
8.9943866801e-06
8.99321187587e-06
8.99190818418e-06
8.98992550283e-06
6.36586627806e-06
6.36631374535e-06
6.36690498352e-06
6.36751910165e-06
6.36808025597e-06
6.36852664956e-06
6.36881429303e-06
6.3689162264e-06
6.36882205275e-06
6.36854094256e-06
6.36809837374e-06
6.36753650681e-06
6.36691891607e-06
6.36632032145e-06
6.36587116633e-06
6.36651130053e-06
6.36697184394e-06
6.36758119839e-06
6.36821313457e-06
6.368793588e-06
6.36925688885e-06
6.36955619546e-06
6.36966241773e-06
6.3695642285e-06
6.36927167409e-06
6.36881227452e-06
6.36823105353e-06
6.36759485137e-06
6.36697843305e-06
6.36651466406e-06
6.36695792543e-06
6.36741814925e-06
6.36803261526e-06
6.36866840926e-06
6.36925600527e-06
6.36972632225e-06
6.37003072942e-06
6.37013868359e-06
6.37003830739e-06
6.36974027063e-06
6.36927365695e-06
6.36868562671e-06
6.36804569119e-06
6.36742538124e-06
6.36696114974e-06
6.36735938885e-06
6.36782204436e-06
6.36844389132e-06
6.36908195426e-06
6.3696735438e-06
6.37014776812e-06
6.3704549563e-06
6.37056370972e-06
6.37046186139e-06
6.3701604656e-06
6.36968961532e-06
6.36909780489e-06
6.36845611388e-06
6.36782919746e-06
6.36736256258e-06
6.36776433572e-06
6.36823208061e-06
6.36886520975e-06
6.36950627185e-06
6.37010137636e-06
6.37057887273e-06
6.37088823123e-06
6.37099757142e-06
6.3708944886e-06
6.37059036341e-06
6.37011597066e-06
6.36952074415e-06
6.36887663512e-06
6.36823888475e-06
6.36776740101e-06
6.36817185135e-06
6.368649261e-06
6.36930051757e-06
6.3699485647e-06
6.37055025002e-06
6.37103305407e-06
6.37134578811e-06
6.37145604658e-06
6.37135130608e-06
6.37104318148e-06
6.37056310346e-06
6.36996138536e-06
6.36931068873e-06
6.36865576299e-06
6.36817419203e-06
6.36859750796e-06
6.36909707672e-06
6.36977698429e-06
6.37044101844e-06
6.37105646254e-06
6.37154981235e-06
6.37186907236e-06
6.3719812892e-06
6.37187384256e-06
6.37155857387e-06
6.37106758419e-06
6.37045218551e-06
6.36978583157e-06
6.36910309595e-06
6.36859925564e-06
6.36907195177e-06
6.36961313892e-06
6.37033491647e-06
6.37102695559e-06
6.37166519725e-06
6.37217546937e-06
6.372504966e-06
6.3726203616e-06
6.37250896346e-06
6.37218280488e-06
6.37167452881e-06
6.37103637506e-06
6.37034249315e-06
6.36961848434e-06
6.36907337059e-06
6.36962608889e-06
6.37023140129e-06
6.37100790534e-06
6.37173883382e-06
6.37240744399e-06
6.37293950026e-06
6.37328189758e-06
6.3734013167e-06
6.3732851761e-06
6.37294551422e-06
6.37241511864e-06
6.37174662101e-06
6.37101427306e-06
6.37023608293e-06
6.36962700683e-06
6.3702820435e-06
6.37097368724e-06
6.37181387171e-06
6.37259024705e-06
6.37329254168e-06
6.37384763453e-06
6.37420323756e-06
6.37432669698e-06
6.37420585813e-06
6.37385245057e-06
6.37329869999e-06
6.37259656593e-06
6.37181914977e-06
6.37097780354e-06
6.37028251758e-06
6.37105165624e-06
6.3718474849e-06
6.37275396269e-06
6.37357596733e-06
6.37430946351e-06
6.37488438804e-06
6.37525062367e-06
6.37537721463e-06
6.37525270061e-06
6.37488820275e-06
6.37431436578e-06
6.37358101023e-06
6.37275825859e-06
6.37185096349e-06
6.37105153266e-06
6.37193104491e-06
6.37284348092e-06
6.37381327799e-06
6.37467522151e-06
6.37543237126e-06
6.37601991096e-06
6.3763918219e-06
6.37651975644e-06
6.3763934825e-06
6.37602296493e-06
6.37543628268e-06
6.37467928057e-06
6.37381675105e-06
6.37284630755e-06
6.37193021115e-06
6.37289924141e-06
6.37394162003e-06
6.37496939932e-06
6.37586057562e-06
6.3766296956e-06
6.37722000112e-06
6.37759083997e-06
6.37771792771e-06
6.37759221521e-06
6.3772225092e-06
6.3766329638e-06
6.37586391005e-06
6.37497226063e-06
6.37394384287e-06
6.37289774247e-06
6.37402220522e-06
6.37520671638e-06
6.37624556117e-06
6.37713093911e-06
6.377883889e-06
6.37845586984e-06
6.37881290027e-06
6.37893463399e-06
6.37881407973e-06
6.37845811968e-06
6.37788674596e-06
6.37713390032e-06
6.37624803825e-06
6.37520838732e-06
6.37401994145e-06
6.37593735959e-06
6.37681852073e-06
6.37771133966e-06
6.37848544171e-06
6.37914488505e-06
6.3796444221e-06
6.37995511173e-06
6.38006092987e-06
6.37995622902e-06
6.37964649649e-06
6.37914763816e-06
6.37848826783e-06
6.37771364257e-06
6.37681973835e-06
6.37593503735e-06
5.90750363284e-06
5.90735935942e-06
5.90718603422e-06
5.90696943767e-06
5.90676579796e-06
5.90659747857e-06
5.90648553524e-06
5.90644438076e-06
5.90648016788e-06
5.90658804622e-06
5.9067546756e-06
5.90695675007e-06
5.90716914437e-06
5.90734126596e-06
5.90747848567e-06
5.90798474723e-06
5.90785999213e-06
5.90770204978e-06
5.907498442e-06
5.90730449047e-06
5.90714239011e-06
5.90703394526e-06
5.90699388596e-06
5.90702847171e-06
5.90713270754e-06
5.90729288556e-06
5.90748533216e-06
5.90768501005e-06
5.90784076383e-06
5.90795900595e-06
5.90855842837e-06
5.90845287184e-06
5.90831432104e-06
5.9081247554e-06
5.90794105594e-06
5.90778541376e-06
5.90768071541e-06
5.90764194622e-06
5.90767538712e-06
5.90777585722e-06
5.90792928355e-06
5.90811135573e-06
5.90829763486e-06
5.90843372156e-06
5.90853340954e-06
5.90899742049e-06
5.90889626156e-06
5.90876770494e-06
5.90858244559e-06
5.90840122573e-06
5.90824627139e-06
5.90814186016e-06
5.90810326846e-06
5.90813676354e-06
5.90823698085e-06
5.90838939202e-06
5.90856890279e-06
5.90875143291e-06
5.90887781417e-06
5.9089731057e-06
5.90931519368e-06
5.90920943542e-06
5.90908495642e-06
5.90889827955e-06
5.9087154257e-06
5.90855857402e-06
5.90845290909e-06
5.90841398276e-06
5.90844805178e-06
5.90854962854e-06
5.90870380437e-06
5.90888488626e-06
5.90906913319e-06
5.90919185606e-06
5.90929160065e-06
5.90955003202e-06
5.90943793241e-06
5.90931627891e-06
5.909127843e-06
5.90894374625e-06
5.90878579223e-06
5.90867956029e-06
5.90864057792e-06
5.90867499041e-06
5.90877729603e-06
5.90893249353e-06
5.90911477799e-06
5.90930104404e-06
5.90942087776e-06
5.90952752165e-06
5.90972975663e-06
5.90961431021e-06
5.90949940078e-06
5.90931358735e-06
5.90913271152e-06
5.90897770371e-06
5.90887361842e-06
5.90883554375e-06
5.90886935712e-06
5.90896972836e-06
5.90912200131e-06
5.90930102503e-06
5.90948487886e-06
5.9095978813e-06
5.90970813055e-06
5.90988112078e-06
5.90977114952e-06
5.90967136584e-06
5.90949678722e-06
5.90932716572e-06
5.90918180706e-06
5.90908426083e-06
5.90904862596e-06
5.90908032431e-06
5.90917438677e-06
5.90931704706e-06
5.9094847379e-06
5.90965742063e-06
5.90975527593e-06
5.90986006957e-06
5.91003263492e-06
5.90994227606e-06
5.90986912605e-06
5.90971747057e-06
5.90956956601e-06
5.90944230189e-06
5.90935671126e-06
5.90932538392e-06
5.90935309059e-06
5.9094354241e-06
5.90956006185e-06
5.90970596166e-06
5.90985567781e-06
5.90992686625e-06
5.91001211346e-06
5.91021233523e-06
5.91015906941e-06
5.91012513523e-06
5.91000904453e-06
5.90989377946e-06
5.90979320711e-06
5.90972505746e-06
5.90969989054e-06
5.90972171591e-06
5.90978681739e-06
5.9098848038e-06
5.90999796478e-06
5.9101120149e-06
5.910143887e-06
5.91019222563e-06
5.91044389683e-06
5.91044562996e-06
5.91046217909e-06
5.91039287637e-06
5.91031973732e-06
5.91025326738e-06
5.91020717306e-06
5.91018975259e-06
5.91020407192e-06
5.91024728426e-06
5.910311227e-06
5.91038214572e-06
5.91044932087e-06
5.91043059074e-06
5.9104241146e-06
5.91074090132e-06
5.91081387095e-06
5.91088926437e-06
5.91087498712e-06
5.91085103312e-06
5.91082399052e-06
5.91080337516e-06
5.91079477458e-06
5.91080046309e-06
5.91081833859e-06
5.9108428405e-06
5.9108645286e-06
5.91087656815e-06
5.91079900834e-06
5.91072153639e-06
5.91110684516e-06
5.91126506834e-06
5.91140333567e-06
5.91144792956e-06
5.91147685914e-06
5.91149253281e-06
5.91149922914e-06
5.91150022881e-06
5.91149646693e-06
5.91148707255e-06
5.91146896175e-06
5.91143760066e-06
5.91139077307e-06
5.91125031875e-06
5.91108788727e-06
5.91159857764e-06
5.91184858811e-06
5.91202241866e-06
5.91211153178e-06
5.91218521751e-06
5.9122379089e-06
5.91226895265e-06
5.91227824623e-06
5.9122662514e-06
5.91223267459e-06
5.9121774174e-06
5.91210139281e-06
5.91200989567e-06
5.91183392741e-06
5.91158015686e-06
5.91257944347e-06
5.91264973082e-06
5.91276417702e-06
5.91284313336e-06
5.91292357339e-06
5.91298683404e-06
5.9130258866e-06
5.91303827126e-06
5.91302326353e-06
5.91298161794e-06
5.91291590603e-06
5.91283293776e-06
5.9127515777e-06
5.91263467911e-06
5.91256128997e-06
4.64024295678e-06
4.6403487686e-06
4.64048659868e-06
4.64062686622e-06
4.64075542436e-06
4.64085746373e-06
4.64092411315e-06
4.64094918607e-06
4.64093015424e-06
4.64086859831e-06
4.64076976401e-06
4.64064193464e-06
4.64050065048e-06
4.64035866283e-06
4.64025295846e-06
4.64058646943e-06
4.64070219445e-06
4.64085141182e-06
4.64100133144e-06
4.64113902791e-06
4.64124852367e-06
4.64132013646e-06
4.64134704296e-06
4.64132646824e-06
4.64126019437e-06
4.64115401879e-06
4.64101697938e-06
4.64086558567e-06
4.64071243285e-06
4.64059537168e-06
4.6409024348e-06
4.64102624391e-06
4.64118557161e-06
4.64134288593e-06
4.64148776152e-06
4.64160272471e-06
4.64167778115e-06
4.64170573288e-06
4.64168372346e-06
4.64161368133e-06
4.64150187003e-06
4.64135782361e-06
4.64119913175e-06
4.64103697128e-06
4.64091117557e-06
4.64117879336e-06
4.64131058476e-06
4.6414792655e-06
4.64164282476e-06
4.64179337626e-06
4.64191253855e-06
4.64199013629e-06
4.64201875541e-06
4.64199553408e-06
4.64192249855e-06
4.64180623072e-06
4.64165655233e-06
4.6414919382e-06
4.64132104177e-06
4.64118751658e-06
4.64143731344e-06
4.64157717461e-06
4.64175548869e-06
4.64192497129e-06
4.64208062099e-06
4.64220350985e-06
4.64228328318e-06
4.6423124674e-06
4.64228817436e-06
4.64221253846e-06
4.64209233964e-06
4.64193757778e-06
4.64176742578e-06
4.64158720869e-06
4.64144590728e-06
4.64168475656e-06
4.64183254303e-06
4.64202157051e-06
4.6421966704e-06
4.64235712082e-06
4.64248342119e-06
4.64256516727e-06
4.64259482627e-06
4.64256954223e-06
4.64249150984e-06
4.64236765103e-06
4.64220806108e-06
4.64203244896e-06
4.641842223e-06
4.64169266542e-06
4.6419231509e-06
4.64208040528e-06
4.64228104264e-06
4.64246216422e-06
4.64262763375e-06
4.64275746416e-06
4.64284122681e-06
4.64287137558e-06
4.64284509568e-06
4.64276464183e-06
4.64263702632e-06
4.64247242872e-06
4.64229092546e-06
4.64208965144e-06
4.641930506e-06
4.64215698281e-06
4.64232669031e-06
4.6425403434e-06
4.64272866223e-06
4.64289986071e-06
4.64303376698e-06
4.64311985561e-06
4.64315061411e-06
4.64312323864e-06
4.64304006065e-06
4.64290815183e-06
4.64273781426e-06
4.64254931453e-06
4.64233535899e-06
4.64216404712e-06
4.64239289461e-06
4.64257883514e-06
4.64280763562e-06
4.64300484083e-06
4.64318296425e-06
4.64332186091e-06
4.64341083179e-06
4.64344240541e-06
4.64341377781e-06
4.64332736014e-06
4.64319028326e-06
4.6430130299e-06
4.64281585075e-06
4.6425870271e-06
4.64239953534e-06
4.64263791515e-06
4.64284538246e-06
4.64309170136e-06
4.64329958256e-06
4.64348587797e-06
4.64363065763e-06
4.64372308639e-06
4.64375566854e-06
4.64372564306e-06
4.64363546489e-06
4.64349232761e-06
4.64330693848e-06
4.64309927198e-06
4.64285319864e-06
4.64264423855e-06
4.64290002696e-06
4.6431350592e-06
4.6434006247e-06
4.64362040687e-06
4.6438155459e-06
4.64396676029e-06
4.64406293475e-06
4.64409666793e-06
4.64406518011e-06
4.64397099608e-06
4.64382130945e-06
4.64362706604e-06
4.64340766044e-06
4.64314248041e-06
4.64290591352e-06
4.64318457302e-06
4.64345367335e-06
4.64373937863e-06
4.64397138719e-06
4.64417549488e-06
4.64433307631e-06
4.64443302996e-06
4.6444678807e-06
4.64443502811e-06
4.64433689388e-06
4.64418068425e-06
4.64397752191e-06
4.64374595538e-06
4.64346067568e-06
4.64318993642e-06
4.64349451252e-06
4.64380473961e-06
4.64411024324e-06
4.64435359098e-06
4.64456590346e-06
4.64472959547e-06
4.64483289398e-06
4.64486888063e-06
4.64483473709e-06
4.64473304384e-06
4.64457075189e-06
4.64435925886e-06
4.64411645744e-06
4.64381131389e-06
4.64349937546e-06
4.64388189925e-06
4.64423761041e-06
4.64454054851e-06
4.64478170187e-06
4.64499343831e-06
4.64515647026e-06
4.64525930996e-06
4.64529489311e-06
4.64526099521e-06
4.64515978042e-06
4.64499794338e-06
4.6447871509e-06
4.64454641536e-06
4.644243728e-06
4.64388606299e-06
4.64467457744e-06
4.64487897838e-06
4.64509397654e-06
4.64527908742e-06
4.64544999783e-06
4.64558337522e-06
4.64566762305e-06
4.64569694239e-06
4.64566926783e-06
4.6455864938e-06
4.64545439829e-06
4.64528428763e-06
4.64509961332e-06
4.64488454907e-06
4.64467850291e-06
3.79052854414e-06
3.79052438882e-06
3.79052719381e-06
3.79051652297e-06
3.79050252819e-06
3.7904876646e-06
3.7904766785e-06
3.79047191139e-06
3.79047448259e-06
3.79048362107e-06
3.7904972662e-06
3.7905114998e-06
3.79052373271e-06
3.79052349999e-06
3.79052249407e-06
3.79080198056e-06
3.79080787887e-06
3.79081885886e-06
3.79081537802e-06
3.79080719119e-06
3.79079654824e-06
3.79078805823e-06
3.79078410239e-06
3.7907857886e-06
3.79079235804e-06
3.79080178977e-06
3.79081022796e-06
3.79081535041e-06
3.79080644294e-06
3.79079587968e-06
3.79108435971e-06
3.79109848379e-06
3.79111671583e-06
3.79111872398e-06
3.79111507723e-06
3.79110772095e-06
3.79110120347e-06
3.79109792178e-06
3.79109899985e-06
3.79110368868e-06
3.79110995452e-06
3.79111385382e-06
3.79111344636e-06
3.79109663802e-06
3.79107853566e-06
3.79130770715e-06
3.79132437902e-06
3.79134680692e-06
3.79135043052e-06
3.79134829447e-06
3.79134196554e-06
3.79133602622e-06
3.79133297393e-06
3.79133397025e-06
3.79133826128e-06
3.79134371812e-06
3.79134619152e-06
3.79134395692e-06
3.79132275936e-06
3.79130206182e-06
3.79148544679e-06
3.79150151349e-06
3.79152627669e-06
3.791529409e-06
3.79152703058e-06
3.79152041501e-06
3.79151427262e-06
3.79151120953e-06
3.79151242338e-06
3.791517125e-06
3.79152306516e-06
3.79152586518e-06
3.79152390981e-06
3.79150034591e-06
3.79148015333e-06
3.7916305323e-06
3.79164527966e-06
3.7916713448e-06
3.79167327446e-06
3.79167008084e-06
3.79166283355e-06
3.7916563131e-06
3.79165320815e-06
3.79165473307e-06
3.79166006873e-06
3.79166686259e-06
3.7916705604e-06
3.79166961527e-06
3.79164435521e-06
3.79162593531e-06
3.79175114708e-06
3.79176462309e-06
3.79179245574e-06
3.79179369982e-06
3.79179008344e-06
3.79178259842e-06
3.79177599047e-06
3.79177296777e-06
3.79177470761e-06
3.7917803963e-06
3.79178761582e-06
3.79179177083e-06
3.79179139575e-06
3.79176399357e-06
3.79174706726e-06
3.79185490693e-06
3.79186882937e-06
3.79190008985e-06
3.79190211955e-06
3.79189940298e-06
3.79189282068e-06
3.79188689563e-06
3.7918842294e-06
3.79188592063e-06
3.79189119031e-06
3.79189766441e-06
3.79190088519e-06
3.79189951649e-06
3.79186841425e-06
3.79185101344e-06
3.79194984834e-06
3.79196784625e-06
3.79200508555e-06
3.79201035226e-06
3.7920106634e-06
3.79200670406e-06
3.79200258414e-06
3.79200065061e-06
3.79200188608e-06
3.79200557022e-06
3.79200952341e-06
3.79200964592e-06
3.79200480899e-06
3.79196750178e-06
3.79194607094e-06
3.79204461949e-06
3.79207171712e-06
3.79211798141e-06
3.79212943322e-06
3.79213528586e-06
3.79213601142e-06
3.79213502425e-06
3.79213427681e-06
3.79213455017e-06
3.79213526526e-06
3.79213458185e-06
3.7921290245e-06
3.79211775473e-06
3.79207117843e-06
3.79204078645e-06
3.79214742807e-06
3.79218943611e-06
3.79224781307e-06
3.79226837134e-06
3.79228233368e-06
3.79228982117e-06
3.7922933144e-06
3.79229418935e-06
3.79229298326e-06
3.79228931837e-06
3.79228185421e-06
3.79226803906e-06
3.79224745307e-06
3.79218856592e-06
3.79214343975e-06
3.79226396379e-06
3.79232721242e-06
3.79240043559e-06
3.79243266522e-06
3.79245713816e-06
3.79247341858e-06
3.79248269071e-06
3.79248561357e-06
3.79248242633e-06
3.79247297975e-06
3.79245668245e-06
3.7924321833e-06
3.792399739e-06
3.79232595823e-06
3.79225984021e-06
3.79239804443e-06
3.79248890338e-06
3.79257861485e-06
3.7926242161e-06
3.79266144861e-06
3.79268847115e-06
3.79270484982e-06
3.79271023179e-06
3.79270454734e-06
3.79268797998e-06
3.79266079868e-06
3.79262340366e-06
3.79257745403e-06
3.79248715372e-06
3.79239375451e-06
3.79258855726e-06
3.79271085588e-06
3.79280209743e-06
3.79285376576e-06
3.79290000135e-06
3.79293555028e-06
3.7929576472e-06
3.79296501945e-06
3.79295724745e-06
3.79293483092e-06
3.79289901466e-06
3.79285242985e-06
3.79280030361e-06
3.79270846023e-06
3.79258408448e-06
3.79307133022e-06
3.793081632e-06
3.79311393191e-06
3.79313519034e-06
3.7931643518e-06
3.79318933745e-06
3.79320549008e-06
3.79321085508e-06
3.79320490504e-06
3.7931882423e-06
3.79316278546e-06
3.79313307865e-06
3.7931112095e-06
3.79307816232e-06
3.79306633494e-06
2.90773514227e-06
2.90775049504e-06
2.9077754539e-06
2.90779946873e-06
2.90782242078e-06
2.90784071425e-06
2.90785286248e-06
2.90785814433e-06
2.9078563824e-06
2.90784764624e-06
2.90783248429e-06
2.90781147185e-06
2.90778764525e-06
2.90775965441e-06
2.90774268217e-06
2.90793822088e-06
2.90795986978e-06
2.9079920036e-06
2.90802176946e-06
2.90804976309e-06
2.90807191198e-06
2.90808651223e-06
2.908092686e-06
2.90809017879e-06
2.90807912626e-06
2.90806021934e-06
2.90803425355e-06
2.90800459821e-06
2.90796973596e-06
2.90794513143e-06
2.90815662977e-06
2.90818538548e-06
2.90822566423e-06
2.90826098822e-06
2.90829374541e-06
2.90831927752e-06
2.90833598965e-06
2.90834284171e-06
2.90833954591e-06
2.90832625513e-06
2.90830378019e-06
2.90827301778e-06
2.90823778742e-06
2.90819559128e-06
2.90816356755e-06
2.9083408976e-06
2.90837484669e-06
2.90842123785e-06
2.90846037433e-06
2.90849616754e-06
2.90852374136e-06
2.90854168282e-06
2.90854888947e-06
2.90854506083e-06
2.90853034901e-06
2.90850561477e-06
2.90847175821e-06
2.90843294261e-06
2.90838510187e-06
2.90834829964e-06
2.9084994204e-06
2.90853693327e-06
2.90858833626e-06