/*--------------------------------*- C++ -*----------------------------------*\
  =========                 |
  \\      /  F ield         | OpenFOAM: The Open Source CFD Toolbox
   \\    /   O peration     | Website:  https://openfoam.org
    \\  /    A nd           | Version:  7
     \\/     M anipulation  |
\*---------------------------------------------------------------------------*/
FoamFile
{
    version     2.0;
    format      ascii;
    class       surfaceScalarField;
    location    "1.14";
    object      phi;
}
// * * * * * * * * * * * * * * * * * * * * * * * * * * * * * * * * * * * * * //

dimensions      [0 3 -1 0 0 0 0];

internalField   nonuniform List<scalar> 
65775
(
3.63994327041e-11
6.47971260098e-09
1.20411076613e-09
3.24328312538e-13
5.08099294824e-11
6.77518853566e-09
1.33094479444e-09
5.92346699046e-11
7.02096250948e-09
1.45083260084e-09
5.75663595325e-11
7.2332280885e-09
1.55820725213e-09
4.78828252789e-11
7.4014125442e-09
1.64783863261e-09
3.16467744804e-11
7.52411099343e-09
1.71538493776e-09
1.12677997902e-11
7.60114193555e-09
1.75800065086e-09
-1.05975792324e-11
7.6304297522e-09
1.77332113608e-09
-3.10100765081e-11
7.60100494609e-09
1.75800137485e-09
-4.73101001617e-11
7.52384400955e-09
1.71538667811e-09
-5.70941610342e-11
7.40101983562e-09
1.64784178078e-09
-5.88921405308e-11
7.23274248172e-09
1.55821158225e-09
-5.06278502797e-11
7.02041548333e-09
1.45083789877e-09
-3.63361761514e-11
6.77469091827e-09
1.33095811196e-09
6.47940126231e-09
1.20417488999e-09
2.93431053445e-13
9.37761578211e-11
1.0818000442e-08
2.92287450883e-09
7.65690996085e-13
1.50542385672e-10
1.12591877535e-08
3.21348168851e-09
1.76227253448e-10
1.16218709638e-08
3.48509354231e-09
1.73041851095e-10
1.19288503028e-08
3.72622525723e-09
1.44224319798e-10
1.21701640094e-08
3.92607199203e-09
9.53754715377e-11
1.23447621878e-08
4.07588637274e-09
3.37799711897e-11
1.24542599662e-08
4.17012524193e-09
-3.21719102346e-11
1.24962985764e-08
4.20399709126e-09
-9.38471836619e-11
1.24539535286e-08
4.17012945378e-09
-1.42852382522e-10
1.23441629322e-08
4.07589507755e-09
-1.71907964182e-10
1.21692887507e-08
3.92608555231e-09
-1.75405704889e-10
1.19277567176e-08
3.7262421978e-09
-1.50081682562e-10
1.16206435715e-08
3.48511249641e-09
-9.36110749429e-11
1.12580218649e-08
3.21352135704e-09
1.08171597229e-08
2.92302538639e-09
6.93884606648e-13
1.39740682577e-10
1.35259818279e-08
4.14169852916e-09
1.0169232276e-12
2.30925530662e-10
1.4012373493e-08
4.54304946449e-09
2.69951136228e-10
1.44104691565e-08
4.91497022491e-09
2.64681287991e-10
1.47381405123e-08
5.24301409049e-09
2.20123623864e-10
1.49932702012e-08
5.51345002769e-09
1.45299640442e-10
1.51759556353e-08
5.71537699891e-09
5.13243533657e-11
1.52904103869e-08
5.84205484791e-09
-4.91282748881e-11
1.53349349014e-08
5.88751633372e-09
-1.43211915897e-10
1.52899871312e-08
5.84206127319e-09
-2.18249704157e-10
1.51751288714e-08
5.71539013007e-09
-2.63127831356e-10
1.499206845e-08
5.51346960918e-09
-2.68815787689e-10
1.4736635171e-08
5.24303709409e-09
-2.30259257794e-10
1.44087815901e-08
4.91499319673e-09
-1.39474606918e-10
1.40107342023e-08
4.54309486443e-09
1.35247152365e-08
4.14188525871e-09
9.57072545074e-13
1.77579651446e-10
1.49808808609e-08
4.99154162909e-09
1.1693549996e-12
2.94953296494e-10
1.54480840448e-08
5.46749870118e-09
3.44511868292e-10
1.58295651063e-08
5.90483977884e-09
3.36844130039e-10
1.61331381761e-08
6.28805996617e-09
2.79459409342e-10
1.63663496386e-08
6.60229359291e-09
1.84101684248e-10
1.65311425559e-08
6.83597413319e-09
6.48977024236e-11
1.66342773096e-08
6.98215080711e-09
-6.23210295077e-11
1.6675137628e-08
7.03450701854e-09
-1.81652393045e-10
1.66337884757e-08
6.98215633625e-09
-2.77261854232e-10
1.65301870378e-08
6.83598529207e-09
-3.35019391931e-10
1.63649666003e-08
6.60230923401e-09
-3.43165303237e-10
1.61314073269e-08
6.28807549839e-09
-2.94135244916e-10
1.58276179888e-08
5.90484917519e-09
-1.77218477562e-10
1.54461589592e-08
5.46752206777e-09
1.4979296767e-08
4.99170474513e-09
1.14880596343e-12
2.07509491691e-10
1.54891973143e-08
5.54284972813e-09
1.24975760378e-12
3.44782127529e-10
1.58987078885e-08
6.0658610698e-09
4.02507831451e-10
1.62339698196e-08
6.54228285771e-09
3.92632592044e-10
1.64899013712e-08
6.95687643807e-09
3.25079485179e-10
1.66829505882e-08
7.29494377248e-09
2.13792089953e-10
1.68170112051e-08
7.54528606732e-09
7.52374728656e-11
1.69008334929e-08
7.70140191311e-09
-7.24327086162e-11
1.6934903692e-08
7.7571872998e-09
-2.11126386039e-10
1.69003187806e-08
7.70140487817e-09
-3.22687659181e-10
1.68160066219e-08
7.54529110353e-09
-3.90642256338e-10
1.66815005686e-08
7.29494858796e-09
-4.01023594375e-10
1.64880896995e-08
6.95687465726e-09
-3.43849888304e-10
1.62319221845e-08
6.54226534323e-09
-2.07058063279e-10
1.58966613294e-08
6.06584310728e-09
1.54874395402e-08
5.54295335428e-09
1.29113688379e-12
2.30871146395e-10
1.53008594109e-08
5.85085268319e-09
1.27872428528e-12
3.82664833725e-10
1.56336503364e-08
6.40020669184e-09
4.4632901008e-10
1.59093784887e-08
6.89625514247e-09
4.34453614546e-10
1.61090474152e-08
7.32487442251e-09
3.59057341353e-10
1.62559441617e-08
7.67240130661e-09
2.35789496142e-10
1.63555701257e-08
7.92864590323e-09
8.2861791533e-11
1.64178316014e-08
8.08792736495e-09
-7.99366586458e-11
1.64440986196e-08
8.14468534426e-09
-2.33008970904e-10
1.6417327861e-08
8.08792613767e-09
-3.56561000813e-10
1.63545873639e-08
7.92864186829e-09
-4.32369209368e-10
1.6254529593e-08
7.6723908917e-09
-4.44756322268e-10
1.61072823967e-08
7.32484930739e-09
-3.81640227275e-10
1.59073788269e-08
6.89620287876e-09
-2.30328150459e-10
1.56316253252e-08
6.40013791822e-09
1.52990632338e-08
5.85088460895e-09
1.39811687095e-12
2.4914889875e-10
1.46178001018e-08
5.96204515565e-09
1.27233451616e-12
4.10917130426e-10
1.48691381575e-08
6.52287372947e-09
4.784852e-10
1.50831283396e-08
7.02494664487e-09
4.64747033703e-10
1.52276000664e-08
7.45572403642e-09
3.83442081805e-10
1.53302028186e-08
7.80306206146e-09
2.51469037443e-10
1.53974606917e-08
8.05809541309e-09
8.8265778348e-11
1.54395306673e-08
8.21610018248e-09
-8.52923907679e-11
1.54583250463e-08
8.2722134559e-09
-2.48641340422e-10
1.5439066013e-08
8.21609448106e-09
-3.80899386139e-10
1.53965549162e-08
8.05808171382e-09
-4.62613297255e-10
1.53289025757e-08
7.80303541375e-09
-4.76851801524e-10
1.52259798119e-08
7.455674048e-09
-4.09811815441e-10
1.50812883109e-08
7.02485771967e-09
-2.48508367095e-10
1.48672599521e-08
6.52275357989e-09
1.46160890284e-08
5.96200780047e-09
1.48503414983e-12
2.6338160851e-10
1.36008460321e-08
5.91648724561e-09
1.24011166897e-12
4.31491505128e-10
1.37755437288e-08
6.47881587151e-09
5.01280214868e-10
1.39324070202e-08
6.97814537585e-09
4.85819007229e-10
1.40283119298e-08
7.40369219228e-09
4.00185946693e-10
1.40928621631e-08
7.74501599571e-09
2.62139102875e-10
1.41329536602e-08
7.99464916132e-09
9.19173079674e-11
1.41581576914e-08
8.14879500991e-09
-8.89402594874e-11
1.41705539939e-08
8.20331452842e-09
-2.59305276852e-10
1.41577542678e-08
8.14878520404e-09
-3.97630459211e-10
1.41321686042e-08
7.99462654854e-09
-4.83659407622e-10
1.40917375803e-08
7.74497425467e-09
-4.99597865499e-10
1.40269134615e-08
7.40361893079e-09
-4.30305755165e-10
1.39308155769e-08
6.97802247062e-09
-2.62635076135e-10
1.3773910217e-08
6.47865052936e-09
1.35993230387e-08
5.91639172063e-09
1.55940313493e-12
2.74307316287e-10
1.23757281728e-08
5.74852631715e-09
1.19085666296e-12
4.46035831155e-10
1.24840778958e-08
6.3062843684e-09
5.16814376137e-10
1.25919269321e-08
6.79787625976e-09
4.99830732925e-10
1.26484185464e-08
7.21423704778e-09
4.11130461445e-10
1.26830334274e-08
7.54660510125e-09
2.69031414718e-10
1.27024112455e-08
7.78882569895e-09
9.42545423592e-11
1.27148401569e-08
7.93790225347e-09
-9.12963232815e-11
1.27222256162e-08
7.99037085679e-09
-2.66210898199e-10
1.27145134234e-08
7.93788908016e-09
-4.08576109912e-10
1.27017767741e-08
7.78879573669e-09
-4.97651173493e-10
1.26821274111e-08
7.54655082101e-09
-5.15081514245e-10
1.26472937879e-08
7.21414439156e-09
-4.44761765757e-10
1.25906458775e-08
6.79772556385e-09
-2.73444299223e-10
1.24827590343e-08
6.30608483919e-09
1.23744753907e-08
5.74838871088e-09
1.62848651162e-12
2.82499999342e-10
1.10387144184e-08
5.48705337811e-09
1.13086659197e-12
4.55997882497e-10
1.10932672831e-08
6.03708745618e-09
5.27062314945e-10
1.11613236507e-08
6.51869049897e-09
5.088581976e-10
1.11880627009e-08
6.9243474271e-09
4.18047572511e-10
1.12011397673e-08
7.24682417861e-09
2.73322852083e-10
1.12063076687e-08
7.48110777985e-09
9.5693446764e-11
1.12100578468e-08
7.62483213654e-09
-9.27585653489e-11
1.12138526551e-08
7.67512520887e-09
-2.70517733533e-10
1.12098169999e-08
7.62481657856e-09
-4.15491909004e-10
1.12058415442e-08
7.48107262374e-09
-5.0665098995e-10
1.12004774557e-08
7.24676104313e-09
-5.25266273714e-10
1.11872438839e-08
6.92424118366e-09
-4.54621393177e-10
1.11603907687e-08
6.51852110995e-09
-2.81506871474e-10
1.10923086818e-08
6.03686826977e-09
1.10377860912e-08
5.48689266179e-09
1.69785298218e-12
2.88392302727e-10
9.66195598456e-09
5.15574176982e-09
1.06549515401e-12
4.62713575764e-10
9.67504934278e-09
5.6969067812e-09
5.33977896429e-10
9.71209923446e-09
6.1680987525e-09
5.14966430766e-10
9.71818187478e-09
6.56311669336e-09
4.22673691905e-10
9.71756478053e-09
6.87603788831e-09
2.76148623454e-10
9.71443078296e-09
7.10278315621e-09
9.6630665225e-11
9.71317125491e-09
7.241440177e-09
-9.3708825642e-11
9.71466678626e-09
7.28963735076e-09
-2.73346647259e-10
9.71301938813e-09
7.24142352046e-09
-4.20101027042e-10
9.71413966546e-09
7.10274569302e-09
-5.12712209334e-10
9.71715571885e-09
6.87597096148e-09
-5.32097831552e-10
9.71768150465e-09
6.56300489526e-09
-4.61215523589e-10
9.71153166046e-09
6.16792273734e-09
-2.87254030458e-10
9.67447441115e-09
5.69668543527e-09
9.661382347e-09
5.15557904763e-09
1.77271572242e-12
2.92302956606e-10
8.29846221028e-09
4.77339959605e-09
9.95251483092e-13
4.67673982065e-10
8.28015126591e-09
5.30578079763e-09
5.39747311838e-10
8.29393203719e-09
5.76722736484e-09
5.20324245665e-10
8.28768409737e-09
6.15259012278e-09
4.26732373884e-10
8.28037334155e-09
6.45701082058e-09
2.78592000542e-10
8.27392944327e-09
6.67712559652e-09
9.74382867012e-11
8.27067118891e-09
6.81130852451e-09
-9.45071210738e-11
8.27093122339e-09
6.85760151544e-09
-2.75768958454e-10
8.27060658709e-09
6.81129255748e-09
-4.24116404531e-10
8.27380830188e-09
6.67708986561e-09
-5.17994989507e-10
8.28021187826e-09
6.45694721359e-09
-5.37756184575e-10
8.2874971519e-09
6.15248387102e-09
-4.66032184181e-10
8.29372795977e-09
5.76706038212e-09
-2.91004649467e-10
8.27996346719e-09
5.30557751035e-09
8.29825714379e-09
4.77325779091e-09
1.85868895429e-12
2.94908456264e-10
6.9861719718e-09
4.35443046193e-09
9.22935842597e-13
4.73313458116e-10
6.94252243776e-09
4.87872667332e-09
5.47123890245e-10
6.94061948862e-09
5.33163794602e-09
5.27150702014e-10
6.92999126939e-09
5.70878534248e-09
4.31757662881e-10
6.92194636907e-09
6.00610867134e-09
2.8154913552e-10
6.91599414407e-09
6.22073960844e-09
9.84116056175e-11
6.91289538593e-09
6.35118387454e-09
-9.54390220249e-11
6.91270188395e-09
6.39581753544e-09
-2.78672845489e-10
6.91290973802e-09
6.35117108058e-09
-4.2906421042e-10
6.91602932134e-09
6.22071119802e-09
-5.24712886205e-10
6.9220125841e-09
6.00605818431e-09
-5.44991643312e-10
6.93009635802e-09
5.70869976231e-09
-4.71505665295e-10
6.94075870591e-09
5.33150018737e-09
-2.93436493221e-10
6.94270636637e-09
4.87856382233e-09
6.9863263933e-09
4.35433147393e-09
1.95253547907e-12
2.99402307276e-10
5.74931395057e-09
3.90935801509e-09
8.50102370318e-13
4.84169092916e-10
5.6840481426e-09
4.42646459766e-09
5.58956078213e-10
5.67672245549e-09
4.87225298599e-09
5.36742611473e-10
5.66899391088e-09
5.24279105615e-09
4.38290542583e-10
5.66421839173e-09
5.53453908509e-09
2.85241916933e-10
5.66083962935e-09
5.74490842623e-09
9.96204223553e-11
5.65902311142e-09
5.87239338368e-09
-9.65693341647e-11
5.65880662823e-09
5.91563077565e-09
-2.82274642445e-10
5.65910443257e-09
5.87238682178e-09
-4.35483219251e-10
5.66100577041e-09
5.744894167e-09
-5.34161812283e-10
5.66447594419e-09
5.53451373897e-09
-5.56655130126e-10
5.66934673771e-09
5.24274518314e-09
-4.82176771908e-10
5.67716345956e-09
4.87217022494e-09
-2.97749795732e-10
5.6845690827e-09
4.42636685467e-09
5.74978750498e-09
3.90931848195e-09
2.05491911309e-12
3.24794982977e-10
3.44610105597e-09
7.72634428398e-13
4.58517637726e-09
5.10874426054e-10
3.95693583271e-09
4.52705489787e-09
5.79164072862e-10
4.39686568299e-09
4.52573040869e-09
5.50124857564e-10
4.76219880074e-09
4.5238784028e-09
4.46451873014e-10
5.04968171957e-09
4.52264330231e-09
2.8960308646e-10
5.2568327032e-09
4.52168384772e-09
1.01018356635e-10
5.38202232991e-09
4.52110766537e-09
-9.78517394477e-11
5.4240887318e-09
4.52095491802e-09
-2.86510022173e-10
5.38202417892e-09
4.52123939797e-09
-4.43499164288e-10
5.25683744755e-09
4.52194992014e-09
-5.47374669289e-10
5.04969022115e-09
4.52304662087e-09
-5.76672843405e-10
4.76220799605e-09
4.52442245738e-09
-5.08689506838e-10
4.39686107939e-09
4.52640966021e-09
-3.22971337037e-10
3.95694080753e-09
4.52785335634e-09
3.44610790844e-09
2.16182625381e-12
4.58593215763e-09
-1.70494697008e-11
5.50808983878e-10
6.70598883258e-10
6.53252655555e-14
-2.32503953314e-11
6.01125367846e-10
7.36537555822e-10
-2.57853431834e-11
6.56159870197e-10
7.97716506544e-10
-2.49304798967e-11
7.05817104989e-10
8.5199005777e-10
-2.07060379378e-11
7.46947044448e-10
8.9699442373e-10
-1.37078050821e-11
7.77866839432e-10
9.30763641394e-10
-4.83366095061e-12
7.97311365717e-10
9.52035056881e-10
4.71245588704e-12
8.04283192862e-10
9.59711653079e-10
1.36155022182e-11
7.97279368198e-10
9.52039291058e-10
2.06647169356e-11
7.77784464401e-10
9.30771840342e-10
2.49368872293e-11
7.46778145172e-10
8.97005807111e-10
2.5805593187e-11
7.05549929965e-10
8.52003640617e-10
2.32619822639e-11
6.55854800742e-10
7.97732758019e-10
1.70331818257e-11
6.00821322845e-10
7.36565433462e-10
5.50687916046e-10
6.70680639024e-10
2.99232868671e-14
-2.8624017903e-11
1.55217189127e-09
1.9505076354e-09
2.09139351296e-13
-4.07065180553e-11
1.67932017161e-09
2.14816102605e-09
-4.53058348615e-11
1.81469347181e-09
2.33196017792e-09
-4.36478988718e-11
1.93592382881e-09
2.49513676427e-09
-3.61284268609e-11
2.03546165436e-09
2.63053777602e-09
-2.38310979866e-11
2.10965573335e-09
2.73219506623e-09
-8.3559382032e-12
2.15612896808e-09
2.79619477163e-09
8.27791731127e-12
2.17281301749e-09
2.81919175159e-09
2.38061777777e-11
2.15603206248e-09
2.79620514523e-09
3.61923213719e-11
2.10942960086e-09
2.73221511071e-09
4.37867517958e-11
2.03504773822e-09
2.63056547959e-09
4.54473024661e-11
1.93529820815e-09
2.4951694957e-09
4.07877463974e-11
1.81395505795e-09
2.33199905681e-09
2.86110427521e-11
1.67860122111e-09
2.14823136021e-09
1.5517974496e-09
1.9507035322e-09
1.16010242133e-13
-2.5836992592e-11
2.65038571455e-09
3.06951732621e-09
3.52446822431e-13
-3.7554618131e-11
2.84892371311e-09
3.38587068918e-09
-4.1863864027e-11
3.05528593911e-09
3.67941149481e-09
-4.01456291423e-11
3.23842831057e-09
3.93939211276e-09
-3.30824242332e-11
3.38762391143e-09
4.15467836676e-09
-2.17234274118e-11
3.4979853428e-09
4.31605490295e-09
-7.53904931059e-12
3.56685444095e-09
4.41748295541e-09
7.70504532589e-12
3.59160294661e-09
4.45381526534e-09
2.19400811753e-11
3.56669211806e-09
4.41749628747e-09
3.3378121976e-11
3.49762615703e-09
4.31608030967e-09
4.04924447738e-11
3.38700802852e-09
4.1547126638e-09
4.21715519871e-11
3.23753557335e-09
3.93943101294e-09
3.77374063818e-11
3.05422837998e-09
3.67945548152e-09
2.58594334459e-11
2.84790801361e-09
3.38595383134e-09
2.64980328262e-09
3.06976774865e-09
2.38391762977e-13
-1.3741143589e-11
3.65933450209e-09
3.9963625922e-09
4.88324111388e-13
-2.03676832983e-11
3.9114541682e-09
4.41223347243e-09
-2.27320115881e-11
4.16675155845e-09
4.79637796817e-09
-2.16601221288e-11
4.39075836527e-09
5.13518693959e-09
-1.77306245612e-11
4.5716458326e-09
5.41475670426e-09
-1.15486362215e-11
4.70438553696e-09
5.62373775771e-09
-3.88788274189e-12
4.78689013374e-09
5.75477479496e-09
4.38253621943e-12
4.81657657355e-09
5.80157574754e-09
1.20774039004e-11
4.78667449005e-09
5.75478673852e-09
1.83051525453e-11
4.70392549409e-09
5.62375979525e-09
2.22395745411e-11
4.5708931646e-09
5.41478449284e-09
2.32200475747e-11
4.38970384767e-09
5.1352144557e-09
2.06724103535e-11
4.16550003001e-09
4.79640393101e-09
1.38284554893e-11
3.91024358196e-09
4.41229412187e-09
3.65857896349e-09
3.99660189501e-09
3.98212006973e-13
4.2195735639e-12
4.47256629656e-09
4.72526042742e-09
6.0790603134e-13
5.58949968155e-12
4.75687744628e-09
5.21964204225e-09
6.22576386927e-12
5.03548904444e-09
5.67346617487e-09
6.06892515021e-12
5.27674597154e-09
6.07151494112e-09
5.09146876015e-12
5.4695118687e-09
6.39843106593e-09
3.45701905374e-12
5.60971869701e-09
6.64190809101e-09
1.43670357612e-12
5.69648289991e-09
6.79412779798e-09
-6.01809472303e-13
5.72775940361e-09
6.84833324752e-09
-2.6093200981e-12
5.69623729647e-09
6.79413384017e-09
-4.23858465065e-12
5.60920555532e-09
6.64191846761e-09
-5.26175380195e-12
5.46869617387e-09
6.3984402816e-09
-5.56044383331e-12
5.27562648992e-09
6.07151516708e-09
-5.15293061066e-12
5.03415929168e-09
5.67345357928e-09
-4.04306915159e-12
4.75556598425e-09
5.21965185007e-09
4.47169512924e-09
4.72544291814e-09
5.7505884281e-13
2.51410814006e-11
5.04074767987e-09
5.25726617205e-09
7.06552848482e-13
3.61931944548e-11
5.33724423098e-09
5.80928722101e-09
4.04143230769e-11
5.61577414043e-09
6.31223833466e-09
3.86255835488e-11
5.85334702638e-09
6.75048176498e-09
3.17206140305e-11
6.04073420244e-09
7.10843077794e-09
2.08689066406e-11
6.17564666422e-09
7.37387251937e-09
7.5740194434e-12
6.25872377421e-09
7.53926400477e-09
-6.42816124849e-12
6.28874615201e-09
7.59797368504e-09
-1.97312607453e-11
6.25847035638e-09
7.5392622089e-09
-3.06161477318e-11
6.17512464479e-09
7.37386682168e-09
-3.76119444079e-11
6.03992136078e-09
7.10841444706e-09
-3.95822741673e-11
5.85224706663e-09
6.75044498895e-09
-3.56218595941e-11
5.6144635637e-09
6.3121742881e-09
-2.48540156629e-11
5.33592749762e-09
5.8092294451e-09
5.03981101737e-09
5.2573687602e-09
7.5241986948e-13
4.67093142214e-11
5.35451753624e-09
5.60118952991e-09
7.80990269199e-13
6.82656277864e-11
5.64711873652e-09
6.19187743303e-09
7.63097117052e-11
5.90749780602e-09
6.7256107255e-09
7.26817406889e-11
6.1257506216e-09
7.18732234762e-09
5.94431300567e-11
6.29517328105e-09
7.56217893302e-09
3.89171843505e-11
6.41569110888e-09
7.8388584384e-09
1.39042094108e-11
6.48948311433e-09
8.01061778269e-09
-1.24950752401e-11
6.51623865732e-09
8.0713747891e-09
-3.75338032161e-11
6.48924342588e-09
8.01060727634e-09
-5.81236407442e-11
6.41520197104e-09
7.83883483914e-09
-7.14873175813e-11
6.29442054539e-09
7.5621342417e-09
-7.53229329798e-11
6.12473903222e-09
7.18724476228e-09
-6.75574659126e-11
5.90628183928e-09
6.72549055861e-09
-4.6297944999e-11
5.64587706465e-09
6.19174737086e-09
5.35357726057e-09
5.60120654955e-09
9.24894535385e-13
6.72676749048e-11
5.4308730499e-09
5.77239206676e-09
8.30864769422e-13
9.95111712753e-11
5.70821141415e-09
6.38585820668e-09
1.1139259341e-10
5.93873855114e-09
6.93539887629e-09
1.05911848852e-10
6.12803341331e-09
7.40722426308e-09
8.64069465849e-11
6.27206071017e-09
7.78792548176e-09
5.64170182914e-11
6.37302565553e-09
8.06756846233e-09
2.00195058406e-11
6.43442837231e-09
8.24049566282e-09
-1.83969137446e-11
6.45678625657e-09
8.30142225559e-09
-5.48328736431e-11
6.43421869092e-09
8.240476998e-09
-8.4908175392e-11
6.37260042436e-09
8.06752802381e-09
-1.04559934286e-10
6.27141104389e-09
7.7878540761e-09
-1.10261619497e-10
6.12716256618e-09
7.40710827798e-09
-9.86632371946e-11
5.9376802789e-09
6.9352263162e-09
-6.67228163168e-11
5.70711073436e-09
6.38566237578e-09
5.43000241694e-09
5.77233137359e-09
1.08743059885e-12
8.57560745509e-11
5.30243394128e-09
5.79067171016e-09
8.60093970702e-13
1.28395962082e-10
5.55755540788e-09
6.41462741347e-09
1.44018752375e-10
5.75251885636e-09
6.96879916431e-09
1.36857267272e-10
5.90865138604e-09
7.44107782626e-09
1.11499520675e-10
6.02445226033e-09
7.81983690966e-09
7.2681355053e-11
6.10416896428e-09
8.09674498042e-09
2.56902920834e-11
6.15225012151e-09
8.26730299529e-09
-2.38972934178e-11
6.1698495171e-09
8.32711777252e-09
-7.09344352314e-11
6.15208236786e-09
8.26727788884e-09
-1.09850134477e-10
6.10382973788e-09
8.09669120731e-09
-1.35364821252e-10
6.0239352975e-09
7.81974432554e-09
-1.42749624699e-10
5.90795573787e-09
7.44093141143e-09
-1.27405918313e-10
5.75166094918e-09
6.96858542884e-09
-8.50692511766e-11
5.55664851389e-09
6.41438177394e-09
5.30169075853e-09
5.79055138133e-09
1.23829540607e-12
1.01621935736e-10
5.00928775946e-09
5.6779933135e-09
8.70618674247e-13
1.54030336948e-10
5.23880983168e-09
6.30370309002e-09
1.73278722629e-10
5.39727043588e-09
6.85497133653e-09
1.64782529707e-10
5.52025660459e-09
7.32150078643e-09
1.34219071021e-10
5.60854524678e-09
7.6935362853e-09
8.7429987627e-11
5.66795562168e-09
7.96433605163e-09
3.08308450817e-11
5.70342457015e-09
8.1304725083e-09
-2.88993249631e-11
5.7164878986e-09
8.18842435027e-09
-8.55478302436e-11
5.7033045743e-09
8.13044364002e-09
-1.32438707622e-10
5.66771303108e-09
7.96427451724e-09
-1.63160224303e-10
5.60817523528e-09
7.69343144212e-09
-1.71874135427e-10
5.51975502791e-09
7.32133679915e-09
-1.52895841267e-10
5.39663970641e-09
6.85473405711e-09
-1.00788491234e-10
5.23813477164e-09
6.30343111076e-09
5.00872513525e-09
5.67783898007e-09
1.37813629202e-12
1.14718268544e-10
4.59322659868e-09
5.45647457396e-09
8.6829768606e-13
1.76054315587e-10
4.79629740548e-09
6.07832022614e-09
1.9887875315e-10
4.92052492223e-09
6.62226187962e-09
1.89556388623e-10
5.01319784669e-09
7.0797289717e-09
1.54562288379e-10
5.07707287513e-09
7.44272202844e-09
1.00707458529e-10
5.11888568683e-09
7.7059155182e-09
3.54676893013e-11
5.14353998719e-09
7.86676346575e-09
-3.34181946756e-11
5.15268024623e-09
7.92252377409e-09
-9.87073853098e-11
5.14346846403e-09
7.86673439324e-09
-1.52662524795e-10
5.11874115584e-09
7.70585370494e-09
-1.87809523349e-10
5.07685077031e-09
7.44261699439e-09
-1.97339826002e-10
5.01289213132e-09
7.07956474912e-09
-1.74774888188e-10
4.92012899809e-09
6.62202419042e-09
-1.13736121832e-10
4.7958740509e-09
6.07805106653e-09
4.59287592309e-09
5.45631733875e-09
1.50732683169e-12
1.25169966473e-10
4.09401000422e-09
5.14682241659e-09
8.55555196077e-13
1.94543345129e-10
4.27124479909e-09
5.76166365965e-09
2.21084991463e-10
4.36514566029e-09
6.29627267576e-09
2.11588529672e-10
4.43193050636e-09
6.74355664798e-09
1.72947515298e-10
4.47590109147e-09
7.09701813028e-09
1.12816649634e-10
4.50385108436e-09
7.35247804041e-09
3.97138853803e-11
4.52010524667e-09
7.50802825907e-09
-3.75578050482e-11
4.52615435891e-09
7.56157414226e-09
-1.10708025953e-10
4.52007928036e-09
7.50800339606e-09
-1.70935108807e-10
4.50379703981e-09
7.35242529012e-09
-2.09721042399e-10
4.47581705046e-09
7.09692803674e-09
-2.194148122e-10
4.4318089232e-09
6.74341379569e-09
-1.93122495543e-10
4.36497665109e-09
6.2960624492e-09
-1.24043731125e-10
4.27107252588e-09
5.76143010258e-09
4.09388699757e-09
5.14669652421e-09
1.62757071965e-12
1.33300636785e-10
3.54724114018e-09
4.7672710423e-09
8.35811452951e-13
2.1014059526e-10
3.69952610587e-09
5.37378115708e-09
2.40906971863e-10
3.76741821735e-09
5.89877891632e-09
2.31921918379e-10
3.81360683576e-09
6.33626935577e-09
1.9021517726e-10
3.84295412383e-09
6.68093521477e-09
1.24289940419e-10
3.86125102102e-09
6.92943376967e-09
4.37512037618e-11
3.87175658775e-09
7.08023389843e-09
-4.14940185433e-11
3.87563612977e-09
7.13174150554e-09
-1.22078876528e-10
3.87176952381e-09
7.08021834985e-09
-1.88095316152e-10
3.86127664415e-09
6.92940091963e-09
-2.29940721186e-10
3.84298995585e-09
6.68087771847e-09
-2.39114118072e-10
3.81364898511e-09
6.33617318107e-09
-2.08590108392e-10
3.76745441792e-09
5.89862791692e-09
-1.32042102815e-10
3.69959064373e-09
5.37361677909e-09
3.54734404329e-09
4.76720802738e-09
1.73218156079e-12
1.39114882137e-10
2.98387289665e-09
4.33299677952e-09
8.12887481053e-13
2.23918772502e-10
3.11016036493e-09
4.93118016848e-09
2.60050378582e-10
3.15627183357e-09
5.44742191312e-09
2.52112385141e-10
3.18808348246e-09
5.8764091756e-09
2.07495351152e-10
3.20855200647e-09
6.21371143419e-09
1.35796901477e-10
3.22149229038e-09
6.45651558741e-09
4.78039355588e-11
3.22887655921e-09
6.60341467451e-09
-4.54497446448e-11
3.23149332547e-09
6.65316890111e-09
-1.33488145977e-10
3.22892223735e-09
6.60341355366e-09
-2.05277257171e-10
3.22158252004e-09
6.4565134915e-09
-2.50029803925e-10
3.20868674146e-09
6.21370447666e-09
-2.58153944932e-10
3.18825954353e-09
5.87638641818e-09
-2.22259264919e-10
3.15648366598e-09
5.44736479678e-09
-1.37745759063e-10
3.11043296333e-09
4.93111741669e-09
2.98417177544e-09
4.33301798854e-09
1.82424207099e-12
1.32166071369e-10
3.85549563908e-09
7.86756136637e-13
2.44171148169e-09
2.34088100484e-10
4.44678539708e-09
2.51852710824e-09
2.78670861114e-10
4.95569893076e-09
2.55299581433e-09
2.72728619164e-10
5.37795453557e-09
2.57840697733e-09
2.25442751959e-10
5.70969880939e-09
2.59595943659e-09
1.47856864574e-10
5.94833561243e-09
2.60771189768e-09
5.20656672558e-11
6.09233908428e-09
2.61448243016e-09
-4.96199953741e-11
6.14068147512e-09
2.61671496542e-09
-1.45460287706e-10
6.09235527919e-09
2.61455444817e-09
-2.23141412398e-10
5.94837027623e-09
2.60785605525e-09
-2.70569265379e-10
5.70975250412e-09
2.59617485593e-09
-2.7670042855e-10
5.37802244717e-09
2.57869377512e-09
-2.32359005831e-10
4.95576161364e-09
2.55335081413e-09
-1.30724117477e-10
4.4468668072e-09
2.5189734758e-09
3.85558272018e-09
1.87902897881e-12
2.44218782313e-09
4.64284718367e-12
2.72282875436e-11
6.3898806549e-10
-1.55011014591e-14
8.61007280832e-12
2.77349947971e-11
7.05091656102e-10
1.08428121632e-11
2.91660215048e-11
7.66614673149e-10
1.11265097446e-11
3.06125044208e-11
8.21319058444e-10
9.5336913152e-12
3.20832824428e-11
8.66757784488e-10
6.4188252972e-12
3.32455411985e-11
9.00900857296e-10
2.28811321408e-12
3.39905820704e-11
9.2242208292e-10
-2.21434073284e-12
3.42481884627e-11
9.30177897838e-10
-6.35506792439e-12
3.39402330149e-11
9.22424199938e-10
-9.48304814796e-12
3.31601165935e-11
9.00904906486e-10
-1.10746363165e-11
3.1985554076e-11
8.66763543005e-10
-1.07640966605e-11
3.05089202909e-11
8.21326882427e-10
-8.5332342534e-12
2.90107135534e-11
7.66626673288e-10
-4.56564019366e-12
2.76084906285e-11
7.05118026963e-10
2.71342761498e-11
6.39066664295e-10
3.53781476028e-14
1.07791436446e-11
1.90760863448e-10
1.77662106551e-09
-4.09209063123e-14
1.96757646753e-11
2.06632513591e-10
1.9607942656e-09
2.46402062568e-11
2.2478701409e-10
2.13180273283e-09
2.51094538666e-11
2.42246486251e-10
2.28341825268e-09
2.14062813392e-11
2.5766403134e-10
2.40907109727e-09
1.43563705861e-11
2.69572077743e-10
2.50333460673e-09
5.11405617726e-12
2.77148542845e-10
2.56265961942e-09
-4.91706183881e-12
2.79829126409e-10
2.58397424474e-09
-1.41771015097e-11
2.77033322556e-10
2.56266464688e-09
-2.12483962965e-11
2.69365946837e-10
2.50334404558e-09
-2.49448849212e-11
2.57406473963e-10
2.40908423671e-09
-2.44313052972e-11
2.41957185827e-10
2.28343599563e-09
-1.9460558403e-11
2.2442390857e-10
2.13183127579e-09
-1.05822488669e-11
2.0630237333e-10
1.96086210518e-09
1.90535200237e-10
1.77681271044e-09
9.47776274225e-14
1.5018849444e-11
4.82037770796e-10
2.76360372861e-09
-3.97336374206e-14
2.68849941702e-11
5.26990499126e-10
3.0540381497e-09
3.32644784261e-11
5.75006617225e-10
3.32318952322e-09
3.35731231235e-11
6.2035354713e-10
3.56133181508e-09
2.84248479189e-11
6.59493850916e-10
3.75837062736e-09
1.89782950755e-11
6.89450787633e-10
3.9060003279e-09
6.764321835e-12
7.08420104731e-10
3.9987722925e-09
-6.42812088752e-12
7.15143832545e-10
4.03199856068e-09
-1.86619937614e-11
7.0825671999e-10
3.99877764883e-09
-2.81324122062e-11
6.8915175198e-10
3.90601007562e-09
-3.3276284135e-11
6.59106261469e-10
3.75838352191e-09
-3.29310624821e-11
6.19907393744e-10
3.56134878406e-09
-2.65509122425e-11
5.74481693653e-10
3.32321906135e-09
-1.47268556749e-11
5.26500795849e-10
3.05411992847e-09
4.81729167992e-10
2.76385358679e-09
1.66804618499e-13
1.90182597088e-11
8.52512640749e-10
3.60720081469e-09
-1.80525186242e-14
3.32035846153e-11
9.3311653123e-10
3.99225404634e-09
4.04408555686e-11
1.01634273139e-09
4.34813484133e-09
4.03724638219e-11
1.09373196252e-09
4.66220258845e-09
3.39269549907e-11
1.15953203979e-09
4.92149989737e-09
2.25484167419e-11
1.20945844553e-09
5.1154410456e-09
8.04181168634e-12
1.24091532582e-09
5.23709359461e-09
-7.55079157706e-12
1.25206237669e-09
5.28052554575e-09
-2.20779813232e-11
1.24072258561e-09
5.23709579427e-09
-3.34828107107e-11
1.2090986925e-09
5.11544418096e-09
-3.99336819632e-11
1.15905032576e-09
4.92150215784e-09
-3.99849202203e-11
1.09316758105e-09
4.66220436872e-09
-3.27632282426e-11
1.01570675472e-09
4.34814502051e-09
-1.86373537449e-11
9.32526412202e-10
3.99231723549e-09
8.5214378733e-10
3.60744921833e-09
2.58894492385e-13
2.39970807801e-11
1.25051245715e-09
4.30352453412e-09
2.08814202321e-14
4.07458123051e-11
1.36625815465e-09
4.77002636179e-09
4.88254696303e-11
1.48247797408e-09
5.19954070612e-09
4.82376398239e-11
1.5888633599e-09
5.57725686135e-09
4.02639985326e-11
1.67806353363e-09
5.88816794945e-09
2.66547269929e-11
1.74511680124e-09
6.12015207537e-09
9.51032762105e-12
1.78712634963e-09
6.26533538214e-09
-8.84219997628e-12
1.80199816939e-09
6.31699940769e-09
-2.60092867771e-11
1.78691881855e-09
6.26533143529e-09
-3.96511146784e-11
1.74472538524e-09
6.12014260343e-09
-4.76461406802e-11
1.67753070587e-09
5.88815043933e-09
-4.82424842927e-11
1.58823308262e-09
5.5772306253e-09
-4.02017539363e-11
1.48178012913e-09
5.19951345816e-09
-2.35293321713e-11
1.36562283346e-09
4.77004442772e-09
1.25010838206e-09
4.30372937309e-09
3.68220117618e-13
3.05814844681e-11
1.6278115445e-09
4.84955087941e-09
6.94935463556e-14
5.07192609212e-11
1.77257007487e-09
5.38307473989e-09
5.99852484631e-11
1.91386716694e-09
5.8718277361e-09
5.87989498212e-11
2.04109883845e-09
6.29968154016e-09