/*--------------------------------*- C++ -*----------------------------------*\
  =========                 |
  \\      /  F ield         | OpenFOAM: The Open Source CFD Toolbox
   \\    /   O peration     | Website:  https://openfoam.org
    \\  /    A nd           | Version:  7
     \\/     M anipulation  |
\*---------------------------------------------------------------------------*/
FoamFile
{
    version     2.0;
    format      ascii;
    class       surfaceScalarField;
    location    "1.78";
    object      phi;
}
// * * * * * * * * * * * * * * * * * * * * * * * * * * * * * * * * * * * * * //

dimensions      [0 3 -1 0 0 0 0];

internalField   nonuniform List<scalar> 
65775
(
-8.6080911725e-12
1.10875587008e-09
5.25835568159e-11
2.75106200704e-13
-1.60540553382e-11
1.16491201496e-09
5.54988130755e-11
-1.95946711519e-11
1.21364877725e-09
5.66528770875e-11
-1.96829091276e-11
1.25619133036e-09
5.68056184141e-11
-1.64879838314e-11
1.29045411599e-09
5.64654994613e-11
-1.07655552761e-11
1.31571746159e-09
5.59876695406e-11
-3.42538569247e-12
1.33160551669e-09
5.56275119629e-11
4.45848063939e-12
1.33752056257e-09
5.55190609429e-11
1.17689667844e-11
1.33145589528e-09
5.56278505865e-11
1.74375702983e-11
1.31542561169e-09
5.59883188728e-11
2.05503107816e-11
1.29002448379e-09
5.64668577008e-11
2.03596302798e-11
1.25565502842e-09
5.68093720456e-11
1.66925023477e-11
1.21303587647e-09
5.66644898845e-11
9.15864766464e-12
1.16433607181e-09
5.5539034308e-11
1.10846207196e-09
5.27226770427e-11
6.29020217571e-13
-1.87779320803e-11
2.05739660435e-09
1.68370842298e-10
6.63267788577e-13
-3.47954255626e-11
2.1597776655e-09
1.79857521392e-10
-4.39876796021e-11
2.24889223595e-09
1.86135092575e-10
-4.48867426507e-11
2.32586431903e-09
1.89160297359e-10
-3.80105957523e-11
2.38801242216e-09
1.90280508763e-10
-2.49145045422e-11
2.43384529114e-09
1.90452918466e-10
-7.82404757167e-12
2.46268293262e-09
1.90371252513e-10
1.06410916227e-11
2.47338124437e-09
1.90389516807e-10
2.76532352059e-11
2.46233974101e-09
1.90372149822e-10
4.06013230787e-11
2.43317195843e-09
1.90454363787e-10
4.725916825e-11
2.38702551117e-09
1.90283616454e-10
4.60789857827e-11
2.32461824145e-09
1.89169881414e-10
3.65631743401e-11
2.2474662802e-09
1.8616684164e-10
2.02398366218e-11
2.15840151098e-09
1.7996910218e-10
2.05657088722e-09
1.68719340019e-10
1.64735312944e-12
-2.26795512911e-11
2.83499990468e-09
2.884608466e-10
9.2855590559e-13
-4.3639644402e-11
2.97383614501e-09
3.10748790494e-10
-5.69692760123e-11
3.09460885975e-09
3.24583962713e-10
-5.92134008929e-11
3.19768217e-09
3.32783001041e-10
-5.07066704543e-11
3.28097863488e-09
3.37320276722e-10
-3.33916986373e-11
3.34239089246e-09
3.3962500929e-10
-1.03633633457e-11
3.38105055121e-09
3.4074587838e-10
1.46519588687e-11
3.39537234726e-09
3.41205840174e-10
3.7563673335e-11
3.38057940363e-09
3.40745420398e-10
5.4654952138e-11
3.34146541951e-09
3.39623363299e-10
6.28351535628e-11
3.27962455889e-09
3.37319164723e-10
6.01696606028e-11
3.19596337848e-09
3.32789663313e-10
4.63606641465e-11
3.09263459678e-09
3.24620943916e-10
2.4905581972e-11
2.97190640951e-09
3.10896333427e-10
2.83376074265e-09
2.88931209773e-10
2.48324568306e-12
-2.19743931026e-11
3.44041568568e-09
4.05191513263e-10
1.11150592511e-12
-4.49206576967e-11
3.60636735821e-09
4.39386813303e-10
-6.08704413894e-11
3.75011511432e-09
4.62185532298e-10
-6.47206255795e-11
3.87132690369e-09
4.7695985907e-10
-5.61605739577e-11
3.96914688334e-09
4.86133598076e-10
-3.71874201233e-11
4.04120185047e-09
4.91503357707e-10
-1.13674953943e-11
4.08656541465e-09
4.94406647727e-10
1.68555376347e-11
4.10335965504e-09
4.95500276128e-10
4.25292677289e-11
4.08603363916e-09
4.94401379022e-10
6.12196182018e-11
4.04015465826e-09
4.91491696976e-10
6.93687244152e-11
3.96761654972e-09
4.86117777791e-10
6.49930875665e-11
3.86937961323e-09
4.76948656386e-10
4.84439399542e-11
3.74786149697e-09
4.62204632454e-10
2.48655777045e-11
3.60414117445e-09
4.395257978e-10
3.4388982176e-09
4.05686023758e-10
3.19940551732e-12
-1.79393854414e-11
3.87828835591e-09
5.13988530021e-10
1.23171434673e-12
-4.03860090389e-11
4.06240322338e-09
5.60511627601e-10
-5.76057016592e-11
4.22083726948e-09
5.93020745355e-10
-6.30987878791e-11
4.35279282764e-09
6.15190427976e-10
-5.5681213995e-11
4.45892108297e-09
6.29745307776e-10
-3.71152275036e-11
4.53696549404e-09
6.38761030127e-10
-1.10976480506e-11
4.58608229253e-09
6.43807812649e-10
1.75611890427e-11
4.60425715969e-09
6.45649905539e-10
4.34103797311e-11
4.58554822811e-09
6.43794896815e-10
6.16496869846e-11
4.53591322316e-09
6.38733659818e-10
6.85937581296e-11
4.4573829183e-09
6.29705910689e-10
6.25007568247e-11
4.35083142066e-09
6.15148109456e-10
4.45971077506e-11
4.21854653691e-09
5.93000903566e-10
2.14247674816e-11
4.06012715756e-09
5.60605384168e-10
3.87668159557e-09
5.14437426304e-10
3.83033104495e-12
-1.14318495685e-11
4.15764134142e-09
6.11339558144e-10
1.30371916945e-12
-3.13711655495e-11
4.35152305457e-09
6.70060285203e-10
-4.86913433049e-11
4.51697951016e-09
7.12477968481e-10
-5.57328022124e-11
4.65303911604e-09
7.42373397553e-10
-5.0351114465e-11
4.76190184914e-09
7.62653002324e-10
-3.38495923088e-11
4.84176446398e-09
7.75598771005e-10
-9.76826280445e-12
4.89198264334e-09
7.82966031166e-10
1.70313290976e-11
4.91055914246e-09
7.85606945366e-10
4.09290628454e-11
4.89150121181e-09
7.82943749386e-10
5.70731628718e-11
4.84081449096e-09
7.75552255941e-10
6.19385656577e-11
4.76051273582e-09
7.62584440215e-10
5.42472675802e-11
4.65126176882e-09
7.42290954624e-10
3.61913840283e-11
4.51488532232e-09
7.12404215811e-10
1.54668395752e-11
4.34942580152e-09
6.70084476974e-10
4.15614259162e-09
6.11703981376e-10
4.39437355415e-12
-3.05470662689e-12
4.29072449099e-09
6.94609444772e-10
1.33959857268e-12
-1.88683406059e-11
4.48674641946e-09
7.64970233231e-10
-3.52602321765e-11
4.65240919262e-09
8.17058847703e-10
-4.36648520364e-11
4.78682834642e-09
8.54619045716e-10
-4.09808554621e-11
4.89367235608e-09
8.80647601901e-10
-2.78919806333e-11
4.97181538884e-09
8.97572803998e-10
-7.53470058676e-12
5.02088809312e-09
9.07292964436e-10
1.54669537782e-11
5.03903536359e-09
9.10732868892e-10
3.56313642958e-11
5.02050433982e-09
9.07260874136e-10
4.83440830847e-11
4.97105753507e-09
8.97506368931e-10
5.0485816672e-11
4.89256362158e-09
8.80548352692e-10
4.14030515525e-11
4.78540233575e-09
8.54493116018e-10
2.4246671388e-11
4.65070744518e-09
8.16924463501e-10
7.61442857182e-12
4.4850424217e-09
7.6491429805e-10
4.28953203962e-09
6.9487332889e-10
4.91260027076e-12
6.73573034874e-12
4.29212210251e-09
7.61915849679e-10
1.34608268629e-12
-3.61595523194e-12
4.48358660849e-09
8.43046926924e-10
-1.81467538957e-11
4.64360195981e-09
9.04244915975e-10
-2.76522398896e-11
4.77165485237e-09
9.49120777661e-10
-2.81516489721e-11
4.87267909563e-09
9.8069233638e-10
-1.95966960476e-11
4.94631303993e-09
1.00148099097e-09
-4.50279919804e-12
4.99247864185e-09
1.01348640793e-09
1.30161588574e-11
5.00954329236e-09
1.0176912521e-09
2.79132909601e-11
4.99222873142e-09
1.01344546663e-09
3.60839408594e-11
4.94582032113e-09
1.00139690018e-09
3.50304442607e-11
4.8719571695e-09
9.80565703002e-10
2.48352070354e-11
4.77071809778e-09
9.4895485698e-10
9.52853995601e-12
4.64245797924e-09
9.04052931505e-10
-1.66183132037e-12
4.48245929905e-09
8.42914492394e-10
4.29142184712e-09
7.62081520987e-10
5.3976804597e-12
1.76120961865e-11
4.17799669968e-09
8.12000465307e-10
1.3308096186e-12
1.38780473394e-11
4.35920829901e-09
9.02817857097e-10
2.1003363569e-12
4.50876631118e-09
9.72344613132e-10
-8.17763444018e-12
4.62682476505e-09
1.02400127102e-09
-1.2224740243e-11
4.71925898107e-09
1.0607720352e-09
-9.17769224968e-12
4.78641146084e-09
1.08521617097e-09
-7.31313351404e-13
4.82843515772e-09
1.09938659091e-09
9.77757657312e-12
4.84395654878e-09
1.10430497398e-09
1.80282640212e-11
4.82834483131e-09
1.09933912837e-09
2.06913446009e-11
4.78623552216e-09
1.08511995643e-09
1.60901622028e-11
4.71900137898e-09
1.06062671907e-09
5.12196118974e-12
4.62647843112e-09
1.02380643377e-09
-7.43351554908e-12
4.50830709844e-09
9.72108470315e-10
-1.20226377642e-11
4.35880465458e-09
9.02626850931e-10
4.17795057842e-09
8.12086647442e-10
5.86225257924e-12
2.93675395611e-11
3.96549389768e-09
8.44088347426e-10
1.29932450996e-12
3.33354347922e-11
4.13176772433e-09
9.43361675788e-10
2.52210432569e-11
4.26714771971e-09
1.02030556781e-09
1.45532831771e-11
4.37272586952e-09
1.07812336904e-09
6.65835720523e-12
4.4548707379e-09
1.11970493256e-09
3.28752400104e-12
4.51440140555e-09
1.14757805174e-09
3.76671734127e-12
4.55158247431e-09
1.16378780511e-09
5.80210291083e-12
4.56529321856e-09
1.16936758267e-09
6.09019703372e-12
4.55166696741e-09
1.16373741286e-09
2.34190590957e-12
4.51457292098e-09
1.14747816155e-09
-6.10013086154e-12
4.45512356821e-09
1.11955501629e-09
-1.7452625005e-11
4.37303388093e-09
1.07792046293e-09
-2.6344955923e-11
4.26745629873e-09
1.02005239023e-09
-2.32504722126e-11
4.13219250879e-09
9.43144579793e-10
3.96622580683e-09
8.44128170101e-10
6.31720490251e-12
4.19072070134e-11
3.6722929356e-09
8.57731692411e-10
1.25715320707e-12
5.47209228527e-11
3.81991623451e-09
9.6411918175e-10
5.1250973562e-11
3.93853637115e-09
1.04750660937e-09
4.06020858855e-11
4.03033971212e-09
1.11086610031e-09
2.85523918354e-11
4.10155390682e-09
1.156912591e-09
1.78385596048e-11
4.15311248601e-09
1.18804320173e-09
9.01539539066e-12
4.18523842298e-09
1.20620941585e-09
1.09932873277e-12
4.19704927089e-09
1.21241619441e-09
-7.90925378588e-12
4.18549980262e-09
1.20616495136e-09
-1.89915748465e-11
4.15363650523e-09
1.18795723736e-09
-3.15787349675e-11
4.10232750743e-09
1.1567835218e-09
-4.29066789815e-11
4.03132236087e-09
1.110687014e-09
-4.71585568853e-11
3.93965026372e-09
1.04727412616e-09
-3.52437155553e-11
3.8212278354e-09
9.6391963861e-10
3.67388054368e-09
8.57769791082e-10
6.77273947099e-12
5.52599659826e-11
3.31632068081e-09
8.52637555966e-10
1.20446305733e-12
7.82869450567e-11
3.44248129912e-09
9.64691201886e-10
8.0525800541e-11
3.54303133596e-09
1.05355344153e-09
7.02414499288e-11
3.621016601e-09
1.12192218451e-09
5.36321916048e-11
3.68163400083e-09
1.17220809162e-09
3.4569323473e-11
3.725520992e-09
1.20653912716e-09
1.50530052587e-11
3.75276924028e-09
1.22666048861e-09
-4.34350676051e-12
3.76272372315e-09
1.23349105097e-09
-2.40400180366e-11
3.75319765453e-09
1.22663291551e-09
-4.34631393589e-11
3.72637667648e-09
1.20648742825e-09
-6.06019524817e-11
3.68290318409e-09
1.17212953482e-09
-7.15651616936e-11
3.62265241556e-09
1.12180561375e-09
-7.01228449919e-11
3.54494313238e-09
1.0533878457e-09
-4.80324696819e-11
3.44469102856e-09
9.64560431752e-10
3.3187955203e-09
8.52726084878e-10
7.2379134527e-12
6.97574053871e-11
2.91550454266e-09
8.28486619904e-10
1.14303901818e-12
1.04725576765e-10
3.01834576062e-09
9.44659219072e-10
1.13608378131e-10
3.1011892531e-09
1.03811750378e-09
1.03750191037e-10
3.16654388365e-09
1.11113543613e-09
8.19778885164e-11
3.21760459938e-09
1.16561792837e-09
5.3484403665e-11
3.25450936795e-09
1.20324553657e-09
2.18759166996e-11
3.27725950607e-09
1.22542226556e-09
-1.05065151192e-11
3.28548917191e-09
1.23290928048e-09
-4.22931000521e-11
3.27783311951e-09
1.22542205655e-09
-7.11419011788e-11
3.25565708904e-09
1.20324885048e-09
-9.34431781861e-11
3.21931409426e-09
1.1656216053e-09
-1.0399120195e-10
3.16877403148e-09
1.11112455485e-09
-9.59365574496e-11
3.10384942339e-09
1.03807081301e-09
-6.19610518718e-11
3.02142436526e-09
9.44650118246e-10
2.9188555595e-09
8.28674026343e-10
7.68648138057e-12
8.65065310619e-11
2.48718518996e-09
7.84768558538e-10
1.06956687488e-12
1.34922529255e-10
2.56710385311e-09
9.03532540153e-10
1.50557531254e-10
2.63465720741e-09
1.00093164282e-09
1.40665553005e-10
2.68927131759e-09
1.07847191844e-09
1.13027249596e-10
2.73190444714e-09
1.13730329934e-09
7.41686440421e-11
2.76249395858e-09
1.17846747047e-09
2.93426969863e-11
2.78114593296e-09
1.2028888863e-09
-1.72449518551e-11
2.78778688599e-09
1.21109554547e-09
-6.22508675612e-11
2.78183842903e-09
1.20292457424e-09
-1.01469669025e-10
2.76387908278e-09
1.17854339358e-09
-1.29648218481e-10
2.73397472333e-09
1.13741770637e-09
-1.40257605385e-10
2.69199869351e-09
1.07860899614e-09
-1.25498050386e-10
2.63797209103e-09
1.00105863219e-09
-7.81517008711e-11
2.57098544316e-09
9.03695284974e-10
2.49133535639e-09
7.85086174295e-10
8.13553523221e-12
1.04534285174e-10
7.20688817537e-10
9.89516452152e-13
2.05045446725e-09
1.66724761723e-10
8.41096520615e-10
2.10975292018e-09
1.88523585541e-10
9.42092908912e-10
2.16569412888e-09
1.78420599087e-10
1.0242142121e-09
2.21097469443e-09
1.44926811036e-10
1.08764827588e-09
2.24586909989e-09
9.55458891424e-11
1.13264136711e-09
2.27069639524e-09
3.70915039103e-11
1.15952274852e-09
2.28566493373e-09
-2.42075738887e-11
1.16851946417e-09
2.29090125345e-09
-8.28541296784e-11
1.15959682327e-09
2.28645219477e-09
-1.32617788185e-10
1.13279527706e-09
2.27227179841e-09
-1.666858734e-10
1.08788371163e-09
2.24822646619e-09
-1.77553959409e-10
1.02452054436e-09
2.21409908085e-09
-1.56708292729e-10
9.42429552383e-10
2.16954925362e-09
-9.56866178229e-11
8.41499362022e-10
2.11431951399e-09
7.21094881503e-10
8.5562142366e-12
2.055331693e-09
-4.52865082976e-12
5.30414336295e-11
4.30420115465e-12
8.46341544829e-14
-7.97301894478e-12
5.74621449259e-11
2.00295146522e-12
-9.85994155464e-12
6.11648566276e-11
-2.11434766113e-12
-1.00243714317e-11
6.44031125903e-11
-6.97579222208e-12
-8.52529666578e-12
6.70036321875e-11
-1.17060937732e-11
-5.65038247242e-12
6.89699201333e-11
-1.56061874943e-11
-1.86396814709e-12
7.02353689534e-11
-1.81654249911e-11
2.24580374871e-12
7.07009826381e-11
-1.90622584665e-11
6.04588911384e-12
7.02180559592e-11
-1.81603455872e-11
8.94370242001e-12
6.89146146699e-11
-1.55958787238e-11
1.04532697254e-11
6.68703699079e-11
-1.16898588302e-11
1.02584142662e-11
6.41747006023e-11
-6.95134684129e-12
8.31159139653e-12
6.09002672379e-11
-2.07512383999e-12
4.78221199901e-12
5.71984023628e-11
2.077060398e-12
5.29676097084e-11
4.47380713407e-12
2.60351806847e-13
-1.06370752988e-11
1.81027819841e-10
5.13988090243e-11
2.18404050305e-13
-1.93372383976e-11
1.95821660855e-10
5.10053073911e-11
-2.4466505313e-11
2.08030066627e-10
4.52144227377e-11
-2.52414159712e-11
2.18364584876e-10
3.66638029409e-11
-2.16597664268e-11
2.26641109434e-10
2.75764630859e-11
-1.44002712397e-11
2.32828565963e-10
1.9748144652e-11
-4.68611542568e-12
2.36766192005e-10
1.45090175891e-11
5.9017341258e-12
2.38203459666e-10
1.26788793238e-11
1.56411926424e-11
2.36705914898e-10
1.45226194199e-11
2.29365977963e-11
2.3266939312e-10
1.97758785245e-11
2.65186989917e-11
2.26314356701e-10
2.7620739248e-11
2.56507485118e-11
2.17834978156e-10
3.67316325697e-11
2.03412788551e-11
2.07395744086e-10
4.53245336021e-11
1.14028937894e-11
1.95219577387e-10
5.12142056369e-11
1.80798562142e-10
5.18428867671e-11
7.53926038666e-13
-1.42141879376e-11
3.56947081983e-10
1.27002599815e-10
3.2093458994e-13
-2.63727042406e-11
3.85693577919e-10
1.33763526945e-10
-3.39411272369e-11
4.09186024349e-10
1.31742352755e-10
-3.54249568245e-11
4.28640317903e-10
1.24611821232e-10
-3.06136189234e-11
4.44087859332e-10
1.15536517022e-10
-2.03948674389e-11
4.55510736204e-10
1.07113415214e-10
-6.53721112211e-12
4.62720324359e-10
1.01296592854e-10
8.61925411622e-12
4.6534069573e-10
9.9270348921e-11
2.24996218891e-11
4.62610019396e-10
1.01316013458e-10
3.27417408035e-11
4.55246282916e-10
1.07153152792e-10
3.75193436046e-11
4.43595577452e-10
1.15600654695e-10
3.58763614548e-11
4.27887723932e-10
1.24711353228e-10
2.80198202492e-11
4.08289099351e-10
1.31904758298e-10
1.54923043247e-11
3.84879141816e-10
1.34069141119e-10
3.56628689117e-10
1.27637420134e-10
1.23802400764e-12
-1.5486044722e-11
5.55879489485e-10
2.21879766559e-10
4.05951180764e-13
-2.93554353467e-11
5.99906196123e-10
2.39709624347e-10
-3.84670397487e-11
6.35508863867e-10
2.45642052705e-10
-4.06551873176e-11
6.64420557967e-10
2.43923133691e-10
-3.53992008014e-11
6.87100321128e-10
2.38305723817e-10
-2.36226420761e-11
7.03678467559e-10
2.31931760793e-10
-7.41371509512e-12
7.14060135034e-10
2.2720633783e-10
1.03819979615e-11
7.17821284839e-10
2.255650752e-10
2.6599869039e-11
7.13901184681e-10
2.27227850895e-10
3.83686317118e-11
7.0332149828e-10
2.31976002789e-10
4.35402557173e-11
6.86483564157e-10
2.3837821038e-10
4.11231427221e-11
6.63526943453e-10
2.44037668235e-10
3.16298591161e-11
6.34456104701e-10
2.45830970452e-10
1.7280089688e-11
5.98971877302e-10
2.40065178515e-10
5.55509012469e-10
2.22612113066e-10
1.73241223312e-12
-1.46247186761e-11
7.56728607793e-10
3.2778047544e-10
4.79151843038e-13
-2.85627592077e-11
8.15549174041e-10
3.59409852299e-10
-3.82901636008e-11
8.62518095382e-10
3.76325190257e-10
-4.10974476687e-11
8.99942045621e-10
3.82973427726e-10
-3.61090788198e-11
9.28859087184e-10
3.83401271358e-10
-2.41273994289e-11
9.49728781167e-10
3.81077889319e-10
-7.33245979839e-12
9.62690216361e-10
3.78709989897e-10
1.11927605679e-11
9.67374727047e-10
3.77890680412e-10
2.79757345583e-11
9.62495523229e-10
3.78730368681e-10
3.9907116434e-11
9.4930922097e-10
3.81120122634e-10
4.47511834537e-11
9.28171014282e-10
3.83471791516e-10
4.16428253487e-11
8.98984596208e-10
3.83087303397e-10
3.14516368928e-11
8.61409099701e-10
3.76515872885e-10
1.69388361174e-11
8.14576145502e-10
3.59774104397e-10
7.56354304812e-10
3.28538473574e-10
2.23285922715e-12
-1.1810568774e-11
9.42364474502e-10
4.3743912943e-10
5.44633049747e-13
-2.42692537863e-11
1.01405594366e-09
4.8454174338e-10
-3.36654511973e-11
1.07049038186e-09
5.14422377406e-10
-3.69381287076e-11
1.11459022283e-09
5.31447426741e-10
-3.28549704306e-11
1.14808233891e-09
5.39722468399e-10
-2.19655094505e-11
1.17190626497e-09
5.42863859507e-10
-6.31405103555e-12
1.18656488941e-09
5.43752062408e-10
1.10593016947e-11
1.19184973395e-09
5.44060967518e-10
2.66738368309e-11
1.18635038844e-09
5.43769115017e-10
3.74646460315e-11
1.17145772164e-09
5.4289966141e-10
4.13390776249e-11
1.14737634132e-09
5.39783715175e-10
3.7694626938e-11
1.11364140004e-09
5.31548796846e-10
2.77596887966e-11
1.0694109349e-09
5.14595375396e-10
1.46493367329e-11
1.013127062e-09
4.84883912662e-10
9.42021222008e-10
4.38175922933e-10
2.73380069373e-12
-7.26158713622e-12
1.09955202832e-09
5.4451204421e-10
6.0290764857e-13
-1.67931251437e-11
1.1811863844e-09
6.07834171378e-10
-2.49225530716e-11
1.24440266667e-09
6.51737308292e-10
-2.84510655268e-11
1.29282989314e-09
6.80310234476e-10
-2.58301262352e-11
1.32891549876e-09
6.97538821577e-10
-1.72497676997e-11
1.35416774004e-09
7.07040598726e-10
-4.39911942572e-12
1.36953968007e-09
7.11759928849e-10
1.00101779182e-11
1.37506727141e-09
7.13388828272e-10
2.27975033197e-11
1.36932573126e-09
7.11772873117e-10
3.12296067045e-11
1.35373060375e-09
7.07068396075e-10
3.35774423144e-11
1.32824840386e-09
6.97587818349e-10
2.96100258465e-11
1.29195911428e-09
6.80393127119e-10
2.08740339937e-11
1.24342751274e-09
6.51881399656e-10
1.06239274805e-11
1.18037622657e-09
6.08136480166e-10
1.09928639854e-09
5.45200871306e-10
3.23484227698e-12
-1.21289461799e-12
1.21886345462e-09
6.43547817988e-10
6.53831207715e-13
-6.50018007107e-12
1.30688326558e-09
7.23042610811e-10
-1.24744837377e-11
1.3737918251e-09
7.81233694742e-10
-1.60146460416e-11
1.42404122968e-09
8.21811271584e-10
-1.53288718687e-11
1.46072949902e-09
8.48511669039e-10
-1.01648513294e-11
1.48594142789e-09
8.64834285146e-10
-1.65329466124e-12
1.50109994925e-09
8.73690095335e-10
8.1013952804e-12
1.50653339522e-09
8.76736095072e-10
1.65237476111e-11
1.50090566801e-09
8.7370025574e-10
2.14914470144e-11
1.4855525485e-09
8.64856815803e-10
2.18431052771e-11
1.46015284162e-09
8.48551854133e-10
1.78013351126e-11
1.42331063732e-09
8.21878308676e-10
1.11609725186e-11
1.37299234235e-09
7.81348944341e-10
5.09324063362e-12
1.30625926623e-09
7.23302267295e-10
1.2187403002e-09
6.44180197945e-10
3.73099614975e-12
6.08681295022e-12
1.29448571805e-09
7.29938204124e-10
6.99563437495e-13
6.19503975763e-12
1.38504855809e-09
8.24895270281e-10
3.18123373359e-12
1.4525137638e-09
8.9698750569e-10
-1.2011352646e-13
1.50221683321e-09
9.49449215032e-10
-1.75827093362e-12
1.53775650582e-09
9.85673570219e-10
-9.7816285603e-13
1.56170862189e-09
1.00893821265e-09
1.82793730246e-12
1.57590867851e-09
1.02202807031e-09
5.42005142268e-12
1.58097750837e-09
1.02651589959e-09
8.11279490391e-12
1.57575201907e-09
1.02203916404e-09
8.65222299393e-12
1.56140196851e-09
1.0089631032e-09
6.62447596167e-12
1.53731657876e-09
9.85715530048e-10
2.76478150535e-12
1.50167984406e-09
9.49512445161e-10
-9.68626990928e-13
1.45195039143e-09
8.97086061746e-10
-1.6956484931e-12
1.38467540573e-09
8.25124827335e-10
1.29456386801e-09
7.30522435541e-10
4.21706458695e-12
1.43753121009e-11
1.32392653314e-09
7.99841203744e-10
7.38780883181e-13
2.08341984295e-11
1.41324851928e-09
9.09002299194e-10
2.14586112085e-11
1.47840147288e-09
9.94096440303e-10
1.8620308512e-11
1.52557206589e-09
1.05789126696e-09
1.43513000311e-11
1.55863626583e-09
1.10335838015e-09
9.95135790508e-12
1.58048426967e-09
1.1334508014e-09
5.915685524e-12
1.59323983508e-09
1.15073063306e-09
2.08745332552e-12
1.59776651938e-09
1.15663627999e-09
-2.08372958899e-12
1.59313427569e-09
1.15074863817e-09
-6.76412203393e-12
1.58028542301e-09
1.13349002882e-09
-1.14721898184e-11
1.55836833467e-09
1.10341976325e-09
-1.49187801753e-11
1.52527285702e-09
1.05797316536e-09
-1.50614101587e-11
1.47812735108e-09
9.94204226375e-10
-9.48755279303e-12
1.41318645528e-09
9.09230014581e-10
1.32427411373e-09
8.004019452e-10
4.68814299116e-12
2.33854542637e-11
1.30769889562e-09
8.50077695662e-10
7.73837552688e-13
3.6915781861e-11
1.39236109915e-09
9.7173137701e-10
4.16763423339e-11
1.45285547833e-09
1.06855325055e-09
3.94605103728e-11
1.49605556018e-09
1.14284916097e-09
3.23300332671e-11
1.52583629421e-09
1.19708048173e-09
2.21610742474e-11
1.54516635827e-09
1.23375780058e-09
1.04420876986e-11
1.556276355e-09
1.25511077109e-09
-1.73787623159e-12
1.56018859563e-09
1.26238669298e-09
-1.36124371687e-11
1.55623260052e-09
1.25514571516e-09
-2.40968443025e-11
1.54509596188e-09
1.23383047594e-09
-3.17091610756e-11
1.52576774844e-09
1.19718831597e-09
-3.45767508916e-11
1.49602691587e-09
1.14298313864e-09
-3.06249885353e-11
1.45291133883e-09
1.06870815998e-09
-1.80227625888e-11
1.39266144237e-09
9.71998313749e-10
1.30837350446e-09
8.50653010355e-10
5.1375796879e-12
3.28510053302e-11
1.24893117213e-09
8.77999418212e-10
8.02941617909e-13
5.38849263902e-11
1.32617325125e-09
1.01006380104e-09
6.30329885569e-11
1.38037024303e-09
1.11711440622e-09
6.14890366138e-11
1.41878601231e-09
1.20095514105e-09
5.13425083846e-11
1.44499604368e-09
1.26340644855e-09
3.50653573426e-11
1.46179319722e-09
1.30639341779e-09
1.51941853938e-11
1.47131884228e-09
1.33168868845e-09
-5.85505563423e-12
1.47463700051e-09
1.34028352947e-09
-2.58993683818e-11
1.47134601487e-09
1.33175176947e-09
-4.25229531429e-11
1.46186548633e-09
1.30652117892e-09
-5.31881735354e-11
1.4451462511e-09
1.26359243267e-09
-5.54213901541e-11
1.41905058882e-09
1.20118183862e-09
-4.71179576896e-11
1.38078662649e-09
1.11736325168e-09
-2.70498816553e-11
1.32687483415e-09
1.01041907156e-09
1.24998529515e-09
8.7863587178e-10
5.55868139665e-12
4.25439773551e-11
1.15293495442e-09
8.81335731968e-10
8.25330981196e-13
7.11282116051e-11
1.2209610023e-09
1.02147537065e-09
8.45673073455e-11
1.26802610574e-09
1.13721594365e-09
8.3584708016e-11
1.30141866475e-09
1.22967440506e-09
7.03532249437e-11
1.3241887606e-09
1.29984368341e-09
4.79396024719e-11
1.33873435005e-09
1.34890155235e-09
1.99066612149e-11
1.34691836641e-09
1.37803232617e-09
-1.0012000647e-11
1.34973700666e-09
1.38790289812e-09
-3.82348415243e-11
1.34702269192e-09
1.3781341415e-09
-6.10218269112e-11
1.33896219546e-09
1.34910564349e-09
-7.48054688796e-11
1.32457082912e-09
1.3001403448e-09
-7.65092430486e-11
1.30199292017e-09
1.23003776433e-09
-6.39457960205e-11
1.26882329491e-09
1.13761042903e-09
-3.6358619496e-11
1.22209697711e-09
1.02196862693e-09
1.15441570441e-09
8.82074702306e-10
5.92542444119e-12
5.21563341402e-11
1.02686986168e-09
8.5804739119e-10
8.3970291587e-13
8.76706161826e-11
1.08516382279e-09
1.00397903565e-09
1.04888446893e-10
1.12484488425e-09
1.12705974382e-09
1.04252658854e-10
1.15335298753e-09
1.22734197687e-09
8.80510915917e-11
1.17304845012e-09
1.30481049983e-09
5.9889621503e-11
1.18577795064e-09
1.35974722854e-09
2.42618243969e-11
1.19296574209e-09
1.39263004918e-09
-1.39049934474e-11
1.19541247215e-09
1.40373999936e-09
-4.97378135317e-11
1.19315491061e-09
1.39277817095e-09
-7.83000038364e-11
1.18617127667e-09
1.36004348417e-09
-9.50839852515e-11
1.17367422884e-09
1.30524409054e-09
-9.64711852324e-11
1.15424453741e-09
1.2278820252e-09
-8.0149706216e-11
1.12603523623e-09
1.12765224608e-09
-4.56558107338e-11
1.08675668613e-09
1.00465507683e-09
1.02879437677e-09
8.58909020017e-10
6.24590305049e-12
5.80842191504e-11
8.06362400143e-10
8.51492775543e-13
8.82457030814e-10
1.00301021958e-10
9.56763011942e-10
9.27427828011e-10
1.21245817065e-10
1.0860376144e-09
9.60105341318e-10
1.21263935303e-10
1.19340980303e-09
9.84286154477e-10
1.02792112324e-10
1.27774571091e-09
1.00157206487e-09
6.99044053073e-11
1.33832711943e-09
1.01312733369e-09
2.79107430243e-11
1.3748413904e-09
1.0197823476e-09
-1.71953620827e-11
1.38713905193e-09
1.02203796724e-09
-5.94112335536e-11
1.37503532893e-09
1.02006454573e-09
-9.27281307297e-11
1.33871512679e-09
1.01370333784e-09
-1.11817869451e-10
1.27831856143e-09
1.00246082385e-09
-1.12580608909e-10
1.19413919839e-09
9.85514701889e-10
-9.25589406042e-11
1.08685622653e-09
9.61703629258e-10
-5.13670182523e-11
9.57686493987e-10
9.29485833385e-10
8.07281703205e-10
6.47094159371e-12
8.84869603164e-10
-7.35928483354e-13
1.21349601436e-11
-6.85341417571e-12
2.56400896279e-14
-1.41991241027e-12
1.31599248504e-11
-1.01853428018e-11
-1.79376856667e-12
1.38562766769e-11
-1.52625829056e-11
-1.86938361723e-12
1.43579928495e-11
-2.09991300855e-11
-1.57971865916e-12
1.47712032659e-11
-2.64811512379e-11
-9.93349265574e-13
1.50655052585e-11
-3.09633407866e-11
-2.21979546712e-13
1.52278859802e-11
-3.38964365048e-11
6.06373159919e-13
1.526566652e-11
-3.49272619394e-11
1.36132240315e-12
1.5169210854e-11
-3.38859591188e-11
1.91890386805e-12
1.49661844606e-11
-3.09420893088e-11
2.18140965495e-12
1.46586224111e-11
-2.64482207925e-11
2.09233828685e-12
1.42429822259e-11
-2.09522002522e-11
1.66738605019e-12
1.36909151626e-11
-1.51959436487e-11
9.37406597333e-13
1.30256653536e-11
-1.00808189973e-11
1.20337057873e-11
-6.65672087422e-12
1.64048382712e-13
-1.654372095e-12
4.70333036751e-11
1.85255967565e-11
5.39514885362e-14
-3.19754863105e-12
5.11717267894e-11
1.50193983027e-11
-4.15556558188e-12
5.41707968795e-11
6.34743626554e-12
-4.36664626243e-12
5.64880846568e-11
-4.81213256943e-12
-3.71157814142e-12
5.82867507534e-11
-1.61299145801e-11
-2.31355000344e-12
5.95573985927e-11
-2.56803022526e-11
-4.38361552951e-13
6.03022560975e-11
-3.202312832e-11
1.58800199607e-12
6.0528199231e-11
-3.42474474553e-11
3.42131690573e-12
6.01694464752e-11
-3.1992898222e-11
4.74500488178e-12
5.93231236052e-11
-2.56189996724e-11
5.32065943514e-12
5.80018352054e-11
-1.60348687144e-11
5.03730842782e-12
5.61814587393e-11
-4.6766657809e-12
3.94954876965e-12
5.37967151637e-11
6.53976293099e-12
2.2551925382e-12
5.08339701458e-11
1.53188857514e-11
4.67930516558e-11
1.90534257412e-11
4.86475724621e-13
-1.99589936942e-12
9.88597773123e-11
7.74875923267e-11
6.59175107888e-14
-3.91727060427e-12
1.0765613187e-10
7.96443614072e-11
-5.20811904227e-12
1.14220250614e-10
7.34178015557e-11
-5.53234458892e-12
1.19322862387e-10
6.25118856689e-11
-4.71965443601e-12
1.2321086842e-10
5.02247277444e-11
-2.89606635413e-12
1.25941206658e-10
3.93281966343e-11
-4.06902255255e-13
1.27565380965e-10
3.19284833303e-11
2.29604509279e-12
1.28093625165e-10
2.93386460782e-11
4.7237835096e-12
1.27379490086e-10
3.19756951224e-11
6.43675374454e-12
1.25607902058e-10
3.94239493343e-11
7.120033466e-12
1.22793859033e-10
5.03732118796e-11
6.65661972173e-12
1.18865630387e-10
6.27231583523e-11
5.16293174586e-12
1.13698730246e-10
7.37157074524e-11
2.99552718647e-12
1.0717564686e-10
8.00995608343e-11
9.85417119242e-11
7.82639781976e-11
8.08235222374e-13
-1.80076956934e-12
1.62460493284e-10
1.60360926677e-10
7.13389711145e-14
-3.65368066038e-12
1.76946061432e-10
1.72654460711e-10
-5.00770137524e-12
1.87984912193e-10
1.73616411858e-10
-5.40941531542e-12
1.96540454402e-10
1.67486198576e-10
-4.62607271565e-12
2.02977649859e-10
1.58140638871e-10
-2.74755271462e-12
2.07465123646e-10
1.48904996237e-10
-1.27860823284e-13
2.10145142254e-10
1.42351365951e-10
2.7319930039e-12
2.11044843017e-10
1.40061355099e-10
5.27475698401e-12
2.09927869356e-10
1.42411870127e-10
7.01210973531e-12
2.07069571308e-10
1.49027761627e-10
7.61741662158e-12
2.02468625483e-10
1.58330995612e-10
7.00938957164e-12
1.95974061385e-10
1.67756239318e-10
5.38093904776e-12
1.87370849072e-10
1.73993472197e-10
3.20374605235e-12
1.76390418967e-10
1.73218509733e-10
1.62097113245e-10
1.61295156408e-10
1.13760495416e-12
-1.07375231595e-12
2.32619337117e-10
2.58940140873e-10
7.43719039503e-14
-2.41705223767e-12
2.53311868671e-10
2.84706387255e-10
-3.5603790646e-12
2.69307920012e-10
2.96484110593e-10
-3.99242992368e-12
2.81629895259e-10
2.98649583091e-10
-3.41666402842e-12
2.90816011972e-10
2.95326818665e-10
-1.8512931808e-12
2.97172109694e-10
2.90139055402e-10
4.07116814505e-13
3.00960711603e-10
2.85945583734e-10
2.89035392715e-12
3.02251425766e-10
2.8448115609e-10
5.05832512581e-12
3.00727895635e-10
2.86016234345e-10
6.45440928659e-12
2.96744455295e-10
2.9028248074e-10
6.80564444142e-12
2.90257973825e-10
2.955488265e-10
6.10360773385e-12
2.81005663661e-10
2.98962579768e-10
4.61710082871e-12
2.68650420561e-10
2.96915109941e-10
2.88028093379e-12
2.52741207964e-10
2.85337778168e-10
2.32246002504e-10
2.59961634191e-10
1.47117325267e-12
1.90675901638e-13
3.0415215293e-10
3.65908600764e-10
7.62230576343e-14
-1.90040493887e-13
3.310570056e-10
4.07455635073e-10
-8.37102792502e-13
3.52014536724e-10
4.326521672e-10
-1.23657152959e-12
3.68063519553e-10