/*--------------------------------*- C++ -*----------------------------------*\
  =========                 |
  \\      /  F ield         | OpenFOAM: The Open Source CFD Toolbox
   \\    /   O peration     | Website:  https://openfoam.org
    \\  /    A nd           | Version:  7
     \\/     M anipulation  |
\*---------------------------------------------------------------------------*/
FoamFile
{
    version     2.0;
    format      ascii;
    class       volVectorField;
    location    "1.78";
    object      U;
}
// * * * * * * * * * * * * * * * * * * * * * * * * * * * * * * * * * * * * * //

dimensions      [0 1 -1 0 0 0 0];

internalField   nonuniform List<vector> 
22500
(
(4.58029906189e-06 5.54400742047e-06 3.76567040554e-05)
(3.89218490122e-06 6.49108523279e-06 3.86634262506e-05)
(3.11562734398e-06 7.26831502887e-06 3.9136331936e-05)
(2.41960237161e-06 7.8234174311e-06 3.93604997975e-05)
(1.75751715753e-06 8.21560502091e-06 3.94687685396e-05)
(1.14680365111e-06 8.47055347942e-06 3.95212227383e-05)
(5.71438900122e-07 8.61375451869e-06 3.95453196464e-05)
(1.52886981063e-08 8.66054907418e-06 3.95532723586e-05)
(-5.41265593446e-07 8.61584304007e-06 3.95454195432e-05)
(-1.11770408982e-06 8.47460071429e-06 3.95213109777e-05)
(-1.73017637655e-06 8.2212597776e-06 3.94687905128e-05)
(-2.39460105091e-06 7.83035351805e-06 3.93607077145e-05)
(-3.09403769245e-06 7.27578603637e-06 3.91382363072e-05)
(-3.87301014126e-06 6.49996017689e-06 3.86746790697e-05)
(-4.56718103068e-06 5.55290324403e-06 3.77086224558e-05)
(1.4099051927e-05 1.68003874551e-05 0.000112629698121)
(1.21478386153e-05 1.95274340187e-05 0.000115568982361)
(9.90019330876e-06 2.18095813329e-05 0.00011690116055)
(7.77383604383e-06 2.3498853073e-05 0.00011746523033)
(5.71301428123e-06 2.47210998177e-05 0.00011767885916)
(3.75722101212e-06 2.55342125543e-05 0.00011774282698)
(1.87839676838e-06 2.59987985493e-05 0.000117752898139)
(4.16832123402e-08 2.61512485853e-05 0.000117753457466)
(-1.79600971527e-06 2.6003746257e-05 0.00011775299759)
(-3.67754546916e-06 2.55437629669e-05 0.000117742587666)
(-5.63772775276e-06 2.47344328139e-05 0.000117678082161)
(-7.70452487647e-06 2.35151796328e-05 0.000117464646115)
(-9.83913238413e-06 2.18273237235e-05 0.000116905267277)
(-1.2094008874e-05 1.95485696789e-05 0.000115600007399)
(-1.40617728352e-05 1.68221693682e-05 0.000112760834045)
(2.30611585471e-05 2.71877008062e-05 0.000186770306686)
(1.99692778121e-05 3.14285250017e-05 0.000191575190197)
(1.63982450502e-05 3.50072659028e-05 0.000193712910896)
(1.29373038865e-05 3.77025355607e-05 0.000194554821258)
(9.5523747874e-06 3.96760306471e-05 0.000194807333468)
(6.30222626541e-06 4.10046669945e-05 0.000194824721393)
(3.15460832004e-06 4.17701917585e-05 0.000194781253799)
(6.34441346016e-08 4.20219377567e-05 0.000194759621781)
(-3.0290469885e-06 4.17765216458e-05 0.000194780639206)
(-6.18040604924e-06 4.10168655586e-05 0.000194822660563)
(-9.4366103717e-06 3.9693082528e-05 0.000194803418369)
(-1.28298014825e-05 3.77233726208e-05 0.000194550042332)
(-1.63020519105e-05 3.50301968998e-05 0.000193713657576)
(-1.98839681361e-05 3.14562710273e-05 0.000191613074665)
(-2.30005235061e-05 2.72177151234e-05 0.000186948244546)
(3.12696068298e-05 3.65584554577e-05 0.000258643921283)
(2.71636071186e-05 4.20327870982e-05 0.000265131619257)
(2.2416338656e-05 4.66789566016e-05 0.000267946394735)
(1.77391392208e-05 5.02166889699e-05 0.000268951730016)
(1.31362945039e-05 5.28292076972e-05 0.000269139987962)
(8.68365749962e-06 5.46025129485e-05 0.000269028059746)
(4.34956677121e-06 5.56302477035e-05 0.00026887742077)
(8.11707783755e-08 5.59689206759e-05 0.00026881441471)
(-4.1888011407e-06 5.56376586254e-05 0.000268874733377)
(-8.52739801469e-06 5.46167832855e-05 0.000269021413719)
(-1.29873500481e-05 5.2849221322e-05 0.000269128683802)
(-1.76001165916e-05 5.02411733227e-05 0.000268936660574)
(-2.22906718365e-05 4.67061511667e-05 0.000267934395991)
(-2.70514224785e-05 4.20658119841e-05 0.000265158170247)
(-3.11872360846e-05 3.65950301294e-05 0.000258826995811)
(3.86880067829e-05 4.49235816761e-05 0.000327453121343)
(3.36873906616e-05 5.13661150458e-05 0.000335389686691)
(2.79008117358e-05 5.68565235407e-05 0.000338717425756)
(2.21295703224e-05 6.10695027124e-05 0.00033974850893)
(1.64227189758e-05 6.42006367047e-05 0.000339755027651)
(1.08714346423e-05 6.63394126965e-05 0.000339422477493)
(5.44787541276e-06 6.75846554714e-05 0.00033910667932)
(9.55803961596e-08 6.7995833769e-05 0.000338982032535)
(-5.25847928373e-06 6.75931272923e-05 0.000339100624772)
(-1.06871273766e-05 6.63557370901e-05 0.000339408626445)
(-1.62466904586e-05 6.42236354708e-05 0.000339732235557)
(-2.19647102553e-05 6.10977628953e-05 0.000339717052831)
(-2.77506091964e-05 5.68881311454e-05 0.000338683084489)
(-3.35523848442e-05 5.14044195474e-05 0.000335388224365)
(-3.85855898979e-05 4.49664184032e-05 0.000327608745752)
(4.52259869009e-05 5.22106782043e-05 0.000392710737368)
(3.94427947957e-05 5.93541941883e-05 0.000401832170233)
(3.27522310923e-05 6.54573426567e-05 0.000405483973393)
(2.60201537623e-05 7.01655874037e-05 0.000406386796783)
(1.93401187269e-05 7.36807892386e-05 0.000406084477064)
(1.28157195852e-05 7.60937357682e-05 0.000405434703305)
(6.42424776394e-06 7.75037526064e-05 0.000404893287756)
(1.07383353882e-07 7.79702562411e-05 0.000404686198711)
(-6.21138192958e-06 7.75133820067e-05 0.000404882807905)
(-1.26083780833e-05 7.61123333781e-05 0.000405411523709)
(-1.91417753524e-05 7.37071359108e-05 0.000406046812896)
(-2.58338941509e-05 7.01981495032e-05 0.000406333733499)
(-3.25813633003e-05 6.54940717015e-05 0.000405418979103)
(-3.92880653768e-05 5.93984307564e-05 0.000401789574923)
(-4.51052402167e-05 5.22603117913e-05 0.000392818435125)
(5.08144339626e-05 5.83596429528e-05 0.000454155147429)
(4.4354328314e-05 6.59375849551e-05 0.000464183136695)
(3.68953403287e-05 7.24177463265e-05 0.0004679560424)
(2.93446157828e-05 7.74340767388e-05 0.000468568236343)
(2.18357022799e-05 8.11910319757e-05 0.000467826720951)
(1.44802698235e-05 8.37801212517e-05 0.000466762669515)
(7.26053141906e-06 8.52977056118e-05 0.000465935689974)
(1.17253270827e-07 8.58008427167e-05 0.000465625772761)
(-7.02802597343e-06 8.53087270232e-05 0.000465920016022)
(-1.42536134016e-05 8.38014781796e-05 0.000466728665179)
(-2.16185853995e-05 8.1221483935e-05 0.000467771781123)
(-2.91402514603e-05 7.74719516388e-05 0.000468489732651)
(-3.67067596175e-05 7.24608580787e-05 0.000467854287982)
(-4.41823129701e-05 6.59890095396e-05 0.000464090793855)
(-5.06769328949e-05 5.84171638698e-05 0.000454203550746)
(5.54142089061e-05 6.33388635593e-05 0.000511697764454)
(4.83779964024e-05 7.10900926358e-05 0.000522352660493)
(4.0286687471e-05 7.77132712244e-05 0.000526040157497)
(3.20655527861e-05 8.28503297377e-05 0.000526200827654)
(2.38806014687e-05 8.67061532871e-05 0.000524895736605)
(1.58458935211e-05 8.93725343358e-05 0.00052332754544)
(7.94742219944e-06 9.09398626501e-05 0.000522160526475)
(1.25813875381e-07 9.14607253826e-05 0.00052172949943)
(-7.69786497559e-06 9.09525944021e-05 0.000522139245081)
(-1.56024229751e-05 8.93973188948e-05 0.00052328203391)
(-2.36470821083e-05 8.67417247059e-05 0.000524822477321)
(-3.18452997563e-05 8.28948671079e-05 0.000526095078298)
(-4.00824151475e-05 7.77643866121e-05 0.000525898686586)
(-4.81905537762e-05 7.11504116057e-05 0.000522207351372)
(-5.52614060288e-05 6.34057374301e-05 0.000511683394918)
(5.90064131219e-05 6.71357277365e-05 0.000565369577589)
(5.14922295086e-05 7.48068633245e-05 0.000576378735285)
(4.2906262457e-05 8.13446558958e-05 0.00057978115537)
(3.41676534058e-05 8.64202226363e-05 0.0005793435075)
(2.54644756966e-05 9.02370493339e-05 0.000577370039513)
(1.69066455322e-05 9.28857277656e-05 0.000575226869806)
(8.48248945508e-06 9.44473529902e-05 0.000573678648455)
(1.33653660925e-07 9.49678324913e-05 0.000573113042178)
(-8.21729069646e-06 9.44621577207e-05 0.000573651763885)
(-1.66477027224e-05 9.29146890911e-05 0.000575170221967)
(-2.52157991577e-05 9.02788696486e-05 0.000577279289833)
(-3.39326685311e-05 8.64728856748e-05 0.00057921150709)
(-4.268742907e-05 8.14055270435e-05 0.000579601300973)
(-5.12906035893e-05 7.48779307229e-05 0.000576183921281)
(-5.88396208889e-05 6.7213652985e-05 0.000565297713741)
(6.15871400924e-05 6.97513005824e-05 0.000615258728316)
(5.36930665527e-05 7.70974962712e-05 0.000626352085424)
(4.47535253089e-05 8.333028975e-05 0.000629284575318)
(3.56546348301e-05 8.81721573783e-05 0.000628135876693)
(2.65930066531e-05 9.18221098804e-05 0.000625430508444)
(1.76679208651e-05 9.43657522169e-05 0.000622678574284)
(8.8691202687e-06 9.58709113815e-05 0.000620733194639)
(1.41330645638e-07 9.63744270194e-05 0.000620028406188)
(-8.58857580167e-06 9.58880827777e-05 0.000620701131018)
(-1.73937462617e-05 9.43995054046e-05 0.000622612426163)
(-2.63293536813e-05 9.18711378587e-05 0.000625325634524)
(-3.54050966331e-05 8.82342831682e-05 0.000627983585539)
(-4.45204615036e-05 8.34025529658e-05 0.000629074855176)
(-5.34778691504e-05 7.7181060955e-05 0.000626119708661)
(-6.14072792341e-05 6.98419227575e-05 0.000615143689389)
(6.31653476322e-05 7.11989420109e-05 0.000661419354724)
(5.49929705421e-05 7.79836547083e-05 0.000672311334811)
(4.58469204565e-05 8.37041197194e-05 0.000674612038405)
(3.6548418371e-05 8.81552268417e-05 0.000672698880507)
(2.72866359761e-05 9.15250215035e-05 0.000669272103119)
(1.8145146344e-05 9.38869701808e-05 0.000665944033559)
(9.11569698778e-06 9.52910575767e-05 0.000663629615567)
(1.49347848277e-07 9.57629903554e-05 0.000662796980492)
(-8.81912239025e-06 9.53107929433e-05 0.000663595236676)
(-1.7855038512e-05 9.39259395321e-05 0.000665874677943)
(-2.70072918906e-05 9.15819154318e-05 0.000669162868585)
(-3.62836391404e-05 8.82277047924e-05 0.000672539183485)
(-4.55991379133e-05 8.37888808489e-05 0.000674388720377)
(-5.4764126025e-05 7.80809943422e-05 0.000672062761169)
(-6.29727734002e-05 7.13035127211e-05 0.000661286375945)
(6.37604464955e-05 7.15010105011e-05 0.000703726623261)
(5.5421194353e-05 7.74958873434e-05 0.000714080979227)
(4.62252298815e-05 8.25158833153e-05 0.00071563355979)
(3.68889570409e-05 8.64418617367e-05 0.000713010510673)
(2.75786737194e-05 8.94368991859e-05 0.000708996404845)
(1.83614893548e-05 9.15524219594e-05 0.000705231216802)
(9.23413684725e-06 9.28171002819e-05 0.00070264652995)
(1.58087384378e-07 9.32446549595e-05 0.000701722946489)
(-8.92008918088e-06 9.28393476937e-05 0.000702614918213)
(-1.80539638069e-05 9.15964749093e-05 0.000705168297677)
(-2.72821049715e-05 8.95015432584e-05 0.000708897505932)
(-3.66074427237e-05 8.65247159979e-05 0.000712863684785)
(-4.59615239892e-05 8.26133822948e-05 0.000715422529607)
(-5.51780266055e-05 7.76074339892e-05 0.000713848619123)
(-6.35548305995e-05 7.16200928232e-05 0.000703613814324)
(6.34013992597e-05 7.06739776817e-05 0.000741635579951)
(5.50321395571e-05 7.566995938e-05 0.000751030927239)
(4.59529533945e-05 7.98412727803e-05 0.000751830404793)
(3.67330462199e-05 8.31400412176e-05 0.000748748889764)
(2.75107184513e-05 8.5686189358e-05 0.000744481512761)
(1.8343319957e-05 8.75005185576e-05 0.000740579110821)
(9.23720310177e-06 8.85913859937e-05 0.000737925433486)
(1.67788004953e-07 8.89627074044e-05 0.000736983119699)
(-8.90375305724e-06 8.86157070624e-05 0.00073790283451)
(-1.80163799038e-05 8.75488252926e-05 0.000740535384632)
(-2.71948435256e-05 8.57574707818e-05 0.000744413371825)
(-3.64327424593e-05 8.32321060681e-05 0.000748644370747)
(-4.56716007569e-05 7.99504941102e-05 0.000751669760508)
(-5.47735390495e-05 7.5794958634e-05 0.000750859070689)
(-6.31821684624e-05 7.08066785397e-05 0.000741591272542)
(6.21755286549e-05 6.87281030341e-05 0.000773778314587)
(5.39444660817e-05 7.26244830243e-05 0.000781767092124)
(4.51279613104e-05 7.58350125214e-05 0.00078209352168)
(3.6143103712e-05 7.84353346585e-05 0.000779143828302)
(2.71191957416e-05 8.04656957308e-05 0.000775252034467)
(1.81100114719e-05 8.19218576846e-05 0.000771731439759)
(9.13330435501e-06 8.28009328712e-05 0.00076934406583)
(1.78504036575e-07 8.31024705962e-05 0.000768500491201)
(-8.77838923386e-06 8.2826490189e-05 0.000769337642124)
(-1.77615260246e-05 8.19727785478e-05 0.000771722112963)
(-2.67817821667e-05 8.05412769448e-05 0.00077524013985)
(-3.58217399407e-05 7.85338899384e-05 0.000779120806309)
(-4.4826959868e-05 7.59533915985e-05 0.000782037037254)
(-5.36690494774e-05 7.27607242127e-05 0.000781714220057)
(-6.19412822337e-05 6.88727969069e-05 0.000773854604871)
(6.02537397617e-05 6.63209202489e-05 0.000797278939501)
(5.23094376673e-05 6.85577648214e-05 0.000803927967693)
(4.37789953019e-05 7.07621780008e-05 0.000804673136736)
(3.51166731746e-05 7.25669564813e-05 0.000802937080155)
(2.63905726716e-05 7.39768431998e-05 0.000800411258749)
(1.76490026153e-05 7.49862574252e-05 0.000798038755675)
(8.91534335711e-06 7.55958496153e-05 0.0007963983438)
(1.90087165936e-07 7.58072071236e-05 0.00079581856486)
(-8.53722328957e-06 7.56210388453e-05 0.000796413940827)
(-1.72771865832e-05 7.50365975069e-05 0.000798076467273)
(-2.60296894222e-05 7.40520127663e-05 0.000800477767457)
(-3.47720239861e-05 7.26660679438e-05 0.000803033680394)
(-4.34559976731e-05 7.08830567813e-05 0.00080477985626)
(-5.20163738056e-05 6.86997126375e-05 0.000804093153751)
(-6.00011219025e-05 6.64722012617e-05 0.00079747424877)
(4.37057942865e-09 1.33334335039e-07 7.33572244948e-06)
(-1.17329325956e-07 2.2178282042e-07 6.57447702286e-06)
(-2.06585195285e-07 2.55391949935e-07 5.18847303663e-06)
(-2.49111133398e-07 2.47912645142e-07 3.6258342023e-06)
(-2.42429349049e-07 2.16719148027e-07 2.1763672367e-06)
(-1.8948672615e-07 1.79496803241e-07 1.02641162343e-06)
(-1.01480464042e-07 1.50992170143e-07 2.93200867336e-07)
(5.57622832935e-09 1.40776251862e-07 4.20690983881e-08)
(1.12828797193e-07 1.52144651161e-07 2.93596494526e-07)
(2.01428739348e-07 1.8178917929e-07 1.02727749351e-06)
(2.55092408745e-07 2.2001135187e-07 2.17799650891e-06)
(2.61765071103e-07 2.51892260363e-07 3.62917178126e-06)
(2.17951680432e-07 2.59858136353e-07 5.19630606805e-06)
(1.26731707501e-07 2.26263137715e-07 6.59612978572e-06)
(1.41230422151e-09 1.37752155259e-07 7.40128097203e-06)
(7.71527095681e-07 1.18137990522e-06 3.74014514984e-05)
(4.11339700569e-07 1.55390508735e-06 3.66227992264e-05)
(9.44665171398e-08 1.78120413256e-06 3.38494448168e-05)
(-1.23184275652e-07 1.8852184426e-06 3.03368526444e-05)
(-2.2693163534e-07 1.90463910023e-06 2.69222899252e-05)
(-2.18789407448e-07 1.88158538498e-06 2.41491756223e-05)
(-1.2414992398e-07 1.85244962065e-06 2.23590480081e-05)
(1.77924042848e-08 1.841078623e-06 2.17423958433e-05)
(1.60141589902e-07 1.85561465537e-06 2.23599389416e-05)
(2.5594100949e-07 1.8877790498e-06 2.41511698162e-05)
(2.65343036273e-07 1.91342225365e-06 2.6926358364e-05)
(1.61202572486e-07 1.89585652658e-06 3.03459374408e-05)
(-6.01065670789e-08 1.79318887995e-06 3.38719184285e-05)
(-3.82742175902e-07 1.56647870262e-06 3.66861055941e-05)
(-7.53328223283e-07 1.19417586618e-06 3.75780287884e-05)
(2.23040667735e-06 2.94324352636e-06 8.20219937449e-05)
(1.63218252492e-06 3.685666175e-06 8.25810103722e-05)
(1.04703256627e-06 4.20346251198e-06 7.96857871556e-05)
(5.75018030042e-07 4.51672536982e-06 7.53144531749e-05)
(2.49466841742e-07 4.67633353421e-06 7.0808528866e-05)
(7.51373243694e-08 4.73926053349e-06 6.70476446477e-05)
(2.00063924378e-08 4.75583163689e-06 6.45858083189e-05)
(3.05289710174e-08 4.75919970894e-06 6.37323035065e-05)
(4.14975034898e-08 4.76065058526e-06 6.45863757361e-05)
(-1.24242739076e-08 4.74859047621e-06 6.70490921661e-05)
(-1.85645457144e-07 4.6894195966e-06 7.0812492787e-05)
(-5.12267490743e-07 4.53249579637e-06 7.53256786993e-05)
(-9.89856643654e-07 4.22119649291e-06 7.97171431921e-05)
(-1.5841367339e-06 3.7051487953e-06 8.26735025132e-05)
(-2.19866639689e-06 2.96390617862e-06 8.22803926322e-05)
(4.27341435844e-06 5.30260234346e-06 0.000138718468939)
(3.43588984574e-06 6.47251882564e-06 0.000141649440077)
(2.55097667242e-06 7.34610829842e-06 0.000139625658616)
(1.76037223994e-06 7.9363789952e-06 0.000135262031009)
(1.12000465409e-06 8.29975156636e-06 0.000130361362633)
(6.46281649414e-07 8.50036551971e-06 0.000126119746631)
(3.07424604329e-07 8.5962983845e-06 0.000123293479896)
(4.3595368049e-08 8.62598040028e-06 0.00012230546753)
(-2.19890685373e-07 8.60250213634e-06 0.000123292267364)
(-5.5790928752e-07 8.51236738818e-06 0.000126117660051)
(-1.0312692074e-06 8.31664612101e-06 0.000130360596736)
(-1.67385958671e-06 7.95697278944e-06 0.000135268696222)
(-2.47186385102e-06 7.36947468642e-06 0.000139655564419)
(-3.36883203639e-06 6.49901872233e-06 0.000141752063567)
(-4.22743842452e-06 5.3313894463e-06 0.00013901918884)
(6.71795349775e-06 8.05528263887e-06 0.000205285978818)
(5.64305942808e-06 9.66879527008e-06 0.000211334205336)
(4.44270898113e-06 1.09193790954e-05 0.000210917517482)
(3.29331416515e-06 1.18132901384e-05 0.000207213298409)
(2.27489256514e-06 1.24084230949e-05 0.000202445963499)
(1.41890873254e-06 1.27712001077e-05 0.000198109335438)
(6.99359697633e-07 1.29630787882e-05 0.000195152792341)
(5.67739091567e-08 1.30248656092e-05 0.000194108252964)
(-5.85667208388e-07 1.29704898101e-05 0.000195148391723)
(-1.30501950148e-06 1.27855858276e-05 0.000198100787586)
(-2.16175325062e-06 1.24288589555e-05 0.000202435776319)
(-3.18387033586e-06 1.18385752646e-05 0.000207208264678)
(-4.34245561865e-06 1.09484337878e-05 0.000210934643326)
(-5.55724679245e-06 9.70228920964e-06 0.000211427887283)
(-6.65706492358e-06 8.09220271502e-06 0.000205595115677)
(9.4115771271e-06 1.10321609875e-05 0.000279626302952)
(8.1043110622e-06 1.30710902701e-05 0.000289256826479)
(6.58590973609e-06 1.46842683987e-05 0.000290928106837)
(5.05774799859e-06 1.58755783727e-05 0.000288322184691)
(3.62317031042e-06 1.67023652134e-05 0.000284050003134)
(2.33056572312e-06 1.72304303988e-05 0.000279885270486)
(1.16396276454e-06 1.75215407562e-05 0.000276961447477)
(6.98643946056e-08 1.76167305379e-05 0.000275914818029)
(-1.02434577677e-06 1.75300390729e-05 0.000276952768538)
(-2.19154411022e-06 1.72469960759e-05 0.000279867969741)
(-3.48619607681e-06 1.67261227534e-05 0.00028402656573)
(-4.92606418891e-06 1.59053648882e-05 0.000288299265193)
(-6.46513376698e-06 1.47189193786e-05 0.00029092227362)
(-7.99987402173e-06 1.31114294568e-05 0.000289325364016)
(-9.33511722297e-06 1.10769275308e-05 0.000279919369755)
(1.22155875499e-05 1.4081610621e-05 0.000359756541001)
(1.06840141503e-05 1.64977419794e-05 0.000373170599575)
(8.85660794567e-06 1.84289753344e-05 0.000377170740274)
(6.94798111797e-06 1.98841180292e-05 0.000375903130605)
(5.08213300324e-06 2.09194849818e-05 0.000372334786883)
(3.32456082313e-06 2.15986158342e-05 0.000368501057153)
(1.6723592691e-06 2.1981473183e-05 0.000365709129298)
(8.26798791326e-08 2.21077239603e-05 0.000364693919338)
(-1.50739037761e-06 2.19909631597e-05 0.00036569561523)
(-3.16102557089e-06 2.16171977678e-05 0.000368473839075)
(-4.92197468172e-06 2.09463631675e-05 0.000372295969329)
(-6.79468855589e-06 1.99181958142e-05 0.00037585837913)
(-8.71577225107e-06 1.84690076163e-05 0.00037713481421)
(-1.05610828695e-05 1.65446924859e-05 0.000373202866895)
(-1.21229199444e-05 1.4133749219e-05 0.000360017684218)
(1.50006058235e-05 1.70635002602e-05 0.00044382798977)
(1.32562135106e-05 1.97826555352e-05 0.000460986555329)
(1.11393774921e-05 2.19623866285e-05 0.000467341208843)
(8.86543774943e-06 2.36257741189e-05 0.000467478789898)
(6.57452999716e-06 2.48283935455e-05 0.000464694411834)
(4.3478967663e-06 2.56306870429e-05 0.000461263316767)
(2.19755946865e-06 2.6089323331e-05 0.000458651964352)
(9.50716115839e-08 2.62414285446e-05 0.000457685426024)
(-2.00808101892e-06 2.60997182938e-05 0.00045863382811)
(-4.1606658847e-06 2.5651130544e-05 0.000461226726061)
(-6.39193473592e-06 2.48581820038e-05 0.000464640788232)
(-8.69117069617e-06 2.36638880767e-05 0.000467411994845)
(-1.09788843121e-05 2.20075178321e-05 0.000467273112931)
(-1.31149063423e-05 1.98358392659e-05 0.000460978720904)
(-1.48913092744e-05 1.71225499149e-05 0.00044405078605)
(1.76489624069e-05 1.98518129494e-05 0.000530123659397)
(1.57067995995e-05 2.27783834666e-05 0.000550771505725)
(1.33294706523e-05 2.51181597996e-05 0.000559323308528)
(1.07203596164e-05 2.69180723271e-05 0.000560796857848)
(8.02967559175e-06 2.82335003413e-05 0.000558784429535)
(5.35187709346e-06 2.91212781294e-05 0.000555770228401)
(2.71469680263e-06 2.96336450558e-05 0.00055335726971)
(1.06911021464e-07 2.98043231998e-05 0.00055244716889)
(-2.50178679362e-06 2.96448273969e-05 0.000553335671504)
(-5.14194613149e-06 2.91433643738e-05 0.000555727130215)
(-7.8254857601e-06 2.82659002445e-05 0.000558720384517)
(-1.05257626759e-05 2.69598454499e-05 0.000560713159538)
(-1.31497291193e-05 2.5167981744e-05 0.000559228055512)
(-1.55472490499e-05 2.28372943279e-05 0.00055072930641)
(-1.75227671164e-05 1.99172270666e-05 0.000530312585015)
(2.00570340454e-05 2.23370531675e-05 0.000617018903245)
(1.79358269069e-05 2.53594121495e-05 0.000640702622896)
(1.53349419761e-05 2.77586889387e-05 0.000651149127537)
(1.24333148075e-05 2.96135671036e-05 0.000653803970555)
(9.38439391359e-06 3.09795197273e-05 0.000652509529393)
(6.2925932221e-06 3.19091724934e-05 0.000649909663558)
(3.20121550642e-06 3.24494655843e-05 0.000647707732805)
(1.1808504051e-07 3.26301172297e-05 0.00064686121544)
(-2.96617099411e-06 3.24612463713e-05 0.000647685216247)
(-6.06114318439e-06 3.1932547535e-05 0.000649865798601)
(-9.15959606059e-06 3.1014046401e-05 0.000652444408635)
(-1.22191318199e-05 2.965842475e-05 0.000653716326109)
(-1.51364405093e-05 2.78125896502e-05 0.00065104260971)
(-1.77582868358e-05 2.54233730378e-05 0.000640644828256)
(-1.99138032376e-05 2.24081576786e-05 0.000617192905594)
(2.21369102313e-05 2.44279756431e-05 0.0007028920747)
(1.98592351183e-05 2.74244995301e-05 0.000728964612993)
(1.70779300406e-05 2.97777595271e-05 0.000740903315467)
(1.39358579449e-05 3.16025344395e-05 0.000744563957053)
(1.05831663421e-05 3.29538413613e-05 0.000743956972819)
(7.13080783226e-06 3.38793092834e-05 0.000741805963268)
(3.63673419399e-06 3.44199897019e-05 0.000739857967861)
(1.28454092645e-07 3.46013731062e-05 0.000739094832938)
(-3.38112424962e-06 3.44321078067e-05 0.000739841112498)
(-6.87927420719e-06 3.39034775673e-05 0.00074177423402)
(-1.03389632784e-05 3.29897959994e-05 0.000743909554021)
(-1.37030131914e-05 3.16496358625e-05 0.0007444963828)
(-1.68613259412e-05 2.98348282008e-05 0.000740813833585)
(-1.9664135684e-05 2.74925756786e-05 0.000728924458097)
(-2.19766930187e-05 2.45038497178e-05 0.000703086412508)
(2.38170107766e-05 2.60512870053e-05 0.000785954139005)
(2.14093647312e-05 2.88974494966e-05 0.000813572939775)
(1.84947209555e-05 3.1102018486e-05 0.000826575666381)
(1.51700218721e-05 3.28143761294e-05 0.000831141408362)
(1.157736327e-05 3.40873257016e-05 0.000831300309018)
(7.83125103012e-06 3.4962922823e-05 0.000829733824421)
(4.00262520749e-06 3.5476334424e-05 0.000828152212168)
(1.37841837149e-07 3.56490669612e-05 0.000827517768922)
(-3.72836402046e-06 3.54884552472e-05 0.000828149882397)
(-7.56140045434e-06 3.49872131586e-05 0.000829731656163)
(-1.1315287935e-05 3.41237491208e-05 0.000831296854179)
(-1.49197540919e-05 3.28625302399e-05 0.000831128824313)
(-1.82609704419e-05 3.11609516838e-05 0.00082654545253)
(-2.11974450943e-05 2.89682842448e-05 0.000813599299485)
(-2.3640073362e-05 2.61306651876e-05 0.00078622221766)
(2.50420699876e-05 2.71471325671e-05 0.00086395008219)
(2.25356518088e-05 2.97270386979e-05 0.00089211417165)
(1.95355350439e-05 3.16934462394e-05 0.000905871688704)
(1.60871617029e-05 3.32189617293e-05 0.000911455897592)
(1.23239401337e-05 3.43544481484e-05 0.000912673711186)
(8.36169023334e-06 3.51367591867e-05 0.000911999372972)
(4.28155656109e-06 3.55961765259e-05 0.000911006199208)
(1.46054115813e-07 3.57511308873e-05 0.00091058369067)
(-3.99096352583e-06 3.56078951574e-05 0.000911028928476)
(-8.07571248479e-06 3.51603664594e-05 0.000912048212233)
(-1.20459688692e-05 3.43901347896e-05 0.000912747763829)
(-1.58211801474e-05 3.32666604607e-05 0.000911544949124)
(-1.92860764832e-05 3.17525449881e-05 0.000905958657029)
(-2.23081266348e-05 2.97988971292e-05 0.000892270996291)
(-2.48492511199e-05 2.72282102173e-05 0.000864357944846)
(2.57902557629e-05 2.76794326591e-05 0.000933659512127)
(2.32131443774e-05 2.99297017612e-05 0.000961470832432)
(2.01662492155e-05 3.15733032001e-05 0.000976070193606)
(1.66460535287e-05 3.28412147062e-05 0.000983175441093)
(1.27837483218e-05 3.37804143878e-05 0.000986063617657)
(8.69191005669e-06 3.44253101499e-05 0.000986818775927)
(4.45709254315e-06 3.48033271673e-05 0.000986774334281)
(1.52889743311e-07 3.49310766415e-05 0.000986693249994)
(-4.15288154567e-06 3.48142182068e-05 0.00098683320084)
(-8.39244236013e-06 3.44473543938e-05 0.000986941810479)
(-1.24923740716e-05 3.38140166561e-05 0.000986253149751)
(-1.63666430911e-05 3.28866890774e-05 0.000983422950499)
(-1.9903113341e-05 3.16306003392e-05 0.000976350269847)
(-2.29717413092e-05 3.00005364162e-05 0.000961838149629)
(-2.5582474794e-05 2.77605024171e-05 0.000934274371378)
(2.60426032469e-05 2.79678590294e-05 0.000990171796162)
(2.34081101209e-05 2.96308078625e-05 0.00101793626902)
(2.03266508306e-05 3.0834595976e-05 0.00103413899249)
(1.67876529916e-05 3.17460234657e-05 0.00104376767821)
(1.29074909059e-05 3.24083646353e-05 0.00104928939847)
(8.78668809004e-06 3.28567479105e-05 0.00105224179845)
(4.51079343786e-06 3.3117275106e-05 0.00105363726681)
(1.58198960771e-07 3.32055056055e-05 0.00105406859554)
(-4.19601292537e-06 3.31267368376e-05 0.00105374012146)
(-8.47673191338e-06 3.28759934656e-05 0.00105245577279)
(-1.26056364731e-05 3.24379563586e-05 0.00104962350559)
(-1.64975571111e-05 3.17866350791e-05 0.00104422358313)
(-2.00522861196e-05 3.08867122655e-05 0.00103468950056)
(-2.31556453719e-05 2.96972187974e-05 0.00101864369273)
(-2.5820160212e-05 2.80447777437e-05 0.000990983538)
(-3.84252359817e-10 1.98365569028e-08 -3.00951469484e-06)
(-2.16863143284e-08 3.45970148042e-08 -4.19084092095e-06)
(-4.01205571049e-08 4.0779030217e-08 -5.94617387918e-06)
(-4.88759595302e-08 3.81167671494e-08 -7.84480538372e-06)
(-4.79557487012e-08 3.13371720307e-08 -9.58847398369e-06)
(-3.63265659418e-08 2.31329355356e-08 -1.09693948124e-05)
(-1.72256457173e-08 1.68642719129e-08 -1.18500920554e-05)
(5.70478532067e-09 1.47666754262e-08 -1.21514494389e-05)
(2.84072012463e-08 1.76237991241e-08 -1.18471709082e-05)
(4.6838676949e-08 2.46611392002e-08 -1.0963399785e-05)
(5.75456460876e-08 3.36774100962e-08 -9.57895670657e-06)
(5.79843993515e-08 4.13794427048e-08 -7.8306475387e-06)
(4.84155062264e-08 4.42572089939e-08 -5.92464689592e-06)
(2.85196764571e-08 3.83969806038e-08 -4.15400836922e-06)
(5.20912014361e-09 2.31478520275e-08 -2.93367514983e-06)
(2.00590773787e-07 2.74645704395e-07 8.15973618036e-06)
(1.37208622679e-07 3.52225235504e-07 6.32545168369e-06)
(7.03351588713e-08 4.03896784997e-07 2.64733027479e-06)
(2.05526673251e-08 4.28856826385e-07 -1.6874331283e-06)
(-8.85837182308e-09 4.36974544334e-07 -5.82771510458e-06)
(-1.48527988221e-08 4.34798287059e-07 -9.17586219479e-06)
(-3.45642271225e-09 4.3028834433e-07 -1.13354055706e-05)
(1.70447839944e-08 4.28841716954e-07 -1.20775286471e-05)
(3.69896099782e-08 4.32371565725e-07 -1.13267828861e-05)
(4.67559664294e-08 4.39015194017e-07 -9.15813810799e-06)
(3.84554425987e-08 4.43420066107e-07 -5.79945119159e-06)
(7.15702253156e-09 4.37643786344e-07 -1.64516489683e-06)
(-4.5170839235e-08 4.1357711018e-07 2.71182170319e-06)
(-1.16172958399e-07 3.62900067043e-07 6.4355155828e-06)
(-1.85536119836e-07 2.84363038878e-07 8.3724942452e-06)
(6.20103773042e-07 7.62946687144e-07 3.57612244522e-05)
(5.1360891692e-07 9.38076384791e-07 3.48409915521e-05)
(3.85105105133e-07 1.06950515885e-06 3.07127492121e-05)
(2.69658731791e-07 1.15519661075e-06 2.52224894309e-05)
(1.75084630305e-07 1.20687031339e-06 1.97193342491e-05)
(1.07849649249e-07 1.23324492237e-06 1.51594232013e-05)
(6.21413944216e-08 1.24479380179e-06 1.21806292299e-05)
(2.79863699195e-08 1.24880643059e-06 1.11518560103e-05)
(-6.9361701595e-09 1.2478779281e-06 1.21944042427e-05)
(-5.48956980872e-08 1.23952254026e-06 1.51877801808e-05)
(-1.25440944264e-07 1.21653307791e-06 1.97647022696e-05)
(-2.23316074969e-07 1.16830557206e-06 2.52904976375e-05)
(-3.43115647305e-07 1.08440880613e-06 3.08162179242e-05)
(-4.77952842871e-07 9.54573042115e-07 3.5015131808e-05)
(-5.94104843854e-07 7.78803056997e-07 3.60889123812e-05)
(1.24584950281e-06 1.47214571022e-06 7.80561719494e-05)
(1.09370226926e-06 1.77523083945e-06 7.93793877826e-05)
(8.90907983815e-07 2.01683426948e-06 7.60695431029e-05)
(6.86802564564e-07 2.19157288844e-06 7.0537846007e-05)
(4.94472490013e-07 2.31133877311e-06 6.45767777619e-05)
(3.25331718738e-07 2.38542972194e-06 5.94695674482e-05)
(1.76330087402e-07 2.42528906482e-06 5.60766743601e-05)
(3.85511670422e-08 2.43898141252e-06 5.4896976299e-05)
(-1.00147395098e-07 2.42938192616e-06 5.60945728586e-05)
(-2.51855245277e-07 2.39373829455e-06 5.95065032534e-05)
(-4.25131142497e-07 2.3240490551e-06 6.46360941209e-05)
(-6.22164223002e-07 2.20865841278e-06 7.06269461888e-05)
(-8.32497238094e-07 2.03671149823e-06 7.6204515789e-05)
(-1.04360541119e-06 1.79747722116e-06 7.96033677062e-05)
(-1.20850053961e-06 1.49432610483e-06 7.84690597455e-05)
(2.05029684135e-06 2.37085521995e-06 0.000133415432748)
(1.8498224824e-06 2.82400770889e-06 0.000138086014815)
(1.56224218647e-06 3.19842045897e-06 0.000136658090164)
(1.25003464495e-06 3.4829876492e-06 0.000132029064314)
(9.31981467716e-07 3.68897900016e-06 0.000126383241813)
(6.25748111831e-07 3.82496558105e-06 0.000121299447568)
(3.3314709986e-07 3.90220299244e-06 0.000117841623004)
(4.87885059658e-08 3.92869959578e-06 0.000116628072697)
(-2.36613858154e-07 3.90730703259e-06 0.00011786260964)
(-5.32304086147e-07 3.83527205102e-06 0.000121342919262)
(-8.43404186473e-07 3.70460428409e-06 0.000126453269141)
(-1.16747325535e-06 3.50382449655e-06 0.000132134221834)