/*--------------------------------*- C++ -*----------------------------------*\
  =========                 |
  \\      /  F ield         | OpenFOAM: The Open Source CFD Toolbox
   \\    /   O peration     | Website:  https://openfoam.org
    \\  /    A nd           | Version:  7
     \\/     M anipulation  |
\*---------------------------------------------------------------------------*/
FoamFile
{
    version     2.0;
    format      ascii;
    class       volScalarField;
    location    "1.54";
    object      p;
}
// * * * * * * * * * * * * * * * * * * * * * * * * * * * * * * * * * * * * * //

dimensions      [0 2 -2 0 0 0 0];

internalField   nonuniform List<scalar> 
22500
(
3.69029539294e-06
3.68915373011e-06
3.68752785081e-06
3.6864269367e-06
3.68556740092e-06
3.68502476676e-06
3.68475126114e-06
3.6847314893e-06
3.68494678605e-06
3.68541389058e-06
3.68614393841e-06
3.6871765238e-06
3.68842947905e-06
3.69017230806e-06
3.6914452708e-06
3.68511394191e-06
3.68384970007e-06
3.68186381926e-06
3.68035948142e-06
3.67910928314e-06
3.67824651127e-06
3.677767683e-06
3.67767834161e-06
3.67796972081e-06
3.67864878469e-06
3.67970515408e-06
3.68113450003e-06
3.68279748277e-06
3.684905761e-06
3.68630558665e-06
3.68167275615e-06
3.68039250237e-06
3.67825334439e-06
3.67651198541e-06
3.67499946513e-06
3.67391117535e-06
3.67328284984e-06
3.67314239993e-06
3.67349032208e-06
3.6743245649e-06
3.67561186407e-06
3.67730865218e-06
3.6792143001e-06
3.68148062859e-06
3.68290173711e-06
3.68057918859e-06
3.67940107318e-06
3.67734910659e-06
3.67556236396e-06
3.67395206202e-06
3.67276010953e-06
3.67205589788e-06
3.67188853902e-06
3.67226770225e-06
3.67318208176e-06
3.67457722342e-06
3.67637614295e-06
3.67833171875e-06
3.68051586286e-06
3.68183759715e-06
3.68146106083e-06
3.68054573061e-06
3.67880092061e-06
3.67715144719e-06
3.67560422008e-06
3.67442988795e-06
3.67372567007e-06
3.67355699723e-06
3.673941012e-06
3.67485871669e-06
3.6762393088e-06
3.67797841699e-06
3.67980015893e-06
3.68168311082e-06
3.68274356759e-06
3.6842979664e-06
3.68389182464e-06
3.68269443494e-06
3.68140474052e-06
3.68011906025e-06
3.67911595199e-06
3.67850915317e-06
3.67837272341e-06
3.67872804339e-06
3.67955144881e-06
3.6807637165e-06
3.68224434373e-06
3.6837095074e-06
3.6850509745e-06
3.68560097499e-06
3.68925172288e-06
3.68970014194e-06
3.6893287727e-06
3.68867151452e-06
3.6878913494e-06
3.68725052508e-06
3.68686303812e-06
3.68680077192e-06
3.68708539286e-06
3.6876925273e-06
3.68854518837e-06
3.68952301095e-06
3.69035836106e-06
3.69088006029e-06
3.69057362088e-06
3.69653731845e-06
3.6982665891e-06
3.69903488861e-06
3.69932227562e-06
3.69932643036e-06
3.69926688582e-06
3.69923841408e-06
3.69929838776e-06
3.69946440252e-06
3.69971580975e-06
3.69999003872e-06
3.70018636249e-06
3.70007965833e-06
3.69946762949e-06
3.6978782314e-06
3.7063799697e-06
3.7098592771e-06
3.71210052227e-06
3.71365947072e-06
3.71473902805e-06
3.715489311e-06
3.71596520226e-06
3.71619729436e-06
3.71619486007e-06
3.71594530477e-06
3.71541270485e-06
3.71453648148e-06
3.71316108005e-06
3.71108198459e-06
3.70774311058e-06
3.7189630366e-06
3.7246473187e-06
3.72868635706e-06
3.73182718111e-06
3.73425902647e-06
3.73603608628e-06
3.73715364834e-06
3.73760503371e-06
3.73738720764e-06
3.73649969554e-06
3.73494377291e-06
3.73271847347e-06
3.72976436191e-06
3.72589315831e-06
3.72035174563e-06
3.73436776372e-06
3.74264160035e-06
3.74875849344e-06
3.75374325293e-06
3.7577638324e-06
3.76075241774e-06
3.76262804003e-06
3.76333832523e-06
3.76286574315e-06
3.76122422036e-06
3.75846038034e-06
3.75464985736e-06
3.74985535204e-06
3.74391201519e-06
3.73578737253e-06
3.75261531279e-06
3.76367842207e-06
3.77204117562e-06
3.77905320943e-06
3.78483674788e-06
3.78917270589e-06
3.79188999002e-06
3.79288759198e-06
3.79213192678e-06
3.78965283631e-06
3.78554550726e-06
3.77997561354e-06
3.77315765159e-06
3.76497396499e-06
3.75406904408e-06
3.77375339583e-06
3.78733625696e-06
3.79794698393e-06
3.80709557915e-06
3.81474811794e-06
3.82050386137e-06
3.82410311349e-06
3.82540015265e-06
3.82434897803e-06
3.82099176088e-06
3.81546817448e-06
3.80803292513e-06
3.79908240183e-06
3.78865560154e-06
3.7752398326e-06
3.79663018117e-06
3.81240597412e-06
3.82547050949e-06
3.83694173963e-06
3.84654947252e-06
3.85374509747e-06
3.85822147381e-06
3.85981422668e-06
3.85847007201e-06
3.85423834141e-06
3.84727768968e-06
3.83789033418e-06
3.8266209958e-06
3.81374653033e-06
3.7981408541e-06
3.8153376379e-06
3.83709965221e-06
3.85341939916e-06
3.8676765831e-06
3.87937921704e-06
3.88803565155e-06
3.89337888437e-06
3.89525898108e-06
3.89362889682e-06
3.88853171051e-06
3.880111937e-06
3.8686323827e-06
3.85458252493e-06
3.8384600392e-06
3.8168597754e-06
-1.23304048219e-06
-1.23189580475e-06
-1.2302482733e-06
-1.22863641391e-06
-1.22716555511e-06
-1.22601554854e-06
-1.22527878806e-06
-1.22502009492e-06
-1.22526071744e-06
-1.22597734957e-06
-1.22710762152e-06
-1.22856635668e-06
-1.23018603099e-06
-1.23186990501e-06
-1.2330952256e-06
-1.22883399542e-06
-1.22773227164e-06
-1.22609435993e-06
-1.22449176046e-06
-1.22302083453e-06
-1.22186691444e-06
-1.22112921902e-06
-1.22087099613e-06
-1.22111268375e-06
-1.22183240395e-06
-1.22296846634e-06
-1.22442871743e-06
-1.22603975555e-06
-1.2277142114e-06
-1.2288957601e-06
-1.22707646381e-06
-1.22629786416e-06
-1.22491943074e-06
-1.2235652274e-06
-1.22229698081e-06
-1.22129491646e-06
-1.22065232505e-06
-1.22042733271e-06
-1.2206384956e-06
-1.22126670527e-06
-1.22225524762e-06
-1.22351699101e-06
-1.22488202257e-06
-1.22629600895e-06
-1.2271506611e-06
-1.22815712364e-06
-1.2278695467e-06
-1.22689695161e-06
-1.22592473393e-06
-1.22497361555e-06
-1.22420987146e-06
-1.2237147449e-06
-1.2235400802e-06
-1.22370314341e-06
-1.22418681712e-06
-1.22494078473e-06
-1.22588902712e-06
-1.22687389814e-06
-1.22788101712e-06
-1.22824189167e-06
-1.23080336695e-06
-1.23096162028e-06
-1.23035319463e-06
-1.22971498359e-06
-1.22903898877e-06
-1.22847943181e-06
-1.22810936658e-06
-1.22797705121e-06
-1.228099239e-06
-1.22846000107e-06
-1.22901274228e-06
-1.22968886627e-06
-1.23034127098e-06
-1.23098294699e-06
-1.23089520123e-06
-1.23393375364e-06
-1.23433795392e-06
-1.233927952e-06
-1.23346071543e-06
-1.23292242359e-06
-1.23246195622e-06
-1.23215146272e-06
-1.23203911031e-06
-1.232142494e-06
-1.23244537018e-06
-1.23290121333e-06
-1.23344177269e-06
-1.23392413189e-06
-1.23436607943e-06
-1.23402984908e-06
-1.23676248966e-06
-1.23713926828e-06
-1.23671917815e-06
-1.2362279605e-06
-1.23566826229e-06
-1.23518860755e-06
-1.2348651698e-06
-1.2347484259e-06
-1.23485758023e-06
-1.23517523535e-06
-1.2356524868e-06
-1.23621644631e-06
-1.23672335795e-06
-1.23717413807e-06
-1.23686109071e-06
-1.23876519643e-06
-1.23884295393e-06
-1.23822084001e-06
-1.23753381478e-06
-1.2368160044e-06
-1.23621791005e-06
-1.23582152877e-06
-1.2356804393e-06
-1.2358153238e-06
-1.23620767607e-06
-1.23680530455e-06
-1.23752895303e-06
-1.23823209013e-06
-1.23888373792e-06
-1.2388660781e-06
-1.23966397604e-06
-1.23921462695e-06
-1.23824141193e-06
-1.23723139988e-06
-1.23625655727e-06
-1.23546961163e-06
-1.23495816772e-06
-1.23477874114e-06
-1.23495332052e-06
-1.2354623609e-06
-1.23625060729e-06
-1.23723270235e-06
-1.23825933121e-06
-1.23926152708e-06
-1.23976672377e-06
-1.23937108982e-06
-1.23822850761e-06
-1.23680046371e-06
-1.23538409758e-06
-1.23408815875e-06
-1.23306725759e-06
-1.23241404873e-06
-1.23218735709e-06
-1.23241039056e-06
-1.23306258848e-06
-1.23408625832e-06
-1.23539068912e-06
-1.23682423546e-06
-1.23828131937e-06
-1.23947611704e-06
-1.23791836185e-06
-1.23597797663e-06
-1.2340289596e-06
-1.23215776711e-06
-1.23050380694e-06
-1.22922375493e-06
-1.22841390957e-06
-1.22813513116e-06
-1.22841130073e-06
-1.22922118002e-06
-1.23050493959e-06
-1.2321679881e-06
-1.23405677937e-06
-1.23603554102e-06
-1.23802467748e-06
-1.23540764678e-06
-1.23261886703e-06
-1.23011052754e-06
-1.22776172027e-06
-1.22573402962e-06
-1.2241848852e-06
-1.22321330071e-06
-1.22288049507e-06
-1.22321128352e-06
-1.2241832982e-06
-1.22573623585e-06
-1.22777297883e-06
-1.23013954679e-06
-1.23267871339e-06
-1.23551460424e-06
-1.23200804817e-06
-1.22833814055e-06
-1.22524564874e-06
-1.22241688611e-06
-1.22001980482e-06
-1.21820816243e-06
-1.21707845902e-06
-1.21669375551e-06
-1.21707633519e-06
-1.21820607641e-06
-1.22002084727e-06
-1.22242592711e-06
-1.22527170911e-06
-1.22839570229e-06
-1.23211055135e-06
-1.2278120781e-06
-1.22322975945e-06
-1.21958561258e-06
-1.21631788449e-06
-1.21359541385e-06
-1.211554682e-06
-1.21028966766e-06
-1.20985865461e-06
-1.21028663271e-06
-1.21155039871e-06
-1.21359207183e-06
-1.21632033118e-06
-1.21960397732e-06
-1.22327909581e-06
-1.22790195455e-06
-1.22210059745e-06
-1.21735716541e-06
-1.21329408333e-06
-1.20970005608e-06
-1.20675676112e-06
-1.20456502634e-06
-1.20320949334e-06
-1.20274900109e-06
-1.20320470697e-06
-1.20455715871e-06
-1.20674756858e-06
-1.20969403912e-06
-1.21330058071e-06
-1.21739399384e-06
-1.22217007915e-06
2.46076517157e-06
2.46015137736e-06
2.45952684484e-06
2.45893816645e-06
2.45843643956e-06
2.45806468789e-06
2.45784717014e-06
2.4577939502e-06
2.45790838279e-06
2.45818320136e-06
2.45860324027e-06
2.45914088235e-06
2.45975463048e-06
2.46038290281e-06
2.46098065929e-06
2.46010923658e-06
2.45950733067e-06
2.45887993908e-06
2.45828496749e-06
2.45777570164e-06
2.45739633817e-06
2.4571729329e-06
2.45711724975e-06
2.4572335053e-06
2.45751366302e-06
2.45794113012e-06
2.45848658489e-06
2.45910597396e-06
2.45973746163e-06
2.46032383434e-06
2.46026188449e-06
2.45973162986e-06
2.45916155946e-06
2.45861106516e-06
2.45813532347e-06
2.45777854577e-06
2.45756722855e-06
2.45751462993e-06
2.45762577092e-06
2.45789189567e-06
2.45829535982e-06
2.45880634342e-06
2.45937987064e-06
2.45995468893e-06
2.46047183514e-06
2.46058061145e-06
2.46011042652e-06
2.45959003558e-06
2.45907999926e-06
2.45863436237e-06
2.45829745433e-06
2.45809637906e-06
2.45804595008e-06
2.45815188811e-06
2.45840495049e-06
2.45878651194e-06
2.45926617426e-06
2.45979823516e-06
2.46032364748e-06
2.46078366407e-06
2.46087112197e-06
2.46044328711e-06
2.45995732618e-06
2.45947521986e-06
2.45904931205e-06
2.45872452726e-06
2.45852904592e-06
2.45847896432e-06
2.4585806589e-06
2.45882445114e-06
2.45919084344e-06
2.45964867249e-06
2.46015155294e-06
2.46064315268e-06
2.46106510894e-06
2.46114430017e-06
2.46074348747e-06
2.4602809606e-06
2.45981762572e-06
2.45940425464e-06
2.45908647588e-06
2.45889344919e-06
2.45884260171e-06
2.45894079982e-06
2.45917814687e-06
2.4595343436e-06
2.45997748065e-06
2.46046056219e-06
2.46092960637e-06
2.4613277615e-06
2.46140347799e-06
2.46101639197e-06
2.4605671972e-06
2.460113303e-06
2.45970521148e-06
2.45938923066e-06
2.45919563639e-06
2.45914294329e-06
2.45923838681e-06
2.45947199317e-06
2.45982279637e-06
2.46025816688e-06
2.46073057759e-06
2.46118750287e-06
2.46157585422e-06
2.46163539884e-06
2.46124666952e-06
2.46079969092e-06
2.46034590326e-06
2.45993608458e-06
2.45961702403e-06
2.45942007639e-06
2.45936459456e-06
2.45945813036e-06
2.45969075754e-06
2.46004104586e-06
2.46047575949e-06
2.46094699719e-06
2.46140267613e-06
2.46179615453e-06
2.46182664123e-06
2.46142155569e-06
2.46096645288e-06
2.46050399172e-06
2.46008586377e-06
2.45975937939e-06
2.45955665396e-06
2.45949757141e-06
2.4595898983e-06
2.459823863e-06
2.46017785525e-06
2.46061833505e-06
2.46109730592e-06
2.461562259e-06
2.4619759373e-06
2.46196913854e-06
2.46153295047e-06
2.46106053201e-06
2.46058223127e-06
2.46015116085e-06
2.45981459327e-06
2.45960475133e-06
2.45954176496e-06
2.45963331047e-06
2.45987006283e-06
2.46023059297e-06
2.46068157894e-06
2.4611754409e-06
2.46165886259e-06
2.46210652057e-06
2.46205714192e-06
2.46157842069e-06
2.46108161423e-06
2.4605827379e-06
2.46013648112e-06
2.45978910433e-06
2.45957229255e-06
2.45950553189e-06
2.45959637625e-06
2.45983596908e-06
2.46020375038e-06
2.46066747961e-06
2.46118090674e-06
2.46168997346e-06
2.46218312732e-06
2.4620921892e-06
2.46156138132e-06
2.46103437188e-06
2.46051259482e-06
2.46005145495e-06
2.4596950871e-06
2.45947282544e-06
2.45940314292e-06
2.45949271004e-06
2.45973381073e-06
2.46010724426e-06
2.46058329906e-06
2.46111853033e-06
2.46165878565e-06
2.46220657791e-06
2.46209211268e-06
2.46149587045e-06
2.46093071073e-06
2.46038421778e-06
2.45991015903e-06
2.45954746842e-06
2.45932259201e-06
2.45925084408e-06
2.45933866551e-06
2.45957883393e-06
2.45995517192e-06
2.46044166248e-06
2.46100020758e-06
2.46157925696e-06
2.46219473291e-06
2.46206780928e-06
2.46138490967e-06
2.46077919055e-06
2.46021011754e-06
2.45972822555e-06
2.45936483058e-06
2.45914043659e-06
2.45906854513e-06
2.45915332736e-06
2.45938966488e-06
2.45976391277e-06
2.4602554237e-06
2.46083471923e-06
2.46145402805e-06
2.46215649834e-06
2.46169738879e-06
2.46108125939e-06
2.46048569738e-06
2.45994436365e-06
2.45949700102e-06
2.45916299173e-06
2.458958256e-06
2.45889231251e-06
2.45896863126e-06
2.45918296705e-06
2.45952520021e-06
2.45998002702e-06
2.46052973135e-06
2.46113728286e-06
2.46177053088e-06
-5.85504524768e-07
-5.85085354633e-07
-5.84630865199e-07
-5.84175195089e-07
-5.83778005666e-07
-5.83475055027e-07
-5.83285918867e-07
-5.83220489009e-07
-5.83280914886e-07
-5.83458862445e-07
-5.83739872776e-07
-5.8410228172e-07
-5.84517529188e-07
-5.84939079187e-07
-5.85354928829e-07
-5.85267093432e-07
-5.8486169814e-07
-5.84412774001e-07
-5.83959407782e-07
-5.83562415236e-07
-5.83258045465e-07
-5.83067287716e-07
-5.83000836591e-07
-5.83061423568e-07
-5.83240347892e-07
-5.83522489184e-07
-5.8388529207e-07
-5.84298879838e-07
-5.84716248042e-07
-5.85117188992e-07
-5.85585218687e-07
-5.85230098932e-07
-5.84828625509e-07
-5.84414101425e-07
-5.84047430602e-07
-5.83763589249e-07
-5.83584372798e-07
-5.83521080731e-07
-5.83577129356e-07
-5.83743793777e-07
-5.84005853564e-07
-5.84340478981e-07
-5.84717704986e-07
-5.85090018877e-07
-5.85438506839e-07
-5.85932104185e-07
-5.85614507766e-07
-5.85251025351e-07
-5.8486906633e-07
-5.84527386102e-07
-5.84260316961e-07
-5.84090394628e-07
-5.84029496913e-07
-5.840815548e-07
-5.84237983118e-07
-5.84483470293e-07
-5.84794958568e-07
-5.85142511453e-07
-5.8547919148e-07
-5.85789690245e-07
-5.86193990479e-07
-5.85897176528e-07
-5.85558321709e-07
-5.8519919411e-07
-5.84874945556e-07
-5.84619415498e-07
-5.8445542978e-07
-5.84395778836e-07
-5.84444847944e-07
-5.84594353806e-07
-5.84828845246e-07
-5.85125128942e-07
-5.85453298464e-07
-5.85767728433e-07
-5.86056944343e-07
-5.86403063081e-07
-5.86116997161e-07
-5.85794777286e-07
-5.85451309007e-07
-5.85139158897e-07
-5.84891471192e-07
-5.8473149954e-07
-5.84672514187e-07
-5.84719374254e-07
-5.84864020404e-07
-5.85091011878e-07
-5.85377131257e-07
-5.85692584643e-07
-5.85993349178e-07
-5.86271726257e-07
-5.86576180839e-07
-5.86292481805e-07
-5.85979994754e-07
-5.85647062982e-07
-5.85343416093e-07
-5.85101319486e-07
-5.84944125269e-07
-5.84885503488e-07
-5.84930760115e-07
-5.8507214378e-07
-5.85294337602e-07
-5.85574262051e-07
-5.85882308148e-07
-5.86176179966e-07
-5.8645199591e-07
-5.86716755679e-07
-5.86429481915e-07
-5.86120586555e-07
-5.85793389898e-07
-5.85494514647e-07
-5.85255714801e-07
-5.85100129365e-07
-5.85041698534e-07
-5.85085913418e-07
-5.85225444599e-07
-5.85445186954e-07
-5.85722379273e-07
-5.86027689197e-07
-5.86320642476e-07
-5.86600934226e-07
-5.86828106101e-07
-5.86530758937e-07
-5.86220245352e-07
-5.85894850409e-07
-5.85598186432e-07
-5.85361237305e-07
-5.8520663296e-07
-5.85148374412e-07
-5.85192026441e-07
-5.85330737314e-07
-5.85549810919e-07
-5.85826997714e-07
-5.86133390974e-07
-5.86430433428e-07
-5.86721241141e-07
-5.86913389726e-07
-5.86601851629e-07
-5.86285815103e-07
-5.85959207954e-07
-5.85662806934e-07
-5.85426614831e-07
-5.85272704189e-07
-5.85214662846e-07
-5.85258065831e-07
-5.85396536022e-07
-5.85616012909e-07
-5.85895022252e-07
-5.86205317386e-07
-5.8651043647e-07
-5.86816336802e-07
-5.86977241209e-07
-5.8664769807e-07
-5.86322953238e-07
-5.85993193827e-07
-5.85696111313e-07
-5.85460701759e-07
-5.85307715277e-07
-5.85250229483e-07
-5.8529347309e-07
-5.85431734923e-07
-5.85651801757e-07
-5.85933376165e-07
-5.86249274691e-07
-5.86565248693e-07
-5.86889917589e-07
-5.870232822e-07
-5.86673316636e-07
-5.86337680987e-07
-5.86003602692e-07
-5.85706063759e-07
-5.8547182711e-07
-5.85320705033e-07
-5.85264089489e-07
-5.85307168586e-07
-5.85444550742e-07
-5.85664563501e-07
-5.85948442965e-07
-5.86270735637e-07
-5.8659973326e-07
-5.86945885636e-07
-5.87064396953e-07
-5.86688995862e-07
-5.86338338476e-07
-5.85998225808e-07
-5.8569968865e-07
-5.854680595e-07
-5.85319020033e-07
-5.85264159496e-07
-5.85306470896e-07
-5.85442521376e-07
-5.85661532332e-07
-5.85947513843e-07
-5.86277651698e-07
-5.86623173923e-07
-5.86995593368e-07
-5.87108945193e-07
-5.86698187987e-07
-5.86329995061e-07
-5.85982675701e-07
-5.85684857782e-07
-5.8545596901e-07
-5.85311157647e-07
-5.85257638862e-07
-5.85299516275e-07
-5.8543282651e-07
-5.85649589707e-07
-5.85936442202e-07
-5.86274940928e-07
-5.86639181565e-07
-5.87046804607e-07
-5.86960730101e-07
-5.86576687905e-07
-5.86227066831e-07
-5.85907131075e-07
-5.85638455286e-07
-5.85434893929e-07
-5.85306223814e-07
-5.85259323939e-07
-5.8529601487e-07
-5.8541417955e-07
-5.85607319804e-07
-5.85865889905e-07
-5.86177760549e-07
-5.86523538535e-07
-5.86904059533e-07
1.21519357731e-06
1.21491088452e-06
1.21463300303e-06
1.21436944378e-06
1.2141440782e-06
1.2139763544e-06
1.21388223239e-06
1.213867787e-06
1.21393471301e-06
1.21407792531e-06
1.2142886211e-06
1.21455245308e-06
1.21485076191e-06
1.21515009383e-06
1.2154438568e-06
1.21506703006e-06
1.21479450551e-06
1.21451960792e-06
1.214256233e-06
1.21402978601e-06
1.21386071283e-06
1.21376511659e-06
1.21374978413e-06
1.21381692673e-06
1.21396114299e-06
1.21417304442e-06
1.21443769187e-06
1.2147353136e-06
1.21503201199e-06
1.21531547016e-06
1.21534458842e-06
1.21510929742e-06
1.21486576009e-06
1.21462533858e-06
1.21441706903e-06
1.2142610897e-06
1.21417279001e-06
1.21415925183e-06
1.21422303389e-06
1.21435875222e-06
1.21455683783e-06
1.21480211303e-06
1.21507464729e-06
1.215339866e-06
1.21558667277e-06
1.21563392236e-06
1.21542533599e-06
1.21520562074e-06
1.21498371076e-06
1.21478986664e-06
1.21464396711e-06
1.21456092964e-06
1.21454831816e-06
1.21460895501e-06
1.2147375296e-06
1.21492428533e-06
1.21515384199e-06
1.21540619605e-06
1.21564685888e-06
1.21586785237e-06
1.21585783084e-06
1.21566530722e-06
1.21546004163e-06
1.21524916446e-06
1.21506367773e-06
1.21492336728e-06
1.21484294635e-06
1.21483019322e-06
1.21488823343e-06
1.21501175255e-06
1.21519088085e-06
1.21541004933e-06
1.21564925018e-06
1.21587460792e-06
1.2160813477e-06
1.21604155377e-06
1.2158569638e-06
1.21566106004e-06
1.2154575421e-06
1.21527744138e-06
1.21514049182e-06
1.2150612081e-06
1.21504777497e-06
1.21510345724e-06
1.21522304246e-06
1.21539653107e-06
1.21560833725e-06
1.21583851585e-06
1.21605409624e-06
1.21625342703e-06
1.21619976368e-06
1.21601915631e-06
1.21582890668e-06
1.21562965146e-06
1.21545262217e-06
1.21531739681e-06
1.2152383316e-06
1.21522386847e-06
1.21527731701e-06
1.21539361755e-06
1.21556273621e-06
1.21576918968e-06
1.21599318622e-06
1.2162028556e-06
1.21639939597e-06
1.21633730342e-06
1.21615676645e-06
1.21596909367e-06
1.2157723504e-06
1.2155971212e-06
1.21546268924e-06
1.2153833266e-06
1.21536762368e-06
1.2154189508e-06
1.21553239518e-06
1.21569802925e-06
1.21590059854e-06
1.21612056553e-06
1.21632731942e-06
1.21652460048e-06
1.2164582509e-06
1.21627587989e-06
1.21608864711e-06
1.21589305789e-06
1.21571864575e-06
1.21558446491e-06
1.21550461812e-06
1.21548762145e-06
1.21553686918e-06
1.21564763475e-06
1.215810232e-06
1.21600979903e-06
1.21622716227e-06
1.21643316423e-06
1.21663339731e-06
1.21656794841e-06
1.2163816402e-06
1.21619354057e-06
1.21599847332e-06
1.21582466576e-06
1.21569086423e-06
1.21561064989e-06
1.21559252117e-06
1.21563963983e-06
1.21574767393e-06
1.21590725883e-06
1.21610413764e-06
1.21631968895e-06
1.21652630901e-06
1.21673090335e-06
1.21666994204e-06
1.21647932776e-06
1.21628963075e-06
1.21609479027e-06
1.21592189749e-06
1.21578888968e-06
1.21570890349e-06
1.21568983932e-06
1.21573482378e-06
1.21583974593e-06
1.2159959186e-06
1.21618989062e-06
1.2164038519e-06
1.21661191428e-06
1.21682131058e-06
1.21676880015e-06
1.2165731204e-06
1.21638095167e-06
1.21618645336e-06
1.21601500055e-06
1.21588399325e-06
1.21580491513e-06
1.21578551158e-06
1.21582806701e-06
1.21592941168e-06
1.21608132059e-06
1.21627172354e-06
1.21648405238e-06
1.21669410407e-06
1.21690882033e-06
1.21687244205e-06
1.21666950859e-06
1.21647263308e-06
1.21627727221e-06
1.21610804339e-06
1.21597932046e-06
1.21590250271e-06
1.21588274698e-06
1.21592328084e-06
1.21602027164e-06
1.21616740726e-06
1.21635402058e-06
1.21656555033e-06
1.21677972397e-06
1.21700152606e-06
1.21699049638e-06
1.21677360276e-06
1.21656813287e-06
1.21637092799e-06
1.21620312219e-06
1.21607831358e-06
1.2160035182e-06
1.21598471252e-06
1.21602261572e-06
1.21611542289e-06
1.21625733641e-06
1.21644022708e-06
1.21665247544e-06
1.21687389543e-06
1.21710866613e-06
1.21700412111e-06
1.21679792448e-06
1.21660495923e-06
1.21642699724e-06
1.21628046554e-06
1.21617245151e-06
1.2161091972e-06
1.21609359436e-06
1.21612704414e-06
1.21620741612e-06
1.21633085445e-06
1.21649171081e-06
1.21668294859e-06
1.21689056254e-06
1.21711227685e-06
-4.14892498957e-07
-4.14653049223e-07
-4.1439848384e-07
-4.14153282631e-07
-4.13945911875e-07
-4.13792819587e-07
-4.13703254775e-07
-4.1367900281e-07
-4.13718348409e-07
-4.13815283897e-07
-4.13962265516e-07
-4.14148602653e-07
-4.1436109677e-07
-4.14577223093e-07
-4.14793173782e-07
-4.14781561675e-07
-4.14548707281e-07
-4.1429770619e-07
-4.14053550676e-07
-4.13846020705e-07
-4.13692221185e-07
-4.13601481935e-07
-4.13576302328e-07
-4.13615329985e-07
-4.13712558418e-07
-4.13860034696e-07
-4.14046699097e-07
-4.14258580133e-07
-4.14472965216e-07
-4.14681900912e-07
-4.14948348626e-07
-4.14740797616e-07
-4.14515311763e-07
-4.14291492055e-07
-4.14099357616e-07
-4.13955375427e-07
-4.13869446438e-07
-4.13844809872e-07
-4.13880734259e-07
-4.13971310081e-07
-4.14108494755e-07
-4.14281062609e-07
-4.14474934465e-07
-4.14667079162e-07
-4.14850218271e-07
-4.15123557034e-07
-4.14936035718e-07
-4.14730876293e-07
-4.14523899404e-07
-4.14344071606e-07
-4.14207782381e-07
-4.14125365335e-07
-4.14100736558e-07
-4.14133704089e-07
-4.1421859167e-07
-4.14347263722e-07
-4.14508374913e-07
-4.14687758269e-07
-4.14862619e-07
-4.15027451967e-07
-4.15252207751e-07
-4.15076341354e-07
-4.14885062996e-07
-4.14690617075e-07
-4.14519750214e-07
-4.14388667765e-07
-4.14308048064e-07
-4.1428269841e-07
-4.143130188e-07
-4.1439363292e-07
-4.14516372519e-07
-4.1466977948e-07
-4.14839639808e-07
-4.15003777311e-07
-4.15158380102e-07
-4.15353478862e-07
-4.15185021472e-07
-4.15004085833e-07
-4.14818573664e-07
-4.14654115785e-07
-4.1452666096e-07
-4.14447180514e-07
-4.14420998051e-07
-4.14449035332e-07
-4.14526208411e-07
-4.14644413098e-07
-4.14792197942e-07
-4.14955369289e-07
-4.15112613425e-07
-4.15261541918e-07
-4.15437884099e-07
-4.15273646408e-07
-4.1510017924e-07
-4.14922037576e-07
-4.147630572e-07
-4.14638735736e-07
-4.14560157038e-07
-4.14533115204e-07
-4.14559037579e-07
-4.1463321411e-07
-4.14747674005e-07
-4.14891115099e-07
-4.15049427251e-07
-4.15202331788e-07
-4.15348611368e-07
-4.15509489492e-07
-4.1534810563e-07
-4.15179767871e-07
-4.15007195587e-07
-4.14852451721e-07
-4.14730718327e-07
-4.14652997092e-07
-4.14625310954e-07
-4.14649422499e-07
-4.14721002316e-07
-4.14832331803e-07
-4.14972364832e-07
-4.15127198882e-07
-4.15277729677e-07
-4.15423553144e-07
-4.15572060187e-07
-4.15411086392e-07
-4.15246106826e-07
-4.15078115e-07
-4.14927277436e-07
-4.14808228383e-07
-4.14731584296e-07
-4.14703541389e-07
-4.14726071666e-07
-4.14795269761e-07
-4.14903792007e-07
-4.15040971553e-07
-4.15193235568e-07
-4.15342808675e-07
-4.1548970218e-07
-4.15628126142e-07
-4.15466920314e-07
-4.15304114015e-07
-4.15139935566e-07
-4.14992742394e-07
-4.14876366159e-07
-4.14801168238e-07
-4.14773070788e-07
-4.1479423619e-07
-4.14861152719e-07
-4.14966948109e-07
-4.15101499087e-07
-4.1525172363e-07
-4.15401273658e-07
-4.15550204711e-07
-4.1568111291e-07
-4.15518403384e-07
-4.15356650733e-07
-4.1519600676e-07
-4.15052510024e-07
-4.14939433591e-07
-4.1486614887e-07
-4.1483845489e-07
-4.14858378454e-07
-4.14922938868e-07
-4.15025806153e-07
-4.15157606085e-07
-4.15305950862e-07
-4.15456055888e-07
-4.15607716364e-07
-4.1573265084e-07
-4.15567619193e-07
-4.15406440018e-07
-4.15249064169e-07
-4.15109954979e-07
-4.15000414891e-07
-4.14929863262e-07
-4.14902817197e-07
-4.14921671393e-07
-4.14983554356e-07
-4.15083068282e-07
-4.15211738771e-07
-4.1535819265e-07
-4.15509292159e-07
-4.15664427534e-07
-4.15788241283e-07
-4.15618694056e-07
-4.15456282263e-07
-4.15301882515e-07
-4.15166315238e-07
-4.15061585685e-07
-4.14993509835e-07
-4.1496790712e-07
-4.14985436542e-07
-4.15044625395e-07
-4.15140537288e-07
-4.15266056327e-07
-4.15411203655e-07
-4.15564705308e-07
-4.15725315197e-07
-4.15848944003e-07
-4.15670219459e-07
-4.15506603086e-07
-4.15354022125e-07
-4.15223756272e-07
-4.15122803065e-07
-4.150588398e-07
-4.15034174034e-07
-4.15050913297e-07
-4.15107063029e-07
-4.15199063975e-07
-4.15321126838e-07
-4.15465142956e-07
-4.15621385814e-07
-4.15791437482e-07
-4.15807711254e-07
-4.15653118437e-07
-4.15508524519e-07
-4.15377453351e-07
-4.15266292369e-07
-4.15181771747e-07
-4.1512767431e-07
-4.15107130636e-07
-4.15120738978e-07
-4.15167471507e-07
-4.15244657905e-07
-4.15348091433e-07
-4.1547214513e-07
-4.15609781372e-07
-4.15756976641e-07
3.74966021665e-07
3.74806713704e-07
3.74659503156e-07
3.74535555204e-07
3.7444125951e-07
3.74377262868e-07
3.7434531013e-07
3.7434756244e-07
3.74385825551e-07
3.74458725187e-07
3.74563210006e-07
3.74693280555e-07
3.74841374382e-07
3.74992351335e-07
3.75145907355e-07
3.7492056521e-07
3.74767632344e-07
3.7462341073e-07
3.74499277612e-07
3.74403647449e-07
3.74338239574e-07
3.74305176913e-07
3.7430688528e-07
3.74345150957e-07
3.7441844894e-07
3.74523361204e-07
3.74653669092e-07
3.74801207974e-07
3.74950645545e-07
3.75098811978e-07
3.75079563663e-07
3.74946331845e-07
3.74819632206e-07
3.74707402178e-07
3.74619956446e-07
3.74559684175e-07
3.74529378395e-07
3.74531552315e-07
3.74567927773e-07
3.74636814006e-07
3.74734649807e-07
3.74855085711e-07
3.7498988988e-07
3.75123269084e-07
3.75252716593e-07
3.75241567927e-07
3.75123825269e-07
3.75010788871e-07
3.74907790089e-07
3.74826070185e-07
3.74769079333e-07
3.74740273766e-07
3.7474231789e-07
3.7477684273e-07
3.74842028956e-07
3.74934124405e-07
3.75046650346e-07
3.7517130248e-07
3.75292156287e-07
3.75408427276e-07
3.75369133268e-07
3.75261577323e-07
3.75157300442e-07
3.75059831456e-07
3.74980774453e-07
3.74924733812e-07
3.74895821282e-07
3.74896977973e-07
3.74929773285e-07
3.74992253506e-07
3.75080475143e-07
3.75187799734e-07
3.7530587377e-07
3.7541880276e-07
3.75527632086e-07
3.75474971889e-07
3.7537355626e-07
3.75275718467e-07
3.75181570309e-07
3.75103603631e-07
3.75047387244e-07
3.75017666201e-07
3.75017603602e-07
3.75048749752e-07
3.75109049029e-07
3.7519438593e-07
3.75298024355e-07
3.75411576917e-07
3.75519340849e-07
3.75624024181e-07
3.75566491126e-07
3.7546946325e-07
3.75376027943e-07
3.75283870039e-07
3.75206174825e-07
3.7514921485e-07
3.75118278343e-07
3.7511676869e-07
3.75146252724e-07
3.75204623043e-07
3.75287640498e-07
3.75388535651e-07
3.75498898296e-07
3.75603277693e-07
3.75706053847e-07
3.75646337314e-07
3.75552073298e-07
3.75461580463e-07
3.75370639809e-07
3.75292738154e-07
3.75234813863e-07
3.75202570575e-07
3.75199593957e-07
3.75227471969e-07
3.75284082915e-07
3.75365151287e-07
3.75463928948e-07
3.75572029956e-07
3.75674392746e-07
3.75776675428e-07
3.7571707926e-07
3.75624563705e-07
3.75535922585e-07
3.75445761401e-07
3.75367601179e-07
3.75308863459e-07
3.7527544238e-07
3.75271106416e-07
3.75297413051e-07
3.7535232624e-07
3.75431598083e-07
3.75528591824e-07
3.7563499238e-07
3.75736195793e-07
3.75838882166e-07
3.75781639604e-07
3.7569006855e-07
3.75602755265e-07
3.75513237142e-07
3.75435014225e-07
3.75375730155e-07
3.7534147095e-07
3.75335952901e-07
3.75360760788e-07
3.7541394788e-07
3.75491387847e-07
3.75586667722e-07
3.7569160894e-07
3.75792172102e-07
3.75895480119e-07
3.75842528518e-07
3.75751764016e-07
3.75665200384e-07
3.75576329753e-07
3.75498365382e-07
3.75439151334e-07
3.75404503195e-07
3.75398144679e-07
3.7542151471e-07
3.75472855501e-07
3.75548281137e-07
3.75641719225e-07
3.75745242036e-07
3.75845412941e-07
3.75949264044e-07
3.75902512228e-07
3.75812117331e-07
3.75725834366e-07
3.7563760805e-07
3.75560491301e-07
3.75501864057e-07
3.75467537713e-07
3.75460642973e-07
3.75482669106e-07
3.75531977265e-07
3.75605023443e-07
3.75696345213e-07
3.75798431489e-07
3.75898402522e-07
3.76002510883e-07
3.75966060424e-07
3.75874927332e-07
3.75787481833e-07
3.75699397973e-07
3.756230987e-07
3.75565920311e-07
3.75532201557e-07
3.7552529042e-07
3.75546011295e-07
3.75593114295e-07
3.75663648253e-07
3.75752856395e-07
3.75854053662e-07
3.75954903276e-07
3.76059771301e-07
3.76039675436e-07
3.75944740316e-07
3.75853260657e-07
3.75763813052e-07
3.75688388476e-07
3.75632338911e-07
3.75599933315e-07
3.75593080517e-07
3.75612784114e-07
3.75657923896e-07
3.75726156024e-07
3.7581382862e-07
3.75915625379e-07
3.76020069489e-07
3.76128133255e-07
3.76078689041e-07
3.7598305625e-07
3.75893919099e-07
3.75811675001e-07
3.75744834949e-07
3.75696364582e-07
3.75668713708e-07
3.75663620026e-07
3.75681489166e-07
3.7572151643e-07
3.75782068916e-07
3.75860724622e-07
3.75954580495e-07
3.76055714041e-07
3.76163169332e-07
-5.28380448313e-07
-5.28229929528e-07
-5.28093761117e-07
-5.27984463171e-07
-5.2790569539e-07
-5.27856564616e-07
-5.27835219312e-07
-5.27840646826e-07
-5.27872143759e-07
-5.27927849137e-07
-5.28004868235e-07
-5.28099023962e-07
-5.28204128536e-07
-5.28310523754e-07
-5.28415623131e-07
-5.28306960131e-07
-5.28159745374e-07
-5.2802563432e-07
-5.27916178041e-07
-5.2783639156e-07
-5.27786025324e-07
-5.27763620409e-07
-5.27768426468e-07
-5.27799860308e-07
-5.27855879853e-07
-5.27933462783e-07
-5.28028094033e-07