/*--------------------------------*- C++ -*----------------------------------*\
  =========                 |
  \\      /  F ield         | OpenFOAM: The Open Source CFD Toolbox
   \\    /   O peration     | Website:  https://openfoam.org
    \\  /    A nd           | Version:  7
     \\/     M anipulation  |
\*---------------------------------------------------------------------------*/
FoamFile
{
    version     2.0;
    format      ascii;
    class       volVectorField;
    location    "1.54";
    object      U;
}
// * * * * * * * * * * * * * * * * * * * * * * * * * * * * * * * * * * * * * //

dimensions      [0 1 -1 0 0 0 0];

internalField   nonuniform List<vector> 
22500
(
(-1.74743346146e-05 -2.02348632608e-05 7.35393134911e-05)
(-1.57199634881e-05 -2.33834492515e-05 7.92133078779e-05)
(-1.35508881558e-05 -2.62249026987e-05 8.59160314146e-05)
(-1.11901255516e-05 -2.85776979195e-05 9.26648703338e-05)
(-8.60494146578e-06 -3.04476998845e-05 9.86853748251e-05)
(-5.87733087434e-06 -3.18028025013e-05 0.000103384046129)
(-3.04608491203e-06 -3.26290129234e-05 0.000106339305552)
(-1.59618451229e-07 -3.29169912352e-05 0.000107321952901)
(2.73095194319e-06 -3.26611022708e-05 0.000106261923059)
(5.57453988555e-06 -3.18650352456e-05 0.000103227263899)
(8.32256194716e-06 -3.05361834887e-05 9.84496656576e-05)
(1.09350881066e-05 -2.86866703632e-05 9.23505897066e-05)
(1.33293458657e-05 -2.63471646575e-05 8.55222775688e-05)
(1.55317269585e-05 -2.35131063723e-05 7.8735971813e-05)
(1.73315608089e-05 -2.0357834093e-05 7.29779346185e-05)
(-5.36169287219e-05 -6.14663991139e-05 7.14071115148e-05)
(-4.83272832593e-05 -7.08191866976e-05 7.3043484325e-05)
(-4.1768504653e-05 -7.93554162923e-05 7.84444912905e-05)
(-3.44927996561e-05 -8.64763649941e-05 8.55375666843e-05)
(-2.65304405167e-05 -9.21442148743e-05 9.26419611722e-05)
(-1.81057329011e-05 -9.62564829087e-05 9.85039231697e-05)
(-9.35931229017e-06 -9.87635913701e-05 0.000102250003837)
(-4.43683898329e-07 -9.96340325223e-05 0.00010345868701)
(8.48290232324e-06 -9.88522703073e-05 0.000102014871159)
(1.72624539031e-05 -9.64287298249e-05 9.80264342258e-05)
(2.57422887439e-05 -9.23899707636e-05 9.19241199162e-05)
(3.37790248822e-05 -8.67805298131e-05 8.45806685015e-05)
(4.11457675138e-05 -7.96987813941e-05 7.72462803576e-05)
(4.78005450047e-05 -7.11847094382e-05 7.15922358002e-05)
(5.32151222759e-05 -6.18192057001e-05 6.96999640393e-05)
(-9.00863081702e-05 -0.000102331386738 -7.79211823487e-05)
(-8.12502146197e-05 -0.000117614509859 -9.41239389816e-05)
(-7.03823010908e-05 -0.000131581531562 -0.000103315833152)
(-5.81750012726e-05 -0.000143311527802 -0.000107873406064)
(-4.47811799899e-05 -0.000152679370541 -0.000109749943391)
(-3.05537211584e-05 -0.000159497635682 -0.000110321911077)
(-1.57508490134e-05 -0.000163662804057 -0.000110459290068)
(-6.46322865685e-07 -0.000165104106385 -0.000110594917181)
(1.44729934003e-05 -0.00016379094564 -0.000110827828275)
(2.93207068757e-05 -0.000159747634969 -0.000111066462856)
(4.36226719898e-05 -0.000153037706283 -0.000110873104296)
(5.71173505846e-05 -0.000143757973653 -0.000109376842394)
(6.94490741924e-05 -0.000132089731391 -0.000105207080979)
(8.04537106289e-05 -0.000118161001595 -9.6427782993e-05)
(8.94673356694e-05 -0.000102869492893 -8.06533606503e-05)
(-0.000124994897782 -0.000140975475888 -0.00034956158341)
(-0.000112751403605 -0.000161429183347 -0.000391654723217)
(-9.77870565174e-05 -0.00018006051371 -0.00042285664039)
(-8.08566264477e-05 -0.000195769430131 -0.000445554892992)
(-6.22610109639e-05 -0.000208341116379 -0.000461715876326)
(-4.24608256823e-05 -0.000217510695805 -0.000472637506378)
(-2.18305489972e-05 -0.000223117059792 -0.000479062654373)
(-7.66854688881e-07 -0.000225050422854 -0.000481335598696)
(2.03128105047e-05 -0.000223266697288 -0.000479520041875)
(4.09916695786e-05 -0.000217803698903 -0.000473564858159)
(6.08729495424e-05 -0.000208763306833 -0.000463123164263)
(7.95794423696e-05 -0.000196299214905 -0.000447451590571)
(9.66483950542e-05 -0.00018066901173 -0.000425260551735)
(0.000111769982672 -0.000162090509731 -0.000394609388327)
(0.000124216899297 -0.000141638700857 -0.000353109420138)
(-0.000156814977264 -0.000175907427214 -0.000704067005719)
(-0.000141412689579 -0.000200468945932 -0.000773072651519)
(-0.000122673997296 -0.000222709004918 -0.000826747741433)
(-0.000101412562855 -0.00024149751791 -0.000867708550913)
(-7.80763103305e-05 -0.000256549748748 -0.000898057187494)
(-5.32099294284e-05 -0.000267544828667 -0.000919133717472)
(-2.72887271422e-05 -0.000274271187332 -0.000931669033122)
(-8.17845169127e-07 -0.000276583926592 -0.000935993526635)
(2.56683447246e-05 -0.000274427392431 -0.000932172181498)
(5.16363803136e-05 -0.000267851841082 -0.000920160018411)
(7.65813972648e-05 -0.000256994408354 -0.000899625270364)
(0.000100026342002 -0.000242059413256 -0.000869838422454)
(0.000121425345504 -0.000223360409382 -0.000829470351146)
(0.000140324815386 -0.000201184889846 -0.000776453244335)
(0.000155934956934 -0.000176639261561 -0.000708183145943)
(-0.000184622046481 -0.00020627259011 -0.00109965443276)
(-0.000166373157902 -0.000233765647869 -0.00119117512191)
(-0.000144256659331 -0.000258489752183 -0.0012628031039)
(-0.000119175350002 -0.000279393510219 -0.00131784577151)
(-9.1703591748e-05 -0.000296151568152 -0.00135881630377)
(-6.24455073647e-05 -0.000308408761187 -0.00138731807157)
(-3.19548166056e-05 -0.000315911496492 -0.00140424356475)
(-8.22316680288e-07 -0.000318485133042 -0.00141002165773)
(3.03240472872e-05 -0.000316064305939 -0.00140476243911)
(6.0857297777e-05 -0.000308710103448 -0.00138838237424)
(9.0187200809e-05 -0.000296590087376 -0.00136045239137)
(0.000117759228514 -0.000279951237389 -0.00132008363113)
(0.000142968868644 -0.000259141964495 -0.00126568598827)
(0.000165239279328 -0.000234489962229 -0.00119478869143)
(0.000183686910344 -0.000207027183825 -0.00110411279817)
(-0.000207969162452 -0.000231681824279 -0.00150149146036)
(-0.000187217494287 -0.000260937101264 -0.0016085988247)
(-0.000162164255162 -0.000287075845487 -0.00169173674802)
(-0.000133838894519 -0.000309176673909 -0.00175529825112)
(-0.000102909383873 -0.000326906179456 -0.00180239778621)
(-7.00145967469e-05 -0.000339892131816 -0.00183502646625)
(-3.57620988919e-05 -0.000347846757584 -0.00185432456918)
(-8.02798177706e-07 -0.00035057071457 -0.00186087254968)
(3.41688280817e-05 -0.000347990775487 -0.00185484423293)
(6.8459235434e-05 -0.000340176932722 -0.0018360964067)
(0.000101418185131 -0.000327322270749 -0.00180404973867)
(0.000132437899075 -0.000309708778835 -0.00175756920162)
(0.000160879435684 -0.000287702832572 -0.00169467849207)
(0.000186075106151 -0.000261639820888 -0.00161231305978)
(0.000207010563881 -0.000232427304852 -0.00150612431823)
(-0.000226765114935 -0.000252074605747 -0.00188588756845)
(-0.000203863972812 -0.000281991417717 -0.00200166658738)
(-0.000176336216657 -0.000308578256067 -0.00209037014878)
(-0.000145365519345 -0.000331047509142 -0.00215763071404)
(-0.000111674123775 -0.000349088708843 -0.00220716299826)
(-7.59118462773e-05 -0.000362324527064 -0.00224131146995)
(-3.87169154143e-05 -0.00037043982754 -0.00226143174519)
(-7.76261730005e-07 -0.000373215762243 -0.0022682345096)
(3.71754295644e-05 -0.000370573107698 -0.00226194854034)
(7.4404336448e-05 -0.000362588659651 -0.00224237748375)
(0.000110224158022 -0.000349475837361 -0.00220881264653)
(0.000143996715276 -0.00033154473969 -0.00215990427917)
(0.000175072135807 -0.000309167860109 -0.00209332325979)
(0.00020273046216 -0.000282657192064 -0.00200541178482)
(0.000225799807446 -0.000252792583851 -0.00189059506747)
(-0.000241145953196 -0.000267594245526 -0.00223999358306)
(-0.000216445124131 -0.000297159163489 -0.00235897492577)
(-0.000186909791113 -0.00032332997579 -0.00244895787797)
(-0.000153886217822 -0.000345431190635 -0.00251671758924)
(-0.000118110416879 -0.000363200419242 -0.00256639571206)
(-8.02211779826e-05 -0.000376261930734 -0.00260053803163)
(-4.08678739121e-05 -0.000384279443648 -0.0026206082969)
(-7.52961966625e-07 -0.000387020500307 -0.00262738377731)
(3.93720312086e-05 -0.000384401994955 -0.00262112495232)
(7.87563672682e-05 -0.0003765051754 -0.00260160411002)
(0.000116698129916 -0.000363557819107 -0.00256804622025)
(0.000152547987194 -0.000345891784817 -0.00251899301097)
(0.000185666906926 -0.000323878912809 -0.00245191362932)
(0.000215322523812 -0.000297782889259 -0.00236273029837)
(0.000240178396563 -0.000268276307815 -0.00224473441395)
(-0.00025136064285 -0.000278482175773 -0.00255908194362)
(-0.00022520034337 -0.000306762852282 -0.00267761466146)
(-0.000194121591221 -0.000331733610354 -0.00276638588519)
(-0.000159615399459 -0.000352809749048 -0.00283303609015)
(-0.000122393907127 -0.000369789125516 -0.00288185817052)
(-8.30670755299e-05 -0.00038229835267 -0.00291540122031)
(-4.22812401709e-05 -0.00038998652618 -0.002935112883)
(-7.37831510824e-07 -0.0003926147901 -0.00294176802182)
(4.08149892031e-05 -0.000390099198612 -0.00293563458558)
(8.16297708994e-05 -0.000382522248618 -0.00291647706953)
(0.000121005533996 -0.000370118692221 -0.00288352265248)
(0.000158295914952 -0.000353235644701 -0.00283532795826)
(0.000192890413503 -0.000332243313827 -0.00276935763528)
(0.000224081403208 -0.000307345185767 -0.00268139026833)
(0.0002503867539 -0.000279126283503 -0.00256385644009)
(-0.000257693534506 -0.000285011766892 -0.0028432878384)
(-0.000230405610674 -0.000311136801463 -0.00295927550645)
(-0.000198244622067 -0.000334182380332 -0.00304577155884)
(-0.000162796291379 -0.000353646031464 -0.00311087900488)
(-0.000124718442349 -0.000369374155198 -0.00315872785817)
(-8.45831412446e-05 -0.000380990436469 -0.00319168536568)
(-4.30254346149e-05 -0.000388137997827 -0.00321108214108)
(-7.32272856054e-07 -0.000390581994403 -0.0032176391061)
(4.1569814422e-05 -0.000388241628691 -0.00321161409831)
(8.31549965133e-05 -0.00038119654491 -0.00319278137796)
(0.000123336661595 -0.000369678050135 -0.00316042174538)
(0.000161479626207 -0.000354039746909 -0.00311320704782)
(0.000197011081295 -0.000334655467362 -0.00304878174558)
(0.000229278115133 -0.000311680393951 -0.00296309606904)
(0.00025670405224 -0.000285618661533 -0.00284812085823)
(-0.000260412904171 -0.000287436600374 -0.00309484319742)
(-0.000232336742284 -0.000310577139675 -0.00320728688349)
(-0.000199558922401 -0.000331035095075 -0.00329142838081)
(-0.000163672958056 -0.00034837422411 -0.00335529244904)
(-0.000125271367819 -0.00036244297115 -0.00340254584243)
(-8.48943112e-05 -0.000372855493294 -0.00343524216857)
(-4.31625712123e-05 -0.000379265893575 -0.0034545368433)
(-7.35756275909e-07 -0.000381458274685 -0.00346107075567)
(4.16996214383e-05 -0.00037936099774 -0.0034550829443)
(8.34576953004e-05 -0.000373044809484 -0.00343636656642)
(0.000123879173607 -0.000362722535004 -0.00340428241439)
(0.000162343044379 -0.0003487374503 -0.0033576754331)
(0.000198308238509 -0.000331473484593 -0.00329450019021)
(0.000231187298916 -0.000311084158969 -0.00321117896232)
(0.000259396293011 -0.000288007013019 -0.00309976750394)
(-0.000259753540202 -0.00028589491587 -0.00331607298775)
(-0.000231291424478 -0.000305319414637 -0.00342479102769)
(-0.000198356527045 -0.000322644290299 -0.00350719502655)
(-0.00016247720938 -0.000337442387163 -0.0035705199973)
(-0.000124216774946 -0.000349492994388 -0.0036177713454)
(-8.41049245369e-05 -0.000358412729779 -0.00365064046584)
(-4.27430452053e-05 -0.000363898386647 -0.00367009529452)
(-7.46859648854e-07 -0.000365774674547 -0.00367669435129)
(4.12575706133e-05 -0.000363985082148 -0.00367065724873)
(8.26448839792e-05 -0.000358585381548 -0.00365179747324)
(0.000122799535692 -0.000349748450914 -0.00361955892252)
(0.000161119856514 -0.000337775355526 -0.0035729723487)
(0.000197075302953 -0.000323048219744 -0.00351034849292)
(0.000230107602178 -0.000305790446983 -0.00342877412693)
(0.000258699127825 -0.000286427603435 -0.00332110702259)
(-0.000256130817625 -0.000280521836233 -0.00350795683518)
(-0.000227730704287 -0.000295689835578 -0.00361392933353)
(-0.000194952263737 -0.000309466212755 -0.00369576729385)
(-0.000159404449348 -0.000321379991082 -0.00375942313028)
(-0.000121677401222 -0.000331064665352 -0.00380730730695)
(-8.2290234401e-05 -0.000338202015533 -0.00384078167395)
(-4.18031311397e-05 -0.000342576245031 -0.00386064605429)
(-7.63865022574e-07 -0.000344072189285 -0.00386739088284)
(4.02834199276e-05 -0.000342654313346 -0.0038612225101)
(8.0795055254e-05 -0.000338357618192 -0.00384196962228)
(0.000120223518388 -0.000331295305661 -0.00380914612477)
(0.000158008398746 -0.000321681652646 -0.00376195157307)
(0.000193629504994 -0.000309834560156 -0.00369901840705)
(0.000226502026303 -0.000296123699807 -0.00361801734998)
(0.000255026608084 -0.000281016481624 -0.00351308570776)
(-0.000250647404265 -0.000272926426555 -0.00366839159462)
(-0.000222401478322 -0.000282134467008 -0.00377556781687)
(-0.00018970049974 -0.000292156215913 -0.00385817744739)
(-0.000154727580532 -0.000300736738488 -0.00392310937594)
(-0.000117873377038 -0.000307626507002 -0.00397232808335)
(-7.9613641315e-05 -0.000312652475777 -0.00400688524203)
(-4.04299491905e-05 -0.000315714941224 -0.00402742815281)
(-7.85167227278e-07 -0.000316763316346 -0.00403440155035)
(3.88673638922e-05 -0.00031578363387 -0.00402801285127)
(7.8074824422e-05 -0.000312789669274 -0.0040080924153)
(0.000116374454911 -0.000307830250005 -0.00397420226758)
(0.000153284447927 -0.000301004293075 -0.00392570001482)
(0.000188328233687 -0.000292484448874 -0.00386152295473)
(0.000221122915813 -0.000282526523915 -0.00377980752228)
(0.000249480882352 -0.00027337673618 -0.00367349109805)
(6.55725913368e-07 1.15140160118e-06 -4.55223059838e-05)
(2.88137694032e-07 1.59105496934e-06 -4.68774014638e-05)
(-2.61960078868e-09 1.86737060101e-06 -4.75034090449e-05)
(-1.70425640712e-07 2.01155317844e-06 -4.76979581763e-05)
(-2.38246403459e-07 2.07396600717e-06 -4.76645650104e-05)
(-2.0726146387e-07 2.08882093883e-06 -4.75434701123e-05)
(-1.04680697499e-07 2.08636411042e-06 -4.74260632557e-05)
(3.64677165843e-08 2.08629181174e-06 -4.73821209972e-05)
(1.76287261679e-07 2.09484001233e-06 -4.74313072587e-05)
(2.75183641874e-07 2.10527886247e-06 -4.7552749203e-05)
(3.00923193308e-07 2.09752002837e-06 -4.76790806109e-05)
(2.27238527286e-07 2.04092942164e-06 -4.77195826547e-05)
(5.32630673092e-08 1.90096317931e-06 -4.75357316966e-05)
(-2.43445893397e-07 1.62715918543e-06 -4.69282122685e-05)
(-6.2113925229e-07 1.18509663048e-06 -4.56102651674e-05)
(5.29035836893e-06 6.88043154382e-06 -0.000158431946772)
(4.2274465136e-06 8.66188783919e-06 -0.000164707702744)
(3.17745573572e-06 1.00717663812e-05 -0.000168732762893)
(2.30467996382e-06 1.11076968577e-05 -0.000171242350338)
(1.57157933637e-06 1.18442084312e-05 -0.000172747791968)
(9.8574633825e-07 1.23266541289e-05 -0.000173592868784)
(5.06644101405e-07 1.25992261538e-05 -0.000173979378593)
(8.43926163694e-08 1.26933501617e-05 -0.000174096557377)
(-3.40550059025e-07 1.26193081715e-05 -0.000173996669837)
(-8.26976013694e-07 1.23663308167e-05 -0.000173622481426)
(-1.42272281669e-06 1.19028505399e-05 -0.000172794080439)
(-2.16567813e-06 1.11838435688e-05 -0.000171310939894)
(-3.04731824282e-06 1.01620641732e-05 -0.000168834285786)
(-4.10582422792e-06 8.76172729294e-06 -0.000164864904217)
(-5.18807551737e-06 6.9772501664e-06 -0.000158690865159)
(1.21852423702e-05 1.49578223859e-05 -0.000291184918705)
(1.04177068034e-05 1.8230236596e-05 -0.00030423695268)
(8.47921591058e-06 2.09929613281e-05 -0.00031342058038)
(6.6502713515e-06 2.31627767893e-05 -0.000319802771204)
(4.89747840284e-06 2.48043630015e-05 -0.000324127132959)
(3.24810090735e-06 2.59456405729e-05 -0.000326893018512)
(1.67395318186e-06 2.66216329233e-05 -0.000328421393658)
(1.39072680067e-07 2.68548644429e-05 -0.000328920929038)
(-1.39937766924e-06 2.66522264698e-05 -0.000328449357566)
(-2.98372299747e-06 2.60062540475e-05 -0.000326947155875)
(-4.64800613883e-06 2.48935807318e-05 -0.000324211607744)
(-6.41764616442e-06 2.32774359442e-05 -0.000319926135684)
(-8.26428284857e-06 2.11271462423e-05 -0.000313599116226)
(-1.02215468373e-05 1.83759862572e-05 -0.000304504939203)
(-1.20221209254e-05 1.50981733012e-05 -0.000291609649922)
(1.98711055628e-05 2.37440534412e-05 -0.000441478187556)
(1.73578347166e-05 2.82993009864e-05 -0.000462760039695)
(1.44642208553e-05 3.22499967144e-05 -0.000478474274579)
(1.15758455056e-05 3.54193666312e-05 -0.000489944279194)
(8.67763326843e-06 3.78627006998e-05 -0.000498084266642)
(5.81942664387e-06 3.95894088628e-05 -0.000503509366448)
(2.99261366258e-06 4.06231072678e-05 -0.000506619004888)
(1.82260128013e-07 4.09786505782e-05 -0.000507648279442)
(-2.63191464926e-06 4.06604088479e-05 -0.000506660076663)
(-5.46986284323e-06 3.96635090004e-05 -0.000503590991891)
(-8.34500346928e-06 3.79720440918e-05 -0.000498210941827)
(-1.12634946804e-05 3.55600323204e-05 -0.000490126562445)
(-1.41745515928e-05 3.24146341555e-05 -0.000478732240381)
(-1.7093355026e-05 2.84779126338e-05 -0.00046313549728)
(-1.96488430611e-05 2.39165347498e-05 -0.000442052461016)
(2.70575872139e-05 3.18058531791e-05 -0.00060656410661)
(2.37704495668e-05 3.72028705211e-05 -0.000637089188814)
(1.99462474109e-05 4.19233293642e-05 -0.000660281135921)
(1.60463394022e-05 4.57184406104e-05 -0.000677678164909)
(1.20813890251e-05 4.86511064215e-05 -0.000690321391173)
(8.11922366282e-06 5.07280105805e-05 -0.000698913388636)
(4.16517311886e-06 5.19729437484e-05 -0.000703909766863)
(2.16203229109e-07 5.24000336257e-05 -0.000705571005812)
(-3.73632164278e-06 5.20137238984e-05 -0.000703966669268)
(-7.70091760506e-06 5.08092563459e-05 -0.000699026785151)
(-1.1679677743e-05 4.87713421312e-05 -0.000690495707757)
(-1.56655006608e-05 4.58737373729e-05 -0.00067792458115)
(-1.95900937977e-05 4.21059015043e-05 -0.000660621062257)
(-2.34431087835e-05 3.74021278251e-05 -0.000637568336107)
(-2.67779366472e-05 3.20000073187e-05 -0.00060727270549)
(3.29973678695e-05 3.83260052107e-05 -0.000783709485693)
(2.89484524955e-05 4.40692064678e-05 -0.000824125023341)
(2.42960358812e-05 4.90777361131e-05 -0.000855400024421)
(1.95346884576e-05 5.30741662886e-05 -0.000879270559758)
(1.47009476602e-05 5.61445320439e-05 -0.000896872015525)
(9.87071678621e-06 5.83094788242e-05 -0.000908970691258)
(5.05270419673e-06 5.96035369691e-05 -0.000916061664562)
(2.42815778697e-07 6.00466747932e-05 -0.000918425341223)
(-4.57010619336e-06 5.96456337298e-05 -0.000916137787365)
(-9.39736293288e-06 5.83935272828e-05 -0.000909121917722)
(-1.42426676259e-05 5.62692577492e-05 -0.000897101788684)
(-1.90962997831e-05 5.3235950534e-05 -0.000879588877967)
(-2.38824440619e-05 4.9269027347e-05 -0.000855826889212)
(-2.85651786197e-05 4.42797098414e-05 -0.000824707016176)
(-3.26644606997e-05 3.85332455281e-05 -0.000784542910586)
(3.73551019068e-05 4.2957049754e-05 -0.000970536023794)
(3.26103812023e-05 4.86091406505e-05 -0.00102123506607)
(2.72918244082e-05 5.34802311329e-05 -0.00106097108044)
(2.18778300191e-05 5.73158335933e-05 -0.00109167546404)
(1.64252157396e-05 6.02311961817e-05 -0.00111454896519)
(1.10065094303e-05 6.22705603174e-05 -0.00113039643188)
(5.62405241892e-06 6.34834816841e-05 -0.0011397342816)
(2.62917593037e-07 6.3898484834e-05 -0.00114285320702)
(-5.10059836778e-06 6.35252544791e-05 -0.00113983352157)
(-1.04906032771e-05 6.2354149875e-05 -0.00113059297507)
(-1.59222650832e-05 6.03556778479e-05 -0.00111484414624)
(-2.13929728807e-05 5.74780130254e-05 -0.00109207615679)
(-2.68308413562e-05 5.36732139034e-05 -0.00106149320564)
(-3.2179852123e-05 4.88232051088e-05 -0.00102192388922)
(-3.69751420862e-05 4.31702160781e-05 -0.000971491406678)
(4.00893505515e-05 4.56854608142e-05 -0.00116509433412)
(3.47656518814e-05 5.0919701306e-05 -0.00122628364256)
(2.89767363681e-05 5.53388529697e-05 -0.00127469446538)
(2.31382607495e-05 5.87585845074e-05 -0.00131246117571)
(1.73194886115e-05 6.13203503325e-05 -0.0013408219909)
(1.15798460818e-05 6.30934338762e-05 -0.00136059262116)
(5.90910295528e-06 6.41412348077e-05 -0.00137229058084)
(2.76875119498e-07 6.44998087971e-05 -0.00137620492195)
(-5.3570313616e-06 6.41812995707e-05 -0.00137241692238)
(-1.10334625875e-05 6.31738194088e-05 -0.00136084250665)
(-1.67835952773e-05 6.14405216248e-05 -0.00134119366542)
(-2.26180179524e-05 5.8916000612e-05 -0.00131295660763)
(-2.84784367446e-05 5.55275552423e-05 -0.00127532319856)
(-3.42966919042e-05 5.11310463856e-05 -0.00122708879776)
(-3.96694148498e-05 4.58985740963e-05 -0.00116617527662)
(4.1343847518e-05 4.67074489244e-05 -0.00136570435319)
(3.55916494596e-05 5.13156458565e-05 -0.00143740098988)
(2.95352581733e-05 5.50866519244e-05 -0.00149453119086)
(2.34906132497e-05 5.79426927214e-05 -0.00153945287237)
(1.75312071635e-05 6.00426916891e-05 -0.00157341179333)
(1.16972663702e-05 6.14767505063e-05 -0.00159720535637)
(5.96387409723e-06 6.23175475341e-05 -0.00161133133764)
(2.85260502402e-07 6.26056806248e-05 -0.00161606597903)
(-5.39432158481e-06 6.23548025851e-05 -0.00161148851401)
(-1.11314740377e-05 6.15517476293e-05 -0.00159751611392)
(-1.69732342253e-05 6.01553711841e-05 -0.00157387101791)
(-2.29454513967e-05 5.80913106554e-05 -0.00154005621616)
(-2.90093819103e-05 5.5266388906e-05 -0.00149528039153)
(-3.50930548383e-05 5.15190819e-05 -0.00143833678415)
(-4.0891183534e-05 4.69156590475e-05 -0.00136692251784)
(4.13536955085e-05 4.63194010664e-05 -0.00157068267665)
(3.53361716238e-05 5.01936983065e-05 -0.00165265235914)
(2.92011349248e-05 5.32210227677e-05 -0.00171833674465)
(2.31408688132e-05 5.54515707614e-05 -0.00177034516684)
(1.72255786139e-05 5.70517015189e-05 -0.00180988963991)
(1.14741398807e-05 5.81251992284e-05 -0.00183771614277)
(5.84792694189e-06 5.87481749423e-05 -0.00185428332525)
(2.88887165983e-07 5.89623852535e-05 -0.00185984506548)
(-5.27045377329e-06 5.87817695821e-05 -0.00185447587728)
(-1.08985562085e-05 5.81930597669e-05 -0.00183809709535)
(-1.66550720035e-05 5.71542525419e-05 -0.00181045048337)
(-2.25799703642e-05 5.5587906977e-05 -0.00177107433501)
(-2.86562165678e-05 5.33876803711e-05 -0.00171922603467)
(-3.48155004868e-05 5.03848032015e-05 -0.0016537388893)
(-4.08749190668e-05 4.65184809383e-05 -0.00157205872373)
(4.03778886829e-05 4.48388159355e-05 -0.00177803957154)
(3.42518434461e-05 4.79434332205e-05 -0.00186971872758)
(2.82008702859e-05 5.02052554294e-05 -0.00194356408468)
(2.22809613536e-05 5.18089095766e-05 -0.00200242953271)
(1.65521866416e-05 5.29193356046e-05 -0.00204742393465)
(1.10127588762e-05 5.36451338297e-05 -0.00207920340063)
(5.61351186332e-06 5.40600237028e-05 -0.00209816981972)
(2.88744368245e-07 5.42036637681e-05 -0.00210454717539)
(-5.0357464676e-06 5.40892878286e-05 -0.0020984035796)
(-1.04351920822e-05 5.37044762505e-05 -0.00207966605462)
(-1.59770541672e-05 5.30095615327e-05 -0.00204810275297)
(-2.17120872177e-05 5.19300196282e-05 -0.002003304867)
(-2.76441418751e-05 5.03552625164e-05 -0.00194461660366)
(-3.3715581909e-05 4.81182479708e-05 -0.0018709820858)
(-3.98784083726e-05 4.50250472817e-05 -0.00177960193964)
(3.8656970608e-05 4.25582857051e-05 -0.00198515307907)
(3.25619108786e-05 4.489993094e-05 -0.00208561998905)
(2.6728643184e-05 4.64225030366e-05 -0.0021670683371)
(2.10711430739e-05 4.74377358543e-05 -0.00223245566405)
(1.56330889743e-05 4.81002797969e-05 -0.00228267662692)
(1.03951513063e-05 4.85134776805e-05 -0.00231826059876)
(5.30212462329e-06 4.87427672396e-05 -0.00233954116076)
(2.85723966314e-07 4.88234917547e-05 -0.0023467080649)
(-4.7299218221e-06 4.8767157829e-05 -0.00233982168525)
(-9.82172522524e-06 4.85631377598e-05 -0.00231881613522)
(-1.50596604897e-05 4.81764097032e-05 -0.00228349043901)
(-2.05005706027e-05 4.75411822157e-05 -0.00223350003315)
(-2.61660340141e-05 4.65527913237e-05 -0.00216831168869)
(-3.20152126675e-05 4.50550230378e-05 -0.00208709228087)
(-3.8141101681e-05 4.27280340964e-05 -0.0019869386896)
(3.63854108048e-05 3.97119671838e-05 -0.00218835921491)
(3.04463670481e-05 4.13178182965e-05 -0.00229650537126)
(2.4942335206e-05 4.21601667972e-05 -0.00238504352624)
(1.96396811822e-05 4.26538404787e-05 -0.00245661837064)
(1.45640546206e-05 4.29327751918e-05 -0.00251180864891)
(9.68440362273e-06 4.30832604463e-05 -0.00255101228946)
(4.94528396237e-06 4.31580853888e-05 -0.00257449712797)
(2.8061134882e-07 4.31861017517e-05 -0.0025824189226)
(-4.38298423144e-06 4.31773350788e-05 -0.00257482942504)
(-9.11973048558e-06 4.31226625052e-05 -0.0025516710513)
(-1.39972671448e-05 4.29937095959e-05 -0.00251277481094)
(-1.90725703687e-05 4.27379033033e-05 -0.00245785769906)
(-2.43788361372e-05 4.2268450077e-05 -0.0023865111526)
(-2.9893727602e-05 4.145023403e-05 -0.00229822381194)
(-3.5856681406e-05 3.98617577438e-05 -0.00219040799688)
(3.37132630547e-05 3.64627616956e-05 -0.00238233593796)
(2.80652870299e-05 3.74011594614e-05 -0.00249770047691)
(2.29843195352e-05 3.76330026271e-05 -0.00259319138657)
(1.80950076337e-05 3.76929210769e-05 -0.00267067451987)
(1.34217940923e-05 3.76651395693e-05 -0.00273056083988)
(8.92944352618e-06 3.7609457235e-05 -0.00277317763892)
(4.56702443872e-06 3.75637821128e-05 -0.00279874252358)
(2.74076007974e-07 3.75505968526e-05 -0.00280737900284)
(-4.01757031432e-06 3.75780161873e-05 -0.00279912976808)
(-8.37686724877e-06 3.76387780485e-05 -0.00277394720936)
(-1.28653940168e-05 3.77109204834e-05 -0.0027316946843)
(-1.75352051357e-05 3.77572609608e-05 -0.0026721366716)
(-2.24237339454e-05 3.77180444918e-05 -0.00259492507358)
(-2.75101471241e-05 3.75090319792e-05 -0.00249970865745)
(-3.31748264039e-05 3.65893815612e-05 -0.00238467997674)
(3.07489026281e-05 3.32514448989e-05 -0.00255972602126)
(2.56009635486e-05 3.32644377746e-05 -0.00268521095193)
(2.09744119701e-05 3.29967152277e-05 -0.00278732891885)
(1.65171088041e-05 3.27165522366e-05 -0.00287021264897)
(1.22590612572e-05 3.2448298409e-05 -0.0029343963518)
(8.16232222795e-06 3.22317943101e-05 -0.00298015790293)
(4.18292567641e-06 3.20922284218e-05 -0.00300764926408)
(2.66934148313e-07 3.20468240071e-05 -0.00301694986945)
(-3.64764659675e-06 3.21019392802e-05 -0.00300808963839)
(-7.62346456454e-06 3.2251735204e-05 -0.00298103621098)
(-1.17152398241e-05 3.24796483436e-05 -0.00293569993778)
(-1.59675848203e-05 3.27610326586e-05 -0.00287191311086)
(-2.04197736701e-05 3.3057040726e-05 -0.0027893652991)
(-2.50462081243e-05 3.33447020239e-05 -0.00268759060407)
(-3.02015002729e-05 3.33507284762e-05 -0.00256231852595)
(-2.95642516278e-07 -5.58661886556e-07 -0.000117912728233)
(-1.32607714839e-07 -7.60447100937e-07 -0.000122835280347)
(-3.09773485167e-08 -8.78981317312e-07 -0.000126704826114)
(3.36076093478e-08 -9.48729832815e-07 -0.000129745109139)
(6.11084089413e-08 -9.85579633468e-07 -0.000132057128521)
(5.62977534751e-08 -1.00206368996e-06 -0.00013368991613)
(2.84500008267e-08 -1.00815727351e-06 -0.000134667910982)
(-1.12531853049e-08 -1.01006292418e-06 -0.000135001832004)
(-5.0193245921e-08 -1.00970387753e-06 -0.000134681996193)
(-7.57057248711e-08 -1.00478832587e-06 -0.000133718031936)
(-7.68393873675e-08 -9.88818476935e-07 -0.000132099169698)
(-4.51097617294e-08 -9.51632578422e-07 -0.000129801164796)
(2.44166700181e-08 -8.79996229488e-07 -0.000126776110264)
(1.31227059096e-07 -7.58869922677e-07 -0.000122928274245)
(2.98594966464e-07 -5.54067229198e-07 -0.000118051240168)
(-1.12068567573e-06 -1.79803509683e-06 -0.000352782340483)
(-6.80609542609e-07 -2.34913964424e-06 -0.000367189007954)
(-3.67527207538e-07 -2.70883796535e-06 -0.000378473740713)
(-1.49701130311e-07 -2.93754282254e-06 -0.00038726892816)
(-2.35284856214e-08 -3.07156798989e-06 -0.000393907963046)
(2.30668451045e-08 -3.1418950365e-06 -0.000398569247393)
(1.26754118787e-08 -3.17357907539e-06 -0.000401348779382)
(-2.71000638103e-08 -3.18306981582e-06 -0.000402292056474)
(-6.50639929328e-08 -3.17566787497e-06 -0.000401390026493)
(-6.9953583524e-08 -3.14535749319e-06 -0.000398651615472)
(-1.46933497465e-08 -3.07532773574e-06 -0.000394031277169)
(1.21644412345e-07 -2.94003236015e-06 -0.000387433694265)
(3.50780707857e-07 -2.70683709207e-06 -0.000378683914825)
(6.75764314656e-07 -2.34127567704e-06 -0.000367463789493)
(1.12669859475e-06 -1.78323752136e-06 -0.000353177760994)
(-2.1594210641e-06 -3.16025025358e-06 -0.000584680040078)
(-1.48736972014e-06 -4.01789689659e-06 -0.000608208510239)
(-9.6754794251e-07 -4.61629670728e-06 -0.000626573269427)
(-5.77337262632e-07 -5.01797832214e-06 -0.000640807067509)
(-3.11373272437e-07 -5.27000535172e-06 -0.000651492025345)
(-1.53405741085e-07 -5.41492085728e-06 -0.000658959830055)
(-7.36209652205e-08 -5.48705975945e-06 -0.00066339746846)
(-3.46872792313e-08 -5.5091315337e-06 -0.000664898328965)
(6.31959935164e-09 -5.48865447358e-06 -0.000663466547052)
(9.23039524662e-08 -5.41734138336e-06 -0.000659097614685)
(2.6004455394e-07 -5.27207450297e-06 -0.000651697940552)
(5.37812723776e-07 -5.01791796607e-06 -0.000641081451584)
(9.41346226631e-07 -4.61096509856e-06 -0.000626921477965)
(1.47527415949e-06 -4.00619696321e-06 -0.000608658052217)
(2.1614551861e-06 -3.14141922606e-06 -0.000585309897981)
(-3.14416741011e-06 -4.37239693927e-06 -0.000812555658388)
(-2.28447987425e-06 -5.44518985351e-06 -0.000844826740725)
(-1.58386491959e-06 -6.21688944412e-06 -0.000869942340258)
(-1.03481927803e-06 -6.74602474944e-06 -0.00088932564543)
(-6.31905705853e-07 -7.08583692959e-06 -0.000903811642653)
(-3.56427886218e-07 -7.28656501587e-06 -0.000913898026127)
(-1.73769947691e-07 -7.38924590094e-06 -0.000919874428685)
(-3.98895847118e-08 -7.42069770365e-06 -0.000921890652479)
(9.61105770565e-08 -7.38997139056e-06 -0.000919970596134)
(2.85044171801e-07 -7.28737203113e-06 -0.000914089624128)
(5.70455131334e-07 -7.08568702809e-06 -0.000904097497349)
(9.85725621995e-07 -6.74334391237e-06 -0.000889705500827)
(1.54902515731e-06 -6.20898773852e-06 -0.000870421647703)
(2.264681084e-06 -5.43111009469e-06 -0.000845436934192)
(3.14021976283e-06 -4.35142261381e-06 -0.000813388209765)
(-4.02884419123e-06 -5.40567133693e-06 -0.00103635674686)
(-3.02310920648e-06 -6.6149200768e-06 -0.00107708810029)