/*--------------------------------*- C++ -*----------------------------------*\
  =========                 |
  \\      /  F ield         | OpenFOAM: The Open Source CFD Toolbox
   \\    /   O peration     | Website:  https://openfoam.org
    \\  /    A nd           | Version:  7
     \\/     M anipulation  |
\*---------------------------------------------------------------------------*/
FoamFile
{
    version     2.0;
    format      ascii;
    class       volScalarField;
    location    "1.1";
    object      p;
}
// * * * * * * * * * * * * * * * * * * * * * * * * * * * * * * * * * * * * * //

dimensions      [0 2 -2 0 0 0 0];

internalField   nonuniform List<scalar> 
22500
(
3.43202037278e-05
3.43158870413e-05
3.43137952884e-05
3.43112269391e-05
3.43091603012e-05
3.43075720895e-05
3.43065974099e-05
3.43062899844e-05
3.43066896258e-05
3.43077531476e-05
3.43094257011e-05
3.43115620747e-05
3.43141851072e-05
3.43162878774e-05
3.43205897216e-05
3.42721343722e-05
3.4265396924e-05
3.42612327334e-05
3.42568440955e-05
3.4253295761e-05
3.42506127578e-05
3.42489686012e-05
3.42484381263e-05
3.42490634801e-05
3.42507992539e-05
3.42535685468e-05
3.42571898639e-05
3.42616332012e-05
3.42658099052e-05
3.42725338489e-05
3.42261258414e-05
3.42171859577e-05
3.42112910078e-05
3.42053359466e-05
3.42005328575e-05
3.41969227934e-05
3.41947120806e-05
3.41939904503e-05
3.41948027981e-05
3.41971009874e-05
3.42007928325e-05
3.42056659321e-05
3.42116731953e-05
3.42175826446e-05
3.4226516947e-05
3.41853164327e-05
3.41745855936e-05
3.41673671651e-05
3.41602385918e-05
3.41545013129e-05
3.4150208473e-05
3.41475820386e-05
3.41467193665e-05
3.41476663267e-05
3.41503740442e-05
3.41547423445e-05
3.41605444358e-05
3.41677227342e-05
3.41749575041e-05
3.41856932172e-05
3.4147522624e-05
3.41352814352e-05
3.41269850587e-05
3.41189454788e-05
3.4112484735e-05
3.41076712925e-05
3.41047296136e-05
3.41037602296e-05
3.41048076424e-05
3.41078244998e-05
3.41127076328e-05
3.41192283667e-05
3.41273151888e-05
3.41356290589e-05
3.41478823705e-05
3.41122096927e-05
3.40987320591e-05
3.40895714027e-05
3.40808462532e-05
3.4073842423e-05
3.40686454718e-05
3.40654732211e-05
3.40644255527e-05
3.40655448218e-05
3.40687861846e-05
3.40740470751e-05
3.40811062698e-05
3.40898753522e-05
3.40990556956e-05
3.41125523321e-05
3.40794723372e-05
3.40650384094e-05
3.40552089498e-05
3.40460046046e-05
3.40386209761e-05
3.40331630797e-05
3.40298354359e-05
3.40287348806e-05
3.40299009897e-05
3.40332919589e-05
3.40388085001e-05
3.40462432353e-05
3.40554886254e-05
3.40653385277e-05
3.4079798052e-05
3.40492797634e-05
3.40341509968e-05
3.40238208914e-05
3.40143125294e-05
3.40066870413e-05
3.4001070244e-05
3.3997649538e-05
3.39965171421e-05
3.39977093849e-05
3.40011879199e-05
3.40068585121e-05
3.40145311433e-05
3.40240778704e-05
3.40344293503e-05
3.40495900419e-05
3.40214924924e-05
3.40059032656e-05
3.3995214809e-05
3.39855488966e-05
3.39777973808e-05
3.39721057431e-05
3.39686434196e-05
3.39674965806e-05
3.39686981051e-05
3.3972213346e-05
3.39779543915e-05
3.3985749753e-05
3.39954516314e-05
3.40061626233e-05
3.40217885788e-05
3.39959453588e-05
3.39801057821e-05
3.39691858324e-05
3.3959488682e-05
3.39517115286e-05
3.39460170149e-05
3.39425570312e-05
3.39414105828e-05
3.39426071117e-05
3.39461156637e-05
3.39518557452e-05
3.3959673836e-05
3.39694051593e-05
3.39803488654e-05
3.39962306101e-05
3.39724688232e-05
3.39565652224e-05
3.39455372514e-05
3.39359228883e-05
3.39282118152e-05
3.39225793919e-05
3.39191614836e-05
3.39180289166e-05
3.39192075681e-05
3.39226702355e-05
3.39283449879e-05
3.39360945875e-05
3.39457416939e-05
3.39567947752e-05
3.39727454784e-05
3.39508663832e-05
3.39350820707e-05
3.39240846268e-05
3.39146620124e-05
3.39071038784e-05
3.39015950833e-05
3.38982570466e-05
3.38971514156e-05
3.38982996664e-05
3.39016793628e-05
3.39072276806e-05
3.39148224737e-05
3.39242768042e-05
3.39353007384e-05
3.39511361979e-05
3.39308421401e-05
3.39154469373e-05
3.39046620804e-05
3.38955380835e-05
3.38882166328e-05
3.38828929125e-05
3.38796738556e-05
3.38786081015e-05
3.38797136748e-05
3.38829715161e-05
3.3888332754e-05
3.38956893948e-05
3.39048446205e-05
3.39156576313e-05
3.3931107512e-05
3.39121093195e-05
3.38974515821e-05
3.38870542217e-05
3.38783377734e-05
3.38713505258e-05
3.38662928548e-05
3.38632442973e-05
3.38622373596e-05
3.38632816317e-05
3.38663668595e-05
3.3871460368e-05
3.3878482216e-05
3.38872298265e-05
3.3897657374e-05
3.39123724197e-05
3.38954871493e-05
3.38804906556e-05
3.38707046455e-05
3.38625033573e-05
3.38560095552e-05
3.38513561675e-05
3.38485675198e-05
3.38476485691e-05
3.38486028224e-05
3.38514261372e-05
3.38561139844e-05
3.38626420039e-05
3.38708761566e-05
3.3880694273e-05
3.38957421581e-05
2.78194603093e-05
2.78206763711e-05
2.78214877862e-05
2.78222344163e-05
2.78228843685e-05
2.78233800167e-05
2.78236829254e-05
2.78237618469e-05
2.78236074223e-05
2.78232344159e-05
2.78226814237e-05
2.78219955577e-05
2.78212277592e-05
2.78204205452e-05
2.78192171159e-05
2.7824630646e-05
2.78260962667e-05
2.78271598122e-05
2.78281375092e-05
2.78289778203e-05
2.78296150461e-05
2.78300054848e-05
2.78301140887e-05
2.7829929206e-05
2.78294680016e-05
2.7828772908e-05
2.78278961553e-05
2.78269001536e-05
2.78258397635e-05
2.78243886453e-05
2.78310031993e-05
2.78329913799e-05
2.78345085656e-05
2.78359181952e-05
2.78371263335e-05
2.78380443256e-05
2.78386114481e-05
2.78387810621e-05
2.78385369311e-05
2.78379006145e-05
2.78369255444e-05
2.78356799371e-05
2.7834252268e-05
2.78327355048e-05
2.78307619049e-05
2.78393381442e-05
2.78422117858e-05
2.78444587238e-05
2.78465491714e-05
2.78483379382e-05
2.78496989355e-05
2.78505445176e-05
2.78508101149e-05
2.78504728911e-05
2.78495606433e-05
2.78481438676e-05
2.78463166697e-05
2.78442069629e-05
2.78419584776e-05
2.7839098005e-05
2.78501285026e-05
2.78541936658e-05
2.78573848988e-05
2.78603396235e-05
2.78628588291e-05
2.7864772743e-05
2.78659637538e-05
2.78663479655e-05
2.78658955515e-05
2.78646409747e-05
2.7862673239e-05
2.78601157262e-05
2.78571403098e-05
2.78539456954e-05
2.78498912831e-05
2.78631954376e-05
2.78686453765e-05
2.78728889196e-05
2.78767908029e-05
2.78801004316e-05
2.78826076553e-05
2.78841670023e-05
2.78846774583e-05
2.78841029763e-05
2.78824838234e-05
2.78799254135e-05
2.78765780875e-05
2.78726546026e-05
2.7868404269e-05
2.78629641705e-05
2.78780910525e-05
2.78849960017e-05
2.78903052706e-05
2.78951458089e-05
2.78992283828e-05
2.79023101833e-05
2.79042237837e-05
2.79048554132e-05
2.79041644795e-05
2.79021953346e-05
2.78990655754e-05
2.78949466017e-05
2.7890084084e-05
2.78847650267e-05
2.78778676382e-05
2.78943042658e-05
2.79026273165e-05
2.79089390936e-05
2.79146384582e-05
2.79194180939e-05
2.79230122807e-05
2.79252393264e-05
2.79259780433e-05
2.79251851533e-05
2.79229072332e-05
2.79192686517e-05
2.79144543726e-05
2.79087326026e-05
2.79024086808e-05
2.78940898227e-05
2.79113325727e-05
2.79209495736e-05
2.79281449801e-05
2.79345755557e-05
2.79399382786e-05
2.79439551243e-05
2.79464380806e-05
2.79472641037e-05
2.7946389195e-05
2.79438602045e-05
2.79398027578e-05
2.7934407552e-05
2.79279545816e-05
2.79207449087e-05
2.79111292916e-05
2.79287185359e-05
2.79394388145e-05
2.79473633388e-05
2.79543702017e-05
2.79601818002e-05
2.79645176667e-05
2.79671908469e-05
2.79680816022e-05
2.79671472249e-05
2.79644328252e-05
2.79600602118e-05
2.79542184496e-05
2.7947189485e-05
2.79392489934e-05
2.79285272463e-05
2.79460634805e-05
2.79576508949e-05
2.79661313728e-05
2.79735509653e-05
2.79796720217e-05
2.79842199822e-05
2.79870158981e-05
2.79879481961e-05
2.79869773076e-05
2.79841447786e-05
2.79795638685e-05
2.79734151615e-05
2.79659741822e-05
2.79574766739e-05
2.79458856018e-05
2.79630228525e-05
2.79752169375e-05
2.79840792072e-05
2.7991756978e-05
2.79980550424e-05
2.80027128499e-05
2.80055667551e-05
2.80065182662e-05
2.80055327829e-05
2.80026465167e-05
2.79979592926e-05
2.79916361435e-05
2.7983938114e-05
2.79750587156e-05
2.79628596872e-05
2.79792904414e-05
2.79918435367e-05
2.80009371124e-05
2.80087397785e-05
2.80150944887e-05
2.80197668953e-05
2.80226176306e-05
2.80235673834e-05
2.80225876973e-05
2.80197082922e-05
2.80150097653e-05
2.80086324051e-05
2.80008109555e-05
2.79917006441e-05
2.79791418746e-05
2.79947620872e-05
2.80074986069e-05
2.80166476043e-05
2.80244269537e-05
2.80306951952e-05
2.80352676786e-05
2.80380437086e-05
2.803896652e-05
2.80380171768e-05
2.80352156592e-05
2.80306196419e-05
2.80243311542e-05
2.80165347566e-05
2.8007370698e-05
2.79946274211e-05
2.80103675832e-05
2.80223160726e-05
2.80312452661e-05
2.80387912327e-05
2.80447653284e-05
2.80490805826e-05
2.80516850109e-05
2.80525489963e-05
2.80516613689e-05
2.80490341545e-05
2.80446977623e-05
2.80387053246e-05
2.80311442774e-05
2.80222029945e-05
2.80102465121e-05
2.84283573999e-05
2.84278508926e-05
2.84271158065e-05
2.84263188022e-05
2.84255697922e-05
2.84249788296e-05
2.84246074379e-05
2.84244880732e-05
2.84246309968e-05
2.84250224246e-05
2.84256265902e-05
2.84263830828e-05
2.84271947285e-05
2.84279369176e-05
2.84284589633e-05
2.84286316842e-05
2.84281552015e-05
2.8427452729e-05
2.84266807742e-05
2.84259503483e-05
2.84253701718e-05
2.84250038145e-05
2.84248858147e-05
2.84250275676e-05
2.84254142065e-05
2.84260078626e-05
2.84267460418e-05
2.84275308059e-05
2.84282424004e-05
2.84287332799e-05
2.84292411129e-05
2.84288127114e-05
2.84281584042e-05
2.84274277433e-05
2.84267299913e-05
2.84261717049e-05
2.84258171948e-05
2.84257027702e-05
2.84258407246e-05
2.84262156038e-05
2.84267881501e-05
2.84274947834e-05
2.84282371413e-05
2.84289008357e-05
2.84293426091e-05
2.84296470684e-05
2.84292493002e-05
2.84286240635e-05
2.84279227051e-05
2.84272501526e-05
2.84267101399e-05
2.8426365988e-05
2.84262546865e-05
2.84263890265e-05
2.84267534873e-05
2.84273086442e-05
2.84279912277e-05
2.84287034194e-05
2.84293369973e-05
2.84297487499e-05
2.84298696215e-05
2.84295034019e-05
2.84289077428e-05
2.84282420759e-05
2.84276025947e-05
2.84270885923e-05
2.84267606438e-05
2.84266546589e-05
2.84267831691e-05
2.84271312249e-05
2.84276608245e-05
2.84283112047e-05
2.84289875778e-05
2.84295905611e-05
2.84299713524e-05
2.84300509141e-05
2.84297359824e-05
2.84291884099e-05
2.8428578841e-05
2.84279924979e-05
2.84275212679e-05
2.84272206377e-05
2.84271238176e-05
2.84272424855e-05
2.84275628651e-05
2.84280500052e-05
2.84286479187e-05
2.84292679813e-05
2.84298228513e-05
2.84301517374e-05
2.84302911208e-05
2.8430057352e-05
2.84295815906e-05
2.84290526105e-05
2.84285419935e-05
2.84281314767e-05
2.84278698513e-05
2.84277862359e-05
2.84278909545e-05
2.84281718383e-05
2.84285983294e-05
2.84291210457e-05
2.84296604828e-05
2.84301437102e-05
2.84303912933e-05
2.84306528509e-05
2.84305298792e-05
2.84301480886e-05
2.84297209994e-05
2.84293053171e-05
2.84289704695e-05
2.84287573647e-05
2.84286902099e-05
2.84287776377e-05
2.84290094302e-05
2.84293602165e-05
2.84297884647e-05
2.84302261258e-05
2.843061547e-05
2.84307527291e-05
2.84311713253e-05
2.84311808462e-05
2.84309096728e-05
2.84305988496e-05
2.84302907069e-05
2.84300411121e-05
2.84298825475e-05
2.84298339075e-05
2.84299019506e-05
2.84300785773e-05
2.84303439394e-05
2.8430664993e-05
2.84309867145e-05
2.84312656328e-05
2.84312707527e-05
2.84318559697e-05
2.84320079692e-05
2.8431856013e-05
2.84316673378e-05
2.84314720194e-05
2.84313115577e-05
2.84312098607e-05
2.84311805063e-05
2.84312283859e-05
2.84313474884e-05
2.84315235051e-05
2.84317320397e-05
2.8431931961e-05
2.84320920585e-05
2.8431954991e-05
2.84326944399e-05
2.84329845874e-05
2.84329518036e-05
2.8432883742e-05
2.84328000284e-05
2.84327275643e-05
2.84326818982e-05
2.84326715026e-05
2.84326995274e-05
2.84327619046e-05
2.84328496301e-05
2.84329467799e-05
2.84330264248e-05
2.8433067787e-05
2.84327929449e-05
2.84336528753e-05
2.84340628147e-05
2.84341427554e-05
2.8434189497e-05
2.84342121898e-05
2.8434223545e-05
2.84342310105e-05
2.84342385749e-05
2.84342477096e-05
2.84342562312e-05
2.84342597881e-05
2.84342506392e-05
2.84342157974e-05
2.84341447391e-05
2.84337504125e-05
2.84346773064e-05
2.84351812214e-05
2.84353671092e-05
2.84355218654e-05
2.84356440061e-05
2.84357330831e-05
2.84357896142e-05
2.84358135946e-05
2.8435805313e-05
2.8435763973e-05
2.84356892982e-05
2.84355807405e-05
2.84354381166e-05
2.84352614809e-05
2.84347734062e-05
2.84357385668e-05
2.84363210372e-05
2.84365952781e-05
2.8436843164e-05
2.84370485064e-05
2.84372016756e-05
2.84372979829e-05
2.84373351778e-05
2.84373125933e-05
2.84372304084e-05
2.84370910505e-05
2.84368990305e-05
2.84366635501e-05
2.84363992475e-05
2.84358318658e-05
2.84370317119e-05
2.84374734422e-05
2.84377956143e-05
2.843810334e-05
2.84383584405e-05
2.84385482334e-05
2.84386665885e-05
2.84387107829e-05
2.84386799858e-05
2.84385747978e-05
2.84383979137e-05
2.84381558584e-05
2.84378610021e-05
2.84375505598e-05
2.84371223008e-05
2.55078237808e-05
2.55080718464e-05
2.55083850036e-05
2.5508703777e-05
2.55089951172e-05
2.55092237625e-05
2.55093683366e-05
2.55094139116e-05
2.55093553444e-05
2.5509199129e-05
2.55089619487e-05
2.55086687528e-05
2.55083519971e-05
2.55080500325e-05
2.55078070878e-05
2.550788017e-05
2.5508130963e-05
2.55084499098e-05
2.55087787402e-05
2.55090792606e-05
2.55093158827e-05
2.55094656189e-05
2.55095128104e-05
2.55094518442e-05
2.55092897301e-05
2.55090440763e-05
2.55087412774e-05
2.55084157474e-05
2.5508107376e-05
2.55078648226e-05
2.55077147472e-05
2.55079507241e-05
2.55082575895e-05
2.55085805593e-05
2.55088780675e-05
2.55091144572e-05
2.55092648356e-05
2.55093127047e-05
2.55092519831e-05
2.55090901134e-05
2.55088454595e-05
2.55085455568e-05
2.55082262264e-05
2.55079277349e-05
2.55077010045e-05
2.55075655256e-05
2.55077881832e-05
2.55080846445e-05
2.55083994765e-05
2.550869219e-05
2.55089267283e-05
2.55090768275e-05
2.55091252135e-05
2.55090654135e-05
2.5508905195e-05
2.5508663485e-05
2.55083685698e-05
2.55080569644e-05
2.55077673554e-05
2.55075534112e-05
2.55074594331e-05
2.55076708944e-05
2.55079591304e-05
2.55082649093e-05
2.55085516469e-05
2.55087828185e-05
2.55089316319e-05
2.55089801008e-05
2.5508921558e-05
2.55087638956e-05
2.55085264667e-05
2.55082378981e-05
2.55079347978e-05
2.55076525919e-05
2.55074491981e-05
2.55073741603e-05
2.55075765024e-05
2.55078562785e-05
2.55081526372e-05
2.55084323566e-05
2.55086593983e-05
2.55088063394e-05
2.55088547756e-05
2.55087977516e-05
2.55086433091e-05
2.55084110511e-05
2.55081297758e-05
2.55078358334e-05
2.55075602958e-05
2.55073667334e-05
2.55073049429e-05
2.55074994206e-05
2.55077728569e-05
2.55080608165e-05
2.55083341022e-05
2.55085572851e-05
2.55087024615e-05
2.55087508751e-05
2.5508695324e-05
2.55085439454e-05
2.55083165251e-05
2.55080419831e-05
2.55077562879e-05
2.55074856448e-05
2.55073001044e-05
2.55072561487e-05
2.550744553e-05
2.55077157929e-05
2.55079972527e-05
2.55082658536e-05
2.55084863323e-05
2.55086304649e-05
2.55086790563e-05
2.55086247844e-05
2.55084757683e-05
2.55082519709e-05
2.55079824291e-05
2.55077027491e-05
2.55074342597e-05
2.55072532667e-05
2.55072318611e-05
2.55074205842e-05
2.55076905089e-05
2.55079680633e-05
2.5508233892e-05
2.55084529152e-05
2.55085966133e-05
2.55086455263e-05
2.55085922704e-05
2.55084448826e-05
2.55082233936e-05
2.55079569288e-05
2.5507680755e-05
2.55074116825e-05
2.55072310936e-05
2.5507234866e-05
2.55074266947e-05
2.55076980496e-05
2.55079735418e-05
2.55082378166e-05
2.55084560406e-05
2.55085995041e-05
2.55086487361e-05
2.5508596364e-05
2.55084502769e-05
2.55082303522e-05
2.55079656859e-05
2.55076911912e-05
2.55074198306e-05
2.55072359215e-05
2.55072632979e-05
2.55074602662e-05
2.55077336084e-05
2.55080079587e-05
2.55082710628e-05
2.55084882917e-05
2.55086311356e-05
2.55086804173e-05
2.55086289975e-05
2.55084844359e-05
2.55082661665e-05
2.55080029808e-05
2.5507729391e-05
2.55074554927e-05
2.5507266318e-05
2.55073089562e-05
2.55075111744e-05
2.55077863976e-05
2.5508060332e-05
2.550832223e-05
2.55085378405e-05
2.55086792677e-05
2.55087281973e-05
2.55086779052e-05
2.55085354629e-05
2.55083193721e-05
2.55080576929e-05
2.55077844928e-05
2.55075085645e-05
2.55073142431e-05
2.55073541065e-05
2.55075602404e-05
2.55078395944e-05
2.55081158124e-05
2.55083777722e-05
2.5508591643e-05
2.55087310502e-05
2.55087792381e-05
2.55087302097e-05
2.5508590282e-05
2.55083763346e-05
2.55081149399e-05
2.55078396066e-05
2.55075597011e-05
2.55073615172e-05
2.55073866583e-05
2.55076057737e-05
2.55078911639e-05
2.55081708313e-05
2.5508431409e-05
2.55086406491e-05
2.55087754325e-05
2.55088217867e-05
2.55087748752e-05
2.55086397661e-05
2.55084306905e-05
2.5508170938e-05
2.550789255e-05
2.55076073806e-05
2.55073961251e-05
2.55076095597e-05
2.55077828394e-05
2.55080337718e-05
2.55082775427e-05
2.55085015647e-05
2.55086780368e-05
2.55087902173e-05
2.55088285709e-05
2.55087897883e-05
2.55086774703e-05
2.55085012679e-05
2.55082783551e-05
2.55080365302e-05
2.55077872983e-05
2.55076204007e-05
2.44635150015e-05
2.44633351218e-05
2.44630800287e-05
2.44628001444e-05
2.44625336977e-05
2.4462317883e-05
2.44621805641e-05
2.44621346927e-05
2.44621839443e-05
2.44623224658e-05
2.44625354032e-05
2.44627984926e-05
2.44630788499e-05
2.44633309614e-05
2.44635206153e-05
2.44634884172e-05
2.44633140743e-05
2.44630667473e-05
2.44627916181e-05
2.44625283295e-05
2.44623145685e-05
2.44621780379e-05
2.44621323123e-05
2.44621814339e-05
2.44623192286e-05
2.44625303308e-05
2.4462789943e-05
2.44630650327e-05
2.44633109608e-05
2.44634943636e-05
2.44635642865e-05
2.44633995341e-05
2.44631649159e-05
2.44628993049e-05
2.4462644147e-05
2.44624360851e-05
2.44623025386e-05
2.44622576769e-05
2.4462305946e-05
2.44624410426e-05
2.44626472226e-05
2.44628992795e-05
2.44631642859e-05
2.44633980202e-05
2.44635706654e-05
2.446361943e-05
2.44634590154e-05
2.44632311875e-05
2.44629711989e-05
2.4462721101e-05
2.44625168154e-05
2.44623851067e-05
2.4462340702e-05
2.44623884483e-05
2.44625219869e-05
2.44627252899e-05
2.44629728243e-05
2.44632317608e-05
2.44634582431e-05
2.44636264092e-05
2.44636359015e-05
2.44634757271e-05
2.44632508358e-05
2.4462994246e-05
2.44627474423e-05
2.44625456329e-05
2.4462415156e-05
2.44623710524e-05
2.44624183867e-05
2.44625508172e-05
2.44627521958e-05
2.44629969235e-05
2.44632524192e-05
2.44634753481e-05
2.44636436533e-05
2.44636292059e-05
2.44634667454e-05
2.44632446211e-05
2.44629913766e-05
2.44627483559e-05
2.44625497724e-05
2.44624211486e-05
2.44623775623e-05
2.44624241682e-05
2.44625547548e-05
2.44627533487e-05
2.44629946925e-05
2.44632467951e-05
2.44634670682e-05
2.44636370907e-05
2.44636098662e-05
2.44634460772e-05
2.44632278988e-05
2.44629798824e-05
2.4462742907e-05
2.44625495592e-05
2.44624242804e-05
2.44623817471e-05
2.44624270285e-05
2.44625541779e-05
2.44627477841e-05
2.44629834769e-05
2.44632303654e-05
2.44634469419e-05
2.44636182661e-05
2.44635862433e-05
2.44634235929e-05
2.44632117273e-05
2.44629723842e-05
2.44627450454e-05
2.44625601089e-05
2.44624403692e-05
2.44623996654e-05
2.44624427959e-05
2.44625642613e-05
2.4462749649e-05
2.44629761215e-05
2.44632145332e-05
2.44634249205e-05
2.44635955977e-05
2.4463566563e-05
2.4463407896e-05
2.44632058269e-05
2.44629795296e-05
2.44627661984e-05
2.44625934774e-05
2.44624818965e-05
2.44624439507e-05
2.44624839917e-05
2.4462597126e-05
2.44627704147e-05
2.44629832517e-05
2.44632089685e-05
2.44634097337e-05
2.44635768774e-05
2.4463557204e-05
2.44634053656e-05
2.44632169335e-05
2.44630082827e-05
2.44628137205e-05
2.44626573068e-05
2.4462556643e-05
2.44625224458e-05
2.44625584356e-05
2.44626604915e-05
2.44628175913e-05
2.44630120601e-05
2.4463220515e-05
2.44634079717e-05
2.44635685056e-05
2.44635617138e-05
2.44634188367e-05
2.44632473881e-05
2.44630607786e-05
2.44628895594e-05
2.44627533331e-05
2.44626662139e-05
2.44626366877e-05
2.44626677488e-05
2.44627561341e-05
2.44628931357e-05
2.44630646393e-05
2.44632514202e-05
2.44634222701e-05
2.44635740337e-05
2.44635793023e-05
2.44634455316e-05
2.44632934409e-05
2.44631329686e-05
2.44629893318e-05
2.44628769183e-05
2.44628056563e-05
2.44627816546e-05
2.44628070033e-05
2.44628794336e-05
2.44629927703e-05
2.44631370027e-05
2.4463298007e-05
2.44634497313e-05
2.44635924702e-05
2.44636037752e-05
2.44634760046e-05
2.4463345426e-05
2.44632151596e-05
2.44631032965e-05
2.44630177698e-05
2.44629643963e-05
2.4462946555e-05
2.44629656028e-05
2.44630201554e-05
2.44631066522e-05
2.44632194704e-05
2.44633505386e-05
2.44634810219e-05
2.44636177281e-05
2.44636187404e-05
2.44634963657e-05
2.44633919307e-05
2.44632966781e-05
2.44632198055e-05
2.44631631581e-05
2.44631284103e-05
2.44631170519e-05
2.44631295951e-05
2.44631654543e-05
2.44632232751e-05
2.44633012517e-05
2.44633976604e-05
2.44635022805e-05
2.44636329956e-05
2.44635985102e-05
2.44635022142e-05
2.44634310412e-05
2.44633725081e-05
2.44633292921e-05
2.44632985197e-05
2.44632801139e-05
2.44632743782e-05
2.44632814781e-05
2.44633012985e-05
2.44633334512e-05
2.446337821e-05
2.44634383832e-05
2.44635104841e-05
2.44636130701e-05
2.24465228295e-05
2.2446589072e-05
2.24466731852e-05
2.24467574325e-05
2.24468329777e-05
2.24468905272e-05
2.24469241911e-05
2.24469308506e-05
2.24469099533e-05
2.24468632164e-05
2.24467948313e-05
2.24467113335e-05
2.24466214859e-05
2.24465379288e-05
2.24464689116e-05
2.24464968974e-05
2.24465632862e-05
2.24466468112e-05
2.24467324786e-05
2.24468095371e-05
2.24468685388e-05
2.24469031873e-05
2.24469101207e-05
2.24468885968e-05
2.24468405473e-05
2.24467705171e-05
2.24466855371e-05
2.24465948644e-05
2.24465114841e-05
2.24464444077e-05
2.24464125409e-05
2.24464742634e-05
2.24465520155e-05
2.24466351703e-05
2.24467106775e-05
2.24467693032e-05
2.24468041095e-05
2.24468113548e-05
2.24467900659e-05
2.24467423505e-05
2.24466730646e-05
2.24465896801e-05
2.2446501794e-05
2.24464227755e-05
2.24463612339e-05
2.24463425807e-05
2.24464007167e-05
2.24464747473e-05
2.24465558859e-05
2.24466304777e-05
2.24466890333e-05
2.24467242046e-05
2.2446731905e-05
2.24467109354e-05
2.24466635392e-05
2.24465948121e-05
2.24465125678e-05
2.24464266293e-05
2.24463505788e-05
2.24462923348e-05
2.24462931592e-05
2.24463493298e-05
2.24464211901e-05
2.24465007184e-05
2.24465746085e-05
2.24466330026e-05
2.24466684187e-05
2.24466764539e-05
2.24466558096e-05
2.2446608764e-05
2.24465405954e-05
2.24464592992e-05
2.24463747977e-05
2.24463006578e-05
2.24462441761e-05
2.24462553156e-05
2.24463109373e-05
2.24463801574e-05
2.24464581141e-05
2.24465309097e-05
2.24465887609e-05
2.24466240941e-05
2.24466323672e-05
2.24466121589e-05
2.24465657834e-05
2.24464985849e-05
2.24464186252e-05
2.24463357832e-05
2.24462634198e-05
2.24462083619e-05
2.24462249728e-05
2.24462795571e-05
2.24463460935e-05
2.24464219958e-05
2.24464930503e-05
2.24465497829e-05
2.24465846178e-05
2.24465929616e-05
2.24465733069e-05
2.24465279736e-05
2.24464622867e-05
2.2446384263e-05
2.24463036139e-05
2.24462333174e-05
2.24461799473e-05
2.24461995611e-05
2.24462520815e-05
2.24463157514e-05
2.24463887985e-05
2.24464574728e-05
2.2446512517e-05
2.24465464913e-05
2.24465547554e-05
2.24465357876e-05
2.24464918502e-05
2.24464282163e-05
2.24463527669e-05
2.24462749586e-05
2.2446207236e-05
2.24461561293e-05
2.24461762208e-05
2.24462261634e-05
2.24462864636e-05
2.24463559841e-05
2.24464216644e-05
2.24464745196e-05
2.2446507278e-05
2.24465153194e-05
2.24464971319e-05
2.2446454895e-05
2.24463937846e-05
2.24463214933e-05
2.24462471774e-05
2.24461826347e-05
2.24461345911e-05
2.24461532464e-05
2.24461997703e-05
2.24462561016e-05
2.24463215278e-05
2.24463837006e-05
2.24464339663e-05
2.24464652095e-05
2.24464729192e-05
2.24464555827e-05
2.24464153021e-05
2.24463570971e-05
2.24462884378e-05
2.24462181698e-05
2.24461574143e-05
2.24461133176e-05
2.24461287137e-05
2.24461709362e-05
2.24462229658e-05
2.24462839351e-05
2.24463422958e-05
2.24463896432e-05
2.24464191404e-05
2.24464264021e-05
2.2446409986e-05
2.24463718637e-05
2.2446316855e-05
2.24462521613e-05
2.24461863246e-05
2.24461298467e-05
2.24460906203e-05
2.24461009193e-05
2.24461379832e-05
2.24461855946e-05
2.24462420802e-05
2.24462964714e-05
2.24463407339e-05
2.24463682758e-05
2.24463750211e-05
2.24463595685e-05
2.24463237688e-05
2.24462721393e-05
2.24462115351e-05
2.24461502202e-05
2.24460982844e-05
2.244606483e-05
2.244606729e-05
2.24460981946e-05
2.2446141894e-05
2.24461944885e-05
2.24462453268e-05
2.24462865073e-05
2.24463121024e-05
2.2446318256e-05
2.2446303828e-05
2.24462703847e-05
2.24462220567e-05
2.24461652057e-05
2.24461078023e-05
2.24460599832e-05
2.24460331979e-05
2.24460203718e-05
2.24460467447e-05
2.24460894546e-05
2.24461400996e-05
2.24461881684e-05
2.24462266398e-05
2.24462502129e-05
2.24462558427e-05
2.24462424532e-05
2.24462114059e-05
2.24461661594e-05
2.24461121953e-05
2.24460568653e-05
2.2446010245e-05
2.24459886332e-05
2.24459693529e-05
2.24460042051e-05
2.24460462481e-05
2.24460918122e-05
2.24461332708e-05
2.24461653754e-05
2.24461846434e-05
2.24461889219e-05
2.24461775843e-05
2.24461515527e-05
2.2446113149e-05
2.24460661944e-05
2.24460160787e-05
2.24459700557e-05
2.24459387821e-05
2.09385951373e-05
2.09385551523e-05
2.09384903499e-05
2.09384199242e-05
2.09383549833e-05
2.09383031717e-05
2.0938269163e-05
2.09382563338e-05
2.09382657857e-05
2.09382961132e-05
2.09383436695e-05
2.09384027766e-05
2.09384659798e-05
2.09385240571e-05
2.09385690609e-05
2.09385722769e-05
2.09385313737e-05
2.09384664595e-05
2.09383949767e-05
2.0938328845e-05
2.09382759333e-05
2.09382412199e-05
2.09382281371e-05
2.09382378622e-05
2.09382689066e-05
2.09383174624e-05
2.09383776534e-05
2.09384417987e-05
2.09385005896e-05
2.09385457897e-05
2.09385775665e-05
2.09385369071e-05
2.09384739255e-05
2.09384031672e-05
2.09383372487e-05
2.09382841272e-05
2.09382491647e-05
2.09382359647e-05
2.09382457581e-05
2.09382769866e-05
2.09383256946e-05
2.09383858108e-05
2.09384494517e-05
2.09385072098e-05
2.09385510789e-05
2.093858012e-05
2.09385394752e-05
2.09384770963e-05
2.09384069883e-05
2.09383409982e-05
2.09382874315e-05
2.09382520718e-05
2.0938238671e-05
2.09382485138e-05
2.09382799716e-05
2.09383289594e-05
2.09383892304e-05
2.09384527369e-05
2.09385101256e-05
2.09385537829e-05
2.09385748202e-05
2.09385336266e-05
2.09384711219e-05
2.09384013736e-05
2.09383351922e-05
2.09382812179e-05
2.09382454888e-05
2.09382318769e-05
2.09382417204e-05
2.0938273359e-05
2.09383226069e-05
2.09383831117e-05
2.09384467216e-05
2.09385043041e-05
2.09385485789e-05
2.09385650684e-05
2.09385222665e-05
2.09384599879e-05
2.09383907741e-05
2.09383247102e-05
2.09382706333e-05
2.09382347206e-05
2.09382209424e-05
2.09382306672e-05
2.09382622349e-05
2.09383114161e-05
2.09383718431e-05
2.09384353625e-05
2.09384932242e-05
2.09385384833e-05
2.09385519135e-05
2.09385078238e-05
2.09384460356e-05
2.09383776653e-05
2.0938312304e-05
2.09382586681e-05
2.09382229503e-05
2.093820913e-05
2.09382185993e-05
2.09382497201e-05
2.09382983226e-05
2.09383581227e-05
2.09384210901e-05
2.0938479018e-05
2.09385253313e-05
2.09385361458e-05
2.09384913028e-05
2.09384302399e-05
2.09383634649e-05
2.09382996163e-05
2.093824711e-05
2.09382120457e-05
2.09381983461e-05
2.09382073968e-05
2.09382376251e-05
2.09382850034e-05
2.09383434641e-05
2.0938405239e-05
2.09384628215e-05
2.09385100694e-05
2.09385189598e-05
2.09384736545e-05
2.0938413856e-05
2.09383494635e-05
2.09382879519e-05
2.09382373489e-05
2.09382034796e-05
2.09381901162e-05
2.09381985855e-05
2.093822744e-05
2.09382728763e-05
2.09383291807e-05
2.09383889939e-05
2.09384456495e-05
2.09384935428e-05
2.09385011562e-05
2.0938455675e-05
2.09383978604e-05
2.0938336672e-05
2.09382784387e-05
2.09382305486e-05
2.09381984433e-05
2.09381856388e-05
2.0938193387e-05
2.09382203741e-05
2.09382631329e-05
2.09383164203e-05
2.09383734383e-05
2.09384284803e-05
2.09384765901e-05
2.09384835127e-05
2.09384383521e-05
2.09383832043e-05
2.09383259649e-05
2.09382718223e-05
2.0938227396e-05
2.09381975996e-05
2.09381855877e-05
2.09381924915e-05
2.0938217158e-05
2.09382565536e-05
2.0938306005e-05
2.09383594124e-05
2.09384121202e-05
2.09384599442e-05
2.09384669026e-05
2.09384224648e-05
2.09383703782e-05
2.09383176638e-05
2.093826828e-05
2.09382279573e-05
2.09382009472e-05
2.09381899433e-05
2.09381959098e-05
2.09382179059e-05
2.09382533568e-05
2.09382983107e-05
2.09383474699e-05
2.09383972423e-05
2.09384443262e-05
2.09384521625e-05
2.0938408568e-05
2.09383596392e-05
2.09383116306e-05
2.09382673432e-05
2.09382315351e-05
2.09382076476e-05
2.09381978301e-05
2.0938202838e-05
2.09382219276e-05
2.09382531137e-05
2.09382932051e-05
2.09383378276e-05
2.09383845087e-05
2.09384307188e-05
2.0938437414e-05
2.09383937217e-05
2.09383485124e-05
2.09383057117e-05
2.09382671375e-05
2.09382364398e-05
2.09382161423e-05
2.09382077369e-05
2.09382117509e-05
2.09382276336e-05
2.093825406e-05
2.09382887019e-05
2.09383281745e-05
2.09383709781e-05
2.09384170844e-05
2.09383921751e-05
2.09383605714e-05
2.0938325432e-05
2.0938292754e-05
2.09382637723e-05
2.09382410892e-05
2.09382261982e-05
2.09382199345e-05
2.093822251e-05
2.0938233677e-05
2.09382526605e-05
2.09382781154e-05
2.09383075862e-05
2.09383398999e-05
2.09383729263e-05
1.91659920742e-05
1.91660179637e-05
1.91660549899e-05
1.9166092008e-05
1.91661250846e-05
1.91661503121e-05
1.9166165569e-05
1.91661691099e-05
1.91661603791e-05
1.9166140061e-05
1.9166110045e-05
1.91660734892e-05
1.9166034712e-05
1.91659998305e-05
1.91659736275e-05
1.91659822968e-05
1.9166008378e-05
1.91660434279e-05
1.91660791584e-05
1.91661110979e-05
1.91661355566e-05
1.91661503488e-05
1.9166153672e-05
1.91661449596e-05
1.91661249156e-05
1.91660955046e-05
1.91660599294e-05
1.91660225041e-05
1.91659891647e-05
1.91659644233e-05
1.91659617454e-05
1.91659863069e-05
1.91660183171e-05
1.91660523258e-05
1.91660829081e-05
1.91661066147e-05
1.9166120972e-05
1.91661241901e-05
1.91661156645e-05
1.91660961563e-05
1.91660676806e-05
1.91660334895e-05
1.91659978595e-05
1.9165966629e-05
1.91659437877e-05
1.9165946534e-05
1.91659695666e-05
1.91659997327e-05
1.91660323031e-05
1.91660620033e-05
1.91660852952e-05
1.91660994478e-05
1.91661026575e-05
1.91660942934e-05
1.91660751612e-05
1.91660473137e-05
1.91660140366e-05
1.91659795752e-05
1.91659496973e-05
1.91659278979e-05
1.91659368845e-05
1.91659588484e-05
1.91659878134e-05