/*--------------------------------*- C++ -*----------------------------------*\
  =========                 |
  \\      /  F ield         | OpenFOAM: The Open Source CFD Toolbox
   \\    /   O peration     | Website:  https://openfoam.org
    \\  /    A nd           | Version:  7
     \\/     M anipulation  |
\*---------------------------------------------------------------------------*/
FoamFile
{
    version     2.0;
    format      ascii;
    class       surfaceScalarField;
    location    "1.1";
    object      phi;
}
// * * * * * * * * * * * * * * * * * * * * * * * * * * * * * * * * * * * * * //

dimensions      [0 3 -1 0 0 0 0];

internalField   nonuniform List<scalar> 
65775
(
3.77281723825e-11
4.58425529059e-09
8.16595140295e-10
-8.70691974371e-13
5.71122619856e-11
4.79357193397e-09
9.05444663299e-10
6.69532800281e-11
4.97076688152e-09
9.90724677758e-10
6.53041357678e-11
5.12365384825e-09
1.0676952699e-09
5.40635586108e-11
5.24511499706e-09
1.13219981459e-09
3.52718963914e-11
5.33391886492e-09
1.18091495294e-09
1.17005719889e-11
5.38980192559e-09
1.21166866683e-09
-1.35195718298e-11
5.4112025807e-09
1.22270595282e-09
-3.69948841466e-11
5.39028385827e-09
1.21167190379e-09
-5.55996375664e-11
5.33486207785e-09
1.18092090727e-09
-6.6532845502e-11
5.24649617133e-09
1.13220691595e-09
-6.7786518447e-11
5.1253176919e-09
1.06770178935e-09
-5.74389987151e-11
4.97259161722e-09
9.90728352559e-10
-3.76543590962e-11
4.79515351599e-09
9.05432157154e-10
4.58517706869e-09
8.16508540263e-10
-5.65107598229e-13
9.56102044163e-11
7.67326788714e-09
1.9967857471e-09
-2.04395192713e-12
1.57145674064e-10
7.98756021645e-09
2.2032383452e-09
1.85407179268e-10
8.25258025238e-09
2.39999756393e-09
1.82251179086e-10
8.4770158859e-09
2.57648772505e-09
1.51373199782e-10
8.65403090649e-09
2.72357757544e-09
9.90149781917e-11
8.78247033275e-09
2.83418877837e-09
3.3059599028e-11
8.8632873604e-09
2.9038374832e-09
-3.74638331212e-11
8.89464714191e-09
2.92881456799e-09
-1.03185757529e-10
8.86437244588e-09
2.90383886783e-09
-1.55079194033e-10
8.78459800393e-09
2.83419082076e-09
-1.85230122357e-10
8.65712218869e-09
2.72357778786e-09
-1.87423120829e-10
8.48079801729e-09
2.57648424763e-09
-1.58019249331e-10
8.2566970307e-09
2.39998662377e-09
-9.55237942579e-11
7.99127705839e-09
2.20318645373e-09
7.67575161592e-09
1.99656909762e-09
-1.36096879722e-12
1.40259486656e-10
9.62411144266e-09
2.83396518888e-09
-2.81181153678e-12
2.34776718944e-10
9.97338219932e-09
3.1203890566e-09
2.77338676476e-10
1.02686797661e-08
3.39186706243e-09
2.72755903999e-10
1.05126212978e-08
3.63428677327e-09
2.26496747806e-10
1.07032754994e-08
3.83552870134e-09
1.48139383891e-10
1.0840252239e-08
3.98639391952e-09
4.95529472405e-11
1.09263850809e-08
4.08117495618e-09
-5.57854891009e-11
1.09603096048e-08
4.11510518336e-09
-1.54037724802e-10
1.09278885102e-08
4.08117350623e-09
-2.31728099055e-10
1.08431914371e-08
3.98639116912e-09
-2.76969223659e-10
1.07075215515e-08
3.83552285861e-09
-2.80208812674e-10
1.05178378258e-08
3.63427720045e-09
-2.36106660037e-10
1.02743406287e-08
3.39185058032e-09
-1.40261324617e-10
9.97859413731e-09
3.12032275701e-09
9.62780175624e-09
2.83368503493e-09
-1.9541009712e-12
1.75919059999e-10
1.06963169672e-08
3.42025770905e-09
-3.29147081662e-12
2.953189963e-10
1.10353689951e-08
3.76138968104e-09
3.49167504591e-10
1.1323036436e-08
4.08286756873e-09
3.43201286794e-10
1.15540024072e-08
4.36862999858e-09
2.84825923602e-10
1.17321897074e-08
4.6049309867e-09
1.86222697304e-10
1.18586142078e-08
4.78153453136e-09
6.23852562392e-11
1.19380282208e-08
4.8922236993e-09
-6.98440129662e-11
1.1969899714e-08
4.93176659938e-09
-1.9327726916e-10
1.1939763415e-08
4.89222182347e-09
-2.91075267074e-10
1.18620041534e-08
4.78153248081e-09
-3.4824325303e-10
1.17370609662e-08
4.60492873462e-09
-3.52644377051e-10
1.15599865578e-08
4.36862905871e-09
-2.97030748957e-10
1.13295512706e-08
4.08286696772e-09
-1.76095270744e-10
1.10414761025e-08
3.76134592893e-09
1.07009280332e-08
3.41999337651e-09
-2.41732393753e-12
2.03741690236e-10
1.10996975942e-08
3.80442924397e-09
-3.56418838325e-12
3.41975137685e-10
1.14007496486e-08
4.18115275557e-09
4.04617907156e-10
1.1657911206e-08
4.53400589663e-09
3.97503359206e-10
1.18576397107e-08
4.8461620089e-09
3.29730639495e-10
1.20090535152e-08
5.10326005116e-09
2.15522641706e-10
1.21147481525e-08
5.29480017593e-09
7.22988632215e-11
1.21810419247e-08
5.41454938184e-09
-8.05445000634e-11
1.22083321639e-08
5.45722608826e-09
-2.23318164307e-10
1.21828723858e-08
5.41454975121e-09
-3.36635185759e-10
1.21183158996e-08
5.29480452979e-09
-4.03090335139e-10
1.20141640092e-08
5.10327079984e-09
-4.08527554862e-10
1.18639145381e-08
4.84618354587e-09
-3.44017526644e-10
1.16647849355e-08
4.53404070517e-09
-2.04143738949e-10
1.14072766325e-08
4.18116057818e-09
1.11048596607e-08
3.80423264648e-09
-2.79116826834e-12
2.25201217731e-10
1.10047562748e-08
4.02430297881e-09
-3.68527880101e-12
3.77346311473e-10
1.12531654872e-08
4.42218471712e-09
4.46580939627e-10
1.14682090835e-08
4.79249707679e-09
4.38492747717e-10
1.16285633547e-08
5.11849542396e-09
3.63573186216e-10
1.17472938362e-08
5.38592009698e-09
2.3759126196e-10
1.18283633052e-08
5.58452357869e-09
7.98024500387e-11
1.18791187627e-08
5.7083627508e-09
-8.85096949845e-11
1.19007647185e-08
5.75237353277e-09
-2.45824141831e-10
1.1880916584e-08
5.70836741113e-09
-3.70870807859e-10
1.18318649107e-08
5.58453848591e-09
-4.44425969521e-10
1.17522959604e-08
5.38595037153e-09
-4.50802101249e-10
1.16347047337e-08
5.11854879631e-09
-3.79693480957e-10
1.14749661281e-08
4.79258017966e-09
-2.25875217448e-10
1.12596994022e-08
4.42226099314e-09
1.10101364803e-08
4.02419679364e-09
-3.09491509073e-12
2.41642763614e-10
1.05497637369e-08
4.11081120224e-09
-3.69790616052e-12
4.03657416217e-10
1.07406552177e-08
4.51921007427e-09
4.77522453378e-10
1.09098847992e-08
4.89689820837e-09
4.68555694569e-10
1.10296629209e-08
5.22777988351e-09
3.88322463504e-10
1.11154452834e-08
5.49816056383e-09
2.53715337265e-10
1.11721763625e-08
5.69834824647e-09
8.53151121895e-11
1.12076177672e-08
5.82284125514e-09
-9.4250232294e-11
1.12235542601e-08
5.866939505e-09
-2.62168803962e-10
1.12092918739e-08
5.82285129561e-09
-3.95831685483e-10
1.11754346405e-08
5.69837570607e-09
-4.74702488793e-10
1.11200905889e-08
5.49821326332e-09
-4.81983122014e-10
1.10353693349e-08
5.22786902693e-09
-4.06292113925e-10
1.09161964369e-08
4.89703462602e-09
-2.42628537802e-10
1.07468432264e-08
4.51935933054e-09
1.05550400319e-08
4.1107984201e-09
-3.35831359537e-12
2.53999774245e-10
9.84611385151e-09
4.0899023648e-09
-3.6278945636e-12
4.22593025837e-10
9.98143295981e-09
4.50126926933e-09
4.99429723787e-10
1.01065066276e-08
4.87936086388e-09
4.89648770359e-10
1.01888415302e-08
5.20906782695e-09
4.05606235198e-10
1.02448573154e-08
5.47752121138e-09
2.64959925112e-10
1.02800335304e-08
5.67572420621e-09
8.91848613895e-11
1.03019535502e-08
5.79865391703e-09
-9.81862629057e-11
1.03127176123e-08
5.84203154247e-09
-2.73486672866e-10
1.03034328681e-08
5.79866930927e-09
-4.13208711208e-10
1.02829100725e-08
5.67576384983e-09
-4.95928730204e-10
1.0248955694e-08
5.47759540002e-09
-5.04092485801e-10
1.01938789564e-08
5.20919105967e-09
-4.25518635954e-10
1.01121111328e-08
4.87954763373e-09
-2.55333682666e-10
9.98699892669e-09
4.50148486842e-09
9.85102802007e-09
4.08997219353e-09
-3.59307441798e-12
2.62896451324e-10
8.98268626281e-09
3.98351507065e-09
-3.49920048104e-12
4.35403117218e-10
9.06866304464e-09
4.39277466821e-09
5.13854378455e-10
9.15444757554e-09
4.76675034327e-09
5.03334587906e-10
9.2048476949e-09
5.09147758601e-09
4.16736122353e-10
9.23609984808e-09
5.35502498651e-09
2.72181659894e-10
9.2537558817e-09
5.54912030519e-09
9.16903860493e-11
9.26473252351e-09
5.66918556408e-09
-1.00658212925e-10
9.2711795905e-09
5.71136350017e-09
-2.80693902659e-10
9.26597213222e-09
5.66920515184e-09
-4.24365754192e-10
9.25616482387e-09
5.5491694247e-09
-5.0971177016e-10
9.23953097065e-09
5.35511598409e-09
-5.18711274923e-10
9.20907367212e-09
5.09162780109e-09
-4.3863593805e-10
9.15917684985e-09
4.76697701532e-09
-2.64607531199e-10
9.07341787232e-09
4.3930403985e-09
8.98700574314e-09
3.98364671922e-09
-3.8145539299e-12
2.68731599421e-10
8.029412957e-09
3.81016400736e-09
-3.33365443017e-12
4.42987148868e-10
8.07458256811e-09
4.21416594025e-09
5.21983581734e-10
8.12750257743e-09
4.58136328177e-09
5.10841449513e-10
8.15245446883e-09
4.89896328826e-09
4.22743975465e-10
8.16462130822e-09
5.15599142375e-09
2.76051781358e-10
8.16919518479e-09
5.34487187195e-09
9.30481819396e-11
8.17204607652e-09
5.4614074414e-09
-1.01934118302e-10
8.17514665445e-09
5.50213499277e-09
-2.84510375184e-10
8.17302184858e-09
5.46142893134e-09
-4.3037807169e-10
8.17109144865e-09
5.34492540693e-09
-5.17312623507e-10
8.16732184511e-09
5.15609080179e-09
-5.27050304597e-10
8.15578915541e-09
4.89912801512e-09
-4.46551385399e-10
8.13126236323e-09
4.58161236106e-09
-2.7085400043e-10
8.07840499416e-09
4.21445742018e-09
8.03299844426e-09
3.81032911253e-09
-4.0324845265e-12
2.71711101611e-10
7.04053801051e-09
3.58539172209e-09
-3.14551368222e-12
4.45955424395e-10
7.05403619998e-09
3.98244843161e-09
5.24723045846e-10
7.08083794389e-09
4.34154774602e-09
5.13119169292e-10
7.08690779075e-09
4.65100812277e-09
4.24416510322e-10
7.08566356679e-09
4.90079445048e-09
2.77070177581e-10
7.08147885685e-09
5.08399125272e-09
9.34151859888e-11
7.07892596334e-09
5.19672330749e-09
-1.02213979512e-10
7.07963902755e-09
5.23589067928e-09
-2.85475825716e-10
7.07963443251e-09
5.19674325367e-09
-4.32066883278e-10
7.08285329491e-09
5.08404173304e-09
-5.19707221568e-10
7.08762217138e-09
4.90088990492e-09
-5.30029068249e-10
7.08933218267e-09
4.65116942991e-09
-4.49880099939e-10
7.08359418167e-09
4.34179500593e-09
-2.7427055611e-10
7.05686512898e-09
3.98273436055e-09
7.04329162805e-09
3.58555574275e-09
-4.25876241743e-12
2.71833065702e-10
6.05735020835e-09
3.32219532198e-09
-2.93816660163e-12
4.44795294389e-10
6.0472725e-09
3.71172589747e-09
5.22884562475e-10
6.05427990089e-09
4.06232859899e-09
5.10961129362e-10
6.04775676356e-09
4.36333194519e-09
4.22351955582e-10
6.03845770326e-09
4.60564571952e-09
2.75589084831e-10
6.02945273807e-09
4.78301507181e-09
9.2895052419e-11
6.02392680748e-09
4.89186018864e-09
-1.01634844672e-10
6.02313234829e-09
4.92942700068e-09
-2.83974286739e-10
6.02437825565e-09
4.89187403108e-09
-4.30054418878e-10
6.03033082697e-09
4.78305265262e-09
-5.1770587186e-10
6.03970325387e-09
4.60572102801e-09
-5.28466733004e-10
6.0493004274e-09
4.36346634488e-09
-4.49108209545e-10
6.05604816772e-09
4.06254343985e-09
-2.74848935868e-10
6.04909359353e-09
3.71196982527e-09
6.05921115048e-09
3.32231943134e-09
-4.50211754267e-12
2.69158656645e-10
5.11016518088e-09
3.0314620589e-09
-2.7189925546e-12
4.4045607766e-10
5.08191424661e-09
3.41374867294e-09
5.17555080838e-10
5.07519400401e-09
3.7560326472e-09
5.05144437928e-10
5.06221811757e-09
4.04858955137e-09
4.16996235754e-10
5.04974205218e-09
4.28337206245e-09
2.71815921443e-10
5.03927973232e-09
4.45485347492e-09
9.15437723105e-11
5.03281930852e-09
4.55976731437e-09
-1.00277188022e-10
5.03124968496e-09
4.59570931541e-09
-2.80230804519e-10
5.03304025997e-09
4.55976969392e-09
-4.24803282493e-10
5.03970421341e-09
4.45486651511e-09
-5.12091479531e-10
5.05033766716e-09
4.28340779665e-09
-5.23449438639e-10
5.0629455358e-09
4.04866854236e-09
-4.45178324553e-10
5.07603001986e-09
3.75617874843e-09
-2.72640113408e-10
5.08275873514e-09
3.4139120278e-09
5.11111832977e-09
3.0315099339e-09
-4.75151877257e-12
2.65328273462e-10
4.21842516177e-09
2.72239894138e-09
-2.49961758696e-12
4.35488690496e-10
4.17475485673e-09
3.09843300314e-09
5.10295330332e-10
4.16178010918e-09
3.43282049569e-09
4.96259134145e-10
4.14828476983e-09
3.71696009372e-09
4.08469431612e-10
4.13659626729e-09
3.94409860665e-09
2.65733216503e-10
4.12722704991e-09
4.1095626085e-09
8.93278932711e-11
4.12135121888e-09
4.21044967146e-09
-9.81174382305e-11
4.11960780189e-09
4.24472754187e-09
-2.74239710254e-10
4.1213721932e-09
4.21043536757e-09
-4.16432982722e-10
4.12726318038e-09
4.10953964255e-09
-5.03450965753e-10
4.13663090263e-09
3.94407498216e-09
-5.16523956484e-10
4.14830290933e-09
3.71695286225e-09
-4.40623629612e-10
4.16178132843e-09
3.43285669525e-09
-2.6926545338e-10
4.17469609287e-09
3.09847714466e-09
4.21854757734e-09
2.7223455697e-09
-5.01333248751e-12
2.733336583e-10
2.40358339414e-09
-2.26760922087e-12
3.38004294905e-09
4.38355998347e-10
2.77477713214e-09
3.33810418128e-09
5.05268568901e-10
3.10129485517e-09
3.32791767802e-09
4.86316425589e-10
3.37670632614e-09
3.31785908676e-09
3.97788413227e-10
3.59581829607e-09
3.30910769895e-09
2.57813276593e-10
3.75492798576e-09
3.3022890424e-09
8.64014683612e-11
3.85155933065e-09
3.29798199404e-09
-9.53087915425e-11
3.88409067195e-09
3.29647035697e-09
-2.66464568286e-10
3.85152615296e-09
3.29784055355e-09
-4.05950168593e-10
3.75486396315e-09
3.30200439098e-09
-4.93775189942e-10
3.59572560538e-09
3.30867968724e-09
-5.11836501022e-10
3.37659387717e-09
3.31728592959e-09
-4.43876409153e-10
3.10119050529e-09
3.32721244446e-09
-2.7767392552e-10
2.77464763304e-09
3.33726271212e-09
2.40345615411e-09
-5.25914234522e-12
3.37940685489e-09
-4.78633159414e-12
3.11797034641e-10
5.09104728877e-10
3.00424794001e-13
-3.8208332647e-12
3.41811118549e-10
5.62363802937e-10
-2.56922061767e-12
3.75516626206e-10
6.13914974386e-10
-1.6807136813e-12
4.06053093604e-10
6.60804010068e-10
-9.66393103514e-13
4.31442931104e-10
7.00282269165e-10
-3.60673573614e-13
4.50354099801e-10
7.30176970263e-10
2.06055190573e-13
4.62115148708e-10
7.49073205858e-10
7.33656454961e-13
4.66264278974e-10
7.55859373589e-10
1.18644367684e-12
4.61998910787e-10
7.49070166494e-10
1.56782820429e-12
4.50162558402e-10
7.30170560023e-10
1.98915150201e-12
4.31276089573e-10
7.00271877334e-10
2.62357382106e-12
4.06025356654e-10
6.60787939827e-10
3.65493893482e-12
3.75544659799e-10
6.13888775153e-10
4.54376231239e-12
3.41966414768e-10
5.62313145713e-10
3.11766972592e-10
5.08979833744e-10
4.8431260191e-14
-3.30458061538e-12
8.72342639111e-10
1.43853118928e-09
6.29944716295e-13
2.21039291771e-12
9.48262574678e-10
1.59090778003e-09
7.3389532284e-12
1.03191471586e-09
1.73839316909e-09
9.81094694019e-12
1.10770416031e-09
1.87254107405e-09
9.5789414559e-12
1.17010483611e-09
1.98550614027e-09
7.09215656103e-12
1.21624735198e-09
2.07106401382e-09
3.14071624055e-12
1.24486288909e-09
2.1251183425e-09
-1.3729944007e-12
1.25499942306e-09
2.14447224981e-09
-5.56896170768e-12
1.24466260306e-09
2.12511333966e-09
-8.52723198998e-12
1.21591936227e-09
2.07105338676e-09
-9.36301493833e-12
1.1698180752e-09
1.9854872538e-09
-7.43271769344e-12
1.1076629962e-09
1.8725079327e-09
-2.71144844204e-12
1.03205794273e-09
1.73833273553e-09
2.66533874782e-12
9.48582108824e-10
1.5907785414e-09
8.72353167227e-10
1.43822214255e-09
2.73472412358e-14
4.95183943213e-12
1.48235704236e-09
2.21786445816e-09
7.55945638049e-13
1.72411779603e-11
1.60122142733e-09
2.45483476307e-09
2.69904983734e-11
1.73025379093e-09
2.68368856118e-09
3.06963047222e-11
1.84697111689e-09
2.89148512442e-09
2.78960918529e-11
1.94249652291e-09
3.06623402287e-09
1.95619452045e-11
2.01275031351e-09
3.19844629221e-09
7.56263368825e-12
2.05620228145e-09
3.28187548737e-09
-5.77166089558e-12
2.07163473732e-09
3.3116733623e-09
-1.80643568785e-11
2.05600795833e-09
3.28187109468e-09
-2.69562872107e-11
2.01244566348e-09
3.19843614948e-09
-3.04602105466e-11
1.94227054274e-09
3.06621403392e-09
-2.73914268648e-11
1.8470439797e-09
2.89144650528e-09
-1.80804238672e-11
1.73059512265e-09
2.68361290653e-09
-5.91816200059e-12
1.6016946279e-09
2.45466382875e-09
1.48242397928e-09
2.217446409e-09
-1.13675247628e-13
1.69881111415e-11
2.04410603592e-09
2.84044375719e-09
7.28778621678e-13
3.72536683796e-11
2.19623312374e-09
3.14584460322e-09
5.17288527428e-11
2.35886479172e-09
3.43972796041e-09
5.61725786903e-11
2.50546224835e-09
3.70585144093e-09
4.98348720146e-11
2.62481630661e-09
3.92916902111e-09
3.42737402591e-11
2.71214846849e-09
4.09783829856e-09
1.25819944984e-11
2.76601360458e-09
4.20409727148e-09
-1.12944318814e-11
2.78517812777e-09
4.24195542864e-09
-3.32713840081e-11
2.76587128187e-09
4.20409505422e-09
-4.93676389614e-11
2.71194145477e-09
4.09783234832e-09
-5.63720965268e-11
2.62471438435e-09
3.92915513413e-09
-5.25262537203e-11
2.50565403437e-09
3.70582035642e-09
-3.84340755861e-11
2.35935087862e-09
3.43965962987e-09
-1.82321199948e-11
2.19681254417e-09
3.1456733849e-09
2.04422144586e-09
2.839997316e-09
-3.67456055853e-13
3.08711014337e-11
2.50120755007e-09
3.31554421773e-09
6.08872587458e-13
5.92765013625e-11
2.67476495112e-09
3.6739493414e-09
7.81380052681e-11
2.85675812108e-09
4.01721173748e-09
8.2805868843e-11
3.02010712464e-09
4.32695604018e-09
7.24703525234e-11
3.15241636825e-09
4.58614719216e-09
4.93003264313e-11
3.24872068888e-09
4.78147544535e-09
1.76021766157e-11
3.30793501726e-09
4.90428262204e-09
-1.70957269594e-11
3.32902281593e-09
4.94792374052e-09
-4.90389620851e-11
3.30784538902e-09
4.90428383253e-09
-7.26623331488e-11
3.24860827409e-09
4.78147690849e-09
-8.3555377445e-11
3.15241977313e-09
4.58614598735e-09
-7.93722008739e-11
3.02038285676e-09
4.32694457895e-09
-6.07942488213e-11
2.85731119719e-09
4.01717158655e-09
-3.23684747542e-11
2.67541118287e-09
3.67381278588e-09
2.50134054161e-09
3.31512865391e-09
-6.90165501216e-13
4.50181988949e-11
2.8266983285e-09
3.65305189062e-09
4.37676657814e-13
8.11149198466e-11
3.01042030596e-09
4.050237081e-09
1.03724790455e-10
3.19808535936e-09
4.42851163353e-09
1.08156559061e-10
3.36580121305e-09
4.76843049794e-09
9.37537164131e-11
3.50088351487e-09
5.05193588292e-09
6.33030408977e-11
3.59867655811e-09
5.26503521154e-09
2.22096092598e-11
3.65860227846e-09
5.39871081826e-09
-2.25931927624e-11
3.67995314522e-09
5.44608186241e-09
-6.38770956797e-11
3.6585530656e-09
5.39871613123e-09
-9.46746808199e-11
3.59863162065e-09
5.26504604561e-09
-1.09494734391e-10
3.50094798474e-09
5.05195169624e-09
-1.05408288391e-10
3.36609563535e-09
4.76844700437e-09
-8.29594017048e-11
3.19862348102e-09
4.42851429469e-09
-4.67685982628e-11
3.01102746885e-09
4.05015824642e-09
2.8268347252e-09
3.65270139602e-09
-1.0507484672e-12
5.82542188194e-11
3.01434198769e-09
3.8643852012e-09
2.52859396884e-13
1.01185117582e-10
3.19870223104e-09
4.28781930865e-09
1.26744538921e-10
3.38076661422e-09
4.68858196991e-09
1.30553497203e-10
3.54272976746e-09
5.04705402347e-09
1.12308836797e-10
3.67234633401e-09
5.34496191781e-09
7.53920447466e-11
3.76564846856e-09
5.56826223068e-09
2.61290921478e-11
3.82261020633e-09
5.70799137916e-09
-2.74071980225e-11
3.84290114787e-09
5.7573548912e-09
-7.68036941802e-11
3.82257879453e-09
5.7080005104e-09
-1.13958876814e-10
3.76562658218e-09
5.56828226418e-09
-1.32478732676e-10
3.67241382392e-09
5.34499538668e-09
-1.28874562965e-10
3.54297867239e-09
5.04710098311e-09
-1.03356118901e-10
3.38122623292e-09
4.68863301516e-09
-6.02563385673e-11
3.1992081644e-09
4.28780714318e-09
3.01443954406e-09
3.86411335962e-09
-1.43117796007e-12
6.97703208015e-11
3.07176275531e-09
3.96242001119e-09
7.37951096122e-14
1.18430467376e-10
3.24956421458e-09
4.40159470218e-09
1.46066523392e-10
3.41790695786e-09
4.81450557807e-09
1.48952697924e-10
3.56683245401e-09
5.18205097341e-09
1.27301051085e-10
3.68512954056e-09
5.48636124875e-09
8.50373701979e-11
3.76976120481e-09
5.71380594416e-09
2.91957789179e-11
3.82122226873e-09
5.85575830019e-09
-3.13181894539e-11
3.83953761887e-09
5.90573264609e-09
-8.72413573539e-11
3.82118786206e-09
5.85576966688e-09
-1.29644702423e-10
3.76972306196e-09
5.71383215991e-09
-1.51443589633e-10
3.6851468777e-09
5.4864082102e-09
-1.48633269963e-10
3.56697632554e-09
5.18212357414e-09
-1.20932486587e-10
3.41821522999e-09
4.81460000954e-09
-7.202986085e-11
3.24990035418e-09
4.4016434537e-09
3.0717394257e-09
3.96222272551e-09
-1.81790430405e-12
7.90779272649e-11
3.01510883702e-09
3.96100012019e-09
-9.00247886612e-14
1.32204016502e-10
3.18152254263e-09
4.40755929722e-09
1.61032266396e-10
3.33118222673e-09
4.82455821995e-09
1.62795304369e-10
3.46259652476e-09
5.19389032993e-09
1.3831608043e-10
3.56604340995e-09
5.49852563132e-09
9.19901514051e-11
3.63955195023e-09
5.72555818519e-09
3.13336834369e-11
3.68405505543e-09
5.86686914593e-09
-3.42284976233e-11
3.69986556307e-09
5.91641964886e-09
-9.49229719595e-11
3.6840005017e-09
5.86687962772e-09
-1.41306109289e-10
3.63946579696e-09
5.72558425951e-09
-1.65825664163e-10
3.56596929417e-09
5.49857649641e-09
-1.64029355332e-10
3.46259157714e-09
5.19397580794e-09
-1.35043856375e-10
3.33129002066e-09
4.82468014349e-09
-8.16102600001e-11
3.1816303639e-09
4.40764929e-09
3.01490764111e-09
3.96085821298e-09
-2.2022033117e-12
8.59617277356e-11
2.86507672285e-09
3.87433299011e-09
-2.30140316524e-13
1.42188467305e-10
3.01733090446e-09
4.32203220732e-09
1.71374440067e-10
3.14604094631e-09
4.73723286431e-09
1.71921575654e-10
3.25783655595e-09
5.10309838175e-09
1.45286174775e-10
3.344861634e-09
5.40371933921e-09
9.62330437821e-11
3.40624818136e-09
5.62711250232e-09
3.25420377083e-11
3.44324244258e-09
5.76576237208e-09
-3.61359608333e-11
3.45634432617e-09
5.81415659205e-09
-9.98304340206e-11
3.44315799796e-09
5.76576722604e-09
-1.48875770609e-10
3.40609568978e-09
5.6271286639e-09
-1.75466321868e-10
3.34467150425e-09
5.40375895007e-09
-1.74797283234e-10
3.25765300497e-09
5.1031760417e-09
-1.45375838082e-10
3.14590836995e-09
4.7373560634e-09
-8.87807947177e-11
3.01715695105e-09
4.32213153333e-09
2.86462485145e-09
3.87421471879e-09
-2.58049628058e-12
9.0421008469e-11
2.64386885643e-09
3.71643246071e-09
-3.48514712925e-13
1.48358857247e-10
2.78077287995e-09
4.16098820443e-09
1.77192985261e-10
2.88822855558e-09
4.57044090925e-09
1.76558644928e-10
2.98006570444e-09
4.92932296874e-09
1.48480560644e-10
3.0506075932e-09
5.2230218542e-09
9.7974122087e-11
3.10000376917e-09
5.44061445756e-09
3.28958045937e-11
3.1296411847e-09
5.57525036008e-09
-3.71229476403e-11
3.14008564923e-09
5.62199369359e-09
-1.02178249547e-10
3.12952392268e-09
5.57524334269e-09
-1.5262752244e-10
3.09977936407e-09
5.44060774756e-09
-1.80595305016e-10
3.05029525612e-09
5.22302991331e-09
-1.81037387368e-10
2.97969599349e-09
4.92936492223e-09
-1.5190197742e-10
2.88784053401e-09
4.57053032665e-09
-9.35404065047e-11
2.78028651664e-09
4.16105544995e-09
2.64311850817e-09
3.71629640088e-09
-2.94899963511e-12
9.26212593545e-11
2.37311814248e-09
3.50068704553e-09
-4.48936981237e-13
1.51009919014e-10
2.49445680558e-09
3.93958147779e-09
1.7904453326e-10
2.58147051457e-09
4.34096868917e-09
1.77419535241e-10
2.65420858146e-09
4.69071815647e-09
1.485779458e-10
2.70932424055e-09
4.97565844281e-09
9.76889600068e-11
2.74771309389e-09
5.18606006767e-09
3.25623129294e-11
2.77067370323e-09
5.31580226858e-09
-3.73645868884e-11
2.77869989903e-09
5.36056895621e-09
-1.02447599197e-10
2.77052607267e-09
5.31577608857e-09
-1.53240976137e-10
2.74742232855e-09
5.18601523424e-09
-1.81921696537e-10
2.70889654341e-09
4.97561078743e-09
-1.83298246257e-10
2.65366147819e-09
4.69069095746e-09
-1.54907369825e-10
2.58083141075e-09
4.3409829076e-09
-9.60438442201e-11
2.49365639254e-09
3.93957014225e-09
2.37205470431e-09
3.50048670425e-09
-3.30547208302e-12
9.29258259854e-11
2.0725312008e-09
3.23957567862e-09
-5.31046027973e-13
1.50987810759e-10
2.17820025555e-09
3.67187397435e-09
1.78254694157e-10
2.24598503928e-09
4.06416768815e-09
1.75963809155e-10
2.30139086713e-09
4.40360024678e-09
1.46838174321e-10
2.34304834367e-09
4.67865563177e-09
9.62166609345e-11
2.37208728209e-09
4.88097139774e-09
3.18317041813e-11
2.38943322216e-09
5.00524044793e-09
-3.71533206867e-11
2.39542437552e-09
5.04781311856e-09
-1.01476445592e-10
2.38925931289e-09
5.00518776274e-09
-1.51970288787e-10
2.37173826763e-09
4.88087287609e-09
-1.80891172839e-10
2.34252266266e-09
4.67852699975e-09
-1.82886333994e-10
2.3006870347e-09
4.40346794214e-09
-1.55214659421e-10
2.24511523369e-09
4.06406237023e-09
-9.66319305796e-11
2.17709524383e-09
3.6717389642e-09
2.0711496854e-09
3.2392708672e-09
-3.62661518032e-12
9.18958466713e-11
1.75903457376e-09
2.94450638123e-09
-5.99984051672e-13
1.49982453576e-10
1.84774242415e-09
3.37072964275e-09
1.77248840145e-10
1.89769561597e-09
3.75375810474e-09
1.74612151167e-10
1.93865963991e-09
4.0822302057e-09
1.45233062353e-10
1.96973766392e-09
4.34667922951e-09
9.48217233773e-11
1.99162240064e-09
4.54030874905e-09
3.11465701123e-11
2.00471559105e-09
4.65870866184e-09
-3.69260627183e-11
2.00913532668e-09
4.69893853954e-09
-1.00520629161e-10
2.00451702903e-09
4.6586239005e-09
-1.50769008994e-10
1.99122083659e-09
4.54014440859e-09
-1.79901559342e-10
1.96912293918e-09
4.34644870715e-09
-1.8219646072e-10
1.93782048102e-09
4.08196005113e-09
-1.5448598135e-10
1.8966250388e-09
3.75348958508e-09
-9.58406020015e-11
1.84636075063e-09
3.37043215281e-09
1.75737054902e-09
2.944076852e-09
-3.91575607287e-12
8.44481093712e-11
2.62546834193e-09
-6.64283628143e-13
1.45326162896e-09
1.48545658337e-10
3.04750807748e-09
1.51083559552e-09
1.78253655904e-10
3.42119247266e-09
1.54800605589e-09
1.75921332952e-10
3.73833175417e-09
1.57926960791e-09
1.46035232373e-10
3.9918123215e-09
1.60352162146e-09
9.50789355189e-11
4.17647800481e-09
1.62091400592e-09
3.106276681e-11
4.28882939264e-09
1.63133458772e-09
-3.72243735505e-11
4.32664904386e-09
1.63473636633e-09
-1.01136263196e-10
4.2887126438e-09
1.63110244154e-09
-1.51886444417e-10
4.17624752713e-09
1.62044770539e-09
-1.81470365509e-10
3.99147713569e-09
1.60280948397e-09
-1.83407350761e-10
3.73791270351e-09
1.57829582807e-09
-1.53210218669e-10
3.42073763479e-09
1.54674559468e-09
-8.85333878106e-11
3.04699707321e-09
1.50920834615e-09
2.62496399719e-09
-4.11297374393e-12
1.45132524348e-09
6.36508585962e-12
-1.51436833781e-11
5.17623398318e-10
2.21818286308e-14
1.14336581827e-11
-1.73310944717e-11
5.74509375797e-10
1.43556709289e-11
-1.9016818023e-11
6.29873288265e-10
1.47754071003e-11
-2.01629998731e-11
6.80544120003e-10
1.26119767608e-11
-2.11365930419e-11
7.23447622355e-10
8.34710753225e-12
-2.18891435854e-11
7.56082394363e-10
2.73888705396e-12
-2.23483506723e-11
7.76763151392e-10
-3.32232796224e-12
-2.2497139031e-11
7.84182602703e-10
-8.88326543885e-12
-2.2330274972e-11
7.7675593524e-10
-1.3074109873e-11
-2.18896872491e-11
7.56067504726e-10
-1.51891380048e-11
-2.12059508584e-11
7.23423628844e-10
-1.47817353135e-11
-2.02865886768e-11
6.80507902937e-10
-1.18228663558e-11
-1.90418172791e-11
6.29819595444e-10
-6.72184285254e-12
-1.73575086492e-11
5.74424932828e-10
-1.51159563982e-11
5.17468999921e-10
-2.31880340131e-13
1.56446816508e-11
1.4815539643e-11
1.39250645733e-09
1.0624800202e-13
2.8559228271e-11
1.65992905323e-11
1.54384729395e-09
3.62767903231e-11
2.05443955743e-11
1.69098933557e-09
3.75532568083e-11
2.54935218263e-11
1.82552866668e-09
3.22246428765e-11
3.00841830189e-11
1.93936364765e-09
2.14115327886e-11
3.36981412304e-11
2.02590616386e-09
7.04167934657e-12
3.60311383974e-11
2.0807080892e-09
-8.54198320379e-12
3.68697748233e-11
2.10032613287e-09
-2.2820412612e-11
3.60518223678e-11
2.08068719696e-09
-3.34941958502e-11
3.36827714064e-11
2.02586328663e-09
-3.87318524858e-11
2.99539738807e-11
1.93929486514e-09
-3.74569674824e-11
2.52663783015e-11
1.82542539011e-09
-2.9678647321e-11
2.04337956022e-11
1.69083649052e-09
-1.66409830095e-11
1.65463892021e-11
1.54360840987e-09
1.481119675e-11
1.39209575655e-09
-6.53737068367e-13
2.22564219361e-11
1.00756134787e-10
2.10919783668e-09
2.0455791037e-13
4.09682244405e-11
1.13449487475e-10
2.33906189428e-09
5.23706397171e-11
1.30530473589e-10
2.56219917785e-09
5.44322515774e-11
1.48802572261e-10
2.76602010096e-09
4.68809799706e-11
1.65274309336e-10
2.93836148719e-09
3.12384085792e-11
1.78120872935e-10
3.06931767881e-09
1.02891838e-11
1.86316843227e-10
3.15217353181e-09
-1.24871551571e-11
1.89220068852e-10
3.18176484109e-09
-3.33365311907e-11
1.86330655477e-10
3.15214137855e-09
-4.8830571212e-11
1.78088318468e-10
3.06925168758e-09
-5.62851793888e-11
1.65113064089e-10
2.93825580775e-09
-5.42105483782e-11
1.48536474904e-10
2.7658623507e-09
-4.27313096804e-11
1.30372248238e-10
2.56196778517e-09
-2.38244692181e-11
1.13383768368e-10
2.33870597252e-09
1.00673575587e-10
2.10860140937e-09
-1.03855453476e-12
2.72848710355e-11
2.25078473364e-10
2.68831855848e-09
2.87571664359e-13
5.04148518092e-11
2.52649324021e-10
2.98337293325e-09
6.46757390226e-11
2.86812014988e-10
3.26910832458e-09
6.74202388887e-11
3.22082491773e-10
3.52971854949e-09
5.82301766967e-11
3.53563652255e-10
3.74985247343e-09
3.88828314769e-11
3.7801449119e-10
3.91699346111e-09
1.2804970309e-11
3.93546388327e-10
4.02263126793e-09
-1.56078973277e-11
3.99023842291e-10
4.06026834556e-09
-4.15934808097e-11
3.9354963264e-10
4.0225903728e-09
-6.08042339994e-11
3.77970633512e-10
3.91690996952e-09
-6.98975995471e-11
3.53406939199e-10
3.74971949625e-09
-6.71166310093e-11
3.21830640067e-10
3.52952199336e-09
-5.27504338577e-11
2.86629491593e-10
3.26882414633e-09
-2.93767313848e-11
2.52541260859e-10
2.98294377887e-09
2.24911223007e-10
2.68761382849e-09
-1.41185859048e-12
3.14455861857e-11
3.68882143937e-10
3.13974631474e-09
3.43057362673e-13
5.80023655938e-11
4.12285084108e-10
3.4876635755e-09
7.44419953434e-11
4.63999327255e-10
3.82350818862e-09
7.77002745495e-11
5.16497039366e-10
4.12918142268e-09
6.72167645235e-11
5.63008330725e-10
4.38699369495e-09
4.49324980408e-11
5.98994487923e-10
4.58251789087e-09
1.47632489913e-11
6.21788942313e-10
4.70593041333e-09
-1.81560905412e-11
6.29811077196e-10
4.74978828901e-09
-4.82423005186e-11
6.21788172909e-10
4.70588230271e-09
-7.04003159737e-11
5.98952522879e-10
4.58242040081e-09
-8.07792712425e-11
5.62871851586e-10
4.38684039827e-09
-7.74497900626e-11
5.16277770005e-10
4.12895920523e-09
-6.08613750016e-11
4.63820497686e-10
3.82319423586e-09
-3.40165634466e-11
4.12125935463e-10
3.48719864687e-09
3.68640826501e-10
3.13899220544e-09
-1.78008189021e-12
3.51652816888e-11
5.1380333569e-10
3.47245380393e-09
3.69295431595e-13
6.44032399382e-11
5.71429410407e-10
3.86178131287e-09
8.24331173282e-11
6.38343917664e-10
4.23608200225e-09