/*--------------------------------*- C++ -*----------------------------------*\
  =========                 |
  \\      /  F ield         | OpenFOAM: The Open Source CFD Toolbox
   \\    /   O peration     | Website:  https://openfoam.org
    \\  /    A nd           | Version:  7
     \\/     M anipulation  |
\*---------------------------------------------------------------------------*/
FoamFile
{
    version     2.0;
    format      ascii;
    class       surfaceScalarField;
    location    "1.4";
    object      phi;
}
// * * * * * * * * * * * * * * * * * * * * * * * * * * * * * * * * * * * * * //

dimensions      [0 3 -1 0 0 0 0];

internalField   nonuniform List<scalar> 
65775
(
1.52147191767e-11
2.53547881948e-09
3.58713542823e-10
-3.99933417924e-14
2.31389640964e-11
2.65495353239e-09
3.97086609169e-10
2.73420155478e-11
2.75765334145e-09
4.33596789448e-10
2.67690988522e-11
2.84628842656e-09
4.66435346882e-10
2.22751430029e-11
2.91692575253e-09
4.93913745029e-10
1.46649023796e-11
2.96860171958e-09
5.14652146598e-10
5.0864782307e-12
3.00106921767e-09
5.27744120688e-10
-5.18591452979e-12
3.01336392401e-09
5.32448129295e-10
-1.47600518927e-11
3.00109375465e-09
5.27744315806e-10
-2.23619952339e-11
2.96864964348e-09
5.14652488322e-10
-2.68423564809e-11
2.91699587885e-09
4.93914136906e-10
-2.73978772667e-11
2.84637340307e-09
4.6643562842e-10
-2.31724976683e-11
2.75774706498e-09
4.33596639227e-10
-1.52310112286e-11
2.65503607201e-09
3.97084801077e-10
2.53552520108e-09
3.58705686063e-10
-4.12080740577e-14
4.08672388997e-11
4.35622339342e-09
9.10170558232e-10
-1.02039663218e-13
6.79893546196e-11
4.54566707342e-09
1.00385973947e-09
8.05536344168e-11
4.70909050489e-09
1.09233395679e-09
7.94688470603e-11
4.84801949504e-09
1.17142732371e-09
6.629133415e-11
4.95820925467e-09
1.23727184017e-09
4.37084761135e-11
5.03835620819e-09
1.2867754832e-09
1.51570475909e-11
5.08865457802e-09
1.31795111674e-09
-1.54238363819e-11
5.10779725507e-09
1.32913939408e-09
-4.39636865837e-11
5.08870991506e-09
1.31795151392e-09
-6.65235223247e-11
5.03846447313e-09
1.28677617982e-09
-7.96652116007e-11
4.95836641898e-09
1.23727260848e-09
-8.07026872117e-11
4.84821254868e-09
1.17142777944e-09
-6.80824700376e-11
4.70930214872e-09
1.09233322923e-09
-4.09118939546e-11
4.54586030154e-09
1.00385450122e-09
4.35634839768e-09
9.1015115864e-10
-1.06842970985e-13
6.28978924596e-11
5.60050251128e-09
1.32701958766e-09
-1.38113885178e-13
1.05980365242e-10
5.82427380257e-09
1.46182148403e-09
1.25426380059e-10
6.0185459247e-09
1.58840685295e-09
1.23680855632e-10
6.18076492948e-09
1.70108231399e-09
1.03089237098e-10
6.30873224542e-09
1.7945514319e-09
6.79277559576e-11
6.40119232379e-09
1.8646353512e-09
2.35504150989e-11
6.4591331899e-09
1.90868067799e-09
-2.39340480782e-11
6.48130641225e-09
1.92445544782e-09
-6.82949159263e-11
6.45921014545e-09
1.90868105672e-09
-1.03423559005e-10
6.4013425182e-09
1.86463602555e-09
-1.23965248829e-10
6.30894916612e-09
1.79455214613e-09
-1.25644951795e-10
6.1810324452e-09
1.70108260313e-09
-1.0612329753e-10
6.01883866505e-09
1.58840559071e-09
-6.29724548224e-11
5.82454565446e-09
1.46181421586e-09
5.60068897216e-09
1.32699342071e-09
-1.56371950782e-13
8.2382150743e-11
6.37526428862e-09
1.6394527109e-09
-1.62565620449e-13
1.38458535906e-10
6.60826774919e-09
1.80525950799e-09
1.63715423946e-10
6.81146890905e-09
1.9601052647e-09
1.61175146653e-10
6.97804490076e-09
2.09735675417e-09
1.34183849656e-10
7.1084875457e-09
2.21082643642e-09
8.83381462075e-11
7.20202606887e-09
2.29568662416e-09
3.06167488878e-11
7.26052860922e-09
2.34890591692e-09
-3.10903311131e-11
7.28306017355e-09
2.36792191937e-09
-8.87914654205e-11
7.26061751507e-09
2.3489064442e-09
-1.3459681393e-10
7.20219952496e-09
2.2956876077e-09
-1.61527756435e-10
7.1087369301e-09
2.21082763699e-09
-1.63989768206e-10
6.97835252192e-09
2.09735772718e-09
-1.38644096187e-10
6.81180683369e-09
1.96010484807e-09
-8.24863208993e-11
6.60858643683e-09
1.8052528942e-09
6.3754968e-09
1.63942580078e-09
-1.98274178651e-13
9.92244382868e-11
6.77156859706e-09
1.86346205447e-09
-1.77852820641e-13
1.66065714806e-10
6.99640740242e-09
2.0521660139e-09
1.96191657275e-10
7.19320404948e-09
2.22739737897e-09
1.92857174532e-10
7.35144612016e-09
2.38204023358e-09
1.60386834783e-10
7.47421147084e-09
2.50944168984e-09
1.05503368592e-10
7.56148177227e-09
2.60446568247e-09
3.65553055366e-11
7.6159290415e-09
2.66392445812e-09
-3.70968293373e-11
7.63705555068e-09
2.68511366751e-09
-1.06021838881e-10
7.6160222656e-09
2.6639252694e-09
-1.60859648162e-10
7.56166331318e-09
2.60446728067e-09
-1.93262558525e-10
7.47447180946e-09
2.50944390392e-09
-1.96511080398e-10
7.35176718798e-09
2.38204271632e-09
-1.66288667144e-10
7.19355897737e-09
2.22739911707e-09
-9.93580058412e-11
6.99674574756e-09
2.05216226507e-09
6.77182650833e-09
1.86343854429e-09
-2.34703371405e-13
1.1367916416e-10
6.86730799911e-09
2.01195894514e-09
-1.85934754703e-13
1.89389679905e-10
7.07265976061e-09
2.21700030852e-09
2.23489892804e-10
7.25305437208e-09
2.40628342503e-09
2.19366968786e-10
7.39512405578e-09
2.5725624066e-09
1.82241553282e-10
7.50408451976e-09
2.7090525896e-09
1.19788917932e-10
7.58076453593e-09
2.81057069877e-09
4.14938510224e-11
7.62845920143e-09
2.8739384409e-09
-4.20858972756e-11
7.64712743856e-09
2.89645245312e-09
-1.20356125345e-10
7.62854959335e-09
2.87393961044e-09
-1.82759739111e-10
7.58094047569e-09
2.81057307989e-09
-2.19813636514e-10
7.5043362655e-09
2.70905612384e-09
-2.23846602044e-10
7.39543461542e-09
2.5725669241e-09
-1.8964690861e-10
7.25339928678e-09
2.40628819284e-09
-1.13842813478e-10
7.07299362328e-09
2.217000798e-09
6.86757170895e-09
2.0119409318e-09
-2.66721185155e-13
1.26070137091e-10
6.72913499027e-09
2.09586146022e-09
-1.88603757089e-13
2.08999530692e-10
6.9085417566e-09
2.31196776658e-09
2.46236132167e-10
7.06676230667e-09
2.51026064788e-09
2.4131916206e-10
7.1885387426e-09
2.68362740682e-09
2.00262465416e-10
7.2806415564e-09
2.8254026315e-09
1.31537063991e-10
7.34470538141e-09
2.93054691668e-09
4.55510270015e-11
7.38440731639e-09
2.99600729408e-09
-4.61806343764e-11
7.40010685273e-09
3.01918424776e-09
-1.32140894344e-10
7.38448951005e-09
2.99600882228e-09
-2.00815676909e-10
7.34486526633e-09
2.93055009484e-09
-2.41799235947e-10
7.28086992939e-09
2.82540754798e-09
-2.46625352614e-10
7.18882068009e-09
2.68363412807e-09
-2.09289180891e-10
7.06707714042e-09
2.51026879005e-09
-1.26265082988e-10
6.90884973807e-09
2.31197298764e-09
6.72938520611e-09
2.09584960044e-09
-2.96074339235e-13
1.36620694133e-10
6.41397084197e-09
2.12467769698e-09
-1.86965416997e-13
2.25342992814e-10
6.56472788513e-09
2.34768440575e-09
2.64976642826e-10
6.69824270893e-09
2.5510606372e-09
2.59273405707e-10
6.7983612209e-09
2.72801189806e-09
2.14928499653e-10
6.87282140341e-09
2.87216928783e-09
1.41068921182e-10
6.92392118533e-09
2.97876667268e-09
4.88383821298e-11
6.95545354819e-09
3.0449486366e-09
-4.9496578115e-11
6.9680727521e-09
3.06828786219e-09
-1.41701153744e-10
6.95552336066e-09
3.04495043803e-09
-2.15510043174e-10
6.92405682752e-09
2.97877048319e-09
-2.59782216359e-10
6.8730149782e-09
2.87217536341e-09
-2.65396016275e-10
6.79860030115e-09
2.72802057508e-09
-2.25664934191e-10
6.69851124981e-09
2.55107189607e-09
-1.36848545387e-10
6.56499269432e-09
2.34769398244e-09
6.41419108448e-09
2.12467153692e-09
-3.23621850335e-13
1.45482423407e-10
5.97017811239e-09
2.10681681921e-09
-1.82167062425e-13
2.38776991627e-10
6.09231795433e-09
2.33351925613e-09
2.80194748612e-10
6.2009496264e-09
2.53901681037e-09
2.73747947706e-10
6.2799923521e-09
2.71695026122e-09
2.26692287938e-10
6.33762024779e-09
2.86136072722e-09
1.4868964086e-10
6.37657302539e-09
2.96783292013e-09
5.14621073155e-11
6.40049413055e-09
3.03374550733e-09
-5.21435959643e-11
6.41020006089e-09
3.05688368003e-09
-1.49345643296e-10
6.40054883581e-09
3.03374740258e-09
-2.27298727323e-10
6.37667915259e-09
2.96783700213e-09
-2.74283720826e-10
6.33777146336e-09
2.8613674245e-09
-2.80644067294e-10
6.28017931073e-09
2.7169601903e-09
-2.39132358729e-10
6.20116072092e-09
2.53903029739e-09
-1.45744960325e-10
6.09252690659e-09
2.33353199178e-09
5.97035363319e-09
2.10681500351e-09
-3.50383204281e-13
1.52767279718e-10
5.4385321489e-09
2.04975276776e-09
-1.75218549478e-13
2.4960921957e-10
5.53391907361e-09
2.27776978083e-09
2.92350235235e-10
5.61906626605e-09
2.48324799913e-09
2.8525231136e-10
5.67890461297e-09
2.66032186599e-09
2.36001410686e-10
5.72156929165e-09
2.80350372372e-09
1.54699887864e-10
5.74994823198e-09
2.90876646976e-09
5.35265778322e-11
5.76728644677e-09
2.97373294924e-09
-5.42293199748e-11
5.77442703468e-09
2.99642015733e-09
-1.55378138676e-10
5.76732462068e-09
2.97373465947e-09
-2.36632162029e-10
5.75002208769e-09
2.90877025362e-09
-2.85815566031e-10
5.7216741218e-09
2.80351017044e-09
-2.92831071383e-10
5.67903407194e-09
2.66033186455e-09
-2.50000046569e-10
5.6192131753e-09
2.48326219596e-09
-1.53066856859e-10
5.53406348809e-09
2.27778373084e-09
5.43865292399e-09
2.04975319147e-09
-3.77104279892e-13
1.58550898883e-10
4.85310743066e-09
1.96011335853e-09
-1.66859047151e-13
2.58135730872e-10
4.9245958624e-09
2.18775889419e-09
3.01929337504e-10
4.98857905331e-09
2.39176160556e-09
2.94323218493e-10
5.03189008983e-09
2.56675670855e-09
2.43315881037e-10
5.06212530471e-09
2.7077497942e-09
1.59401666089e-10
5.08194727896e-09
2.81111222779e-09
5.51354800612e-11
5.0939928832e-09
2.87470447516e-09
-5.58602084907e-11
5.09901888025e-09
2.89678051868e-09
-1.60103244962e-10
5.09401438041e-09
2.87470562372e-09
-2.43972645581e-10
5.08198840554e-09
2.81111493595e-09
-2.94916299169e-10
5.06218296905e-09
2.70775478076e-09
-3.02444381771e-10
5.03196052687e-09
2.56676511615e-09
-2.58564607329e-10
4.98865889438e-09
2.39177439929e-09
-1.58889751491e-10
4.92467090015e-09
2.18777147848e-09
4.85316648365e-09
1.96011329584e-09
-4.04567831504e-13
1.62871022613e-10
4.24210481797e-09
1.84373659924e-09
-1.571940941e-13
2.64741299995e-10
4.29264749479e-09
2.06990488858e-09
3.09548742014e-10
4.33826688212e-09
2.2715336714e-09
3.01577389503e-10
4.36827571124e-09
2.44372015549e-09
2.49120807736e-10
4.38901252661e-09
2.58196322534e-09
1.63096120104e-10
4.40249485392e-09
2.68303058434e-09
5.63895282357e-11
4.41063005873e-09
2.74500624089e-09
-5.71390823896e-11
4.41403175038e-09
2.7663781018e-09
-1.63824085834e-10
4.41063565915e-09
2.74500637058e-09
-2.49806824913e-10
4.40250498072e-09
2.68303126238e-09
-3.02203696121e-10
4.38902501216e-09
2.58196524247e-09
-3.10101166269e-10
4.36828888415e-09
2.44372487661e-09
-2.6521073824e-10
4.33828018384e-09
2.27154243943e-09
-1.63250964664e-10
4.29265163409e-09
2.06991309835e-09
4.24209803638e-09
1.8437329257e-09
-4.33320942473e-13
1.6592317212e-10
3.628434142e-09
1.70571646869e-09
-1.46537864022e-13
2.70247471735e-10
3.66015956797e-09
1.92979587095e-09
3.16133159674e-10
3.6907745044e-09
2.12859533055e-09
3.07730614615e-10
3.71120761383e-09
2.29760249916e-09
2.53886491522e-10
3.72552920015e-09
2.43281583274e-09
1.66045104901e-10
3.73484555012e-09
2.53139917486e-09
5.7372606762e-11
3.74038717145e-09
2.59164454635e-09
-5.81511592553e-11
3.74263617047e-09
2.6122661251e-09
-1.66803438388e-10
3.74037863538e-09
2.5916431688e-09
-2.54605718737e-10
3.73482765499e-09
2.53139678671e-09
-3.08393619549e-10
3.72550071475e-09
2.4328131978e-09
-3.16725720665e-10
3.71116782243e-09
2.29760112897e-09
-2.70759150376e-10
3.69072471708e-09
2.12859707983e-09
-1.66344880055e-10
3.66009436742e-09
1.92979660808e-09
3.62836048597e-09
1.70570632739e-09
-4.6164251055e-13
1.68940891418e-10
3.02937503618e-09
1.5504482558e-09
-1.35044601266e-13
2.76393962722e-10
3.04384533576e-09
1.77229795628e-09
3.22790639194e-10
3.06419163739e-09
1.96813361102e-09
3.13286629663e-10
3.07902697462e-09
2.13381221046e-09
2.57813033365e-10
3.08969609655e-09
2.26588821548e-09
1.68325180857e-10
3.09667053675e-09
2.36192649929e-09
5.81042891612e-11
3.10071862997e-09
2.42040898739e-09
-5.89161442072e-11
3.1022245444e-09
2.44026442003e-09
-1.69117965655e-10
3.10069792139e-09
2.42040568733e-09
-2.58568773448e-10
3.09662875045e-09
2.36192014189e-09
-3.13988763025e-10
3.08963248457e-09
2.26587938177e-09
-3.23424410841e-10
3.07894126001e-09
2.13380234402e-09
-2.76947836676e-10
3.0640852396e-09
1.96812513666e-09
-1.69403335375e-10
3.04371521764e-09
1.77228828039e-09
3.02923934624e-09
1.55042987068e-09
-4.90164779036e-13
1.77242079065e-10
1.38198428931e-09
-1.22320156204e-13
2.45283865656e-09
2.86578517507e-10
1.60199790059e-09
2.4577505237e-09
3.30897178502e-10
1.79473164846e-09
2.47404543246e-09
3.18771492431e-10
1.95694324355e-09
2.48633199074e-09
2.61160382971e-10
2.08580098449e-09
2.49518007422e-09
1.7008157817e-10
2.17925914715e-09
2.50110701452e-09
5.86348987734e-11
2.23596452945e-09
2.50451157702e-09
-5.94833272773e-11
2.25504637929e-09
2.50561243107e-09
-1.70911327568e-10
2.23595922268e-09
2.50448068384e-09
-2.6195391388e-10
2.17924860507e-09
2.50104503222e-09
-3.19512340701e-10
2.08578545666e-09
2.49508691731e-09
-3.31570280894e-10
1.95692370742e-09
2.48620756679e-09
-2.87170425706e-10
1.79471086514e-09
2.47389056401e-09
-1.77739801334e-10
1.60197371899e-09
2.45756368602e-09
1.38196046093e-09
-5.15702403941e-13
2.45264553471e-09
-3.17055017095e-12
1.33422548116e-10
2.28439899857e-10
7.36524926619e-15
-3.89288117415e-12
1.46236718173e-10
2.51549163265e-10
-3.9046938527e-12
1.60180672802e-10
2.73416567508e-10
-3.52245712078e-12
1.72997884666e-10
2.93048918142e-10
-2.79918830935e-12
1.837455458e-10
3.09448929516e-10
-1.80305583407e-12
1.9185031947e-10
3.21810070399e-10
-6.2058784262e-13
1.96950309537e-10
3.29610104403e-10
6.27902130684e-13
1.98773685041e-10
3.32418516264e-10
1.80649007181e-12
1.96944440421e-10
3.29609669839e-10
2.79496942843e-12
1.91840778911e-10
3.21809180089e-10
3.50870991296e-12
1.83737553334e-10
3.09447534518e-10
3.88428192182e-12
1.72997233241e-10
2.93046882764e-10
3.86787020545e-12
1.60183303663e-10
2.73413513562e-10
3.1469772371e-12
1.46245653949e-10
2.51543946654e-10
1.33420405815e-10
2.28428926585e-10
-1.22458166624e-14
-4.87121029952e-12
3.89849537712e-10
6.58566163667e-10
1.99750292816e-14
-5.81745170052e-12
4.24345137155e-10
7.266663499e-10
-5.4250019782e-12
4.60958187332e-10
7.91145268264e-10
-4.54511832321e-12
4.94499792685e-10
8.49040172299e-10
-3.40640078189e-12
5.22467091495e-10
8.97417014075e-10
-2.11180170084e-12
5.43443473498e-10
9.33891323118e-10
-7.17424529587e-13
5.56607226729e-10
9.56894865558e-10
7.16179020884e-13
5.61318793508e-10
9.65147038262e-10
2.1015300586e-12
5.56597240171e-10
9.56893728317e-10
3.37879782559e-12
5.43427641364e-10
9.33888967172e-10
4.49623520607e-12
5.22454564169e-10
8.97413259994e-10
5.35986518742e-12
4.94501035878e-10
8.49034592113e-10
5.74375693189e-12
4.60969845015e-10
7.91136799538e-10
4.80175947045e-12
4.24364924272e-10
7.26651763763e-10
3.8984897406e-10
6.58537449295e-10
-3.73491438307e-14
-3.35919367503e-12
6.88676732908e-10
1.03150146947e-09
2.22989984389e-14
-3.18203605528e-12
7.46003925208e-10
1.1399584628e-09
-1.955792279e-12
8.05647512913e-10
1.24247350938e-09
-8.01322034802e-13
8.60035474535e-10
1.33438800661e-09
-8.36890889444e-14
9.05194920978e-10
1.41110962142e-09
1.60208431079e-13
9.38927384045e-10
1.46890907626e-09
7.38311593426e-14
9.60047036363e-10
1.50532117007e-09
-1.18609300852e-13
9.67607044778e-10
1.51834603761e-09
-2.15606595474e-13
9.6003688523e-10
1.50531960766e-09
8.46897140884e-15
9.38911993735e-10
1.46890578508e-09
7.02765260679e-13
9.05184739944e-10
1.41110429082e-09
1.84032730954e-12
8.6004201294e-10
1.33437996605e-09
3.06147227753e-12
8.0566886294e-10
1.2424612039e-09
3.24909224454e-12
7.46030590628e-10
1.13993729798e-09
6.88676259331e-10
1.03146052695e-09
-6.74987001877e-14
4.04019727265e-13
9.85342321087e-10
1.34233615197e-09
2.10149574335e-14
2.82173338044e-12
1.06318168977e-09
1.48563966761e-09
5.22181329597e-12
1.14262336439e-09
1.62071444892e-09
6.44270990092e-12
1.21460785072e-09
1.74155972473e-09
6.09097286697e-12
1.27411276484e-09
1.84226119539e-09
4.28933686432e-12
1.31838557054e-09
1.91802844094e-09
1.50457798937e-12
1.34603984057e-09
1.96569003356e-09
-1.60820596253e-12
1.35593720131e-09
1.98269071402e-09
-4.40309250221e-12
1.34603196833e-09
1.96568823409e-09
-6.22312375953e-12
1.31837444949e-09
1.91802463782e-09
-6.59559107866e-12
1.27410797516e-09
1.84225500113e-09
-5.38811207036e-12
1.21461944864e-09
1.74155032126e-09
-2.98785397045e-12
1.14265088461e-09
1.62070004172e-09
-5.52922128522e-13
1.06321173413e-09
1.48561500022e-09
9.85340872631e-10
1.34228888917e-09
-1.01102942954e-13
5.77800813833e-12
1.24968184568e-09
1.59330446494e-09
1.69367107716e-14
1.12065131596e-11
1.34387031837e-09
1.76602591989e-09
1.50192114199e-11
1.43796111545e-09
1.92823425763e-09
1.61256206376e-11
1.52259100962e-09
2.07294589886e-09
1.42234014331e-11
1.59218597969e-09
2.19326933807e-09
9.67886952892e-12
1.6437469609e-09
2.28364492676e-09
3.36700789113e-12
1.67587121134e-09
2.3403959703e-09
-3.5388982535e-12
1.68736326551e-09
2.36057964607e-09
-9.8590221983e-12
1.67586598862e-09
2.34039408605e-09
-1.44180312086e-11
1.64374046575e-09
2.2836409357e-09
-1.63354808292e-11
1.59218606044e-09
2.19326284268e-09
-1.52362426946e-11
1.52260597802e-09
2.07293607755e-09
-1.1416927914e-11
1.4379905883e-09
1.92821932777e-09
-5.96447084635e-12
1.34390107611e-09
1.76600040189e-09
1.2496776567e-09
1.59325539706e-09
-1.36964479415e-13
1.21720302448e-11
1.46279720581e-09
1.78663821971e-09
1.07445176541e-14
2.11315070814e-11
1.56839513042e-09
1.98349736964e-09
2.6508650212e-11
1.67129247908e-09
2.16756292772e-09
2.73605828416e-11
1.76307991995e-09
2.33121554194e-09
2.35786475844e-11
1.83809321344e-09
2.46692322919e-09
1.58437310628e-11
1.89340505182e-09
2.56864128324e-09
5.49311289932e-12
1.92776562804e-09
2.63238444673e-09
-5.73785097734e-12
1.94004863951e-09
2.65498415077e-09
-1.60940650995e-11
1.92776266929e-09
2.63238255458e-09
-2.38381932098e-11
1.89340219432e-09
2.56863729338e-09
-2.76282193498e-11
1.83809631212e-09
2.46691680868e-09
-2.67759223331e-11
1.76309517977e-09
2.33120599542e-09
-2.13847824072e-11
1.67131970913e-09
2.16754868587e-09
-1.23954800872e-11
1.56842120556e-09
1.9834729416e-09
1.4627894374e-09
1.78659024943e-09
-1.74100771894e-13
1.9069864898e-11
1.61460389833e-09
1.92496082352e-09
3.50425353542e-15
3.18755040981e-11
1.72658427346e-09
2.14095638636e-09
3.88933817209e-11
1.83261544844e-09
2.3419077617e-09
3.93928531628e-11
1.92632354741e-09
2.51987702739e-09
3.35386542486e-11
2.00234159231e-09
2.66700232982e-09
2.23797027055e-11
2.05808957203e-09
2.77701346585e-09
7.74350475592e-12
2.09260345115e-09
2.84579470873e-09
-8.06200546448e-12
2.10492703761e-09
2.87009750181e-09
-2.27008109613e-11
2.09260161943e-09
2.84579278411e-09
-3.38632372368e-11
2.05808807174e-09
2.77700946385e-09
-3.97178689964e-11
2.00234460258e-09
2.66699605385e-09
-3.92100734367e-11
1.92633545734e-09
2.51986802399e-09
-3.21707389118e-11
1.83263662676e-09
2.34189482081e-09
-1.93294487862e-11
1.72660185768e-09
2.1409340815e-09
1.61459022617e-09
1.92491551389e-09
-2.11957042269e-13
2.60529992079e-11
1.70179296359e-09
2.01142261151e-09
-4.14304454408e-15
4.28436104331e-11
1.8154971977e-09
2.24196639089e-09
5.15137663588e-11
1.91970805015e-09
2.45528664871e-09
5.16024932848e-11
2.01083877452e-09
2.6433995747e-09
4.36017346251e-11
2.08412142834e-09
2.79838242626e-09
2.89618728547e-11
2.13752564353e-09
2.9139612425e-09
1.00065712452e-11
2.1704567988e-09
2.98603907936e-09
-1.0397312848e-11
2.18219487414e-09
3.0114102576e-09
-2.93522566922e-11
2.17045485229e-09
2.98603697538e-09
-4.3989940883e-11
2.13752313652e-09
2.91395696661e-09
-5.19836824741e-11
2.08412109462e-09
2.79837598125e-09
-5.18787886584e-11
2.01084357333e-09
2.64339084591e-09
-4.31801264275e-11
1.91971861765e-09
2.45527488719e-09
-2.63479968777e-11
1.81550201657e-09
2.24194624265e-09
1.70176858331e-09
2.01138032184e-09
-2.499238281e-13
3.28006628575e-11
1.72611973973e-09
2.04968634313e-09
-1.18406744871e-14
5.35607763615e-11
1.83753202192e-09
2.29071177199e-09
6.38427986802e-11
1.93597886876e-09
2.51245326018e-09
6.3500441704e-11
2.02102412125e-09
2.70709821709e-09
5.33786741735e-11
2.08871506198e-09
2.86688002644e-09
3.53415838359e-11
2.13768791295e-09
2.98569771465e-09
1.21974314662e-11
2.16774583158e-09
3.05958885799e-09
-1.26573781041e-11
2.17843228727e-09
3.08548774183e-09
-3.57984391047e-11
2.16774252636e-09
3.05958629347e-09
-5.38281743079e-11
2.13768207107e-09
2.98569262751e-09
-6.39361151235e-11
2.08870827489e-09
2.86687266959e-09
-6.42550696564e-11
2.02101834589e-09
2.70708889395e-09
-5.39378840805e-11
1.93597496813e-09
2.51244175967e-09
-3.31307384369e-11
1.83751979544e-09
2.29069280726e-09
1.72608076174e-09
2.04964633897e-09
-2.87470675929e-13
3.9086779822e-11
1.69296464825e-09
2.04382819685e-09
-1.90853141932e-14
6.36691010957e-11
1.79884719726e-09
2.2918620585e-09
7.54862543099e-11
1.88868318578e-09
2.51871676799e-09
7.47289078822e-11
1.96519015278e-09
2.71690399145e-09
6.25921192219e-11
2.02537206099e-09
2.87897406522e-09
4.13452221833e-11
2.06856030651e-09
2.99913051693e-09
1.42574228185e-11
2.09492616936e-09
3.07362862789e-09
-1.47826609009e-11
2.10426481166e-09
3.09961478485e-09
-4.18649591509e-11
2.09492054534e-09
3.07362518949e-09
-6.30999686831e-11
2.06854932608e-09
2.99912380657e-09
-7.52169368488e-11
2.02535637034e-09
2.87896462031e-09
-7.59444325903e-11
1.9651708346e-09
2.71689259849e-09
-6.40860312169e-11
1.88866117798e-09
2.51870382773e-09
-3.94513392474e-11
1.7988136195e-09
2.2918423724e-09
1.69290579548e-09
2.0437887711e-09
-3.24245271427e-13
4.47727293974e-11
1.61012511487e-09
1.99819620325e-09
-2.58618368944e-14
7.2929398476e-11
1.7080458924e-09
2.25039489091e-09
8.61912658122e-11
1.78745101586e-09
2.47972291255e-09
8.50717476154e-11
1.85396048201e-09
2.67909677522e-09
7.10837659234e-11
1.90560851178e-09
2.84149171014e-09
4.68776514407e-11
1.94235886002e-09
2.96150923824e-09
1.61551120108e-11
1.9646629215e-09
3.03567872132e-09
-1.67410962354e-11
1.97251972028e-09
3.06140938554e-09
-4.74560585666e-11
1.9646543074e-09
3.03567388594e-09
-7.16464205093e-11
1.9423414641e-09
2.96149985832e-09
-8.56094628508e-11
1.9055822387e-09
2.84147861927e-09
-8.66935221346e-11
1.85392560701e-09
2.67908129489e-09
-7.33849376592e-11
1.787408316e-09
2.47970615296e-09
-4.51709631673e-11
1.70798749605e-09
2.25037182795e-09
1.61004216538e-09
1.9981548575e-09
-3.5978102055e-13
4.97994940848e-11
1.48683141815e-09
1.91725406616e-09
-3.21152817877e-14
8.123585151e-11
1.5750891891e-09
2.17141765141e-09
9.58774010442e-11
1.64309173612e-09
2.40124317078e-09
9.44840612217e-11
1.69901434433e-09
2.60005084042e-09
7.88333109606e-11
1.74190101552e-09
2.76131202425e-09
5.19314455783e-11
1.77218424417e-09
2.88009671191e-09
1.7888965636e-11
1.79045416638e-09
2.95324637088e-09
-1.85304791051e-11
1.79683857778e-09
2.97846690233e-09
-5.25635865375e-11
1.79044212257e-09
2.95323955795e-09
-7.94463607833e-11
1.77215969984e-09
2.88008347996e-09
-9.50678135705e-11
1.74186311452e-09
2.76129347802e-09
-9.64208664752e-11
1.69896268888e-09
2.60002886329e-09
-8.17278228621e-11
1.64302661743e-09
2.40121973483e-09
-5.02296403141e-11
1.57500378821e-09
2.17138814791e-09
1.48672134375e-09
1.91720786526e-09
-3.93660862721e-13
5.42289199579e-11
1.33291963877e-09
1.80542899756e-09
-3.76742296209e-14
8.87164047777e-11
1.41036566419e-09
2.06002501624e-09
1.04742505372e-10
1.46664727992e-09
2.28900599728e-09
1.03168583218e-10
1.51216173138e-09
2.48602075451e-09
8.60023503318e-11
1.54675908306e-09
2.64511480139e-09
5.66077308731e-11
1.57107466086e-09
2.76189366979e-09
1.94933938993e-11
1.58566556909e-09
2.83353688604e-09
-2.01843352612e-11
1.59070483137e-09
2.85806678859e-09
-5.72876277306e-11
1.58564975707e-09
2.83352755378e-09
-8.66602142195e-11
1.57104230196e-09
2.76187545365e-09
-1.03793237785e-10
1.54670900956e-09
2.64508899076e-09
-1.05322709236e-10
1.51209261682e-09
2.48598974571e-09
-8.92409145726e-11
1.46655883191e-09
2.28897283256e-09
-5.46876499131e-11
1.41025146052e-09
2.05998611763e-09
1.33277970874e-09
1.80537548865e-09
-4.2386589778e-13
5.82681588918e-11
1.15815806024e-09
1.66697591337e-09
-4.25825292506e-14
9.57523264958e-11
1.22392444686e-09
1.92124837159e-09
1.13283199829e-10
1.26865690361e-09
2.14858593501e-09
1.11580781732e-10
1.30470190484e-09
2.34296654666e-09
9.29357182601e-11
1.33210753769e-09
2.49917643484e-09
6.11182663017e-11
1.35138606646e-09
2.61342327623e-09
2.10401891617e-11
1.36290923773e-09
2.68323392856e-09
-2.17733483859e-11
1.36682106195e-09
2.70695168506e-09
-6.18387678013e-11
1.36288914477e-09
2.68322173125e-09
-9.36311862079e-11
1.35134515614e-09
2.61339931285e-09
-1.12239453109e-10
1.33204437207e-09
2.49914200638e-09
-1.13893571657e-10
1.30461486867e-09
2.342924313e-09
-9.6303771413e-11
1.26854476632e-09
2.14854007272e-09
-5.87506300353e-11
1.22378055205e-09
1.92119759972e-09
1.15798791481e-09
1.66691419929e-09
-4.50896009129e-13
5.85897695887e-11
1.50582151095e-09
-4.75541790907e-14
9.75770086661e-10
1.01250313093e-10
1.76013329949e-09
1.02312201917e-09
1.21287644687e-10
1.98517851779e-09
1.05816582493e-09
1.19902137631e-10
2.17630016235e-09
1.08672307904e-09
9.99583829023e-11
2.32916240899e-09
1.10868183714e-09
6.57439446685e-11
2.4405749524e-09
1.12427637364e-09
2.26380481279e-11
2.50837835376e-09
1.13359255601e-09
-2.34051166354e-11
2.53121846594e-09
1.13668337643e-09
-6.6496527702e-11
2.5083634604e-09
1.13356718758e-09
-1.00682678291e-10
2.44054553121e-09
1.12422515978e-09
-1.20585461753e-10
2.32911958313e-09
1.10860363063e-09
-1.21918704936e-10
2.17624634493e-09
1.08661633637e-09
-1.01818961479e-10
1.98511866722e-09
1.05802863512e-09
-5.90879116378e-11
1.76006705199e-09
1.02294817809e-09
1.50575636846e-09
-4.70587928075e-13
9.7556728424e-10
1.82965817098e-12
-8.84232269588e-12
2.3543489026e-10
-1.02992589681e-15
2.97563237715e-12
-1.01694105989e-11
2.6055665812e-10
3.59636048172e-12
-1.16680055954e-11
2.84445286856e-10
3.62492473422e-12
-1.29797038222e-11
3.05988987963e-10
3.07706124737e-12
-1.40753501057e-11
3.24055622921e-10
2.05070528515e-12
-1.48988620727e-11
3.37714801603e-10
7.07725714518e-13
-1.54145177849e-11
3.46347782145e-10
-7.48326505711e-13
-1.55942462517e-11
3.49451769278e-10
-2.08901849112e-12
-1.54112109329e-11
3.4634683449e-10
-3.11159520187e-12
-1.48942393883e-11
3.37712878183e-10
-3.65640349588e-12
-1.40723272093e-11
3.24052649979e-10
-3.62717332461e-12
-1.29784419687e-11
3.05984803494e-10
-3.00245057031e-12
-1.16615052857e-11
2.8443956208e-10
-1.85280023466e-12
-1.01642978672e-11
2.60548399319e-10
-8.83714094427e-12
2.35421127134e-10
-1.7474500364e-14
4.46114056348e-12
2.02122362511e-12
6.43214546378e-10
-8.06066495114e-16
7.52385846871e-12
1.94478365438e-12
7.1146208448e-10
9.18712120495e-12
1.59029191664e-12
7.76199003581e-10
9.30811899798e-12
1.47939441033e-12
8.34438786586e-10
7.9234860194e-12
1.50961333456e-12
8.83188965054e-10
5.28721097237e-12
1.59954608166e-12
9.19997393615e-10
1.8217184e-12
1.68345708709e-12
9.43232065833e-10
-1.93803640284e-12
1.72083327577e-12
9.5156506675e-10
-5.39830802899e-12
1.69013662106e-12
9.43229278311e-10
-8.02596024546e-12
1.60966475511e-12
9.19991747583e-10
-9.40285804717e-12
1.51825426322e-12
8.83180258265e-10
-9.27704961188e-12
1.48563342726e-12
8.34426575536e-10
-7.60421402525e-12
1.60293019404e-12
7.76182354094e-10
-4.52884121732e-12
1.95767776113e-12
7.11438281266e-10
2.03113742767e-12
6.43177079095e-10
-5.16302068114e-14
6.35570613103e-12
3.86981024186e-11
9.88443982262e-10
5.54424389434e-16
1.09328482946e-11
4.30490470221e-11
1.09425151524e-09
1.34388935776e-11
4.71333028917e-11
1.1944028773e-09
1.36580206564e-11
5.1277918349e-11
1.28435001112e-09
1.16454855557e-11
5.50573675033e-11
1.35954895596e-09
7.77529430275e-12
5.8073595342e-11
1.41627628306e-09
2.67421766645e-12
6.00353397717e-11
1.45204261645e-09
-2.86169160374e-12
6.07431161025e-11
1.4648350294e-09
-7.95584138072e-12
6.00439299863e-11
1.45203815996e-09
-1.18144286588e-11
5.80871005298e-11
1.4162672649e-09
-1.38153488836e-11
5.50702091948e-11
1.35953508272e-09
-1.35862481225e-11
5.12887699696e-11
1.2843306539e-09
-1.10650790914e-11
4.71500997071e-11
1.19437672354e-09
-6.46706468564e-12
4.3067047305e-11
1.09421481273e-09
3.87084303477e-11
9.88388003521e-10
-8.57129437989e-14
7.86202267156e-12
9.46245589515e-11
1.2785234007e-09
2.17920366304e-15
1.37058205087e-11
1.05547790129e-10
1.41727641694e-09
1.69398560928e-11
1.16302968189e-10
1.54829200834e-09
1.72613887029e-11
1.26749132934e-10
1.66574755179e-09
1.47392820129e-11
1.36000604416e-10
1.76381691301e-09
9.84618456134e-12
1.43244998951e-10
1.83772482842e-09
3.38157747279e-12
1.47900687557e-10
1.88426488893e-09
-3.63613054611e-12
1.49564952215e-10
1.90086441911e-09
-1.00928571247e-11
1.47909934266e-10
1.8842590056e-09
-1.49724271987e-11
1.43260137654e-10
1.83771293663e-09
-1.74794732757e-11
1.36016616153e-10
1.76379867335e-09
-1.71427188494e-11
1.26764067831e-10
1.66572226484e-09
-1.38878229811e-11
1.16321885051e-10
1.54825824368e-09
-8.01646278747e-12
1.05566625558e-10
1.41723000726e-09
9.46334349389e-11
1.27845466161e-09
-1.1996611862e-13
9.23470310243e-12
1.62800273372e-10
1.51587051231e-09
3.6063339275e-15
1.62201814893e-11
1.81380836517e-10
1.68319085263e-09
2.01101437042e-11
1.99899230525e-10
1.84073125805e-09
2.05232401732e-11
2.17589242913e-10
1.98167541276e-09
1.75393526484e-11
2.33055080379e-10
2.09917836127e-09
1.17195982378e-11
2.45057566306e-10
2.18762981496e-09
4.01991390506e-12
2.52725413794e-10
2.2432491646e-09
-4.33915048612e-12
2.55454308587e-10
2.26302925354e-09
-1.20302874712e-11
2.52734755284e-10
2.24324204889e-09
-1.78349128604e-11
2.45073297272e-10
2.1876154649e-09
-2.08004675052e-11
2.33072699716e-10
2.09915645868e-09
-2.0367018515e-11
2.17606396106e-10
1.98164532421e-09
-1.64503679746e-11
1.99918762447e-10
1.84069168636e-09
-9.43132386037e-12
1.81397301352e-10
1.68313759601e-09
1.62806128266e-10
1.51579355976e-09
-1.54214060331e-13
1.066765606e-11
2.359885132e-10
1.70276178345e-09
4.66145042636e-15
1.87719283439e-11
2.62295573718e-10
1.89446413849e-09
2.32866101234e-11
2.88564856481e-10
2.07436859639e-09