/*--------------------------------*- C++ -*----------------------------------*\
  =========                 |
  \\      /  F ield         | OpenFOAM: The Open Source CFD Toolbox
   \\    /   O peration     | Website:  https://openfoam.org
    \\  /    A nd           | Version:  7
     \\/     M anipulation  |
\*---------------------------------------------------------------------------*/
FoamFile
{
    version     2.0;
    format      ascii;
    class       surfaceScalarField;
    location    "2.24";
    object      phi;
}
// * * * * * * * * * * * * * * * * * * * * * * * * * * * * * * * * * * * * * //

dimensions      [0 3 -1 0 0 0 0];

internalField   nonuniform List<scalar> 
65775
(
4.17035265056e-12
2.76314705529e-09
3.38736813498e-10
4.61416728458e-13
3.79142413519e-12
2.89567106737e-09
3.7250320004e-10
4.11548429663e-12
3.00901940796e-09
4.03300664884e-10
3.73268099616e-12
3.10711469822e-09
4.30350699207e-10
3.12095034635e-12
3.18538584967e-09
4.52675489539e-10
2.21405357989e-12
3.24269255856e-09
4.69389663139e-10
1.13111405265e-12
3.27865967485e-09
4.7991236046e-10
-4.53136875848e-14
3.29216879779e-09
4.83712060938e-10
-1.17398446462e-12
3.2784081132e-09
4.79911285971e-10
-2.1686065924e-12
3.24220281608e-09
4.6938797931e-10
-2.92108865445e-12
3.1846681714e-09
4.52673784986e-10
-3.48444583849e-12
3.10623372148e-09
4.30349987026e-10
-3.38864806667e-12
3.00803442187e-09
4.03304294455e-10
-3.93478651169e-12
2.89478168494e-09
3.72528578316e-10
2.76263056399e-09
3.38853334097e-10
5.21318405775e-13
1.47716229056e-11
4.82579306416e-09
8.8164934129e-10
1.15439023179e-12
2.21652025564e-11
5.04261292818e-09
9.66679801336e-10
2.46150938684e-11
5.22835277641e-09
1.04320569444e-09
2.35817695788e-11
5.38681600463e-09
1.10970195075e-09
1.95895852453e-11
5.51291332894e-09
1.1641230315e-09
1.33074765164e-11
5.60484862873e-09
1.20462595647e-09
5.55971766186e-12
5.66248728119e-09
1.23003551618e-09
-2.70214547477e-12
5.68415086305e-09
1.23920019792e-09
-1.05702314269e-11
5.66191542353e-09
1.2300334947e-09
-1.70899596169e-11
5.60373237284e-09
1.20462293291e-09
-2.14472862341e-11
5.51128957309e-09
1.1641202103e-09
-2.29611673667e-11
5.38480043863e-09
1.10970156591e-09
-2.10723019632e-11
5.22610761055e-09
1.04321684982e-09
-1.41563691157e-11
5.04050902715e-09
9.66750143741e-10
4.82438207747e-09
8.81931205345e-10
1.31762864066e-12
2.75679883789e-11
6.29557318833e-09
1.31428167158e-09
1.56928871187e-12
4.31511842766e-11
6.56000334554e-09
1.44033048981e-09
4.77669074369e-11
6.78725351739e-09
1.55282083061e-09
4.55097560012e-11
6.97790270528e-09
1.64988948408e-09
3.74527526816e-11
7.12914810286e-09
1.72888738697e-09
2.50950116365e-11
7.23892303108e-09
1.78744262522e-09
1.00323592677e-11
7.3076839816e-09
1.82407098136e-09
-5.93961787396e-12
7.33358274166e-09
1.8372505449e-09
-2.11727838481e-11
7.30688819553e-09
1.82406789392e-09
-3.3869063308e-11
7.23737211827e-09
1.78743772813e-09
-4.24360774193e-11
7.12690258011e-09
1.72888177352e-09
-4.53615851661e-11
6.97510642251e-09
1.6498854542e-09
-4.15042263812e-11
6.78414004059e-09
1.55282994221e-09
-2.66024492864e-11
6.5570297922e-09
1.44041642491e-09
6.29344277652e-09
1.31464801984e-09
1.90377652039e-12
4.17345468614e-11
7.26315894394e-09
1.65503593455e-09
1.8476210575e-12
6.53151638269e-11
7.54777725097e-09
1.81421003867e-09
7.23354991812e-11
7.79262911168e-09
1.9552647751e-09
6.85148193974e-11
7.9945237145e-09
2.07622504002e-09
5.60207447966e-11
8.15393712903e-09
2.17416086443e-09
3.72083023698e-11
8.26906938331e-09
2.246474374e-09
1.45015303052e-11
8.3411052825e-09
2.29157592015e-09
-9.48955506553e-12
8.36832024554e-09
2.30775737711e-09
-3.24044601372e-11
8.34018441725e-09
2.29156817781e-09
-5.16304977039e-11
8.26727465663e-09
2.24646022104e-09
-6.47389879691e-11
8.15134907462e-09
2.17414099662e-09
-6.93511514876e-11
7.99130087803e-09
2.07620117026e-09
-6.32178624075e-11
7.78902455279e-09
1.95524816413e-09
-4.04480429536e-11
7.54427827525e-09
1.81426840883e-09
7.26048810035e-09
1.65539167425e-09
2.38074428187e-12
5.60789882341e-11
7.81051493081e-09
1.91371953221e-09
2.02053990262e-12
8.75330545144e-11
8.09496543285e-09
2.09919718422e-09
9.70814649002e-11
8.33961450129e-09
2.26247657747e-09
9.162154624e-11
8.53770918608e-09
2.40163422829e-09
7.4588641263e-11
8.69311627736e-09
2.51371986697e-09
4.92405387519e-11
8.80472985522e-09
2.59615341005e-09
1.88530635719e-11
8.87447040336e-09
2.64740474261e-09
-1.31756917249e-11
8.90091321152e-09
2.66573165035e-09
-4.3798043027e-11
8.87350588977e-09
2.64738944995e-09
-6.9610964525e-11
8.8028529274e-09
2.59612393658e-09
-8.73267629623e-11
8.69041587162e-09
2.51367611052e-09
-9.36512218175e-11
8.53434778902e-09
2.40157646703e-09
-8.50611103995e-11
8.33583127771e-09
2.26241338246e-09
-5.4491605481e-11
8.09125139729e-09
2.0991939592e-09
7.80754965834e-09
1.91400031778e-09
2.78046911608e-12
7.0121337678e-11
8.01180464474e-09
2.09862701458e-09
2.11186792396e-12
1.09138131311e-10
8.28162957486e-09
2.30444921848e-09
1.21175854783e-10
8.51346547061e-09
2.48446031045e-09
1.14083790466e-10
8.69759049084e-09
2.6369134494e-09
9.25826297316e-11
8.84085069156e-09
2.75904800937e-09
6.08463374365e-11
8.94310147372e-09
2.84849641641e-09
2.29888928699e-11
9.00689010744e-09
2.90391887508e-09
-1.68429916036e-11
9.03118057348e-09
2.92366262501e-09
-5.49516149208e-11
9.00595766171e-09
2.90389432183e-09
-8.71835949076e-11
8.94128776873e-09
2.84844794559e-09
-1.0940468967e-10
8.838246636e-09
2.75897429822e-09
-1.17395499083e-10
8.69434841497e-09
2.63681252902e-09
-1.0633848691e-10
8.50979929365e-09
2.48433652971e-09
-6.82379773314e-11
8.2779777244e-09
2.30436368117e-09
8.00878665002e-09
2.09880149282e-09
3.12000681379e-12
8.36772025661e-11
7.93374170537e-09
2.21737175104e-09
2.14252894316e-12
1.29818116406e-10
8.17951144135e-09
2.43839916235e-09
1.44222030015e-10
8.39032987266e-09
2.63045691142e-09
1.3554603893e-10
8.55426941878e-09
2.79206494295e-09
1.09742029404e-10
8.68055665684e-09
2.92081209168e-09
7.18791275729e-11
8.77008414713e-09
3.01468852775e-09
2.68783598861e-11
8.82583780611e-09
3.07263915892e-09
-2.04080810268e-11
8.84717372126e-09
3.09319480063e-09
-6.5667621712e-11
8.82499678776e-09
3.07260485116e-09
-1.04038799123e-10
8.7684494436e-09
3.01461995177e-09
-1.30573974188e-10
8.67821381509e-09
2.92070635952e-09
-1.40150413688e-10
8.55135071646e-09
2.79191728561e-09
-1.26718322445e-10
8.38701124042e-09
2.63026692236e-09
-8.14919931595e-11
8.17617232949e-09
2.43822457556e-09
7.93090532286e-09
2.21743167018e-09
3.42228511065e-12
9.6603806395e-11
7.63587819437e-09
2.27725132791e-09
2.12512550813e-12
1.49420238455e-10
7.85226570957e-09
2.50916901678e-09
1.66075522398e-10
8.03739361415e-09
2.70940372541e-09
1.5592697796e-10
8.17807298494e-09
2.87679832255e-09
1.26042742379e-10
8.28520657488e-09
3.00939870844e-09
8.23492795225e-11
8.36062913962e-09
3.10564557952e-09
3.05434569527e-11
8.40752203293e-09
3.16482373896e-09
-2.3846412337e-11
8.42556496932e-09
3.18571153105e-09
-7.59109064311e-11
8.40681928882e-09
3.16478039909e-09
-1.20109443562e-10
8.35926529676e-09
3.10555841523e-09
-1.5071494206e-10
8.28325393765e-09
3.00926331424e-09
-1.61741418859e-10
8.17563935353e-09
2.87660694493e-09
-1.46025476948e-10
8.03460937311e-09
2.70915129074e-09
-9.41039631787e-11
7.84944289429e-09
2.50891201943e-09
7.63342913725e-09
2.27720583886e-09
3.69919343812e-12
1.08813053822e-10
7.17078428704e-09
2.2853189591e-09
2.07289697815e-12
1.67938685906e-10
7.35559464667e-09
2.52462822441e-09
1.8682962626e-10
7.51307177569e-09
2.72997645519e-09
1.75403579001e-10
7.62980336671e-09
2.90055812983e-09
1.41682800298e-10
7.71762620359e-09
3.03492987332e-09
9.2414397561e-11
7.77907464308e-09
3.13202107882e-09
3.40559112282e-11
7.81723483123e-09
3.19147018624e-09
-2.71872844773e-11
7.83199935673e-09
3.21233590668e-09
-8.57974415339e-11
7.81670235175e-09
3.19142021987e-09
-1.35555280937e-10
7.77804357214e-09
3.13192010515e-09
-1.69970036528e-10
7.7161530907e-09
3.03477197309e-09
-1.82235066592e-10
7.62796506313e-09
2.90033262882e-09
-1.64237100073e-10
7.51095501905e-09
2.72967449778e-09
-1.05980286062e-10
7.35344043995e-09
2.52430749076e-09
7.16889714735e-09
2.28519090704e-09
3.96329889743e-12
1.20295414807e-10
6.58432565752e-09
2.24829435287e-09
1.99614897893e-12
1.85545453993e-10
6.73753675623e-09
2.49225573423e-09
2.06845202736e-10
6.8673524058e-09
2.70041552723e-09
1.94433683302e-10
6.96118520446e-09
2.8723209e-09
1.57096790756e-10
7.03103852191e-09
3.0070364126e-09
1.02383566211e-10
7.07973828638e-09
3.10396102042e-09
3.75383981086e-11
7.10997836928e-09
3.16305800501e-09
-3.05150681214e-11
7.12173122533e-09
3.18366849425e-09
-9.55994311997e-11
7.10963358669e-09
3.1630050843e-09
-1.50776456601e-10
7.07907390214e-09
3.10385387113e-09
-1.88768493132e-10
7.03009410909e-09
3.00686797357e-09
-2.01969292716e-10
6.96000783276e-09
2.87207801339e-09
-1.81512028584e-10
6.86598492014e-09
2.70008631021e-09
-1.17104111035e-10
6.73615453087e-09
2.49190092667e-09
6.58312314548e-09
2.24811741069e-09
4.22468440768e-12
1.31114974578e-10
5.91606808416e-09
2.17239338388e-09
1.90390266905e-12
2.026309466e-10
6.0389299626e-09
2.4189177561e-09
2.26797143987e-10
6.14238575162e-09
2.62826530616e-09
2.13783983017e-10
6.21563068871e-09
2.80030536977e-09
1.72956737304e-10
6.2699274282e-09
2.93454590621e-09
1.12711415063e-10
6.3078442284e-09
3.0307762296e-09
4.11604257062e-11
6.33141117195e-09
3.08921184536e-09
-3.39655207509e-11
6.34058189956e-09
3.109447884e-09
-1.05739322172e-10
6.33125681667e-09
3.08916143555e-09
-1.66416097016e-10
6.30755359212e-09
3.03067394523e-09
-2.0785260324e-10
6.26952373745e-09
2.93438397151e-09
-2.21602393866e-10
6.21513445711e-09
2.80006869966e-09
-1.98230939013e-10
6.14180238896e-09
2.62793962464e-09
-1.27536900202e-10
6.03837444593e-09
2.41856766445e-09
5.9156254123e-09
2.17220999927e-09
4.49316465327e-12
1.41421823354e-10
5.19989069534e-09
2.06312692834e-09
1.79728788954e-12
2.19922930136e-10
5.29402587958e-09
2.31062372775e-09
2.47767806863e-10
5.37337905024e-09
2.52011031332e-09
2.34536400494e-10
5.42936512138e-09
2.69169625985e-09
1.90132776346e-10
5.47125302477e-09
2.8251945223e-09
1.23953294398e-10
5.50074582925e-09
2.92064286509e-09
4.51221055113e-11
5.51908696699e-09
2.97839371411e-09
-3.77110335476e-11
5.52616917172e-09
2.99823934995e-09
-1.16745996873e-10
5.51911408537e-09
2.97835246607e-09
-1.83321976985e-10
5.50080941181e-09
2.92055918865e-09
-2.28287406063e-10
5.47136689224e-09
2.82506076333e-09
-2.42206103243e-10
5.42952919738e-09
2.69149609983e-09
-2.15117928124e-10
5.37357071819e-09
2.51982674979e-09
-1.37430682856e-10
5.29430664058e-09
2.31032370519e-09
5.20024320073e-09
2.06298541873e-09
4.77790838751e-12
1.51724056334e-10
4.46457652215e-09
1.92510059576e-09
1.68079391313e-12
2.38860815823e-10
4.53119460972e-09
2.17231911086e-09
2.71327694237e-10
4.58997693009e-09
2.38138118142e-09
2.57942912974e-10
4.6329688127e-09
2.55245165407e-09
2.09489830871e-10
4.66591386333e-09
2.68542524145e-09
1.36622615045e-10
4.68933443926e-09
2.78038869224e-09
4.95960765166e-11
4.7038114085e-09
2.83768013807e-09
-4.19037392108e-11
4.70929008891e-09
2.8572087872e-09
-1.29116555723e-10
4.70399788476e-09
2.83765550899e-09
-2.02344943742e-10
4.68971422434e-09
2.78033928905e-09
-2.51317140215e-10
4.66649214019e-09
2.68534490508e-09
-2.65349146965e-10
4.63373693286e-09
2.55232397531e-09
-2.33616664728e-10
4.59089408345e-09
2.38118482778e-09
-1.47301749346e-10
4.53227951422e-09
2.17211692439e-09
4.4657130904e-09
1.92504650196e-09
5.06357188387e-12
1.63879105501e-10
3.73352796268e-09
1.76184933866e-09
1.55483439554e-12
2.61815520793e-10
3.77447790487e-09
2.00781813652e-09
2.98897718197e-10
3.81850753125e-09
2.21633932565e-09
2.84597174796e-10
3.85314911558e-09
2.38728173035e-09
2.31241990964e-10
3.88009656996e-09
2.52033898779e-09
1.50790268061e-10
3.89922259603e-09
2.61541506666e-09
5.46124323377e-11
3.91086737422e-09
2.67266391525e-09
-4.65656933799e-11
3.91510239951e-09
2.69201719071e-09
-1.42914090591e-10
3.91118574586e-09
2.67266301596e-09
-2.23699005568e-10
3.89986175489e-09
2.61541509021e-09
-2.77539800025e-10
3.8810584092e-09
2.52033731763e-09
-2.92463834488e-10
3.85442404369e-09
2.38726467068e-09
-2.56110521047e-10
3.82005876255e-09
2.21628025775e-09
-1.59023496215e-10
3.77629640055e-09
2.00776105513e-09
3.73537133576e-09
1.76191467828e-09
5.35649743295e-12
1.82599312442e-10
1.57594146644e-09
1.41511849006e-12
3.0228506218e-09
2.90923493435e-10
1.82028718278e-09
3.04733819546e-09
3.30224173373e-10
2.02850472221e-09
3.08418560258e-09
3.13547732312e-10
2.19996111103e-09
3.11352311764e-09
2.54579463869e-10
2.33388830844e-09
3.13588446917e-09
1.65991596211e-10
2.42979465372e-09
3.15163299834e-09
6.00097187764e-11
2.48749068232e-09
3.16105328867e-09
-5.15407218615e-11
2.50683575589e-09
3.16431353538e-09
-1.57685669302e-10
2.48751683453e-09
3.16147260272e-09
-2.46591964701e-10
2.42985129752e-09
3.15247357842e-09
-3.06030089795e-10
2.33397820225e-09
3.13714395913e-09
-3.23321774931e-10
2.20007836164e-09
3.11519592148e-09
-2.84772653828e-10
2.02862009986e-09
3.0862480632e-09
-1.77351377287e-10
1.82043991674e-09
3.04977141184e-09
1.57609709349e-09
5.63467357526e-12
3.02532463464e-09
-8.02242562018e-12
1.66095146771e-10
1.80996292123e-10
3.91393702209e-14
-1.25383729493e-11
1.81055637821e-10
1.96575757153e-10
-1.46725320634e-11
1.96509463349e-10
2.09478608528e-10
-1.44728271279e-11
2.10619189491e-10
2.2001047888e-10
-1.21328866835e-11
2.22414130326e-10
2.28229504756e-10
-8.0568074601e-12
2.31391889664e-10
2.34145629698e-10
-2.83502877438e-12
2.37112164169e-10
2.37802448656e-10
2.79955391924e-12
2.39183800719e-10
2.39143957319e-10
8.06076635316e-12
2.37113121207e-10
2.3780543276e-10
1.22103666759e-11
2.31364202737e-10
2.34151489511e-10
1.46268162308e-11
2.22297107949e-10
2.28238251048e-10
1.4856857236e-11
2.10373670752e-10
2.20023249848e-10
1.2721772407e-11
1.96212164359e-10
2.09500511971e-10
8.15836840458e-12
1.80732878386e-10
1.96625439155e-10
1.65999891952e-10
1.81135747953e-10
1.30525140479e-13
-1.69880701903e-11
5.06027068259e-10
5.59292773099e-10
1.1571023985e-13
-2.8173817194e-11
5.48488911131e-10
6.11358854651e-10
-3.39026897976e-11
5.90801790929e-10
6.55525447261e-10
-3.3994867356e-11
6.28952299954e-10
6.92162850546e-10
-2.87700378126e-11
6.60684593079e-10
7.21106943679e-10
-1.91778299946e-11
6.8468400762e-10
7.42123718143e-10
-6.69734861362e-12
6.99908009594e-10
7.5514478616e-10
6.82891646904e-12
7.05409297206e-10
7.59866997211e-10
1.93958961051e-11
6.99870733332e-10
7.55151019895e-10
2.9143122223e-11
6.84555085969e-10
7.42136023706e-10
3.45248901291e-11
6.60360778453e-10
7.21125912727e-10
3.44944218239e-11
6.28359753763e-10
6.92192365603e-10
2.87270776007e-11
5.90054128953e-10
6.55580109111e-10
1.74066757149e-11
5.47732780949e-10
6.11491456717e-10
5.05705324287e-10
5.59643042438e-10
3.83916134568e-13
-2.064706507e-11
9.22222831173e-10
9.19186964033e-10
2.16645979583e-13
-3.56602152835e-11
9.95761564154e-10
1.0088996515e-09
-4.39569347974e-11
1.0670073773e-09
1.08571957541e-09
-4.47303396942e-11
1.1304417298e-09
1.14979878933e-09
-3.81811681987e-11
1.18286591517e-09
1.20060129719e-09
-2.55285321576e-11
1.22227143919e-09
1.23756833274e-09
-8.81550624689e-12
1.24717462041e-09
1.26046072559e-09
9.3723579945e-12
1.25615933963e-09
1.2687088961e-09
2.61839212848e-11
1.24707590157e-09
1.26046641462e-09
3.90068140247e-11
1.22201264164e-09
1.2375796101e-09
4.5716017412e-11
1.18233512423e-09
1.20061951887e-09
4.49829910165e-11
1.12956433178e-09
1.14983023446e-09
3.65807243754e-11
1.06590785977e-09
1.08578547095e-09
2.13448379813e-11
9.94700108373e-10
1.00907484857e-09
9.21728604987e-10
9.19662816124e-10
6.69115216539e-13
-1.99818007539e-11
1.35092481015e-09
1.24662523456e-09
3.25652125053e-13
-3.61070120984e-11
1.4539731559e-09
1.37287803313e-09
-4.58386456673e-11
1.55119495335e-09
1.48152507913e-09
-4.75237529007e-11
1.63655026801e-09
1.57235847657e-09
-4.10198241446e-11
1.70650803483e-09
1.6444358642e-09
-2.75431397924e-11
1.75873999459e-09
1.69689090427e-09
-9.37989421617e-12
1.79162090769e-09
1.72932874091e-09
1.04936835775e-11
1.80346985042e-09
1.74095314814e-09
2.87455775032e-11
1.79145499715e-09
1.72932936031e-09
4.23690524514e-11
1.75835354554e-09
1.69689211275e-09
4.89952033182e-11
1.70580476883e-09
1.64443965448e-09
4.73017782021e-11
1.63547536193e-09
1.57237264598e-09
3.73969024055e-11
1.54986595002e-09
1.48157417528e-09
2.09686650868e-11
1.45270898533e-09
1.37304761056e-09
1.35029270176e-09
1.24713252638e-09
9.9584098167e-13
-1.57127383872e-11
1.7459514184e-09
1.53454504528e-09
4.38723869388e-13
-3.05810462947e-11
1.873781758e-09
1.69494201272e-09
-4.05983543572e-11
1.99101275496e-09
1.83330099438e-09
-4.32848332143e-11
2.09236125113e-09
1.94901191372e-09
-3.79880735149e-11
2.1745542046e-09
2.04076939341e-09
-2.56732068977e-11
2.23544855896e-09
2.10747726018e-09
-8.56460392542e-12
2.27361691024e-09
2.1486461089e-09
1.03078307923e-11
2.28736116437e-09
2.1633263408e-09
2.74820546193e-11
2.27339902755e-09
2.14863769995e-09
3.98979217799e-11
2.23496969001e-09
2.10746051009e-09
4.52564686738e-11
2.17374160548e-09
2.04074657189e-09
4.24967850892e-11
2.09118015165e-09
1.94899113763e-09
3.22412557208e-11
1.98957650631e-09
1.83330711997e-09
1.7000722015e-11
1.87240934482e-09
1.69506470027e-09
1.74523765752e-09
1.53501329176e-09
1.3498103509e-12
-8.56585453259e-12
2.07590077442e-09
1.77724115725e-09
5.52226904881e-13
-2.01082646363e-11
2.22199599918e-09
1.96837111491e-09
-2.92853099313e-11
2.35188376835e-09
2.13332251106e-09
-3.2936819833e-11
2.46226502981e-09
2.27112060192e-09
-2.97968806846e-11
2.55064062207e-09
2.38019801199e-09
-2.0371912802e-11
2.61551388634e-09
2.45934654444e-09
-6.53936498425e-12
2.65596837752e-09
2.50807121382e-09
8.93839390804e-12
2.67052613749e-09
2.52536181332e-09
2.28071083894e-11
2.65571960695e-09
2.50805098493e-09
3.22772970013e-11
2.61498647998e-09
2.45930627017e-09
3.54086013087e-11
2.54978689868e-09
2.38013992601e-09
3.16152625812e-11
2.46106950514e-09
2.27105229211e-09
2.21366871124e-11
2.35044874236e-09
2.13326690926e-09
1.01699507016e-11
2.22062511436e-09
1.96841860713e-09
2.07514873094e-09
1.77762787621e-09
1.71733553298e-12
7.27762349051e-13
2.32165568267e-09
1.97073394526e-09
6.58857245302e-13
-5.7127647189e-12
2.47883205997e-09
2.18852246116e-09
-1.30014558407e-11
2.61381607474e-09
2.37631071221e-09
-1.74752821283e-11
2.72637391754e-09
2.53284763353e-09
-1.72261192756e-11
2.81512207538e-09
2.65643624333e-09
-1.2137334846e-11
2.87955149987e-09
2.74588756188e-09
-3.48566071712e-12
2.91948131436e-09
2.8007950096e-09
6.53362999882e-12
2.93384080692e-09
2.82018370855e-09
1.51908286791e-11
2.91922870754e-09
2.80076220189e-09
2.0268319808e-11
2.87902844469e-09
2.74582251764e-09
2.04387896711e-11
2.81430004349e-09
2.6563406677e-09
1.57577420514e-11
2.72525119788e-09
2.53272727885e-09
8.11061588584e-12
2.61247549357e-09
2.37618500851e-09
1.20114635486e-12
2.47755696663e-09
2.18848185171e-09
2.320927299e-09
1.97101951173e-09
2.09321257554e-12
1.15027470566e-11
2.47422529837e-09
2.11286819417e-09
7.53723759662e-13
1.16199009842e-11
2.63540028644e-09
2.35293673092e-09
7.15137153701e-12
2.76858122968e-09
2.5595439648e-09
2.07742745285e-12
2.87735419742e-09
2.73127401042e-09
-1.08884662833e-12
2.96158676387e-09
2.86643634753e-09
-1.49056359972e-12
3.02193253197e-09
2.9639794021e-09
4.11364297588e-13
3.05904754521e-09
3.02366231386e-09
3.25906664804e-12
3.0723820349e-09
3.04462838523e-09
5.13819392997e-12
3.05881537826e-09
3.02361855547e-09
4.67307880033e-12
3.02146014967e-09
2.96389287635e-09
1.36482123397e-12
2.9608608657e-09
2.86630730113e-09
-3.97521743648e-12
2.87638134647e-09
2.73110561284e-09
-8.84927623902e-12
2.76742485003e-09
2.55935168036e-09
-9.24313777484e-12
2.63430700605e-09
2.35281172482e-09
2.47360871803e-09
2.1130534488e-09
2.46934820911e-12
2.31777396498e-11
2.53273600571e-09
2.20319011529e-09
8.36645754806e-13
3.09727388535e-11
2.69145822958e-09
2.46116679903e-09
3.01188701557e-11
2.81715639463e-09
2.68263800938e-09
2.47169809596e-11
2.91752191651e-09
2.86613846114e-09
1.78035730299e-11
2.99364994874e-09
3.01009268331e-09
1.10442103126e-11
3.04734382336e-09
3.11366495522e-09
4.96771413879e-12
3.0800612586e-09
3.17682262548e-09
-7.11502033618e-13
3.09179796595e-09
3.19888624234e-09
-6.83475157166e-12
3.07987187791e-09
3.17677117077e-09
-1.3701501732e-11
3.04696330969e-09
3.11356413937e-09
-2.08101357394e-11
2.99307482496e-09
3.00994198612e-09
-2.65279693498e-11
2.91676082892e-09
2.86593776612e-09
-2.78278919208e-11
2.81625450326e-09
2.6823974111e-09
-2.05802318274e-11
2.69062421784e-09
2.46097833128e-09
2.53230323041e-09
2.20329430427e-09
2.83931576498e-12
3.5261717708e-11
2.50252754813e-09
2.24268337641e-09
9.04250118915e-13
5.15229273621e-11
2.65335197395e-09
2.51443225031e-09
5.49210363189e-11
2.76738476041e-09
2.74712091371e-09
4.94859763301e-11
2.85625511722e-09
2.93933311551e-09
3.8664810393e-11
2.92212874422e-09
3.08966875622e-09
2.49546696456e-11
2.96776402685e-09
3.19752879881e-09
1.00052492573e-11
2.9952607647e-09
3.26308080586e-09
-5.20245967749e-12
3.00509791084e-09
3.28584514364e-09
-2.02183823884e-11
2.99512871983e-09
3.26302956822e-09
-3.40714906627e-11
2.96750243255e-09
3.19742828171e-09
-4.51310506628e-11
2.92174091645e-09
3.08951689468e-09
-5.09225041759e-11
2.85575072637e-09
2.93912593159e-09
-4.80047440774e-11
2.76679251891e-09
2.74686289331e-09
-3.23248705315e-11
2.65284290109e-09
2.51421632839e-09
2.50235729419e-09
2.24274150249e-09
3.19901857775e-12
4.73620004705e-11
2.39350140347e-09
2.23340657371e-09
9.59532912143e-13
7.25545862161e-11
2.53219453912e-09
2.51516421641e-09
8.0670520245e-11
2.63192255787e-09
2.7558995841e-09
7.54885568712e-11
2.70772150533e-09
2.95429804031e-09
6.07375246426e-11
2.76256782663e-09
3.10912297819e-09
3.97382481723e-11
2.79983675689e-09
3.21996147553e-09
1.53476055622e-11
2.82200022764e-09
3.28711677833e-09
-1.00389077292e-11
2.8298927888e-09
3.31029068289e-09
-3.4511790414e-11
2.8219335822e-09
3.28707498611e-09
-5.56819347485e-11
2.799709337e-09
3.21987943762e-09
-7.07051568941e-11
2.76238677726e-09
3.108996859e-09
-7.62762966727e-11
2.70749716785e-09
2.95411948172e-09
-6.86704045997e-11
2.63167161795e-09
2.75566650754e-09
-4.40891628141e-11
2.53205609545e-09
2.51496934739e-09
2.39364887937e-09
2.23346654472e-09
3.54301160647e-12
5.91729702337e-11
2.21864746468e-09
2.17808228446e-09
1.00181429423e-12
9.34561560719e-11
2.342264115e-09
2.46651293937e-09
1.06574195889e-10
2.42646359946e-09
2.71269984811e-09
1.0188286306e-10
2.48896583954e-09
2.91538895835e-09
8.32801569261e-11
2.53320032187e-09
3.07340449428e-09
5.48870962336e-11
2.56271273718e-09
3.18639539777e-09
2.08147533718e-11
2.58001865085e-09
3.25468144393e-09
-1.50429760904e-11
2.58612964588e-09
3.27808910437e-09
-4.92101277596e-11
2.58002021784e-09
3.25465965635e-09
-7.77969620491e-11
2.56272209972e-09
3.18635303906e-09
-9.66989706257e-11
2.53323016467e-09
3.07333618322e-09
-1.01806836411e-10
2.48902611794e-09
2.91528161656e-09
-8.92243898867e-11
2.42656550574e-09
2.7125428693e-09
-5.55806826659e-11
2.34251656764e-09
2.46639532719e-09
2.21915056341e-09
2.178199812e-09
3.8675668528e-12
7.05150208985e-11
1.99277014083e-09
2.07967926137e-09
1.03166357046e-12
1.13786598495e-10
2.09961250588e-09
2.37190888983e-09
1.31976408189e-10
2.16827318493e-09
2.62159898439e-09
1.27886555012e-10
2.21837560333e-09
2.82734606993e-09
1.05548523425e-10
2.25333123196e-09
2.98784775344e-09
6.98711574418e-11
2.27635805821e-09
3.10263431079e-09
2.62124817671e-11
2.28968523223e-09
3.17188244215e-09
-2.00250489387e-11
2.29432828926e-09
3.19545704882e-09
-6.37908684261e-11
2.28975275021e-09
3.17189136697e-09
-9.96813217276e-11
2.27650190882e-09
3.10265351455e-09
-1.22343922076e-10
2.25356367582e-09
2.98787126252e-09
-1.26874064248e-10
2.21871208134e-09
2.82735653108e-09
-1.09243790521e-10
2.16872025693e-09
2.62157420858e-09
-6.66357331013e-11
2.10026079419e-09
2.37192526305e-09
1.99364930623e-09
2.07990523555e-09
4.15195866807e-12
8.11960628905e-11
1.73157018819e-09
1.9410406524e-09
1.0505082362e-12
1.33042795252e-10
1.82092595543e-09
2.23484313905e-09
1.56139852286e-10
1.874904923e-09
2.486797988e-09
1.52609815642e-10
1.91440372806e-09
2.69497717453e-09
1.26691706097e-10
1.94201833012e-09
2.85776153459e-09
8.40831173281e-11
1.96020866173e-09
2.97436443554e-09
3.13214172845e-11
1.97065731954e-09
3.04464439615e-09
-2.47740314683e-11
1.97422291728e-09
3.06840375945e-09
-7.76546669303e-11
1.97078923174e-09
3.04469277825e-09
-1.20498749295e-10
1.96047906321e-09
2.97446344306e-09
-1.4676572631e-10
1.94244153386e-09
2.85790658497e-09
-1.50762088384e-10
1.91499441765e-09
2.69514952831e-09
-1.28242038664e-10
1.87567692841e-09
2.48696240096e-09
-7.70787811152e-11
1.82195573179e-09
2.23504536647e-09
1.73280709063e-09
1.94140618374e-09
4.4020422628e-12
8.57681964938e-11
1.76459966491e-09
1.06176865927e-12
1.45630769963e-09
1.48146134077e-10
2.0591799201e-09
1.51982384504e-09
1.76818450295e-10
2.31268830585e-09
1.56222112923e-09
1.74334833915e-10
2.52308161196e-09
1.59393722475e-09
1.45498891052e-10
2.68825802586e-09
1.61665939975e-09
9.680379352e-11
2.80691852377e-09
1.63195389806e-09
3.58979997091e-11
2.87843405768e-09
1.64078971296e-09
-2.90548525231e-11
2.9024424124e-09
1.64373668265e-09
-9.00954760088e-11
2.87852415384e-09
1.64098499976e-09
-1.39051984023e-10
2.8071022511e-09
1.63235035986e-09
-1.68270007176e-10
2.68853424241e-09
1.61726675378e-09
-1.71247140778e-10
2.52343640334e-09
1.59477048044e-09
-1.43177256787e-10
2.3130772937e-09
1.56329584192e-09
-8.14895251e-11
2.05963558867e-09
1.52120794213e-09
1.76505975846e-09
4.57220212058e-12
1.45790820446e-09
7.55896954402e-14
9.19553723847e-12
1.72038483897e-10
-3.47806958016e-16
-2.7599274958e-13
9.44217691901e-12
1.87789589763e-10
-5.19504223088e-13
9.21286507945e-12
2.00863331597e-10
-6.63074787876e-13
8.8926557386e-12
2.11514585134e-10
-5.92769325526e-13
8.67434144235e-12
2.19794829833e-10
-3.49942091304e-13
8.51678780601e-12
2.25730868705e-10
-1.22442168294e-14
8.40043697944e-12
2.29387449417e-10
3.45550870243e-13
8.33943735793e-12
2.30724331776e-10
6.63364060338e-13
8.33795755182e-12
2.2939057981e-10
8.74935332215e-13
8.41773419429e-12
2.25737479924e-10
9.27552202516e-13
8.57713768998e-12
2.19805921814e-10
7.97940618431e-13
8.80573351212e-12
2.1153271741e-10
5.23611488348e-13
9.05655376125e-12
2.00894435494e-10
1.44760402515e-13
9.3195593816e-12
1.87851984666e-10
9.09312061295e-12
1.72187274236e-10
1.5776135305e-13
1.22364643049e-13
6.43525937866e-11
5.04516421202e-10
-1.97750721476e-14
-6.7044058174e-13
6.97015484104e-11
5.52407731494e-10
-1.44233803262e-12
7.35302241943e-11
5.92482635298e-10
-1.89418631359e-12
7.6739183506e-11
6.25217586884e-10
-1.76684274027e-12
7.94737495503e-11
6.50690284349e-10
-1.09793435757e-12
8.15565047615e-11
6.68953372766e-10
-8.73367022071e-14
8.28523768662e-11
6.80181518821e-10
1.02073230568e-12
8.32805120422e-11
6.84254868823e-10
1.98842483614e-12
8.27160501141e-11
6.80189322878e-10
2.59070660606e-12
8.13266691416e-11
6.68970068965e-10
2.67552476865e-12
7.92175818271e-11
6.50718910179e-10
2.22370533465e-12
7.64828278234e-11
6.25265656539e-10
1.38939805179e-12
7.31857876824e-11
5.92567592814e-10
4.9605873253e-13
6.93886063506e-11
5.52580677212e-10
6.41305330435e-11
5.04901187396e-10
4.44575412002e-13
3.27529339194e-13
1.62945638183e-10
8.20732455904e-10
-3.70721326806e-14
-6.33155390982e-13
1.78078214462e-10
9.01958368591e-10
-1.82074097318e-12
1.90347975366e-10
9.705308267e-10
-2.59374611046e-12
2.00887738643e-10
1.02684283069e-09
-2.5302299275e-12
2.09663551677e-10
1.07081464027e-09
-1.60876835714e-12
2.16286583334e-10
1.10240733143e-09
-1.01638180844e-13
2.20445420154e-10
1.1218181286e-09
1.59136372566e-12
2.21889103944e-10
1.12881155297e-09
3.04449821865e-12
2.20259604439e-10
1.12182783883e-09
3.88097892901e-12
2.15964827381e-10
1.10242856726e-09
3.87896583392e-12
2.0928573124e-10
1.07085233094e-09
3.07101384104e-12
2.00493164014e-10
1.02690857046e-09
1.78433720652e-12
1.89872437845e-10
9.706504941e-10
6.54946660987e-13
1.77635959665e-10
9.02204522228e-10
1.62680364183e-10
8.21274148129e-10
7.21303636722e-13
9.44858624243e-13
2.92360289294e-10
1.11670595349e-09
-4.78325063809e-14
1.93830057969e-13
3.20331211107e-10
1.23177563305e-09
-1.18276572725e-12
3.43968670295e-10
1.32966975859e-09
-2.26488418843e-12
3.64270614718e-10
1.41044926739e-09
-2.43594112163e-12
3.80969735952e-10
1.47372403111e-09
-1.56851512157e-12
3.93474364513e-10
1.51926892912e-09
5.81206235778e-14
4.01319211864e-10
1.5472349978e-09
1.94189569853e-12
4.04075192251e-10
1.55724969774e-09
3.51033142529e-12
4.01107145863e-10
1.5472427215e-09
4.28346690371e-12
3.93097699465e-10
1.5192869441e-09
4.02469794658e-12
3.80504938372e-10
1.4737589715e-09
2.86813379576e-12
3.63770198133e-10
1.41051566439e-09
1.3517358896e-12
3.43413134303e-10
1.32979834484e-09
3.82597685989e-13
3.19833212242e-10
1.23205002277e-09
2.92087373303e-10
1.11731758369e-09
9.98990056499e-13
2.22092008225e-12
4.39172653122e-10
1.38591362673e-09
-4.82199422874e-14
2.20440602418e-12
4.81322343198e-10
1.53429401286e-09
9.55107237644e-13
5.17570935612e-10
1.66129028962e-09
-3.9656168154e-13
5.48505326601e-10
1.76647360733e-09
-1.02764357207e-12
5.73691121766e-10
1.8490514818e-09
-6.54875044527e-13
5.92399945596e-10
1.90856170677e-09
5.14975087577e-13
6.04087601797e-10
1.94507152657e-09
1.96913068597e-12
6.08206454001e-10
1.95807364891e-09
3.07862588853e-12
6.03864079709e-10
1.94507414129e-09
3.3492432085e-12
5.91996541482e-10
1.90857018822e-09
2.6076158762e-12
5.73180316444e-10
1.84907372429e-09
1.14135098828e-12
5.47947967753e-10
1.76652566391e-09
-2.90902546909e-13
5.16979624501e-10
1.66140430421e-09
-5.66928685434e-13
4.80829859042e-10
1.53455828613e-09
4.38923521968e-10
1.38653004707e-09
1.27695652805e-12
4.36190664224e-12
5.89688696809e-10
1.62269268216e-09
-3.88304392825e-14
5.7561488323e-12
6.45686234446e-10
1.80289589752e-09
5.04807963633e-12
6.94081552969e-10
1.95780988298e-09
3.50516877237e-12
7.35026738819e-10
2.08644517247e-09
2.14095283984e-12