/*--------------------------------*- C++ -*----------------------------------*\
  =========                 |
  \\      /  F ield         | OpenFOAM: The Open Source CFD Toolbox
   \\    /   O peration     | Website:  https://openfoam.org
    \\  /    A nd           | Version:  7
     \\/     M anipulation  |
\*---------------------------------------------------------------------------*/
FoamFile
{
    version     2.0;
    format      ascii;
    class       surfaceScalarField;
    location    "2.12";
    object      phi;
}
// * * * * * * * * * * * * * * * * * * * * * * * * * * * * * * * * * * * * * //

dimensions      [0 3 -1 0 0 0 0];

internalField   nonuniform List<scalar> 
65775
(
-1.60348056585e-11
-4.90441242487e-09
-5.29912390175e-11
7.2850305317e-15
-2.9035563663e-11
-5.16225978174e-09
-5.57189880555e-11
-3.49043285971e-11
-5.39917171431e-09
-5.75882024352e-11
-3.3932292577e-11
-5.6041502408e-09
-5.8907774927e-11
-2.80132858237e-11
-5.76916828969e-09
-5.98019241386e-11
-1.85108005022e-11
-5.89058320385e-09
-6.03639432304e-11
-6.85372801123e-12
-5.96686529771e-09
-6.06935144668e-11
5.56635546038e-12
-5.99531160579e-09
-6.08364859415e-11
1.72482409618e-11
-5.96685331342e-09
-6.07024297171e-11
2.68008834685e-11
-5.89055640593e-09
-6.03822419944e-11
3.27930646775e-11
-5.76912360602e-09
-5.98303932906e-11
3.38579974598e-11
-5.60408784053e-09
-5.89477880443e-11
2.80964338137e-11
-5.39910250902e-09
-5.76419308863e-11
1.52167892081e-11
-5.16219952741e-09
-5.5789933663e-11
-4.90442582035e-09
-5.30837498073e-11
-6.34644939731e-13
-5.53795744575e-11
-9.17709634277e-09
-4.09975199005e-10
-1.84960146849e-13
-9.769623539e-11
-9.65519001725e-09
-4.59573183407e-10
-1.15924437648e-10
-1.00994918955e-08
-5.06485760756e-10
-1.13546989639e-10
-1.04804458087e-08
-5.48916858764e-10
-9.42687198024e-11
-1.07859865857e-08
-5.84702438831e-10
-6.25061730172e-11
-1.10098004947e-08
-6.11902663024e-10
-2.30308121683e-11
-1.1150043697e-08
-6.29137248386e-10
1.90478484293e-11
-1.1202210172e-08
-6.35314282058e-10
5.86147981753e-11
-1.11500573721e-08
-6.29158789431e-10
9.05642683939e-11
-1.10098235119e-08
-6.11947721971e-10
1.10123725865e-10
-1.0786009409e-08
-5.84774076975e-10
1.12863160927e-10
-1.04804563057e-08
-5.49020217795e-10
9.50541523768e-11
-1.00994931981e-08
-5.0662853852e-10
5.31992211813e-11
-9.65521404789e-09
-4.59766717291e-10
-9.17724019948e-09
-4.10231041249e-10
-1.85687948496e-12
-1.02162242493e-10
-1.26613425472e-08
-9.16459450111e-10
-7.44966077071e-14
-1.72713886112e-10
-1.33060751631e-08
-1.03710164457e-09
-2.03661398012e-10
-1.3903271788e-08
-1.15257037034e-09
-1.99811389817e-10
-1.44102788195e-08
-1.25747875344e-09
-1.66252442886e-10
-1.4814748105e-08
-1.34613718142e-09
-1.10205564321e-10
-1.51094626935e-08
-1.41358636621e-09
-4.01086759796e-11
-1.52935908566e-08
-1.45627833927e-09
3.46820131965e-11
-1.53620164659e-08
-1.47148859368e-09
1.04880980636e-10
-1.52936306293e-08
-1.45631865457e-09
1.61135300523e-10
-1.51095354813e-08
-1.41366914446e-09
1.95007040165e-10
-1.48148405233e-08
-1.34626558797e-09
1.99268428824e-10
-1.44103759047e-08
-1.25765831359e-09
1.68816086581e-10
-1.39033713224e-08
-1.15280998175e-09
9.88477936212e-11
-1.33062249354e-08
-1.03741581804e-09
-1.26616445446e-08
-9.16863853149e-10
-2.71898669873e-12
-1.52154214369e-10
-1.52911758418e-08
-1.48564491403e-09
-3.54694430667e-14
-2.50909492272e-10
-1.60443855169e-08
-1.68522695004e-09
-2.95052928254e-10
-1.67329921284e-08
-1.87574234162e-09
-2.89682818549e-10
-1.73116712981e-08
-2.04810156141e-09
-2.4137245142e-10
-1.77703717518e-08
-2.19314625643e-09
-1.59968452803e-10
-1.81028332937e-08
-2.30309541349e-09
-5.77409714793e-11
-1.83099786475e-08
-2.37247072703e-09
5.14370299206e-11
-1.83869803466e-08
-2.39709834074e-09
1.53769370487e-10
-1.83100375898e-08
-2.37252258748e-09
2.3538688868e-10
-1.81029443023e-08
-2.30320157833e-09
2.84022023921e-10
-1.7770518784e-08
-2.19331029729e-09
2.89827105719e-10
-1.73118380918e-08
-2.04832960297e-09
2.46220730757e-10
-1.67331759245e-08
-1.87604429251e-09
1.48112330091e-10
-1.60446520736e-08
-1.68561973892e-09
-1.52916300821e-08
-1.48614787051e-09
-3.32373140948e-12
-2.01739139486e-10
-1.70742460527e-08
-2.04755075759e-09
-2.82925817691e-14
-3.28928981142e-10
-1.78816987838e-08
-2.32151635147e-09
-3.8637172242e-10
-1.86064242441e-08
-2.58100500274e-09
-3.79439811417e-10
-1.92092697088e-08
-2.81409238574e-09
-3.16340142913e-10
-1.96839975445e-08
-3.00903443989e-09
-2.09538098741e-10
-2.00264567702e-08
-3.15608837299e-09
-7.51386190566e-11
-2.02393611305e-08
-3.24853811398e-09
6.84733548296e-11
-2.03185862825e-08
-3.28126254018e-09
2.029728094e-10
-2.02394364532e-08
-3.24859535832e-09
3.0997973632e-10
-2.00266003169e-08
-3.15620617654e-09
3.73393939906e-10
-1.96841947316e-08
-3.0092166095e-09
3.80753026491e-10
-1.92095063678e-08
-2.8143452697e-09
3.2384694457e-10
-1.86066988974e-08
-2.58133878694e-09
1.97309676097e-10
-1.78820800006e-08
-2.3219493629e-09
-1.70748340343e-08
-2.0481052555e-09
-3.68425405355e-12
-2.4840403164e-10
-1.80750852109e-08
-2.54783407418e-09
-3.46475171321e-14
-4.0387256849e-10
-1.88916040628e-08
-2.8843951883e-09
-4.74387170812e-10
-1.96098655281e-08
-3.20022923912e-09
-4.65914650876e-10
-2.0201378198e-08
-3.48178189493e-09
-3.88445115866e-10
-2.06643450171e-08
-3.71580181496e-09
-2.57104939508e-10
-2.09970675553e-08
-3.89149923184e-09
-9.17200565939e-11
-2.12035927003e-08
-4.00157605676e-09
8.50270717319e-11
-2.12805303786e-08
-4.04043924095e-09
2.50504914168e-10
-2.12036765763e-08
-4.00163625693e-09
3.82035971014e-10
-2.09972297754e-08
-3.89162294239e-09
4.59800483806e-10
-2.06645732417e-08
-3.71599261124e-09
4.68676772192e-10
-2.02016617483e-08
-3.48204558704e-09
3.98675364162e-10
-1.96102049033e-08
-3.20057516163e-09
2.438324647e-10
-1.88920704539e-08
-2.88484157526e-09
-1.80757810332e-08
-2.54840484624e-09
-3.85428551852e-12
-2.90997406804e-10
-1.83919528233e-08
-2.95392691198e-09
-4.46964059352e-14
-4.73937931585e-10
-1.91828364686e-08
-3.33933410469e-09
-5.57039318564e-10
-1.98653986134e-08
-3.69783754973e-09
-5.47136592822e-10
-2.04220695646e-08
-4.0152744213e-09
-4.56064591367e-10
-2.08554769582e-08
-4.27772852929e-09
-3.01624331919e-10
-2.11661320494e-08
-4.47399798756e-09
-1.07176984334e-10
-2.13587569776e-08
-4.59660067246e-09
1.0061267217e-10
-2.14305573303e-08
-4.63977329171e-09
2.95147429138e-10
-2.13588471855e-08
-4.5966627964e-09
4.49767016689e-10
-2.11663088231e-08
-4.4741251885e-09
5.41116132706e-10
-2.08557315064e-08
-4.27792358162e-09
5.51398450514e-10
-2.04223954399e-08
-4.01554174575e-09
4.6878056059e-10
-1.98657982575e-08
-3.69818452018e-09
2.86428446048e-10
-1.9183375493e-08
-3.33977761466e-09
-1.83927333472e-08
-2.95449125856e-09
-3.90031798631e-12
-3.29485532684e-10
-1.81362096361e-08
-3.25276518331e-09
-5.11671132805e-14
-5.38520274993e-10
-1.88764180839e-08
-3.67463958529e-09
-6.33593295025e-10
-1.95049357519e-08
-4.06416418806e-09
-6.22443382988e-10
-2.00127389325e-08
-4.40720227474e-09
-5.1870215726e-10
-2.04064613368e-08
-4.68966373838e-09
-3.4280870905e-10
-2.0688248411e-08
-4.90025930167e-09
-1.21452786847e-10
-2.08628445665e-08
-5.03148613657e-09
1.15047462392e-10
-2.09278853935e-08
-5.07756168756e-09
3.36488287374e-10
-2.08629391804e-08
-5.03155024534e-09
5.12555146614e-10
-2.06884361202e-08
-4.90038984843e-09
6.1656263771e-10
-2.04067372165e-08
-4.68986224669e-09
6.28075375638e-10
-2.00131000554e-08
-4.40747111022e-09
5.3346214695e-10
-1.95053873444e-08
-4.06450793583e-09
3.24983984427e-10
-1.8877019549e-08
-3.67507293786e-09
-1.81370647543e-08
-3.25331142889e-09
-3.88109701088e-12
-3.64492515287e-10
-1.74182576854e-08
-3.44469501666e-09
-5.24692147874e-14
-5.97954423163e-10
-1.8090672961e-08
-3.89328503067e-09
-7.04393831434e-10
-1.86545008065e-08
-4.30506776345e-09
-6.92206732171e-10
-1.91060842301e-08
-4.66621716961e-09
-5.76705111368e-10
-1.94552985648e-08
-4.96268637605e-09
-3.80912066213e-10
-1.97051551927e-08
-5.18322580066e-09
-1.3466093202e-10
-1.98598598552e-08
-5.32035115228e-09
1.28374456369e-10
-1.99173530507e-08
-5.36833445154e-09
3.74711035368e-10
-1.98599606251e-08
-5.32041769114e-09
5.7067747902e-10
-1.97053570922e-08
-5.1833604368e-09
6.86442848292e-10
-1.9455600752e-08
-4.96288912766e-09
6.98985578758e-10
-1.91064868503e-08
-4.66648796544e-09
5.9299252863e-10
-1.86550102986e-08
-4.30540794454e-09
3.60066035279e-10
-1.80913417621e-08
-3.89370666377e-09
-1.7419181945e-08
-3.44521913227e-09
-3.83950662775e-12
-3.96863783511e-10
-1.63400583948e-08
-3.53730024095e-09
-4.65194575365e-14
-6.53162226985e-10
-1.69337067247e-08
-4.00541948972e-09
-7.70505252438e-10
-1.74273044863e-08
-4.43322873185e-09
-7.57453320442e-10
-1.78199071171e-08
-4.80726408137e-09
-6.30908019537e-10
-1.81233969108e-08
-5.11358916211e-09
-4.16476289015e-10
-1.83407413766e-08
-5.34104465937e-09
-1.46998006993e-10
-1.84751792729e-08
-5.48217476965e-09
1.40759636822e-10
-1.85248939676e-08
-5.5313611344e-09
4.10326446069e-10
-1.84752886643e-08
-5.48224415596e-09
6.24936337601e-10
-1.8340962732e-08
-5.34118418619e-09
7.51750268501e-10
-1.81237320355e-08
-5.11379728164e-09
7.65160023475e-10
-1.78203600293e-08
-4.80753816759e-09
6.48260552313e-10
-1.74278823219e-08
-4.43356673017e-09
3.92489454993e-10
-1.69344556099e-08
-4.00583076058e-09
-1.63410641284e-08
-3.53780261586e-09
-3.80302618684e-12
-4.27380807916e-10
-1.49924966514e-08
-3.54088686544e-09
-3.55695801513e-14
-7.05401933699e-10
-1.5500858999e-08
-4.0233302477e-09
-8.33430460851e-10
-1.59221958828e-08
-4.46275950675e-09
-8.19538180547e-10
-1.62565173781e-08
-4.84597766649e-09
-6.82323725513e-10
-1.65156984859e-08
-5.15917416843e-09
-4.50117502257e-10
-1.67016723369e-08
-5.39133566222e-09
-1.58671344268e-10
-1.68164732545e-08
-5.53506714047e-09
1.52404266812e-10
-1.68585687479e-08
-5.58492426812e-09
4.4394370696e-10
-1.68165956342e-08
-5.53513957844e-09
6.76336981864e-10
-1.67019208908e-08
-5.39148054891e-09
8.13830363577e-10
-1.65160788033e-08
-5.15938849758e-09
8.2809058164e-10
-1.62570348362e-08
-4.84625634231e-09
7.00512024649e-10
-1.59228589488e-08
-4.4630970947e-09
4.2302059928e-10
-1.55017068713e-08
-4.02373345989e-09
-1.49935986041e-08
-3.54136986482e-09
-3.78652890589e-12
-4.56655173779e-10
-1.34554435235e-08
-3.46584619112e-09
-1.98914439814e-14
-7.56293404404e-10
-1.38746749695e-08
-3.95880157732e-09
-8.94989531686e-10
-1.42248198366e-08
-4.40666555066e-09
-8.79868640747e-10
-1.45047064938e-08
-4.79628911412e-09
-7.3186238929e-10
-1.47230615562e-08
-5.11402685194e-09
-4.82332564061e-10
-1.48800000087e-08
-5.34912008906e-09
-1.6983780986e-10
-1.49764772675e-08
-5.49430640758e-09
1.63471160633e-10
-1.50113817554e-08
-5.54439452561e-09
4.76065570173e-10
-1.49766182987e-08
-5.49438180928e-09
7.25793857689e-10
-1.48802872393e-08
-5.34927030242e-09
8.74094689395e-10
-1.47235007813e-08
-5.11424767268e-09
8.89599733924e-10
-1.45053068996e-08
-4.79657323894e-09
7.51368435902e-10
-1.42255898381e-08
-4.40700420196e-09
4.52271685694e-10
-1.38756479008e-08
-3.95919863816e-09
-1.34566668138e-08
-3.46631220065e-09
-3.79457024929e-12
-4.85945416697e-10
-1.17982576869e-08
-3.32143971213e-09
-2.44176914456e-15
-8.08674887513e-10
-1.21257860986e-08
-3.82217075211e-09
-9.57316596926e-10
-1.24103438109e-08
-4.27612892424e-09
-9.39497564901e-10
-1.26426466606e-08
-4.66990007323e-09
-7.79930864636e-10
-1.28249564697e-08
-4.99017472499e-09
-5.13255157508e-10
-1.2955822911e-08
-5.22663626648e-09
-1.80521275593e-10
-1.30356643529e-08
-5.3722579744e-09
1.73995434746e-10
-1.30639925159e-08
-5.42218627875e-09
5.06836413579e-10
-1.30358312559e-08
-5.3723358832e-09
7.73725822929e-10
-1.2956160893e-08
-5.22679110973e-09
9.33605872463e-10
-1.28254743234e-08
-4.99040152272e-09
9.51831220183e-10
-1.26433519501e-08
-4.67018982124e-09
8.0367608884e-10
-1.24112457969e-08
-4.27646955227e-09
4.81508420446e-10
-1.21269150188e-08
-3.82256228912e-09
-1.17996356894e-08
-3.32188869682e-09
-3.81514861072e-12
-5.21154151196e-10
-1.00766175929e-08
-3.11543587189e-09
1.97873267352e-14
-8.68138807768e-10
-1.03161139418e-08
-3.6224543555e-09
-1.02252371002e-09
-1.05478412321e-08
-4.08072040968e-09
-9.98695515669e-10
-1.0740591378e-08
-4.47657137904e-09
-8.2629786887e-10
-1.08914869503e-08
-4.79749895995e-09
-5.42660545581e-10
-1.09992384838e-08
-5.03386360675e-09
-1.90642098467e-10
-1.10643299598e-08
-5.17897208076e-09
1.83910306201e-10
-1.10868191526e-08
-5.22838065395e-09
5.36045523272e-10
-1.10645308163e-08
-5.17905153031e-09
8.19912733191e-10
-1.09996443476e-08
-5.03402141297e-09
9.92648273857e-10
-1.08921031587e-08
-4.79772993728e-09
1.01690970358e-09
-1.07414265952e-08
-4.47686576404e-09
8.6303722675e-10
-1.05489046974e-08
-4.0810633406e-09
5.16640200605e-10
-1.03174352403e-08
-3.62283997928e-09
-1.00781898561e-08
-3.11586373697e-09
-3.85815247149e-12
-5.80247368821e-10
-2.85368948215e-09
3.90980374037e-14
-8.32238165206e-09
-9.43823382835e-10
-3.3677368414e-09
-8.50832549143e-09
-1.09648714427e-09
-3.82831454366e-09
-8.70178033284e-09
-1.06301998553e-09
-4.22420226173e-09
-8.86120996011e-09
-8.76053588486e-10
-4.54409902402e-09
-8.98511034711e-09
-5.74149175732e-10
-4.77913115676e-09
-9.07352374324e-09
-2.01483897134e-10
-4.92294815656e-09
-9.12656595679e-09
1.9451388109e-10
-4.97154332424e-09
-9.14431355147e-09
5.67305577869e-10
-4.92302728964e-09
-9.1268104608e-09
8.69459564339e-10
-4.77928841493e-09
-9.07401611859e-09
1.05678990927e-09
-4.54432950287e-09
-8.98585397865e-09
1.09072156815e-09
-4.22449673448e-09
-8.86220972806e-09
9.38606460274e-10
-3.82865676814e-09
-8.70304165753e-09
5.75647774046e-10
-3.36811964225e-09
-8.509875001e-09
-2.85408028669e-09
-3.90714059201e-12
-8.32420610522e-09
-8.45566264424e-12
3.62922373812e-10
-4.07469008154e-10
-7.92353447138e-14
-1.36871426217e-11
4.01089036718e-10
-4.51722993897e-10
-1.56462245092e-11
4.37693752935e-10
-4.93482941679e-10
-1.52323488807e-11
4.71484537774e-10
-5.30949572155e-10
-1.26308083976e-11
4.99761423206e-10
-5.62268545659e-10
-8.29489484961e-12
5.2113451946e-10
-5.85902367259e-10
-2.82109630564e-12
5.34616958038e-10
-6.00828007017e-10
3.05140335207e-12
5.39455919876e-10
-6.06196950009e-10
8.52159196198e-12
5.34634031532e-10
-6.00833011032e-10
1.28544812286e-11
5.21172890625e-10
-5.85912069576e-10
1.54607421775e-11
4.99823364467e-10
-5.62282380401e-10
1.58908173565e-11
4.71567121202e-10
-5.30966993259e-10
1.39510524809e-11
4.37780601186e-10
-4.93503922287e-10
8.72331998546e-12
4.0116655476e-10
-4.51749491012e-10
3.6298139378e-10
-4.07508685481e-10
1.47514056209e-13
-1.44394539161e-11
1.03986170088e-09
-1.07267283217e-09
4.03921191129e-14
-2.30847141876e-11
1.13661693447e-09
-1.18670185055e-09
-2.64559353734e-11
1.22802624862e-09
-1.29371629302e-09
-2.55286737086e-11
1.31065227469e-09
-1.38924596109e-09
-2.09785136726e-11
1.37912373237e-09
-1.46878338309e-09
-1.36059919853e-11
1.4303771287e-09
-1.52862844494e-09
-4.41187711289e-12
1.46255909889e-09
-1.56634650482e-09
5.4241687089e-12
1.4741415749e-09
-1.57989071052e-09
1.45906393044e-11
1.46262851254e-09
-1.56636492268e-09
2.19108638523e-11
1.43052788033e-09
-1.5286639106e-09
2.63898241306e-11
1.3793655262e-09
-1.46883359313e-09
2.72393991098e-11
1.31096846788e-09
-1.38930822307e-09
2.37805982769e-11
1.22836409635e-09
-1.29378899163e-09
1.50284632451e-11
1.13690689002e-09
-1.18678877837e-09
1.04005531558e-09
-1.0727897777e-09
4.81445860891e-13
-1.26541000963e-11
1.76341617621e-09
-1.62736269774e-09
-1.46401242942e-13
-1.96818606651e-11
1.90745729454e-09
-1.80111668145e-09
-2.24123177071e-11
2.04165149393e-09
-1.96368069325e-09
-2.13948519173e-11
2.16039815554e-09
-2.10842782921e-09
-1.74200360651e-11
2.25757681527e-09
-2.22870331762e-09
-1.1183972225e-11
2.32952353426e-09
-2.3190635912e-09
-3.49661489351e-12
2.37445206103e-09
-2.3759232331e-09
4.72565642142e-12
2.39066432482e-09
-2.39628151467e-09
1.23977052428e-11
2.37454317087e-09
-2.37594459369e-09
1.86092715189e-11
2.3297171052e-09
-2.31910523653e-09
2.25594912897e-11
2.25787985137e-09
-2.22876327149e-09
2.35551864152e-11
2.16078650926e-09
-2.1085041733e-09
2.07871419505e-11
2.04206464023e-09
-1.96377331344e-09
1.36657017826e-11
1.90781584353e-09
-1.80123280647e-09
1.76367094638e-09
-1.62752460108e-09
6.84406405616e-13
-6.09951722585e-12
2.38052458931e-09
-2.0965419775e-09
-2.50110314336e-13
-8.45600048454e-12
2.54764166579e-09
-2.32324861502e-09
-9.22669581009e-12
2.70124460144e-09
-2.53477154427e-09
-8.45470373279e-12
2.83405234322e-09
-2.72270511692e-09
-6.63152140734e-12
2.94107949354e-09
-2.87860425502e-09
-4.03498177225e-12
3.01931787907e-09
-2.99557698586e-09
-9.22525743977e-13
3.06787703056e-09
-3.06907153822e-09
2.42362437953e-12
3.08548029452e-09
-3.09530768149e-09
5.52715289849e-12
3.06797365212e-09
-3.0690959313e-09
8.11152347408e-12
3.01952118134e-09
-2.99562484071e-09
9.92722985819e-12
2.94139458397e-09
-2.87867371337e-09
1.06933739058e-11
2.83445374246e-09
-2.72279458338e-09
9.89274058731e-12
2.70167213654e-09
-2.53488153356e-09
7.43220858124e-12
2.54801645499e-09
-2.32338778916e-09
2.38079347227e-09
-2.0967351165e-09
8.70472431134e-13
3.15303147755e-12
2.81346725539e-09
-2.48345750027e-09
-3.15248247322e-13
6.59360177394e-12
2.97924729289e-09
-2.75671996588e-09
8.1425130012e-12
3.12951914953e-09
-3.01098798122e-09
8.29840003917e-12
3.25610460959e-09
-3.2364383563e-09
7.14303503697e-12
3.35626536143e-09
-3.42316947118e-09
4.99666431372e-12
3.42840816531e-09
-3.56310837276e-09
2.28915234347e-12
3.47289432391e-09
-3.65090191907e-09
-5.33419631318e-13
3.48914552066e-09
-3.68214655449e-09
-3.24528063281e-12
3.4729867741e-09
-3.65093021103e-09
-5.3967515587e-12
3.42859967726e-09
-3.56316333952e-09
-6.55384290805e-12
3.35655595326e-09
-3.42324910924e-09
-6.40337636848e-12
3.25647165045e-09
-3.2365408795e-09
-4.89265094814e-12
3.12991042815e-09
-3.01111363822e-09
-1.57275036351e-12
2.97960025815e-09
-2.75687750491e-09
2.8137341833e-09
-2.483671182e-09
1.03138005015e-12
1.34476655624e-11
3.04412706029e-09
-2.79169897552e-09
-3.56240017449e-13
2.26111980296e-11
3.1911362382e-09
-3.10559039482e-09
2.63077406174e-11
3.32233210354e-09
-3.39688665303e-09
2.55739516821e-11
3.42959582134e-09
-3.65466682854e-09
2.11925263724e-11
3.51261511058e-09
-3.86786855134e-09
1.41363167843e-11
3.57136115735e-09
-4.02746745608e-09
5.51505304608e-12
3.60733382516e-09
-4.12744654146e-09
-3.5443236865e-12
3.62063765414e-09
-4.16291230154e-09
-1.2166813332e-11
3.60741840873e-09
-4.12747841024e-09
-1.9224768692e-11
3.57153451143e-09
-4.02752931515e-09
-2.36075447591e-11
3.51287639627e-09
-3.86795793596e-09
-2.43528950671e-11
3.42992609582e-09
-3.65478123232e-09
-2.07066532296e-11
3.3226891374e-09
-3.39702530481e-09
-1.16785056514e-11
3.19146918247e-09
-3.10576127563e-09
3.04438895411e-09
-2.79192547046e-09
1.16475497639e-12
2.35668343925e-11
3.09209130434e-09
-3.02517909127e-09
-3.81236878499e-13
3.77979176224e-11
3.21175249173e-09
-3.37429611266e-09
4.3267462349e-11
3.31635767195e-09
-3.69744719651e-09
4.15217359639e-11
3.3988568568e-09
-3.98288795263e-09
3.40532016326e-11
3.46092560505e-09
-4.21864868585e-09
2.24528982007e-11
3.50385271611e-09
-4.39494845153e-09
8.43487991608e-12
3.52992722001e-09
-4.50522138412e-09
-6.29456720779e-12
3.53976031228e-09
-4.54420175511e-09
-2.03118959451e-11
3.53000057125e-09
-4.50525707958e-09
-3.19126735209e-11
3.50400179299e-09
-4.3950175996e-09
-3.9385416614e-11
3.46114919258e-09
-4.21874809742e-09
-4.11516979605e-11
3.39914131511e-09
-3.98301396551e-09
-3.57455506894e-11
3.31667425465e-09
-3.69759744881e-09
-2.16617074847e-11
3.21206464456e-09
-3.37447735204e-09
3.09236166977e-09
-3.02541348258e-09
1.2706150644e-12
3.27309986989e-11
2.99481841514e-09
-3.18791566289e-09
-3.94152324121e-13
5.12075163972e-11
3.08587639889e-09
-3.56733879109e-09
5.80637262115e-11
3.16289739626e-09
-3.91765961213e-09
5.53236101515e-11
3.22085083434e-09
-4.2265438219e-09
4.51193906952e-11
3.26272824579e-09
-4.48133249721e-09
2.95804599384e-11
3.29073761045e-09
-4.67165972456e-09
1.09273374902e-11
3.30756665089e-09
-4.79051470616e-09
-8.66122801876e-12
3.31412244606e-09
-4.83236863531e-09
-2.73130404612e-11
3.3076287186e-09
-4.79055444669e-09
-4.28531930739e-11
3.29086395341e-09
-4.67173651906e-09
-5.3066532634e-11
3.26291922981e-09
-4.4814422304e-09
-5.58365599178e-11
3.22109951548e-09
-4.22668135812e-09
-4.90555906846e-11
3.16318528745e-09
-3.91782063497e-09
-3.07331813885e-11
3.08617973536e-09
-3.56752865378e-09
2.99510346867e-09
-3.18815500033e-09
1.34968691818e-12
4.04989398863e-11
2.79373548977e-09
-3.2837892425e-09
-3.99936025484e-13
6.2447119013e-11
2.85955303833e-09
-3.68898929574e-09
7.03845623671e-11
2.91199682141e-09
-4.0621823602e-09
6.67767283734e-11
2.94881625701e-09
-4.39064286521e-09
5.4280614084e-11
2.97369446804e-09
-4.66121275645e-09
3.54711545738e-11
2.98937599584e-09
-4.86310040491e-09
1.29816342037e-11
2.99862149537e-09
-4.98895291901e-09
-1.06269907446e-11
3.00245257099e-09
-5.0330859918e-09
-3.31156755187e-11
2.99867172892e-09
-4.98899687175e-09
-5.19288027819e-11
2.98947928498e-09
-4.86318513747e-09
-6.44402093246e-11
2.9738536401e-09
-4.66133310548e-09
-6.80878948349e-11
2.94903146219e-09
-4.39079202856e-09
-6.02357951362e-11
2.91226107506e-09
-4.06235387574e-09
-3.84464959022e-11
2.85985381925e-09
-3.68918714357e-09
2.79405067279e-09
-3.28403213798e-09
1.40520020267e-12
4.66885177747e-11
2.52647543555e-09
-3.31639239976e-09
-3.99928175435e-13
7.14494550914e-11
2.57244391375e-09
-3.74313530895e-09
8.02697947035e-11
2.60509242851e-09
-4.13520839187e-09
7.59953774017e-11
2.62542116255e-09
-4.47965163939e-09
6.16723006575e-11
2.63735078106e-09
-4.76297106477e-09
4.02307403199e-11
2.64383629476e-09
-4.97410298116e-09
1.46391462707e-11
2.64746531777e-09
-5.10546003144e-09
-1.22256453987e-11
2.64924146725e-09
-5.1513118894e-09
-3.78179539134e-11
2.64750522209e-09
-5.1055083175e-09
-5.92672609436e-11
2.64391990849e-09
-4.97419589623e-09
-7.36127376989e-11
2.63748492334e-09
-4.76310236486e-09
-7.79365871824e-11
2.62561176408e-09
-4.47981277916e-09
-6.92103068995e-11
2.60534193524e-09
-4.1353906936e-09
-4.46097176547e-11
2.57274944178e-09
-3.74334148144e-09
2.52682265321e-09
-3.31663876768e-09
1.43916841543e-12
5.13027535653e-11
2.22362283317e-09
-3.28899618297e-09
-3.98101022683e-13
7.83405133738e-11
2.25531415482e-09
-3.73329023782e-09
8.79576376796e-11
2.27319926531e-09
-4.14053365557e-09
8.32662539915e-11
2.2817053258e-09
-4.49761589872e-09
6.75581650879e-11
2.28468739546e-09
-4.79084122979e-09
4.40412468232e-11
2.28501297717e-09
-5.00902931504e-09
1.59670998841e-11
2.28491946344e-09
-5.14447502476e-09
-1.35166967669e-11
2.28529137253e-09
-5.19151444149e-09
-4.15942320765e-11
2.28495064774e-09
-5.14452772137e-09
-6.51240461343e-11
2.28508097723e-09
-5.00913062537e-09
-8.08628563491e-11
2.28480164047e-09
-4.79098389819e-09
-8.56130530618e-11
2.28187887819e-09
-4.4977896668e-09
-7.60975297007e-11
2.27344215557e-09
-4.14072760614e-09
-4.92209495115e-11
2.25563127383e-09
-3.73350588214e-09
2.22401182255e-09
-3.28924701992e-09
1.45569843514e-12
5.44611717654e-11
1.90825922444e-09
-3.20459548481e-09
-3.94165179709e-13
8.33984202703e-11
1.93025349355e-09
-3.66271847228e-09
9.38609989181e-11
1.93778914495e-09
-4.08175724542e-09
8.90251464627e-11
1.93861840758e-09
-4.44840200297e-09
7.23037469543e-11
1.9362254127e-09
-4.74887512105e-09
4.71431338281e-11
1.93308364402e-09
-4.9720544964e-09
1.70498269557e-11
1.93093110184e-09
-5.1102479325e-09
-1.45785294324e-11
1.93048005983e-09
-5.15797241271e-09
-4.46786572598e-11
1.93095645776e-09
-5.11030504104e-09
-6.98590030082e-11
1.93314109511e-09
-4.97216433214e-09
-8.66195808893e-11
1.93632891321e-09
-4.7490296133e-09
-9.15236198189e-11
1.93878458752e-09
-4.44858933308e-09
-8.1169412723e-11
1.93803461912e-09
-4.08196419275e-09
-5.23926990714e-11
1.93058976245e-09
-3.66294516327e-09
1.90869088167e-09
-3.20485240697e-09
1.45673037386e-12
5.64088720923e-11
1.59673884087e-09
-3.06598005263e-09
-3.91317038377e-13
8.72012571048e-11
1.61191545546e-09
-3.53465852333e-09
9.87158717797e-11
1.61268042266e-09
-3.96256677158e-09
9.3951573981e-11
1.6094275008e-09
-4.33597212551e-09
7.64306363014e-11
1.60475353598e-09
-4.64120364455e-09
4.98558555767e-11
1.60042314658e-09
-4.86742324872e-09
1.79978892485e-11
1.59761365491e-09
-5.00709656884e-09
-1.5517477993e-11
1.59682534147e-09
-5.05503263436e-09
-4.73867772018e-11
1.59763723566e-09
-5.00715791191e-09
-7.39883451509e-11
1.60047860813e-09
-4.86754146317e-09
-9.15583854738e-11
1.60485525442e-09
-4.64137021669e-09
-9.63998409139e-11
1.60959750755e-09
-4.33617404783e-09
-8.49993493597e-11
1.61294121728e-09
-3.96278838775e-09
-5.43680353235e-11
1.61228261819e-09
-3.53489760612e-09
1.59722499162e-09
-3.06624369013e-09
1.44390829618e-12
5.77509050186e-11
1.29970020223e-09
-2.87579513024e-09
-3.88035170861e-13
9.09505895055e-11
1.30898065738e-09
-3.35274495347e-09
1.03771752859e-10
1.30621593168e-09
-3.78709987469e-09
9.90533539043e-11
1.30217709511e-09
-4.16462630284e-09
8.06498284104e-11
1.29786310916e-09
-4.4722262838e-09
5.26082743934e-11
1.29420982235e-09
-4.69962283403e-09
1.89507127121e-11
1.29185754091e-09
-4.83957511845e-09
-1.64704282698e-11
1.291133494e-09
-4.88727781884e-09
-5.01440747624e-11
1.29188528354e-09
-4.83964012471e-09
-7.82215637389e-11
1.29427388181e-09
-4.69974855944e-09
-9.66831482668e-11
1.29797915028e-09
-4.47240436095e-09
-1.0148644272e-10
1.30236708887e-09
-4.16484337611e-09
-8.87842557784e-11
1.30650325937e-09
-3.78733806563e-09
-5.57445993107e-11
1.30939142642e-09
-3.35299730154e-09
1.30025328787e-09
-2.87606326085e-09
1.41808577297e-12
5.81642994669e-11
-2.63765077898e-09
-3.86578008104e-13
1.02585413272e-09
9.61504561924e-11
-3.12281863145e-09
1.0260549774e-09
1.1037421858e-10
-3.56072876556e-09
1.02438374145e-09
1.05388591514e-10
-3.93937702174e-09
1.02232047719e-09
8.57806168479e-11
-4.24678216159e-09
1.02013680903e-09
5.59268373736e-11
-4.47342783463e-09
1.01834297135e-09
2.00975440035e-11
-4.6124432094e-09
1.01716946636e-09
-1.76261989973e-11
-4.65946991164e-09
1.01677019529e-09
-5.34760078257e-11
-4.61251034418e-09
1.01720990953e-09
-8.33738850594e-11
-4.47355825192e-09
1.01842954019e-09
-1.03049349904e-10
-4.24696829518e-09
1.02028366714e-09
-1.08128493957e-10
-3.93960659947e-09
1.02254639622e-09
-9.40245304723e-11
-3.56098282958e-09
1.02471624021e-09
-5.61944862473e-11
-3.12308889551e-09
1.02652196157e-09
-2.63790989485e-09
1.38002771197e-12
1.02650062243e-09
5.65670602275e-12
-8.22432280913e-11
-3.30932961695e-10
-2.33576644995e-14
8.8203570788e-12
-9.1664133869e-11
-3.63314982527e-10
1.01805945457e-11
-1.0148504248e-10
-3.93461726846e-10
9.94349197861e-12
-1.10552993704e-10
-4.20250645229e-10
8.27338316461e-12
-1.18215755617e-10
-4.4247107183e-10
5.45933928645e-12
-1.24023252158e-10
-4.59142117531e-10
1.89787819195e-12
-1.2768312207e-10
-4.69640621119e-10
-1.93064177925e-12
-1.28978680082e-10
-4.73429177885e-10
-5.48736801633e-12
-1.27660260347e-10
-4.69643302755e-10
-8.29265535606e-12
-1.23979730959e-10
-4.59147587176e-10
-9.95464691819e-12
-1.18157403678e-10
-4.42479541529e-10
-1.01887482164e-11
-1.10485291708e-10
-4.20262534371e-10
-8.82410959069e-12
-1.014042388e-10
-3.93477983168e-10
-5.6580168682e-12
-9.15901169458e-11
-3.63338546122e-10
-8.21928295703e-11
-3.30972309161e-10
-1.3837129992e-14
1.2914811106e-11
-1.86736030366e-10
-9.80986372767e-10
-2.33206583829e-13
2.06811669391e-11
-2.05726155314e-10
-1.08057236121e-09
2.41048714074e-11
-2.25250753066e-10
-1.17355383505e-09
2.36001347667e-11
-2.43162691848e-10
-1.25629451128e-09
1.9621238918e-11
-2.58154867709e-10
-1.3250131115e-09
1.28937755659e-11
-2.69425609565e-10
-1.37662154472e-09
4.38184439957e-12
-2.76498371416e-10
-1.40911003436e-09
-4.76103423566e-12
-2.79010912335e-10
-1.42077930096e-09
-1.32486460847e-11
-2.76466531278e-10
-1.40911584901e-09
-1.99240606773e-11
-2.69368455303e-10
-1.37663375762e-09
-2.38260548537e-11
-2.58084240394e-10
-1.32503267245e-09
-2.42377298931e-11
-2.43083476139e-10
-1.25632316215e-09
-2.07043057682e-11
-2.2515447761e-10
-1.17359498857e-09
-1.28347441218e-11
-2.0563469344e-10
-1.08063487652e-09
-1.86671782801e-10
-9.81089842661e-10
-7.50120878924e-14
1.67736135129e-11
-2.73710858296e-10
-1.55708450727e-09
-1.82680655833e-13
2.74371266751e-11
-2.98865452025e-10
-1.71876606485e-09
3.22911973373e-11
-3.24318130365e-10
-1.86959718493e-09
3.17508159639e-11
-3.47500136441e-10
-2.00367728713e-09
2.64624631614e-11
-3.66739269422e-10
-2.114949461e-09
1.74347106192e-11
-3.81094233065e-10
-2.19846764258e-09
5.98897598793e-12
-3.90062237863e-10
-2.25098896726e-09
-6.3113790039e-12
-3.93250315144e-10
-2.26979544372e-09
-1.77364113149e-11
-3.90021597388e-10
-2.25100304026e-09
-2.67228644826e-11
-3.81020913641e-10
-2.19849596316e-09
-3.19551041056e-11
-3.66647573885e-10
-2.11499232468e-09
-3.24308511346e-11
-3.47398224358e-10
-2.00373576561e-09
-2.75010540556e-11
-3.24203294284e-10
-1.869674617e-09
-1.67587687177e-11
-2.98755250369e-10
-1.71887344172e-09
-2.73631622524e-10
-1.55724739256e-09
-9.34636963705e-14
1.83871429698e-11
-3.42186670526e-10
-2.04638668579e-09
-1.62824084891e-13
3.04587106815e-11
-3.70970881594e-10
-2.26333683603e-09
3.60925097707e-11
-3.99482950651e-10
-2.46537232407e-09
3.55929218394e-11
-4.25128032014e-10
-2.64470319285e-09
2.97004644135e-11
-4.46200873772e-10
-2.79336212723e-09
1.95786799524e-11
-4.61795416651e-10
-2.90484551968e-09
6.73267256501e-12
-4.71491493045e-10
-2.97486561708e-09
-7.0746230618e-12
-4.74938598756e-10
-2.9998621432e-09
-1.99010606778e-11
-4.71440870995e-10
-2.97488713017e-09
-2.99851525644e-11
-4.61701884623e-10
-2.90488831383e-09
-3.58275724848e-11
-4.46077176735e-10
-2.79342580534e-09
-3.62693861717e-11
-4.24984510843e-10
-2.64478801401e-09
-3.05675268771e-11
-3.99325500242e-10
-2.46548099193e-09
-1.84216083127e-11
-3.70826180278e-10
-2.26348067832e-09
-3.4209022705e-10
-2.04659327412e-09
-1.20926340204e-13
1.84003281674e-11
-3.91546531515e-10
-2.45242970845e-09
-1.49104222698e-13
3.07787723354e-11
-4.2189062538e-10
-2.7182652852e-09
3.66748403833e-11
-4.51166572711e-10
-2.96529294689e-09
3.62598734538e-11
-4.770504673e-10