/*--------------------------------*- C++ -*----------------------------------*\
  =========                 |
  \\      /  F ield         | OpenFOAM: The Open Source CFD Toolbox
   \\    /   O peration     | Website:  https://openfoam.org
    \\  /    A nd           | Version:  7
     \\/     M anipulation  |
\*---------------------------------------------------------------------------*/
FoamFile
{
    version     2.0;
    format      ascii;
    class       volVectorField;
    location    "2.18";
    object      U;
}
// * * * * * * * * * * * * * * * * * * * * * * * * * * * * * * * * * * * * * //

dimensions      [0 1 -1 0 0 0 0];

internalField   nonuniform List<vector> 
22500
(
(-6.25134376357e-06 -7.1080284349e-06 -2.27964325473e-05)
(-5.74052581958e-06 -8.11027357434e-06 -2.37553635623e-05)
(-5.00467688521e-06 -9.06740080958e-06 -2.45065107537e-05)
(-4.18377785421e-06 -9.87440322824e-06 -2.50929088058e-05)
(-3.23956071476e-06 -1.05325537446e-05 -2.55353734592e-05)
(-2.213258657e-06 -1.10169125516e-05 -2.58454506739e-05)
(-1.12669051297e-06 -1.13139264313e-05 -2.6030725088e-05)
(-8.8890869605e-09 -1.14146881817e-05 -2.60949467195e-05)
(1.10912733568e-06 -1.13156265112e-05 -2.60354543196e-05)
(2.19632489427e-06 -1.10202289517e-05 -2.58549082421e-05)
(3.22364271487e-06 -1.05373144385e-05 -2.55495511292e-05)
(4.16918066581e-06 -9.88036642948e-06 -2.51118166101e-05)
(4.99176114662e-06 -9.07423001302e-06 -2.45302497975e-05)
(5.72910347197e-06 -8.11783127273e-06 -2.37843648794e-05)
(6.24260732679e-06 -7.11538336463e-06 -2.28317196211e-05)
(-1.87028126955e-05 -2.11675457338e-05 -8.23327664624e-05)
(-1.71733051624e-05 -2.40898740067e-05 -8.6527033887e-05)
(-1.50206037163e-05 -2.68842942001e-05 -9.00369240438e-05)
(-1.25560438792e-05 -2.92626265236e-05 -9.29134400473e-05)
(-9.732766993e-06 -3.12050371146e-05 -9.51666986868e-05)
(-6.65195840982e-06 -3.26372439827e-05 -9.67902812946e-05)
(-3.3867862483e-06 -3.35168045606e-05 -9.77750217884e-05)
(-2.60039165568e-08 -3.38152481733e-05 -9.81120564418e-05)
(3.33540670549e-06 -3.35219664835e-05 -9.77896584163e-05)
(6.60242419713e-06 -3.26472885764e-05 -9.68195351346e-05)
(9.6862041406e-06 -3.12194034834e-05 -9.52105083318e-05)
(1.25133728183e-05 -2.92805527762e-05 -9.29717847583e-05)
(1.49827592336e-05 -2.69047394962e-05 -9.0110046013e-05)
(1.7140291566e-05 -2.41122455543e-05 -8.66161227503e-05)
(1.8677497482e-05 -2.11896025046e-05 -8.24401677925e-05)
(-3.01230334371e-05 -3.39184769936e-05 -0.000153585699069)
(-2.75941879737e-05 -3.84919234735e-05 -0.000162016659459)
(-2.41442874534e-05 -4.28436330528e-05 -0.000169228117005)
(-2.01641374296e-05 -4.65584601424e-05 -0.000175227038713)
(-1.56253571442e-05 -4.95897949016e-05 -0.000179976001002)
(-1.06755117206e-05 -5.18252632872e-05 -0.000183422659117)
(-5.43405319884e-06 -5.31981516646e-05 -0.000185520443536)
(-4.15268079079e-08 -5.36639199839e-05 -0.000186235455342)
(5.35196837458e-06 -5.32061428098e-05 -0.00018554500956)
(1.05962808366e-05 -5.18408283784e-05 -0.0001834717589)
(1.55507371048e-05 -4.96120892328e-05 -0.000180049510495)
(2.00956083186e-05 -4.65862959462e-05 -0.000175324865965)
(2.40833131534e-05 -4.28754232342e-05 -0.0001693505366)
(2.75411578649e-05 -3.8526636073e-05 -0.000162165393804)
(3.00819996844e-05 -3.3953071722e-05 -0.000153764142998)
(-4.04684693006e-05 -4.53651620115e-05 -0.000234326975483)
(-3.6992058976e-05 -5.13089217795e-05 -0.00024761798912)
(-3.23595951058e-05 -5.69367133839e-05 -0.000259093082989)
(-2.69966360059e-05 -6.17457802545e-05 -0.000268696072837)
(-2.09080581652e-05 -6.56662709528e-05 -0.000276326676342)
(-1.42775922436e-05 -6.85566958308e-05 -0.000281877158718)
(-7.26510679566e-06 -7.03314420041e-05 -0.000285257776683)
(-5.48662985668e-08 -7.09334028327e-05 -0.000286406922178)
(7.15660241374e-06 -7.03417362671e-05 -0.000285291716085)
(1.41727154442e-05 -6.85767620457e-05 -0.000281945019396)
(2.08090635016e-05 -6.56950477556e-05 -0.000276428303055)
(2.69054670545e-05 -6.17817577164e-05 -0.000268831316976)
(3.22781471682e-05 -5.69778819912e-05 -0.000259262200935)
(3.69211450575e-05 -5.1353926739e-05 -0.000247823082576)
(4.04128644188e-05 -4.54104301266e-05 -0.000234572329023)
(-4.9683837272e-05 -5.54895037117e-05 -0.000322021522488)
(-4.53293414904e-05 -6.2515615714e-05 -0.000340397585094)
(-3.96279445464e-05 -6.91337535394e-05 -0.000356303162613)
(-3.30220361357e-05 -7.47893611444e-05 -0.000369631323777)
(-2.55558410525e-05 -7.93941137046e-05 -0.000380224851456)
(-1.74410150754e-05 -8.27874379544e-05 -0.000387928664349)
(-8.87120669472e-06 -8.48702253859e-05 -0.000392617498169)
(-6.59983095168e-08 -8.55764690988e-05 -0.000394207887719)
(8.74062384737e-06 -8.48822799888e-05 -0.000392659970925)
(1.73146175639e-05 -8.28109580336e-05 -0.000388013634403)
(2.54362552114e-05 -7.94278952958e-05 -0.000380352167891)
(3.29115715392e-05 -7.4831676753e-05 -0.000369800797078)
(3.95288258945e-05 -6.91823025287e-05 -0.000356514983437)
(4.52427603275e-05 -6.25688340745e-05 -0.000340654155419)
(4.96149475641e-05 -5.55434944179e-05 -0.000322328010068)
(-5.76991586623e-05 -6.42389756816e-05 -0.000414084107588)
(-5.25444213167e-05 -7.20509270969e-05 -0.000437406733875)
(-4.58910699971e-05 -7.93687616896e-05 -0.000457559699)
(-3.81916593619e-05 -8.56178879865e-05 -0.000474421811409)
(-2.95305519707e-05 -9.06975676677e-05 -0.000487800659314)
(-2.01397095309e-05 -9.44385346371e-05 -0.00049751378865)
(-1.02391654089e-05 -9.6733658205e-05 -0.000503416687789)
(-7.50283407037e-08 -9.75116797361e-05 -0.000505415090256)
(1.00906393373e-05 -9.6746948759e-05 -0.000503466749293)
(1.99957253717e-05 -9.44644964733e-05 -0.000497613995821)
(2.93939860771e-05 -9.07349268535e-05 -0.00048795088383)
(3.80650856653e-05 -8.56647999702e-05 -0.000474621816032)
(4.57769392883e-05 -7.94227679832e-05 -0.000457809548554)
(5.24442320943e-05 -7.21103489894e-05 -0.000437709102978)
(5.76182561922e-05 -6.42997739272e-05 -0.000414445164269)
(-6.4471067261e-05 -7.15800294094e-05 -0.000508077135429)
(-5.85975005707e-05 -7.98808360538e-05 -0.000535915572944)
(-5.11126074165e-05 -8.76113648228e-05 -0.00055986482494)
(-4.24761818192e-05 -9.42037486609e-05 -0.000579839652615)
(-3.2810094884e-05 -9.95520473347e-05 -0.000595641757902)
(-2.23591088144e-05 -0.00010348796879 -0.000607085819799)
(-1.13618543129e-05 -0.000105901505571 -0.000614027142834)
(-8.2220612941e-08 -0.000106719462024 -0.000616373125583)
(1.11990028866e-05 -0.000105915562236 -0.00061408387845)
(2.22009846655e-05 -0.000103515464335 -0.00060719943557)
(3.26597174024e-05 -9.95917030223e-05 -0.000595812141381)
(4.2336294319e-05 -9.42536907804e-05 -0.000580066481859)
(5.09857961178e-05 -8.76690916751e-05 -0.000560147961156)
(5.84855043512e-05 -7.99446294207e-05 -0.000536257973565)
(6.43793055149e-05 -7.16458580294e-05 -0.00050848607273)
(-6.99874821262e-05 -7.75076134379e-05 -0.000601846944794)
(-6.34774786007e-05 -8.60076314815e-05 -0.000633565437319)
(-5.52836209239e-05 -9.38749620773e-05 -0.00066068727636)
(-4.5870362228e-05 -0.000100570452869 -0.000683216229443)
(-3.53919454687e-05 -0.000105990698526 -0.000700976267824)
(-2.40984422841e-05 -0.000109976546844 -0.000713801418751)
(-1.22393059766e-05 -0.000112419544401 -0.000721563775547)
(-8.79289754606e-08 -0.000113247333106 -0.000724183299076)
(1.20650513541e-05 -0.000112433962338 -0.000721626394795)
(2.39289641621e-05 -0.000110004794124 -0.000713926849188)
(3.52303192197e-05 -0.000106031545463 -0.000701164384565)
(4.5719421134e-05 -0.000100622071563 -0.000683466562998)
(5.51460121111e-05 -9.39349000786e-05 -0.000660999392478)
(6.33551366228e-05 -8.60741972514e-05 -0.000633942619505)
(6.98858311149e-05 -7.75768973796e-05 -0.000602297595607)
(-7.42608250185e-05 -8.20392788052e-05 -0.000693594156256)
(-6.71966508375e-05 -9.04613566714e-05 -0.000728438007795)
(-5.84175923667e-05 -9.82051262348e-05 -0.000758027155055)
(-4.83887401696e-05 -0.000104778523633 -0.000782499711369)
(-3.72895462761e-05 -0.000110088104088 -0.000801721280838)
(-2.53680806286e-05 -0.000113989900545 -0.000815560488779)
(-1.28772750154e-05 -0.000116380443317 -0.000823918315699)
(-9.25291967161e-08 -0.000117190388506 -0.000826735087906)
(1.2693798929e-05 -0.000116394882045 -0.000823986202642)
(2.51893272907e-05 -0.000114018241265 -0.00081569648355)
(3.7118580121e-05 -0.000110129210868 -0.000801925208908)
(4.82284228535e-05 -0.000104830676348 -0.000782770880573)
(5.82705804629e-05 -9.82659974249e-05 -0.00075836473988)
(6.70650475631e-05 -9.05293353696e-05 -0.000728845701329)
(7.41500235546e-05 -8.21106661371e-05 -0.00069408142189)
(-7.73226781509e-05 -8.52107946916e-05 -0.000781883678072)
(-6.9786314491e-05 -9.32932713383e-05 -0.000819053284374)
(-6.05465046721e-05 -0.000100670871647 -0.000850400036221)
(-5.00622309111e-05 -0.000106915090792 -0.000876222707452)
(-3.85293544478e-05 -0.000111948412877 -0.000896433371404)
(-2.61872829728e-05 -0.000115645366461 -0.000910941938627)
(-1.32859928094e-05 -0.000117909777595 -0.000919685213554)
(-9.63685998554e-08 -0.000118677006979 -0.000922628578998)
(1.30947913673e-05 -0.000117923948405 -0.000919757937132)
(2.60006741643e-05 -0.000115673241383 -0.000911087623916)
(3.83503426654e-05 -0.000111988987751 -0.000896651767838)
(4.98936606695e-05 -0.000106966806693 -0.000876512832728)
(6.03910111884e-05 -0.000100731589408 -0.000850760583266)
(6.96461564304e-05 -9.33615152561e-05 -0.000819488493268)
(7.72032043467e-05 -8.52831392644e-05 -0.000782403953488)
(-7.9219775866e-05 -8.7074005923e-05 -0.000865604295284)
(-7.12932516441e-05 -9.4570859646e-05 -0.000904315059091)
(-6.17178597305e-05 -0.000101358201785 -0.000936768242286)
(-5.09353363383e-05 -0.000107086767187 -0.000963415159351)
(-3.91481498377e-05 -0.00011169734614 -0.000984202274457)
(-2.6582012691e-05 -0.000115082986796 -0.000999081378668)
(-1.34789385493e-05 -0.000117156264158 -0.00100802899574)
(-9.97351132257e-08 -0.000117858805713 -0.00101103825868)
(1.32809389146e-05 -0.000117169912379 -0.00100810628501)
(2.63884191972e-05 -0.000115109901962 -0.000999236222973)
(3.89618703146e-05 -0.000111736687529 -0.000984434358635)
(5.07591668191e-05 -0.000107137187273 -0.000963723177293)
(6.15543991954e-05 -0.000101417806655 -0.000937150316298)
(7.11449078416e-05 -9.46383662934e-05 -0.000904776151863)
(7.90918384538e-05 -8.71463048281e-05 -0.000866155732508)
(-8.00080914705e-05 -8.76914957452e-05 -0.000943886422836)
(-7.17763062892e-05 -9.43697674848e-05 -0.000983425940841)
(-6.19925280925e-05 -0.000100363879879 -0.00101644952806)
(-5.10634948818e-05 -0.000105414805504 -0.00104349580684)
(-3.91899652611e-05 -0.000109477125482 -0.00106452350559)
(-2.65823495724e-05 -0.000112459547949 -0.00107952892045)
(-1.3471396038e-05 -0.000114285075392 -0.0010885329567)
(-1.02840944354e-07 -0.000114903694819 -0.00109155864452)
(1.32671059595e-05 -0.000114297964042 -0.00108861464173)
(2.63822387384e-05 -0.000112485039119 -0.00107969263422)
(3.89968182502e-05 -0.000109514569797 -0.00106476895583)
(5.08800366897e-05 -0.000105463114404 -0.00104382140964)
(6.18213200049e-05 -0.000100421463989 -0.00101685272046)
(7.1619902351e-05 -9.44355930382e-05 -0.000983912460625)
(7.98716842159e-05 -8.77627896582e-05 -0.00094446879923)
(-7.97466995225e-05 -8.71132830058e-05 -0.00101598000929)
(-7.13106836105e-05 -9.27618151314e-05 -0.00105580328305)
(-6.14471300139e-05 -9.77944203302e-05 -0.00108903601901)
(-5.05109003906e-05 -0.000102036840711 -0.00111616911655)
(-3.8702279075e-05 -0.000105447589283 -0.00113717495407)
(-2.62193299209e-05 -0.000107948519167 -0.00115211242941)
(-1.32787823722e-05 -0.000109477121335 -0.00116105509628)
(-1.05818080642e-07 -0.000109994984031 -0.00116405788305)
(1.30684527877e-05 -0.000109489022977 -0.00116114100434)
(2.60129287392e-05 -0.0001079721368 -0.00115228477434)
(3.85024485104e-05 -0.000105482481503 -0.00113743368363)
(5.03202794606e-05 -0.000102082222814 -0.00111651260355)
(6.12682484357e-05 -9.78490743663e-05 -0.00108946089334)
(7.1146248409e-05 -9.28250338343e-05 -0.00105631549248)
(7.96018163826e-05 -8.71825197855e-05 -0.0010165933146)
(-7.8545268812e-05 -8.53781373099e-05 -0.00108108446115)
(-7.00254369891e-05 -8.98619815432e-05 -0.00112106847945)
(-6.01800101274e-05 -9.3791828673e-05 -0.00115435747838)
(-4.93431360777e-05 -9.71241688768e-05 -0.00118134087309)
(-3.77285181102e-05 -9.97932705777e-05 -0.00120210834522)
(-2.55201268414e-05 -0.000101741344452 -0.00121681818133)
(-1.29144541298e-05 -0.000102927760113 -0.00122560399716)
(-1.08720775674e-07 -0.000103329375089 -0.00122855220697)
(1.26982326017e-05 -0.00010293846454 -0.001225693776)
(2.53075796032e-05 -0.000101762665937 -0.0012169986164)
(3.75221370509e-05 -9.98249745482e-05 -0.00120238001603)
(4.91454635034e-05 -9.71658030603e-05 -0.00118170276573)
(5.99935413408e-05 -9.38426226258e-05 -0.00115480566597)
(6.98530291452e-05 -8.99216389153e-05 -0.00112160741833)
(7.83916650291e-05 -8.54445458683e-05 -0.00108172679847)
(-7.66442907141e-05 -8.3086548767e-05 -0.00113812337065)
(-6.81118167884e-05 -8.57972044268e-05 -0.00117927318634)
(-5.8264517439e-05 -8.85342754681e-05 -0.00121241340966)
(-4.76128261931e-05 -9.08316610955e-05 -0.00123898726773)
(-3.63098604345e-05 -9.26476672918e-05 -0.00125932121613)
(-2.45152915653e-05 -9.39587761706e-05 -0.00127367714931)
(-1.23949551284e-05 -9.47519746972e-05 -0.00128223593777)
(-1.11536145955e-07 -9.50202468198e-05 -0.00128510679833)
(1.21730181571e-05 -9.47612168189e-05 -0.00128232865892)
(2.42967814502e-05 -9.39772562149e-05 -0.00127386395777)
(3.60971221799e-05 -9.26753288681e-05 -0.00125960373327)
(4.74083011567e-05 -9.08683545303e-05 -0.00123936621893)
(5.80706575445e-05 -8.85796452436e-05 -0.00121288542816)
(6.79319860659e-05 -8.58516891622e-05 -0.00117984553378)
(7.6481398233e-05 -8.31483080012e-05 -0.00113877983632)
(6.14163912092e-08 9.81033880726e-08 -4.00497325002e-05)
(3.61101564432e-08 1.3175526804e-07 -4.19311922219e-05)
(1.59300620949e-08 1.53958063008e-07 -4.35686942125e-05)
(3.79879777527e-09 1.67104760371e-07 -4.49474819524e-05)
(-3.17223192733e-09 1.74660728227e-07 -4.60482986975e-05)
(-4.63206395282e-09 1.78397400987e-07 -4.68507732988e-05)
(-2.25375767585e-09 1.80017092129e-07 -4.73399586297e-05)
(2.17420792288e-09 1.80590408106e-07 -4.75061084654e-05)
(6.51525988633e-09 1.80452777099e-07 -4.73412838169e-05)
(8.62915692282e-09 1.7924974731e-07 -4.68534228737e-05)
(6.75521122591e-09 1.75894314821e-07 -4.60522839252e-05)
(-6.93794554199e-10 1.68652722585e-07 -4.49528667576e-05)
(-1.33081692973e-08 1.55717076195e-07 -4.35756837325e-05)
(-3.38708664597e-08 1.33627617791e-07 -4.19404835981e-05)
(-5.97006155618e-08 9.97719723386e-08 -4.00634949363e-05)
(5.47512513789e-07 6.81912736666e-07 -0.000119559990384)
(4.69203501074e-07 8.42914107005e-07 -0.000125057563754)
(3.84881164246e-07 9.77011985325e-07 -0.000129836063472)
(3.06261114467e-07 1.082668598e-06 -0.000133851035377)
(2.2811892236e-07 1.16349633228e-06 -0.000137050113172)
(1.52747185331e-07 1.22010257577e-06 -0.000139379263299)
(7.92389148547e-08 1.25385490462e-06 -0.00014079749813)
(6.75812272441e-09 1.26552545017e-06 -0.000141277635711)
(-6.5953067601e-08 1.255268471e-06 -0.000140801708293)
(-1.40163742262e-07 1.22284179389e-06 -0.000139387673389)
(-2.16684280352e-07 1.16737501847e-06 -0.000137062745377)
(-2.96283257431e-07 1.08739868019e-06 -0.000133868059888)
(-3.76510531141e-07 9.82185331448e-07 -0.000129858057918)
(-4.6235648881e-07 8.48180691756e-07 -0.000125086523793)
(-5.42432908994e-07 6.86632370044e-07 -0.000119601038509)
(1.31637919748e-06 1.56414389731e-06 -0.000197983997469)
(1.17668491465e-06 1.88763358085e-06 -0.000206966198318)
(1.00598816445e-06 2.17279612612e-06 -0.00021475932215)
(8.26066775341e-07 2.4087342548e-06 -0.000221296786347)
(6.32019416103e-07 2.59574337407e-06 -0.000226497850048)
(4.29558698424e-07 2.73071664223e-06 -0.000230280644985)
(2.21060498294e-07 2.81262192416e-06 -0.000232581873772)
(9.47176165902e-09 2.84071704278e-06 -0.000233359453945)
(-2.02405441609e-07 2.81460264442e-06 -0.000232589088992)
(-4.11767474596e-07 2.73460569075e-06 -0.000230295048625)
(-6.15604449553e-07 2.60137722157e-06 -0.000226519458023)
(-8.11348372605e-07 2.41581013878e-06 -0.000221325832184)
(-9.93102878492e-07 2.18082622686e-06 -0.000214796638772)
(-1.16556505203e-06 1.89609152788e-06 -0.00020701469896)
(-1.3075222849e-06 1.57207996819e-06 -0.000198050976724)
(2.24344012564e-06 2.61059222438e-06 -0.000275154206258)
(2.03323341227e-06 3.09998190993e-06 -0.000287470953674)
(1.76134752303e-06 3.54156839005e-06 -0.000298133282242)
(1.45944350319e-06 3.91286394184e-06 -0.000307063691101)
(1.12476258299e-06 4.21049704162e-06 -0.000314158296612)
(7.67280114975e-07 4.42724138495e-06 -0.000319312950521)
(3.93790977204e-07 4.55941281026e-06 -0.000322446002791)
(1.20618110941e-08 4.60460298421e-06 -0.000323503250261)
(-3.69983943924e-07 4.56183338855e-06 -0.000322456382357)
(-7.44412434637e-07 4.43201011796e-06 -0.000319333652728)
(-1.10337924423e-06 4.2174462843e-06 -0.000314189294428)
(-1.43989486061e-06 3.92167636932e-06 -0.000307105194282)
(-1.74381637592e-06 3.55171583066e-06 -0.000298186184944)
(-2.01773974672e-06 3.11085647036e-06 -0.000287538626213)
(-2.23070730427e-06 2.62110327648e-06 -0.000275245174839)
(3.2095469468e-06 3.68799660873e-06 -0.000350900278152)
(2.92080556859e-06 4.32091451468e-06 -0.000366380017063)
(2.54096776907e-06 4.89724580231e-06 -0.000379745273732)
(2.11018002751e-06 5.38365391607e-06 -0.000390921493252)
(1.62901027628e-06 5.77443374103e-06 -0.000399787612117)
(1.11177128646e-06 6.05948182879e-06 -0.000406222650835)
(5.69583307095e-07 6.2333932044e-06 -0.000410130668993)
(1.46024460354e-08 6.29271822545e-06 -0.000411448155461)
(-5.40709376536e-07 6.23614051867e-06 -0.000410144380606)
(-1.08387845284e-06 6.064899293e-06 -0.000406249968504)
(-1.60267630962e-06 5.78234051052e-06 -0.000399828412322)
(-2.08580872629e-06 5.39371367133e-06 -0.000390975848345)
(-2.51882159648e-06 4.90890416938e-06 -0.000379813922901)
(-2.90100636955e-06 4.3335329471e-06 -0.000366466444873)
(-3.192965341e-06 3.70041805137e-06 -0.000351013639745)
(4.1318823751e-06 4.70439334933e-06 -0.000425046058219)
(3.75890680749e-06 5.44426784604e-06 -0.000443493954373)
(3.27096450776e-06 6.11864088925e-06 -0.000459374674209)
(2.71451625237e-06 6.68642871326e-06 -0.000472632284728)
(2.09412183572e-06 7.1414916465e-06 -0.000483134881381)
(1.42788211966e-06 7.47279640608e-06 -0.000490749791024)
(7.30407651913e-07 7.67459676237e-06 -0.000495370675545)
(1.70216273462e-08 7.74329547122e-06 -0.000496927367272)
(-6.96699420351e-07 7.67755837587e-06 -0.000495387901681)
(-1.39517083597e-06 7.47863802208e-06 -0.000490784067214)
(-2.0630137422e-06 7.15002056981e-06 -0.000483185922369)
(-2.68547608556e-06 6.69729600273e-06 -0.000472699897275)
(-3.24434099683e-06 6.13128003735e-06 -0.000459459233642)
(-3.73492246836e-06 5.45804302207e-06 -0.000443598850326)
(-4.1114940669e-06 4.71813256856e-06 -0.000425180804794)
(4.95239550038e-06 5.59628114635e-06 -0.000497413969051)
(4.49277390504e-06 6.40007378192e-06 -0.000518611902979)
(3.90236463287e-06 7.12909177307e-06 -0.000536800853727)
(3.23121281666e-06 7.73912849882e-06 -0.000551960413755)
(2.48803907028e-06 8.22542487429e-06 -0.000563953766185)
(1.6937287854e-06 8.57801492931e-06 -0.000572640921389)
(8.65150268405e-07 8.79214300271e-06 -0.000577908555906)
(1.9256175399e-08 8.86489831183e-06 -0.000579682183718)
(-8.26968763653e-07 8.79521475769e-06 -0.000577929515014)
(-1.65653813124e-06 8.58407497524e-06 -0.000572682561572)
(-2.45246446456e-06 8.23427591802e-06 -0.000564015563217)
(-3.19777369012e-06 7.75041955824e-06 -0.000552041776542)
(-3.87148760545e-06 7.14226075996e-06 -0.000536901604168)
(-4.46476738549e-06 6.41450628667e-06 -0.000518735203198)
(-4.92827241146e-06 5.61083157336e-06 -0.000497569635188)
(5.63313728589e-06 6.32303332449e-06 -0.000567825514358)
(5.08838138324e-06 7.14696911358e-06 -0.00059153239326)
(4.40612905514e-06 7.88678455934e-06 -0.000611804777031)
(3.6369181235e-06 8.50040097015e-06 -0.000628675029354)
(2.7933410677e-06 8.98582552734e-06 -0.000642005783714)
(1.89780838202e-06 9.33577417101e-06 -0.00065165279869)
(9.68091941937e-07 9.54746533905e-06 -0.000657498476593)
(2.12669596954e-08 9.61925960604e-06 -0.000659465987292)
(-9.25877571222e-07 9.5505507002e-06 -0.000657523423223)
(-1.85655791144e-06 9.34186405656e-06 -0.000651702276008)
(-2.7536860391e-06 8.99472882721e-06 -0.000642078954784)
(-3.59941968494e-06 8.51177764938e-06 -0.000628770780216)
(-4.3712783777e-06 7.90009330148e-06 -0.000611922215376)
(-5.05655678336e-06 7.16163138877e-06 -0.000591674411092)
(-5.60538188611e-06 6.33795611863e-06 -0.000568002170115)
(6.15366731756e-06 6.86396484684e-06 -0.000636095532882)
(5.52932595886e-06 7.667716895e-06 -0.000662046883788)
(4.76977164449e-06 8.37852433703e-06 -0.000684163125724)
(3.92284501506e-06 8.9615200558e-06 -0.000702544951228)
(3.00432469842e-06 9.41831512768e-06 -0.000717055518741)
(2.03681930331e-06 9.74530641053e-06 -0.000727547582104)
(1.03773974025e-06 9.94218297215e-06 -0.00073390130504)
(2.30327463227e-08 1.00088358463e-05 -0.000736039259233)
(-9.91976293703e-07 9.94519500396e-06 -0.00073393053461)
(-1.99197384172e-06 9.75125787955e-06 -0.000727605458433)
(-2.96102117275e-06 9.42703203098e-06 -0.000717140829311)
(-3.88167014688e-06 8.97268775041e-06 -0.000702655950989)
(-4.73126459004e-06 8.39163702591e-06 -0.000684298078505)
(-5.49392503011e-06 7.68224589986e-06 -0.000662208440051)
(-6.12242294164e-06 6.87888785075e-06 -0.000636293887125)
(6.50784690929e-06 7.2146737636e-06 -0.00070201880017)
(5.81308613072e-06 7.96390470656e-06 -0.000729925724364)
(4.99345598465e-06 8.6126344579e-06 -0.000753636126231)
(4.09105264293e-06 9.13752053819e-06 -0.000773328031716)
(3.12382042197e-06 9.54408729032e-06 -0.000788860475241)
(2.11332556376e-06 9.83271815902e-06 -0.000800082561813)
(1.07558734851e-06 1.00055632568e-05 -0.000806874094619)
(2.45429933066e-08 1.00639864146e-05 -0.000809158968111)
(-1.02678008581e-06 1.00084238976e-05 -0.000806907949161)
(-2.06537219684e-06 9.8383813171e-06 -0.000800149507005)
(-3.0773229601e-06 9.55240735931e-06 -0.000788958883859)
(-4.04660748293e-06 9.14822309674e-06 -0.000773455446249)
(-4.9516347626e-06 8.625264008e-06 -0.000753789864545)
(-5.77438089311e-06 7.97799338987e-06 -0.000730108283742)
(-6.47329920933e-06 7.22928826105e-06 -0.000702240359869)
(6.70030545943e-06 7.38298467236e-06 -0.000765346320656)
(5.94710047589e-06 8.0503105363e-06 -0.000794896589765)
(5.08609626565e-06 8.61170176475e-06 -0.000819951683279)
(4.15084963309e-06 9.05850899765e-06 -0.000840758425714)
(3.16018415961e-06 9.39998111824e-06 -0.00085715900152)
(2.13358788525e-06 9.64009810285e-06 -0.000868997773512)
(1.08497690534e-06 9.78301205983e-06 -0.000876157309886)
(2.57941889582e-08 9.83125231312e-06 -0.000878565643524)
(-1.0336384898e-06 9.78565133895e-06 -0.000876196177461)
(-2.08302238664e-06 9.64533827044e-06 -0.000869074574493)
(-3.11095793519e-06 9.4077168327e-06 -0.000857271697078)
(-4.1035525819e-06 9.0685205446e-06 -0.000840903805076)
(-5.0413189334e-06 8.62360031283e-06 -0.000820126030156)
(-5.90538454825e-06 8.0636992686e-06 -0.00079510237137)
(-6.66267171031e-06 7.39703900027e-06 -0.000765593580073)
(6.74282429355e-06 7.38487822508e-06 -0.000825745617862)
(5.94512916988e-06 7.94947296169e-06 -0.000856617502234)
(5.06203591941e-06 8.40599814359e-06 -0.000882791757224)
(4.11584877445e-06 8.76223869181e-06 -0.000904536920562)
(3.12487538741e-06 9.03032400382e-06 -0.000921660043394)
(2.10583237446e-06 9.21676935922e-06 -0.000934004459116)
(1.07019565999e-06 9.32694621918e-06 -0.000941462430419)
(2.67866036422e-08 9.36409581839e-06 -0.000943970696466)
(-1.0168392715e-06 9.32930012817e-06 -0.000941506727558)
(-2.05315261987e-06 9.22146500265e-06 -0.000934091999254)
(-3.07338988178e-06 9.03730474066e-06 -0.000921788451558)
(-4.06612682761e-06 8.77135696932e-06 -0.000904702262621)
(-5.0146749193e-06 8.41694949321e-06 -0.000882989177714)
(-5.90071632275e-06 7.96194275388e-06 -0.000856849476924)
(-6.70234767584e-06 7.39816658366e-06 -0.000826022117069)
(6.65062649418e-06 7.23931507195e-06 -0.000882734081344)
(5.82461290838e-06 7.68619051856e-06 -0.000914657563989)
(4.93896253076e-06 8.02814779491e-06 -0.000941795604102)
(4.00203654632e-06 8.28857260706e-06 -0.000964331989827)
(3.03079078405e-06 8.4810873667e-06 -0.000982038304196)
(2.0390426119e-06 8.61313914321e-06 -0.000994776418737)
(1.0358457755e-06 8.69043430456e-06 -0.00100246148581)
(2.75210477229e-08 8.71647450245e-06 -0.00100504542427)
(-9.80983088544e-07 8.692448042e-06 -0.00100251160183)
(-1.98475012346e-06 8.6171821672e-06 -0.000994875583651)
(-2.97752606355e-06 8.48716040085e-06 -0.000982184004238)
(-3.95033240674e-06 8.29661294405e-06 -0.000964519753731)
(-4.88941353208e-06 8.03795903056e-06 -0.000942019308171)
(-5.77784669419e-06 7.69756188432e-06 -0.000914919267144)
(-6.60759244796e-06 7.25166232064e-06 -0.000883043601785)
(6.44290674384e-06 6.96462308528e-06 -0.000935566544382)
(5.60822049828e-06 7.28988686308e-06 -0.000968542534496)
(4.7381211536e-06 7.51268108401e-06 -0.000996608580392)
(3.826790441e-06 7.67835950286e-06 -0.0010197978265)
(2.8911688043e-06 7.79765976113e-06 -0.00103793562454)
(1.94212690778e-06 7.87761109744e-06 -0.00105094438536)
(9.86408662961e-07 7.92361729356e-06 -0.00105877870445)
(2.79981092024e-08 7.93910327053e-06 -0.00106141191503)
(-9.30555512518e-07 7.9252503597e-06 -0.00105883486848)
(-1.88673496438e-06 7.88091971721e-06 -0.00105105580322)
(-2.83662999468e-06 7.80270321298e-06 -0.00103810002355)
(-3.77358727127e-06 7.68516661797e-06 -0.00102001075502)
(-4.6868253625e-06 7.52118485364e-06 -0.000996862786137)
(-5.55948925421e-06 7.30002464575e-06 -0.00096883814583)
(-6.39760926866e-06 6.97598795725e-06 -0.000935911632453)
(6.14154495414e-06 6.63692077258e-06 -0.000983221827002)
(5.32395450072e-06 6.78626166216e-06 -0.00101817187983)
(4.47790138358e-06 6.89274816914e-06 -0.00104701110864)
(3.60425175932e-06 6.9667521025e-06 -0.00107060698567)
(2.7165093412e-06 7.01554252547e-06 -0.00108896485899)
(1.82212739883e-06 7.04562351405e-06 -0.00110209161854)
(9.25433746878e-07 7.06185453131e-06 -0.00110998374463)
(2.82114623151e-08 7.0673221505e-06 -0.00111263570428)
(-8.69114657678e-07 7.06309448427e-06 -0.00111004561313)
(-1.76615484076e-06 7.04816571696e-06 -0.00110221477256)
(-2.66120587303e-06 7.01949029984e-06 -0.00108914775181)
(-3.55004217052e-06 6.97221529882e-06 -0.00107084626605)
(-4.42530614161e-06 6.8997911307e-06 -0.00104729927557)
(-5.27369515614e-06 6.79502956731e-06 -0.00101851025809)
(-6.09418524277e-06 6.647272089e-06 -0.000983594492192)
(-2.77801271073e-08 -4.80049433713e-08 -4.47182906299e-05)
(-1.52068364768e-08 -6.47816150429e-08 -4.68208501735e-05)
(-7.21995174842e-09 -7.51860680698e-08 -4.86461464801e-05)
(-1.96335136954e-09 -8.18148023518e-08 -5.0184431105e-05)
(9.43125049662e-10 -8.5881790488e-08 -5.14125386373e-05)
(1.72573973546e-09 -8.81477263409e-08 -5.23080976832e-05)
(1.00844904217e-09 -8.9246216371e-08 -5.28541734422e-05)
(-5.09877442822e-10 -8.95768772889e-08 -5.30398087759e-05)
(-1.99513246019e-09 -8.92740565459e-08 -5.28561131743e-05)
(-2.60838731575e-09 -8.82020705587e-08 -5.23119631083e-05)
(-1.65922579079e-09 -8.59580704799e-08 -5.14183078437e-05)
(1.42529063058e-09 -8.18978416222e-08 -5.01921075877e-05)
(6.89626474917e-09 -7.51965548539e-08 -4.86558640124e-05)
(1.50952948704e-08 -6.47127221859e-08 -4.68332966903e-05)
(2.78306311896e-08 -4.7807975479e-08 -4.47359262593e-05)
(-1.23030605519e-07 -1.78280437741e-07 -0.000132928333502)
(-8.81750438484e-08 -2.29246164171e-07 -0.000139011349267)
(-6.17726249791e-08 -2.65639794764e-07 -0.00014428580855)
(-4.15074848348e-08 -2.91630800944e-07 -0.000148717720129)
(-2.62090804982e-08 -3.09584091728e-07 -0.000152247764626)
(-1.5321616333e-08 -3.21097244994e-07 -0.000154817868367)
(-7.5776112441e-09 -3.27509248156e-07 -0.000156382956794)
(-1.51420562748e-09 -3.29639272752e-07 -0.00015691324)
(4.62639930813e-09 -3.2775280054e-07 -0.000156388945654)
(1.26123300572e-08 -3.21549940679e-07 -0.000154829798026)
(2.39015794683e-08 -3.10167999252e-07 -0.000152265559586)
(3.96947062468e-08 -2.92234421732e-07 -0.000148741370406)
(6.0561583448e-08 -2.66041677281e-07 -0.000144315674922)
(8.7593212742e-08 -2.29382307678e-07 -0.000139049387215)
(1.23000970258e-07 -1.7808887881e-07 -0.000132980260536)
(-2.55144500679e-07 -3.4103468949e-07 -0.000219169090931)
(-2.00096026763e-07 -4.26805271612e-07 -0.000229009298493)
(-1.53456839742e-07 -4.92977331707e-07 -0.000237523591797)
(-1.13931536705e-07 -5.42998925945e-07 -0.000244661120119)
(-7.99729806652e-08 -5.79395947066e-07 -0.000250335224786)
(-5.09650515354e-08 -6.03898044622e-07 -0.000254460596357)
(-2.5474724191e-08 -6.18012811958e-07 -0.000256969909714)
(-1.8588980322e-09 -6.22688523303e-07 -0.00025781840067)
(2.18508316183e-08 -6.18231745856e-07 -0.000256979915314)
(4.7626483023e-08 -6.0431842466e-07 -0.000254480521068)
(7.70868417214e-08 -5.79975179806e-07 -0.00025036493168)
(1.11575833444e-07 -5.43646214435e-07 -0.000244700566712)
(1.51711924595e-07 -4.93471256001e-07 -0.000237573274976)
(1.98979128772e-07 -4.27068505514e-07 -0.000229072039254)
(2.54657394537e-07 -3.40932735905e-07 -0.000219252961911)
(-3.98113633805e-07 -5.09323055791e-07 -0.000303276115595)
(-3.25118422815e-07 -6.25353714167e-07 -0.00031664068698)
(-2.58488247017e-07 -7.1858634852e-07 -0.00032817475201)
(-1.98623469194e-07 -7.91048863625e-07 -0.000337822670352)
(-1.43910867359e-07 -8.45054784838e-07 -0.000345478552544)
(-9.38605895879e-08 -8.82178072481e-07 -0.000351037360962)
(-4.71272463019e-08 -9.03881023168e-07 -0.000354415020549)
(-2.16093147917e-09 -9.11089427609e-07 -0.000355555520083)
(4.29026166309e-08 -9.04096817906e-07 -0.000354429094098)
(8.99239952224e-08 -8.82595651638e-07 -0.000351065366054)
(1.40417826639e-07 -8.45642164965e-07 -0.000345520254115)
(1.95642630741e-07 -7.91730012268e-07 -0.000337877916816)
(2.56087691991e-07 -7.1917270507e-07 -0.000328243992539)
(3.23313973574e-07 -6.25775358971e-07 -0.00031672711324)