/*--------------------------------*- C++ -*----------------------------------*\
  =========                 |
  \\      /  F ield         | OpenFOAM: The Open Source CFD Toolbox
   \\    /   O peration     | Website:  https://openfoam.org
    \\  /    A nd           | Version:  7
     \\/     M anipulation  |
\*---------------------------------------------------------------------------*/
FoamFile
{
    version     2.0;
    format      ascii;
    class       volScalarField;
    location    "1.98";
    object      p;
}
// * * * * * * * * * * * * * * * * * * * * * * * * * * * * * * * * * * * * * //

dimensions      [0 2 -2 0 0 0 0];

internalField   nonuniform List<scalar> 
22500
(
1.55323343467e-05
1.55292314572e-05
1.55286508086e-05
1.55276011647e-05
1.55268860549e-05
1.55263310363e-05
1.55259921356e-05
1.55258700125e-05
1.55259880785e-05
1.5526323031e-05
1.55268742235e-05
1.55275858355e-05
1.55286322913e-05
1.55292110127e-05
1.55323110288e-05
1.54879318843e-05
1.548254669e-05
1.54800449173e-05
1.5477318974e-05
1.5475246578e-05
1.54736943647e-05
1.54727468709e-05
1.54724215187e-05
1.54727427053e-05
1.54736861367e-05
1.54752344361e-05
1.54773032288e-05
1.54800259597e-05
1.54825257159e-05
1.5487907938e-05
1.54449091845e-05
1.54373928495e-05
1.54332407495e-05
1.54290286213e-05
1.54257745465e-05
1.54233541188e-05
1.54218783291e-05
1.54213764022e-05
1.54218742783e-05
1.54233461154e-05
1.54257627537e-05
1.54290133322e-05
1.54332223551e-05
1.54373724415e-05
1.54448855806e-05
1.54064766616e-05
1.53971827005e-05
1.53917299946e-05
1.5386365972e-05
1.5382200355e-05
1.53791160371e-05
1.5377237761e-05
1.53766016547e-05
1.53772338923e-05
1.53791083918e-05
1.53821891055e-05
1.53863514097e-05
1.53917124719e-05
1.53971632462e-05
1.54064538742e-05
1.53705534629e-05
1.53597236156e-05
1.53531794964e-05
1.53468886624e-05
1.53419881056e-05
1.53383748412e-05
1.53361771881e-05
1.533543505e-05
1.53361735022e-05
1.53383675591e-05
1.53419773985e-05
1.53468748231e-05
1.53531628622e-05
1.53597051636e-05
1.53705316894e-05
1.53366971155e-05
1.53245763578e-05
1.53171296109e-05
1.53101145633e-05
1.5304637794e-05
1.53006157541e-05
1.52981723338e-05
1.52973489249e-05
1.52981688306e-05
1.5300608831e-05
1.53046276249e-05
1.53101014342e-05
1.53171138756e-05
1.532455888e-05
1.53366763341e-05
1.53050740057e-05
1.52919231707e-05
1.52837563467e-05
1.52762093106e-05
1.52703063953e-05
1.52659875113e-05
1.52633665346e-05
1.52624846779e-05
1.52633631998e-05
1.5265980923e-05
1.5270296726e-05
1.52761968421e-05
1.52837414455e-05
1.52919066132e-05
1.53050541198e-05
1.52757076762e-05
1.52617771942e-05
1.52530506699e-05
1.52451399432e-05
1.52389414454e-05
1.52344215197e-05
1.52316811443e-05
1.52307602373e-05
1.52316779601e-05
1.52344152329e-05
1.52389322224e-05
1.52451280641e-05
1.52530365141e-05
1.52617614315e-05
1.52756885496e-05
1.524850215e-05
1.52340230132e-05
1.52248756761e-05
1.52167449212e-05
1.52103619812e-05
1.52057209881e-05
1.52029095802e-05
1.52019657054e-05
1.52029065237e-05
1.52057149546e-05
1.52103531345e-05
1.521673353e-05
1.5224862139e-05
1.52340078755e-05
1.52484835994e-05
1.52233325214e-05
1.52085168312e-05
1.51990749063e-05
1.5190848622e-05
1.51843775193e-05
1.51796831664e-05
1.51768415406e-05
1.51758882382e-05
1.51768385849e-05
1.51796773317e-05
1.51843689627e-05
1.51908376051e-05
1.5199061832e-05
1.5208502121e-05
1.52233143139e-05
1.52000668412e-05
1.518511179e-05
1.51754995102e-05
1.51672883355e-05
1.51608138652e-05
1.5156124382e-05
1.51532875662e-05
1.515233647e-05
1.51532846825e-05
1.51561186873e-05
1.51608055063e-05
1.51672775584e-05
1.51754867202e-05
1.51850972805e-05
1.52000486977e-05
1.51785529149e-05
1.51636662059e-05
1.51540226064e-05
1.51459260481e-05
1.5139521434e-05
1.51348862409e-05
1.51320841832e-05
1.51311452957e-05
1.51320813438e-05
1.51348806213e-05
1.51395131687e-05
1.51459153611e-05
1.51540098924e-05
1.5163651637e-05
1.51785345509e-05
1.51585656543e-05
1.51440619198e-05
1.51345636992e-05
1.51266633417e-05
1.51203854813e-05
1.51158447017e-05
1.51131027723e-05
1.51121848091e-05
1.51130999431e-05
1.51158390999e-05
1.51203772008e-05
1.51266525766e-05
1.51345508173e-05
1.51440469968e-05
1.515854674e-05
1.51400121694e-05
1.51262899925e-05
1.51170557699e-05
1.5109395867e-05
1.51032875637e-05
1.5098882692e-05
1.50962299041e-05
1.50953430302e-05
1.50962270641e-05
1.50988770449e-05
1.51032791592e-05
1.51093848315e-05
1.51170424382e-05
1.51262743457e-05
1.51399924828e-05
1.51243166456e-05
1.51099979279e-05
1.51011124756e-05
1.50936863404e-05
1.50878248696e-05
1.50836382236e-05
1.50811299209e-05
1.50802932918e-05
1.50811270334e-05
1.50836324645e-05
1.50878162326e-05
1.5093674847e-05
1.51010982789e-05
1.5109981005e-05
1.51242962662e-05
1.03651027323e-05
1.03664049705e-05
1.03673786223e-05
1.03682872417e-05
1.03690623382e-05
1.03696543095e-05
1.03700279382e-05
1.0370155873e-05
1.03700291856e-05
1.0369656629e-05
1.03690653313e-05
1.03682904947e-05
1.03673820747e-05
1.03664087203e-05
1.03651066306e-05
1.03703592665e-05
1.03718759504e-05
1.03730632752e-05
1.03741663022e-05
1.03751070963e-05
1.0375824189e-05
1.0376276075e-05
1.03764308615e-05
1.03762772733e-05
1.03758264031e-05
1.03751099277e-05
1.03741693096e-05
1.03730663482e-05
1.03718793859e-05
1.03703629115e-05
1.0376790121e-05
1.03787778215e-05
1.03803613692e-05
1.03818376554e-05
1.0383098049e-05
1.03840582378e-05
1.03846625633e-05
1.03848694034e-05
1.03846637477e-05
1.03840604444e-05
1.03831009296e-05
1.03818408093e-05
1.0380364613e-05
1.03787815145e-05
1.03767939424e-05
1.03849004873e-05
1.03877034291e-05
1.03899357208e-05
1.03920101519e-05
1.03937779456e-05
1.03951221903e-05
1.03959662364e-05
1.03962546414e-05
1.03959674116e-05
1.03951243997e-05
1.03937808959e-05
1.03920134956e-05
1.03899392219e-05
1.03877074125e-05
1.03849045011e-05
1.03952672641e-05
1.03991931659e-05
1.04022859773e-05
1.04051380039e-05
1.0407556744e-05
1.04093894819e-05
1.04105364937e-05
1.04109276276e-05
1.04105376459e-05
1.04093916632e-05
1.04075597067e-05
1.04051414403e-05
1.04022896432e-05
1.03991973284e-05
1.03952713855e-05
1.04078305821e-05
1.04130919663e-05
1.04171716863e-05
1.04208988132e-05
1.04240401305e-05
1.04264098397e-05
1.04278874863e-05
1.0428390302e-05
1.04278885934e-05
1.04264119464e-05
1.04240430287e-05
1.04209022327e-05
1.04171753869e-05
1.04130961965e-05
1.04078346351e-05
1.04222348829e-05
1.04289375974e-05
1.04340458629e-05
1.04386657693e-05
1.04425338111e-05
1.04454378471e-05
1.044724191e-05
1.04478545311e-05
1.04472429566e-05
1.04454398469e-05
1.04425365835e-05
1.04386690787e-05
1.04340494739e-05
1.04289417637e-05
1.04222387462e-05
1.04380409872e-05
1.04461895209e-05
1.04522962039e-05
1.04577604197e-05
1.04623051638e-05
1.04657007771e-05
1.04678024134e-05
1.04685146616e-05
1.04678033833e-05
1.04657026349e-05
1.04623077548e-05
1.04577635378e-05
1.04522996349e-05
1.04461934863e-05
1.04380445754e-05
1.04548000672e-05
1.04643111986e-05
1.04713305875e-05
1.04775415446e-05
1.04826742785e-05
1.04864908969e-05
1.04888445322e-05
1.04896406458e-05
1.04888454195e-05
1.04864925972e-05
1.04826766568e-05
1.04775444128e-05
1.04713337589e-05
1.04643148662e-05
1.04548032578e-05
1.04720884372e-05
1.04828089903e-05
1.04906153933e-05
1.04974434943e-05
1.05030515517e-05
1.05072020777e-05
1.0509752502e-05
1.05106135502e-05
1.05097533052e-05
1.05072036161e-05
1.05030537037e-05
1.04974460894e-05
1.04906182655e-05
1.04828123019e-05
1.04720911721e-05
1.04895277325e-05
1.05012517843e-05
1.05096928699e-05
1.0516992115e-05
1.05229515655e-05
1.0527341648e-05
1.05300296574e-05
1.05309354428e-05
1.05300303866e-05
1.05273430432e-05
1.05229535111e-05
1.05169944454e-05
1.0509695437e-05
1.05012547197e-05
1.04895299546e-05
1.05067809969e-05
1.05192678336e-05
1.05281800418e-05
1.05358041597e-05
1.05419912834e-05
1.05465269107e-05
1.05492937342e-05
1.05502242338e-05
1.05492944115e-05
1.05465281994e-05
1.05419930759e-05
1.05358062827e-05
1.05281823533e-05
1.05192704164e-05
1.0506782737e-05
1.05235386117e-05
1.05365519694e-05
1.05457820724e-05
1.05535944631e-05
1.05598900198e-05
1.05644795591e-05
1.05672679388e-05
1.05682037129e-05
1.05672685898e-05
1.05644808095e-05
1.05598917432e-05
1.0553596486e-05
1.05457842286e-05
1.0536554294e-05
1.05235399516e-05
1.05397390637e-05
1.05530882503e-05
1.05624180043e-05
1.05702476475e-05
1.05764982845e-05
1.05810254638e-05
1.05837643036e-05
1.05846814219e-05
1.05837649655e-05
1.05810267305e-05
1.05765000376e-05
1.05702496785e-05
1.05624201455e-05
1.05530904057e-05
1.05397401575e-05
1.05565006996e-05
1.05689349147e-05
1.05780205965e-05
1.05856349696e-05
1.05916261807e-05
1.05959337311e-05
1.05985289283e-05
1.05993961861e-05
1.05985296007e-05
1.05959350396e-05
1.05916280044e-05
1.05856371054e-05
1.05780227825e-05
1.05689369593e-05
1.05565017965e-05
1.14523021992e-05
1.14519774891e-05
1.14515266573e-05
1.14510195999e-05
1.14505401951e-05
1.14501531132e-05
1.14499023814e-05
1.14498151482e-05
1.1449901746e-05
1.14501519204e-05
1.14505385925e-05
1.14510176979e-05
1.14515238996e-05
1.14519743579e-05
1.14522982651e-05
1.14529239062e-05
1.14526317216e-05
1.14522092017e-05
1.14517271316e-05
1.14512664689e-05
1.14508919711e-05
1.14506482083e-05
1.14505631298e-05
1.14506475137e-05
1.14508906537e-05
1.14512646778e-05
1.14517249688e-05
1.14522062475e-05
1.14526282887e-05
1.1452919759e-05
1.14538499157e-05
1.14536046734e-05
1.14532257701e-05
1.14527811346e-05
1.14523494485e-05
1.14519953721e-05
1.14517635823e-05
1.14516824452e-05
1.14517629167e-05
1.14519941023e-05
1.14523476987e-05
1.14527789881e-05
1.14532229141e-05
1.1453601308e-05
1.14538458183e-05
1.14545176371e-05
1.14542977767e-05
1.14539440294e-05
1.14535223685e-05
1.14531090884e-05
1.145276851e-05
1.14525448953e-05
1.1452466524e-05
1.14525442807e-05
1.14527673292e-05
1.14531074299e-05
1.14535202984e-05
1.14539413205e-05
1.14542945928e-05
1.1454513587e-05
1.14549607731e-05
1.1454763633e-05
1.14544326695e-05
1.14540357212e-05
1.1453644617e-05
1.14533216597e-05
1.14531093197e-05
1.14530348486e-05
1.14531087476e-05
1.14533205563e-05
1.14536430487e-05
1.14540337372e-05
1.14544300845e-05
1.14547606196e-05
1.14549567839e-05
1.14553185151e-05
1.14551620894e-05
1.14548681743e-05
1.1454512725e-05
1.1454160054e-05
1.14538680768e-05
1.14536758001e-05
1.14536082908e-05
1.14536752675e-05
1.14538670438e-05
1.14541585679e-05
1.14545108221e-05
1.14548657127e-05
1.14551591942e-05
1.14553146188e-05
1.14556927114e-05
1.14556062906e-05
1.14553716514e-05
1.14550804944e-05
1.14547870039e-05
1.14545423329e-05
1.14543805753e-05
1.14543236275e-05
1.14543800746e-05
1.14545413594e-05
1.14547855913e-05
1.14550786671e-05
1.14553692991e-05
1.14556035061e-05
1.1455688878e-05
1.1456155227e-05
1.14561718605e-05
1.14560202346e-05
1.14558157103e-05
1.14556009964e-05
1.14554185918e-05
1.14552967495e-05
1.1455253568e-05
1.14552962732e-05
1.14554176629e-05
1.14555996362e-05
1.14558139319e-05
1.14560179543e-05
1.14561691535e-05
1.14561514153e-05
1.14567554449e-05
1.14569052887e-05
1.14568572447e-05
1.14567568383e-05
1.14566356805e-05
1.14565264595e-05
1.1456451233e-05
1.14564240801e-05
1.14564507744e-05
1.14565255611e-05
1.14566343559e-05
1.1456755088e-05
1.1456855001e-05
1.14569026196e-05
1.14567516311e-05
1.14575205157e-05
1.14578253178e-05
1.14578949457e-05
1.14579087227e-05
1.14578890955e-05
1.1457858593e-05
1.1457833225e-05
1.14578231707e-05
1.14578327757e-05
1.14578577101e-05
1.14578877832e-05
1.14579069718e-05
1.14578927004e-05
1.14578226373e-05
1.14575166643e-05
1.14584567368e-05
1.14589260544e-05
1.14591191364e-05
1.14592490722e-05
1.14593318161e-05
1.14593801307e-05
1.14594044341e-05
1.14594113827e-05
1.14594039897e-05
1.14593792547e-05
1.1459330506e-05
1.14592473052e-05
1.14591168693e-05
1.1458923336e-05
1.14584528186e-05
1.14595484782e-05
1.14601790827e-05
1.14604938989e-05
1.1460735456e-05
1.14609156586e-05
1.14610385872e-05
1.14611097325e-05
1.14611326804e-05
1.14611092929e-05
1.14610377147e-05
1.14609143449e-05
1.14607336707e-05
1.14604916012e-05
1.1460176323e-05
1.14595445083e-05
1.14607614013e-05
1.14615442654e-05
1.14619742771e-05
1.14623171068e-05
1.14625848954e-05
1.14627747954e-05
1.14628878944e-05
1.14629251857e-05
1.14628874598e-05
1.14627739327e-05
1.14625835919e-05
1.1462315315e-05
1.14619719643e-05
1.14615414702e-05
1.14607573896e-05
1.14621332269e-05
1.14630545272e-05
1.14635551896e-05
1.14639672641e-05
1.14642966635e-05
1.14645347994e-05
1.14646785048e-05
1.14647262774e-05
1.14646780781e-05
1.14645339604e-05
1.14642953803e-05
1.14639654926e-05
1.14635528886e-05
1.14630517064e-05
1.14621292367e-05
1.14640832838e-05
1.14647148481e-05
1.14651841801e-05
1.14656051561e-05
1.14659502152e-05
1.14662041553e-05
1.14663587915e-05
1.1466410454e-05
1.14663583713e-05
1.14662033232e-05
1.14659489554e-05
1.14656034024e-05
1.1465181869e-05
1.14647119428e-05
1.14640793537e-05
9.44276049101e-06
9.44301655892e-06
9.44334306259e-06
9.44367773017e-06
9.44398203086e-06
9.44422215236e-06
9.44437578668e-06
9.44442892733e-06
9.44437631394e-06
9.44422307869e-06
9.4439830607e-06
9.44367836803e-06
9.44334304532e-06
9.44301559167e-06
9.44275940573e-06
9.44306863061e-06
9.44332871595e-06
9.44366243173e-06
9.4440047027e-06
9.44431730635e-06
9.4445647797e-06
9.44472350126e-06
9.44477850231e-06
9.44472405642e-06
9.4445657537e-06
9.44431838476e-06
9.44400536803e-06
9.44366233215e-06
9.44332769473e-06
9.44306728322e-06
9.44319285552e-06
9.44344371565e-06
9.443771519e-06
9.44410871939e-06
9.44441908103e-06
9.44466581719e-06
9.44482453115e-06
9.44487960238e-06
9.44482503149e-06
9.44466669268e-06
9.44442004463e-06
9.44410932166e-06
9.44377137969e-06
9.44344280524e-06
9.44319148161e-06
9.44329226165e-06
9.44353602104e-06
9.44385981248e-06
9.44419131588e-06
9.44449812861e-06
9.44474274843e-06
9.44490042544e-06
9.44495517199e-06
9.4449008507e-06
9.44474348685e-06
9.44449892642e-06
9.44419179202e-06
9.44385962014e-06
9.44353514879e-06
9.44329088369e-06
9.44340217755e-06
9.44364042701e-06
9.44396241492e-06
9.44428817324e-06
9.44459073124e-06
9.44483240702e-06
9.44498839848e-06
9.44504258287e-06
9.44498875738e-06
9.44483302354e-06
9.4445913875e-06
9.44428853236e-06
9.44396218591e-06
9.44363956758e-06
9.44340079877e-06
9.44350967981e-06
9.44374282049e-06
9.44406449571e-06
9.44438441814e-06
9.44468227247e-06
9.44492048403e-06
9.44507439268e-06
9.4451278609e-06
9.44507467977e-06
9.44492096955e-06
9.44468276668e-06
9.44438463744e-06
9.44406418213e-06
9.44374198623e-06
9.44350822701e-06
9.44361190503e-06
9.44384231392e-06
9.44416635797e-06
9.44448212861e-06
9.44477643972e-06
9.44501198242e-06
9.44516425218e-06
9.44521714548e-06
9.44516447161e-06
9.44501234596e-06
9.44477678478e-06
9.4444822207e-06
9.44416596268e-06
9.44384149439e-06
9.44361040579e-06
9.44371684938e-06
9.44394989824e-06
9.44428063939e-06
9.44459588212e-06
9.444889381e-06
9.44512423733e-06
9.44527604437e-06
9.4453287531e-06
9.44527619721e-06
9.445124479e-06
9.44488957913e-06
9.44459584519e-06
9.44428017856e-06
9.44394907593e-06
9.44371534736e-06
9.44383591521e-06
9.44407953439e-06
9.44442221691e-06
9.44474148522e-06
9.44503753948e-06
9.44527408385e-06
9.44542681158e-06
9.44547978676e-06
9.44542690563e-06
9.44527421894e-06
9.44503761095e-06
9.44474133762e-06
9.44442170306e-06
9.44407871552e-06
9.44383439607e-06
9.44398032401e-06
9.44424408218e-06
9.44460361485e-06
9.44493106203e-06
9.44523248978e-06
9.44547255246e-06
9.44562719899e-06
9.44568074974e-06
9.4456272412e-06
9.44547259566e-06
9.44523245085e-06
9.44493082381e-06
9.44460306271e-06
9.44424328007e-06
9.44397880095e-06
9.44415954353e-06
9.44445326026e-06
9.44483296894e-06
9.44517113076e-06
9.44547922281e-06
9.44572339132e-06
9.44588013216e-06
9.44593428884e-06
9.4458801353e-06
9.44572336427e-06
9.44547910289e-06
9.4451708219e-06
9.44483238905e-06
9.44445246384e-06
9.4441579996e-06
9.44437749405e-06
9.44471049869e-06
9.44511192478e-06
9.44546151056e-06
9.44577597816e-06
9.4460235542e-06
9.44618174971e-06
9.44623624767e-06
9.44618172701e-06
9.44602348207e-06
9.4457758033e-06
9.44546116116e-06
9.44511133061e-06
9.44470970221e-06
9.44437592103e-06
9.44463131547e-06
9.44501336231e-06
9.44543700643e-06
9.44579709933e-06
9.44611658778e-06
9.44636612336e-06
9.44652461118e-06
9.44657903562e-06
9.44652457531e-06
9.44636602643e-06
9.44611639472e-06
9.44579673271e-06
9.44543641633e-06
9.44501256447e-06
9.4446297215e-06
9.44496722151e-06
9.44540673881e-06
9.44583063366e-06
9.44618729155e-06
9.44650146426e-06
9.44674505332e-06
9.44689882282e-06
9.44695140655e-06
9.44689878054e-06
9.44674496107e-06
9.44650126996e-06
9.44618694078e-06
9.44583006401e-06
9.44540593217e-06
9.44496559626e-06
9.44576540539e-06
9.44604761305e-06
9.44637574035e-06
9.4466639567e-06
9.44692413836e-06
9.44712635102e-06
9.44725377105e-06
9.4472972904e-06
9.44725373213e-06
9.44712625834e-06
9.44692396423e-06
9.44666362782e-06
9.44637518395e-06
9.44604676949e-06
9.44576384199e-06
9.16707717351e-06
9.16696215126e-06
9.16682395998e-06
9.16666545366e-06
9.16651798121e-06
9.16639823322e-06
9.16632040165e-06
9.16629311371e-06
9.1663197753e-06
9.16639712651e-06
9.1665166628e-06
9.16666390128e-06
9.16682180133e-06
9.16695987483e-06
9.16707409394e-06
9.16726582287e-06
9.1671612357e-06
9.16703120957e-06
9.16687906945e-06
9.16673612758e-06
9.16661920255e-06
9.16654285623e-06
9.1665160071e-06
9.1665422063e-06
9.16661804319e-06
9.1667347158e-06
9.1668774202e-06
9.16702898316e-06
9.16715875482e-06
9.16726260435e-06
9.16755482609e-06
9.1674643131e-06
9.167348186e-06
9.16720637688e-06
9.16707125087e-06
9.16695949807e-06
9.16688610372e-06
9.16686021374e-06
9.16688547245e-06
9.16695835531e-06
9.16706981941e-06
9.16720469599e-06
9.16734601827e-06
9.16746185231e-06
9.16755168898e-06
9.16778709047e-06
9.16770266103e-06
9.16759500258e-06
9.16745851152e-06
9.16732721581e-06
9.16721773839e-06
9.16714555238e-06
9.16712005127e-06
9.16714495283e-06
9.16721663469e-06
9.16732578511e-06
9.16745682698e-06
9.16759291111e-06
9.16770031291e-06
9.16778403468e-06
9.16795657066e-06
9.1678724349e-06
9.16776910392e-06
9.16763437515e-06
9.16750424008e-06
9.16739524579e-06
9.16732321565e-06
9.16729775882e-06
9.16732264682e-06
9.16739418789e-06
9.16750284196e-06
9.16763272138e-06
9.16776708953e-06
9.16787021983e-06
9.16795360029e-06
9.16808306882e-06
9.1679967219e-06
9.16789608648e-06
9.16776199079e-06
9.16763240348e-06
9.16752367683e-06
9.16745176282e-06
9.16742635618e-06
9.16745122892e-06
9.16752267466e-06
9.16763105379e-06
9.16776038617e-06
9.16789416304e-06
9.16799458952e-06
9.16808022877e-06
9.16817913796e-06
9.16809027883e-06
9.16799266702e-06
9.16785990794e-06
9.16773184099e-06
9.16762442094e-06
9.16755338182e-06
9.16752830547e-06
9.16755288403e-06
9.16762348139e-06
9.16773055968e-06
9.16785837319e-06
9.16799084956e-06
9.16808824349e-06
9.1681764034e-06
9.1682548411e-06
9.16816538913e-06
9.1680728321e-06
9.1679437569e-06
9.16781959744e-06
9.16771561756e-06
9.16764691047e-06
9.16762268302e-06
9.16764644962e-06
9.16771474273e-06
9.16781838794e-06
9.16794229033e-06
9.1680711003e-06
9.16816343919e-06
9.16825217166e-06
9.1683209444e-06
9.16823492308e-06
9.16815086918e-06
9.16802918809e-06
9.1679124746e-06
9.167814953e-06
9.16775059179e-06
9.1677279222e-06
9.16775016725e-06
9.16781414178e-06
9.16791134073e-06
9.16802779388e-06
9.1681492134e-06
9.16823304672e-06
9.16831833643e-06
9.16838850439e-06
9.16831157358e-06
9.16824028674e-06
9.16813046803e-06
9.16802536138e-06
9.16793777571e-06
9.16788006386e-06
9.16785975403e-06
9.16787967149e-06
9.16793702236e-06
9.16802429301e-06
9.16812913301e-06
9.1682386852e-06
9.16830973933e-06
9.16838594393e-06
9.16846757428e-06
9.16840620469e-06
9.16835192152e-06
9.16825840479e-06
9.168169066e-06
9.16809489629e-06
9.16804611995e-06
9.16802896959e-06
9.16804575598e-06
9.16809419212e-06
9.16816805773e-06
9.16825712031e-06
9.1683503671e-06
9.16840440144e-06
9.16846505243e-06
9.16856491153e-06
9.16852550787e-06
9.16849172707e-06
9.16841838308e-06
9.16834864914e-06
9.16829111699e-06
9.16825341405e-06
9.16824015286e-06
9.16825307309e-06
9.16829045454e-06
9.16834768343e-06
9.16841714193e-06
9.16849020775e-06
9.16852374112e-06
9.16856244592e-06
9.16868523429e-06
9.16867280762e-06
9.16866124205e-06
9.16861063296e-06
9.1685636721e-06
9.1685256088e-06
9.16850080602e-06
9.16849209229e-06
9.16850048383e-06
9.16852497077e-06
9.1685627495e-06
9.16860941689e-06
9.16865975567e-06
9.16867106911e-06
9.16868282879e-06
9.16886009582e-06
9.16887594879e-06
9.16887424361e-06
9.16884098958e-06
9.16881459983e-06
9.16879467086e-06
9.16878203361e-06
9.16877756467e-06
9.16878171781e-06
9.16879406329e-06
9.16881369098e-06
9.168839807e-06
9.16887277458e-06
9.16887423271e-06
9.16885776997e-06
9.1692496162e-06
9.1691866558e-06
9.1691500446e-06
9.16910898514e-06
9.16908536308e-06
9.16907039069e-06
9.16906164825e-06
9.16905865419e-06
9.16906133911e-06
9.16906977778e-06
9.16908446607e-06
9.16910778832e-06
9.16914856112e-06
9.16918488167e-06
9.16924735213e-06
8.03721499986e-06
8.03729041014e-06
8.03738532258e-06
8.03748283206e-06
8.03757184504e-06
8.03764223406e-06
8.03768744554e-06
8.03770329216e-06
8.03768821521e-06
8.03764365545e-06
8.03757367239e-06
8.03748472342e-06
8.03738703924e-06
8.03729159084e-06
8.03721629762e-06
8.03735180586e-06
8.03743029746e-06
8.03752912678e-06
8.03763030196e-06
8.03772290737e-06
8.0377963072e-06
8.03784354388e-06
8.0378601249e-06
8.03784435015e-06
8.03779779464e-06
8.03772481101e-06
8.03763225306e-06
8.03753083371e-06
8.03743149243e-06
8.03735291198e-06
8.03744120327e-06
8.03751946922e-06
8.03761888662e-06
8.03772049914e-06
8.03781403654e-06
8.03788836586e-06
8.03793629361e-06
8.03795311301e-06
8.03793704431e-06
8.0378897518e-06
8.0378158166e-06
8.03772235586e-06
8.03762051976e-06
8.03752074213e-06
8.03744228065e-06
8.03751697563e-06
8.03759568834e-06
8.03769613064e-06
8.03779806474e-06
8.03789223807e-06
8.0379671822e-06
8.03801555959e-06
8.03803251898e-06
8.03801623671e-06
8.03796843384e-06
8.03789385092e-06
8.03779976745e-06
8.03769766342e-06
8.03759694535e-06
8.03751805238e-06
8.0375927388e-06
8.03767260424e-06
8.03777478606e-06
8.03787718035e-06
8.03797191529e-06
8.03804733527e-06
8.03809603268e-06
8.03811308596e-06
8.03809664382e-06
8.03804846576e-06
8.03797338269e-06
8.0378787465e-06
8.03777624396e-06
8.03767382994e-06
8.03759380532e-06
8.03766694408e-06
8.03774806294e-06
8.03785229052e-06
8.03795490066e-06
8.03804984844e-06
8.0381253985e-06
8.03817416917e-06
8.03819122525e-06
8.03817471597e-06
8.0381264118e-06
8.03805116897e-06
8.0379563222e-06
8.03785363252e-06
8.03774926935e-06
8.03766792592e-06
8.03773788959e-06
8.03782042017e-06
8.03792675504e-06
8.03802929409e-06
8.03812406517e-06
8.03819938492e-06
8.03824797238e-06
8.03826494009e-06
8.03824845829e-06
8.03820028902e-06
8.03812525117e-06
8.03803058895e-06
8.03792799445e-06
8.03782160133e-06
8.03773880852e-06
8.03780573398e-06
8.03789008001e-06
8.0379985843e-06
8.03810085359e-06
8.03819511612e-06
8.03826990869e-06
8.0383181004e-06
8.03833490588e-06
8.03831852958e-06
8.03827070979e-06
8.03819617558e-06
8.03810202596e-06
8.0379997336e-06
8.03789121597e-06
8.03780662786e-06
8.03787145599e-06
8.03795827677e-06
8.03806909428e-06
8.03817098349e-06
8.03826449892e-06
8.03833855419e-06
8.03838620031e-06
8.03840279194e-06
8.03838658006e-06
8.03833926569e-06
8.03826545144e-06
8.03817205524e-06
8.03807017523e-06
8.03795938147e-06
8.0378723062e-06
8.03793645306e-06
8.03802686637e-06
8.03814016958e-06
8.03824159904e-06
8.03833417186e-06
8.03840732073e-06
8.0384543098e-06
8.03847064667e-06
8.03845464608e-06
8.03840795606e-06
8.03833503015e-06
8.03824258645e-06
8.03814119501e-06
8.03802795076e-06
8.03793727424e-06
8.03800270834e-06
8.03809825787e-06
8.03821409464e-06
8.03831489329e-06
8.03840627636e-06
8.03847834549e-06
8.03852455773e-06
8.03854060381e-06
8.03852486032e-06
8.03847891919e-06
8.03840706375e-06
8.03831581214e-06
8.03821507671e-06
8.03809931611e-06
8.03800348224e-06
8.03807165301e-06
8.03817434738e-06
8.03829266738e-06
8.03839263056e-06
8.03848265946e-06
8.03855352646e-06
8.03859889709e-06
8.03861461978e-06
8.0385991728e-06
8.03855405648e-06
8.03848338606e-06
8.03839350026e-06
8.03829361178e-06
8.03817537255e-06
8.03807236866e-06
8.03814438654e-06
8.03825651464e-06
8.03837714492e-06
8.03847611842e-06
8.03856489262e-06
8.0386347296e-06
8.0386793125e-06
8.03869475148e-06
8.03867957163e-06
8.03863521671e-06
8.03856558596e-06
8.03847693892e-06
8.03837805885e-06
8.03825749969e-06
8.0381450449e-06
8.03824334188e-06
8.03836674549e-06
8.03848100049e-06
8.03857412193e-06
8.03865862041e-06
8.03872511907e-06
8.03876749037e-06
8.03878210779e-06
8.03876772817e-06
8.03872559085e-06
8.03865926888e-06
8.03857491979e-06
8.03848187619e-06
8.03836767974e-06
8.03824390998e-06
8.03851907986e-06
8.03857811451e-06
8.03864706313e-06
8.03870856474e-06
8.03876907619e-06
8.03881755815e-06
8.03884854505e-06
8.03885927084e-06
8.0388487748e-06
8.03881799724e-06
8.03876970505e-06
8.03870932165e-06
8.03864790426e-06
8.03857897752e-06
8.03851964445e-06
7.37937235792e-06
7.37934855672e-06
7.37932017544e-06
7.37928502771e-06
7.37925153094e-06
7.37922378389e-06
7.37920562538e-06
7.37919922401e-06
7.379205437e-06
7.37922343378e-06
7.37925106731e-06
7.37928461203e-06
7.37931996473e-06
7.37934874185e-06
7.37937193245e-06
7.37946919571e-06
7.37944969235e-06
7.37942492052e-06
7.37939271799e-06
7.37936146467e-06
7.37933524695e-06
7.37931795328e-06
7.37931182508e-06
7.37931775046e-06
7.37933486768e-06
7.37936096824e-06
7.37939226677e-06
7.37942468362e-06
7.37944977741e-06
7.37946873839e-06
7.37958714057e-06
7.37957216957e-06
7.37955183796e-06
7.37952293376e-06
7.37949425356e-06
7.37946978859e-06
7.37945350478e-06
7.37944770657e-06
7.37945331023e-06
7.37946943003e-06
7.3794937958e-06
7.3795225243e-06
7.37955164203e-06
7.37957220445e-06
7.37958672102e-06
7.37968093939e-06
7.37966770781e-06
7.37964994919e-06
7.37962247548e-06
7.37959487713e-06
7.37957107228e-06
7.37955513178e-06
7.37954944433e-06
7.37955495611e-06
7.37957075721e-06
7.37959449495e-06
7.37962215788e-06
7.37964982183e-06
7.37966778416e-06
7.37968054189e-06
7.37975242205e-06
7.37973905538e-06
7.37972254711e-06
7.3796952895e-06
7.37966781141e-06
7.37964398549e-06
7.37962798395e-06
7.37962227591e-06
7.37962783345e-06
7.37964372237e-06
7.37966750905e-06
7.37969506694e-06
7.37972249078e-06
7.37973920083e-06
7.3797520706e-06
7.37980822179e-06
7.37979387171e-06
7.37977794893e-06
7.3797503998e-06
7.37972267702e-06
7.37969861474e-06
7.37968244078e-06
7.37967668117e-06
7.37968232186e-06
7.37969841484e-06
7.37972246856e-06
7.37975028612e-06
7.37977798128e-06
7.3797940528e-06
7.37980796137e-06
7.37985218928e-06
7.37983655926e-06
7.37982110788e-06
7.3797932593e-06
7.37976534077e-06
7.37974114651e-06
7.37972489229e-06
7.37971911965e-06
7.37972480724e-06
7.37974101227e-06
7.37976522308e-06
7.37979324453e-06
7.37982122973e-06
7.3798367824e-06
7.37985199326e-06
7.37988735227e-06
7.37987076576e-06
7.37985610676e-06
7.37982835096e-06
7.3798006441e-06
7.37977670624e-06
7.37976064696e-06
7.37975496106e-06
7.37976059651e-06
7.37977663769e-06
7.37980061291e-06
7.37982842177e-06
7.37985629215e-06
7.37987101874e-06
7.37988717343e-06
7.37991679964e-06
7.37990020156e-06
7.37988700583e-06
7.37986008972e-06
7.37983330527e-06
7.37981024584e-06
7.37979480562e-06
7.3797893553e-06
7.37979478575e-06
7.37981023303e-06
7.37983334313e-06
7.3798602235e-06
7.379887229e-06
7.37990046465e-06
7.3799166285e-06
7.37994367937e-06
7.37992849632e-06
7.37991764833e-06
7.37989252628e-06
7.3798675645e-06
7.3798461673e-06
7.37983187539e-06
7.37982684728e-06
7.37983187987e-06
7.37984619722e-06
7.37986765172e-06
7.37989269435e-06
7.37991787754e-06
7.37992873425e-06
7.37994349149e-06
7.37997088169e-06
7.3799588415e-06
7.37995126609e-06
7.37992893514e-06
7.37990678148e-06
7.37988790912e-06
7.37987535163e-06
7.3798709493e-06
7.37987537082e-06
7.37988796484e-06
7.3799068925e-06
7.37992911056e-06
7.37995147918e-06
7.37995903743e-06
7.3799706646e-06
7.3800002913e-06
7.37999329257e-06
7.3799898326e-06
7.37997127003e-06
7.37995298752e-06
7.37993759917e-06
7.37992742589e-06
7.37992387545e-06
7.37992745123e-06
7.37993765893e-06
7.37995309891e-06
7.37997142596e-06
7.37999000501e-06
7.37999344223e-06
7.38000005133e-06
7.38003330263e-06
7.38003309872e-06
7.38003424452e-06
7.38002025047e-06
7.38000700672e-06
7.37999618113e-06
7.37998912932e-06
7.37998668368e-06
7.37998914746e-06
7.3799962323e-06
7.38000709152e-06
7.38002036539e-06
7.38003436205e-06
7.38003318909e-06
7.38003303836e-06
7.38008395152e-06
7.38009134174e-06
7.38009183681e-06
7.38008014589e-06
7.38007108425e-06
7.38006440706e-06
7.38006023765e-06
7.38005881582e-06
7.38006024162e-06
7.38006442605e-06
7.38007112449e-06
7.38008019402e-06
7.38009187682e-06
7.38009135363e-06
7.38008365806e-06
7.3802322272e-06
7.38019939488e-06
7.38017828812e-06
7.38015649927e-06
7.38014276035e-06
7.38013364795e-06
7.38012827477e-06
7.38012648142e-06
7.38012825253e-06
7.38013361496e-06
7.38014272246e-06
7.38015644572e-06
7.38017821117e-06
7.38019927901e-06
7.38023188573e-06
6.54982713334e-06
6.549841126e-06
6.54986085167e-06
6.54988077491e-06
6.54989926824e-06
6.54991391521e-06
6.5499233594e-06
6.54992675577e-06
6.54992382815e-06
6.54991484253e-06
6.54990062522e-06
6.54988240706e-06
6.54986252573e-06
6.54984240243e-06
6.5498282468e-06
6.54989041387e-06
6.54990649919e-06
6.54992845542e-06
6.54995030272e-06
6.54997051924e-06
6.54998651923e-06
6.54999683468e-06
6.55000054047e-06
6.5499973241e-06
6.54998748609e-06
6.54997193063e-06
6.54995200031e-06
6.54993018201e-06
6.54990786888e-06
6.54989142487e-06
6.54995293522e-06
6.54997091954e-06
6.54999499477e-06
6.55001842523e-06
6.55004007558e-06
6.55005716351e-06
6.55006817796e-06
6.55007212005e-06
6.55006865283e-06
6.5500580991e-06
6.55004143117e-06
6.55002006544e-06
6.54999666599e-06
6.54997235053e-06
6.54995395806e-06
6.55000663001e-06
6.55002607269e-06
6.55005188695e-06
6.55007645138e-06
6.55009909937e-06
6.55011692796e-06
6.55012841303e-06
6.5501325097e-06
6.55012886512e-06
6.55011781623e-06
6.55010037968e-06
6.55007801171e-06
6.55005351519e-06
6.55002752727e-06
6.55000773143e-06
6.55005458068e-06
6.55007514336e-06
6.55010250062e-06
6.55012790171e-06