/*--------------------------------*- C++ -*----------------------------------*\
  =========                 |
  \\      /  F ield         | OpenFOAM: The Open Source CFD Toolbox
   \\    /   O peration     | Website:  https://openfoam.org
    \\  /    A nd           | Version:  7
     \\/     M anipulation  |
\*---------------------------------------------------------------------------*/
FoamFile
{
    version     2.0;
    format      ascii;
    class       surfaceScalarField;
    location    "0.6";
    object      phi;
}
// * * * * * * * * * * * * * * * * * * * * * * * * * * * * * * * * * * * * * //

dimensions      [0 3 -1 0 0 0 0];

internalField   nonuniform List<scalar> 
65775
(
2.91109852909e-11
4.59552706951e-09
7.77302787647e-10
-9.72917454241e-14
4.27724307945e-11
4.80747985191e-09
8.60280466653e-10
5.01221437646e-11
4.98646457206e-09
9.39153247726e-10
4.88544131607e-11
5.14091023138e-09
1.01000252199e-09
4.05739166442e-11
5.26360067652e-09
1.06923194234e-09
2.66820895817e-11
5.35323319843e-09
1.11390431893e-09
9.24358263981e-12
5.40954960231e-09
1.14209551499e-09
-9.44713424123e-12
5.43096326842e-09
1.15222397496e-09
-2.68752363185e-11
5.40961945049e-09
1.14209617529e-09
-4.07450816261e-11
5.35337150259e-09
1.11390559988e-09
-4.8987259861e-11
5.2638026956e-09
1.0692336303e-09
-5.02058393067e-11
5.14115057286e-09
1.01000430073e-09
-4.27950542745e-11
4.98672100759e-09
9.39154726666e-10
-2.90860685992e-11
4.80769904777e-09
8.60280222014e-10
4.59565562498e-09
7.77295517602e-10
-4.86560362447e-14
7.55383186446e-11
7.74993877644e-09
1.91646240224e-09
-2.33156546917e-13
1.234225242e-10
8.07324363178e-09
2.11101308505e-09
1.45249114386e-10
8.34501050119e-09
2.29425262483e-09
1.42795070143e-10
8.5752567436e-09
2.4576316942e-09
1.18887399711e-10
8.75693576456e-09
2.59336325386e-09
7.83004334393e-11
8.88870422352e-09
2.6952577818e-09
2.71302592143e-11
8.97142217902e-09
2.7593819268e-09
-2.76356031144e-11
9.00315215728e-09
2.78240478164e-09
-7.87788346742e-11
8.97158213069e-09
2.75938260147e-09
-1.19309109673e-10
8.88901967263e-09
2.69525928166e-09
-1.43124421363e-10
8.75739329656e-09
2.59336522784e-09
-1.45456162225e-10
8.57581044919e-09
2.45763366012e-09
-1.23488155307e-10
8.34559989254e-09
2.29425383684e-09
-7.54883608108e-11
8.07376485139e-09
2.11101006043e-09
7.75028207376e-09
1.91644380458e-09
-1.21706678081e-13
1.13110260922e-10
9.78719337081e-09
2.74062029866e-09
-3.25019624144e-13
1.88659816855e-10
1.01527710189e-08
3.01303159219e-09
2.21895713027e-10
1.0460454558e-08
3.26783538963e-09
2.18010790876e-10
1.07149656702e-08
3.49380026658e-09
1.81290273078e-10
1.09141800701e-08
3.68068617299e-09
1.1928530734e-10
1.10573807696e-08
3.82050522398e-09
4.13123220017e-11
1.11471748206e-08
3.90828268679e-09
-4.20374024902e-11
1.11819879626e-08
3.93974244484e-09
-1.19970418599e-10
1.11473967662e-08
3.90828314271e-09
-1.81892370555e-10
1.10578163938e-08
3.8205063823e-09
-2.18482247599e-10
1.09148083225e-08
3.68068772967e-09
-2.22194924412e-10
1.07157290393e-08
3.49380182797e-09
-1.88765698622e-10
1.04612668544e-08
3.2678362194e-09
-1.13054761743e-10
1.01535042913e-08
3.01302733769e-09
9.78770676389e-09
2.74059593593e-09
-1.79315221892e-13
1.44552542143e-10
1.0948360233e-08
3.32980031056e-09
-3.85340802561e-13
2.41555273447e-10
1.13103585771e-08
3.65696653755e-09
2.8399262307e-10
1.16155333378e-08
3.9608870315e-09
2.78506701863e-10
1.18612150975e-08
4.22896300158e-09
2.31237342256e-10
1.20513781756e-08
4.4496974563e-09
1.51966993828e-10
1.21865779384e-08
4.61428112947e-09
5.26054954787e-11
1.22712283733e-08
4.71734405064e-09
-5.34856085509e-11
1.23044999131e-08
4.75420412274e-09
-1.52797224977e-10
1.22714871623e-08
4.71734482167e-09
-2.31965353061e-10
1.21870844106e-08
4.61428250076e-09
-2.79078034184e-10
1.20521047383e-08
4.44969927045e-09
-2.84360917289e-10
1.18620991355e-08
4.22896511323e-09
-2.41698915062e-10
1.16164788918e-08
3.96088898997e-09
-1.44507048139e-10
1.13112279312e-08
3.65696404368e-09
1.09490067107e-08
3.32977721642e-09
-2.2659763156e-13
1.70146670976e-10
1.14316863681e-08
3.72656535264e-09
-4.22037432962e-13
2.83914415614e-10
1.17609748588e-08
4.09062154433e-09
3.33679639916e-10
1.20396503985e-08
4.42640841027e-09
3.26705496227e-10
1.22570909195e-08
4.72092524984e-09
2.70889822503e-10
1.24229161167e-08
4.96231908051e-09
1.77839307858e-10
1.25391976874e-08
5.14167126196e-09
6.15365718847e-11
1.26118673324e-08
5.25367642113e-09
-6.2521362416e-11
1.26409470176e-08
5.29363535364e-09
-1.78767179175e-10
1.26121414171e-08
5.25367718143e-09
-2.71702661213e-10
1.25397326706e-08
5.14167278461e-09
-3.2734563169e-10
1.24236809849e-08
4.96232148302e-09
-3.34100030577e-10
1.22580224665e-08
4.72092876536e-09
-2.8409443785e-10
1.20406544979e-08
4.42641303876e-09
-1.70121991434e-10
1.1761913122e-08
4.09062337292e-09
1.14324191089e-08
3.72654826663e-09
-2.66954596484e-13
1.90796880057e-10
1.14011565155e-08
3.96427070561e-09
-4.40482813641e-13
3.17381763618e-10
1.16814234272e-08
4.35141433481e-09
3.72735599954e-10
1.19205854601e-08
4.70588665084e-09
3.64381942729e-10
1.21003894106e-08
5.01497455487e-09
3.01755719517e-10
1.2234874587e-08
5.26711689355e-09
1.97917201209e-10
1.2327528339e-08
5.45377446027e-09
6.846067533e-11
1.23853035224e-08
5.57000401379e-09
-6.95107867734e-11
1.24089884665e-08
5.61134960911e-09
-1.9890608691e-10
1.23855756717e-08
5.57000493987e-09
-3.02622280463e-10
1.23280585486e-08
5.45377650967e-09
-3.6506810617e-10
1.22356307208e-08
5.26712048799e-09
-3.73195732949e-10
1.21013113642e-08
5.01498035294e-09
-3.17597984651e-10
1.19215859124e-08
4.70589517638e-09
-1.90801597726e-10
1.16823766527e-08
4.3514221352e-09
1.14019328556e-08
3.96426181987e-09
-3.01440281907e-13
2.07460194666e-10
1.09919961223e-08
4.07072301762e-09
-4.45374497612e-13
3.43521113082e-10
1.12167086021e-08
4.47054512843e-09
4.02876359074e-10
1.14113455335e-08
4.83393880538e-09
3.93207511128e-10
1.15511329211e-08
5.1489335631e-09
3.25232252297e-10
1.16530212566e-08
5.40468335773e-09
2.13130193995e-10
1.17215979809e-08
5.59332477676e-09
7.37011029754e-11
1.17642537134e-08
5.71043446626e-09
-7.47861268423e-11
1.17823415153e-08
5.75195076522e-09
-2.14152146128e-10
1.17645099708e-08
5.71043572164e-09
-3.26129480773e-10
1.17220966266e-08
5.59332766956e-09
-3.9392348189e-10
1.16537313824e-08
5.40468859783e-09
-4.0336834588e-10
1.15520004388e-08
5.14894222024e-09
-3.43773446694e-10
1.14122941535e-08
4.83395190388e-09
-2.07501498099e-10
1.12176282984e-08
4.4705595157e-09
1.09927745958e-08
4.07072277588e-09
-3.32377299106e-13
2.20804430636e-10
1.03148839702e-08
4.06980228798e-09
-4.39416215751e-13
3.63595362929e-10
1.04844806172e-08
4.47476410015e-09
4.25606850228e-10
1.06350672805e-08
4.84019106528e-09
4.14693297585e-10
1.07370191647e-08
5.15511577604e-09
3.42598321134e-10
1.080872653e-08
5.40964269947e-09
2.24331299772e-10
1.08554523993e-08
5.59672493144e-09
7.75544616683e-11
1.08844467756e-08
5.71250695516e-09
-7.86519799582e-11
1.08973707215e-08
5.75338742109e-09
-2.25366050167e-10
1.08846773659e-08
5.71250863861e-09
-3.43510108785e-10
1.08559006818e-08
5.59672883432e-09
-4.15428448216e-10
1.08093648085e-08
5.40964977468e-09
-4.26126146855e-10
1.07378009398e-08
5.15512744498e-09
-3.63884964076e-10
1.063592912e-08
4.84020875757e-09
-2.20888027293e-10
1.04853300938e-08
4.474784706e-09
1.03156304636e-08
4.06980987438e-09
-3.60577564226e-13
2.31292632513e-10
9.45938154968e-09
3.98216667134e-09
-4.25706636556e-13
3.78625925397e-10
9.5788003601e-09
4.38710364164e-09
4.42243686464e-10
9.68921304337e-09
4.7500246456e-09
4.30204733406e-10
9.75814916835e-09
5.06107240147e-09
3.55023192245e-10
9.80416336458e-09
5.31139269546e-09
2.32301539455e-10
9.83272273951e-09
5.49478150221e-09
8.02921822993e-11
9.85042334422e-09
5.60792290702e-09
-8.13867842792e-11
9.85897088809e-09
5.64768278755e-09
-2.33335541123e-10
9.85062156226e-09
5.60792501323e-09
-3.55939315225e-10
9.83310803498e-09
5.49478636318e-09
-4.30953143645e-10
9.8047123416e-09
5.31140144507e-09
-4.42788646877e-10
9.75882438394e-09
5.06108672827e-09
-3.78954783143e-10
9.68996429068e-09
4.7500462511e-09
-2.31422793586e-10
9.57955341316e-09
4.38712919435e-09
9.46006573697e-09
3.98218031362e-09
-3.8734516311e-13
2.39266259174e-10
8.49694388975e-09
3.82557981227e-09
-4.06588651039e-13
3.89469069388e-10
8.57355951227e-09
4.22721822785e-09
4.5397649828e-10
8.64942201105e-09
4.58492797177e-09
4.4100902242e-10
8.69139293649e-09
4.88995568141e-09
3.63596665041e-10
8.71713405428e-09
5.13447892102e-09
2.37765926676e-10
8.73180838235e-09
5.31308937266e-09
8.21653685805e-11
8.7409396783e-09
5.42293833902e-09
-8.32480016259e-11
8.74605006586e-09
5.46133047832e-09
-2.38791564062e-10
8.74110210144e-09
5.42294073506e-09
-3.64512076265e-10
8.73212419011e-09
5.31309487737e-09
-4.41768539666e-10
8.71758497393e-09
5.13448877683e-09
-4.54547727381e-10
8.69195045053e-09
4.88997174888e-09
-3.89839475928e-10
8.65004912284e-09
4.58495209239e-09
-2.39447024297e-10
8.57419872113e-09
4.22724663876e-09
8.49754565914e-09
3.82559698226e-09
-4.13452442336e-13
2.44959424744e-10
7.48372111478e-09
3.61511757857e-09
-3.84180733332e-13
3.96877139882e-10
7.52561912011e-09
4.01162285608e-09
4.61943317756e-10
7.573077911e-09
4.36277369792e-09
4.48325495499e-10
7.59446959486e-09
4.6608369521e-09
3.69350990177e-10
7.60557883994e-09
4.89895293071e-09
2.41398968337e-10
7.61069097711e-09
5.07242468127e-09
8.34055586882e-11
7.61396892197e-09
5.17878102043e-09
-8.44726299846e-11
7.6165947208e-09
5.21572078287e-09
-2.42413701659e-10
7.61409472372e-09
5.17878343146e-09
-3.70264776097e-10
7.61093573895e-09
5.07243022423e-09
-4.49097018619e-10
7.60592923196e-09
4.89896287276e-09
-4.62542825592e-10
7.59490590245e-09
4.66085323367e-09
-3.97291558816e-10
7.57357488996e-09
4.36279821175e-09
-2.4519340749e-10
7.52613484031e-09
4.01165130895e-09
7.48422564361e-09
3.61513511554e-09
-4.40028868621e-13
2.4850142801e-10
6.46315411825e-09
3.36336669572e-09
-3.58676998732e-13
4.01672982744e-10
6.47751568381e-09
3.75394904718e-09
4.67404161339e-10
6.50255110337e-09
4.09813880637e-09
4.5340837185e-10
6.50972971681e-09
4.38909131245e-09
3.73275885783e-10
6.51169848158e-09
4.62081821726e-09
2.43817648625e-10
6.51127249249e-09
4.7892425352e-09
8.42193615162e-11
6.51116156992e-09
4.8921833312e-09
-8.52717775065e-11
6.51217891582e-09
4.92768640377e-09
-2.44823033161e-10
6.5112517968e-09
4.89218534066e-09
-3.74190458216e-10
6.51144846351e-09
4.78924721589e-09
-4.54194785612e-10
6.51195165884e-09
4.62082675951e-09
-4.68034803934e-10
6.51004729163e-09
4.38910564838e-09
-4.02133405925e-10
6.50291800904e-09
4.09816088395e-09
-2.48790272966e-10
6.47790298318e-09
3.75397414656e-09
6.46354985804e-09
3.36338096928e-09
-4.67734760526e-13
2.50231495674e-10
5.46801359089e-09
3.08065265076e-09
-3.31809408067e-13
4.05322610112e-10
5.45960147891e-09
3.46525440692e-09
4.72019531617e-10
5.46835087621e-09
3.80269026971e-09
4.57554887421e-10
5.46775127637e-09
4.08685539968e-09
3.7623328608e-10
5.46564921551e-09
4.31255735243e-09
2.4550453268e-10
5.46310885413e-09
4.47626284953e-09
8.47622299706e-11
5.4616366121e-09
4.57600761399e-09
-8.58043742678e-11
5.46177016264e-09
4.61014213598e-09
-2.46504961e-10
5.46169426225e-09
4.57600869544e-09
-3.77152861662e-10
5.4632218092e-09
4.47626553116e-09
-4.58360235706e-10
5.46581172874e-09
4.31256261188e-09
-4.72684122526e-10
5.46795725802e-09
4.0868650485e-09
-4.05830437124e-10
5.46859303404e-09
3.80270643104e-09
-2.50575660475e-10
5.45986196369e-09
3.46527245131e-09
5.46829572951e-09
3.08066017638e-09
-4.95591147247e-13
2.52210595584e-10
4.52068901897e-09
2.77529722989e-09
-3.03590478691e-13
4.10825386413e-10
4.49243898061e-09
3.15439154335e-09
4.77654052833e-10
4.49293763152e-09
3.48561334019e-09
4.61558257106e-10
4.49079455917e-09
3.76351755308e-09
3.78493524086e-10
4.48858369886e-09
3.98369108263e-09
2.46541464694e-10
4.48634994267e-09
4.14308906474e-09
8.50477311178e-11
4.48492006169e-09
4.23990462516e-09
-8.60857353479e-11
4.48470485555e-09
4.27275761393e-09
-2.47542437001e-10
4.48494929311e-09
4.23990423671e-09
-3.79423385523e-10
4.48640724284e-09
4.14308856976e-09
-4.62385647576e-10
4.48866719096e-09
3.98369106436e-09
-4.78353724135e-10
4.4909010162e-09
3.76351946166e-09
-4.11379693452e-10
4.49306469252e-09
3.48561955337e-09
-2.52608078212e-10
4.49257830807e-09
3.15439872335e-09
4.52086094185e-09
2.77529546861e-09
-5.23914297624e-13
2.66640623425e-10
2.45445350995e-09
-2.72734820607e-13
3.62421492674e-09
4.25557227367e-10
2.82892378886e-09
3.59385121093e-09
4.87295150621e-10
3.15434831219e-09
3.59571656183e-09
4.66438018099e-10
3.42638063712e-09
3.59578729748e-09
3.80394249601e-10
3.64139247907e-09
3.59517119893e-09
2.4703114912e-10
3.79678403595e-09
3.59430632415e-09
8.51023721128e-11
3.89086411851e-09
3.59363809628e-09
-8.61420431838e-11
3.92249936144e-09
3.59339315233e-09
-2.48037897141e-10
3.89086197961e-09
3.59364376529e-09
-3.8133719503e-10
3.79677974644e-09
3.59431716053e-09
-4.67289052804e-10
3.64138606875e-09
3.59518707475e-09
-4.88029492687e-10
3.42637278488e-09
3.59580779009e-09
-4.26154151971e-10
3.15434144948e-09
3.5957429926e-09
-2.67085549923e-10
2.82891481466e-09
3.59388127232e-09
2.45444463258e-09
-5.50171643605e-13
3.62428325125e-09
-8.31976701368e-12
3.24921796698e-10
4.60664076518e-10
1.0422146571e-13
-1.03965206479e-11
3.5535420455e-10
5.0712243971e-10
-1.08712446857e-11
3.88817181388e-10
5.50991956045e-10
-1.01620806256e-11
4.1917589801e-10
5.90303256361e-10
-8.26411181134e-12
4.44422883209e-10
6.23092509553e-10
-5.36861346748e-12
4.63372238962e-10
6.47779316218e-10
-1.78525586399e-12
4.7526368046e-10
6.63347471207e-10
2.03898256157e-12
4.79509742891e-10
6.68953660049e-10
5.6025084399e-12
4.75224560699e-10
6.63348132743e-10
8.45674002661e-12
4.63296431831e-10
6.47780499556e-10
1.02923993405e-11
4.44320394316e-10
6.23093988547e-10
1.09327875734e-11
4.19070586001e-10
5.90304565104e-10
1.03878661705e-11
3.88714936945e-10
5.50992301317e-10
8.26778327218e-12
3.55285762589e-10
5.0712008919e-10
3.2487459312e-10
4.60654348352e-10
3.84585712572e-14
-1.26605281279e-11
9.27138861782e-10
1.32677183509e-09
2.49910317123e-13
-1.56256069697e-11
1.00587682137e-09
1.46366102888e-09
-1.55879713648e-11
1.09028941863e-09
1.59302495964e-09
-1.39748394981e-11
1.1665270525e-09
1.70896623455e-09
-1.10254201378e-11
1.22940981439e-09
1.80570119239e-09
-6.9959948367e-12
1.27625880963e-09
1.87855475553e-09
-2.22738199692e-12
1.30555250744e-09
1.92447285371e-09
2.8073253182e-12
1.31602973733e-09
1.94094696344e-09
7.52893774338e-12
1.30547166022e-09
1.92447565495e-09
1.14622633517e-11
1.27610218729e-09
1.87855976933e-09
1.4270380374e-11
1.2291957308e-09
1.80570756831e-09
1.57224204935e-11
1.16629717419e-09
1.70897239645e-09
1.56041927886e-11
1.09007043067e-09
1.59302846532e-09
1.25371803956e-11
1.00571431351e-09
1.46365681822e-09
9.27020523248e-10
1.32674924503e-09
9.10625494937e-14
-8.97988829796e-12
1.60173971709e-09
2.07476916261e-09
3.37838695088e-13
-9.57516166679e-12
1.72761617332e-09
2.29207895908e-09
-7.87759248314e-12
1.8596834934e-09
2.49699706096e-09
-5.82041168625e-12
1.97825188811e-09
2.68028784573e-09
-3.87305934097e-12
2.07541737986e-09
2.83297248587e-09
-2.10521279891e-12
2.14736021903e-09
2.94782266726e-09
-4.47132837789e-13
2.19219688162e-09
3.02011044388e-09
1.19132036203e-12
2.20824854394e-09
3.0459708929e-09
2.78753523998e-12
2.19209865661e-09
3.02011509666e-09
4.43030736846e-12
2.14717039668e-09
2.94783111883e-09
6.19623797994e-12
2.07515770845e-09
2.83298340408e-09
8.04412519306e-12
1.97796841051e-09
2.68029884708e-09
9.5424711048e-12
1.85941498319e-09
2.4970045143e-09
8.81263830778e-12
1.72740376006e-09
2.29207559322e-09
1.60157510228e-09
2.0747401833e-09
1.19784322989e-13
-7.94337132916e-14
2.23999051654e-09
2.6913511281e-09
3.81944818798e-13
4.15370885563e-12
2.40410562712e-09
2.97641756874e-09
8.2595621914e-12
2.57248239222e-09
3.2442106094e-09
1.02935287295e-11
2.72243923764e-09
3.48297863828e-09
9.76750985199e-12
2.84449009684e-09
3.68135810092e-09
6.99893252813e-12
2.9342955355e-09
3.83027447675e-09
2.75609564659e-12
2.99007323736e-09
3.92382376839e-09
-1.96873661582e-12
3.01005741562e-09
3.95719604035e-09
-6.27841100986e-12
2.98997381608e-09
3.92382927315e-09
-9.18106896426e-12
2.93410326921e-09
3.83028504633e-09
-9.9002047677e-12
2.84422591227e-09
3.68137223167e-09
-8.0902876549e-12
2.72214507532e-09
3.4829936362e-09
-4.19834008556e-12
2.57220024284e-09
3.24422230335e-09
-1.12430496182e-13
2.40387144959e-09
2.97641757284e-09
2.23979341228e-09
2.69132236256e-09
1.28213730432e-13
1.21665492426e-11
2.7754394793e-09
3.17865416163e-09
3.94160223321e-13
2.2693663867e-11
2.96586660871e-09
3.51848653754e-09
2.96232632246e-11
3.15605293646e-09
3.83610963144e-09
3.12222760603e-11
3.32384641515e-09
4.11812147842e-09
2.7242409404e-11
3.45934001994e-09
4.35162451329e-09
1.8549261161e-11
3.55836177826e-09
4.52643287795e-09
6.77442873757e-12
3.61963165738e-09
4.6359887368e-09
-6.02511560007e-12
3.64159944294e-09
4.67495803945e-09
-1.78650895448e-11
3.61953926101e-09
4.63599503187e-09
-2.66879232645e-11
3.55818289633e-09
4.52644502594e-09
-3.08540120371e-11
3.45909222236e-09
4.35164108289e-09
-2.94718720518e-11
3.32356572406e-09
4.11813990315e-09
-2.27515609728e-11
3.15577699053e-09
3.83612582753e-09
-1.23717158911e-11
2.9656299421e-09
3.5184918202e-09
2.77522381911e-09
3.17863024057e-09
1.2107037557e-13
2.61348192226e-11
3.17283135293e-09
3.54044909346e-09
3.84116648435e-13
4.37606651939e-11
3.37744153602e-09
3.92235304418e-09
5.36752762489e-11
3.57506478574e-09
4.27713217076e-09
5.4525719759e-11
3.74757796852e-09
4.59056373186e-09
4.65260728654e-11
3.88557985364e-09
4.84902335983e-09
3.12120211558e-11
3.98566841733e-09
5.04189537185e-09
1.11521462108e-11
4.04733330759e-09
5.16244431524e-09
-1.04907038254e-11
4.06945765802e-09
5.20519128821e-09
-3.06098645272e-11
4.04725120292e-09
5.16245097567e-09
-4.60413555e-11
3.98550914815e-09
5.04190834572e-09
-5.42091270269e-11
3.88535756344e-09
4.84904150975e-09
-5.35559372768e-11
3.74732118779e-09
4.59058495337e-09
-4.38332702366e-11
3.57480599153e-09
4.2771529041e-09
-2.63477149846e-11
3.37720829937e-09
3.92236469328e-09
3.17260758076e-09
3.54043247812e-09
1.0184815398e-13
4.05026533369e-11
3.41969070822e-09
3.78308340218e-09
3.60279539398e-13
6.55455643814e-11
3.62772337683e-09
4.19534082373e-09
7.84211344784e-11
3.8205550113e-09
4.57571732331e-09
7.83174940786e-11
3.98686355517e-09
4.90989351259e-09
6.60777158948e-11
4.11841082343e-09
5.18421276685e-09
4.39842181943e-11
4.21298536293e-09
5.38819495649e-09
1.55484882519e-11
4.27096545417e-09
5.51530655222e-09
-1.50016710987e-11
4.2917796375e-09
5.56022715506e-09
-4.34887043106e-11
4.2708942505e-09
5.5153132532e-09
-6.56834451578e-11
4.21284677416e-09
5.38820817232e-09
-7.80679796797e-11
4.11821569816e-09
5.18423178773e-09
-7.83427987237e-11
3.98663355002e-09
4.90991689023e-09
-6.56358529367e-11
3.82031749599e-09
4.57574225762e-09
-4.0720382836e-11
3.6274994578e-09
4.19535895259e-09
3.41946580788e-09
3.78307483467e-09
7.44770114359e-14
5.42823848731e-11
3.51956397798e-09
3.91539784734e-09
3.28195947517e-13
8.66855429025e-11
3.72239808385e-09
4.34779051906e-09
1.023701773e-10
3.90131878281e-09
4.74386347579e-09
1.01215307949e-10
4.05347735789e-09
5.08977304343e-09
8.47911682242e-11
4.17220731291e-09
5.37236931799e-09
5.61570932184e-11
4.2566979537e-09
5.58172409242e-09
1.97245400094e-11
4.30819686487e-09
5.71176593854e-09
-1.93031538443e-11
4.32669042298e-09
5.75754605509e-09
-5.57783943415e-11
4.30813537761e-09
5.71177240949e-09
-8.4496402338e-11
4.25657792861e-09
5.58173703592e-09
-1.01040540245e-10
4.17203682362e-09
5.37238849938e-09
-1.02338232707e-10
4.05327261453e-09
5.0897977377e-09
-8.67965385419e-11
3.90110132301e-09
4.74389171692e-09
-5.45044853225e-11
3.72218417039e-09
4.34781416808e-09
3.51933735129e-09
3.91539658176e-09
4.13556029636e-14
6.67977225998e-11
3.4865617836e-09
3.94815317196e-09
2.92072205229e-13
1.06205790015e-10
3.67792046514e-09
4.39226320261e-09
1.24471424282e-10
3.83710708582e-09
4.79607025989e-09
1.2227446197e-10
3.97023465397e-09
5.14660647352e-09
1.01935413799e-10
4.07242070848e-09
5.43159846971e-09
6.72743235497e-11
4.14426998939e-09
5.64193403136e-09
2.35286726264e-11
4.18776592729e-09
5.772147393e-09
-2.32334020688e-11
4.20338261917e-09
5.81778789124e-09
-6.70133880337e-11
4.18771260378e-09
5.7721533468e-09
-1.01741781521e-10
4.14416545542e-09
5.64194611996e-09
-1.22176986904e-10
4.07227079854e-09
5.43161691218e-09
-1.24489184026e-10
3.97005104978e-09
5.146631245e-09
-1.06340411311e-10
3.83690655479e-09
4.79610020309e-09
-6.70260893465e-11
3.67771427486e-09
4.39229033175e-09
3.48633468444e-09
3.94815717284e-09
4.84617474363e-15
7.76497237691e-11
3.34103816639e-09
3.8932710625e-09
2.55237280419e-13
1.23472731327e-10
3.51682935231e-09
4.34256494899e-09
1.44061768664e-10
3.65340585509e-09
4.74812246638e-09
1.40933420411e-10
3.76531475092e-09
5.09808020238e-09
1.17104878225e-10
3.84954006612e-09
5.38125292481e-09
7.70965169197e-11
3.90794369173e-09
5.58947583354e-09
2.68840091468e-11
3.94302031552e-09
5.71793631165e-09
-2.67095955737e-11
3.95559901978e-09
5.76273747947e-09
-7.69489094126e-11
3.94297353164e-09
5.71794137531e-09
-1.17009575481e-10
3.90785155764e-09
5.58948628612e-09
-1.40912749258e-10
3.84940643708e-09
5.3812693712e-09
-1.44130841651e-10
3.76514777455e-09
5.09810324694e-09
-1.23633928844e-10
3.65321763166e-09
4.74815170247e-09
-7.78864171457e-11
3.5166269299e-09
4.34259249345e-09
3.34080589733e-09
3.89327718717e-09
-3.36892634206e-14
8.66717128771e-11
3.10626316087e-09
3.76307135692e-09
2.19555239999e-13
1.38159305533e-10
3.26421662832e-09
4.21281491773e-09
1.60839145938e-10
3.37758862842e-09
4.61597843472e-09
1.56990126105e-10
3.46818828652e-09
4.96187377578e-09
1.30193787479e-10
3.53485482217e-09
5.24048653147e-09
8.55803778178e-11
3.58039118484e-09
5.44463276186e-09
2.97806741238e-11
3.60749970418e-09
5.57013411494e-09
-2.97187852817e-11
3.61719118298e-09
5.61365322424e-09
-8.55387527281e-11
3.60745821732e-09
5.57013778436e-09
-1.30191513955e-10
3.58030899933e-09
5.44464051546e-09
-1.57043738212e-10
3.5347340891e-09
5.24049926322e-09
-1.60960020191e-10
3.46803394503e-09
4.96189263638e-09
-1.38349644443e-10
3.37740892584e-09
4.61600374581e-09
-8.69197695289e-11
3.26401458453e-09
4.21283893719e-09
3.1060233317e-09
3.76307556261e-09
-7.27635995587e-14
9.38748018302e-11
2.80602301817e-09
3.56960930212e-09
1.85399147996e-13
1.50237088902e-10
2.94517889253e-09
4.01668072622e-09
1.74893610868e-10
3.03622698709e-09
4.41489860509e-09
1.70631137076e-10
3.1069092448e-09
4.75468176213e-09
1.41406419798e-10
3.1577531944e-09
5.02718626377e-09
9.28767495793e-11
3.19200913743e-09
5.22618735635e-09
3.22741178637e-11
3.21222611886e-09
5.34808656419e-09
-3.2314947623e-11
3.21940441425e-09
5.39008223978e-09
-9.29322287323e-11
3.21218926665e-09
5.34808820468e-09
-1.41490254625e-10
3.19193543618e-09
5.22619107026e-09
-1.707549433e-10
3.15764297438e-09
5.02719311304e-09
-1.75065187195e-10
3.10676504876e-09
4.7546933618e-09
-1.50458052118e-10
3.0360532669e-09
4.41491608134e-09
-9.41365721304e-11
2.94497615041e-09
4.01669672459e-09
2.80577638921e-09
3.56960701992e-09
-1.11514785813e-13
9.9458373246e-11
2.46295664457e-09
3.3241623589e-09
1.53942339738e-13
1.60139339717e-10
2.58295321058e-09
3.7668454464e-09
1.86909665796e-10
2.65332506134e-09
4.15886561001e-09
1.82574872309e-10
2.70655935527e-09
4.49157896526e-09
1.51328912736e-10
2.74428776766e-09
4.75730097277e-09
9.93595982675e-11
2.76953733924e-09
4.95073200452e-09
3.44914265651e-11
2.78433507995e-09
5.0687870067e-09
-3.46242466165e-11
2.7895187648e-09
5.10916164371e-09
-9.95022751645e-11
2.78430226735e-09
5.06878592519e-09
-1.51490680644e-10
2.76947082764e-09
4.95073020538e-09
-1.82762836203e-10
2.74418725442e-09
4.75729952546e-09
-1.87128823364e-10
2.70642408319e-09
4.49157982667e-09
-1.60389994242e-10
2.6531564283e-09
4.15887090201e-09
-9.97342008111e-11
2.58274888382e-09
3.7668489115e-09
2.46270438721e-09
3.3241494957e-09
-1.47084131952e-13
1.0365671222e-10
2.09764096165e-09
3.03687944121e-09
1.25773364299e-13
1.68792796015e-10
2.19749067804e-09
3.47475500047e-09
1.98236091574e-10
2.24924531722e-09
3.86028439777e-09
1.94081740353e-10
2.28858047169e-09
4.18568186135e-09
1.60917188325e-10
2.31666487525e-09
4.44450602171e-09
1.05612644399e-10
2.33559922855e-09
4.63235258823e-09
3.66309201339e-11
2.34666361379e-09
4.74657704561e-09
-3.68442551546e-11
2.35043884494e-09
4.78532578405e-09
-1.05831761758e-10
2.3466339847e-09
4.7465726636e-09
-1.6114664308e-10
2.33553902271e-09
4.63234402519e-09
-1.94325958706e-10
2.3165719523e-09
4.44449413347e-09
-1.98497060744e-10
2.28845314416e-09
4.18566864668e-09
-1.69070234352e-10
2.24908194129e-09
3.86027305251e-09
-1.0394499186e-10
2.19728538503e-09
3.47474184884e-09
2.09738504451e-09
3.0368536141e-09
-1.79628499904e-13
9.99944560967e-11
2.71634392519e-09
9.80530175935e-14
1.73570038316e-09
1.75120123559e-10
3.15048481794e-09
1.80083455049e-09
2.09290593667e-10
3.52959491869e-09
1.83985691852e-09
2.05985177843e-10
3.84783339405e-09
1.87045827674e-09
1.71044614956e-10
4.10003621735e-09
1.89298357633e-09
1.12290684519e-10
4.28259633988e-09
1.90856033545e-09
3.89312202374e-11
4.39320386099e-09
1.91769802833e-09
-3.92128282353e-11
4.43039483726e-09
1.92070049785e-09
-1.12573802266e-10
4.39319609583e-09
1.91766995883e-09
-1.71330318105e-10
4.28258080319e-09
1.90850339626e-09
-2.06274047715e-10
4.10001335649e-09
1.89289572108e-09
-2.0958315531e-10
3.84780469939e-09
1.87033673239e-09
-1.75415911068e-10
3.52956429839e-09
1.83969726373e-09
-1.00289522002e-10
3.1504497798e-09
1.80062889584e-09
2.71630909257e-09
-2.05842897522e-13
1.73544145323e-09
4.10935814884e-12
-1.24464769817e-13
4.56695158974e-10
-5.57525639827e-15
7.19368364662e-12
-1.21671605378e-12
5.05282514211e-10
8.95660666423e-12
-2.15343037318e-12
5.51415012891e-10
9.16347646868e-12
-2.82571016974e-12
5.92961118692e-10
7.83290233702e-12
-3.31125180269e-12
6.27759185278e-10
5.24180546993e-12
-3.66115745568e-12
6.54043324207e-10
1.82253678883e-12
-3.873622429e-12
6.70646950903e-10
-1.89049037265e-12
-3.94554227896e-12
6.76618042066e-10
-5.30382673797e-12
-3.88055254403e-12
6.70647922329e-10
-7.88485197109e-12
-3.67757965116e-12
6.540451107e-10
-9.20598352746e-12
-3.34039567051e-12
6.27761422653e-10
-8.99439492692e-12
-2.86438498078e-12
5.92963156557e-10
-7.22551116464e-12
-2.18683674015e-12
5.51415863579e-10
-4.13613632031e-12
-1.2442152104e-12
5.05280387065e-10
-1.39770565188e-13
4.56686033132e-10
-2.28028008927e-14
9.98784340089e-12
6.57364236525e-11
1.25094686995e-09
4.33534440593e-17
1.7738914928e-11
7.13031585278e-11
1.38343259819e-09
2.21939378518e-11
7.75480493989e-11
1.50892469672e-09
2.27473950908e-11
8.39797905032e-11
1.62166321107e-09
1.94716331939e-11
8.97890539911e-11
1.71591305228e-09
1.30429291816e-11
9.43359015331e-11
1.78700557501e-09
4.54549557736e-12
9.72524984135e-11
1.83185603148e-09
-4.68155223116e-12
9.82947856398e-11
1.84794382048e-09
-1.31690494345e-11
9.72337252065e-11
1.83185884971e-09
-1.95818339449e-11
9.42941273529e-11
1.78701076648e-09
-2.28443429331e-11
8.97198392125e-11
1.71591956257e-09
-2.22859027093e-11
8.3889840602e-11
1.6216691706e-09
-1.78252180732e-11
7.74628078867e-11
1.50892725563e-09
-1.00642288775e-11
7.12335664512e-11
1.38342676094e-09
6.56883337065e-11
1.25092352528e-09
-5.83853910468e-14
1.42439088856e-11
2.01633148323e-10
1.92463624036e-09
1.66651811669e-14
2.54256941757e-11
2.2190701986e-10
2.13033232075e-09
3.18374343987e-11
2.434400764e-10
2.32474555234e-09
3.26276493747e-11
2.64446601763e-10
2.49908034268e-09
2.79317378499e-11
2.82866846734e-10
2.64462393172e-09
1.87146012446e-11
2.97101395875e-10
2.75429309387e-09
6.5340364548e-12
3.0616296483e-10
2.82339272006e-09
-6.68715195267e-12
3.09387138629e-10
2.848109979e-09
-1.8859606792e-11
3.0613370662e-10
2.82339731042e-09
-2.80650035075e-11
2.9703858609e-10
2.7543015424e-09
-3.27542391668e-11
2.82767083084e-10
2.64463456799e-09
-3.19664098303e-11
2.64319421566e-10
2.49909028305e-09
-2.55558300553e-11
2.43314724424e-10
2.32475049674e-09
-1.43652739499e-11
2.21801652996e-10
2.13032500936e-09
2.01550914711e-10
1.92460405256e-09
-8.42271638298e-14
1.78240335661e-11
3.85036250323e-10
2.4901089433e-09
3.86927050647e-14
3.18038682133e-11
4.24651938424e-10
2.75973026536e-09
3.97676153468e-11
4.65867382293e-10
3.01386610833e-09
4.07113061402e-11
5.05261625943e-10
3.24126230287e-09
3.48369976988e-11
5.3934116661e-10
3.43078766542e-09
2.33417207447e-11
5.65476097145e-10
3.57341333652e-09
8.16241766065e-12
5.82032574544e-10
3.6631459895e-09
-8.30614435804e-12
5.87908876922e-10
3.69515322549e-09
-2.34821803607e-11
5.81996466643e-10
3.66315212826e-09
-3.4974687518e-11
5.65400644984e-10
3.57342464671e-09
-4.08533712075e-11
5.39224784536e-10
3.43080201386e-09
-3.99226435002e-11
5.05114650471e-10
3.2412761171e-09
-3.19690897105e-11
4.65717341216e-10
3.01387419226e-09
-1.79855139606e-11
4.24519154835e-10
2.75972402949e-09
3.84923822126e-10
2.49007375266e-09
-1.02842151785e-13
2.1416081001e-11
5.91740952951e-10
2.95049440586e-09
6.11286732381e-14
3.79757689587e-11
6.51827459269e-10
3.27478628107e-09
4.72938772171e-11
7.13309040975e-10
3.57939033798e-09
4.83016911218e-11
7.71214520694e-10
3.8511977048e-09
4.12832308266e-11
8.20762386905e-10
4.07724844713e-09
2.7648858127e-11
8.58488486612e-10
4.24707238926e-09
9.67737392719e-12
8.82277253196e-10
4.35372810408e-09
-9.80727473709e-12
8.90702614744e-10
4.39165930475e-09
-2.77807320607e-11
8.82238935148e-10
4.35373536449e-09
-4.14216300047e-11
8.58409517515e-10
4.2470858067e-09
-4.84552481395e-11
8.20642119119e-10
4.07726565449e-09
-4.74701714113e-11
7.71062510772e-10
3.85121483754e-09
-3.81703584538e-11
7.1314891025e-10
3.57940187535e-09
-2.16125746948e-11
6.5167716056e-10
3.27478296894e-09
5.91605102894e-10
2.95046033387e-09
-1.175894198e-13
2.54478070831e-11
7.98017081114e-10
3.30866704654e-09
8.03921036783e-14
4.46608533681e-11
8.76636311274e-10
3.67836193685e-09
5.5286538029e-11
9.55724307731e-10
4.02412642334e-09
5.62653712602e-11