/*--------------------------------*- C++ -*----------------------------------*\
  =========                 |
  \\      /  F ield         | OpenFOAM: The Open Source CFD Toolbox
   \\    /   O peration     | Website:  https://openfoam.org
    \\  /    A nd           | Version:  7
     \\/     M anipulation  |
\*---------------------------------------------------------------------------*/
FoamFile
{
    version     2.0;
    format      ascii;
    class       volScalarField;
    location    "0.18";
    object      p;
}
// * * * * * * * * * * * * * * * * * * * * * * * * * * * * * * * * * * * * * //

dimensions      [0 2 -2 0 0 0 0];

internalField   nonuniform List<scalar> 
22500
(
4.32662141174e-06
4.32587103061e-06
4.32591238548e-06
4.32578399126e-06
4.3257339178e-06
4.32569206528e-06
4.32566814763e-06
4.32565692672e-06
4.32566462155e-06
4.32568508312e-06
4.32572354495e-06
4.32577046147e-06
4.32589582086e-06
4.32585238473e-06
4.32659890285e-06
4.31478488773e-06
4.31341872665e-06
4.31295390815e-06
4.31238694327e-06
4.31198271343e-06
4.31168158185e-06
4.31149970846e-06
4.31143592553e-06
4.31149607136e-06
4.31167437354e-06
4.3119720177e-06
4.31237297028e-06
4.31293684703e-06
4.3133994957e-06
4.3147618221e-06
4.30339789565e-06
4.30146879391e-06
4.30056946223e-06
4.29961383222e-06
4.29890226307e-06
4.29837588508e-06
4.29805722209e-06
4.29794787058e-06
4.29805365059e-06
4.298368804e-06
4.29889176698e-06
4.29960011343e-06
4.30055271136e-06
4.30144988396e-06
4.30337504429e-06
4.29322730591e-06
4.29083224992e-06
4.28957872436e-06
4.28831346958e-06
4.2873571471e-06
4.28665277037e-06
4.28622625502e-06
4.28608104875e-06
4.28622280021e-06
4.28664591671e-06
4.28734699784e-06
4.28830021671e-06
4.28956253484e-06
4.29081397709e-06
4.29320501971e-06
4.28370033705e-06
4.28090440108e-06
4.27934312204e-06
4.27782168867e-06
4.27666134214e-06
4.27581017286e-06
4.27529492249e-06
4.2751203035e-06
4.27529157848e-06
4.27580354086e-06
4.2766515286e-06
4.27780889173e-06
4.27932750922e-06
4.28088680197e-06
4.28367874266e-06
4.27468298382e-06
4.27154975042e-06
4.2697248033e-06
4.26799723429e-06
4.26667155626e-06
4.26570303385e-06
4.26511708326e-06
4.26491911026e-06
4.26511384905e-06
4.26569661865e-06
4.26666207377e-06
4.26798488477e-06
4.26970978647e-06
4.27153281137e-06
4.27466206104e-06
4.26621158191e-06
4.26280853821e-06
4.26076606537e-06
4.25888251804e-06
4.25743077686e-06
4.25637434472e-06
4.25573571039e-06
4.25552041405e-06
4.2557325747e-06
4.25636812735e-06
4.25742159688e-06
4.25887058092e-06
4.26075160388e-06
4.26279223032e-06
4.2661912665e-06
4.25830029086e-06
4.25469418933e-06
4.25247899772e-06
4.25048679054e-06
4.24894620769e-06
4.24782929803e-06
4.24715471973e-06
4.24692768725e-06
4.24715166718e-06
4.2478232501e-06
4.24893728533e-06
4.25047520763e-06
4.25246502209e-06
4.25467841328e-06
4.25828047464e-06
4.25093942029e-06
4.24719421772e-06
4.24484917412e-06
4.24279172991e-06
4.24119648131e-06
4.24004373886e-06
4.23934816715e-06
4.23911437005e-06
4.23934517663e-06
4.24003781613e-06
4.24118775166e-06
4.24278040771e-06
4.24483556793e-06
4.24717881773e-06
4.25091993599e-06
4.24411312794e-06
4.24028941899e-06
4.23785625294e-06
4.23577307369e-06
4.23415399993e-06
4.23298702727e-06
4.23228345639e-06
4.23204719378e-06
4.23228050116e-06
4.23298117511e-06
4.23414537583e-06
4.23576189436e-06
4.23784285521e-06
4.24027419036e-06
4.24409373174e-06
4.23780240561e-06
4.23395774073e-06
4.23147863677e-06
4.22940543786e-06
4.22778955911e-06
4.22662659808e-06
4.22592586743e-06
4.22569071454e-06
4.22592291734e-06
4.22662075369e-06
4.22778093973e-06
4.22939425291e-06
4.23146524693e-06
4.23394242644e-06
4.23778277729e-06
4.23197484724e-06
4.2281733707e-06
4.22569645309e-06
4.22366530892e-06
4.22207480331e-06
4.22093016572e-06
4.22024073716e-06
4.22000947362e-06
4.22023776211e-06
4.22092425931e-06
4.22206607364e-06
4.22365394783e-06
4.22568283077e-06
4.22815766818e-06
4.23195463402e-06
4.2265625494e-06
4.22291591974e-06
4.22050407033e-06
4.21853927084e-06
4.21698837258e-06
4.21587139179e-06
4.21519905429e-06
4.21497367315e-06
4.21519602134e-06
4.21586536487e-06
4.21697942068e-06
4.21852755322e-06
4.22048994328e-06
4.22289949476e-06
4.22654139588e-06
4.22160732064e-06
4.21825948952e-06
4.21592695138e-06
4.21402384035e-06
4.21250999962e-06
4.21142260055e-06
4.21076997435e-06
4.21055147804e-06
4.21076686675e-06
4.2114164009e-06
4.21250073058e-06
4.21401158565e-06
4.21591202435e-06
4.21824190898e-06
4.22158504613e-06
4.21806563188e-06
4.21418026989e-06
4.21187035467e-06
4.20997387856e-06
4.20848345598e-06
4.20742643942e-06
4.2067963374e-06
4.20658596993e-06
4.20679310709e-06
4.20741997948e-06
4.20847373374e-06
4.20996086143e-06
4.21185413756e-06
4.21416080513e-06
4.21804221353e-06
3.12309728547e-06
3.12336965299e-06
3.12359150743e-06
3.12378476359e-06
3.12394322534e-06
3.12406030697e-06
3.12413260458e-06
3.12415712255e-06
3.12413287484e-06
3.12406073891e-06
3.12394355088e-06
3.12378467721e-06
3.12359097126e-06
3.1233687487e-06
3.12309587848e-06
3.12433322498e-06
3.12464436497e-06
3.12490634901e-06
3.12513574659e-06
3.12532512464e-06
3.1254655605e-06
3.12555241718e-06
3.12558191372e-06
3.12555263675e-06
3.12546588674e-06
3.12532529133e-06
3.12513543523e-06
3.12490547897e-06
3.12464318796e-06
3.12433155784e-06
3.12559236588e-06
3.12596340555e-06
3.12627692731e-06
3.12655430093e-06
3.12678530483e-06
3.12695748585e-06
3.12706427078e-06
3.12710057305e-06
3.12706445126e-06
3.12695774947e-06
3.12678542492e-06
3.1265540016e-06
3.12627607746e-06
3.12596233341e-06
3.12559070071e-06
3.12692604226e-06
3.12740080288e-06
3.12779741671e-06
3.12815048572e-06
3.128446517e-06
3.12866820543e-06
3.12880601151e-06
3.12885288512e-06
3.1288061579e-06
3.12866841925e-06
3.12844661596e-06
3.12815024342e-06
3.12779667055e-06
3.12739987501e-06
3.12692440108e-06
3.12851055516e-06
3.12914105498e-06
3.12965864902e-06
3.13012021198e-06
3.1305081822e-06
3.13079940147e-06
3.1309805518e-06
3.13104215827e-06
3.13098067199e-06
3.13079957289e-06
3.13050825625e-06
3.13011999724e-06
3.12965798771e-06
3.12914023989e-06
3.12850892282e-06
3.13040663626e-06
3.13124015077e-06
3.13191151064e-06
3.13250919997e-06
3.1330111994e-06
3.13338802366e-06
3.13362224934e-06
3.1337018422e-06
3.13362233781e-06
3.13338814193e-06
3.13301122737e-06
3.13250897853e-06
3.13191089034e-06
3.13123943079e-06
3.13040494619e-06
3.13261330236e-06
3.1336871973e-06
3.13453637316e-06
3.13528921735e-06
3.13591978286e-06
3.13639239138e-06
3.13668566518e-06
3.13678520986e-06
3.13668572324e-06
3.136392458e-06
3.13591975755e-06
3.13528896799e-06
3.13453575767e-06
3.13368653202e-06
3.13261152913e-06
3.13510582005e-06
3.13644484844e-06
3.13748600908e-06
3.13840341383e-06
3.13916883992e-06
3.13974110674e-06
3.14009543493e-06
3.1402155414e-06
3.14009546204e-06
3.13974111829e-06
3.13916875271e-06
3.1384031162e-06
3.13748537961e-06
3.13644418519e-06
3.13510395896e-06
3.13784557609e-06
3.13946047208e-06
3.14069761654e-06
3.14177932624e-06
3.14267782534e-06
3.14334754886e-06
3.14376116804e-06
3.14390116875e-06
3.14376116972e-06
3.14334751318e-06
3.14267768034e-06
3.14177897041e-06
3.14069695082e-06
3.13945977391e-06
3.13784357264e-06
3.14078492685e-06
3.14267222197e-06
3.14409936381e-06
3.14533619275e-06
3.14635865462e-06
3.14711820916e-06
3.14758602688e-06
3.14774413065e-06
3.14758600964e-06
3.1471181374e-06
3.14635846141e-06
3.14533578346e-06
3.14409865515e-06
3.14267146324e-06
3.14078276325e-06
3.14387156685e-06
3.14601394813e-06
3.14761568216e-06
3.14899089702e-06
3.15012211717e-06
3.1509594202e-06
3.15147362673e-06
3.15164713453e-06
3.15147360365e-06
3.15095933651e-06
3.15012190362e-06
3.148990453e-06
3.14761493468e-06
3.14601311308e-06
3.14386920118e-06
3.14704733221e-06
3.1494155764e-06
3.1511693949e-06
3.15266142536e-06
3.15388215445e-06
3.15478208993e-06
3.15533303503e-06
3.15551862185e-06
3.15533302664e-06
3.15478202906e-06
3.15388196801e-06
3.15266099409e-06
3.15116864356e-06
3.14941466974e-06
3.14704477826e-06
3.15024747213e-06
3.15280900854e-06
3.15468959732e-06
3.1562737811e-06
3.15756174914e-06
3.15850685773e-06
3.15908346534e-06
3.15927735879e-06
3.1590834948e-06
3.15850687704e-06
3.15756165987e-06
3.1562734464e-06
3.1546889106e-06
3.15280808571e-06
3.15024479638e-06
3.15348508063e-06
3.15620790774e-06
3.15815771397e-06
3.15979060101e-06
3.16110815157e-06
3.16207000608e-06
3.16265481071e-06
3.16285109641e-06
3.16265490828e-06
3.1620701512e-06
3.16110823996e-06
3.15979044726e-06
3.15815718588e-06
3.15620699044e-06
3.15348242946e-06
3.15719058058e-06
3.15967207059e-06
3.16156742064e-06
3.16316646635e-06
3.16444430388e-06
3.16537231606e-06
3.16593476485e-06
3.16612325756e-06
3.16593491405e-06
3.1653725753e-06
3.16444455372e-06
3.1631665019e-06
3.16156698967e-06
3.15967102078e-06
3.15718805098e-06
3.49446398872e-06
3.49438845824e-06
3.49431853423e-06
3.49424368439e-06
3.49417742292e-06
3.49412479094e-06
3.49409099907e-06
3.4940792075e-06
3.49409085456e-06
3.49412455266e-06
3.49417719325e-06
3.49424353713e-06
3.49431802539e-06
3.49438795877e-06
3.4944630492e-06
3.49454373135e-06
3.49447380202e-06
3.49440701564e-06
3.49433454839e-06
3.49426988835e-06
3.49421829284e-06
3.49418504535e-06
3.49417339234e-06
3.49418484354e-06
3.49421793678e-06
3.49426948343e-06
3.4943341675e-06
3.49440632038e-06
3.49447303231e-06
3.49454256484e-06
3.49473187061e-06
3.49467289922e-06
3.49461641354e-06
3.49455173955e-06
3.49449313812e-06
3.49444582078e-06
3.49441513352e-06
3.49440432965e-06
3.49441493111e-06
3.49444545516e-06
3.49449269543e-06
3.49455128108e-06
3.49461568883e-06
3.49467207746e-06
3.49473061706e-06
3.49487775294e-06
3.49482270625e-06
3.49477186566e-06
3.49471082019e-06
3.49465490958e-06
3.494609392e-06
3.49457975587e-06
3.49456930592e-06
3.49457956776e-06
3.49460904397e-06
3.49465445946e-06
3.49471031863e-06
3.49477113341e-06
3.49482190618e-06
3.49487639443e-06
3.49496576829e-06
3.49490889752e-06
3.49485952895e-06
3.49479867295e-06
3.49474283666e-06
3.49469729482e-06
3.49466761674e-06
3.49465715491e-06
3.49466743536e-06
3.49469695578e-06
3.49474238301e-06
3.4947981436e-06
3.49485877856e-06
3.49490811352e-06
3.494964305e-06
3.49501364097e-06
3.49495247218e-06
3.49490291591e-06
3.49484117199e-06
3.49478477403e-06
3.49473889237e-06
3.49470903637e-06
3.49469852729e-06
3.49470886165e-06
3.49473856134e-06
3.4947843161e-06
3.49484061728e-06
3.49490215334e-06
3.49495166761e-06
3.49501209537e-06
3.49503501359e-06
3.49496943183e-06
3.49491986881e-06
3.49485779673e-06
3.49480157313e-06
3.49475607523e-06
3.49472655306e-06
3.49471618205e-06
3.49472638284e-06
3.49475575061e-06
3.49480111442e-06
3.49485722455e-06
3.49491909773e-06
3.49496861065e-06
3.49503336568e-06
3.49504079923e-06
3.49497271859e-06
3.49492464003e-06
3.49486393753e-06
3.49480952297e-06
3.49476578473e-06
3.49473751004e-06
3.4947275978e-06
3.49473734286e-06
3.49476546341e-06
3.49480905879e-06
3.49486334122e-06
3.49492384708e-06
3.49497187028e-06
3.495039028e-06
3.49504154029e-06
3.4949744878e-06
3.49493024334e-06
3.49487326379e-06
3.49482276699e-06
3.49478248494e-06
3.49475655524e-06
3.49474748228e-06
3.49475639011e-06
3.49478216451e-06
3.4948222967e-06
3.49487264314e-06
3.49492941967e-06
3.49497359834e-06
3.49503964362e-06
3.49504701887e-06
3.49498549817e-06
3.49494774227e-06
3.49489693456e-06
3.49485245958e-06
3.49481728827e-06
3.49479476459e-06
3.49478689591e-06
3.49479459926e-06
3.49481696534e-06
3.49485197675e-06
3.49489628145e-06
3.49494687524e-06
3.49498454484e-06
3.49504498971e-06
3.49506541611e-06
3.49501419377e-06
3.49498529456e-06
3.49494267609e-06
3.49490593304e-06
3.49487722206e-06
3.49485896362e-06
3.49485259785e-06
3.49485879821e-06
3.49487689656e-06
3.49490543908e-06
3.49494199025e-06
3.49498438217e-06
3.49501316804e-06
3.49506324984e-06
3.49510211114e-06
3.49506566533e-06
3.4950473233e-06
3.49501423612e-06
3.49498643915e-06
3.4949651809e-06
3.49495184092e-06
3.49494719814e-06
3.49495167796e-06
3.49496485563e-06
3.49498593682e-06
3.49501352438e-06
3.49504636851e-06
3.49506457426e-06
3.49509983493e-06
3.49516166415e-06
3.49514359605e-06
3.49513609597e-06
3.4951126327e-06
3.49509427666e-06
3.49508103941e-06
3.49507299576e-06
3.49507022585e-06
3.49507283791e-06
3.49508072285e-06
3.49509378253e-06
3.49511191151e-06
3.4951351183e-06
3.49514245161e-06
3.49515930533e-06
3.49527051219e-06
3.49527089303e-06
3.4952638116e-06
3.49524402494e-06
3.49523154723e-06
3.49522391704e-06
3.49521973147e-06
3.49521831984e-06
3.49521958126e-06
3.49522362184e-06
3.49523107205e-06
3.4952433202e-06
3.4952628349e-06
3.49526970101e-06
3.49526814645e-06
3.49553524168e-06
3.49547231604e-06
3.49543536497e-06
3.49540299985e-06
3.49538528078e-06
3.49537518695e-06
3.4953698318e-06
3.49536809174e-06
3.49536967797e-06
3.4953748789e-06
3.49538479567e-06
3.49540226804e-06
3.49543431701e-06
3.49547096194e-06
3.49553293034e-06
2.87263309745e-06
2.87269637688e-06
2.87276516221e-06
2.87283330571e-06
2.87289352928e-06
2.87294049874e-06
2.87297043038e-06
2.8729809803e-06
2.8729711601e-06
2.87294189181e-06
2.87289541991e-06
2.87283536768e-06
2.87276720343e-06
2.87269812327e-06
2.8726349905e-06
2.87269653635e-06
2.87275889906e-06
2.87282824865e-06
2.87289703339e-06
2.87295816162e-06
2.87300598262e-06
2.87303653267e-06
2.87304732325e-06
2.87303727744e-06
2.87300740046e-06
2.87296007289e-06
2.87289909816e-06
2.87283020472e-06
2.87276057295e-06
2.87269819373e-06
2.87267961029e-06
2.87273536872e-06
2.87279940633e-06
2.87286366348e-06
2.87292141277e-06
2.87296684062e-06
2.8729959698e-06
2.8730062752e-06
2.87299666104e-06
2.87296815869e-06
2.87292319572e-06
2.87286562239e-06
2.87280125823e-06
2.87273704463e-06
2.87268116211e-06
2.87265340039e-06
2.87270387546e-06
2.87276339672e-06
2.87282347999e-06
2.87287797884e-06
2.8729210461e-06
2.87294874418e-06
2.87295854806e-06
2.8729493677e-06
2.87292223639e-06
2.87287959456e-06
2.87282528142e-06
2.87276512836e-06
2.8727054947e-06
2.87265485814e-06
2.87263403424e-06
2.8726806348e-06
2.87273687785e-06
2.87279350984e-06
2.8728451955e-06
2.87288617119e-06
2.87291257579e-06
2.87292192545e-06
2.87291314169e-06
2.87288725172e-06
2.87284667129e-06
2.87279517032e-06
2.87273851039e-06
2.87268218546e-06
2.87263539519e-06
2.87261639917e-06
2.87265955239e-06
2.87271310918e-06
2.87276644614e-06
2.87281533838e-06
2.87285416547e-06
2.87287922109e-06
2.8728880906e-06
2.87287972867e-06
2.87285513562e-06
2.87281666593e-06
2.87276795511e-06
2.87271461004e-06
2.87266104543e-06
2.87261760463e-06
2.87259713337e-06
2.87263710935e-06
2.87268831279e-06
2.87273842772e-06
2.87278449002e-06
2.87282109614e-06
2.87284473758e-06
2.87285310247e-06
2.87284519203e-06
2.87282196688e-06
2.872785685e-06
2.87273980079e-06
2.87268969008e-06
2.87263853838e-06
2.87259819851e-06
2.87257557389e-06
2.87261276817e-06
2.87266200209e-06
2.87270910843e-06
2.87275241817e-06
2.87278683202e-06
2.87280905773e-06
2.87281691617e-06
2.87280946098e-06
2.87278760537e-06
2.87275348475e-06
2.87271034619e-06
2.8726632688e-06
2.87261411984e-06
2.87257652676e-06
2.87255192957e-06
2.87258691768e-06
2.872634703e-06
2.87267915415e-06
2.87271993701e-06
2.87275231138e-06
2.8727732067e-06
2.87278058696e-06
2.87277356544e-06
2.87275300018e-06
2.87272089246e-06
2.87268027354e-06
2.87263587189e-06
2.87258819828e-06
2.87255275739e-06
2.87252680498e-06
2.87256051802e-06
2.8726074833e-06
2.87264975409e-06
2.87268835009e-06
2.87271892899e-06
2.87273864202e-06
2.87274559246e-06
2.87273896114e-06
2.87271954314e-06
2.87268920534e-06
2.87265076912e-06
2.87260856582e-06
2.87256173734e-06
2.87252751874e-06
2.8725013478e-06
2.87253508403e-06
2.87258186581e-06
2.87262245071e-06
2.87265922915e-06
2.87268830151e-06
2.87270700737e-06
2.87271359143e-06
2.87270729472e-06
2.87268885436e-06
2.87266000358e-06
2.87262337502e-06
2.8725828705e-06
2.87253623412e-06
2.8725019364e-06
2.87247665689e-06
2.87251211023e-06
2.87255932628e-06
2.87259871703e-06
2.87263410094e-06
2.87266199225e-06
2.87267990325e-06
2.87268618738e-06
2.87268016508e-06
2.87266249709e-06
2.87263480746e-06
2.87259956806e-06
2.87256026082e-06
2.87251318644e-06
2.87247711554e-06
2.8724534012e-06
2.87249252569e-06
2.87254077417e-06
2.8725795528e-06
2.8726141671e-06
2.87264140807e-06
2.87265883366e-06
2.87266493812e-06
2.87265907664e-06
2.87264187397e-06
2.87261482754e-06
2.872580343e-06
2.87254165e-06
2.87249352573e-06
2.87245373644e-06
2.87244122499e-06
2.87248550452e-06
2.8725316804e-06
2.87256848539e-06
2.8726017601e-06
2.87262796272e-06
2.87264469209e-06
2.87265051674e-06
2.87264491717e-06
2.87262840631e-06
2.87260237969e-06
2.87256923535e-06
2.87253250732e-06
2.87248642518e-06
2.8724414314e-06
2.87251638041e-06
2.87253369363e-06
2.87255839396e-06
2.87257993239e-06
2.87260190041e-06
2.87261979423e-06
2.87263134643e-06
2.87263540765e-06
2.87263155392e-06
2.87262019662e-06
2.87260247587e-06
2.87258062373e-06
2.87255914531e-06
2.87253450666e-06
2.87251660834e-06
2.93710028354e-06
2.93706084137e-06
2.93702089398e-06
2.93698036211e-06
2.93694495419e-06
2.93691741305e-06
2.93689987369e-06
2.93689382242e-06
2.93689993451e-06
2.93691761361e-06
2.93694544407e-06
2.93698108302e-06
2.93702154863e-06
2.93706172198e-06
2.93710086021e-06
2.93709223194e-06
2.93705439368e-06
2.93701480674e-06
2.93697442834e-06
2.93693892574e-06
2.93691117818e-06
2.93689345899e-06
2.93688732547e-06
2.936893498e-06
2.93691133196e-06
2.9369393368e-06
2.93697506543e-06
2.93701539276e-06
2.93705510623e-06
2.93709268072e-06
2.93713937198e-06
2.93710677239e-06
2.93707161908e-06
2.93703479358e-06
2.93700194588e-06
2.93697602242e-06
2.93695938591e-06
2.93695361213e-06
2.93695942836e-06
2.93697616849e-06
2.93700231357e-06
2.93703536898e-06
2.9370721973e-06
2.93710744517e-06
2.93713982342e-06
2.9371864157e-06
2.93715754175e-06
2.93712599901e-06
2.93709209014e-06
2.93706143607e-06
2.93703700905e-06
2.93702126618e-06
2.93701579518e-06
2.93702131836e-06
2.93703715791e-06
2.93706176758e-06
2.93709261429e-06
2.93712657024e-06
2.9371582304e-06
2.93718686054e-06
2.93722328693e-06
2.93719660382e-06
2.93716752358e-06
2.93713564092e-06
2.93710653569e-06
2.93708317796e-06
2.93706807003e-06
2.93706281416e-06
2.93706812873e-06
2.93708332994e-06
2.93710684886e-06
2.93713613445e-06
2.93716808666e-06
2.93719732175e-06
2.93722372076e-06
2.93725398057e-06
2.9372287354e-06
2.93720145364e-06
2.93717115346e-06
2.93714329839e-06
2.93712082747e-06
2.93710625641e-06
2.93710118451e-06
2.93710632199e-06
2.93712098492e-06
2.93714359829e-06
2.93717162291e-06
2.937202012e-06
2.9372294418e-06
2.93725442824e-06
2.93728097678e-06
2.93725664707e-06
2.93723079557e-06
2.9372018306e-06
2.9371750818e-06
2.93715343701e-06
2.93713937788e-06
2.93713448391e-06
2.93713944951e-06
2.93715360151e-06
2.93717537857e-06
2.93720228706e-06
2.93723135842e-06
2.93725735062e-06
2.93728141428e-06
2.93730527378e-06
2.93728155446e-06
2.93725691151e-06
2.93722913063e-06
2.93720342322e-06
2.9371825984e-06
2.93716906439e-06
2.93716435629e-06
2.93716914185e-06
2.93718276993e-06
2.93720371736e-06
2.93722957078e-06
2.93725746275e-06
2.93728224576e-06
2.93730566801e-06
2.93732774588e-06
2.93730455257e-06
2.93728101458e-06
2.93725436497e-06
2.93722971533e-06
2.93720976541e-06
2.9371968065e-06
2.93719230491e-06
2.93719688883e-06
2.93720994257e-06
2.93723000913e-06
2.93725479224e-06
2.93728154887e-06
2.93730522467e-06
2.93732809031e-06
2.93734937956e-06
2.93732682285e-06
2.93730437686e-06
2.93727887782e-06
2.9372553586e-06
2.93723638034e-06
2.93722407896e-06
2.93721981314e-06
2.93722416349e-06
2.93723656013e-06
2.93725564644e-06
2.9372792848e-06
2.9373048812e-06
2.93732745499e-06
2.93734966317e-06
2.93737112316e-06
2.93734943908e-06
2.93732812151e-06
2.93730382663e-06
2.93728154932e-06
2.93726368309e-06
2.93725214318e-06
2.93724815534e-06
2.93725222838e-06
2.93726386131e-06
2.93728183011e-06
2.93730421031e-06
2.9373285944e-06
2.93735002569e-06
2.93737133824e-06
2.93739383763e-06
2.93737330645e-06
2.93735310879e-06
2.93733004321e-06
2.93730915193e-06
2.93729256163e-06
2.93728192345e-06
2.93727825784e-06
2.93728200769e-06
2.93729273689e-06
2.93730941774e-06
2.93733040352e-06
2.93735354624e-06
2.93737385464e-06
2.93739399647e-06
2.93741917939e-06
2.93739970265e-06
2.9373802267e-06
2.93735822249e-06
2.93733876042e-06
2.93732360133e-06
2.93731396469e-06
2.93731068041e-06
2.937314047e-06
2.93732376438e-06
2.93733901654e-06
2.93735855096e-06
2.93738063209e-06
2.9374002095e-06
2.93741928354e-06
2.93745110436e-06
2.9374317365e-06
2.93741146541e-06
2.93738969592e-06
2.93737133418e-06
2.93735737106e-06
2.93734864635e-06
2.93734567787e-06
2.937348719e-06
2.93735752936e-06
2.93737156267e-06
2.9373900047e-06
2.93741183418e-06
2.93743220801e-06
2.93745116443e-06
2.93748600227e-06
2.93746427267e-06
2.93744205851e-06
2.93742105366e-06
2.93740436066e-06
2.93739199041e-06
2.93738433122e-06
2.93738175457e-06
2.93738439544e-06
2.93739211932e-06
2.93740456337e-06
2.93742131271e-06
2.93744237908e-06
2.93746468299e-06
2.93748609386e-06
2.54231922837e-06
2.54234689477e-06
2.54237606201e-06
2.54240554685e-06
2.54243173475e-06
2.54245233186e-06
2.54246556857e-06
2.54247033437e-06
2.54246614293e-06
2.54245342228e-06
2.54243321121e-06
2.54240721193e-06
2.54237777406e-06
2.54234838267e-06
2.54232091044e-06
2.54233844704e-06
2.5423653068e-06
2.542394449e-06
2.54242397321e-06
2.54245035199e-06
2.54247117575e-06
2.54248459833e-06
2.54248944725e-06
2.54248519869e-06
2.54247231313e-06
2.54245188255e-06
2.54242567943e-06
2.54239615082e-06
2.54236679616e-06
2.54233998689e-06
2.54232116593e-06
2.54234480276e-06
2.54237133636e-06
2.5423986694e-06
2.54242338748e-06
2.54244302488e-06
2.5424557331e-06
2.54246033151e-06
2.54245629334e-06
2.54244408839e-06
2.54242482586e-06
2.54240029901e-06
2.54237296974e-06
2.54234632395e-06
2.54232266588e-06
2.54230120432e-06
2.54232246197e-06
2.5423468116e-06
2.54237226313e-06
2.54239550602e-06
2.54241407915e-06
2.54242613829e-06
2.54243050137e-06
2.54242664754e-06
2.54241504848e-06
2.54239682396e-06
2.54237377523e-06
2.54234835736e-06
2.54232394881e-06
2.54230268524e-06
2.54228582535e-06
2.54230554365e-06
2.54232836314e-06
2.54235241594e-06
2.54237452342e-06
2.54239226648e-06
2.54240381126e-06
2.54240798699e-06
2.54240427662e-06
2.54239315373e-06
2.54237573976e-06
2.54235382763e-06
2.54232984513e-06
2.54230699176e-06
2.54228728181e-06
2.54227278718e-06
2.54229132169e-06
2.54231298972e-06
2.542335831e-06
2.54235692469e-06
2.542373901e-06
2.54238496552e-06
2.54238896341e-06
2.54238539024e-06
2.54237471265e-06
2.5423580425e-06
2.54233714007e-06
2.54231438122e-06
2.54229274167e-06
2.54227416737e-06
2.54226054675e-06
2.542278156e-06
2.54229885658e-06
2.54232059169e-06
2.54234072119e-06
2.54235694236e-06
2.54236752378e-06
2.54237134176e-06
2.54236791103e-06
2.54235768546e-06
2.5423417512e-06
2.54232181339e-06
2.54230017031e-06
2.54227954657e-06
2.54226186464e-06
2.54224860667e-06
2.54226549793e-06
2.54228535122e-06
2.54230605534e-06
2.54232523382e-06
2.54234068864e-06
2.54235076911e-06
2.54235440114e-06
2.54235112244e-06
2.54234136854e-06
2.54232618261e-06
2.54230719287e-06
2.54228659512e-06
2.54226684502e-06
2.54224988561e-06
2.54223667809e-06
2.54225294968e-06
2.54227205219e-06
2.54229176992e-06
2.54230999601e-06
2.54232466295e-06
2.54233421887e-06
2.54233765663e-06
2.54233454291e-06
2.5423252882e-06
2.54231087657e-06
2.54229283812e-06
2.54227324119e-06
2.54225426333e-06
2.54223790102e-06
2.54222444775e-06
2.54224020658e-06
2.54225863341e-06
2.54227738751e-06
2.54229464417e-06
2.54230848505e-06
2.54231748702e-06
2.54232071784e-06
2.54231778477e-06
2.54230906302e-06
2.5422954626e-06
2.54227839465e-06
2.54225977365e-06
2.54224149233e-06
2.54222562134e-06
2.54221176961e-06
2.5422271293e-06
2.5422449293e-06
2.54226272853e-06
2.54227897723e-06
2.54229195042e-06
2.54230035887e-06
2.54230337194e-06
2.54230063546e-06
2.54229248813e-06
2.54227974635e-06
2.54226368217e-06
2.5422460268e-06
2.54222838116e-06
2.54221287678e-06
2.54219852424e-06
2.54221368338e-06
2.54223093482e-06
2.54224778821e-06
2.54226300358e-06
2.54227505309e-06
2.54228283605e-06
2.54228561279e-06
2.54228309394e-06
2.54227555936e-06
2.54226372517e-06
2.54224869731e-06
2.54223198979e-06
2.54221489423e-06
2.54219955304e-06
2.54218430295e-06
2.54219968938e-06
2.54221660264e-06
2.54223262582e-06
2.54224683283e-06
2.54225799079e-06
2.54226512986e-06
2.54226768164e-06
2.54226537414e-06
2.54225846091e-06
2.54224752148e-06
2.54223348412e-06
2.54221761573e-06
2.54220084987e-06
2.54218524484e-06
2.54216996016e-06
2.5421861665e-06
2.54220256667e-06
2.54221765998e-06
2.54223083413e-06
2.54224102705e-06
2.54224752379e-06
2.54224981994e-06
2.5422477485e-06
2.54224147788e-06
2.54223147588e-06
2.54221848358e-06
2.54220352986e-06
2.5421872713e-06
2.54217077852e-06
2.54217300824e-06
2.54218393742e-06
2.54219611103e-06
2.54220732143e-06
2.54221712868e-06
2.54222473087e-06
2.54222955839e-06
2.54223128502e-06
2.54222977468e-06
2.54222515181e-06
2.54221774736e-06
2.54220810425e-06
2.54219704147e-06
2.54218500175e-06
2.54217382332e-06
2.45286746312e-06
2.45285039154e-06
2.45283309874e-06
2.45281550351e-06
2.45279987418e-06
2.45278760165e-06
2.4527798031e-06
2.45277711721e-06
2.45277981371e-06
2.45278762453e-06
2.452799913e-06
2.45281563645e-06
2.45283341263e-06
2.45285101391e-06
2.45286775257e-06
2.45286177079e-06
2.45284533558e-06
2.4528281411e-06
2.45281057914e-06
2.45279488258e-06
2.4527825107e-06
2.45277462188e-06
2.45277189464e-06
2.45277462152e-06
2.4527825115e-06
2.45279489598e-06
2.4528106848e-06
2.45282843512e-06
2.4528458892e-06
2.45286203607e-06
2.45287886143e-06
2.45286459213e-06
2.45284913956e-06
2.45283300424e-06
2.45281839563e-06
2.45280678965e-06
2.45279935067e-06
2.45279677118e-06
2.4527993532e-06
2.45280679907e-06
2.45281842721e-06
2.45283312754e-06
2.45284944877e-06
2.45286509808e-06
2.4528791424e-06
2.45289634799e-06
2.45288361423e-06
2.45286960145e-06
2.45285464133e-06
2.45284095792e-06
2.45283000884e-06
2.45282295677e-06
2.45282050688e-06
2.45282296653e-06
2.45283003697e-06
2.45284102558e-06
2.4528548083e-06
2.45286993633e-06
2.4528841278e-06
2.45289662703e-06
2.45291001664e-06
2.45289822305e-06
2.45288520835e-06
2.4528710923e-06
2.45285809055e-06
2.45284762959e-06
2.45284086742e-06
2.45283851602e-06
2.45284088583e-06
2.45284767705e-06
2.45285819065e-06
2.45287129866e-06
2.45288556533e-06
2.45289875961e-06
2.45291030706e-06
2.45292149763e-06
2.4529104027e-06
2.45289811941e-06
2.45288469931e-06
2.45287228227e-06
2.45286225502e-06
2.45285575588e-06
2.45285349585e-06
2.45285578466e-06
2.4528623247e-06
2.45287241875e-06
2.45288494911e-06
2.45289850648e-06
2.4529109359e-06
2.45292182743e-06
2.45293186097e-06
2.4529212728e-06
2.45290959267e-06
2.45289680142e-06
2.45288492873e-06
2.45287532049e-06
2.45286908253e-06
2.45286691545e-06
2.45286912177e-06
2.45287541149e-06
2.45288509646e-06
2.45289708531e-06
2.45291000887e-06
2.45292180672e-06
2.45293221053e-06
2.45294151693e-06
2.45293131285e-06
2.45292015989e-06
2.45290794854e-06
2.45289660444e-06
2.4528874202e-06
2.45288145457e-06
2.45287938557e-06
2.45288150428e-06
2.45288753197e-06
2.45289680039e-06
2.45290825828e-06
2.4529205891e-06
2.45293184126e-06
2.45294185395e-06
2.4529507606e-06
2.4529409016e-06
2.45293023032e-06
2.45291858134e-06
2.45290777203e-06
2.4528990287e-06
2.45289335284e-06
2.45289138814e-06
2.45289341107e-06
2.4528991561e-06
2.45290798686e-06
2.45291890494e-06
2.45293065898e-06
2.45294141512e-06
2.45295107984e-06
2.45295991131e-06
2.45295040143e-06
2.45294018261e-06
2.45292909333e-06
2.45291883409e-06
2.45291055909e-06
2.45290519597e-06
2.45290334512e-06
2.45290526043e-06
2.45291069699e-06
2.45291905971e-06
2.45292941748e-06
2.45294059539e-06
2.45295088149e-06
2.45296019794e-06
2.45296921629e-06
2.45296006968e-06
2.45295029083e-06
2.45293976759e-06
2.45293008605e-06
2.45292231259e-06
2.4529172903e-06
2.45291556262e-06
2.45291735701e-06
2.45292245442e-06
2.45293031141e-06
2.45294008111e-06
2.45295067954e-06
2.4529605108e-06
2.45296946398e-06
2.45297887091e-06
2.45297009312e-06
2.45296072818e-06
2.45295076371e-06
2.45294168365e-06
2.45293445055e-06
2.45292979862e-06
2.45292820522e-06
2.45292986484e-06
2.45293458693e-06
2.45294190034e-06
2.45295105612e-06
2.45296108331e-06
2.45297049833e-06
2.45297908569e-06
2.45298932251e-06
2.45298080068e-06
2.45297169777e-06
2.45296220316e-06
2.45295370277e-06
2.45294701062e-06
2.45294274492e-06
2.45294128949e-06
2.45294280445e-06
2.45294713906e-06
2.45295389924e-06
2.45296246761e-06
2.4529720169e-06
2.45298116674e-06
2.45298950346e-06
2.45300119631e-06
2.45299255902e-06
2.45298341353e-06
2.45297420526e-06
2.45296619222e-06
2.45296000292e-06
2.45295609519e-06
2.45295477087e-06
2.45295614665e-06
2.45296011228e-06
2.45296636429e-06
2.45297443239e-06
2.4529836899e-06
2.45299288257e-06
2.453001335e-06
2.45300849368e-06
2.45300049401e-06
2.45299222871e-06
2.45298438408e-06
2.45297776946e-06
2.4529727362e-06
2.45296958729e-06
2.45296852312e-06
2.4529696266e-06
2.45297282208e-06
2.45297790556e-06
2.45298456523e-06
2.45299245544e-06
2.45300077287e-06
2.45300861848e-06
2.17319639771e-06
2.1732061638e-06
2.17321664694e-06
2.1732275856e-06
2.17323743907e-06
2.17324524571e-06
2.17325025969e-06
2.17325206951e-06
2.1732505071e-06
2.17324574451e-06
2.17323819285e-06
2.17322852589e-06
2.17321765907e-06
2.17320696841e-06
2.17319716024e-06
2.17320143443e-06
2.17321078753e-06
2.17322123667e-06
2.17323216292e-06
2.17324207155e-06
2.17324995152e-06
2.17325502905e-06
2.17325687036e-06
2.17325529235e-06
2.17325048094e-06
2.17324286809e-06
2.17323315448e-06
2.17322229046e-06
2.17321165765e-06
2.17320212689e-06
2.17319386889e-06
2.173202072e-06
2.17321162786e-06
2.1732217741e-06
2.17323108943e-06
2.17323854355e-06
2.17324337232e-06
2.17324512926e-06
2.17324362712e-06
2.17323905444e-06
2.17323185175e-06
2.17322273049e-06
2.17321264629e-06
2.17320298307e-06
2.17319456833e-06
2.17318582177e-06
2.17319325393e-06
2.17320207688e-06
2.17321159582e-06
2.17322040887e-06
2.1732274984e-06
2.17323211093e-06
2.17323379185e-06
2.17323235239e-06
2.17322798121e-06
2.17322112539e-06
2.17321250267e-06
2.17320306783e-06
2.1731941782e-06
2.17318657348e-06
2.17317972905e-06
2.17318670625e-06
2.17319503714e-06