/*--------------------------------*- C++ -*----------------------------------*\
  =========                 |
  \\      /  F ield         | OpenFOAM: The Open Source CFD Toolbox
   \\    /   O peration     | Website:  https://openfoam.org
    \\  /    A nd           | Version:  7
     \\/     M anipulation  |
\*---------------------------------------------------------------------------*/
FoamFile
{
    version     2.0;
    format      ascii;
    class       surfaceScalarField;
    location    "0.18";
    object      phi;
}
// * * * * * * * * * * * * * * * * * * * * * * * * * * * * * * * * * * * * * //

dimensions      [0 3 -1 0 0 0 0];

internalField   nonuniform List<scalar> 
65775
(
7.58435682966e-12
1.6662231456e-09
2.01407971102e-10
2.64176620624e-14
1.13536816468e-11
1.74600439163e-09
2.22586022999e-10
1.34160022842e-11
1.81511818166e-09
2.42527708057e-10
1.31132434345e-11
1.87485162156e-09
2.60359928405e-10
1.09192091018e-11
1.92256533804e-09
2.75229232438e-10
7.21297101314e-12
1.95751752418e-09
2.86427693756e-10
2.55413201565e-12
1.97947895047e-09
2.93491690424e-10
-2.44458464378e-12
1.9877665984e-09
2.96032904308e-10
-7.10643886266e-12
1.97946622079e-09
2.93491718137e-10
-1.08183361235e-11
1.95749277276e-09
2.86427799121e-10
-1.30210075707e-11
1.92252885605e-09
2.75229508243e-10
-1.33345488109e-11
1.87480591025e-09
2.60360571612e-10
-1.12852320416e-11
1.81506559647e-09
2.42529245744e-10
-7.52534258382e-12
1.74595445229e-09
2.22590438992e-10
1.66619877923e-09
2.01422206563e-10
6.44992523897e-14
2.14320884416e-11
2.90783905084e-09
5.23459347397e-10
6.43319973153e-14
3.55522670838e-11
3.03831993852e-09
5.76892938456e-10
4.19459771664e-11
3.15204944761e-09
6.26808537681e-10
4.12958654911e-11
3.2490573401e-09
6.7115672289e-10
3.44371642348e-11
3.32630029856e-09
7.07940507371e-10
2.27621895315e-11
3.38263133083e-09
7.35535513841e-10
8.03299292618e-12
3.41798880625e-09
7.52898501457e-10
-7.73454916512e-12
3.43136540104e-09
7.59135078918e-10
-2.24717919575e-11
3.41796030277e-09
7.52898615814e-10
-3.41623253485e-11
3.38257557638e-09
7.35535871484e-10
-4.10440948892e-11
3.32621841339e-09
7.07941358859e-10
-4.172381979e-11
3.24895337311e-09
6.71158612433e-10
-3.53639028561e-11
3.1519293304e-09
6.26812955361e-10
-2.12763461627e-11
3.03820284227e-09
5.76905379936e-10
2.90777129315e-09
5.23495165669e-10
1.69396493518e-13
3.44092998915e-11
3.79440725007e-09
7.76794820334e-10
8.72441783145e-14
5.75892946579e-11
3.95380892276e-09
8.55575823936e-10
6.77069473753e-11
4.09368286992e-09
9.28751402164e-10
6.65332638884e-11
4.21121896377e-09
9.93474965371e-10
5.53826859007e-11
4.30447352015e-09
1.04696450182e-09
3.65544898144e-11
4.37214705226e-09
1.0869834807e-09
1.28781151301e-11
4.41456962686e-09
1.1121101126e-09
-1.24279011575e-11
4.43066283564e-09
1.12111446784e-09
-3.6116010406e-11
4.414531343e-09
1.11211022082e-09
-5.49671068923e-11
4.37207206553e-09
1.0869838854e-09
-6.61513121097e-11
4.30436345855e-09
1.04696556132e-09
-6.73683004176e-11
4.2110781786e-09
9.93477461304e-10
-5.72998172342e-11
4.09351915603e-09
9.28757429379e-10
-3.41714925257e-11
3.95364738031e-09
8.55592951393e-10
3.79430733829e-09
7.76843669177e-10
2.54289919517e-13
4.67720860852e-11
4.38210122676e-09
9.7458030132e-10
1.0249352484e-13
7.78008241036e-11
4.55434937814e-09
1.07359048982e-09
9.12605381306e-11
4.70602379633e-09
1.16506986974e-09
8.94313740644e-11
4.83161489444e-09
1.24564478729e-09
7.42990199209e-11
4.93075301495e-09
1.3120097367e-09
4.8966298804e-11
5.00231241947e-09
1.36153457561e-09
1.7227394848e-11
5.0470956204e-09
1.39256273025e-09
-1.66522169612e-11
5.06413509702e-09
1.40365301327e-09
-4.84057659804e-11
5.04705360362e-09
1.3925625613e-09
-7.3767204548e-11
5.00222985698e-09
1.36153446742e-09
-8.89415317778e-11
4.93063178757e-09
1.31201010953e-09
-9.08243712984e-11
4.83145904659e-09
1.24564653826e-09
-7.74259377557e-11
4.70584060543e-09
1.16507531944e-09
-4.64629305863e-11
4.55416682183e-09
1.07360798342e-09
4.38198193443e-09
9.74632545276e-10
3.27136413113e-13
5.82110047594e-11
4.72051970861e-09
1.12369494215e-09
1.11811393048e-13
9.62190226296e-11
4.89374439512e-09
1.23867188395e-09
1.12677627785e-10
5.0464591725e-09
1.34434539409e-09
1.10167736922e-10
5.17105557304e-09
1.43703034704e-09
9.13762979981e-11
5.26876104006e-09
1.51311056248e-09
6.01442860201e-11
5.33887037321e-09
1.56973760057e-09
2.11366918068e-11
5.3826537556e-09
1.60513463598e-09
-2.04583023845e-11
5.39936560473e-09
1.61774968951e-09
-5.94827949266e-11
5.38261313795e-09
1.60513407158e-09
-9.07479536087e-11
5.3387904846e-09
1.56973664365e-09
-1.09587696609e-10
5.26864347334e-09
1.5131096207e-09
-1.12158901073e-10
5.17090363452e-09
1.43703027588e-09
-9.57703905606e-11
5.0462781855e-09
1.34434838496e-09
-5.78379480453e-11
4.89356318841e-09
1.23868631747e-09
4.72039845041e-09
1.12374387396e-09
3.91514047407e-13
6.869003002e-11
4.85356037312e-09
1.22987645657e-09
1.16659122523e-13
1.12919642184e-10
5.01927706152e-09
1.35722891616e-09
1.32031274102e-10
5.16530177435e-09
1.47365374668e-09
1.28840330959e-10
5.28263169685e-09
1.57532615898e-09
1.06711078026e-10
5.37389555461e-09
1.65849250998e-09
7.01611103094e-11
5.43895406494e-09
1.72022666828e-09
2.46346117531e-11
5.47947914887e-09
1.75872209914e-09
-2.38694822735e-11
5.49499849181e-09
1.77239657305e-09
-6.94145307101e-11
5.47944472492e-09
1.75872101933e-09
-1.06000923714e-10
5.43888618288e-09
1.72022463998e-09
-1.2818305446e-10
5.37379530466e-09
1.65848985403e-09
-1.31440739298e-10
5.2825010372e-09
1.5753235347e-09
-1.12405008788e-10
5.16514370622e-09
1.4736529514e-09
-6.82575651257e-11
5.01911777073e-09
1.35723804962e-09
4.85345514497e-09
1.22991849791e-09
4.49498610429e-13
7.82632759629e-11
4.82008671595e-09
1.29810371297e-09
1.18252503429e-13
1.28025987002e-10
4.97261498862e-09
1.43480672713e-09
1.49454088943e-10
5.10674606654e-09
1.55910584986e-09
1.45592279945e-10
5.21278416063e-09
1.66717174488e-09
1.20432644207e-10
5.29447339333e-09
1.75525086708e-09
7.91083226351e-11
5.35228705539e-09
1.82044895199e-09
2.77556903307e-11
5.38819043927e-09
1.86099834494e-09
-2.69153634553e-11
5.40198568694e-09
1.87534936326e-09
-7.82877135309e-11
5.38816608632e-09
1.86099681525e-09
-1.19650729656e-10
5.35223887766e-09
1.82044595168e-09
-1.44866373418e-10
5.29440176404e-09
1.75524654749e-09
-1.48798462827e-10
5.21268933904e-09
1.66716643525e-09
-1.27450000826e-10
5.10662822626e-09
1.559100789e-09
-7.77736611556e-11
4.9724968036e-09
1.43480970131e-09
4.82001545187e-09
1.29813752838e-09
5.03358516823e-13
8.6963021739e-11
4.65448722039e-09
1.33281895067e-09
1.17279269326e-13
1.41638956219e-10
4.79041811983e-09
1.47634592202e-09
1.65084446651e-10
4.90950705028e-09
1.6061432562e-09
1.60583912468e-10
5.00201956276e-09
1.7184797231e-09
1.32689771499e-10
5.07250262189e-09
1.8097062453e-09
8.7091362445e-11
5.12199995649e-09
1.87704103506e-09
3.05391938694e-11
5.15263303549e-09
1.91880321981e-09
-2.96307777146e-11
5.1644398215e-09
1.93352194096e-09
-8.62034159761e-11
5.15262177946e-09
1.91880145173e-09
-1.31841926071e-10
5.12197757927e-09
1.87703745384e-09
-1.59794020953e-10
5.07246857456e-09
1.8097007659e-09
-1.64366957247e-10
5.00197239105e-09
1.71847224554e-09
-1.41003337896e-10
4.9094438789e-09
1.60613438342e-09
-8.64168481897e-11
4.79035734904e-09
1.47634323605e-09
4.65446665881e-09
1.33284495988e-09
5.5458327996e-13
9.48091335407e-11
4.3871006921e-09
1.33805130947e-09
1.14464568761e-13
1.53850455707e-10
4.50479859931e-09
1.48632205659e-09
1.79075009291e-10
4.60731241226e-09
1.61969249969e-09
1.73999821738e-10
4.68546015535e-09
1.73460250005e-09
1.43655055233e-10
4.74428094042e-09
1.82758067357e-09
9.42316816953e-11
4.78526592553e-09
1.8960114272e-09
3.30297929382e-11
4.81053602664e-09
1.93832946761e-09
-3.20563761455e-11
4.8202987773e-09
1.95317403712e-09
-9.32791158664e-11
4.81053989648e-09
1.93832782408e-09
-1.42743324045e-10
4.78527344057e-09
1.89600797008e-09
-1.73147027309e-10
4.74429076322e-09
1.82757503623e-09
-1.78295811625e-10
4.6854690408e-09
1.73459409006e-09
-1.53154567038e-10
4.60731479377e-09
1.61968126247e-09
-9.42055587796e-11
4.50480827543e-09
1.4863155135e-09
4.38714542039e-09
1.33807138859e-09
6.04576293561e-13
1.01823147521e-10
4.04456709307e-09
1.31747812891e-09
1.10313639746e-13
1.64767897218e-10
4.14370645506e-09
1.46881129158e-09
1.91618073244e-10
4.22932369363e-09
1.60423512238e-09
1.86069848534e-10
4.29332557713e-09
1.7204050787e-09
1.5353813382e-10
4.3409292491e-09
1.81407155817e-09
1.00673185061e-10
4.37386933964e-09
1.88281469744e-09
3.52794351764e-11
4.39410104829e-09
1.92519676138e-09
-3.42405455622e-11
4.40192133094e-09
1.9399852685e-09
-9.96552452619e-11
4.39412097537e-09
1.92519575999e-09
-1.52561236849e-10
4.37390873076e-09
1.88281239495e-09
-1.85152273789e-10
4.34098619797e-09
1.81406728847e-09
-1.90774770482e-10
4.2933955111e-09
1.72039772368e-09
-1.6400926804e-10
4.22939867792e-09
1.60422396389e-09
-1.01160105111e-10
4.14379599372e-09
1.46880389306e-09
4.04468849517e-09
1.3174953913e-09
6.54534028927e-13
1.08027141757e-10
3.65015450488e-09
1.27444846137e-09
1.05331222527e-13
1.74538716367e-10
3.7312653586e-09
1.42751422532e-09
2.02977553871e-10
3.8005237517e-09
1.56383282697e-09
1.97090518602e-10
3.8514005583e-09
1.68028963178e-09
1.62593470393e-10
3.88891477371e-09
1.77387422024e-09
1.06583122653e-10
3.91476087682e-09
1.84237178605e-09
3.73468370445e-11
3.9305726222e-09
1.88447045132e-09
-3.62390623009e-11
3.93666307862e-09
1.89907335873e-09
-1.05496220303e-10
3.93060842498e-09
1.88447075373e-09
-1.61547528233e-10
3.91483201654e-09
1.84237197876e-09
-1.9610400202e-10
3.88901913649e-09
1.77387335445e-09
-2.02066024615e-10
3.85153284864e-09
1.68028605338e-09
-1.7371370951e-10
3.80067450216e-09
1.56382511624e-09
-1.07301830856e-10
3.73144014962e-09
1.4275099815e-09
3.6503599065e-09
1.27446704433e-09
7.05543200643e-13
1.13444422936e-10
3.22408345469e-09
1.21198506702e-09
9.95254925191e-14
1.83416415429e-10
3.28803840886e-09
1.36576128045e-09
2.1355068416e-10
3.3421010418e-09
1.50213610225e-09
2.07447167425e-10
3.38153511943e-09
1.6182026351e-09
1.711158867e-10
3.41059840753e-09
1.71118563435e-09
1.12141091727e-10
3.4306178196e-09
1.77907069291e-09
3.92926590182e-11
3.44280459367e-09
1.8206603325e-09
-3.81105127198e-11
3.44744418979e-09
1.83499226992e-09
-1.10979694949e-10
3.4428551606e-09
1.82066270527e-09
-1.69995402277e-10
3.43071849447e-09
1.77907496045e-09
-2.06386386551e-10
3.41074751992e-09
1.711190631e-09
-2.12566149948e-10
3.38172752397e-09
1.6182061902e-09
-1.82521316573e-10
3.34232684373e-09
1.50213596808e-09
-1.12654348716e-10
3.28829970145e-09
1.36576484477e-09
3.2243759638e-09
1.21200974121e-09
7.58461251168e-13
1.18250930712e-10
2.7837119518e-09
1.13277572685e-09
9.30185181359e-14
1.91995886068e-10
2.83119976936e-09
1.28652222035e-09
2.23963863559e-10
2.87195743252e-09
1.42240001861e-09
2.17593913434e-10
2.90224965072e-09
1.53764573146e-09
1.79383967134e-10
2.92481239792e-09
1.62970959349e-09
1.17494335378e-10
2.94039330926e-09
1.69676786685e-09
4.11628052653e-11
2.94979773667e-09
1.73772002039e-09
-3.98998566344e-11
2.95328805645e-09
1.7517309536e-09
-1.16252318526e-10
2.94986107296e-09
1.73772524277e-09
-1.78183171875e-10
2.94051990253e-09
1.69677784968e-09
-2.16453830694e-10
2.92500120018e-09
1.62972309711e-09
-2.22902368111e-10
2.90249678666e-09
1.53766017404e-09
-1.91028342833e-10
2.87225392253e-09
1.42241209123e-09
-1.17395483942e-10
2.83154532388e-09
1.28653830173e-09
2.78409108149e-09
1.13281075632e-09
8.09991766878e-13
1.23382733111e-10
2.34312022187e-09
1.03916314912e-09
8.53828953445e-14
2.01445022121e-10
2.375031751e-09
1.19245701194e-09
2.34872216943e-10
2.40560268101e-09
1.32752913039e-09
2.27748318531e-10
2.42941929669e-09
1.44170234687e-09
1.87423596777e-10
2.44735354321e-09
1.5326738882e-09
1.2262126645e-10
2.4597488232e-09
1.59880114968e-09
4.29459625237e-11
2.46713588338e-09
1.63905803231e-09
-4.159642002e-11
2.46975972703e-09
1.65272388951e-09
-1.21293311895e-10
2.46720986002e-09
1.63906671689e-09
-1.86138242153e-10
2.45989682429e-09
1.59881818272e-09
-2.26525968732e-10
2.44757526144e-09
1.53269820331e-09
-2.3373241471e-10
2.4297126605e-09
1.44173130303e-09
-2.0040499472e-10
2.40596151161e-09
1.32755827033e-09
-1.22463594834e-10
2.37545604351e-09
1.19248996523e-09
2.34357885607e-09
1.03921092913e-09
8.61922958123e-13
1.31316427559e-10
9.33328614671e-10
7.75360811978e-14
1.91172872686e-09
2.13109138521e-10
1.08623799489e-09
1.93227637176e-09
2.46476915516e-10
1.22023735049e-09
1.95697789165e-09
2.37760075553e-10
1.33312846735e-09
1.97651392204e-09
1.95095236206e-10
1.42288224119e-09
1.99120360556e-09
1.27453598877e-10
1.48801548867e-09
2.00143140592e-09
4.4622348423e-11
1.52754731936e-09
2.00747924118e-09
-4.31826545257e-11
1.54085505431e-09
2.00950531446e-09
-1.26037281751e-10
1.52755948532e-09
2.00756234288e-09
-1.93724878387e-10
1.48803968398e-09
2.00159773319e-09
-2.36457553064e-10
1.42291782451e-09
1.99145297556e-09
-2.45263145925e-10
1.33317341314e-09
1.97684561839e-09
-2.12004062956e-10
1.22028647326e-09
1.95738952978e-09
-1.30342508173e-10
1.08629407177e-09
1.9327685779e-09
9.33383885563e-10
9.09913068841e-13
1.91226046721e-09
-2.23957311973e-12
7.36032179535e-11
1.30065239219e-10
8.55188420167e-15
-3.14165035824e-12
8.06638847775e-11
1.4287235095e-10
-3.4088725671e-12
8.81117412305e-11
1.54730680618e-10
-3.21380121656e-12
9.49841786097e-11
1.65223331239e-10
-2.61465617284e-12
1.00759593258e-10
1.73901718605e-10
-1.69757044839e-12
1.05134203587e-10
1.80400172694e-10
-5.71931874359e-13
1.07898872438e-10
1.84488692293e-10
6.27203579072e-13
1.08890769366e-10
1.85964358644e-10
1.75359627571e-12
1.07896863115e-10
1.84489727152e-10
2.67177385535e-12
1.05128384714e-10
1.80402260129e-10
3.2703915882e-12
1.00746491463e-10
1.73904910609e-10
3.46086848646e-12
9.49624043035e-11
1.65227800335e-10
3.18605396331e-12
8.80866962608e-11
1.54736969671e-10
2.27417649048e-12
8.06390196607e-11
1.42882274228e-10
7.35972954314e-11
1.30084545217e-10
3.25841174216e-14
-4.0984943809e-12
2.20823899661e-10
3.80370159128e-10
2.20027861485e-14
-5.98568328169e-12
2.40544752804e-10
4.18973836536e-10
-6.56195564749e-12
2.60778718579e-10
4.54793571032e-10
-6.18474460733e-12
2.79315954321e-10
4.86512229907e-10
-5.01761818991e-12
2.9481774179e-10
5.12763767525e-10
-3.24033878686e-12
3.06499909262e-10
5.32431514566e-10
-1.06841528605e-12
3.13863131978e-10
5.44798151307e-10
1.24465113082e-12
3.16506009334e-10
5.49242023566e-10
3.41720243292e-12
3.13856696826e-10
5.44801099631e-10
5.1944502446e-12
3.06483726995e-10
5.32437467416e-10
6.35683340104e-12
2.94785904284e-10
5.12772898422e-10
6.7196212881e-12
2.792656346e-10
4.86525053947e-10
6.12020532298e-12
2.60718943454e-10
4.5481161143e-10
4.20402653409e-12
2.40488443261e-10
4.19002164478e-10
2.20805428119e-10
3.80421573638e-10
9.74629303378e-14
-4.02059366972e-12
3.99049655417e-10
6.02609563548e-10
3.24462722365e-14
-5.94974663912e-12
4.3293330388e-10
6.65183663075e-10
-6.51843323004e-12
4.66966099576e-10
7.23201878242e-10
-6.1029964947e-12
4.97908059202e-10
7.7452538377e-10
-4.91262784767e-12
5.23670085698e-10
8.16966382852e-10
-3.13873491916e-12
5.43004477145e-10
8.48741625828e-10
-9.91176101383e-13
5.5516205226e-10
8.68697475587e-10
1.29382274639e-12
5.59524114297e-10
8.75844545926e-10
3.44037262824e-12
5.55151055865e-10
8.6870202355e-10
5.21040858748e-12
5.42978788956e-10
8.48750817322e-10
6.38917639963e-12
5.23623391449e-10
8.16980498142e-10
6.77963937532e-12
4.9783778474e-10
7.74545198571e-10
6.17300417696e-12
4.668827903e-10
7.23229561351e-10
4.19751783217e-12
4.32858442549e-10
6.652263339e-10
3.99025411467e-10
6.02684556053e-10
1.62456559875e-13
-2.45049255812e-12
5.82967507892e-10
7.93121762307e-10
4.1010970242e-14
-3.56630674381e-12
6.30440312124e-10
8.77260809619e-10
-3.80968834739e-12
6.77205480352e-10
9.55135843885e-10
-3.46545967275e-12
7.19348677489e-10
1.0239118197e-09
-2.70906036842e-12
7.54257974422e-10
1.08070679181e-09
-1.6641102206e-12
7.80347375683e-10
1.12318165336e-09
-4.36414509707e-13
7.96711367181e-10
1.1498181638e-09
8.66412023053e-13
8.02578757307e-10
1.1593270922e-09
2.09052214603e-12
7.96696488555e-10
1.14982390333e-09
3.12625265953e-12
7.80314397211e-10
1.12319325793e-09
3.86291236091e-12
7.54201557295e-10
1.0807246091e-09
4.1715187475e-12
7.1926744086e-10
1.02393675731e-09
3.87687144658e-12
6.7710987643e-10
9.55170338076e-10
2.69951644207e-12
6.30356716052e-10
8.77312894749e-10
5.82941365352e-10
7.93210852434e-10
2.28922705173e-13
3.13534474016e-13
7.54101025462e-10
9.52245442519e-10
4.81406489191e-14
7.06729767714e-13
8.13287222066e-10
1.05548742285e-09
1.08143397595e-12
8.70422227148e-10
1.15080834269e-09
1.27882012035e-12
9.21415064091e-10
1.23481295472e-09
1.22714899007e-12
9.63396874433e-10
1.30406107162e-09
9.43660466413e-13
9.94626082432e-10
1.35577498201e-09
5.11426447118e-13
1.01415826099e-09
1.38815037511e-09
4.39935819117e-14
1.02115538089e-09
1.3996700024e-09
-3.9487027468e-13
1.01414129559e-09
1.38815689364e-09
-6.93660611971e-13
9.94589629405e-10
1.35578823024e-09
-7.73644470654e-13
9.63337000334e-10
1.30408139954e-09
-6.22274269905e-13
9.21331511893e-10
1.23484123697e-09
-3.10652907541e-13
8.70325042253e-10
1.15084691853e-09
7.87114090369e-15
8.13203756766e-10
1.05554455268e-09
7.5407792765e-10
9.52341272549e-10
2.95894386328e-13
3.98246647777e-12
8.99636471211e-10
1.08034764793e-09
5.41567028723e-14
6.45538401147e-12
9.67901802893e-10
1.20019034973e-09
7.71243632508e-12
1.03236333121e-09
1.31050390321e-09
7.72228946049e-12
1.08930039957e-09
1.40747287996e-09
6.56874622128e-12
1.13583921282e-09
1.48723883296e-09
4.47253672312e-12
1.17027486336e-09
1.5467050494e-09
1.77829167725e-12
1.19174138272e-09
1.58386217856e-09
-1.10149517646e-12
1.19942204542e-09
1.59703760628e-09
-3.80558143084e-12
1.19172416961e-09
1.58386933811e-09
-5.92330768418e-12
1.17023873394e-09
1.54671956696e-09
-7.11360969368e-12
1.135781763e-09
1.48726095928e-09
-7.15944312497e-12
1.08922234681e-09
1.4075032723e-09
-5.97603782348e-12
1.0322737118e-09
1.31054449564e-09
-3.58877857721e-12
9.67827229328e-10
1.20024927855e-09
8.99620359929e-10
1.0804453861e-09
3.62335875802e-13
8.28419654327e-12
1.01145167199e-09
1.17798497513e-09
5.91119985849e-14
1.3293553218e-11
1.0858061284e-09
1.31193581415e-09
1.56611829559e-11
1.15433860004e-09
1.43480572772e-09
1.54730527998e-11
1.21420101672e-09
1.54249671015e-09
1.3001109076e-11
1.26272519426e-09
1.63086901598e-09
8.71937645142e-12
1.298411963e-09
1.69662238471e-09
3.29355233047e-12
1.32057232048e-09
1.73762031572e-09
-2.50095973645e-12
1.3284880372e-09
1.75210396707e-09
-7.93974531353e-12
1.32055693337e-09
1.73762809171e-09
-1.22488963323e-11
1.2983802694e-09
1.69663806584e-09
-1.47654697796e-11
1.26267600186e-09
1.63089265144e-09
-1.5017994428e-11
1.21413566862e-09
1.54252856277e-09
-1.27333000745e-11
1.15426445704e-09
1.43484709523e-09
-7.81912187617e-12
1.08574842008e-09
1.31199458451e-09
1.01144776662e-09
1.1780817626e-09
4.27877032003e-13
1.29798773668e-11
1.08528225672e-09
1.24598094225e-09
6.30220661027e-14
2.08708811171e-11
1.16267993518e-09
1.39161859371e-09
2.45349470446e-11
1.23215997801e-09
1.52469525388e-09
2.41615458133e-11
1.29212917467e-09
1.64095860385e-09
2.02260246976e-11
1.34028261841e-09
1.73611403677e-09
1.34914912713e-11
1.37545208238e-09
1.80676247375e-09
4.99041174368e-12
1.39719229992e-09
1.85070981824e-09
-4.0885029997e-12
1.4049402117e-09
1.86617318176e-09
-1.26053997379e-11
1.39718054855e-09
1.85071837848e-09
-1.93727044278e-11
1.37542833862e-09
1.80677960026e-09
-2.33598787702e-11
1.34024668664e-09
1.73613947182e-09
-2.38053727891e-11
1.2920827283e-09
1.64099205415e-09
-2.0232184149e-11
1.23210864117e-09
1.52473721169e-09
-1.24449277332e-11
1.16264631568e-09
1.39167668747e-09
1.08529769334e-09
1.24607567152e-09
4.91870660172e-13
1.78666097097e-11
1.11998993624e-09
1.28544288994e-09
6.61483599174e-14
2.88748057908e-11
1.19754980397e-09
1.44047646713e-09
3.39755183769e-11
1.26522140053e-09
1.58156291687e-09
3.34456949809e-11
1.32288391062e-09
1.70440751682e-09
2.79654833293e-11
1.36870084634e-09
1.80466963463e-09
1.86086500417e-11
1.40190532639e-09
1.87893999507e-09
6.80640225227e-12
1.42232341824e-09
1.92502429886e-09
-5.80221344475e-12
1.42957738509e-09
1.94116827135e-09
-1.76227762438e-11
1.42231691607e-09
1.92503401754e-09
-2.70170316921e-11
1.40189260694e-09
1.8789592663e-09
-3.25549433328e-11
1.36868246514e-09
1.8046977978e-09
-3.3163484393e-11
1.3228615461e-09
1.70444357977e-09
-2.81605285556e-11
1.26519905479e-09
1.58160643412e-09
-1.72635912587e-11
1.19754721762e-09
1.44053482485e-09
1.12003146154e-09
1.28553604765e-09
5.53754820916e-13
2.2778868766e-11
1.11691049548e-09
1.29773874958e-09
6.84473564695e-14
3.70347004543e-11
1.19207571144e-09
1.46005730731e-09
4.36652666493e-11
1.25568899855e-09
1.60716507065e-09
4.30172618423e-11
1.30915132816e-09
1.73481211435e-09
3.59664513949e-11
1.35115073571e-09
1.83869700251e-09
2.39057742859e-11
1.38133405099e-09
1.91546967124e-09
8.68416849671e-12
1.39978472306e-09
1.96297909352e-09
-7.5851357857e-12
1.40631157786e-09
1.97954154124e-09
-2.28271866725e-11
1.39978464595e-09
1.96299054149e-09
-3.49292165572e-11
1.38133459365e-09
1.91549219254e-09
-4.20428397033e-11
1.35115306154e-09
1.83872945837e-09
-4.27751495723e-11
1.30915716936e-09
1.73485269056e-09
-3.6248244955e-11
1.25570094157e-09
1.60721225777e-09
-2.21103532813e-11
1.19211061579e-09
1.46011823356e-09
1.11698584157e-09
1.29783225566e-09
6.13057149693e-13
2.75894096e-11
1.07927826723e-09
1.28444681738e-09
7.02220804297e-14
4.51268586552e-11
1.14991854998e-09
1.45215760625e-09
5.33352968913e-11
1.2077863756e-09
1.60355125149e-09
5.2610420193e-11
1.25571623504e-09
1.73447287133e-09
4.40071399327e-11
1.29293197652e-09
1.84071827937e-09
2.92364499257e-11
1.319450228e-09
1.91904738785e-09
1.05724397704e-11
1.33555664671e-09
1.96738276527e-09
-9.38655428159e-12
1.34122089794e-09
1.98414264302e-09
-2.80728157621e-11
1.33556382306e-09
1.96739666983e-09
-4.28881497945e-11
1.3194656451e-09
1.91907460051e-09
-5.155848357e-11
1.29295724473e-09
1.84075714413e-09
-5.2372349119e-11
1.25575321366e-09
1.73452065215e-09
-4.42726118563e-11
1.20783669941e-09
1.60360521658e-09
-2.68587945225e-11
1.14999657952e-09
1.45222451552e-09
1.07939427617e-09
1.28454377999e-09
6.6916085279e-13
3.22108905763e-11
1.01171585571e-09
1.24728822562e-09
7.13839496434e-14
5.29843482376e-11
1.07617595138e-09
1.41875071993e-09
6.27802746475e-11
1.12716260282e-09
1.57298471936e-09
6.20148157322e-11
1.16877954652e-09
1.70592514277e-09
5.19056460021e-11
1.2007464867e-09
1.81349990531e-09
3.44772071807e-11
1.22335096556e-09
1.89261726227e-09
1.24273499873e-11
1.23699156846e-09
1.94129370115e-09
-1.11634724054e-11
1.24175016426e-09
1.95807149092e-09
-3.32371393512e-11
1.23700664873e-09
1.9413108614e-09
-5.0713084302e-11
1.22338229122e-09
1.89265078737e-09
-6.08928809195e-11
1.20079623158e-09
1.81354764631e-09
-6.17512544041e-11
1.16884971559e-09
1.70598338928e-09
-5.20682225872e-11
1.12725452567e-09
1.57304927873e-09
-3.14232088281e-11
1.07630165648e-09
1.41882763147e-09
1.01187894593e-09
1.24739241905e-09
7.21403301248e-13
3.66332581022e-11
9.1975676912e-10
1.18805025989e-09
7.19323076901e-14
6.05526975772e-11
9.76864650859e-10
1.36193154979e-09
7.19071740211e-11
1.02034371871e-09
1.51788237617e-09
7.11087155632e-11
1.05538781285e-09
1.6518534521e-09
5.95390854606e-11
1.08210074748e-09
1.75994227458e-09
3.95373830789e-11
1.10089389346e-09
1.83924362618e-09
1.42151226799e-11
1.11216855539e-09
1.88788159039e-09
-1.28832962224e-11
1.11605951668e-09
1.90453616346e-09
-3.82309223303e-11
1.11219205754e-09
1.88790272798e-09
-5.8282695458e-11
1.10094227189e-09
1.83928497832e-09
-6.9926227933e-11
1.0821762226e-09
1.76000133049e-09
-7.08209018277e-11
1.05549292285e-09
1.6519256063e-09
-5.95828003073e-11
1.02047971659e-09
1.51796165468e-09
-3.57956442192e-11
9.77042242301e-10
1.36202231709e-09
9.1997309813e-10
1.18816469701e-09
7.66848857484e-13
4.09437119468e-11
8.09413593852e-10
1.10851030351e-09
7.17660998331e-14
6.7848841044e-11
8.58496781669e-10
1.28393492929e-09
8.06970033147e-11
8.94238950255e-10
1.44080101116e-09
7.98353171723e-11
9.22940509239e-10
1.57502697013e-09
6.68350650207e-11
9.4480503224e-10
1.68298517433e-09
4.43585224131e-11
9.60186794618e-10
1.76199975123e-09
1.5913529079e-11
9.69379239167e-10
1.8103071997e-09
-1.45252101831e-11
9.72506535648e-10
1.82672971805e-09
-4.29971113598e-11
9.69412069845e-10
1.81033271878e-09
-6.552652281e-11
9.60253539558e-10
1.76204985329e-09
-7.86038267231e-11
9.44907891159e-10
1.68305726731e-09
-7.95648817401e-11
9.23081969802e-10
1.57511596639e-09
-6.68353177662e-11
8.94421042724e-10
1.44089907298e-09
-4.00650990957e-11
8.58729682622e-10
1.28404274014e-09
8.09686374913e-10
1.1086355879e-09
8.06464211817e-13
4.27294697499e-11
1.01039462093e-09
7.16782610582e-14
6.89564646098e-10
7.35824966284e-11
1.18734952853e-09
7.26545882557e-10
8.84495959271e-11
1.34439763063e-09
7.5522548641e-10
8.78500796225e-11
1.47820162384e-09
7.78480480503e-10
7.36616046847e-11
1.58551077608e-09
7.96378794751e-10
4.8910196012e-11
1.66388340419e-09
8.09083937718e-10
1.75200920376e-11
1.71164797601e-09
8.16681764747e-10
-1.60878848148e-11
1.72775932101e-09
8.1922308378e-10
-4.75068510724e-11
1.7116774609e-09
8.16725245514e-10
-7.23144130421e-11
1.66394151096e-09
8.0917172606e-10
-8.65840189038e-11
1.58559515335e-09
7.96512300694e-10
-8.72863371246e-11
1.47830754651e-09
7.78661767211e-10
-7.25408183608e-11
1.34451598992e-09
7.5545675678e-10
-4.18228817052e-11
1.1874796339e-09
7.26836147561e-10
1.01052233198e-09
8.34470186924e-13
6.89899785114e-10
7.96587041084e-13
-5.3526951654e-12
1.34642867034e-10
2.83707040252e-15
1.19784553653e-12
-6.15871204529e-12
1.48656070828e-10
1.39123750599e-12
-7.15060480319e-12
1.61718297256e-10
1.36622855866e-12
-8.06661108632e-12
1.7333864049e-10
1.14819890439e-12
-8.84533914023e-12
1.8299108291e-10
7.70557223285e-13
-9.43785540366e-12
1.90242445747e-10
2.85675984737e-13
-9.81396641797e-12
1.94811957912e-10
-2.39247465034e-13
-9.94838136963e-12
1.96458580241e-10
-7.25949748105e-13
-9.8194011092e-12
1.94814017147e-10
-1.10679103009e-12
-9.44715820502e-12
1.90246559392e-10
-1.3280695755e-12
-8.85611080486e-12
1.82997262917e-10
-1.35527200163e-12
-8.07790033721e-12
1.73346988274e-10
-1.16760214144e-12
-7.16652132203e-12
1.61729187629e-10
-7.71650754888e-13
-6.17199726649e-12
1.48671019585e-10
-5.36241895245e-12
1.34666838517e-10
2.04456053259e-14
1.94576701045e-12
4.46035840384e-15
3.73099987931e-10
6.05710406689e-15
3.0934491744e-12
-2.41351678191e-13
4.11952820068e-10
3.63950909024e-12
-9.27997763608e-13
4.48069561571e-10
3.60123156199e-12
-1.57387171871e-12
4.80098215456e-10
3.0355573853e-12
-2.10952181915e-12
5.06635858093e-10
2.04167406596e-12
-2.50543553977e-12
5.26534926079e-10
7.62790276188e-13
-2.7521982488e-12
5.39053274905e-10
-6.20684918457e-13
-2.8407720239e-12
5.43550996144e-10
-1.90440687175e-12
-2.76478915454e-12
5.39059324753e-10
-2.90694020987e-12
-2.52794428543e-12
5.26546998997e-10
-3.48241529197e-12
-2.13752578114e-12
5.06653971872e-10
-3.53042696257e-12
-1.60476498381e-12
4.80122628326e-10
-2.99974859103e-12
-9.65430244815e-13
4.48101311376e-10
-1.86972325435e-12
-2.75767056572e-13
4.11996045433e-10
-1.98401382858e-14
3.73165538738e-10
6.2274809043e-14
2.80135730579e-12
1.95144827878e-11
5.80324656268e-10
8.38711573187e-15
4.59661239623e-12
2.15434113576e-11
6.41644044338e-10
5.46464361965e-12
2.29003019863e-11
6.98545096907e-10
5.4353753295e-12
2.4101837097e-11
7.48916367104e-10
4.59264381362e-12
2.5145315956e-11
7.90592916942e-10
3.09445129852e-12
2.59632779134e-11
8.21809462594e-10
1.16373214826e-12
2.64910986669e-11
8.41419858876e-10
-9.23817904764e-13
2.66785566646e-11
8.48443485222e-10
-2.86198416454e-12
2.64730660164e-11
8.41429541887e-10
-4.37374559681e-12
2.59304743884e-11
8.21828770617e-10
-5.23317765102e-12
2.51033152762e-11
7.90621836593e-10
-5.28122076949e-12
2.40546399194e-11
7.48955204346e-10
-4.43852504117e-12
2.28463746907e-11
6.98595225822e-10
-2.67306522078e-12
2.14928419689e-11
6.41711104798e-10
1.94802637955e-11
5.80423105079e-10
1.05590677603e-13
3.52188769175e-12
4.97855943688e-11
7.59350949402e-10
1.00155683892e-14
5.91647713037e-12
5.52931479235e-11
8.41151320202e-10
7.10860733304e-12
5.9952760116e-11
9.16926402722e-10
7.10957467357e-12
6.41466852856e-11
9.83900576405e-10
6.02490525781e-12
6.77276831512e-11
1.03924415181e-09
4.06713707778e-12
7.04812893135e-11
1.08065559255e-09
1.53694814928e-12
7.22368403316e-11
1.10663399363e-09
-1.1986394206e-12
7.28604910887e-11
1.11590880261e-09
-3.73861327671e-12
7.2215263609e-11
1.10664685082e-09
-5.71452788027e-12
7.04414243092e-11
1.08068120252e-09
-6.8229069994e-12
6.76752490719e-11
1.03928242135e-09
-6.85003429277e-12
6.40869204913e-11
9.83951719006e-10
-5.6933604728e-12
5.98872420515e-11
9.16991753472e-10
-3.33945966501e-12
5.52324181489e-11
8.4123698578e-10
4.97440163602e-11
7.5947279682e-10
1.50712605179e-13
4.22611220811e-12
8.72978873348e-11
9.10524868973e-10
1.13220102377e-14
7.22238557046e-12
9.69831419858e-11
1.01083027985e-09
8.75459578458e-12
1.05689179355e-10
1.1035706042e-09
8.79969428945e-12
1.13537118271e-10
1.18540785982e-09
7.47839149217e-12
1.20194858595e-10
1.25294614862e-09
5.05678514318e-12
1.25279014703e-10
1.30342923755e-09
1.91647899228e-12
1.28503774976e-10
1.3350519682e-09
-1.47950886747e-12
1.296471208e-10
1.34630495946e-09
-4.63183963353e-12
1.28480114817e-10
1.33506759928e-09
-7.07608246386e-12
1.25234957293e-10
1.30346032035e-09
-8.42807535571e-12
1.2013617347e-10
1.25299243351e-09
-8.42025830265e-12
1.13469858887e-10
1.18546929462e-09
-6.93356419589e-12
1.05617020035e-10
1.10364812409e-09
-3.98823208326e-12
9.69181510988e-11
1.01092983185e-09
8.72523026762e-11
9.10662580607e-10
1.97175324478e-13
5.01328473554e-12
1.28402923316e-10
1.03424160804e-09
1.23637276292e-14
8.6625270047e-12
1.42471682275e-10
1.15107801505e-09
1.05689075341e-11
1.55441084897e-10
1.25887208998e-09
1.06667436194e-11
1.67110809531e-10
1.3538281477e-09
9.08703954164e-12