/*--------------------------------*- C++ -*----------------------------------*\
  =========                 |
  \\      /  F ield         | OpenFOAM: The Open Source CFD Toolbox
   \\    /   O peration     | Website:  https://openfoam.org
    \\  /    A nd           | Version:  7
     \\/     M anipulation  |
\*---------------------------------------------------------------------------*/
FoamFile
{
    version     2.0;
    format      ascii;
    class       volScalarField;
    location    "1.64";
    object      p;
}
// * * * * * * * * * * * * * * * * * * * * * * * * * * * * * * * * * * * * * //

dimensions      [0 2 -2 0 0 0 0];

internalField   nonuniform List<scalar> 
22500
(
1.16919737793e-05
1.16908068756e-05
1.16901833683e-05
1.16894027672e-05
1.16887682336e-05
1.16882794177e-05
1.16879775585e-05
1.16878772489e-05
1.16879904896e-05
1.16883049739e-05
1.1688806013e-05
1.16894517641e-05
1.16902428338e-05
1.1690873482e-05
1.16920533771e-05
1.16800677754e-05
1.16783089862e-05
1.16771807385e-05
1.16759541166e-05
1.16749518378e-05
1.16741896037e-05
1.16737195707e-05
1.16735631018e-05
1.16737328348e-05
1.1674215834e-05
1.16749905833e-05
1.16760044386e-05
1.16772417212e-05
1.1678377382e-05
1.16801490423e-05
1.16688373486e-05
1.16665602867e-05
1.16650183336e-05
1.16634163592e-05
1.16621103382e-05
1.16611222107e-05
1.16605135264e-05
1.16603105476e-05
1.16605266878e-05
1.16611482407e-05
1.16621487562e-05
1.16634662724e-05
1.16650788301e-05
1.16666281425e-05
1.16689183432e-05
1.16589837077e-05
1.16562975532e-05
1.16544345636e-05
1.1652549495e-05
1.16510152614e-05
1.16498590761e-05
1.16491476098e-05
1.16489101816e-05
1.16491605281e-05
1.16498846275e-05
1.16510529383e-05
1.16525984051e-05
1.16544938503e-05
1.1656363962e-05
1.16590634713e-05
1.16499463597e-05
1.16469266361e-05
1.1644798619e-05
1.1642692631e-05
1.16409797924e-05
1.16396939247e-05
1.16389035457e-05
1.16386397819e-05
1.16389162209e-05
1.16397189863e-05
1.16410167178e-05
1.1642740511e-05
1.16448565834e-05
1.16469914414e-05
1.16500245764e-05
1.16415637159e-05
1.16382798816e-05
1.16359365305e-05
1.16336639952e-05
1.16318161563e-05
1.16304340894e-05
1.16295856085e-05
1.16293025467e-05
1.16295980386e-05
1.16304586633e-05
1.1631852327e-05
1.16337108462e-05
1.16359930927e-05
1.16383430988e-05
1.16416404752e-05
1.16338384754e-05
1.16303589357e-05
1.16278481723e-05
1.1625460069e-05
1.16235183815e-05
1.16220713769e-05
1.16211841864e-05
1.16208883793e-05
1.1621196396e-05
1.16220955043e-05
1.16235538612e-05
1.16255059717e-05
1.16279034206e-05
1.16304206407e-05
1.16339139855e-05
1.16267581901e-05
1.1623146155e-05
1.16205118707e-05
1.16180538416e-05
1.16160555013e-05
1.16145715045e-05
1.161366292e-05
1.16133602186e-05
1.16136749475e-05
1.16145952584e-05
1.16160904093e-05
1.16180989567e-05
1.16205659973e-05
1.16232066353e-05
1.16268327962e-05
1.16202899773e-05
1.16166015898e-05
1.16138835025e-05
1.16113959089e-05
1.16093742962e-05
1.16078780963e-05
1.16069634805e-05
1.16066590745e-05
1.1606975383e-05
1.16079015986e-05
1.16094088182e-05
1.16114405089e-05
1.1613936851e-05
1.16166613161e-05
1.16203642113e-05
1.16143944348e-05
1.16106779345e-05
1.16079128415e-05
1.16054320935e-05
1.16034178106e-05
1.16019319372e-05
1.1601025228e-05
1.16007238329e-05
1.16010370808e-05
1.16019553454e-05
1.16034522044e-05
1.16054765387e-05
1.16079659061e-05
1.16107375502e-05
1.16144690768e-05
1.1609026118e-05
1.16053213953e-05
1.16025454317e-05
1.16001058806e-05
1.15981280714e-05
1.15966737864e-05
1.15957881372e-05
1.15954941972e-05
1.15958000253e-05
1.15966972818e-05
1.15981626378e-05
1.1600150626e-05
1.16025988397e-05
1.16053817227e-05
1.16091022122e-05
1.16041219055e-05
1.16004670498e-05
1.1597721654e-05
1.15953583005e-05
1.15934458772e-05
1.1592044169e-05
1.15911925165e-05
1.15909104468e-05
1.15912045196e-05
1.15920679418e-05
1.15934809439e-05
1.15954038548e-05
1.1597776146e-05
1.16005290454e-05
1.16042006119e-05
1.15995721343e-05
1.15960354205e-05
1.15933796309e-05
1.15911301785e-05
1.15893126519e-05
1.15879851382e-05
1.15871810236e-05
1.15869153549e-05
1.15871932101e-05
1.15880093138e-05
1.15893484869e-05
1.15911770215e-05
1.15934359944e-05
1.15961000867e-05
1.15996544734e-05
1.15952806171e-05
1.15919642381e-05
1.15894510716e-05
1.15873521982e-05
1.1585659848e-05
1.15844310924e-05
1.15836901271e-05
1.15834463238e-05
1.1583702488e-05
1.15844557022e-05
1.15856965567e-05
1.15874006574e-05
1.15895100296e-05
1.15920328528e-05
1.1595366844e-05
1.15916942681e-05
1.15880979085e-05
1.15857731563e-05
1.15838434515e-05
1.15823095769e-05
1.15812102112e-05
1.15805524149e-05
1.15803371737e-05
1.15805650424e-05
1.15812354153e-05
1.15823474048e-05
1.1583894e-05
1.15858360463e-05
1.15881727888e-05
1.15917840505e-05
1.00992413464e-05
1.0099404215e-05
1.00994772922e-05
1.00995254879e-05
1.0099559659e-05
1.00995841465e-05
1.00995993236e-05
1.00996038178e-05
1.00995969706e-05
1.00995797745e-05
1.00995540527e-05
1.00995195873e-05
1.00994714763e-05
1.00993982759e-05
1.00992366949e-05
1.01000922647e-05
1.01002907824e-05
1.01004043598e-05
1.01004899857e-05
1.01005551045e-05
1.01006022762e-05
1.01006313231e-05
1.01006405894e-05
1.0100629171e-05
1.01005983153e-05
1.0100550105e-05
1.01004848982e-05
1.01003996683e-05
1.01002858208e-05
1.01000885834e-05
1.01009150886e-05
1.01011668447e-05
1.0101329932e-05
1.01014640634e-05
1.0101570967e-05
1.01016499999e-05
1.01016990487e-05
1.01017152179e-05
1.01016970811e-05
1.01016463708e-05
1.01015663432e-05
1.0101459271e-05
1.01013255728e-05
1.01011619788e-05
1.01009118555e-05
1.01018687592e-05
1.01022145619e-05
1.01024575649e-05
1.01026682752e-05
1.01028417954e-05
1.01029722398e-05
1.01030537997e-05
1.01030811613e-05
1.01030519907e-05
1.01029688852e-05
1.01028374476e-05
1.0102663623e-05
1.01024532751e-05
1.01022096259e-05
1.01018659169e-05
1.01030853454e-05
1.01035691415e-05
1.01039248525e-05
1.01042413642e-05
1.01045063632e-05
1.01047071835e-05
1.01048331336e-05
1.01048757175e-05
1.01048314523e-05
1.01047040558e-05
1.01045022531e-05
1.01042368647e-05
1.01039206054e-05
1.01035641403e-05
1.01030829173e-05
1.01045871475e-05
1.01052443387e-05
1.01057370311e-05
1.01061801435e-05
1.01065536155e-05
1.01068374217e-05
1.01070154955e-05
1.01070759036e-05
1.01070139298e-05
1.01068345029e-05
1.01065497373e-05
1.0106175815e-05
1.01057328622e-05
1.01052392454e-05
1.01045852604e-05
1.01063511468e-05
1.01072045625e-05
1.01078479161e-05
1.01084278553e-05
1.01089174512e-05
1.0109289506e-05
1.01095227344e-05
1.01096019401e-05
1.01095212587e-05
1.01092867504e-05
1.01089137641e-05
1.01084236827e-05
1.01078438377e-05
1.01071994097e-05
1.01063498193e-05
1.0108336919e-05
1.01093957468e-05
1.01101928942e-05
1.01109095571e-05
1.0111514051e-05
1.01119727534e-05
1.01122598283e-05
1.0112357322e-05
1.01122584234e-05
1.01119701304e-05
1.01115105226e-05
1.01109055298e-05
1.01101888839e-05
1.01093906034e-05
1.01083361103e-05
1.01104944611e-05
1.01117544667e-05
1.01126988783e-05
1.01135432387e-05
1.01142538569e-05
1.01147918522e-05
1.01151278443e-05
1.01152418764e-05
1.0115126478e-05
1.01147893067e-05
1.01142504281e-05
1.01135393239e-05
1.01126949287e-05
1.01117493757e-05
1.01104942588e-05
1.01127692574e-05
1.01142137527e-05
1.01152907936e-05
1.01162469212e-05
1.01170491834e-05
1.01176548343e-05
1.01180321368e-05
1.01181600467e-05
1.01180307787e-05
1.01176523111e-05
1.01170457929e-05
1.01162430657e-05
1.01152868765e-05
1.0114208751e-05
1.01127696657e-05
1.01151057542e-05
1.01167073595e-05
1.01178963283e-05
1.01189439746e-05
1.01198198954e-05
1.01204788842e-05
1.01208882125e-05
1.01210267532e-05
1.0120886821e-05
1.01204763052e-05
1.01198164495e-05
1.01189401052e-05
1.01178924092e-05
1.01167024835e-05
1.01151068659e-05
1.01174471607e-05
1.0119170589e-05
1.01204480295e-05
1.0121566037e-05
1.01224966359e-05
1.01231937228e-05
1.01236251238e-05
1.01237708323e-05
1.01236236441e-05
1.01231909924e-05
1.01224930046e-05
1.01215620236e-05
1.0120444016e-05
1.01191658424e-05
1.01174489418e-05
1.01197323651e-05
1.0121541892e-05
1.01228873968e-05
1.01240570067e-05
1.01250241558e-05
1.01257442358e-05
1.01261877756e-05
1.01263371244e-05
1.01261861478e-05
1.01257412062e-05
1.0125020153e-05
1.01240526274e-05
1.01228831167e-05
1.01215371554e-05
1.01197346158e-05
1.0121930525e-05
1.01238034358e-05
1.01251915195e-05
1.01263899463e-05
1.01273700708e-05
1.01280935078e-05
1.01285363885e-05
1.01286850021e-05
1.01285345481e-05
1.01280900783e-05
1.01273655045e-05
1.01263849878e-05
1.01251867539e-05
1.01237987312e-05
1.01219327874e-05
1.01242553688e-05
1.01260073113e-05
1.01273822495e-05
1.01285620267e-05
1.01295093402e-05
1.01302007412e-05
1.01306210639e-05
1.0130761511e-05
1.01306191391e-05
1.01301971075e-05
1.01295044777e-05
1.01285567388e-05
1.01273775018e-05
1.0126003417e-05
1.01242571437e-05
1.02107206336e-05
1.0210606726e-05
1.02104813594e-05
1.02103533971e-05
1.02102375225e-05
1.02101464285e-05
1.0210088237e-05
1.02100676332e-05
1.02100864083e-05
1.021014268e-05
1.02102316864e-05
1.02103454624e-05
1.02104726716e-05
1.02105966372e-05
1.02107106632e-05
1.02106158014e-05
1.02105021699e-05
1.02103758012e-05
1.02102464939e-05
1.02101293083e-05
1.02100369842e-05
1.02099779122e-05
1.0209957014e-05
1.02099762521e-05
1.02100335823e-05
1.02101239945e-05
1.02102392583e-05
1.02103677267e-05
1.02104929248e-05
1.02106066126e-05
1.02106364104e-05
1.02105308759e-05
1.02104121398e-05
1.02102888335e-05
1.02101763136e-05
1.02100871655e-05
1.02100298896e-05
1.021000957e-05
1.02100282662e-05
1.02100838592e-05
1.02101712057e-05
1.02102819399e-05
1.02104043273e-05
1.02105219691e-05
1.02106277189e-05
1.02106485474e-05
1.02105464357e-05
1.02104317939e-05
1.02103119226e-05
1.02102020714e-05
1.02101147147e-05
1.021005841e-05
1.02100383888e-05
1.02100567808e-05
1.0210111428e-05
1.0210197084e-05
1.02103052764e-05
1.02104241811e-05
1.02105376767e-05
1.02106404023e-05
1.02106252345e-05
1.0210522148e-05
1.02104082225e-05
1.02102894579e-05
1.02101805792e-05
1.02100939174e-05
1.02100380007e-05
1.02100181035e-05
1.02100363749e-05
1.02100906569e-05
1.02101756848e-05
1.0210283004e-05
1.02104008181e-05
1.02105135352e-05
1.02106176475e-05
1.02105797375e-05
1.0210473834e-05
1.0210359681e-05
1.02102416597e-05
1.02101338202e-05
1.02100481201e-05
1.02099928469e-05
1.02099731785e-05
1.02099912245e-05
1.02100448863e-05
1.02101290178e-05
1.02102353897e-05
1.02103524716e-05
1.02104654573e-05
1.02105726766e-05
1.02105233946e-05
1.02104147125e-05
1.0210300667e-05
1.02101842112e-05
1.02100784497e-05
1.02099946934e-05
1.0209940772e-05
1.0209921592e-05
1.0209939158e-05
1.02099914887e-05
1.02100737277e-05
1.02101781028e-05
1.02102936414e-05
1.02104065667e-05
1.02105169292e-05
1.02104636375e-05
1.0210353163e-05
1.02102402432e-05
1.02101267251e-05
1.02100245242e-05
1.0209944014e-05
1.0209892336e-05
1.02098739646e-05
1.02098907359e-05
1.02099408491e-05
1.02100198972e-05
1.02101207981e-05
1.02102334381e-05
1.02103452843e-05
1.02104578357e-05
1.02104064046e-05
1.021029556e-05
1.02101850826e-05
1.02100760182e-05
1.02099789196e-05
1.02099029686e-05
1.02098544229e-05
1.02098371777e-05
1.02098528431e-05
1.02098998562e-05
1.02099743966e-05
1.02100702801e-05
1.02101785252e-05
1.02102879944e-05
1.0210401288e-05
1.02103561719e-05
1.02102463695e-05
1.02101395811e-05
1.0210036307e-05
1.02099456636e-05
1.02098754184e-05
1.02098307667e-05
1.02098149217e-05
1.02098292198e-05
1.02098723791e-05
1.02099412749e-05
1.0210030791e-05
1.02101333124e-05
1.02102391874e-05
1.02103517638e-05
1.0210315601e-05
1.02102078415e-05
1.02101056545e-05
1.02100091636e-05
1.02099260028e-05
1.02098623152e-05
1.02098221289e-05
1.02098078811e-05
1.02098206251e-05
1.02098593675e-05
1.02099217661e-05
1.02100038899e-05
1.02100996933e-05
1.0210201079e-05
1.02103119162e-05
1.02102855222e-05
1.02101799116e-05
1.0210082744e-05
1.02099936727e-05
1.02099186916e-05
1.02098621656e-05
1.02098268138e-05
1.02098143098e-05
1.02098253618e-05
1.02098593295e-05
1.02099146331e-05
1.02099886548e-05
1.02100771046e-05
1.02101735688e-05
1.02102824949e-05
1.02102659824e-05
1.02101611538e-05
1.02100688312e-05
1.02099874211e-05
1.02099209798e-05
1.02098718579e-05
1.02098415236e-05
1.02098307871e-05
1.02098401378e-05
1.02098691509e-05
1.02099171058e-05
1.02099826643e-05
1.02100634986e-05
1.02101552248e-05
1.02102635652e-05
1.02102541516e-05
1.02101489409e-05
1.02100619221e-05
1.02099883761e-05
1.02099303938e-05
1.02098884166e-05
1.02098627425e-05
1.02098537094e-05
1.02098614529e-05
1.02098858752e-05
1.02099267691e-05
1.02099839125e-05
1.02100569145e-05
1.02101434363e-05
1.02102522153e-05
1.02102165749e-05
1.0210124098e-05
1.0210048912e-05
1.02099878425e-05
1.02099410227e-05
1.02099074482e-05
1.02098870309e-05
1.02098798281e-05
1.02098859399e-05
1.02099053019e-05
1.02099379248e-05
1.02099840265e-05
1.02100446516e-05
1.02101193908e-05
1.02102146931e-05
9.17852386501e-06
9.17859495058e-06
9.17867462058e-06
9.17875491161e-06
9.17882587922e-06
9.17888053333e-06
9.17891451031e-06
9.17892515236e-06
9.17891144845e-06
9.17887462598e-06
9.17881763347e-06
9.17874528299e-06
9.17866425842e-06
9.17858479322e-06
9.17851271758e-06
9.17853496031e-06
9.17860302757e-06
9.17868084777e-06
9.17876008553e-06
9.17883043989e-06
9.17888485993e-06
9.17891878366e-06
9.17892942359e-06
9.17891567476e-06
9.1788788732e-06
9.17882211776e-06
9.1787504156e-06
9.17867064779e-06
9.17859300047e-06
9.17852433418e-06
9.17844931149e-06
9.17850754078e-06
9.17857616729e-06
9.17864799506e-06
9.17871254109e-06
9.17876296682e-06
9.17879457413e-06
9.17880449926e-06
9.17879157554e-06
9.17875718498e-06
9.17870447784e-06
9.17863851785e-06
9.17856614232e-06
9.17849744402e-06
9.17843885441e-06
9.17836078995e-06
9.17841092565e-06
9.17847170146e-06
9.17853679371e-06
9.17859603044e-06
9.17864275133e-06
9.17867219615e-06
9.17868145898e-06
9.17866934279e-06
9.1786372437e-06
9.1785883236e-06
9.17852763886e-06
9.17846189808e-06
9.17840090564e-06
9.17835046588e-06
9.17828617889e-06
9.17833017678e-06
9.1783847955e-06
9.17844420374e-06
9.17849884696e-06
9.17854224905e-06
9.17856973084e-06
9.1785783771e-06
9.17856700135e-06
9.17853697794e-06
9.17849143775e-06
9.17843533793e-06
9.17837517033e-06
9.17832026585e-06
9.17827599126e-06
9.17821789719e-06
9.17825670194e-06
9.17830574548e-06
9.178359859e-06
9.17841002653e-06
9.17845011542e-06
9.17847558353e-06
9.17848359493e-06
9.17847298176e-06
9.17844508656e-06
9.17840294142e-06
9.17835131597e-06
9.17829638721e-06
9.17824688567e-06
9.17820799273e-06
9.17815157559e-06
9.17818550102e-06
9.17822937766e-06
9.17827834734e-06
9.17832400911e-06
9.17836066673e-06
9.17838400835e-06
9.17839133578e-06
9.17838152526e-06
9.1783558599e-06
9.17831721815e-06
9.1782700975e-06
9.17822027622e-06
9.17817580277e-06
9.17814193089e-06
9.17808570966e-06
9.17811494088e-06
9.1781540575e-06
9.17819801814e-06
9.17823920475e-06
9.17827237122e-06
9.17829352343e-06
9.17830013482e-06
9.17829115869e-06
9.17826778961e-06
9.17823270872e-06
9.17819007245e-06
9.17814519713e-06
9.17810540628e-06
9.17807627426e-06
9.17801937654e-06
9.17804428606e-06
9.1780790381e-06
9.17811823618e-06
9.1781550468e-06
9.17818472615e-06
9.17820365837e-06
9.17820953424e-06
9.17820140179e-06
9.17818034918e-06
9.17814881673e-06
9.1781105667e-06
9.17807040178e-06
9.17803491211e-06
9.17801019701e-06
9.17795213617e-06
9.1779731678e-06
9.17800400185e-06
9.17803875636e-06
9.17807135638e-06
9.17809762271e-06
9.17811434645e-06
9.17811948787e-06
9.17811219526e-06
9.17809344107e-06
9.17806538375e-06
9.17803134714e-06
9.17799557903e-06
9.17796394399e-06
9.17794319968e-06
9.17788388158e-06
9.17790169271e-06
9.17792915314e-06
9.17795983661e-06
9.1779884501e-06
9.17801140161e-06
9.17802596318e-06
9.17803037128e-06
9.17802390942e-06
9.17800740295e-06
9.17798271221e-06
9.17795267784e-06
9.17792094173e-06
9.17789264941e-06
9.17787522325e-06
9.17781495916e-06
9.17783045825e-06
9.17785514416e-06
9.17788215378e-06
9.17790699915e-06
9.17792678054e-06
9.17793922783e-06
9.17794292952e-06
9.17793726919e-06
9.17792295604e-06
9.1779014948e-06
9.1778752319e-06
9.1778471471e-06
9.17782161707e-06
9.17780659783e-06
9.17774518881e-06
9.17775963314e-06
9.17778232016e-06
9.17780620574e-06
9.17782770741e-06
9.17784455509e-06
9.17785507574e-06
9.17785809384e-06
9.17785321652e-06
9.17784092161e-06
9.17782243352e-06
9.17779954352e-06
9.17777454969e-06
9.17775102395e-06
9.17773715366e-06
9.17767436665e-06
9.17768915902e-06
9.17771056614e-06
9.17773202203e-06
9.17775075833e-06
9.17776522639e-06
9.17777409766e-06
9.17777660403e-06
9.1777723666e-06
9.17776180294e-06
9.17774578856e-06
9.17772566655e-06
9.17770307743e-06
9.17768080399e-06
9.17766676634e-06
9.17762712867e-06
9.17763954847e-06
9.17765478971e-06
9.17766937056e-06
9.17768199658e-06
9.17769168312e-06
9.17769758909e-06
9.17769909875e-06
9.17769601156e-06
9.17768856965e-06
9.17767741584e-06
9.17766346033e-06
9.17764770808e-06
9.17763144546e-06
9.17761960324e-06
8.91854169213e-06
8.91849458175e-06
8.91844335569e-06
8.91839286649e-06
8.91834744794e-06
8.91831171786e-06
8.91828920584e-06
8.91828164887e-06
8.91828967052e-06
8.91831244005e-06
8.91834804272e-06
8.91839346062e-06
8.91844463602e-06
8.91849587215e-06
8.91854399946e-06
8.91850337602e-06
8.91845681442e-06
8.91840519211e-06
8.91835378706e-06
8.91830737629e-06
8.91827082186e-06
8.91824772775e-06
8.91823995763e-06
8.91824822254e-06
8.9182716142e-06
8.91830810205e-06
8.91835451043e-06
8.91840654936e-06
8.9184584129e-06
8.918505878e-06
8.91853310224e-06
8.9184918721e-06
8.9184448152e-06
8.91839682454e-06
8.91835309821e-06
8.9183184393e-06
8.91829641995e-06
8.9182889765e-06
8.9182968781e-06
8.91831919454e-06
8.91835384656e-06
8.91839758928e-06
8.91844605796e-06
8.91849342815e-06
8.91853542706e-06
8.918569789e-06
8.91853306428e-06
8.9184900137e-06
8.91844535637e-06
8.91840431156e-06
8.91837160136e-06
8.91835069305e-06
8.91834358823e-06
8.918351101e-06
8.91837229737e-06
8.91840507002e-06
8.91844614435e-06
8.91849114899e-06
8.91853445505e-06
8.91857194768e-06
8.91859980405e-06
8.91856636615e-06
8.91852634931e-06
8.91848450809e-06
8.91844577924e-06
8.9184147638e-06
8.91839484626e-06
8.91838805044e-06
8.918395213e-06
8.91841540252e-06
8.91844650944e-06
8.918485275e-06
8.9185273859e-06
8.9185675643e-06
8.9186017932e-06
8.91862677424e-06
8.91859584699e-06
8.9185585362e-06
8.91851931687e-06
8.91848283454e-06
8.91845351411e-06
8.91843460737e-06
8.91842813433e-06
8.91843493324e-06
8.91845409205e-06
8.91848352724e-06
8.91852005071e-06
8.91855947181e-06
8.91859695459e-06
8.91862852625e-06
8.91865285974e-06
8.91862415712e-06
8.91858931372e-06
8.91855263316e-06
8.91851840939e-06
8.91849082503e-06
8.91847298422e-06
8.91846685995e-06
8.91847327226e-06
8.91849134005e-06
8.91851904203e-06
8.91855330819e-06
8.91859012779e-06
8.91862515239e-06
8.91865442329e-06
8.91867862216e-06
8.91865191576e-06
8.91861934099e-06
8.91858515167e-06
8.91855320814e-06
8.9185274144e-06
8.91851069539e-06
8.91850494419e-06
8.91851094747e-06
8.91852786883e-06
8.918553782e-06
8.91858577781e-06
8.91862007473e-06
8.91865282173e-06
8.91868007002e-06
8.91870449084e-06
8.91867958415e-06
8.9186491419e-06
8.9186173909e-06
8.91858772849e-06
8.91856376118e-06
8.91854821294e-06
8.9185428564e-06
8.91854843223e-06
8.91856416008e-06
8.91858823954e-06
8.91861796042e-06
8.91864980815e-06
8.91868041322e-06
8.91870583405e-06
8.91873090581e-06
8.91870763806e-06
8.91867924074e-06
8.91864986145e-06
8.91862247425e-06
8.91860037001e-06
8.91858602922e-06
8.91858109073e-06
8.91858622239e-06
8.91860072153e-06
8.91862293719e-06
8.91865039173e-06
8.91867986982e-06
8.91870843342e-06
8.91873216439e-06
8.91875829467e-06
8.91873658898e-06
8.91871013442e-06
8.91868301495e-06
8.9186578687e-06
8.91863762512e-06
8.91862452414e-06
8.91862001198e-06
8.91862469528e-06
8.91863794001e-06
8.91865828567e-06
8.91868351165e-06
8.9187107263e-06
8.91873735493e-06
8.91875947868e-06
8.91878731881e-06
8.91876699479e-06
8.91874223213e-06
8.91871716791e-06
8.91869413205e-06
8.91867572886e-06
8.91866384893e-06
8.91865978309e-06
8.91866400472e-06
8.91867601461e-06
8.91869452724e-06
8.91871763396e-06
8.91874279658e-06
8.91876770684e-06
8.91878839335e-06
8.91881956693e-06
8.91880000294e-06
8.91877626292e-06
8.91875270159e-06
8.91873146824e-06
8.91871465221e-06
8.91870393117e-06
8.91870024457e-06
8.91870407761e-06
8.9187149384e-06
8.91873183741e-06
8.91875316809e-06
8.91877679714e-06
8.91880066717e-06
8.9188205433e-06
8.91885567696e-06
8.91883543254e-06
8.91881217752e-06
8.91878967076e-06
8.91876982566e-06
8.9187544368e-06
8.9187446653e-06
8.91874138366e-06
8.91874482528e-06
8.91875471276e-06
8.91877022748e-06
8.91879012547e-06
8.91881270541e-06
8.91883602411e-06
8.9188565679e-06
8.91886646467e-06
8.91885549851e-06
8.91883777885e-06
8.91882078157e-06
8.91880592362e-06
8.91879440312e-06
8.9187871673e-06
8.91878473268e-06
8.9187873263e-06
8.91879470838e-06
8.91880632319e-06
8.9188212644e-06
8.91883827224e-06
8.91885599917e-06
8.91886720693e-06
8.1151266165e-06
8.11516229513e-06
8.11520244165e-06
8.11524250668e-06
8.11527800542e-06
8.11530545929e-06
8.11532260708e-06
8.11532811276e-06
8.11532150283e-06
8.11530340085e-06
8.11527532432e-06
8.11523970609e-06
8.11519987317e-06
8.11516061866e-06
8.11512463612e-06
8.11514788547e-06
8.11518295353e-06
8.11522290589e-06
8.11526311e-06
8.11529882976e-06
8.11532651447e-06
8.11534382426e-06
8.11534937296e-06
8.11534264441e-06
8.11532431784e-06
8.11529598255e-06
8.11526016534e-06
8.11522030863e-06
8.11518121088e-06
8.11514617978e-06
8.11512215572e-06
8.11515309947e-06
8.11518908719e-06
8.11522620808e-06
8.11525953231e-06
8.11528560171e-06
8.11530199714e-06
8.11530728235e-06
8.11530090035e-06
8.11528355498e-06
8.11525686252e-06
8.11522338396e-06
8.11518656853e-06
8.11515118358e-06
8.11512043312e-06
8.11509222212e-06
8.11511957883e-06
8.11515213015e-06
8.11518630855e-06
8.11521736269e-06
8.11524187328e-06
8.11525738314e-06
8.11526242066e-06
8.11525639955e-06
8.11524003267e-06
8.11521494863e-06
8.11518371516e-06
8.115149748e-06
8.11511766127e-06
8.11509042924e-06
8.11506717026e-06
8.11509181623e-06
8.11512168591e-06
8.11515333733e-06
8.11518239869e-06
8.1152054924e-06
8.11522018946e-06
8.11522499137e-06
8.11521930632e-06
8.11520383684e-06
8.11518020528e-06
8.11515094527e-06
8.11511939538e-06
8.11508991854e-06
8.11506531623e-06
8.1150439745e-06
8.11506640626e-06
8.11509376989e-06
8.11512306177e-06
8.11515015232e-06
8.1151717994e-06
8.11518563312e-06
8.11519017937e-06
8.11518484461e-06
8.11517031726e-06
8.11514817836e-06
8.1151208842e-06
8.11509164453e-06
8.11506451264e-06
8.11504218092e-06
8.11502088113e-06
8.11504120028e-06
8.1150661867e-06
8.11509311503e-06
8.11511814055e-06
8.11513822474e-06
8.11515110187e-06
8.11515535481e-06
8.11515040197e-06
8.11513690193e-06
8.11511636372e-06
8.11509111887e-06
8.11506419993e-06
8.11503931606e-06
8.11501910824e-06
8.1149972882e-06
8.11501548165e-06
8.11503819546e-06
8.11506272619e-06
8.11508560778e-06
8.11510402029e-06
8.11511585422e-06
8.11511977528e-06
8.11511523491e-06
8.11510284508e-06
8.11508401424e-06
8.11506090634e-06
8.11503633198e-06
8.11501364364e-06
8.11499547398e-06
8.11497271936e-06
8.11498890583e-06
8.11500940069e-06
8.11503152031e-06
8.11505218124e-06
8.1150688203e-06
8.1150795294e-06
8.11508308262e-06
8.11507897934e-06
8.11506777197e-06
8.11505073925e-06
8.11502984049e-06
8.11500762481e-06
8.11498708818e-06
8.11497089954e-06
8.11494693883e-06
8.11496119225e-06
8.11497952814e-06
8.11499926193e-06
8.11501765809e-06
8.1150324653e-06
8.11504198573e-06
8.11504514767e-06
8.11504149736e-06
8.11503152525e-06
8.11501635251e-06
8.11499770156e-06
8.1149778255e-06
8.11495937983e-06
8.11494509177e-06
8.11491977049e-06
8.11493225922e-06
8.11494857439e-06
8.11496599041e-06
8.11498213563e-06
8.11499506678e-06
8.11500336681e-06
8.11500611163e-06
8.11500292668e-06
8.11499421663e-06
8.11498093325e-06
8.11496452971e-06
8.11494692946e-06
8.1149304633e-06
8.1149179333e-06
8.11489122284e-06
8.11490225427e-06
8.11491677025e-06
8.11493201881e-06
8.11494594385e-06
8.11495702848e-06
8.11496408152e-06
8.11496641258e-06
8.11496368293e-06
8.11495624533e-06
8.11494483994e-06
8.11493063504e-06
8.11491518293e-06
8.11490049015e-06
8.11488942122e-06
8.11486089092e-06
8.11487113616e-06
8.11488432564e-06
8.1148976725e-06
8.11490960793e-06
8.11491890636e-06
8.11492481707e-06
8.11492671709e-06
8.11492444691e-06
8.11491820213e-06
8.11490856606e-06
8.11489638367e-06
8.1148827967e-06
8.11486942851e-06
8.11485915282e-06
8.11482902243e-06
8.11483950598e-06
8.11485162257e-06
8.11486339203e-06
8.11487349594e-06
8.11488129916e-06
8.11488613539e-06
8.11488770894e-06
8.1148858078e-06
8.11488062968e-06
8.11487255238e-06
8.1148621606e-06
8.11485017618e-06
8.11483786827e-06
8.11482745054e-06
8.11481322763e-06
8.11481823059e-06
8.11482626918e-06
8.11483380638e-06
8.11484026992e-06
8.11484522002e-06
8.11484831486e-06
8.11484926487e-06
8.1148479916e-06
8.11484459319e-06
8.11483933757e-06
8.11483261901e-06
8.1148248274e-06
8.11481660845e-06
8.11481167219e-06
7.69475327817e-06
7.69472912154e-06
7.69470132449e-06
7.69467364556e-06
7.69464922719e-06
7.69463029703e-06
7.69461833084e-06
7.69461433878e-06
7.69461872884e-06
7.69463107904e-06
7.6946503665e-06
7.69467492906e-06
7.69470252117e-06
7.69472989378e-06
7.69475517487e-06
7.69473760803e-06
7.69471396558e-06
7.69468635367e-06
7.69465858992e-06
7.69463398943e-06
7.69461485315e-06
7.69460273804e-06
7.69459869303e-06
7.69460315899e-06
7.69461568179e-06
7.69463518068e-06
7.6946599286e-06
7.69468758584e-06
7.69471489276e-06
7.69473954345e-06
7.6947560256e-06
7.6947352557e-06
7.69471039685e-06
7.69468474851e-06
7.69466175929e-06
7.69464372129e-06
7.69463224988e-06
7.69462841132e-06
7.69463265629e-06
7.6946445137e-06
7.69466288274e-06
7.69468601239e-06
7.69471155138e-06
7.69473625445e-06
7.69475787335e-06
7.69477753523e-06
7.69475926862e-06
7.69473677031e-06
7.69471314919e-06
7.69469169514e-06
7.69467471883e-06
7.69466387715e-06
7.69466024043e-06
7.6946642584e-06
7.6946754503e-06
7.69469270723e-06
7.69471427478e-06
7.6947378212e-06
7.69476020536e-06
7.69477933644e-06
7.69479559241e-06
7.69477922424e-06
7.69475856048e-06
7.69473666656e-06
7.69471656293e-06
7.69470055233e-06
7.69469028879e-06
7.69468683753e-06
7.69469064138e-06
7.69470122154e-06
7.69471747351e-06
7.69473766686e-06
7.69475952096e-06
7.6947800654e-06
7.69479730978e-06
7.69481233295e-06
7.69479746771e-06
7.69477853145e-06
7.69475827617e-06
7.69473951455e-06
7.69472449358e-06
7.69471483487e-06
7.69471157899e-06
7.69471515513e-06
7.69472509467e-06
7.69474031577e-06
7.69475914359e-06
7.69477938446e-06
7.69479828057e-06
7.69481389562e-06
7.69482897068e-06
7.69481555095e-06
7.6947982509e-06
7.69477960899e-06
7.69476224464e-06
7.6947482869e-06
7.69473929e-06
7.69473624947e-06
7.69473957811e-06
7.6947488229e-06
7.69476295047e-06
7.69478036832e-06
7.69479900142e-06
7.69481632653e-06
7.69483042152e-06
7.69484589022e-06
7.69483389752e-06
7.69481815554e-06
7.69480114387e-06
7.69478523197e-06
7.69477240312e-06
7.69476411807e-06
7.69476131277e-06
7.69476437455e-06
7.69477287644e-06
7.69478585125e-06
7.69480181635e-06
7.69481884382e-06
7.69483465204e-06
7.69484730299e-06
7.69486339643e-06
7.69485276085e-06
7.69483851684e-06
7.69482312669e-06
7.69480870158e-06
7.69479705754e-06
7.69478953001e-06
7.69478698065e-06
7.69478975993e-06
7.6947974813e-06
7.6948092579e-06
7.69482374255e-06
7.69483917656e-06
7.69485351651e-06
7.69486477825e-06
7.69488166504e-06
7.69487229955e-06
7.69485950106e-06
7.69484570376e-06
7.69483278514e-06
7.69482235927e-06
7.69481562289e-06
7.69481334212e-06
7.69481583168e-06
7.6948227457e-06
7.69483329756e-06
7.69484629413e-06
7.69486016819e-06
7.69487309874e-06
7.69488304619e-06
7.69490080065e-06
7.69489259955e-06
7.69488114528e-06
7.69486887325e-06
7.69485744343e-06
7.69484825163e-06
7.69484232565e-06
7.69484032586e-06
7.69484252238e-06
7.69484861541e-06
7.69485793713e-06
7.69486946311e-06
7.69488183718e-06
7.69489345142e-06
7.694902189e-06
7.69492087613e-06
7.69491361192e-06
7.694903321e-06
7.69489246604e-06
7.69488248256e-06
7.69487451077e-06
7.69486940283e-06
7.69486768953e-06
7.69486959273e-06
7.69487487251e-06
7.69488297439e-06
7.69489307669e-06
7.69490405668e-06
7.69491450391e-06
7.6949222487e-06
7.69494223225e-06
7.69493543157e-06
7.69492597316e-06
7.6949163144e-06
7.69490763158e-06
7.69490080997e-06
7.69489646975e-06
7.6948950345e-06
7.69489666622e-06
7.69490117132e-06
7.69490814488e-06
7.69491695694e-06
7.69492675288e-06
7.69493636594e-06
7.6949435836e-06
7.69496472418e-06
7.69495770947e-06
7.69494887365e-06
7.69494021227e-06
7.6949326782e-06
7.69492685193e-06
7.69492320224e-06
7.69492201405e-06
7.69492340518e-06
7.69492723506e-06
7.69493321577e-06
7.69494090256e-06
7.69494970787e-06
7.69495869028e-06
7.69496606791e-06
7.69497565458e-06
7.694972461e-06
7.69496647553e-06
7.69496073237e-06
7.6949557754e-06
7.69495194934e-06
7.69494956008e-06
7.69494881497e-06
7.69494977637e-06
7.69495235828e-06
7.69495635733e-06
7.69496148352e-06
7.69496737332e-06
7.69497350354e-06
7.69497699513e-06
6.99959719398e-06
6.99961586691e-06
6.99963634721e-06
6.9996562263e-06
6.99967358338e-06
6.99968694418e-06
6.99969533086e-06
6.99969802711e-06
6.9996947401e-06
6.99968575792e-06
6.99967180571e-06
6.99965405158e-06
6.99963409589e-06
6.9996142525e-06
6.99959579664e-06
6.99960886186e-06
6.99962738999e-06
6.99964776729e-06
6.99966773039e-06
6.99968521503e-06
6.99969871451e-06
6.99970720093e-06
6.99970992391e-06
6.99970657052e-06
6.99969745232e-06
6.99968333229e-06
6.99966543058e-06
6.99964541411e-06
6.99962561194e-06
6.99960763668e-06
6.9995961574e-06
6.99961256845e-06
6.99963087712e-06
6.99964931409e-06
6.99966564096e-06
6.99967837166e-06
6.99968640652e-06
6.99968898955e-06
6.99968579568e-06
6.99967715228e-06
6.99966383745e-06
6.9996470916e-06
6.99962859412e-06
6.99961066706e-06
6.99959489396e-06
6.9995812511e-06
6.99959574992e-06
6.99961228365e-06
6.99962922758e-06
6.99964444132e-06
6.99965641962e-06
6.99966401292e-06
6.99966646133e-06
6.99966343475e-06
6.99965526865e-06
6.99964274823e-06
6.9996271205e-06
6.99961005375e-06
6.99959379528e-06
6.9995798364e-06
6.99956880488e-06
6.99958184836e-06
6.99959699271e-06
6.99961265133e-06