/*--------------------------------*- C++ -*----------------------------------*\
  =========                 |
  \\      /  F ield         | OpenFOAM: The Open Source CFD Toolbox
   \\    /   O peration     | Website:  https://openfoam.org
    \\  /    A nd           | Version:  7
     \\/     M anipulation  |
\*---------------------------------------------------------------------------*/
FoamFile
{
    version     2.0;
    format      ascii;
    class       surfaceScalarField;
    location    "1.64";
    object      phi;
}
// * * * * * * * * * * * * * * * * * * * * * * * * * * * * * * * * * * * * * //

dimensions      [0 3 -1 0 0 0 0];

internalField   nonuniform List<scalar> 
65775
(
1.29587749819e-11
1.53794633855e-09
2.14904473402e-10
-7.4461788148e-14
2.09594180818e-11
1.61057611965e-09
2.38523972126e-10
2.51004485942e-11
1.67379004765e-09
2.61387799562e-10
2.47917370666e-11
1.7282874766e-09
2.82178739535e-10
2.06838889078e-11
1.77175065091e-09
2.99699056865e-10
1.35879803021e-11
1.80353278506e-09
3.12981160268e-10
4.60027098573e-12
1.82349544282e-09
3.21382270624e-10
-5.04655209108e-12
1.8310508473e-09
3.24395362341e-10
-1.40219443809e-11
1.82352771532e-09
3.21379164767e-10
-2.10946369978e-11
1.80359594312e-09
3.12974909824e-10
-2.5168035697e-11
1.77184431717e-09
2.99689498625e-10
-2.54343839726e-11
1.72840553547e-09
2.82165465046e-10
-2.12439846655e-11
1.6739270079e-09
2.61369576541e-10
-1.32036363223e-11
1.61070867787e-09
2.38495692759e-10
1.53800222435e-09
2.14847723645e-10
-2.37244660144e-13
3.42365832796e-11
2.63779917017e-09
5.48200146806e-10
-1.81710501846e-13
5.86445056486e-11
2.75280404155e-09
6.06474206517e-10
7.06000034539e-11
2.8539742015e-09
6.62670483047e-10
7.02403323611e-11
2.94010503166e-09
7.13611285459e-10
5.88127904411e-11
3.00848403816e-09
7.5641589743e-10
3.87211648705e-11
3.05819421951e-09
7.88793713856e-10
1.31172807273e-11
3.08936620037e-09
8.092409162e-10
-1.43654966704e-11
3.10121371102e-09
8.16563494119e-10
-3.99357671496e-11
3.08943718158e-09
8.09231177044e-10
-5.99626819977e-11
3.05833416065e-09
7.88774333968e-10
-7.12958261453e-11
3.00869138015e-09
7.56386560589e-10
-7.15363582031e-11
2.94037099384e-09
7.13571025936e-10
-5.94460952273e-11
2.8542856588e-09
6.62616004063e-10
-3.49015071908e-11
2.75311165998e-09
6.06391563577e-10
2.63795709345e-09
5.4804935072e-10
-6.4557999925e-13
5.17884823546e-11
3.38465839149e-09
8.0018050081e-10
-2.39104480766e-13
8.94142250205e-11
3.52018556275e-09
8.84249525243e-10
1.07763363687e-10
3.64100702007e-09
9.65066516961e-10
1.07369682242e-10
3.74245637081e-09
1.03816163759e-09
8.99762277796e-11
3.8226311388e-09
1.09946763885e-09
5.92616342249e-11
3.88054608718e-09
1.1457724137e-09
2.00710176752e-11
3.91678998808e-09
1.17497516313e-09
-2.19946597488e-11
3.93062248119e-09
1.18541169959e-09
-6.11354646638e-11
3.91688385704e-09
1.17495895756e-09
-9.17535765006e-11
3.88073184614e-09
1.14574033411e-09
-1.09007134622e-10
3.82290723297e-09
1.09941947348e-09
-1.09223315968e-10
3.74281485628e-09
1.03809632492e-09
-9.06727524234e-11
3.64143183168e-09
9.64979858065e-10
-5.28286265432e-11
3.52060873161e-09
8.84122851114e-10
3.38489119936e-09
7.99960902077e-10
-9.93158674129e-13
6.66353171399e-11
3.84469523789e-09
9.88670055699e-10
-2.75604244819e-13
1.14714429066e-10
3.98537641681e-09
1.09213672105e-09
1.3831005032e-10
4.11224422695e-09
1.19125633146e-09
1.37825021949e-10
4.21741692628e-09
1.28069889003e-09
1.15524930701e-10
4.30007245854e-09
1.35558128319e-09
7.60884522067e-11
4.35937768784e-09
1.41206185689e-09
2.57529893504e-11
4.3964015633e-09
1.44763306449e-09
-2.82711749383e-11
4.4105949286e-09
1.46031706665e-09
-7.8543083731e-11
4.39650268028e-09
1.4476112158e-09
-1.17856031717e-10
4.35957905552e-09
1.41201883439e-09
-1.39977338887e-10
4.30037318629e-09
1.35551720595e-09
-1.4023591129e-10
4.21781148635e-09
1.2806130627e-09
-1.16381049393e-10
4.11271955056e-09
1.19114482927e-09
-6.80169576108e-11
3.98585348551e-09
1.09197979554e-09
3.84497219233e-09
9.88410516464e-10
-1.30665256188e-12
7.89401147471e-11
4.07439615651e-09
1.12320431646e-09
-2.96136792473e-13
1.35335053077e-10
4.20962594103e-09
1.24091142895e-09
1.63154529799e-10
4.3329122236e-09
1.35324043339e-09
1.62549637836e-10
4.4338990019e-09
1.45435007468e-09
1.36248645468e-10
4.51275313717e-09
1.53884272038e-09
8.97239542578e-11
4.56892552395e-09
1.60248093369e-09
3.03400432554e-11
4.60389424308e-09
1.64250113802e-09
-3.33892998351e-11
4.6173646749e-09
1.65673622513e-09
-9.26979065682e-11
4.60398925246e-09
1.64247430666e-09
-1.39076059939e-10
4.56911578936e-09
1.60242841723e-09
-1.65165082241e-10
4.5130396191e-09
1.53876525529e-09
-1.65502148892e-10
4.43427945121e-09
1.4542478779e-09
-1.37374834015e-10
4.33338003381e-09
1.35311094873e-09
-8.06411012448e-11
4.2100968786e-09
1.24073592084e-09
4.07467326916e-09
1.12292583609e-09
-1.59729789707e-12
8.90078818843e-11
4.12203752203e-09
1.21168691306e-09
-3.0483767037e-13
1.51924813553e-10
4.2449511142e-09
1.33946020527e-09
1.8302190012e-10
4.35829731984e-09
1.460885096e-09
1.82241246044e-10
4.45007294336e-09
1.56988510247e-09
1.52713077735e-10
4.52121129622e-09
1.66079129832e-09
1.00532907115e-10
4.57149825629e-09
1.72915718065e-09
3.39528815565e-11
4.60270159229e-09
1.77208204847e-09
-3.7487534471e-11
4.61478345652e-09
1.7873078865e-09
-1.03982211999e-10
4.60277810993e-09
1.77205062853e-09
-1.55996053919e-10
4.57165302924e-09
1.72909608755e-09
-1.8528387062e-10
4.5214473143e-09
1.6607021929e-09
-1.85761381833e-10
4.45039244846e-09
1.5697696536e-09
-1.54316265205e-10
4.35870088559e-09
1.4607429519e-09
-9.10162979475e-11
4.24535921208e-09
1.33927451119e-09
4.12226694606e-09
1.211402031e-09
-1.8717114582e-12
9.7143153408e-11
4.02885896745e-09
1.26085343945e-09
-3.05075838733e-13
1.65032947822e-10
4.13557953969e-09
1.39533094621e-09
1.98530999723e-10
4.23524872745e-09
1.52255298716e-09
1.97491431429e-10
4.31501924096e-09
1.63642062712e-09
1.65396299764e-10
4.37633901138e-09
1.73118588714e-09
1.08822241888e-10
4.41932663912e-09
1.80234016342e-09
3.66921856887e-11
4.44590202273e-09
1.84693804561e-09
-4.06829370528e-11
4.45624716671e-09
1.86270744559e-09
-1.12718934615e-10
4.44594985126e-09
1.84690212763e-09
-1.69109598598e-10
4.41942532661e-09
1.80227078894e-09
-2.00939855589e-10
4.37649364212e-09
1.7310859294e-09
-2.01646025874e-10
4.31523700313e-09
1.63629366947e-09
-1.67765450836e-10
4.23553842101e-09
1.52240142185e-09
-9.94549619925e-11
4.13586931786e-09
1.39513987956e-09
4.02898960829e-09
1.26056871306e-09
-2.13701176029e-12
1.03563506757e-10
3.83003450333e-09
1.27655325407e-09
-2.98738592542e-13
1.75067486178e-10
3.91900741223e-09
1.41506032438e-09
2.10169232031e-10
4.00330914636e-09
1.54547217749e-09
2.08779812393e-10
4.06995756967e-09
1.66182437383e-09
1.74693275944e-10
4.12070108508e-09
1.75843752962e-09
1.14847668037e-10
4.15595491358e-09
1.83085473757e-09
3.86418282158e-11
4.17765664317e-09
1.87615700457e-09
-4.3073851157e-11
4.18614965581e-09
1.89211777232e-09
-1.19178051288e-10
4.17766756776e-09
1.87611634469e-09
-1.78825497665e-10
4.15598058417e-09
1.8307766788e-09
-2.12625764276e-10
4.12074864077e-09
1.75832639272e-09
-2.13655258032e-10
4.07003863647e-09
1.66168600681e-09
-1.78140441502e-10
4.00344093897e-09
1.54531200054e-09
-1.06180773656e-10
3.91912818264e-09
1.41486508567e-09
3.83001458238e-09
1.27627055826e-09
-2.3982410646e-12
1.08415945435e-10
3.55544337842e-09
1.26393595584e-09
-2.87767606933e-13
1.82320600558e-10
3.62684630687e-09
1.40438841867e-09
2.18310113456e-10
3.69560817014e-09
1.53597459144e-09
2.16489388185e-10
3.74922269522e-09
1.65297190513e-09
1.80927639544e-10
3.78958930908e-09
1.74987955505e-09
1.18821175378e-10
3.8173599498e-09
1.82238024315e-09
3.98715892538e-11
3.83437160764e-09
1.86763708675e-09
-4.47425578435e-11
3.84106072544e-09
1.88351593608e-09
-1.23583931085e-10
3.83433969898e-09
1.867591097e-09
-1.85479276236e-10
3.81730025772e-09
1.822292364e-09
-2.2073591852e-10
3.78951006173e-09
1.7497557088e-09
-2.2217260385e-10
3.74913946714e-09
1.65282043311e-09
-1.85741360365e-10
3.69554511089e-09
1.5358040512e-09
-1.11345868585e-10
3.62675278553e-09
1.40418676468e-09
3.55522237862e-09
1.26365330491e-09
-2.66007334044e-12
1.11795306827e-10
3.23028993278e-09
1.22758149219e-09
-2.73478986181e-13
1.86997751327e-10
3.28550338738e-09
1.3684091522e-09
2.23244412405e-10
3.33958729421e-09
1.49966222868e-09
2.20935503174e-10
3.38106482942e-09
1.61592328878e-09
1.8437328095e-10
3.4118969183e-09
1.71195087038e-09
1.20924594517e-10
3.43288913248e-09
1.78363802947e-09
4.04418011102e-11
3.44567527994e-09
1.82827683902e-09
-4.57594030623e-11
3.45071797477e-09
1.84386432515e-09
-1.26128189175e-10
3.44559708707e-09
1.82822461047e-09
-1.8935424568e-10
3.43273648832e-09
1.78353848928e-09
-2.25594188984e-10
3.41167794798e-09
1.71181159134e-09
-2.27496346214e-10
3.38079703973e-09
1.61575521818e-09
-1.90779301116e-10
3.33930015393e-09
1.49947709703e-09
-1.15049113019e-10
3.28515652759e-09
1.36819575793e-09
3.22982142922e-09
1.22729366883e-09
-2.92637348966e-12
1.13745128613e-10
2.87562910622e-09
1.17159768565e-09
-2.57157227766e-13
1.89245638696e-10
2.91672037405e-09
1.31168591144e-09
2.25224497848e-10
2.9575838537e-09
1.44153493034e-09
2.22407011033e-10
2.98831952275e-09
1.55605707702e-09
1.85284450908e-10
3.01087093295e-09
1.65033341163e-09
1.2132687835e-10
3.02607168456e-09
1.72053149377e-09
4.04093951827e-11
3.03526795634e-09
1.76411715568e-09
-4.61878873329e-11
3.03888879491e-09
1.77925343694e-09
-1.26986036755e-10
3.03514236832e-09
1.76405753898e-09
-1.9071027618e-10
3.0258229883e-09
1.72041788672e-09
-2.27494270366e-10
3.0105056706e-09
1.65017494821e-09
-2.29882369763e-10
2.98785471702e-09
1.55586731116e-09
-1.93403251638e-10
2.95705116386e-09
1.44132884981e-09
-1.17335653277e-10
2.91608866949e-09
1.31145304786e-09
2.87487342884e-09
1.17129691581e-09
-3.20034916632e-12
1.14254725161e-10
2.50881528056e-09
1.09969962535e-09
-2.38716694768e-13
1.89225181427e-10
2.53793592327e-09
1.23835004024e-09
2.2455985942e-10
2.5672823637e-09
1.36609740536e-09
2.21242157503e-10
2.58898807678e-09
1.47817909333e-09
1.83944019954e-10
2.60477805238e-09
1.57006252325e-09
1.20211172727e-10
2.61533950844e-09
1.63825932788e-09
3.98364893438e-11
2.62167118003e-09
1.68045732276e-09
-4.60920176065e-11
2.62413272102e-09
1.69501914241e-09
-1.26342038497e-10
2.62149861296e-09
1.68038910271e-09
-1.89830636244e-10
2.61499551577e-09
1.63812900485e-09
-2.2677352197e-10
2.6042656861e-09
1.56988050733e-09
-2.29638084813e-10
2.5883208795e-09
1.47796139166e-09
-1.93770892407e-10
2.56649024527e-09
1.36586255245e-09
-1.18191379161e-10
2.5369958823e-09
1.23808884876e-09
2.50774147026e-09
1.09937689106e-09
-3.48342195576e-12
1.13375368419e-10
2.14375713826e-09
1.01527808011e-09
-2.18070162023e-13
1.87364675857e-10
2.16242300892e-09
1.15219073715e-09
2.2181143674e-10
2.18213688059e-09
1.2774474909e-09
2.17938461924e-10
2.196820374e-09
1.38660488263e-09
1.80722941997e-10
2.20753997875e-09
1.47561081895e-09
1.17804346337e-10
2.21468209044e-09
1.54140540223e-09
3.88013569147e-11
2.21890393548e-09
1.58195062095e-09
-4.55460782774e-11
2.22047913481e-09
1.59584061172e-09
-1.2441787569e-10
2.21868564205e-09
1.58187284142e-09
-1.87079783233e-10
2.21424466177e-09
1.54125609821e-09
-2.2392113471e-10
2.20688286701e-09
1.47540109771e-09
-2.27314677864e-10
2.19595066087e-09
1.38635270025e-09
-1.92299900111e-10
2.18107824624e-09
1.27717546998e-09
-1.17656095048e-10
2.16115710996e-09
1.15189319422e-09
2.14233903585e-09
1.01492690676e-09
-3.75893544205e-12
1.1181875074e-10
1.79052612022e-09
9.21455197419e-10
-1.93171485712e-13
1.84848209154e-10
1.79945594884e-09
1.05673443724e-09
2.17962081376e-10
1.8120663206e-09
1.17932244051e-09
2.13181240204e-10
1.82200508633e-09
1.28519157509e-09
1.76081552277e-10
1.82935043283e-09
1.37092939561e-09
1.14382839606e-10
1.83425021958e-09
1.4339958604e-09
3.73987404572e-11
1.83708525689e-09
1.47267365887e-09
-4.46335995089e-11
1.83804444633e-09
1.48581417148e-09
-1.21477908125e-10
1.83682057489e-09
1.47258617391e-09
-1.82903383792e-10
1.83371947187e-09
1.4338268231e-09
-2.19605443535e-10
1.82855060813e-09
1.37068964858e-09
-2.2387630954e-10
1.82093667728e-09
1.28489964807e-09
-1.90157956659e-10
1.81074248709e-09
1.17900501887e-09
-1.16427763032e-10
1.79785351667e-09
1.05639456274e-09
1.78875843806e-09
9.21076062263e-10
-4.03317475863e-12
1.13135520738e-10
8.21333573439e-10
-1.69669663297e-13
1.45254842919e-09
1.84592225026e-10
9.55466661653e-10
1.45545570044e-09
2.14918791969e-10
1.07513368694e-09
1.46458460385e-09
2.08310910457e-10
1.17733508727e-09
1.47190357375e-09
1.70985170256e-10
1.25944548915e-09
1.47735259744e-09
1.10546299879e-10
1.31950194044e-09
1.48108426558e-09
3.584045375e-11
1.35613227684e-09
1.48322212378e-09
-4.35486129241e-11
1.36846034055e-09
1.4838239466e-09
-1.18101772515e-10
1.35603703197e-09
1.48290546252e-09
-1.78243154345e-10
1.31931669989e-09
1.48045028229e-09
-2.1513808352e-10
1.25917981207e-09
1.47639971662e-09
-2.21197191402e-10
1.17700560394e-09
1.47063027951e-09
-1.90219979956e-10
1.07476942593e-09
1.46299225852e-09
-1.18019191616e-10
9.55072636176e-10
1.45352218701e-09
8.20952664025e-10
-4.28203686369e-12
1.45042495489e-09
-3.22441504981e-13
5.66247125023e-11
1.58554260316e-10
-2.15696716911e-14
3.17501975859e-13
6.24707523498e-11
1.75300629179e-10
9.02170691359e-13
6.90708062041e-11
1.91623633644e-10
1.16702127656e-12
7.52418147471e-11
2.06575264781e-10
1.08858892916e-12
8.04673178211e-11
2.19240896801e-10
7.24666833851e-13
8.44156538716e-11
2.28876679178e-10
1.7894325775e-13
8.68962196958e-11
2.34982827726e-10
-4.28161757948e-13
8.77801057724e-11
2.37172437983e-10
-9.7322296624e-13
8.69017430539e-11
2.34971894201e-10
-1.33487260722e-12
8.44309227657e-11
2.28855075167e-10
-1.40496011887e-12
8.05008435478e-11
2.19209075207e-10
-1.11976831461e-12
7.52977409286e-11
2.06533629225e-10
-5.05489993759e-13
6.91355842108e-11
1.91571893324e-10
1.70403520241e-13
6.25380075588e-11
1.7523541337e-10
5.66408456237e-11
1.58462374332e-10
-1.29244826359e-13
5.7589633645e-13
1.58809360386e-10
4.45363691326e-10
-5.40540929542e-14
2.6924811741e-12
1.73883884852e-10
4.92770617995e-10
4.51242265686e-12
1.90777912013e-10
5.38969711929e-10
5.25514398808e-12
2.0667159089e-10
5.81292939185e-10
4.75627373102e-12
2.20114609217e-10
6.17159341106e-10
3.17273847772e-12
2.30248521016e-10
6.44457000921e-10
8.69397366573e-13
2.36607630474e-10
6.61750658608e-10
-1.68028491724e-12
2.38876117834e-10
6.67934426142e-10
-3.97631752273e-12
2.36627535975e-10
6.61718283937e-10
-5.54245900647e-12
2.30296034865e-10
6.44393039478e-10
-6.00495432218e-12
2.20203886113e-10
6.1706522567e-10
-5.1952556133e-12
2.06810025966e-10
5.81170048218e-10
-3.28129327509e-12
1.90943161371e-10
5.3881761957e-10
-1.05091928581e-12
1.74045406483e-10
4.92580360373e-10
1.5886778058e-10
4.45107403589e-10
-4.04443967188e-13
2.43020360264e-12
2.72041593409e-10
6.84473627605e-10
-7.93697807284e-14
6.24000231796e-12
2.96263122521e-10
7.57904078217e-10
9.29929023341e-12
3.2327527272e-10
8.29351253604e-10
1.04366404727e-11
3.48814608653e-10
8.94750441432e-10
9.32479935089e-12
3.70445181511e-10
9.50149301125e-10
6.21248796392e-12
3.86748382555e-10
9.92302440236e-10
1.75206341224e-12
3.9697550624e-10
1.01898978946e-09
-3.17159712714e-12
4.00623634221e-10
1.02850979697e-09
-7.61283366175e-12
3.97012319849e-10
1.01893732892e-09
-1.06830227739e-11
3.86830466178e-10
9.92198909909e-10
-1.17197713308e-11
3.7058724467e-10
9.49997241615e-10
-1.04624603755e-11
3.49022629399e-10
8.94552533076e-10
-7.24192358474e-12
3.23522936951e-10
8.29107921971e-10
-3.24158135455e-12
2.96495717357e-10
7.57603973709e-10
2.72135970866e-10
6.84080651681e-10
-6.92709338084e-13
4.8176594624e-12
3.80249594532e-10
8.75626044285e-10
-9.94353072926e-14
1.04166229851e-11
4.12306219151e-10
9.70351364222e-10
1.46318217166e-11
4.47868939159e-10
1.06230519125e-09
1.60451233832e-11
4.81611580763e-10
1.14637112924e-09
1.42002735721e-11
5.10247397498e-10
1.21753077753e-09
9.43550189161e-12
5.31846073135e-10
1.27164950652e-09
2.68815310857e-12
5.45397469535e-10
1.30588321265e-09
-4.74148951664e-12
5.50230002233e-10
1.31806584688e-09
-1.14547774058e-11
5.45450526505e-10
1.30581241318e-09
-1.61475914906e-11
5.31959414935e-10
1.27150999631e-09
-1.78735600055e-11
5.10432851552e-10
1.21732639653e-09
-1.62847088512e-11
4.81871149477e-10
1.14610629909e-09
-1.18421295527e-11
4.48175843342e-10
1.06198226645e-09
-5.97950285311e-12
4.12590091617e-10
9.69959570061e-10
3.80377009068e-10
8.75127215816e-10
-9.95291056313e-13
7.46048492409e-12
4.73094404827e-10
1.02290647148e-09
-1.15396965016e-13
1.47829775658e-11
5.11098303253e-10
1.13466708762e-09
1.99957720162e-11
5.52938688695e-10
1.24283311408e-09
2.15473436834e-11
5.92751613589e-10
1.3415531345e-09
1.89119053651e-11
6.26611891635e-10
1.4250281879e-09
1.25190408297e-11
6.52179948178e-10
1.48846524887e-09
3.56683751071e-12
6.68228658112e-10
1.52855128722e-09
-6.26576220247e-12
6.73948471298e-10
1.5427804477e-09
-1.51674655706e-11
6.68293714291e-10
1.52846386584e-09
-2.14560297458e-11
6.52315354216e-10
1.48829331579e-09
-2.39266599501e-11
6.26825431881e-10
1.424777139e-09
-2.21432078715e-11
5.93041559458e-10
1.34122964775e-09
-1.6639160336e-11
5.53278371676e-10
1.2424424864e-09
-8.98402059116e-12
5.11411711287e-10
1.1342008774e-09
4.73245273746e-10
1.02232762198e-09
-1.30795403865e-12
1.01096342887e-11
5.44620494354e-10
1.13007692563e-09
-1.28123414834e-13
1.89769145245e-11
5.86527570566e-10
1.25504958993e-09
2.49707567008e-11
6.32153866072e-10
1.37556476699e-09
2.65180259328e-11
6.75676483191e-10
1.48531713142e-09
2.30899816515e-11
7.12762119603e-10
1.57798876093e-09
1.52120607989e-11
7.40800995968e-10
1.64834248746e-09
4.30263339934e-12
7.58409523664e-10
1.69274264744e-09
-7.64725399933e-12
7.64680042999e-10
1.70845980001e-09
-1.8489291587e-11
7.58481096738e-10
1.69264013898e-09
-2.62301010695e-11
7.40947245499e-10
1.64814133837e-09
-2.94474325333e-11
7.12986562339e-10
1.57769621267e-09
-2.76133211478e-11
6.75974087457e-10
1.48494263892e-09
-2.12668920481e-11
6.32499727114e-10
1.3751173841e-09
-1.20028970385e-11
5.8684441192e-10
1.25452399595e-09
5.4478242469e-10
1.12943794114e-09
-1.6261356891e-12
1.25655450946e-11
5.92205324093e-10
1.20074670791e-09
-1.37829153916e-13
2.2717613733e-11
6.3606438717e-10
1.33554223284e-09
2.92376599858e-11
6.83104072148e-10
1.4649838415e-09
3.06417238755e-11
7.28053644599e-10
1.58255332098e-09
2.64655559173e-11
7.66403421784e-10
1.68164656142e-09
1.73342260278e-11
7.95429313584e-10
1.75677610796e-09
4.83501273294e-12
8.13664810456e-10
1.80411804942e-09
-8.81558985268e-12
8.20150492692e-10
1.8208253102e-09
-2.12309550989e-11
8.13736025327e-10
1.80400171967e-09
-3.01934777844e-11
7.95572752233e-10
1.75654840977e-09
-3.41148689184e-11
7.66619132964e-10
1.68131686951e-09
-3.23717657661e-11
7.28334320097e-10
1.58213433774e-09
-2.54412491182e-11
6.83428445441e-10
1.4644889527e-09
-1.48321377663e-11
6.36356117787e-10
1.33496939337e-09
5.92357337027e-10
1.20006282074e-09
-1.94688105976e-12
1.46834026618e-11
6.15685026697e-10
1.23845098823e-09
-1.44682794779e-13
2.58074066358e-11
6.59791806643e-10
1.38012124251e-09
3.25814169601e-11
7.06195052652e-10
1.51552026215e-09
3.37158971795e-11
7.50551260542e-10
1.63811437163e-09
2.88729593632e-11
7.884012646e-10
1.74121358534e-09
1.87776762469e-11
8.1706458603e-10
1.81925132427e-09
5.1289132957e-12
8.35073710378e-10
1.86833635262e-09
-9.72777508931e-12
8.4146733296e-10
1.88559890103e-09
-2.32772963075e-11
8.35137646437e-10
1.86820714435e-09
-3.31741915433e-11
8.17191620466e-10
1.8189990756e-09
-3.77213942229e-11
7.88588517646e-10
1.74085005305e-09
-3.61992530297e-11
7.50790043262e-10
1.63765588977e-09
-2.89612026693e-11
7.06467995162e-10
1.51498491013e-09
-1.73228536376e-11
6.60027166481e-10
1.37951005423e-09
6.15795486078e-10
1.23773334859e-09
-2.26664302171e-12
1.63698590245e-11
6.16641941831e-10
1.24668296429e-09
-1.49458676075e-13
2.81252573094e-11
6.59619915431e-10
1.39272887649e-09
3.4884847708e-11
7.03755157982e-10
1.53157903703e-09
3.56464312783e-11
7.45856175073e-10
1.65683569219e-09
3.02466599482e-11
7.81727793058e-10
1.76188965289e-09
1.9505379903e-11
8.0888308211e-10
1.84124403953e-09
5.17452084169e-12
8.25936802221e-10
1.891048337e-09
-1.03671130889e-11
8.31975518178e-10
1.90849457489e-09
-2.4584795392e-11
8.25986322057e-10
1.89090686186e-09
-3.51009399497e-11
8.08979773573e-10
1.84096853188e-09
-4.0167935913e-11
7.81866454082e-10
1.76149442681e-09
-3.8974442452e-11
7.46027630882e-10
1.65634099099e-09
-3.17015014449e-11
7.03945820949e-10
1.53100783721e-09
-1.93783867118e-11
6.597637582e-10
1.39208494876e-09
6.16674724848e-10
1.24593902614e-09
-2.58205815278e-12
1.75803276662e-11
5.97827293558e-10
1.22890083419e-09
-1.52133695126e-13
2.96221205852e-11
6.3864321777e-10
1.37727907091e-09
3.61264711128e-11
6.79308634577e-10
1.51753865382e-09
3.6446348194e-11
7.17876105739e-10
1.64352150478e-09
3.06203063114e-11
7.50612228012e-10
1.74883468589e-09
1.9550412426e-11
7.75354959899e-10
1.82818136715e-09
4.98717266272e-12
7.90874613644e-10
1.87784949829e-09
-1.07424866653e-11
7.96349919599e-10
1.89516854603e-09
-2.51802186846e-11
7.90902944168e-10
1.87769609679e-09
-3.60013642812e-11
7.75408027077e-10
1.82788327696e-09
-4.14618126382e-11
7.50682899362e-10
1.74840883574e-09
-4.06705889541e-11
7.17954678615e-10
1.64299219674e-09
-3.36082797692e-11
6.7938482535e-10
1.5169338858e-09
-2.09494122516e-11
6.38657286906e-10
1.37660500731e-09
5.9773817947e-10
1.2281347565e-09
-2.88997639577e-12
1.83135112434e-11
5.62682331834e-10
1.1885221425e-09
-1.53559493412e-13
3.03217296291e-11
6.00613504302e-10
1.33765191793e-09
3.6386927477e-11
6.36983611049e-10
1.47773786341e-09
3.6244015052e-11
6.71103791053e-10
1.6029174934e-09
3.01333602369e-11
6.99877737259e-10
1.70712639139e-09
1.90196884143e-11
7.21562761106e-10
1.78538702501e-09
4.60884993906e-12
7.3513616941e-10
1.83421781918e-09
-1.08889457583e-11
7.39899286177e-10
1.85115443932e-09
-2.5163503352e-11
7.3513659751e-10
1.8340526935e-09
-3.60078999678e-11
7.21558950261e-10
1.78506664613e-09
-4.17244968169e-11
6.99861132036e-10
1.70667019453e-09
-4.13615687444e-11
6.71064113092e-10
1.60235385597e-09
-3.46988566501e-11
6.36912787785e-10
1.47709992709e-09
-2.20294492142e-11
6.00457699251e-10
1.33694806855e-09
5.62424739833e-10
1.18773544847e-09
-3.18675519537e-12
1.86090608375e-11
5.14959326841e-10
1.12891302633e-09
-1.53579588584e-13
3.03357786557e-11
5.49501743119e-10
1.2776874173e-09
3.58764155482e-11
5.81031100668e-10
1.41646036265e-09
3.53099747381e-11
6.10123269295e-10
1.53967787582e-09
2.90493649267e-11
6.34442687456e-10
1.64171149605e-09
1.81040080199e-11
6.5269958665e-10
1.71802265375e-09
4.11106224909e-12
6.64092106427e-10
1.76544989246e-09
-1.0870192363e-11
6.68059055368e-10
1.78179782012e-09
-2.47174390842e-11
6.6405747159e-10
1.76527335563e-09
-3.53755859017e-11
6.52625394985e-10
1.71768036652e-09
-4.1217624976e-11
6.34319012726e-10
1.64122502965e-09
-4.12485988216e-11
6.09939456847e-10
1.53907947398e-09
-3.50764144064e-11
5.80779791985e-10
1.41578861026e-09
-2.26501148519e-11
5.49135279324e-10
1.27695338067e-09
5.144842253e-10
1.12810613944e-09
-3.46822316578e-12
1.85731140836e-11
4.58392020026e-10
1.05337575588e-09
-1.52084584236e-13
2.99345998021e-11
4.89104721303e-10
1.20118512916e-09
3.50139536356e-11
5.15441299208e-10
1.33791548313e-09
3.41177702006e-11
5.39262007706e-10
1.45832068585e-09
2.77932880879e-11
5.58990127115e-10
1.55734648754e-09
1.7095696845e-11
5.73738617835e-10
1.63102314434e-09
3.60060193971e-12
5.8290340141e-10
1.67659503591e-09
-1.07845435158e-11
5.86055432786e-10
1.69219021887e-09
-2.41251913951e-11
5.82825847934e-10
1.67640791661e-09
-3.45197423258e-11
5.73578414995e-10
1.63066018681e-09
-4.04040594979e-11
5.58737826588e-10
1.55683065184e-09
-4.07397134117e-11
5.38906222102e-10
1.45768737645e-09
-3.50003010002e-11
5.14975111359e-10
1.33720922077e-09
-2.29071976989e-11
4.88484537553e-10
1.20042198293e-09
4.5764697515e-10
1.0525524365e-09
-3.72143815895e-12
1.8479092789e-11
3.96339626422e-10
9.65131060218e-10
-1.48491163409e-13
2.96758194989e-11
4.22693941666e-10
1.1119126076e-09
3.45342690596e-11
4.43679550835e-10
1.2461894998e-09
3.34068937278e-11
4.62401546011e-10
1.36314209932e-09
2.698226954e-11
4.77800263776e-10
1.4585071562e-09
1.64028014948e-11
4.89264773004e-10
1.5290131114e-09
3.22167086077e-12
4.96343376836e-10
1.57237886485e-09
-1.07677721456e-11
4.98729333318e-10
1.58709542348e-09
-2.37862698944e-11
4.96213012916e-10
1.5721831265e-09
-3.40474071914e-11
4.89000474142e-10
1.52863284484e-09
-4.0012369553e-11
4.77394120031e-10
1.45796546132e-09
-4.05572137454e-11
4.61843987316e-10
1.36247573077e-09
-3.5017483185e-11
4.42963142554e-10
1.24544859587e-09
-2.30651122937e-11
4.21777161923e-10
1.11112399345e-09
3.95279855177e-10
9.64303410308e-10
-3.94862505938e-12
1.75209388581e-11
8.67252086765e-10
-1.46333632745e-13
3.33003372933e-10
2.98335812188e-11
1.01356709441e-09
3.52248419943e-10
3.51247987203e-11
1.14500470867e-09
3.68484117654e-10
3.39751945572e-11
1.2579845079e-09
3.82869140889e-10
2.73348202472e-11
1.34921757687e-09
3.94635287211e-10
1.65211281722e-11
1.41619377753e-09
4.03353659273e-10
3.15380078929e-12
1.45712776194e-09
4.08683507284e-10
-1.09928150778e-11
1.47088695669e-09
4.10418120996e-10
-2.41885317607e-11
1.45692791915e-09
4.08488120349e-10
-3.46678188656e-11
1.41580477088e-09
4.02961265891e-10
-4.08272777119e-11
1.34866124822e-09
3.94042447698e-10
-4.1372523263e-11
1.25729574715e-09
3.82070636989e-10
-3.5377695281e-11
1.14423678864e-09
3.67474596011e-10
-2.22974794857e-11
1.01274931518e-09
3.50995837534e-10
8.6646175394e-10
-4.13063823548e-12
3.31581357018e-10
1.28305433719e-12
-1.41921466153e-11
1.71413399937e-10
-8.36082217184e-15
2.0605973783e-12
-1.58484699294e-11
1.90310130811e-10
2.44769093148e-12
-1.75809413397e-11
2.08746751981e-10
2.44493592132e-12
-1.91399667462e-11
2.25663579744e-10
2.05854986238e-12
-2.04547024744e-11
2.40021188051e-10
1.35552984804e-12
-2.14467199966e-11
2.50962664236e-10
4.4424460078e-13
-2.20671414802e-11
2.57902541584e-10
-5.40207613243e-13
-2.22819115394e-11
2.60388229406e-10
-1.44785948513e-12
-2.20517459185e-11
2.57887163752e-10
-2.14472144719e-12
-2.14200863364e-11
2.50932377582e-10
-2.52565366997e-12
-2.04232545582e-11
2.39976806719e-10
-2.52607347953e-12
-1.91063485007e-11
2.25606037621e-10
-2.12807525958e-12
-1.75352931107e-11
2.0867654858e-10
-1.34044522087e-12
-1.58081897213e-11
1.90224934678e-10
-1.4160281074e-11
1.71301963344e-10
-4.90348361506e-14
3.03292853439e-12
-3.01128716458e-11
4.58177647124e-10
-1.87143293326e-14
5.05685740045e-12
-3.31944849957e-11
5.07989511815e-10
6.1062540346e-12
-3.63045299424e-11
5.56540229999e-10
6.14451275034e-12
-3.90331721654e-11
6.01054187224e-10
5.19278626364e-12
-4.12583336099e-11
6.38815384237e-10
3.41592191978e-12
-4.28952986319e-11
6.67582392758e-10
1.09318551892e-12
-4.39028431058e-11
6.85817667758e-10
-1.42080702926e-12
-4.42479855285e-11
6.92334432059e-10
-3.73284223531e-12
-4.38640795297e-11
6.857720063e-10
-5.49097994777e-12
-4.28252346058e-11
6.6749257275e-10
-6.42259806919e-12
-4.11693285084e-11
6.38684000818e-10
-6.36549388507e-12
-3.89330748354e-11
6.00884301495e-10
-5.28350957317e-12
-3.61858104262e-11
5.56333726894e-10
-3.22071702276e-12
-3.308045869e-11
5.07740621486e-10
-3.00231373373e-11
4.57863499271e-10
-1.59316606312e-13
4.13301832148e-12
-4.02128327486e-11
6.90384999238e-10
-2.73860645697e-14
7.03783915821e-12
-4.37562535632e-11
7.65466517241e-10
8.58886588582e-12
-4.71314917391e-11
8.38535685223e-10
8.68651209486e-12
-4.99432520142e-11
9.05476143349e-10
7.35652650385e-12
-5.21087783506e-11
9.62238853088e-10
4.82762663356e-12
-5.36259091364e-11
1.00547047782e-09
1.50162037184e-12
-5.45275971841e-11
1.03285646629e-09
-2.10298411539e-12
-5.48280897077e-11
1.0426202364e-09
-5.41089101643e-12
-5.44671021663e-11
1.03278224898e-09
-7.90710557308e-12
-5.35146088932e-11
1.00532464708e-09
-9.19739280101e-12
-5.19631718538e-11
9.62025957681e-10
-9.05552766206e-12
-4.97762794144e-11
9.05201752363e-10
-7.4442254976e-12
-4.69424529711e-11
8.38204023815e-10
-4.46727514076e-12
-4.35708777173e-11
7.65071397396e-10
-4.00661657055e-11
6.89897852466e-10
-2.83784773335e-13
4.78161619637e-12
-4.5123148996e-11
8.75711925024e-10
-3.37086604786e-14
8.27249251152e-12
-4.84181385828e-11
9.71440905928e-10
1.0189012638e-11
-5.12245887976e-11
1.06440018466e-09
1.03542387219e-11
-5.32844351265e-11
1.1494664623e-09
8.78403399001e-12
-5.46459432885e-11
1.22155534604e-09
5.74552988686e-12
-5.54576295433e-11
1.27643806909e-09
1.72595891978e-12
-5.58778518233e-11
1.31117748563e-09
-2.6356046378e-12
-5.60016722665e-11
1.32353311082e-09
-6.62909524259e-12
-5.57991841092e-11
1.31107688174e-09
-9.61938954966e-12
-5.53108705904e-11
1.27624064007e-09
-1.11267184436e-11
-5.44493000414e-11
1.22126777854e-09
-1.08873258328e-11
-5.3055728598e-11
1.14909726959e-09
-8.87824371894e-12
-5.09725544532e-11
1.06395697965e-09
-5.28103846668e-12
-4.8171280212e-11
9.70919814173e-10
-4.49205086634e-11
8.75084317647e-10
-4.22633066631e-13
5.10608879895e-12
-4.55780264913e-11
1.0182245446e-09
-3.85255352609e-14
8.93960913483e-12
-4.81422795666e-11
1.1304898477e-09
1.10890481647e-11
-4.9818855226e-11
1.23920624318e-09
1.13105831443e-11
-5.0567863587e-11
1.33854396536e-09
9.60241267823e-12
-5.06378454695e-11
1.422655075e-09
6.25034852821e-12
-5.03666979948e-11
1.48665373796e-09
1.79533283266e-12
-5.00650224288e-11
1.52712547884e-09
-3.04282313503e-12
-4.99282875254e-11
1.54148323449e-09
-7.46301415252e-12
-4.99722549625e-11
1.52700070623e-09
-1.07496046608e-11
-5.01922601013e-11
1.48640923882e-09
-1.23691059914e-11
-5.04012529565e-11
1.42229990313e-09
-1.20406030634e-11
-5.02905800129e-11
1.33809006079e-09
-9.76300961613e-12
-4.95164305851e-11
1.23866556483e-09
-5.78713649948e-12
-4.78486658301e-11
1.12986241161e-09
-4.53270452184e-11
1.01748445391e-09
-5.74152095656e-13
5.20850620558e-12
-4.24861513605e-11
1.12176006695e-09
-4.19142003272e-14
9.18431875388e-12
-4.40477947798e-11
1.24691987332e-09