/*--------------------------------*- C++ -*----------------------------------*\
  =========                 |
  \\      /  F ield         | OpenFOAM: The Open Source CFD Toolbox
   \\    /   O peration     | Website:  https://openfoam.org
    \\  /    A nd           | Version:  7
     \\/     M anipulation  |
\*---------------------------------------------------------------------------*/
FoamFile
{
    version     2.0;
    format      ascii;
    class       volScalarField;
    location    "1.6";
    object      p;
}
// * * * * * * * * * * * * * * * * * * * * * * * * * * * * * * * * * * * * * //

dimensions      [0 2 -2 0 0 0 0];

internalField   nonuniform List<scalar> 
22500
(
-5.46584675422e-06
-5.46585405007e-06
-5.46658956268e-06
-5.46700414731e-06
-5.46741313639e-06
-5.46770654651e-06
-5.46788690771e-06
-5.46793993443e-06
-5.46787365242e-06
-5.46768045841e-06
-5.46737478699e-06
-5.46695270097e-06
-5.46652286889e-06
-5.46576963012e-06
-5.46572391028e-06
-5.46338816678e-06
-5.46317346119e-06
-5.46383079292e-06
-5.46419403184e-06
-5.46457619388e-06
-5.46485755344e-06
-5.46503405865e-06
-5.46508721017e-06
-5.46502028396e-06
-5.46483018751e-06
-5.46453533201e-06
-5.46413860117e-06
-5.46375788761e-06
-5.46308088658e-06
-5.46325627248e-06
-5.46026613456e-06
-5.4597831222e-06
-5.46027397416e-06
-5.46050489756e-06
-5.46079944647e-06
-5.4610217259e-06
-5.46116510798e-06
-5.46120777607e-06
-5.46115005028e-06
-5.46099161547e-06
-5.46075412395e-06
-5.46044331198e-06
-5.46019307208e-06
-5.4596815592e-06
-5.46012470048e-06
-5.45636008583e-06
-5.45555305926e-06
-5.45575189815e-06
-5.45575350551e-06
-5.45587451662e-06
-5.45597337793e-06
-5.45604293085e-06
-5.45606094033e-06
-5.4560262685e-06
-5.45593993695e-06
-5.45582397479e-06
-5.45568493156e-06
-5.45566256322e-06
-5.4554424951e-06
-5.45621016789e-06
-5.45144416313e-06
-5.45021326004e-06
-5.44998091562e-06
-5.44964343366e-06
-5.44949244844e-06
-5.44939386348e-06
-5.44934274306e-06
-5.4493199388e-06
-5.44932411424e-06
-5.44935644093e-06
-5.44943593499e-06
-5.44956717201e-06
-5.44988280393e-06
-5.45009348836e-06
-5.45128605859e-06
-5.44540055289e-06
-5.44361293089e-06
-5.44281017934e-06
-5.44201695351e-06
-5.44148995794e-06
-5.44111481999e-06
-5.44089296803e-06
-5.44081204954e-06
-5.44087193078e-06
-5.44107262195e-06
-5.44142647831e-06
-5.44193197421e-06
-5.44270242528e-06
-5.44348334319e-06
-5.44523448444e-06
-5.43817379435e-06
-5.43567358865e-06
-5.43416633217e-06
-5.43280041225e-06
-5.43179358976e-06
-5.43106223461e-06
-5.43061922736e-06
-5.43046278885e-06
-5.43059540038e-06
-5.43101457022e-06
-5.43172230266e-06
-5.43270587996e-06
-5.43404831785e-06
-5.43553358451e-06
-5.43799962119e-06
-5.42973722299e-06
-5.42635782044e-06
-5.42402239069e-06
-5.42197364785e-06
-5.42038967368e-06
-5.41922690328e-06
-5.41851519973e-06
-5.41826680686e-06
-5.41848817065e-06
-5.41917302657e-06
-5.420309629e-06
-5.42186854127e-06
-5.42389317101e-06
-5.42620656312e-06
-5.42955454122e-06
-5.42009095194e-06
-5.41567144332e-06
-5.41240095257e-06
-5.40957461336e-06
-5.40732997894e-06
-5.40567089074e-06
-5.40464958649e-06
-5.40429512209e-06
-5.40461900453e-06
-5.40561016126e-06
-5.40724033224e-06
-5.40945799206e-06
-5.41225955328e-06
-5.41550797299e-06
-5.41989845887e-06
-5.4092688003e-06
-5.4036733432e-06
-5.39938557877e-06
-5.39571065873e-06
-5.39274255298e-06
-5.39053802704e-06
-5.38917642622e-06
-5.38870530659e-06
-5.38914198937e-06
-5.39046987723e-06
-5.39264250009e-06
-5.39558153338e-06
-5.39923084495e-06
-5.40349636958e-06
-5.40906499847e-06
-5.39734533698e-06
-5.39048076531e-06
-5.3851285093e-06
-5.38056539343e-06
-5.37683728514e-06
-5.37405846551e-06
-5.37233893795e-06
-5.37174520119e-06
-5.37230043681e-06
-5.3739824635e-06
-5.37672618712e-06
-5.38042285324e-06
-5.38495920364e-06
-5.39028873711e-06
-5.39712762267e-06
-5.38439419177e-06
-5.37625771512e-06
-5.36985591506e-06
-5.36440428354e-06
-5.35990977337e-06
-5.35655127984e-06
-5.3544716995e-06
-5.35375479222e-06
-5.35442901693e-06
-5.35646718335e-06
-5.35978715146e-06
-5.36424755782e-06
-5.36967080198e-06
-5.37604891047e-06
-5.38415979335e-06
-5.3704112694e-06
-5.36124274069e-06
-5.35389639656e-06
-5.34758779721e-06
-5.34234807038e-06
-5.33843062771e-06
-5.33600715458e-06
-5.33517320538e-06
-5.33596035789e-06
-5.33833850827e-06
-5.34221387477e-06
-5.34741651133e-06
-5.35369451561e-06
-5.3610156692e-06
-5.37015797933e-06
-5.35596277254e-06
-5.34604492686e-06
-5.33773314605e-06
-5.33054625116e-06
-5.32457866596e-06
-5.32013985441e-06
-5.31740448885e-06
-5.31646572436e-06
-5.31735397244e-06
-5.32004036369e-06
-5.32443368796e-06
-5.33036092516e-06
-5.33751434931e-06
-5.34579804151e-06
-5.35568982829e-06
-5.34459037989e-06
-5.33147684006e-06
-5.32183942876e-06
-5.31356595787e-06
-5.30683070092e-06
-5.30188643099e-06
-5.29886147508e-06
-5.29782739359e-06
-5.29880788743e-06
-5.30178087069e-06
-5.30667651432e-06
-5.3133681036e-06
-5.32160396823e-06
-5.33120847755e-06
-5.34429779901e-06
-7.15391922053e-06
-7.15347683267e-06
-7.15285235097e-06
-7.15226478918e-06
-7.15173303502e-06
-7.15131965879e-06
-7.15105580052e-06
-7.15096109132e-06
-7.1510414938e-06
-7.15129042607e-06
-7.1516881354e-06
-7.1522066723e-06
-7.1527863698e-06
-7.15341322901e-06
-7.153871287e-06
-7.15175007184e-06
-7.15131400162e-06
-7.15068403053e-06
-7.15009501054e-06
-7.14955981786e-06
-7.14914310956e-06
-7.14887650468e-06
-7.14878034275e-06
-7.14886106722e-06
-7.14911172204e-06
-7.14951208566e-06
-7.15003339925e-06
-7.15061492286e-06
-7.15124795457e-06
-7.1517002549e-06
-7.15062720548e-06
-7.15031512443e-06
-7.14978117633e-06
-7.14928708156e-06
-7.14882920251e-06
-7.14847065101e-06
-7.14823978681e-06
-7.14815572227e-06
-7.14822469273e-06
-7.14844019955e-06
-7.14878340407e-06
-7.14922830332e-06
-7.14971556154e-06
-7.15025221059e-06
-7.150579207e-06
-7.15077626149e-06
-7.15066383547e-06
-7.15028829987e-06
-7.14994418732e-06
-7.14960915175e-06
-7.14934217665e-06
-7.14916761254e-06
-7.14910268304e-06
-7.1491532374e-06
-7.14931339125e-06
-7.14956624186e-06
-7.14988928845e-06
-7.1502268565e-06
-7.15060424678e-06
-7.15072995406e-06
-7.15166399826e-06
-7.15174555116e-06
-7.15152015563e-06
-7.15131269485e-06
-7.15108752594e-06
-7.15090064658e-06
-7.15077468584e-06
-7.15072625558e-06
-7.1507611939e-06
-7.15087378019e-06
-7.15104770677e-06
-7.15126177729e-06
-7.15146276406e-06
-7.15168881472e-06
-7.1516188742e-06
-7.15285911355e-06
-7.15306751754e-06
-7.15293498844e-06
-7.15280514116e-06
-7.15263896869e-06
-7.15249258512e-06
-7.15239025873e-06
-7.15234979978e-06
-7.15237772558e-06
-7.15246772814e-06
-7.15260221982e-06
-7.15275796812e-06
-7.15288119275e-06
-7.1530129352e-06
-7.15281442414e-06
-7.15404284467e-06
-7.15427420087e-06
-7.15415319671e-06
-7.15402196724e-06
-7.15384910873e-06
-7.15369361698e-06
-7.15358419864e-06
-7.15354133951e-06
-7.15357274305e-06
-7.15367094838e-06
-7.15381557851e-06
-7.15397862194e-06
-7.15410291299e-06
-7.15422171439e-06
-7.15399809888e-06
-7.15497659057e-06
-7.15511536022e-06
-7.15492126791e-06
-7.15471051025e-06
-7.15446785881e-06
-7.15425687373e-06
-7.15411211292e-06
-7.15405744133e-06
-7.15410184691e-06
-7.1542365441e-06
-7.15443764536e-06
-7.15467099995e-06
-7.15487441957e-06
-7.15506476811e-06
-7.15493161208e-06
-7.15550528157e-06
-7.15544397169e-06
-7.15510345896e-06
-7.15474891009e-06
-7.15438617561e-06
-7.15408381942e-06
-7.15388231497e-06
-7.15380879029e-06
-7.15387337855e-06
-7.15406605042e-06
-7.15435952041e-06
-7.15471344673e-06
-7.15506025134e-06
-7.1553954992e-06
-7.15546006894e-06
-7.15555185601e-06
-7.1552044305e-06
-7.15466238758e-06
-7.15411893869e-06
-7.15360224371e-06
-7.15318526332e-06
-7.15291355777e-06
-7.15281679995e-06
-7.15290604141e-06
-7.15317021547e-06
-7.15357933365e-06
-7.15408776756e-06
-7.15462313872e-06
-7.1551585622e-06
-7.15550679871e-06
-7.15509964654e-06
-7.15440785302e-06
-7.15362857735e-06
-7.15287022206e-06
-7.1521815072e-06
-7.15163869432e-06
-7.1512907288e-06
-7.15116892408e-06
-7.15128474881e-06
-7.15162657744e-06
-7.15216265974e-06
-7.15284372754e-06
-7.15359383908e-06
-7.15436542532e-06
-7.1550555755e-06
-7.15417829921e-06
-7.15311102478e-06
-7.15207483864e-06
-7.15109136475e-06
-7.15022614787e-06
-7.14955643523e-06
-7.14913258029e-06
-7.14898595794e-06
-7.14912824728e-06
-7.14954745692e-06
-7.1502116657e-06
-7.15107003858e-06
-7.15204536458e-06
-7.1530731799e-06
-7.15413695402e-06
-7.15286292571e-06
-7.15139755994e-06
-7.15009280945e-06
-7.1488868227e-06
-7.14785277021e-06
-7.14706466768e-06
-7.14657063508e-06
-7.14640162678e-06
-7.14656798977e-06
-7.1470589748e-06
-7.14784298228e-06
-7.14887118226e-06
-7.15006943747e-06
-7.15136559353e-06
-7.15282583639e-06
-7.15119114136e-06
-7.14930552463e-06
-7.14775238934e-06
-7.1463501586e-06
-7.14517554378e-06
-7.14429123197e-06
-7.14374176403e-06
-7.14355469963e-06
-7.14374074273e-06
-7.14428873388e-06
-7.14517026331e-06
-7.14634023364e-06
-7.14773581248e-06
-7.14928087392e-06
-7.15115988672e-06
-7.1487487748e-06
-7.14686444692e-06
-7.14513660132e-06
-7.14360349023e-06
-7.14234532735e-06
-7.14140672796e-06
-7.14082633991e-06
-7.14063005851e-06
-7.1408265079e-06
-7.14140670232e-06
-7.14234386599e-06
-7.14359879881e-06
-7.14512663227e-06
-7.14684863223e-06
-7.14872595273e-06
-5.22083383704e-06
-5.22108608071e-06
-5.22135271517e-06
-5.22160860652e-06
-5.22183131528e-06
-5.22200224458e-06
-5.22210956043e-06
-5.22214667041e-06
-5.22211110089e-06
-5.22200625747e-06
-5.22183969281e-06
-5.22162329077e-06
-5.22137510488e-06
-5.22111834918e-06
-5.22087412944e-06
-5.22116153306e-06
-5.22140984102e-06
-5.22167837974e-06
-5.22193750425e-06
-5.22216432897e-06
-5.22233914984e-06
-5.2224494674e-06
-5.22248808308e-06
-5.22245208284e-06
-5.22234519667e-06
-5.22217543732e-06
-5.22195533847e-06
-5.22170392249e-06
-5.22144446349e-06
-5.22120378067e-06
-5.22113273849e-06
-5.22135115267e-06
-5.22159513987e-06
-5.22183415972e-06
-5.22204560551e-06
-5.22220971154e-06
-5.22231392216e-06
-5.22235079164e-06
-5.22231718728e-06
-5.22221690785e-06
-5.22205808088e-06
-5.22185339418e-06
-5.22162218092e-06
-5.22138704497e-06
-5.2211763472e-06
-5.22101567566e-06
-5.22120767673e-06
-5.22142908442e-06
-5.22164835865e-06
-5.22184445155e-06
-5.22199771629e-06
-5.22209566835e-06
-5.22213066212e-06
-5.22209941403e-06
-5.22200572223e-06
-5.22185779826e-06
-5.22166842681e-06
-5.22145705936e-06
-5.2212447273e-06
-5.22106074468e-06
-5.22090037572e-06
-5.22107304983e-06
-5.22127804689e-06
-5.2214822573e-06
-5.22166661044e-06
-5.2218115914e-06
-5.22190473631e-06
-5.22193825741e-06
-5.2219087828e-06
-5.22182011447e-06
-5.22168056934e-06
-5.22150301814e-06
-5.22130693537e-06
-5.2211114397e-06
-5.22094692623e-06
-5.22078603543e-06
-5.22094520929e-06
-5.2211382172e-06
-5.22133104318e-06
-5.22150638309e-06
-5.2216449322e-06
-5.22173431019e-06
-5.22176662754e-06
-5.22173847306e-06
-5.22165364471e-06
-5.22152054738e-06
-5.22135210145e-06
-5.22116769498e-06
-5.22098465178e-06
-5.22083412677e-06
-5.22067193441e-06
-5.22082259267e-06
-5.22100739985e-06
-5.22119226929e-06
-5.22136111078e-06
-5.22149495755e-06
-5.22158151046e-06
-5.22161286824e-06
-5.22158562713e-06
-5.2215035862e-06
-5.22137519356e-06
-5.22121337343e-06
-5.22103731708e-06
-5.22086291976e-06
-5.22072126207e-06
-5.22056280535e-06
-5.22071006638e-06
-5.22089037966e-06
-5.22107045451e-06
-5.22123507044e-06
-5.22136571603e-06
-5.22145024758e-06
-5.2214808292e-06
-5.22145413749e-06
-5.22137393826e-06
-5.22124866e-06
-5.2210911387e-06
-5.22092023195e-06
-5.22075088414e-06
-5.22061300872e-06
-5.22046253118e-06
-5.22061113666e-06
-5.22079011478e-06
-5.22096816629e-06
-5.22113049893e-06
-5.2212591499e-06
-5.22134224736e-06
-5.22137217031e-06
-5.22134574166e-06
-5.2212666599e-06
-5.22114321258e-06
-5.22098801273e-06
-5.22081942574e-06
-5.22065193312e-06
-5.22051300074e-06
-5.22037284286e-06
-5.22052715821e-06
-5.22070735076e-06
-5.22088554603e-06
-5.22104691769e-06
-5.22117426378e-06
-5.22125620417e-06
-5.22128546722e-06
-5.22125912526e-06
-5.22118072994e-06
-5.22105827985e-06
-5.22090396117e-06
-5.22073542962e-06
-5.22056712986e-06
-5.22042298102e-06
-5.22029464774e-06
-5.22045796658e-06
-5.22064127195e-06
-5.2208210681e-06
-5.22098212071e-06
-5.22110831478e-06
-5.22118898405e-06
-5.22121747686e-06
-5.22119115311e-06
-5.22111338e-06
-5.22099163649e-06
-5.2208374045e-06
-5.22066732906e-06
-5.22049613564e-06
-5.22034333578e-06
-5.22022658042e-06
-5.22040183529e-06
-5.22059010394e-06
-5.22077241751e-06
-5.22093318462e-06
-5.22105776615e-06
-5.22113671904e-06
-5.2211641711e-06
-5.22113794063e-06
-5.22106105845e-06
-5.2209402662e-06
-5.22078592566e-06
-5.22061316762e-06
-5.22043703412e-06
-5.22027248337e-06
-5.22016053572e-06
-5.22035364093e-06
-5.22055025915e-06
-5.22073624608e-06
-5.22089657927e-06
-5.22101902698e-06
-5.22109572321e-06
-5.22112186797e-06
-5.22109581768e-06
-5.22102014925e-06
-5.22090066763e-06
-5.22074610797e-06
-5.22056928814e-06
-5.22038452188e-06
-5.22020202303e-06
-5.22009709542e-06
-5.22031743424e-06
-5.22052182335e-06
-5.22071031985e-06
-5.22086865088e-06
-5.2209876928e-06
-5.22106132608e-06
-5.22108588733e-06
-5.22106016622e-06
-5.22098642881e-06
-5.22086932841e-06
-5.22071596948e-06
-5.22053590512e-06
-5.22034271449e-06
-5.22013275251e-06
-5.22020497493e-06
-5.22036680462e-06
-5.22055081119e-06
-5.22071719323e-06
-5.22085454442e-06
-5.22095704764e-06
-5.22101994761e-06
-5.22104038933e-06
-5.22101772883e-06
-5.22095365794e-06
-5.22085212962e-06
-5.22071871947e-06
-5.22055970041e-06
-5.22038556788e-06
-5.22023331855e-06
-6.19399411462e-06
-6.19382444089e-06
-6.19364524483e-06
-6.19346673733e-06
-6.19330980284e-06
-6.19318691127e-06
-6.19310747384e-06
-6.19307702291e-06
-6.19309777294e-06
-6.19316723599e-06
-6.19327983124e-06
-6.19342662654e-06
-6.19359532587e-06
-6.19376655534e-06
-6.19393352543e-06
-6.19387283152e-06
-6.19370825418e-06
-6.1935298875e-06
-6.19335092323e-06
-6.19319263913e-06
-6.19306834395e-06
-6.1929877415e-06
-6.19295668857e-06
-6.19297765069e-06
-6.1930479369e-06
-6.19316168792e-06
-6.19330954048e-06
-6.19347859446e-06
-6.19364923613e-06
-6.19381094474e-06
-6.19400260573e-06
-6.19386024373e-06
-6.19370167076e-06
-6.19353872708e-06
-6.19339286416e-06
-6.19327730423e-06
-6.19320181631e-06
-6.19317235203e-06
-6.19319153747e-06
-6.19325664436e-06
-6.1933617808e-06
-6.19349748565e-06
-6.19365081789e-06
-6.19380207585e-06
-6.19394101562e-06
-6.19415444947e-06
-6.19402947225e-06
-6.19388745118e-06
-6.19373861626e-06
-6.19360374145e-06
-6.19349600373e-06
-6.19342517721e-06
-6.19339723163e-06
-6.19341486708e-06
-6.19347536848e-06
-6.19357282837e-06
-6.19369774598e-06
-6.19383726806e-06
-6.19397218323e-06
-6.19409343125e-06
-6.19427645683e-06
-6.19416261081e-06
-6.19403198191e-06
-6.19389354517e-06
-6.19376688759e-06
-6.19366509253e-06
-6.19359780795e-06
-6.19357106827e-06
-6.19358758724e-06
-6.19364469633e-06
-6.1937364603e-06
-6.1938534126e-06
-6.19398285651e-06
-6.19410645474e-06
-6.19421631225e-06
-6.19438167434e-06
-6.19427515698e-06
-6.19415294597e-06
-6.19402247672e-06
-6.19390230123e-06
-6.19380527633e-06
-6.19374092652e-06
-6.19371523129e-06
-6.19373090737e-06
-6.19378530615e-06
-6.19387252253e-06
-6.19398319399e-06
-6.19410486719e-06
-6.19422022506e-06
-6.19432244967e-06
-6.1944774114e-06
-6.1943753025e-06
-6.19425912489e-06
-6.19413481373e-06
-6.19401989206e-06
-6.19392685066e-06
-6.19386501425e-06
-6.1938402647e-06
-6.19385529525e-06
-6.19390749898e-06
-6.19399104658e-06
-6.19409675973e-06
-6.19421249568e-06
-6.19432199052e-06
-6.19441950081e-06
-6.19456494945e-06
-6.19446494573e-06
-6.19435259912e-06
-6.19423279575e-06
-6.19412190962e-06
-6.19403208172e-06
-6.19397234754e-06
-6.1939484597e-06
-6.19396301267e-06
-6.19401348495e-06
-6.19409416378e-06
-6.1941961335e-06
-6.1943076199e-06
-6.19441338959e-06
-6.19450869622e-06
-6.19464524226e-06
-6.19454502774e-06
-6.19443461833e-06
-6.1943178722e-06
-6.19421005132e-06
-6.19412285748e-06
-6.19406494038e-06
-6.19404186247e-06
-6.19405608312e-06
-6.19410519439e-06
-6.19418367473e-06
-6.19428294826e-06
-6.19439167291e-06
-6.19449558814e-06
-6.19459092586e-06
-6.19471940515e-06
-6.19461716002e-06
-6.19450713341e-06
-6.19439222559e-06
-6.19428670077e-06
-6.19420168111e-06
-6.19414540415e-06
-6.19412310158e-06
-6.19413709209e-06
-6.19418509292e-06
-6.19426186854e-06
-6.19435927829e-06
-6.1944664918e-06
-6.19457016751e-06
-6.19466731975e-06
-6.19478863073e-06
-6.19468274107e-06
-6.19457174144e-06
-6.19445773151e-06
-6.19435397537e-06
-6.19427096989e-06
-6.19421629312e-06
-6.19419481897e-06
-6.19420861476e-06
-6.19425561668e-06
-6.19433095244e-06
-6.19442706209e-06
-6.1945337573e-06
-6.19463852088e-06
-6.19473908449e-06
-6.19485410159e-06
-6.19474316197e-06
-6.19462992568e-06
-6.19451600436e-06
-6.19441380241e-06
-6.19433276396e-06
-6.19427986365e-06
-6.19425925976e-06
-6.19427289165e-06
-6.1943188099e-06
-6.19439276765e-06
-6.19448791167e-06
-6.19459492548e-06
-6.1947021235e-06
-6.1948075736e-06
-6.1949207676e-06
-6.19480195229e-06
-6.194684214e-06
-6.19456917402e-06
-6.19446791137e-06
-6.19438893445e-06
-6.1943376923e-06
-6.19431816194e-06
-6.19433149467e-06
-6.19437643413e-06
-6.19444912926e-06
-6.19454386304e-06
-6.19465251327e-06
-6.19476438247e-06
-6.19487758024e-06
-6.19499146035e-06
-6.19485973452e-06
-6.19473606014e-06
-6.19461891793e-06
-6.19451857847e-06
-6.19444129629e-06
-6.19439203451e-06
-6.19437331582e-06
-6.19438657698e-06
-6.1944304153e-06
-6.19450199832e-06
-6.19459660168e-06
-6.19470785488e-06
-6.19482598357e-06
-6.19495181078e-06
-6.19497492921e-06
-6.1948606616e-06
-6.19474718366e-06
-6.1946430467e-06
-6.19455551856e-06
-6.19448889941e-06
-6.19444643571e-06
-6.19443049099e-06
-6.19444173972e-06
-6.19447943759e-06
-6.19454122277e-06
-6.19462363877e-06
-6.1947225237e-06
-6.1948309154e-06
-6.19493954118e-06
-5.046595609e-06
-5.04671669577e-06
-5.04684410279e-06
-5.04697032427e-06
-5.04708136945e-06
-5.04716804722e-06
-5.04722330491e-06
-5.0472435852e-06
-5.04722751214e-06
-5.04717690528e-06
-5.04709564135e-06
-5.04698998124e-06
-5.0468683541e-06
-5.04674456725e-06
-5.04662228623e-06
-5.04667159926e-06
-5.04678896266e-06
-5.04691552035e-06
-5.0470419748e-06
-5.04715398799e-06
-5.04724173499e-06
-5.04729793512e-06
-5.04731874561e-06
-5.04730256714e-06
-5.04725137486e-06
-5.04716926173e-06
-5.04706279808e-06
-5.04694087422e-06
-5.04681750998e-06
-5.04669907862e-06
-5.04656592776e-06
-5.04666739494e-06
-5.04678002412e-06
-5.04689549619e-06
-5.04699890659e-06
-5.04708052928e-06
-5.04713319393e-06
-5.04715295831e-06
-5.04713809597e-06
-5.04709059317e-06
-5.04701458127e-06
-5.04691671748e-06
-5.04680593832e-06
-5.04669642293e-06
-5.04659430086e-06
-5.04644830301e-06
-5.04653786986e-06
-5.0466392144e-06
-5.04674508952e-06
-5.04684087752e-06
-5.04691702769e-06
-5.0469665134e-06
-5.04698529413e-06
-5.0469715638e-06
-5.04692728736e-06
-5.04685662142e-06
-5.04676626403e-06
-5.04666511164e-06
-5.04656709755e-06
-5.04647741795e-06
-5.04635470199e-06
-5.04643671189e-06
-5.04653048518e-06
-5.04662946183e-06
-5.0467196365e-06
-5.04679168454e-06
-5.04683873054e-06
-5.04685671421e-06
-5.04684378346e-06
-5.04680188525e-06
-5.04673518479e-06
-5.04665036652e-06
-5.04655622333e-06
-5.04646615619e-06
-5.04638448021e-06
-5.04627428483e-06
-5.04635153242e-06
-5.04643965731e-06
-5.04653310787e-06
-5.04661861916e-06
-5.04668715564e-06
-5.04673206559e-06
-5.04674929102e-06
-5.0467369854e-06
-5.04669706142e-06
-5.04663366542e-06
-5.0465533856e-06
-5.04646483678e-06
-5.04638074748e-06
-5.04630464861e-06
-5.04620052443e-06
-5.04627446327e-06
-5.04635826896e-06
-5.04644723054e-06
-5.04652872954e-06
-5.04659412551e-06
-5.04663703741e-06
-5.04665349317e-06
-5.04664169586e-06
-5.04660351374e-06
-5.04654302487e-06
-5.04646665079e-06
-5.04638275796e-06
-5.04630333003e-06
-5.04623122624e-06
-5.0461314097e-06
-5.04620324531e-06
-5.04628383962e-06
-5.04636899923e-06
-5.04644691613e-06
-5.04650940142e-06
-5.04655039208e-06
-5.04656605385e-06
-5.04655467811e-06
-5.04651807019e-06
-5.04646019351e-06
-5.04638723241e-06
-5.04630724171e-06
-5.04623143679e-06
-5.04616213732e-06
-5.04606542537e-06
-5.0461359077e-06
-5.04621410149e-06
-5.0462960304e-06
-5.04637072036e-06
-5.04643045445e-06
-5.04646953632e-06
-5.04648436391e-06
-5.04647334012e-06
-5.04643819943e-06
-5.04638273255e-06
-5.04631281702e-06
-5.04623614098e-06
-5.04616314657e-06
-5.04609581012e-06
-5.04600088416e-06
-5.04607072749e-06
-5.04614708621e-06
-5.04622618029e-06
-5.04629783608e-06
-5.04635484601e-06
-5.04639198884e-06
-5.04640591076e-06
-5.04639520185e-06
-5.04636147302e-06
-5.04630829786e-06
-5.04624117231e-06
-5.04616734793e-06
-5.04609653314e-06
-5.04603056773e-06
-5.04593670362e-06
-5.0460062495e-06
-5.04608119666e-06
-5.04615777438e-06
-5.04622646817e-06
-5.0462807275e-06
-5.04631580306e-06
-5.04632875266e-06
-5.04631831695e-06
-5.04628601574e-06
-5.04623510037e-06
-5.04617060973e-06
-5.04609927215e-06
-5.04603010528e-06
-5.04596506596e-06
-5.04587170348e-06
-5.0459414426e-06
-5.04601552907e-06
-5.04608983949e-06
-5.04615562254e-06
-5.04620693984e-06
-5.04623981715e-06
-5.04625164972e-06
-5.04624150969e-06
-5.04621067182e-06
-5.04616206003e-06
-5.04610011216e-06
-5.04603088457e-06
-5.04596274968e-06
-5.04589802948e-06
-5.04580278243e-06
-5.04587419289e-06
-5.045948648e-06
-5.04602148621e-06
-5.04608451683e-06
-5.04613302027e-06
-5.04616354889e-06
-5.04617426178e-06
-5.04616430471e-06
-5.04613490579e-06
-5.04608845518e-06
-5.04602867333e-06
-5.04596072293e-06
-5.0458922176e-06
-5.04582620652e-06
-5.04572765762e-06
-5.04580387019e-06
-5.04587986378e-06
-5.04595179112e-06
-5.04601257493e-06
-5.04605827947e-06
-5.04608666024e-06
-5.04609613464e-06
-5.04608635462e-06
-5.04605821194e-06
-5.04601365959e-06
-5.04595563304e-06
-5.04588810626e-06
-5.0458179558e-06
-5.04574736191e-06
-5.04570836956e-06
-5.04577142645e-06
-5.04583763612e-06
-5.04589831118e-06
-5.04594824882e-06
-5.04598538393e-06
-5.04600799648e-06
-5.04601519747e-06
-5.04600675906e-06
-5.04598342818e-06
-5.0459467379e-06
-5.04589877719e-06
-5.04584206015e-06
-5.0457811369e-06
-5.0457235633e-06
-5.4263882502e-06
-5.42629509544e-06
-5.42620125099e-06
-5.42611079382e-06
-5.42603303067e-06
-5.42597349333e-06
-5.4259361913e-06
-5.4259236614e-06
-5.42593702878e-06
-5.42597507416e-06
-5.42603504669e-06
-5.4261124369e-06
-5.42620116908e-06
-5.42629126318e-06
-5.4263800935e-06
-5.42633338045e-06
-5.42624285968e-06
-5.4261494322e-06
-5.42605860306e-06
-5.42598014318e-06
-5.42591993709e-06
-5.42588215304e-06
-5.42586942758e-06
-5.42588296458e-06
-5.42592144303e-06
-5.42598197483e-06
-5.42605985483e-06
-5.42614869741e-06
-5.42623839912e-06
-5.42632443046e-06
-5.42640812782e-06
-5.42632920094e-06
-5.42624621761e-06
-5.42616365076e-06
-5.42609154842e-06
-5.42603572166e-06
-5.42600046473e-06
-5.42598847544e-06
-5.42600103569e-06
-5.42603679605e-06
-5.42609284828e-06
-5.42616443517e-06
-5.42624515449e-06
-5.42632481057e-06
-5.42639908405e-06
-5.42649135054e-06
-5.42642160165e-06
-5.42634714624e-06
-5.42627163625e-06
-5.42620492635e-06
-5.42615285754e-06
-5.42611979995e-06
-5.42610847193e-06
-5.42612017676e-06
-5.42615356246e-06
-5.42620569924e-06
-5.42627181117e-06
-5.42634553444e-06
-5.42641687625e-06
-5.42648221426e-06
-5.42655720974e-06
-5.42649337365e-06
-5.42642480463e-06
-5.42635449392e-06
-5.42629176737e-06
-5.42624248099e-06
-5.42621101857e-06
-5.42620015657e-06
-5.42621119641e-06
-5.42624279401e-06
-5.42629200242e-06
-5.42635406147e-06
-5.42642269028e-06
-5.42648830616e-06
-5.42654793286e-06
-5.42661372232e-06
-5.4265540625e-06
-5.4264900304e-06
-5.42642374002e-06
-5.4263641791e-06
-5.42631715288e-06
-5.42628703375e-06
-5.4262765733e-06
-5.42628705506e-06
-5.42631713404e-06
-5.42636387825e-06
-5.42642259621e-06
-5.4264871451e-06
-5.42654846179e-06
-5.42660411028e-06
-5.42666561414e-06
-5.42660903053e-06
-5.42654859528e-06
-5.42648574282e-06
-5.42642898653e-06
-5.42638400301e-06
-5.42635510061e-06
-5.42634499278e-06
-5.42635493953e-06
-5.42638361561e-06
-5.42642813217e-06
-5.42648392432e-06
-5.42654503388e-06
-5.4266029754e-06
-5.42665575768e-06
-5.42671449055e-06
-5.42666038368e-06
-5.42660279251e-06
-5.426542855e-06
-5.42648854827e-06
-5.42644541628e-06
-5.42641764675e-06
-5.4264078768e-06
-5.42641730963e-06
-5.42644465859e-06
-5.4264871155e-06
-5.42654029074e-06
-5.42659846126e-06
-5.42665374459e-06
-5.42670446296e-06
-5.42676168672e-06
-5.42670935281e-06
-5.42665405967e-06
-5.42659670167e-06
-5.42654468274e-06
-5.4265033494e-06
-5.42647668882e-06
-5.42646725359e-06
-5.42647616771e-06
-5.4265022109e-06
-5.42654269959e-06
-5.42659346793e-06
-5.42664907328e-06
-5.42670224361e-06
-5.42675147351e-06
-5.42680831466e-06
-5.42675742298e-06
-5.42670402627e-06
-5.42664896925e-06
-5.42659912134e-06
-5.42655952845e-06
-5.42653399879e-06
-5.42652489496e-06
-5.42653327959e-06
-5.42655800291e-06
-5.42659655632e-06
-5.42664505298e-06
-5.42669838011e-06
-5.42674985724e-06
-5.42679798416e-06
-5.42685546673e-06
-5.42680560196e-06
-5.42675370051e-06
-5.42670075719e-06
-5.42665301228e-06
-5.42661524554e-06
-5.42659089002e-06
-5.42658216003e-06
-5.42658997799e-06
-5.4266133313e-06
-5.42664992046e-06
-5.42669620933e-06
-5.4267474791e-06
-5.42679761233e-06
-5.42684496904e-06
-5.4269038817e-06
-5.42685459331e-06
-5.42680379864e-06
-5.426752713e-06
-5.42670713493e-06
-5.42667119291e-06
-5.42664815222e-06
-5.42663978788e-06
-5.42664702777e-06
-5.42666890198e-06
-5.42670345804e-06
-5.42674756948e-06
-5.42679701764e-06
-5.42684622683e-06
-5.4268932506e-06
-5.42695594129e-06
-5.42690600227e-06
-5.42685526563e-06
-5.42680556052e-06
-5.42676171765e-06
-5.42672773066e-06
-5.42670583225e-06
-5.42669795301e-06
-5.42670450771e-06
-5.42672494828e-06
-5.42675753701e-06
-5.42679972654e-06
-5.42684794037e-06
-5.42689720956e-06
-5.42694509643e-06
-5.42701295702e-06
-5.4269599123e-06
-5.42690852633e-06
-5.42685941742e-06
-5.42681734121e-06
-5.42678479483e-06
-5.42676421185e-06
-5.42675656962e-06
-5.42676259626e-06
-5.42678163276e-06
-5.42681244641e-06
-5.42685300663e-06
-5.42690057184e-06
-5.42695071653e-06
-5.42700174851e-06
-5.42702863906e-06
-5.42698627186e-06
-5.42694229336e-06
-5.42690164684e-06
-5.42686710337e-06
-5.42684068153e-06
-5.42682374636e-06
-5.42681739848e-06
-5.42682192834e-06
-5.42683702017e-06
-5.42686171454e-06
-5.42689456324e-06
-5.4269338283e-06
-5.42697660385e-06
-5.42701737613e-06
-4.709910174e-06
-4.70996792438e-06
-4.71003228628e-06
-4.71009834402e-06
-4.71015717177e-06
-4.71020356689e-06
-4.71023428669e-06
-4.71024739017e-06
-4.71024204436e-06
-4.71021910935e-06
-4.71018050762e-06
-4.71012941659e-06
-4.71007005446e-06
-4.71000944367e-06
-4.70994926659e-06
-4.7099473477e-06
-4.71000344849e-06
-4.71006744209e-06
-4.71013345248e-06
-4.71019254084e-06
-4.71023933197e-06
-4.71027039695e-06
-4.71028366349e-06
-4.71027820411e-06
-4.71025494491e-06
-4.71021591932e-06
-4.71016444541e-06
-4.71010497203e-06
-4.71004461705e-06
-4.70998641617e-06
-4.70989072003e-06
-4.70993883673e-06
-4.7099955166e-06
-4.7100556122e-06
-4.71011014337e-06
-4.71015379082e-06
-4.71018301111e-06
-4.71019569296e-06
-4.71019087073e-06
-4.71016949483e-06
-4.71013361614e-06
-4.71008659211e-06
-4.71003288193e-06
-4.70997969268e-06
-4.7099298926e-06
-4.70982873675e-06
-4.70987082379e-06
-4.70992157953e-06
-4.7099765121e-06
-4.7100270129e-06
-4.71006783021e-06
-4.71009536102e-06
-4.71010746865e-06
-4.71010316972e-06
-4.71008341448e-06
-4.71005026731e-06
-4.71000709832e-06
-4.7099583394e-06
-4.70991108263e-06
-4.70986765735e-06
-4.70977966583e-06
-4.70981804486e-06
-4.70986483298e-06
-4.70991596778e-06
-4.70996341719e-06
-4.71000203821e-06
-4.7100282404e-06
-4.71003985977e-06
-4.71003590932e-06
-4.71001732893e-06
-4.70998618916e-06
-4.70994584715e-06
-4.70990067391e-06
-4.70985751532e-06
-4.70981819471e-06
-4.70973782182e-06
-4.70977395506e-06
-4.70981771451e-06
-4.70986581061e-06
-4.70991068828e-06
-4.70994738478e-06
-4.70997237038e-06
-4.70998349901e-06
-4.70997978863e-06
-4.70996216438e-06
-4.70993268216e-06
-4.70989464426e-06
-4.70985232347e-06
-4.70981224415e-06
-4.7097758062e-06
-4.70969971637e-06
-4.70973430681e-06
-4.7097757328e-06
-4.70982128651e-06
-4.70986387058e-06
-4.70989877874e-06
-4.70992259416e-06
-4.70993321828e-06
-4.70992968579e-06
-4.70991289946e-06
-4.70988487473e-06
-4.70984882056e-06
-4.70980888132e-06
-4.70977122918e-06
-4.70973688453e-06
-4.70966417981e-06
-4.70969774255e-06
-4.70973735409e-06
-4.70978070809e-06
-4.70982121954e-06
-4.70985443751e-06
-4.70987710544e-06
-4.70988719977e-06
-4.70988379682e-06
-4.7098677647e-06
-4.70984105318e-06
-4.70980674403e-06
-4.70976882106e-06
-4.70973308593e-06
-4.7097002944e-06
-4.70963025563e-06
-4.7096631299e-06
-4.70970131146e-06
-4.70974273279e-06
-4.70978131468e-06
-4.70981288739e-06
-4.70983440354e-06
-4.70984394057e-06
-4.70984063693e-06
-4.70982531046e-06
-4.70979981912e-06
-4.70976708181e-06
-4.70973089762e-06
-4.7096967011e-06
-4.70966507851e-06
-4.70959698921e-06
-4.70962942895e-06
-4.7096664121e-06
-4.7097060855e-06
-4.70974282762e-06
-4.70977278258e-06
-4.70979312265e-06
-4.70980207801e-06
-4.70979885491e-06
-4.7097842143e-06
-4.70975989306e-06
-4.70972861087e-06
-4.70969395194e-06
-4.70966099875e-06
-4.7096303262e-06
-4.70956364929e-06
-4.70959577696e-06
-4.70963179127e-06
-4.70966987163e-06
-4.70970482555e-06
-4.70973312573e-06
-4.70975224195e-06
-4.7097605731e-06
-4.70975742122e-06
-4.70974347525e-06
-4.70972031039e-06
-4.70969040779e-06
-4.70965709798e-06
-4.70962513538e-06
-4.70959522127e-06
-4.70952951097e-06
-4.70956157911e-06
-4.70959691198e-06
-4.70963356031e-06
-4.70966673629e-06
-4.70969335025e-06
-4.70971115128e-06
-4.7097188191e-06
-4.70971573099e-06
-4.70970250482e-06
-4.70968051748e-06
-4.70965194099e-06
-4.70961978331e-06
-4.70958849582e-06
-4.70955907639e-06
-4.70949283068e-06
-4.70952564985e-06
-4.70956102033e-06
-4.70959666882e-06
-4.70962828464e-06
-4.70965318913e-06
-4.7096697156e-06
-4.70967665152e-06
-4.70967362227e-06
-4.70966108157e-06
-4.70964018262e-06
-4.70961272376e-06
-4.70958126918e-06
-4.70954991163e-06
-4.70952014157e-06
-4.70945221694e-06
-4.70948738787e-06
-4.70952359137e-06
-4.70955877323e-06
-4.70958904227e-06
-4.70961251057e-06