/*--------------------------------*- C++ -*----------------------------------*\
  =========                 |
  \\      /  F ield         | OpenFOAM: The Open Source CFD Toolbox
   \\    /   O peration     | Website:  https://openfoam.org
    \\  /    A nd           | Version:  7
     \\/     M anipulation  |
\*---------------------------------------------------------------------------*/
FoamFile
{
    version     2.0;
    format      ascii;
    class       volVectorField;
    location    "1.6";
    object      U;
}
// * * * * * * * * * * * * * * * * * * * * * * * * * * * * * * * * * * * * * //

dimensions      [0 1 -1 0 0 0 0];

internalField   nonuniform List<vector> 
22500
(
(-1.34725970686e-05 -1.53373898254e-05 1.24977064573e-06)
(-1.23422648165e-05 -1.75616009485e-05 1.93063783116e-06)
(-1.07675701644e-05 -1.96660291984e-05 2.9756165937e-06)
(-8.98946214554e-06 -2.14486688821e-05 4.11349583781e-06)
(-6.95447905606e-06 -2.28987240492e-05 5.16642236324e-06)
(-4.74889729917e-06 -2.39641969011e-05 6.00496883639e-06)
(-2.42017425755e-06 -2.46169799576e-05 6.53786365865e-06)
(-2.7886259868e-08 -2.48391901489e-05 6.71242794944e-06)
(2.36485048348e-06 -2.46235380268e-05 6.51729258603e-06)
(4.6948588966e-06 -2.39771559725e-05 5.96387370376e-06)
(6.90232954409e-06 -2.29177694655e-05 5.10500716272e-06)
(8.93956792392e-06 -2.14732146189e-05 4.03207214503e-06)
(1.07206246569e-05 -1.96953807988e-05 2.87429513135e-06)
(1.22978961589e-05 -1.75951687038e-05 1.80883149281e-06)
(1.34354994908e-05 -1.53713863236e-05 1.10710002277e-06)
(-4.05239820233e-05 -4.58762257703e-05 -6.82848690432e-05)
(-3.71239404948e-05 -5.23918507602e-05 -7.34928910558e-05)
(-3.24770149336e-05 -5.85759792425e-05 -7.72900807328e-05)
(-2.711937047e-05 -6.38501966889e-05 -8.00730011071e-05)
(-2.10059677766e-05 -6.81433553556e-05 -8.20737863375e-05)
(-1.43537550351e-05 -7.13022720063e-05 -8.34342547975e-05)
(-7.32090625483e-06 -7.32399061759e-05 -8.42397420807e-05)
(-9.1386147228e-08 -7.3899287387e-05 -8.45302219886e-05)
(7.13999220708e-06 -7.32589444175e-05 -8.43000602595e-05)
(1.4178286844e-05 -7.13397182131e-05 -8.35549528201e-05)
(2.08390950473e-05 -6.8197896803e-05 -8.22546159235e-05)
(2.69636136032e-05 -6.3919657571e-05 -8.03135999526e-05)
(3.23351503475e-05 -5.86575585272e-05 -7.75908089055e-05)
(3.69966446263e-05 -5.24830410056e-05 -7.3856223471e-05)
(4.04211605023e-05 -4.59680993174e-05 -6.8712362007e-05)
(-6.62685715404e-05 -7.45620443288e-05 -0.000203936934528)
(-6.05935413529e-05 -8.4943511273e-05 -0.000220944488855)
(-5.30430351605e-05 -9.47509619585e-05 -0.000235180403735)
(-4.42721373971e-05 -0.000103138306948 -0.000246848551002)
(-3.42943976999e-05 -0.000109962628235 -0.000256006651075)
(-2.34311616842e-05 -0.000114987040859 -0.000262629188523)
(-1.19462774488e-05 -0.000118070293526 -0.000266663228364)
(-1.40272848584e-07 -0.000119119648066 -0.000268055404603)
(1.16685064539e-05 -0.00011810060308 -0.000266759432685)
(2.31615408313e-05 -0.000115046550244 -0.000262822025937)
(3.40377540941e-05 -0.000110048968014 -0.000256296182353)
(4.40324064709e-05 -0.000103247754085 -0.00024723481009)
(5.2824282034e-05 -9.48785334707e-05 -0.000235664616239)
(6.03978003492e-05 -8.50847400611e-05 -0.000221531593233)
(6.61092515986e-05 -7.47048633464e-05 -0.000204631170582)
(-9.00286114158e-05 -0.000100793361945 -0.000393385654643)
(-8.21646147899e-05 -0.000114440149351 -0.000425638745892)
(-7.19119780987e-05 -0.00012725269844 -0.000453390662404)
(-5.9969579877e-05 -0.000138216605465 -0.000476546595841)
(-4.64359273375e-05 -0.000147128573994 -0.000494923681592)
(-3.17139374736e-05 -0.000153689170119 -0.000508293404897)
(-1.6160713145e-05 -0.000157714756551 -0.000516447784575)
(-1.78006990892e-07 -0.000159084138334 -0.000519235074451)
(1.58080774125e-05 -0.000157752776476 -0.000516572177481)
(3.13712769021e-05 -0.000153763796335 -0.000508543395002)
(4.61093511727e-05 -0.000147236735546 -0.000495300304186)
(5.96642862718e-05 -0.000138353563239 -0.000477051153276)
(7.16331683779e-05 -0.000127411995892 -0.000454026144796)
(8.19156994187e-05 -0.000114616110741 -0.000426413577739)
(8.98243184445e-05 -0.000100972558488 -0.000394309073264)
(-0.000111257554381 -0.000124074554414 -0.000620207229772)
(-0.000101349991717 -0.000140277403188 -0.000668370966855)
(-8.86280380621e-05 -0.000155380401573 -0.000709954572821)
(-7.38196420166e-05 -0.000168295527655 -0.000744672580025)
(-5.71164060565e-05 -0.00017877754586 -0.000772190365949)
(-3.89824068429e-05 -0.000186489999397 -0.000792167654965)
(-1.9850393024e-05 -0.00019122065725 -0.000804319650922)
(-2.02581417318e-07 -0.000192828793795 -0.000808450599023)
(1.94488503302e-05 -0.000191263174116 -0.000804464219197)
(3.85916072849e-05 -0.000186573491512 -0.00079245900392)
(5.67431085471e-05 -0.000178898610274 -0.000772630915887)
(7.34698197627e-05 -0.000168448948705 -0.000745265423491)
(8.83076138849e-05 -0.000155559025903 -0.000710704959697)
(0.000101063425046 -0.000140475013087 -0.000669291383138)
(0.000111019610085 -0.000124277775698 -0.000621313527956)
(-0.000129583846787 -0.000144072111629 -0.000867356995692)
(-0.000117813957593 -0.00016207162823 -0.000929799668681)
(-0.000102885960994 -0.000178722733513 -0.000983375891488)
(-8.55666165779e-05 -0.000192939414031 -0.00102784869712)
(-6.61360566658e-05 -0.000204456484422 -0.00106290087341)
(-4.51000703944e-05 -0.00021292503451 -0.00108822422395)
(-2.29469002726e-05 -0.000218117180833 -0.00110356742548)
(-2.16210180803e-07 -0.00021988100158 -0.00110876181034)
(2.25180755505e-05 -0.000218161508708 -0.00110372533669)
(4.4681966396e-05 -0.000213012161773 -0.0010885432587)
(6.57355711042e-05 -0.000204582985972 -0.00106338487831)
(8.51900349001e-05 -0.000193100035481 -0.00102850258467)
(0.000102539510287 -0.000178910250352 -0.000984207112968)
(0.000117502784737 -0.000162279835176 -0.000930824788455)
(0.000129321983369 -0.00014428872397 -0.000868599203127)
(-0.000144823283201 -0.000160627993371 -0.00111984821426)
(-0.000131392969962 -0.000179666981884 -0.00119354139649)
(-0.00011454542388 -0.000197150229289 -0.00125610214277)
(-9.51008735998e-05 -0.000212044204191 -0.00130760281665)
(-7.34147218045e-05 -0.000224086502169 -0.0013479059332)
(-5.00154918124e-05 -0.000232936016516 -0.00137685724471)
(-2.54265079006e-05 -0.000238359725278 -0.00139432472718)
(-2.22389594761e-07 -0.000240201183585 -0.00140021899914)
(2.49851623471e-05 -0.000238403925139 -0.00139449115977)
(4.9584428109e-05 -0.000233022978984 -0.00137719412007)
(7.30006723826e-05 -0.000224212967867 -0.00134841824261)
(9.47101171481e-05 -0.000212205155836 -0.00130829687865)
(0.000114184148473 -0.000197338781483 -0.00125698704941)
(0.000131066707393 -0.000179877309557 -0.00119463732165)
(0.000144544957079 -0.000160849563934 -0.00112118549819)
(-0.000156950476134 -0.000173732896931 -0.00136621683432)
(-0.000142071727943 -0.000193092071482 -0.00144765030397)
(-0.000123604873623 -0.00021074842315 -0.00151593971289)
(-0.000102433486083 -0.000225749043719 -0.00157166422447)
(-7.89692250372e-05 -0.000237855170425 -0.00161496300846)
(-5.37450221291e-05 -0.00024674813061 -0.00164589550472)
(-2.73002817407e-05 -0.000252197370584 -0.00166448541441)
(-2.24466545478e-07 -0.000254046817101 -0.00167074253603)
(2.68545841777e-05 -0.00025224020714 -0.00166465761811)
(5.33090459666e-05 -0.000246832490516 -0.00164624443244)
(7.8549413987e-05 -0.000237978055933 -0.00161549434872)
(0.000102035942983 -0.000225905814481 -0.00157238504209)
(0.0001232355473 -0.000210932752858 -0.00151685989534)
(0.000141736299528 -0.000193298679851 -0.00144879291922)
(0.000156660663857 -0.00017395335741 -0.00136761843365)
(-0.000166053378211 -0.000183483198402 -0.00159882204938)
(-0.000149941057555 -0.000202499678466 -0.0016846811195)
(-0.000130160553433 -0.000219737081617 -0.00175581552587)
(-0.000107658934626 -0.000234337413238 -0.00181340389381)
(-8.28819201491e-05 -0.000246102266303 -0.00185787449682)
(-5.63498125908e-05 -0.000254743999489 -0.00188949512674)
(-2.86016942523e-05 -0.000260039423493 -0.00190843646254)
(-2.25030485768e-07 -0.000261836395816 -0.00191480016883)
(2.81546894471e-05 -0.000260080184191 -0.0019086133384)
(5.59120108829e-05 -0.000254824347311 -0.00188985364105)
(8.24594667577e-05 -0.000246219507118 -0.00185842059055)
(0.000107257702408 -0.000234487350352 -0.0018141446965)
(0.000129786172327 -0.000219914041103 -0.00175676084323)
(0.000149599214451 -0.000202699023074 -0.0016858562408)
(0.000165754682385 -0.000183698563731 -0.00160026834926)
(-0.000172290141192 -0.000190041678582 -0.00181335288569)
(-0.000155157564933 -0.00020811419547 -0.00190088795981)
(-0.000134368758398 -0.000224404507499 -0.00197264717396)
(-0.00011092175737 -0.000238160919066 -0.00203038814566)
(-8.52730351364e-05 -0.000249235003439 -0.00207476597273)
(-5.79158606216e-05 -0.000257372346492 -0.00210620661345)
(-2.93761159086e-05 -0.000262359916455 -0.0021249929829)
(-2.25800362653e-07 -0.00026405251542 -0.00213129717813)
(2.89274284302e-05 -0.000262398223982 -0.00212517450736)
(5.74759583188e-05 -0.000257447936934 -0.00210657448845)
(8.48478052194e-05 -0.00024934550827 -0.00207532607639)
(0.000110516855186 -0.000238302623216 -0.00203114713423)
(0.000133989501004 -0.00022457242723 -0.00197361403854)
(0.00015480960697 -0.000208304376001 -0.00190208980092)
(0.000171983171193 -0.000190249592858 -0.00181483453871)
(-0.000175855417511 -0.000193609524303 -0.00200796039725)
(-0.000157912282229 -0.000210191968105 -0.00209510551966)
(-0.000136417716383 -0.000225062492218 -0.0021659881403)
(-0.00011239197832 -0.000237591296576 -0.00222281140009)
(-8.62801320761e-05 -0.000247677153568 -0.00226634524358)
(-5.85391577151e-05 -0.000255094311532 -0.00229710833138)
(-2.96730812148e-05 -0.000259641996071 -0.00231545672759)
(-2.27742597355e-07 -0.00026118560149 -0.00232161008969)
(2.92203992926e-05 -0.000259677645353 -0.00231564341087)
(5.80949355595e-05 -0.000255164740455 -0.00229748653529)
(8.58500460865e-05 -0.000247780339714 -0.00226692067729)
(0.000111981499655 -0.000237724039845 -0.00222358995059)
(0.000136031901888 -0.000225220525292 -0.00216697743436)
(0.00015755674668 -0.00021037207173 -0.00209633433811)
(0.000175539208859 -0.000193808679764 -0.00200947633605)
(-0.00017695115442 -0.000194398786241 -0.00218232399077)
(-0.000158409458536 -0.000208986805407 -0.00226768345682)
(-0.000136511094573 -0.000222019203831 -0.00233685036604)
(-0.000112249443582 -0.000232998320299 -0.00239221602461)
(-8.60438388651e-05 -0.00024184767766 -0.00243454432224)
(-5.83150852695e-05 -0.000248361050173 -0.0024643984641)
(-2.95408090572e-05 -0.000252354620419 -0.00248218123508)
(-2.31264351313e-07 -0.000253710333233 -0.00248814354457)
(2.90809956216e-05 -0.000252387458674 -0.00248237367026)
(5.78634651159e-05 -0.000248426016539 -0.0024647882764)
(8.5605909067e-05 -0.000241943118923 -0.00243513721555)
(0.000111830520737 -0.000233121582558 -0.00239301715453)
(0.00013611603744 -0.000222166778369 -0.00233786555454)
(0.000158043874815 -0.000209156246609 -0.00226894283601)
(0.000176623678551 -0.000194588186451 -0.00218387836704)
(-0.000175767141759 -0.000192569137822 -0.0023368057356)
(-0.000156873772404 -0.000204720412294 -0.00241967133268)
(-0.000134869119458 -0.000215576999546 -0.00248687233954)
(-0.000110674745999 -0.00022475607846 -0.00254062009688)
(-8.46965485656e-05 -0.000232166491748 -0.00258162573527)
(-5.73299161572e-05 -0.00023761798946 -0.00261049635011)
(-2.90219932816e-05 -0.000240956415664 -0.00262767451681)
(-2.36390529778e-07 -0.00024208945878 -0.00263343415488)
(2.85518507282e-05 -0.000240986277314 -0.0026278729815)
(5.6867724881e-05 -0.000237677172902 -0.00261089856987)
(8.42476423067e-05 -0.00023225369389 -0.00258223790755)
(0.000110244306553 -0.000224869251864 -0.00254144723119)
(0.000134461865228 -0.000215713445955 -0.00248791818459)
(0.000156495362288 -0.000204878574441 -0.00242096557535)
(0.000175426113702 -0.000192747599304 -0.00233840209348)
(-0.000172595070081 -0.000188252653749 -0.00247170800891)
(-0.000153637032734 -0.000197657054635 -0.00255238640878)
(-0.000131737174703 -0.000206077937628 -0.00261784820705)
(-0.000107832444867 -0.000213269933625 -0.0026700004221)
(-8.23477579928e-05 -0.000219061937579 -0.00270966792368)
(-5.56527832488e-05 -0.00022330398432 -0.00273754590761)
(-2.81506941984e-05 -0.000225892396005 -0.00275411765126)
(-2.42910562596e-07 -0.000226770263035 -0.00275967467688)
(2.76674400553e-05 -0.000225919104947 -0.00275432166938)
(5.51772848575e-05 -0.000223357000266 -0.0027379599472)
(8.18851902203e-05 -0.000219140309597 -0.00271029952081)
(0.000107387851913 -0.000213372214734 -0.00267085600151)
(0.000131315150501 -0.000206202351449 -0.00261893025549)
(0.000153243336309 -0.000197803066158 -0.00255372033002)
(0.000172237602949 -0.000188419669495 -0.002473343147)
(-0.000168120678177 -0.000182580910616 -0.00258632323908)
(-0.000149220271494 -0.00018803584199 -0.00266732505382)
(-0.000127366544895 -0.00019391655933 -0.00273123132513)
(-0.000103914871492 -0.000198890666113 -0.00278181435653)
(-7.91494001021e-05 -0.000202846220614 -0.00282019199465)
(-5.33943188216e-05 -0.000205712437491 -0.00284713579534)
(-2.69856980668e-05 -0.000207450179202 -0.00286314361904)
(-2.50466808954e-07 -0.000208039289196 -0.00286851236829)
(2.64873215644e-05 -0.000207473345814 -0.00286335122335)
(5.29036323382e-05 -0.000205758512195 -0.00284755803186)
(7.86715037005e-05 -0.000202914575773 -0.00282083845422)
(0.000103454717135 -0.000198980405988 -0.00278269526069)
(0.000126928597044 -0.000194026678171 -0.00273235076735)
(0.000148811193591 -0.000188167276351 -0.00266871565914)
(0.000167744242408 -0.000182733198321 -0.00258796191021)
(3.32121311528e-07 5.09134634464e-07 -7.24786575937e-05)
(1.96174658491e-07 6.90881818627e-07 -7.58183076916e-05)
(8.39446593185e-08 8.13738114416e-07 -7.86758291732e-05)
(1.30257410383e-08 8.88017236242e-07 -8.10534580871e-05)
(-2.86588369567e-08 9.30799320235e-07 -8.29359348663e-05)
(-3.88195482721e-08 9.51903756763e-07 -8.43002660063e-05)
(-2.62023703283e-08 9.60664484988e-07 -8.51290273357e-05)
(-1.1786152117e-09 9.63223376802e-07 -8.54102133059e-05)
(2.39778029873e-08 9.61657858364e-07 -8.51310851239e-05)
(3.71694858266e-08 9.54135840718e-07 -8.43043950358e-05)
(2.86365335848e-08 9.34818264694e-07 -8.29422420687e-05)
(-9.92440799907e-09 8.94439797432e-07 -8.10622988305e-05)
(-7.66133122578e-08 8.23340286043e-07 -7.86880087705e-05)
(-1.84522434657e-07 7.03740637762e-07 -7.58358584811e-05)
(-3.19154639583e-07 5.23270546642e-07 -7.25069813158e-05)
(2.67504917096e-06 3.32195041839e-06 -0.000220032246764)
(2.27042159003e-06 4.12652897754e-06 -0.000230158956172)
(1.83719412289e-06 4.7964900274e-06 -0.000238846596105)
(1.43815778812e-06 5.3202547192e-06 -0.000246078410761)
(1.05138768933e-06 5.71621658088e-06 -0.000251803127223)
(6.88446646295e-07 5.99019197689e-06 -0.000255952506872)
(3.43113206757e-07 6.15127129988e-06 -0.000258472136039)
(7.77888449382e-09 6.20542218581e-06 -0.000259324070411)
(-3.27540440133e-07 6.15448407049e-06 -0.000258478720882)
(-6.72552753197e-07 5.99700008939e-06 -0.000255965739205)
(-1.033900937e-06 5.72748614896e-06 -0.000251823366612)
(-1.41692859394e-06 5.33686994293e-06 -0.000246106734971)
(-1.81065133603e-06 4.81952589862e-06 -0.0002388853786)
(-2.23875996396e-06 4.15561128034e-06 -0.000230214084916)
(-2.6436537981e-06 3.3529789694e-06 -0.000220116767951)
(6.2276452501e-06 7.40737798873e-06 -0.000369122850701)
(5.52341985695e-06 8.95188403989e-06 -0.00038613058858)
(4.67903964247e-06 1.0308856755e-05 -0.000400736125377)
(3.80600443791e-06 1.14215264617e-05 -0.000412898871729)
(2.88420267712e-06 1.22955874285e-05 -0.000422525774119)
(1.93991204518e-06 1.29213301388e-05 -0.000429503270808)
(9.80647988915e-07 1.3298258628e-05 -0.000433738826318)
(1.45457395932e-08 1.34262272571e-05 -0.000435168341486)
(-9.51550358484e-07 1.33049053995e-05 -0.000433750547381)
(-1.91042072112e-06 1.29350916812e-05 -0.000429526796086)
(-2.85273152669e-06 1.23173315093e-05 -0.000422561647941)
(-3.76977334301e-06 1.14519461421e-05 -0.000412948713653)
(-4.63579314601e-06 1.03482906374e-05 -0.00040080350839)
(-5.47339201972e-06 8.99902624545e-06 -0.000386224255168)
(-6.17775698721e-06 7.45687005962e-06 -0.000369261614752)
(1.02978569389e-05 1.20143696109e-05 -0.000519027134341)
(9.25677028477e-06 1.42453372894e-05 -0.000542888547985)
(7.94893952235e-06 1.62475287012e-05 -0.000563376931226)
(6.53192988575e-06 1.79120777148e-05 -0.000580437094736)
(4.995207045e-06 1.92334461824e-05 -0.000593934382727)
(3.38177336611e-06 2.01876503719e-05 -0.000603713695653)
(1.71605677244e-06 2.07657422606e-05 -0.000609647253101)
(2.43560244703e-08 2.09622569652e-05 -0.000611647366047)
(-1.66739996477e-06 2.07750488827e-05 -0.00060966462628)
(-3.33292717068e-06 2.02066525424e-05 -0.000603748518288)
(-4.9447970496e-06 1.92627525966e-05 -0.000593987282504)
(-6.47735834034e-06 1.79519943631e-05 -0.000580509961151)
(-7.88797266442e-06 1.62976823449e-05 -0.000563473973038)
(-9.18972943856e-06 1.43038138135e-05 -0.000543020160005)
(-1.02320478053e-05 1.20754703311e-05 -0.000519215594507)
(1.42706041679e-05 1.64511282366e-05 -0.000668864327883)
(1.28608511982e-05 1.91943528492e-05 -0.000699415565676)
(1.10784348221e-05 2.16725247884e-05 -0.000725618231731)
(9.1179381004e-06 2.37333157852e-05 -0.0007474238082)
(6.98313221265e-06 2.53689066753e-05 -0.000764662666892)
(4.7319471133e-06 2.65498139225e-05 -0.000777145457883)
(2.4025619231e-06 2.72650476452e-05 -0.000784714992414)
(3.42321514685e-08 2.75080284381e-05 -0.000787264307316)
(-2.33419730384e-06 2.72763275354e-05 -0.000784738659018)
(-4.6635955103e-06 2.65726308603e-05 -0.000777192807351)
(-6.91375233595e-06 2.54035581548e-05 -0.000764734228822)
(-9.0453698896e-06 2.37796905908e-05 -0.00074752136092)
(-1.10007458982e-05 2.1729678033e-05 -0.000725745948803)
(-1.2778377413e-05 1.92599723902e-05 -0.000699584527919)
(-1.41904623989e-05 1.65196288311e-05 -0.000669098626676)
(1.77601481043e-05 2.02898993795e-05 -0.000817750899296)
(1.59663231683e-05 2.33256344165e-05 -0.000854711648014)
(1.3734189704e-05 2.60620677098e-05 -0.000886353146266)
(1.12808005262e-05 2.83226184418e-05 -0.000912661837062)
(8.62590457576e-06 3.01066597199e-05 -0.000933442911116)
(5.83768271037e-06 3.13890411999e-05 -0.000948480536614)
(2.96198109945e-06 3.2163351872e-05 -0.000957594103915)
(4.31697834638e-08 3.24260565002e-05 -0.000960661535663)
(-2.87574767723e-06 3.21759047728e-05 -0.000957624813426)
(-5.75156885557e-06 3.14142808344e-05 -0.000948541859837)
(-8.53919403262e-06 3.01446137235e-05 -0.000933535042963)
(-1.11918220133e-05 2.83728303188e-05 -0.000912785998079)
(-1.36414036658e-05 2.61231837065e-05 -0.00088651279198)
(-1.58700678e-05 2.33952021989e-05 -0.000854917919507)
(-1.7666899367e-05 2.03626608141e-05 -0.000818028592679)
(2.05504370086e-05 2.32979611024e-05 -0.00096490142768)
(1.83803661802e-05 2.64102908261e-05 -0.00100790994913)
(1.5753426807e-05 2.91910585541e-05 -0.00104464687298)
(1.28911011525e-05 3.14638961189e-05 -0.00107516440983)
(9.82804378423e-06 3.32415531181e-05 -0.00109925137538)
(6.6364918022e-06 3.45105102739e-05 -0.0011166708207)
(3.36339854713e-06 3.52731787367e-05 -0.00112722278236)
(5.08703540988e-08 3.55315676342e-05 -0.00113077297274)
(-3.26174233191e-06 3.52863917686e-05 -0.00112726139036)
(-6.5349798156e-06 3.45369628439e-05 -0.00111674775617)
(-9.7262280904e-06 3.32810613156e-05 -0.00109936626302)
(-1.27877789315e-05 3.15157621452e-05 -0.0010753174745)
(-1.56474358664e-05 2.92536764255e-05 -0.00104484022019)
(-1.82720473851e-05 2.64812294501e-05 -0.00100815422915)
(-2.0445416399e-05 2.33725089008e-05 -0.00096522175427)
(2.25549861749e-05 2.53902809873e-05 -0.00110966069289)
(2.00410819721e-05 2.83960852748e-05 -0.00115830217861)
(1.70960052479e-05 3.10415083935e-05 -0.00119975194637)
(1.39269208278e-05 3.31749169385e-05 -0.00123415937591)
(1.05802410617e-05 3.48244373282e-05 -0.00126130135273)
(7.1260670271e-06 3.5991772282e-05 -0.00128092144139)
(3.60691648004e-06 3.66894323057e-05 -0.00129280215355)
(5.7287931667e-08 3.69255113917e-05 -0.00129679867653)
(-3.49238945569e-06 3.67027869573e-05 -0.00129284972975)
(-7.01165398154e-06 3.60184200892e-05 -0.00128101599508)
(-1.04656983668e-05 3.4864046648e-05 -0.00126144165645)
(-1.38114524463e-05 3.32266316414e-05 -0.00123434422038)
(-1.69788052195e-05 3.1103619373e-05 -0.001199981515)
(-1.99224446358e-05 2.84662792357e-05 -0.00115858627325)
(-2.24396146545e-05 2.54646148997e-05 -0.00111002463597)
(2.37824173789e-05 2.65899560576e-05 -0.00125147143788)
(2.0977761345e-05 2.93516346345e-05 -0.00130528712276)
(1.78031943732e-05 3.17292928574e-05 -0.00135103981724)
(1.4434547029e-05 3.36165930876e-05 -0.00138900454177)
(1.09257910615e-05 3.50558381031e-05 -0.00141894356913)
(7.33973220848e-06 3.60640788889e-05 -0.00144057894838)
(3.71063206984e-06 3.66628198254e-05 -0.00145367639882)
(6.24915169158e-08 3.68652640399e-05 -0.00145808210273)
(-3.58565797055e-06 3.66758714216e-05 -0.00145373409263)
(-7.2148114358e-06 3.60900628771e-05 -0.00144069328846)
(-1.08008255182e-05 3.50943382006e-05 -0.00141911224927)
(-1.43090672767e-05 3.36666875944e-05 -0.00138922454995)
(-1.76767004862e-05 3.17892872579e-05 -0.00135130895803)
(-2.08505157569e-05 2.941944503e-05 -0.00130561422854)
(-2.36581283908e-05 2.66624938902e-05 -0.00125188177651)
(2.43020088573e-05 2.6988365048e-05 -0.00138979746405)
(2.12732866232e-05 2.94142504945e-05 -0.00144827627793)
(1.79605125349e-05 3.14390947126e-05 -0.00149789581474)
(1.44947776521e-05 3.30163841161e-05 -0.00153907366285)
(1.0932915013e-05 3.41996593862e-05 -0.00157154375534)
(7.32678068589e-06 3.50189038477e-05 -0.00159500196723)
(3.70041084174e-06 3.55019335086e-05 -0.00160919897692)
(6.66056801904e-08 3.56652435261e-05 -0.00161397483342)
(-3.56716682738e-06 3.55143096884e-05 -0.00160926797991)
(-7.1935088792e-06 3.50435126139e-05 -0.00159513840172)
(-1.07996066776e-05 3.42360661945e-05 -0.00157174409305)
(-1.43612145532e-05 3.30636846476e-05 -0.00153933282388)
(-1.78264428607e-05 3.14957124185e-05 -0.0014982088826)
(-2.1138977812e-05 2.94784093772e-05 -0.00144865119156)
(-2.41701890667e-05 2.70578979032e-05 -0.00139025905479)
(2.42143959652e-05 2.6711047449e-05 -0.0015240197122)
(2.10339385806e-05 2.87479339189e-05 -0.00158658520829)
(1.76697523167e-05 3.03748437461e-05 -0.0016396169775)
(1.4198775174e-05 3.16130980411e-05 -0.00168365799475)
(1.0675712996e-05 3.25238436644e-05 -0.00171838441854)
(7.13935843539e-06 3.31457692946e-05 -0.00174346213742)
(3.60320412121e-06 3.35094855366e-05 -0.00175863292827)
(6.97918728054e-08 3.363259853e-05 -0.00176373670621)
(-3.46354833208e-06 3.35208912382e-05 -0.00175871446059)
(-6.99958231248e-06 3.31684375221e-05 -0.0017436231133)
(-1.05358514261e-05 3.25573786255e-05 -0.00171862007401)
(-1.40587779283e-05 3.16566884223e-05 -0.00168396105334)
(-1.75295461312e-05 3.04271280688e-05 -0.00163997954041)
(-2.08938310826e-05 2.88074913042e-05 -0.00158701452354)
(-2.40762362592e-05 2.67767333363e-05 -0.00152453985433)
(2.36289544594e-05 2.58925497688e-05 -0.00165330678618)
(2.03684634551e-05 2.75138311012e-05 -0.00171933012681)
(1.70316053555e-05 2.8727340111e-05 -0.0017753404017)
(1.36341949364e-05 2.96237515261e-05 -0.00182190774681)
(1.02237524842e-05 3.02671785509e-05 -0.00185860970348)
(6.82551540771e-06 3.0699234708e-05 -0.00188509008187)
(3.44355724415e-06 3.09493945344e-05 -0.00190109758657)
(7.22132329691e-08 3.10343967503e-05 -0.00190648282465)
(-3.29902387567e-06 3.09595867982e-05 -0.00190119286234)
(-6.68076251462e-06 3.0719514638e-05 -0.00188527814721)
(-1.00788100107e-05 3.02972301355e-05 -0.00185888474649)
(-1.34891066319e-05 2.96629284495e-05 -0.00182226037172)
(-1.68864066457e-05 2.87745597786e-05 -0.00177575947104)
(-2.02234944046e-05 2.75680649191e-05 -0.0017198222382)
(-2.34853590243e-05 2.59536251626e-05 -0.00165389535514)
(2.26458358845e-05 2.46534597517e-05 -0.00177643990792)
(1.93766729587e-05 2.58483559945e-05 -0.00184536153662)
(1.61389043612e-05 2.66558315028e-05 -0.00190403514513)
(1.28802931284e-05 2.72280113045e-05 -0.00195282763011)
(9.63846345821e-06 2.76258544471e-05 -0.00199121468538)
(6.42680007972e-06 2.78867397523e-05 -0.00201886118116)
(3.24243077466e-06 2.80356028375e-05 -0.00203555331766)
(7.40074717977e-08 2.80865880062e-05 -0.00204116813465)
(-3.09426679929e-06 2.80443984475e-05 -0.00203566342497)
(-6.27830780843e-06 2.79042791725e-05 -0.00201907878536)
(-9.48963717711e-06 2.76519245098e-05 -0.00199153343353)
(-1.27311962076e-05 2.72621903732e-05 -0.00195323649039)
(-1.59896197266e-05 2.66974058193e-05 -0.00190451947023)
(-1.92275787763e-05 2.58967048831e-05 -0.00184592625849)
(-2.24974995727e-05 2.47091997898e-05 -0.00177710753441)
(2.13555643337e-05 2.3086205775e-05 -0.00189154809784)
(1.81584944778e-05 2.38725842584e-05 -0.00196335880252)
(1.50830688631e-05 2.42919574431e-05 -0.00202461734075)
(1.20098723571e-05 2.45736543639e-05 -0.00207533241197)
(8.97352799748e-06 2.47578512314e-05 -0.00211506910668)
(5.97839972032e-06 2.48719909366e-05 -0.00214360691329)
(3.01722888073e-06 2.49345454285e-05 -0.0021608085958)
(7.52901341268e-08 2.49565768155e-05 -0.0021665934178)
(-2.86647619559e-06 2.49418313054e-05 -0.00216093419151)
(-5.82724942477e-06 2.48865678007e-05 -0.00214385581111)
(-8.8219063474e-06 2.47796417866e-05 -0.00211543538094)
(-1.18577659092e-05 2.46024919654e-05 -0.00207580478936)
(-1.49305346852e-05 2.43275252401e-05 -0.00202517807107)
(-1.80059773643e-05 2.39148200376e-05 -0.00196400761302)
(-2.12031154557e-05 2.31365189648e-05 -0.00189230274037)
(1.98402328734e-05 2.14543672996e-05 -0.00199606960938)
(1.68297580093e-05 2.16623015785e-05 -0.00207276881312)
(1.3942615719e-05 2.17389296484e-05 -0.00213626660048)
(1.1079807995e-05 2.17691286898e-05 -0.00218835161045)
(8.26867291262e-06 2.17679801687e-05 -0.00222895774849)
(5.50554830968e-06 2.17548401001e-05 -0.00225803621409)
(2.78031957268e-06 2.17425265086e-05 -0.00227553571051)
(7.61037223646e-08 2.17393431363e-05 -0.00228141957725)
(-2.62795234835e-06 2.17481169014e-05 -0.00227567605836)
(-5.35282446751e-06 2.17660658452e-05 -0.00225831539476)
(-8.11552361334e-06 2.17849441195e-05 -0.00222937150508)
(-1.09261669047e-05 2.17919056845e-05 -0.0021888911056)
(-1.37883257052e-05 2.17676910938e-05 -0.00213691319152)
(-1.66753247297e-05 2.16975591807e-05 -0.00207352430237)
(-1.96844851725e-05 2.14982359879e-05 -0.00199689494621)
(-1.38907013248e-07 -2.34601575492e-07 -0.000100724799981)
(-6.85706882948e-08 -3.22705142186e-07 -0.000105446220659)
(-2.23692990768e-08 -3.76874763204e-07 -0.000109537884137)
(8.66362230139e-09 -4.10383624572e-07 -0.00011298257181)
(2.44097812245e-08 -4.29278310772e-07 -0.000115731019879)
(2.63588189658e-08 -4.38581297554e-07 -0.000117734602826)
(1.81303117138e-08 -4.42315017633e-07 -0.000118955989645)
(4.37114149376e-09 -4.43128321453e-07 -0.00011937098024)
(-9.4851420533e-09 -4.41975834443e-07 -0.000118959996419)
(-1.8092803251e-08 -4.38045516451e-07 -0.000117742628653)
(-1.71104668642e-08 -4.2885017841e-07 -0.000115743099079)
(-3.24789260104e-09 -4.10459673858e-07 -0.00011299884931)
(2.51971221671e-08 -3.77848200975e-07 -0.000109558897511)
(6.85289242152e-08 -3.24999818284e-07 -0.000105474029077)
(1.36852700541e-07 -2.37699944955e-07 -0.000100766276956)
(-5.4095206049e-07 -8.07349378782e-07 -0.000296886441789)
(-3.54339169077e-07 -1.05345150733e-06 -0.000310291546309)
(-2.16654721879e-07 -1.22200696172e-06 -0.000321872016724)
(-1.15443751545e-07 -1.33563075812e-06 -0.000331578314238)
(-4.8504357089e-08 -1.40742095037e-06 -0.000339296351334)
(-1.20662888782e-08 -1.44886983082e-06 -0.000344909359551)
(1.8331538834e-09 -1.46937233454e-06 -0.000348324994913)
(3.50008582288e-09 -1.4751266033e-06 -0.000349481810593)
(5.12989474143e-09 -1.46835368891e-06 -0.000348338015616)
(1.88273493608e-08 -1.44705335707e-06 -0.000344935378379)
(5.45400757418e-08 -1.40527721921e-06 -0.000339335342191)
(1.19808328409e-07 -1.3337434184e-06 -0.000331630476155)
(2.18630894322e-07 -1.22085289302e-06 -0.00032193860786)
(3.53702434436e-07 -1.05376272396e-06 -0.000310378183133)
(5.38679080404e-07 -8.08364772191e-07 -0.000297009070827)
(-1.06584186323e-06 -1.46450208519e-06 -0.000486176451536)
(-7.78993865307e-07 -1.85638998894e-06 -0.000507537235814)
(-5.47770105926e-07 -2.14411453897e-06 -0.000525922695543)
(-3.63731141858e-07 -2.34946121437e-06 -0.000541278119665)
(-2.2366348243e-07 -2.48820337028e-06 -0.000553453290956)
(-1.22635204526e-07 -2.57483030453e-06 -0.000562289523684)
(-5.04349166892e-08 -2.62135918685e-06 -0.000567658193664)
(6.12368222682e-09 -2.63573926873e-06 -0.000569472682306)
(6.25686131181e-08 -2.62079491704e-06 -0.000567680162853)
(1.34266071334e-07 -2.57399947914e-06 -0.000562333375874)
(2.33871200147e-07 -2.4876860551e-06 -0.000553518902067)
(3.70988253192e-07 -2.34989061889e-06 -0.000541365683597)
(5.50718020968e-07 -2.14596308259e-06 -0.000526033928949)
(7.77116583516e-07 -1.86023235501e-06 -0.000507680181272)
(1.06073953694e-06 -1.46942216397e-06 -0.000486373617895)
(-1.5879541596e-06 -2.08931249887e-06 -0.000668501920579)
(-1.21908707868e-06 -2.59207877123e-06 -0.000697129952937)
(-9.04493054791e-07 -2.97422516421e-06 -0.000721675720167)
(-6.41896811867e-07 -3.25415213802e-06 -0.000742111185322)
(-4.27690593811e-07 -3.44867176629e-06 -0.000758272858937)
(-2.56438652119e-07 -3.57373501026e-06 -0.000769980473079)
(-1.16862218583e-07 -3.64280215085e-06 -0.000777083944821)
(5.55395416934e-09 -3.66474604387e-06 -0.000779481264878)
(1.27855209759e-07 -3.64267342548e-06 -0.00077711510661)
(2.6691957062e-07 -3.57374047708e-06 -0.000770042585184)
(4.3673962058e-07 -3.44929939062e-06 -0.000758365575994)
(6.47965854587e-07 -3.2559059464e-06 -0.000742234462864)
(9.06106952115e-07 -2.97747155783e-06 -0.000721831206253)
(1.21557299754e-06 -2.59723092342e-06 -0.000697326715155)
(1.5809796855e-06 -2.0956621462e-06 -0.00066876598453)
(-2.0829592747e-06 -2.6591753729e-06 -0.000844012328049)
(-1.64788293615e-06 -3.24182733977e-06 -0.000879282052437)
(-1.26098668775e-06 -3.69388059921e-06 -0.000909406895024)