/*--------------------------------*- C++ -*----------------------------------*\
  =========                 |
  \\      /  F ield         | OpenFOAM: The Open Source CFD Toolbox
   \\    /   O peration     | Website:  https://openfoam.org
    \\  /    A nd           | Version:  7
     \\/     M anipulation  |
\*---------------------------------------------------------------------------*/
FoamFile
{
    version     2.0;
    format      ascii;
    class       volScalarField;
    location    "1.04";
    object      p;
}
// * * * * * * * * * * * * * * * * * * * * * * * * * * * * * * * * * * * * * //

dimensions      [0 2 -2 0 0 0 0];

internalField   nonuniform List<scalar> 
22500
(
-3.72657919497e-05
-3.72662634054e-05
-3.72667560345e-05
-3.72674744859e-05
-3.72686067812e-05
-3.72697123751e-05
-3.72705209784e-05
-3.72708552042e-05
-3.72706899119e-05
-3.72700486417e-05
-3.72691042856e-05
-3.7268132073e-05
-3.72675651541e-05
-3.72672303098e-05
-3.72669457014e-05
-3.72853040323e-05
-3.7286520479e-05
-3.72877207914e-05
-3.72888835535e-05
-3.72902758925e-05
-3.72915341243e-05
-3.72924259964e-05
-3.72927924228e-05
-3.72926042768e-05
-3.72918887699e-05
-3.72908012164e-05
-3.72895771457e-05
-3.72885773517e-05
-3.72875456835e-05
-3.72865290664e-05
-3.73027686486e-05
-3.73046382093e-05
-3.73062179072e-05
-3.73076386818e-05
-3.73091456843e-05
-3.73104413118e-05
-3.73113419838e-05
-3.73117144922e-05
-3.73115319758e-05
-3.73108198998e-05
-3.73097078476e-05
-3.73083814463e-05
-3.73071369466e-05
-3.73057368634e-05
-3.73040708934e-05
-3.73157379073e-05
-3.73177691312e-05
-3.73190976867e-05
-3.7320271396e-05
-3.73214627024e-05
-3.73224592439e-05
-3.73231516246e-05
-3.73234542834e-05
-3.73233516996e-05
-3.7322858538e-05
-3.73220569551e-05
-3.7321057863e-05
-3.73200713275e-05
-3.73189333964e-05
-3.73170997123e-05
-3.73234981158e-05
-3.73247713899e-05
-3.73250199678e-05
-3.73251634691e-05
-3.73253574276e-05
-3.73255224274e-05
-3.73256661257e-05
-3.73257811199e-05
-3.73258752838e-05
-3.73259403371e-05
-3.73259801321e-05
-3.73259884468e-05
-3.73260412319e-05
-3.73259942585e-05
-3.73249100479e-05
-3.73246596762e-05
-3.73238381272e-05
-3.73219955736e-05
-3.73201154144e-05
-3.73184630404e-05
-3.73171447293e-05
-3.73163290271e-05
-3.73161162472e-05
-3.73165482613e-05
-3.73175827778e-05
-3.73191159616e-05
-3.73209800796e-05
-3.73230651327e-05
-3.73251170673e-05
-3.73261173365e-05
-3.73177600209e-05
-3.73132532696e-05
-3.73082247431e-05
-3.73032578953e-05
-3.72988723337e-05
-3.72954030374e-05
-3.72932134896e-05
-3.72925325914e-05
-3.72934440229e-05
-3.72958634601e-05
-3.72995581048e-05
-3.73041646146e-05
-3.73093436919e-05
-3.73145884989e-05
-3.73192647876e-05
-3.73016866696e-05
-3.72918770219e-05
-3.72826012939e-05
-3.72735722695e-05
-3.72656597445e-05
-3.72594566487e-05
-3.72555379397e-05
-3.72542698601e-05
-3.72557812089e-05
-3.72599420663e-05
-3.72663815633e-05
-3.72745242509e-05
-3.72837722615e-05
-3.72932686629e-05
-3.73032412035e-05
-3.7275822965e-05
-3.72592875059e-05
-3.72448579188e-05
-3.72310096072e-05
-3.72189749369e-05
-3.72096183378e-05
-3.72037219204e-05
-3.72017846426e-05
-3.72039788302e-05
-3.72101303047e-05
-3.72197347645e-05
-3.72320084804e-05
-3.72460821554e-05
-3.72607346662e-05
-3.72774313687e-05
-3.72401000058e-05
-3.72157771108e-05
-3.71955379551e-05
-3.71764171213e-05
-3.71599307786e-05
-3.71472101926e-05
-3.71392218002e-05
-3.71365794647e-05
-3.71394925584e-05
-3.71477489971e-05
-3.71607287958e-05
-3.71774628085e-05
-3.71968147259e-05
-3.721727776e-05
-3.72417617271e-05
-3.71949641757e-05
-3.71622586896e-05
-3.71358770915e-05
-3.71113715061e-05
-3.70903925524e-05
-3.70743187576e-05
-3.70642641923e-05
-3.70609285768e-05
-3.70645480677e-05
-3.7074883021e-05
-3.70912266541e-05
-3.71124613248e-05
-3.71372033101e-05
-3.71638089307e-05
-3.71966783096e-05
-3.71411709241e-05
-3.71001202258e-05
-3.70676782411e-05
-3.70380108834e-05
-3.70127670802e-05
-3.69935517505e-05
-3.69815828365e-05
-3.69776084014e-05
-3.69818782962e-05
-3.69941382959e-05
-3.70136330114e-05
-3.70391396891e-05
-3.70690483208e-05
-3.71017144216e-05
-3.7142934014e-05
-3.70792749846e-05
-3.70310104133e-05
-3.69931063567e-05
-3.69587932737e-05
-3.69297560864e-05
-3.69078036542e-05
-3.68941953332e-05
-3.68896795363e-05
-3.68944995465e-05
-3.69084074995e-05
-3.69306468096e-05
-3.69599529623e-05
-3.69945117159e-05
-3.70326398763e-05
-3.70810782594e-05
-3.70105836972e-05
-3.69567208938e-05
-3.69141246748e-05
-3.68758679932e-05
-3.68438086622e-05
-3.68198044346e-05
-3.6805020768e-05
-3.68001234308e-05
-3.6805329127e-05
-3.68204165833e-05
-3.68447115549e-05
-3.68770435296e-05
-3.69155496757e-05
-3.69583720652e-05
-3.70124111878e-05
-3.69441324071e-05
-3.68809010213e-05
-3.68334944695e-05
-3.67915540757e-05
-3.67572048889e-05
-3.67318510468e-05
-3.6716362633e-05
-3.67112477818e-05
-3.67166699123e-05
-3.67324612645e-05
-3.67581058079e-05
-3.67927281174e-05
-3.68349197038e-05
-3.68825562342e-05
-3.69459640451e-05
-4.74924296326e-05
-4.74898809055e-05
-4.74865501394e-05
-4.74834889576e-05
-4.74807288501e-05
-4.74785787643e-05
-4.74771989138e-05
-4.74767064721e-05
-4.74771404308e-05
-4.74784604337e-05
-4.74805469907e-05
-4.74832308115e-05
-4.74862096381e-05
-4.74894413467e-05
-4.74918827701e-05
-4.74839004667e-05
-4.74819911932e-05
-4.74792566998e-05
-4.74767902955e-05
-4.7474551354e-05
-4.74728028517e-05
-4.74716757409e-05
-4.74712689495e-05
-4.74716160167e-05
-4.7472682027e-05
-4.74743658867e-05
-4.74765285568e-05
-4.74789088548e-05
-4.74815429631e-05
-4.748333935e-05
-4.74849185362e-05
-4.74844760646e-05
-4.7483008805e-05
-4.74816892134e-05
-4.74803818481e-05
-4.747931862e-05
-4.74786088602e-05
-4.74783410412e-05
-4.74785458382e-05
-4.74791907609e-05
-4.7480185756e-05
-4.74814154601e-05
-4.74826470825e-05
-4.74840160125e-05
-4.74843445799e-05
-4.74943675679e-05
-4.74953291723e-05
-4.74949449596e-05
-4.7494505624e-05
-4.74938470178e-05
-4.74932218172e-05
-4.74927621402e-05
-4.74925749945e-05
-4.74926987144e-05
-4.74930925213e-05
-4.74936488155e-05
-4.74942309797e-05
-4.74945844392e-05
-4.74948736137e-05
-4.74937994323e-05
-4.75055317702e-05
-4.75069685607e-05
-4.75067994408e-05
-4.75064054038e-05
-4.75056863701e-05
-4.75049598121e-05
-4.75044145322e-05
-4.75041947867e-05
-4.75043532035e-05
-4.75048344543e-05
-4.75054942859e-05
-4.75061399944e-05
-4.75064524037e-05
-4.75065308832e-05
-4.75049841319e-05
-4.75140334345e-05
-4.75148677212e-05
-4.75140687113e-05
-4.75129761123e-05
-4.75116116378e-05
-4.75103631217e-05
-4.7509480457e-05
-4.75091446443e-05
-4.75094220863e-05
-4.75102437059e-05
-4.75114286418e-05
-4.75127240835e-05
-4.75137399172e-05
-4.75144551908e-05
-4.75135146213e-05
-4.75182544478e-05
-4.75176925618e-05
-4.75157483887e-05
-4.75135424427e-05
-4.7511230447e-05
-4.75092559314e-05
-4.7507918815e-05
-4.75074290665e-05
-4.75078636741e-05
-4.75091430699e-05
-4.75110574785e-05
-4.75133047903e-05
-4.75154390029e-05
-4.75173055662e-05
-4.75177681078e-05
-4.75180999307e-05
-4.75156825114e-05
-4.75123607271e-05
-4.75088755209e-05
-4.75055064982e-05
-4.75027384492e-05
-4.75009108434e-05
-4.75002560292e-05
-4.75008591784e-05
-4.75026325775e-05
-4.75053441299e-05
-4.75086526376e-05
-4.75120713331e-05
-4.75153213512e-05
-4.75176482623e-05
-4.75140797215e-05
-4.75095924003e-05
-4.7504813198e-05
-4.75000095505e-05
-4.74955657439e-05
-4.74919989788e-05
-4.74896810034e-05
-4.74888619111e-05
-4.7489633137e-05
-4.7491900728e-05
-4.74954148402e-05
-4.74998023364e-05
-4.75045442753e-05
-4.7509257268e-05
-4.75136626495e-05
-4.75068440491e-05
-4.75002304655e-05
-4.74939862631e-05
-4.74878872563e-05
-4.74823965276e-05
-4.74780586637e-05
-4.74752704839e-05
-4.74742947339e-05
-4.74752268196e-05
-4.7477968827e-05
-4.74822581543e-05
-4.7487696838e-05
-4.74937388999e-05
-4.74999220353e-05
-4.75064630651e-05
-4.74970114867e-05
-4.74883201649e-05
-4.74806459595e-05
-4.74733141815e-05
-4.74668389312e-05
-4.74617856287e-05
-4.74585658915e-05
-4.74574475015e-05
-4.74585268439e-05
-4.74617050168e-05
-4.74667142393e-05
-4.74731418489e-05
-4.74804212293e-05
-4.74880390028e-05
-4.74966664928e-05
-4.74851438929e-05
-4.74744960376e-05
-4.74654591007e-05
-4.74569880692e-05
-4.74496240118e-05
-4.74439402536e-05
-4.74403473942e-05
-4.74391074442e-05
-4.74403132923e-05
-4.74438696299e-05
-4.74495140359e-05
-4.7456835046e-05
-4.74652580887e-05
-4.74742426466e-05
-4.74848338567e-05
-4.74717928154e-05
-4.74593261091e-05
-4.74490035904e-05
-4.74395128953e-05
-4.74313919815e-05
-4.74251954363e-05
-4.74213106163e-05
-4.74199771971e-05
-4.74212818594e-05
-4.74251353331e-05
-4.74312975552e-05
-4.74393801065e-05
-4.74488272588e-05
-4.74591015498e-05
-4.74715181033e-05
-4.74572863912e-05
-4.74430757168e-05
-4.74316289929e-05
-4.74213159864e-05
-4.74126556247e-05
-4.74061319062e-05
-4.74020751998e-05
-4.74006919473e-05
-4.74020519187e-05
-4.74060828871e-05
-4.74125778188e-05
-4.74212048941e-05
-4.74314784733e-05
-4.74428807031e-05
-4.74570485227e-05
-4.74402539051e-05
-4.74256588527e-05
-4.74134859428e-05
-4.74027343759e-05
-4.7393914067e-05
-4.7387359164e-05
-4.73833182111e-05
-4.73819467892e-05
-4.73833006571e-05
-4.73873212882e-05
-4.7393852829e-05
-4.74026449533e-05
-4.74133620613e-05
-4.74254923031e-05
-4.74400503947e-05
-3.65296217467e-05
-3.65313075061e-05
-3.6533244937e-05
-3.65352494279e-05
-3.65370691651e-05
-3.65385031397e-05
-3.65394114642e-05
-3.65397075924e-05
-3.65393586831e-05
-3.65383996871e-05
-3.65369196065e-05
-3.65350610709e-05
-3.65330190102e-05
-3.6531057955e-05
-3.65293595451e-05
-3.65308241742e-05
-3.65324752587e-05
-3.65344037369e-05
-3.65364086336e-05
-3.65382351274e-05
-3.65396793121e-05
-3.65405964311e-05
-3.65408960667e-05
-3.65405429258e-05
-3.65395743534e-05
-3.65380833614e-05
-3.65362171206e-05
-3.65341756203e-05
-3.65322224051e-05
-3.6530559803e-05
-3.65302136456e-05
-3.65317246846e-05
-3.65335303435e-05
-3.65354408902e-05
-3.65371984741e-05
-3.6538597929e-05
-3.65394906178e-05
-3.65397827231e-05
-3.65394375283e-05
-3.65384940241e-05
-3.65370482385e-05
-3.65352509371e-05
-3.65333049073e-05
-3.65314741202e-05
-3.6529951076e-05
-3.65295116532e-05
-3.65309526381e-05
-3.65326877936e-05
-3.65345461916e-05
-3.65362690854e-05
-3.65376490181e-05
-3.65385329368e-05
-3.65388229372e-05
-3.65384808189e-05
-3.6537547181e-05
-3.65361215952e-05
-3.65343591508e-05
-3.65324661903e-05
-3.65307058875e-05
-3.65292511306e-05
-3.65292197838e-05
-3.65306749824e-05
-3.6532405035e-05
-3.6534264106e-05
-3.65359939985e-05
-3.6537384223e-05
-3.6538277143e-05
-3.65385710073e-05
-3.65382261967e-05
-3.65372847313e-05
-3.65358497489e-05
-3.65340807007e-05
-3.65321876244e-05
-3.65304324865e-05
-3.6528962416e-05
-3.65293117677e-05
-3.65308454882e-05
-3.6532616433e-05
-3.65345136893e-05
-3.65362785985e-05
-3.65376982055e-05
-3.65386111667e-05
-3.65389125395e-05
-3.6538561636e-05
-3.65376014753e-05
-3.65361381775e-05
-3.65343347237e-05
-3.6532404195e-05
-3.65306077985e-05
-3.6529058522e-05
-3.65297488599e-05
-3.65314112572e-05
-3.65332570271e-05
-3.65352180813e-05
-3.65370357854e-05
-3.65384958048e-05
-3.65394346003e-05
-3.65397453023e-05
-3.6539386723e-05
-3.65384022957e-05
-3.65368998807e-05
-3.65350444686e-05
-3.65330508045e-05
-3.65311794953e-05
-3.65295004344e-05
-3.65305106276e-05
-3.65323391249e-05
-3.65342818995e-05
-3.65363210279e-05
-3.65381991122e-05
-3.65397024964e-05
-3.65406676988e-05
-3.65409877613e-05
-3.65406216638e-05
-3.65396125439e-05
-3.65380682086e-05
-3.65361534104e-05
-3.65340824073e-05
-3.6532113988e-05
-3.65302672299e-05
-3.65315615715e-05
-3.65335782245e-05
-3.65356275447e-05
-3.65377461728e-05
-3.65396811664e-05
-3.6541222314e-05
-3.65422091012e-05
-3.65425366676e-05
-3.65421650797e-05
-3.65411362338e-05
-3.65395557111e-05
-3.65375851045e-05
-3.6535435309e-05
-3.65333602794e-05
-3.65313238357e-05
-3.65328505805e-05
-3.65350604182e-05
-3.65372134139e-05
-3.65394009031e-05
-3.65413790197e-05
-3.65429444042e-05
-3.65439429671e-05
-3.65442744765e-05
-3.65439010668e-05
-3.65428624001e-05
-3.65412593016e-05
-3.65392467767e-05
-3.6537028856e-05
-3.65348501493e-05
-3.65326184359e-05
-3.65343183611e-05
-3.6536711354e-05
-3.6538954845e-05
-3.65411908824e-05
-3.65431899734e-05
-3.65447596791e-05
-3.65457562085e-05
-3.65460867433e-05
-3.6545716522e-05
-3.65446819354e-05
-3.65430762496e-05
-3.65410440408e-05
-3.65387784005e-05
-3.65365093617e-05
-3.65340924689e-05
-3.65359019878e-05
-3.65384576142e-05
-3.65407724546e-05
-3.65430314726e-05
-3.65450242027e-05
-3.65465740851e-05
-3.65475521403e-05
-3.65478758169e-05
-3.65475147502e-05
-3.65465006993e-05
-3.65449166598e-05
-3.65428921828e-05
-3.65406045033e-05
-3.65382645775e-05
-3.65356834395e-05
-3.65375230001e-05
-3.65402223965e-05
-3.65425940449e-05
-3.65448525792e-05
-3.65468115979e-05
-3.65483171326e-05
-3.65492595557e-05
-3.65495706251e-05
-3.65492244603e-05
-3.6548248194e-05
-3.65467103787e-05
-3.65447210887e-05
-3.65424349247e-05
-3.65400386849e-05
-3.65373124228e-05
-3.65391464808e-05
-3.65419875403e-05
-3.65443935759e-05
-3.65466225918e-05
-3.65485135389e-05
-3.65499448007e-05
-3.65508326647e-05
-3.65511238356e-05
-3.65507999422e-05
-3.65498805055e-05
-3.65484188159e-05
-3.65464991841e-05
-3.65442438632e-05
-3.65418138654e-05
-3.65389440607e-05
-3.65414226655e-05
-3.65441180962e-05
-3.65464160681e-05
-3.65484812304e-05
-3.65501853698e-05
-3.65514541893e-05
-3.65522327532e-05
-3.65524865035e-05
-3.65522025835e-05
-3.65513948517e-05
-3.65500978946e-05
-3.65483669856e-05
-3.6546276754e-05
-3.65439562506e-05
-3.65412319537e-05
-4.05137612354e-05
-4.0512749531e-05
-4.05115964369e-05
-4.05104046203e-05
-4.05093297607e-05
-4.05084855239e-05
-4.05079499692e-05
-4.05077724173e-05
-4.05079720403e-05
-4.05085286417e-05
-4.05093915061e-05
-4.05104784017e-05
-4.05116788434e-05
-4.05128301219e-05
-4.05138394177e-05
-4.05134592945e-05
-4.05124812789e-05
-4.05113472251e-05
-4.05101670326e-05
-4.05090986399e-05
-4.05082561966e-05
-4.05077204467e-05
-4.05075427071e-05
-4.05077435832e-05
-4.05083014139e-05
-4.05091633264e-05
-4.05102447754e-05
-4.05114327971e-05
-4.05125652847e-05
-4.05135386206e-05
-4.0514275756e-05
-4.05134011463e-05
-4.05123624418e-05
-4.05112574264e-05
-4.0510246342e-05
-4.05094424519e-05
-4.0508928702e-05
-4.05087577685e-05
-4.05089510189e-05
-4.05094859801e-05
-4.05103084986e-05
-4.05113326259e-05
-4.05124451261e-05
-4.05134836215e-05
-4.05143538338e-05
-4.05150504978e-05
-4.05142405307e-05
-4.05132678034e-05
-4.05122160219e-05
-4.05112445764e-05
-4.05104666319e-05
-4.05099672207e-05
-4.05098004895e-05
-4.0509988331e-05
-4.05105077329e-05
-4.051130327e-05
-4.05122875547e-05
-4.05133470077e-05
-4.05143205321e-05
-4.05151276916e-05
-4.05155654819e-05
-4.0514780268e-05
-4.0513840617e-05
-4.05128172139e-05
-4.05118663182e-05
-4.05111013914e-05
-4.05106087873e-05
-4.05104438851e-05
-4.0510628905e-05
-4.05111405161e-05
-4.05119222373e-05
-4.05128856476e-05
-4.05139170161e-05
-4.0514858048e-05
-4.05156416865e-05
-4.05159007334e-05
-4.05151153111e-05
-4.05141900796e-05
-4.0513180847e-05
-4.05122408189e-05
-4.05114827068e-05
-4.05109935904e-05
-4.05108294537e-05
-4.05110126793e-05
-4.05115198449e-05
-4.05122939269e-05
-4.05132462532e-05
-4.05142635113e-05
-4.05151913879e-05
-4.05159756811e-05
-4.05161051725e-05
-4.05153037542e-05
-4.05143801313e-05
-4.05133769971e-05
-4.05124429721e-05
-4.05116893692e-05
-4.05112028541e-05
-4.05110393015e-05
-4.05112209273e-05
-4.05117245543e-05
-4.05124933434e-05
-4.05134393646e-05
-4.05144505403e-05
-4.05153776871e-05
-4.0516178823e-05
-4.05162002706e-05
-4.0515372285e-05
-4.05144425175e-05
-4.05134419833e-05
-4.05125128689e-05
-4.05117643168e-05
-4.05112812926e-05
-4.05111187341e-05
-4.05112983262e-05
-4.05117975038e-05
-4.05125604869e-05
-4.05135012574e-05
-4.0514510026e-05
-4.05154440542e-05
-4.05162730902e-05
-4.0516207797e-05
-4.0515347395e-05
-4.05144084162e-05
-4.05134108712e-05
-4.05124891603e-05
-4.05117488798e-05
-4.05112719747e-05
-4.05111114274e-05
-4.05112879901e-05
-4.05117801294e-05
-4.0512534105e-05
-4.05134671381e-05
-4.05144730252e-05
-4.0515417026e-05
-4.05162794475e-05
-4.05161504356e-05
-4.05152565426e-05
-4.05143090868e-05
-4.0513318458e-05
-4.05124095982e-05
-4.05116830755e-05
-4.05112163189e-05
-4.05110592758e-05
-4.05112313465e-05
-4.05117124483e-05
-4.05124519719e-05
-4.05133718246e-05
-4.05143709231e-05
-4.05153240925e-05
-4.05162213587e-05
-4.05160498576e-05
-4.05151243352e-05
-4.05141716049e-05
-4.0513194146e-05
-4.05123057623e-05
-4.05116002089e-05
-4.05111487334e-05
-4.05109970745e-05
-4.05111628246e-05
-4.05116277921e-05
-4.05123456891e-05
-4.05132447071e-05
-4.05142306705e-05
-4.05151896348e-05
-4.05161197069e-05
-4.05159251898e-05
-4.05149702675e-05
-4.05140163592e-05
-4.05130591913e-05
-4.05122001006e-05
-4.05115238054e-05
-4.05110934242e-05
-4.05109493178e-05
-4.05111066193e-05
-4.05115497178e-05
-4.05122377273e-05
-4.05131070794e-05
-4.05140726773e-05
-4.05150330309e-05
-4.05159933758e-05
-4.05158012078e-05
-4.05148159445e-05
-4.05138611405e-05
-4.05129287392e-05
-4.05121063142e-05
-4.05114665724e-05
-4.05110629033e-05
-4.05109281186e-05
-4.05110752835e-05
-4.05114909341e-05
-4.0512141737e-05
-4.05129740732e-05
-4.05139147444e-05
-4.05148761733e-05
-4.0515867456e-05
-4.05156872197e-05
-4.05146616051e-05
-4.05137073114e-05
-4.05128048303e-05
-4.05120273676e-05
-4.05114325916e-05
-4.05110607546e-05
-4.05109377518e-05
-4.05110723504e-05
-4.05114553836e-05
-4.05120607631e-05
-4.05128476615e-05
-4.05137582263e-05
-4.05147191293e-05
-4.05157515301e-05
-4.05152093331e-05
-4.05142454954e-05
-4.05133709473e-05
-4.05125722969e-05
-4.05119026303e-05
-4.05113986328e-05
-4.05110872563e-05
-4.05109849104e-05
-4.05110979654e-05
-4.05114197386e-05
-4.05119335392e-05
-4.05126122164e-05
-4.05134187391e-05
-4.05142998027e-05
-4.05152708489e-05
-3.5108220458e-05
-3.51088490117e-05
-3.51095733837e-05
-3.51103255279e-05
-3.5111007515e-05
-3.51115466211e-05
-3.5111889005e-05
-3.51120037882e-05
-3.51118791938e-05
-3.51115279919e-05
-3.51109819922e-05
-3.51102932663e-05
-3.51095322027e-05
-3.51088038964e-05
-3.51081699883e-05
-3.51083541213e-05
-3.510896064e-05
-3.51096724839e-05
-3.51104176453e-05
-3.51110968054e-05
-3.511163559e-05
-3.51119788258e-05
-3.51120941366e-05
-3.51119688079e-05
-3.51116165295e-05
-3.51110705377e-05
-3.51103845528e-05
-3.51096307098e-05
-3.51089139384e-05
-3.51083026636e-05
-3.51077950591e-05
-3.5108337183e-05
-3.5108990199e-05
-3.5109689228e-05
-3.51103329982e-05
-3.51108474707e-05
-3.51111768337e-05
-3.51112877634e-05
-3.51111670058e-05
-3.51108286782e-05
-3.51103068381e-05
-3.51096561632e-05
-3.51089490339e-05
-3.51082907389e-05
-3.51077440642e-05
-3.5107270194e-05
-3.51077706145e-05
-3.51083818752e-05
-3.51090471764e-05
-3.51096649714e-05
-3.51101615448e-05
-3.51104808242e-05
-3.51105886174e-05
-3.51104712864e-05
-3.51101431782e-05
-3.51096390521e-05
-3.51090143641e-05
-3.5108341565e-05
-3.51077251707e-05
-3.51072196697e-05
-3.51069038636e-05
-3.5107384247e-05
-3.5107971279e-05
-3.51086152835e-05
-3.51092163664e-05
-3.51097013759e-05
-3.51100141455e-05
-3.5110119935e-05
-3.51100048896e-05
-3.51096834778e-05
-3.51091908918e-05
-3.51085829231e-05
-3.51079317287e-05
-3.51073398247e-05
-3.51068538908e-05
-3.51066371865e-05
-3.51071091614e-05
-3.51076802621e-05
-3.51083084861e-05
-3.51088961906e-05
-3.51093713329e-05
-3.51096783224e-05
-3.51097822898e-05
-3.5109669366e-05
-3.51093539441e-05
-3.5108871245e-05
-3.51082767303e-05
-3.51076416914e-05
-3.51070656101e-05
-3.51065881398e-05
-3.5106433619e-05
-3.51069028224e-05
-3.51074623471e-05
-3.5108076506e-05
-3.5108651111e-05
-3.51091158958e-05
-3.51094164444e-05
-3.51095182971e-05
-3.51094078174e-05
-3.51090990959e-05
-3.51086268803e-05
-3.51080455546e-05
-3.51074248753e-05
-3.51068603375e-05
-3.51063854571e-05
-3.51062755891e-05
-3.51067445202e-05
-3.51072941766e-05
-3.5107893793e-05
-3.51084537327e-05
-3.51089062175e-05
-3.51091987545e-05
-3.51092979001e-05
-3.51091904667e-05
-3.51088900301e-05
-3.51084302756e-05
-3.51078637283e-05
-3.51072578439e-05
-3.51067031817e-05
-3.510622812e-05
-3.51061476601e-05
-3.51066166585e-05
-3.51071560347e-05
-3.51077388039e-05
-3.51082810139e-05
-3.51087181428e-05
-3.51090004186e-05
-3.51090960255e-05
-3.51089924823e-05
-3.51087026049e-05
-3.51082584035e-05
-3.51077097143e-05
-3.51071208392e-05
-3.51065764671e-05
-3.51061009806e-05
-3.51060357871e-05
-3.51065034998e-05
-3.51070307152e-05
-3.51075931909e-05
-3.51081135384e-05
-3.51085314366e-05
-3.51088006846e-05
-3.51088917388e-05
-3.51087930932e-05
-3.51085165385e-05
-3.51080917779e-05
-3.5107565078e-05
-3.51069966368e-05
-3.51064644045e-05
-3.5105989764e-05
-3.51059285346e-05
-3.51063931911e-05
-3.51069057749e-05
-3.51074438945e-05
-3.51079376205e-05
-3.51083318998e-05
-3.51085850275e-05
-3.51086704116e-05
-3.51085777789e-05
-3.51083176422e-05
-3.51079167241e-05
-3.51074167852e-05
-3.51068728401e-05
-3.51063552525e-05
-3.51058832645e-05
-3.51058176954e-05
-3.51062786373e-05
-3.51067745e-05
-3.51072843142e-05
-3.51077464902e-05
-3.51081125283e-05
-3.51083463005e-05
-3.51084248312e-05
-3.51083393906e-05
-3.51080988953e-05
-3.51077264467e-05
-3.51072582123e-05
-3.51067427278e-05
-3.51062419999e-05
-3.51057734888e-05
-3.51056930129e-05
-3.5106152914e-05
-3.51066326974e-05
-3.51071122617e-05
-3.51075392957e-05
-3.51078734224e-05
-3.51080850326e-05
-3.51081557884e-05
-3.51080784431e-05
-3.51078604023e-05
-3.51075201101e-05
-3.51070872055e-05
-3.51066021315e-05
-3.51061175975e-05
-3.51056499265e-05
-3.5105551435e-05
-3.51060182351e-05
-3.51064832582e-05
-3.51069314592e-05
-3.51073203362e-05
-3.51076194031e-05
-3.51078069213e-05
-3.51078689699e-05
-3.51078006558e-05
-3.51076070082e-05
-3.51073019995e-05
-3.51069074548e-05
-3.51064540102e-05
-3.51059843789e-05
-3.51055095135e-05
-3.51056040227e-05
-3.51060327581e-05
-3.51064400581e-05
-3.51068162896e-05
-3.51071337296e-05
-3.51073737797e-05
-3.51075225062e-05
-3.51075712135e-05
-3.51075165356e-05
-3.51073619969e-05
-3.51071163032e-05
-3.51067934959e-05
-3.51064121326e-05
-3.51060005291e-05
-3.51055642621e-05
-3.55094437454e-05
-3.55090588435e-05
-3.55086177264e-05
-3.55081634752e-05
-3.55077547383e-05
-3.55074337904e-05
-3.55072305789e-05
-3.55071630062e-05
-3.55072378347e-05
-3.55074476463e-05
-3.55077736853e-05
-3.55081853459e-05
-3.55086411078e-05
-3.55090795109e-05
-3.55094646521e-05
-3.55093333132e-05
-3.55089595677e-05
-3.55085244463e-05
-3.55080731421e-05
-3.55076652827e-05
-3.550734393e-05
-3.55071399808e-05
-3.55070720976e-05
-3.5507147599e-05
-3.550735851e-05
-3.55076852478e-05
-3.55080962122e-05
-3.55085487869e-05
-3.5508981546e-05
-3.55093542021e-05
-3.55096483012e-05
-3.55093129309e-05
-3.5508913409e-05
-3.55084896375e-05
-3.55081026807e-05
-3.55077954188e-05
-3.55075994537e-05
-3.55075340012e-05
-3.55076066981e-05
-3.5507809286e-05
-3.55081216975e-05
-3.55085117451e-05
-3.55089365958e-05
-3.5509334655e-05
-3.55096686963e-05
-3.5509944677e-05
-3.55096345692e-05
-3.55092603817e-05
-3.55088571292e-05
-3.55084855081e-05
-3.55081884787e-05
-3.55079981647e-05
-3.55079343256e-05
-3.55080048395e-05
-3.55082012657e-05
-3.55085031163e-05
-3.55088777122e-05
-3.55092821127e-05
-3.55096553779e-05
-3.55099647309e-05
-3.55101469403e-05
-3.55098494144e-05
-3.55094899612e-05
-3.55090999327e-05
-3.55087382547e-05
-3.55084479023e-05
-3.55082612387e-05
-3.55081984151e-05
-3.55082674237e-05
-3.55084597446e-05
-3.5508754608e-05
-3.55091191327e-05
-3.55095104928e-05
-3.5509869277e-05
-3.55101665468e-05
-3.55102928666e-05
-3.55100012192e-05
-3.5509652107e-05
-3.55092722889e-05
-3.55089189221e-05
-3.5508634459e-05
-3.55084511492e-05
-3.55083892605e-05
-3.55084568177e-05
-3.55086453222e-05
-3.55089339751e-05
-3.55092900825e-05
-3.5509671291e-05
-3.55100204352e-05
-3.55103116709e-05
-3.55104054771e-05
-3.55101170079e-05
-3.5509775818e-05
-3.55094053994e-05
-3.55090604062e-05
-3.55087823184e-05
-3.55086028669e-05
-3.55085421319e-05
-3.55086080381e-05
-3.55087922332e-05
-3.55090741928e-05
-3.55094218315e-05
-3.55097936752e-05
-3.55101354293e-05
-3.55104235426e-05
-3.55104952584e-05
-3.55102089372e-05
-3.55098746745e-05
-3.55095141034e-05
-3.55091784752e-05
-3.55089079586e-05
-3.55087332951e-05
-3.55086740718e-05
-3.55087379752e-05
-3.55089169445e-05
-3.55091910427e-05
-3.55095292374e-05
-3.55098913702e-05
-3.55102265775e-05
-3.55105128938e-05
-3.55105710553e-05
-3.55102866647e-05
-3.55099595187e-05
-3.55096100107e-05
-3.55092854575e-05
-3.55090242249e-05
-3.55088556267e-05
-3.55087983997e-05
-3.55088598527e-05
-3.55090323615e-05
-3.55092969084e-05
-3.55096239674e-05
-3.55099751777e-05
-3.55103036077e-05
-3.5510588135e-05
-3.55106403184e-05
-3.55103585061e-05
-3.55100394498e-05
-3.55097027957e-05
-3.55093915262e-05
-3.55091416804e-05
-3.55089806624e-05
-3.55089259999e-05
-3.55089844868e-05
-3.5509149068e-05
-3.55094020056e-05
-3.5509715742e-05
-3.55100542422e-05
-3.55103749081e-05
-3.55106570313e-05
-3.55107091458e-05
-3.55104307054e-05
-3.55101209294e-05
-3.55097991505e-05
-3.55095036334e-05
-3.55092675012e-05
-3.55091157341e-05
-3.55090642632e-05
-3.55091192195e-05
-3.55092742559e-05
-3.55095132919e-05
-3.55098112319e-05
-3.55101349575e-05
-3.55104465632e-05
-3.55107253982e-05
-3.55107821604e-05
-3.55105070942e-05
-3.55102074777e-05
-3.55099023757e-05
-3.55096250471e-05
-3.55094050166e-05
-3.5509264203e-05
-3.55092165902e-05
-3.55092674162e-05
-3.55094112746e-05
-3.5509634063e-05
-3.55099137583e-05
-3.55102208445e-05
-3.55105223464e-05
-3.55107977702e-05
-3.55108660949e-05
-3.55105923595e-05
-3.55103018314e-05
-3.5510013735e-05
-3.55097560537e-05
-3.55095537501e-05
-3.55094252988e-05
-3.55093819837e-05
-3.55094283138e-05
-3.55095596573e-05
-3.55097645687e-05
-3.5510024593e-05
-3.55103146449e-05
-3.55106070496e-05
-3.55108810245e-05
-3.55109608778e-05
-3.55106822929e-05
-3.55104003998e-05
-3.55101298333e-05
-3.55098932454e-05
-3.55097105181e-05
-3.55095955112e-05
-3.55095571336e-05
-3.55095983985e-05
-3.55097161403e-05
-3.55099014612e-05
-3.55101402831e-05
-3.55104127786e-05
-3.55106964165e-05
-3.55109750384e-05
-3.55109059755e-05
-3.55106641411e-05
-3.55104236288e-05
-3.55102000214e-05
-3.55100088082e-05
-3.55098632094e-05
-3.55097726004e-05
-3.5509742592e-05
-3.55097753336e-05
-3.55098685672e-05
-3.55100165962e-05
-3.55102100206e-05
-3.55104354852e-05
-3.55106777159e-05
-3.5510919729e-05
-3.23115634615e-05
-3.23118014358e-05
-3.23120801585e-05
-3.23123706355e-05
-3.23126321224e-05
-3.23128381878e-05
-3.2312969574e-05
-3.23130142223e-05
-3.2312967353e-05
-3.23128337293e-05
-3.23126255132e-05
-3.23123628536e-05
-3.23120727858e-05
-3.23117964663e-05
-3.23115562986e-05
-3.23115856818e-05
-3.23118142801e-05
-3.23120867113e-05
-3.23123730901e-05
-3.23126323185e-05
-3.23128374389e-05
-3.23129685692e-05
-3.23130132163e-05
-3.23129662878e-05
-3.23128328604e-05
-3.23126255935e-05
-3.23123652026e-05
-3.23120792824e-05
-3.23118088374e-05
-3.23115785562e-05
-3.23113445822e-05
-3.23115479974e-05
-3.23117962496e-05
-3.2312063634e-05
-3.23123083662e-05
-3.23125035613e-05
-3.23126289251e-05
-3.23126716922e-05
-3.23126266487e-05
-3.23124990216e-05
-3.23123017456e-05
-3.23120558514e-05
-3.23117889065e-05
-3.23115420832e-05
-3.23113374634e-05
-3.23111227513e-05
-3.23113098044e-05
-3.23115410344e-05
-3.2311794408e-05
-3.2312028617e-05
-3.2312216691e-05
-3.23123379392e-05
-3.23123793661e-05
-3.23123357024e-05
-3.23122122729e-05
-3.23120222503e-05
-3.23117869261e-05
-3.2311533793e-05
-3.23113038589e-05
-3.23111154942e-05
-3.23109651333e-05
-3.2311144017e-05
-3.23113650489e-05
-3.23116093863e-05
-3.23118366992e-05
-3.23120200393e-05
-3.23121385336e-05
-3.23121790678e-05
-3.23121363415e-05
-3.2312015734e-05
-3.23118305569e-05
-3.2311602182e-05
-3.23113579024e-05
-3.23111381365e-05
-3.23109577351e-05
-3.23108466156e-05
-3.23110217809e-05
-3.23112354861e-05
-3.23114727373e-05
-3.2311694277e-05
-3.23118734103e-05
-3.23119893768e-05
-3.23120290716e-05
-3.2311987252e-05
-3.23118692684e-05
-3.2311688416e-05
-3.23114658742e-05
-3.23112285145e-05
-3.23110157831e-05
-3.23108393486e-05
-3.23107519301e-05
-3.23109249555e-05
-3.23111326617e-05
-3.23113633453e-05
-3.23115789791e-05
-3.23117534955e-05
-3.23118665513e-05
-3.2311905258e-05
-3.23118645082e-05
-3.23117495388e-05
-3.2311573416e-05
-3.23113568315e-05
-3.23111259704e-05
-3.23109189376e-05
-3.23107446675e-05
-3.23106732838e-05
-3.23108444571e-05
-3.23110465747e-05
-3.23112701814e-05
-3.23114790109e-05
-3.23116479517e-05
-3.23117573757e-05
-3.23117948376e-05
-3.23117554366e-05
-3.23116442129e-05
-3.23114737728e-05
-3.23112639993e-05
-3.23110400984e-05
-3.23108384546e-05
-3.23106657989e-05
-3.23106038714e-05
-3.23107727967e-05
-3.23109688922e-05
-3.23111843009e-05
-3.23113849382e-05
-3.23115469346e-05
-3.23116517473e-05
-3.23116876095e-05
-3.23116499277e-05
-3.23115434345e-05
-3.2311380041e-05
-3.2311178482e-05
-3.23109626554e-05
-3.2310766855e-05
-3.23105962273e-05
-3.23105378583e-05
-3.23107036542e-05
-3.23108927973e-05
-3.23110985088e-05
-3.23112891639e-05
-3.23114425682e-05
-3.23115416186e-05
-3.23115754674e-05
-3.2311539924e-05
-3.23114393155e-05
-3.2311284599e-05
-3.23110930118e-05
-3.2310886772e-05
-3.23106977316e-05
-3.23105300266e-05
-3.23104707617e-05
-3.23106324814e-05
-3.23108136432e-05
-3.23110080248e-05
-3.23111867683e-05
-3.23113298019e-05
-3.2311421838e-05
-3.23114532289e-05
-3.23114202729e-05
-3.23113267997e-05
-3.23111825395e-05
-3.23110028647e-05
-3.23108078822e-05
-3.23106266515e-05
-3.23104628217e-05
-3.23103998521e-05
-3.23105571933e-05
-3.23107296601e-05
-3.23109111436e-05
-3.23110759972e-05
-3.23112067877e-05
-3.23112905214e-05
-3.23113189771e-05
-3.23112890848e-05
-3.23112040212e-05
-3.23110720735e-05
-3.23109062961e-05
-3.23107241622e-05
-3.23105515826e-05
-3.23103919704e-05
-3.23103223265e-05
-3.23104764389e-05
-3.23106404417e-05
-3.231080819e-05
-3.23109576087e-05
-3.23110746533e-05
-3.23111489161e-05
-3.23111740756e-05
-3.23111475901e-05
-3.2311072081e-05
-3.2310953967e-05
-3.23108036275e-05
-3.23106352128e-05
-3.23104710449e-05
-3.23103144997e-05
-3.23102354147e-05
-3.23103892145e-05
-3.2310546358e-05
-3.23107004513e-05
-3.23108336885e-05
-3.23109360456e-05