/*--------------------------------*- C++ -*----------------------------------*\
  =========                 |
  \\      /  F ield         | OpenFOAM: The Open Source CFD Toolbox
   \\    /   O peration     | Website:  https://openfoam.org
    \\  /    A nd           | Version:  7
     \\/     M anipulation  |
\*---------------------------------------------------------------------------*/
FoamFile
{
    version     2.0;
    format      ascii;
    class       surfaceScalarField;
    location    "1.04";
    object      phi;
}
// * * * * * * * * * * * * * * * * * * * * * * * * * * * * * * * * * * * * * //

dimensions      [0 3 -1 0 0 0 0];

internalField   nonuniform List<scalar> 
65775
(
-4.40447110415e-11
-9.44015543116e-09
1.42178105001e-10
-9.81089184009e-13
-7.9657447455e-11
-9.95201571921e-09
1.59997289991e-10
-9.07600913784e-11
-1.04268697682e-08
1.7482942333e-10
-8.4309181222e-11
-1.08306631364e-08
1.86585309582e-10
-6.61548782901e-11
-1.11534522867e-08
1.95555472349e-10
-4.00405884771e-11
-1.13897356108e-08
2.01925195191e-10
-9.1925881733e-12
-1.15378447026e-08
2.05829719653e-10
2.32395416439e-11
-1.15928241209e-08
2.07282616231e-10
5.38274902331e-11
-1.15372135155e-08
2.06061192257e-10
7.94372255523e-11
-1.13885036642e-08
2.0238317714e-10
9.69093378257e-11
-1.11516792964e-08
1.96226903403e-10
1.02501762706e-10
-1.08285714858e-08
1.87450402675e-10
9.04553477456e-11
-1.04246418735e-08
1.75862344793e-10
5.36604477516e-11
-9.95007163518e-09
1.61163924127e-10
-9.43887439273e-09
1.43419441186e-10
7.12689380292e-12
-1.45018361227e-10
-1.77262272901e-08
-4.6817142104e-10
-2.72837620164e-12
-2.51431648673e-10
-1.86724589247e-08
-5.58147064481e-10
-2.91998540417e-10
-1.95483706971e-08
-6.55772310987e-10
-2.79152272381e-10
-2.02805793845e-08
-7.52122460079e-10
-2.24773524983e-10
-2.08579855501e-08
-8.38023634021e-10
-1.40031251007e-10
-2.12764475883e-08
-9.05623220971e-10
-3.65231020891e-11
-2.1537378846e-08
-9.49061471791e-10
7.31569748551e-11
-2.16341374109e-08
-9.64275418499e-10
1.7608752802e-10
-2.15359662432e-08
-9.48428740357e-10
2.59712376062e-10
-2.12736965809e-08
-9.04368106391e-10
3.12527603963e-10
-2.08540516554e-08
-8.36178608884e-10
3.23400590894e-10
-2.02758575029e-08
-7.49737727852e-10
2.80497929952e-10
-1.95433426632e-08
-6.52915780419e-10
1.71041883583e-10
-1.8667799395e-08
-5.54909893656e-10
-1.77227960721e-08
-4.64709327491e-10
1.94876524555e-11
-2.52498422681e-10
-2.42900922203e-08
-1.63974047246e-09
-3.75212569194e-12
-4.22281033658e-10
-2.55317327377e-08
-1.91181273271e-09
-4.95192714199e-10
-2.66571210019e-08
-2.18923631343e-09
-4.80864691283e-10
-2.75829870462e-08
-2.45110905936e-09
-3.93282492177e-10
-2.83032458895e-08
-2.67763783275e-09
-2.49780169586e-10
-2.88200379645e-08
-2.85237536309e-09
-7.10933602626e-11
-2.91408276481e-08
-2.96347808754e-09
1.19270585997e-10
-2.92601012056e-08
-3.00254962229e-09
2.97369334904e-10
-2.91389343581e-08
-2.9626506638e-09
4.39718116832e-10
-2.88163733342e-08
-2.85071448241e-09
5.25639036701e-10
-2.8298032068e-08
-2.67516989267e-09
5.37802778161e-10
-2.7576690611e-08
-2.44788297804e-09
4.62157837957e-10
-2.66503923995e-08
-2.185321601e-09
2.88624292971e-10
-2.55252670569e-08
-1.90730990347e-09
-2.42850039221e-08
-1.63484900847e-09
2.74353913535e-11
-3.54814479266e-10
-2.89519553397e-08
-2.9970084946e-09
-4.11041159759e-12
-5.83137600815e-10
-3.03481391055e-08
-3.45196748954e-09
-6.87678992792e-10
-3.15755003133e-08
-3.90099776304e-09
-6.73834641789e-10
-3.25712481259e-08
-4.31470106493e-09
-5.56427206873e-10
-3.33368546855e-08
-4.66623605069e-09
-3.58069287754e-10
-3.38817176617e-08
-4.93400623202e-09
-1.08332894898e-10
-3.42189354928e-08
-5.10302100125e-09
1.5858019521e-10
-3.43449387671e-08
-5.16247701619e-09
4.07881643146e-10
-3.42168854819e-08
-5.10215502478e-09
6.05366743844e-10
-3.38777662465e-08
-4.93225478663e-09
7.21473475928e-10
-3.33312582861e-08
-4.66361580505e-09
7.33539100855e-10
-3.25644763724e-08
-4.31124183837e-09
6.265860143e-10
-3.15682084689e-08
-3.89675011286e-09
3.94737028848e-10
-3.03409372419e-08
-3.44701145258e-09
-2.89458234491e-08
-2.99152512875e-09
3.07976601951e-11
-4.45052006009e-10
-3.18165368916e-08
-4.26206199922e-09
-3.99467795357e-12
-7.28628488725e-10
-3.3256455638e-08
-4.8607045024e-09
-8.62233486173e-10
-3.44814978581e-08
-5.43744829821e-09
-8.48980549362e-10
-3.5463894375e-08
-5.95977267203e-09
-7.04811104474e-10
-3.62125859596e-08
-6.39809835694e-09
-4.57285612546e-10
-3.67424248818e-08
-6.72907535119e-09
-1.43974883079e-10
-3.70699009217e-08
-6.93693702085e-09
1.91396562928e-10
-3.71929301402e-08
-7.01005468458e-09
5.04420797994e-10
-3.70678999187e-08
-6.93611078123e-09
7.51351839511e-10
-3.6738586736e-08
-6.72740053354e-09
8.94601511186e-10
-3.62071730768e-08
-6.39558205973e-09
9.06527858512e-10
-3.54573526409e-08
-5.95642860169e-09
7.71000836703e-10
-3.44744057431e-08
-5.43330474281e-09
4.84468445959e-10
-3.32493527049e-08
-4.85581235056e-09
-3.18100378509e-08
-4.25656845693e-09
3.08888830308e-11
-5.21155028478e-10
-3.31422347723e-08
-5.28310889505e-09
-3.64172062733e-12
-8.56733744524e-10
-3.45491652761e-08
-5.98024557091e-09
-1.01633619596e-09
-3.57116295527e-08
-6.64042736665e-09
-1.00325206449e-09
-3.66346878826e-08
-7.23152924026e-09
-8.35182411907e-10
-3.73338859195e-08
-7.7236717893e-09
-5.44474308837e-10
-3.78270289001e-08
-8.09331180887e-09
-1.75728766116e-10
-3.81317097027e-08
-8.32474093833e-09
2.19189389948e-10
-3.82466959723e-08
-8.40611730103e-09
5.87720948969e-10
-3.81298751539e-08
-8.3239684021e-09
8.77973562569e-10
-3.78235234154e-08
-8.09174626397e-09
1.04531858346e-09
-3.73289685409e-08
-7.72131963023e-09
1.05732878533e-09
-3.66287661339e-08
-7.22840043539e-09
8.96117409719e-10
-3.57051983834e-08
-6.63654124615e-09
5.5805909097e-10
-3.4542652763e-08
-5.97563549279e-09
-3.31358451274e-08
-5.27789151279e-09
2.93389027704e-11
-5.84894274194e-10
-3.32266129703e-08
-6.01902665431e-09
-3.22980258832e-12
-9.68447981432e-10
-3.4549572165e-08
-6.78052698941e-09
-1.15114862258e-09
-3.56187006413e-08
-7.49360223491e-09
-1.13787727429e-09
-3.64596836183e-08
-8.12766141684e-09
-9.48533999682e-10
-3.70942212456e-08
-8.6532141596e-09
-6.20028967094e-10
-3.75409298005e-08
-9.04680452303e-09
-2.03123745965e-10
-3.78168902534e-08
-9.29276958163e-09
2.43391398029e-10
-3.79213188411e-08
-9.37916091454e-09
6.60083480091e-10
-3.78152599068e-08
-9.2920357537e-09
9.8813360394e-10
-3.75378258158e-08
-9.04532152029e-09
1.17675500563e-09
-3.70898900272e-08
-8.65099471804e-09
1.18897127143e-09
-3.6454490703e-08
-8.12472263805e-09
1.00473489164e-09
-3.5613058364e-08
-7.48996820064e-09
6.18920461697e-10
-3.45438415498e-08
-6.77622828383e-09
-3.32206248592e-08
-6.0141627097e-09
2.73610716849e-11
-6.39661525728e-10
-3.23440419289e-08
-6.48955127962e-09
-2.84502948065e-12
-1.0665081698e-09
-3.35490503979e-08
-7.29416876701e-09
-1.26974052107e-09
-3.45097525482e-08
-8.04234290466e-09
-1.25602821543e-09
-3.52580951759e-08
-8.70487469176e-09
-1.04763613603e-09
-3.58215403366e-08
-9.25261900937e-09
-6.85763242828e-10
-3.62178830552e-08
-9.66213766019e-09
-2.26628368425e-10
-3.64626465217e-08
-9.91768377043e-09
2.65022079496e-10
-3.65553032492e-08
-1.00072521573e-08
7.23898625765e-10
-3.64612216525e-08
-9.91697042128e-09
1.0852270978e-09
-3.62151778641e-08
-9.66070217346e-09
1.29277167584e-09
-3.58177771617e-08
-9.25048393266e-09
1.30528421386e-09
-3.52535969668e-08
-8.70207017007e-09
1.10039889251e-09
-3.45048554394e-08
-8.03890615769e-09
6.71278625846e-10
-3.35440591947e-08
-7.29013772768e-09
-3.23385196388e-08
-6.48502042033e-09
2.56269409219e-11
-6.88648829168e-10
-3.07255178682e-08
-6.73480383582e-09
-2.51881350286e-12
-1.15397475959e-09
-3.17902057034e-08
-7.57007339385e-09
-1.37552837453e-09
-3.26350286337e-08
-8.343109353e-09
-1.36108350782e-09
-3.32866725072e-08
-9.0256850369e-09
-1.13534757858e-09
-3.37772871491e-08
-9.58891212217e-09
-7.43593810687e-10
-3.41224883888e-08
-1.00094137218e-08
-2.46945501884e-10
-3.43354861411e-08
-1.02713922896e-08
2.84688942465e-10
-3.44159205204e-08
-1.03629292813e-08
7.81009927296e-10
-3.4334242517e-08
-1.02706877298e-08
1.17208433933e-09
-3.41201285694e-08
-1.00080025064e-08
1.39677924684e-09
-3.37740032063e-08
-9.58682736751e-09
1.40979322172e-09
-3.32827359193e-08
-9.02297169325e-09
1.18635846981e-09
-3.26307126386e-08
-8.33982101863e-09
7.18599656924e-10
-3.17857563194e-08
-7.56625981608e-09
-3.072039486e-08
-6.73056193734e-09
2.43843474007e-11
-7.34077305687e-10
-2.85602632501e-08
-6.79438865854e-09
-2.2557651886e-12
-1.23352738821e-09
-2.94709498343e-08
-7.65246393443e-09
-1.47155629022e-09
-3.01966842305e-08
-8.44361717253e-09
-1.45590620833e-09
-3.07521099517e-08
-9.14031048669e-09
-1.21395853887e-09
-3.11715695186e-08
-9.71399835224e-09
-7.95022014219e-10
-3.14671604449e-08
-1.01416010731e-08
-2.646833795e-10
-3.16492360457e-08
-1.04074664026e-08
3.02709836583e-10
-3.17175781873e-08
-1.04999850719e-08
8.32642024809e-10
-3.16481339437e-08
-1.04067665696e-08
1.25074516178e-09
-3.14650624357e-08
-1.01402054248e-08
1.49143133183e-09
-3.11686335605e-08
-9.71194978504e-09
1.5053827688e-09
-3.07485520853e-08
-9.13766812127e-09
1.26519697282e-09
-3.01927160308e-08
-8.44045102342e-09
7.63072282761e-10
-2.94667617381e-08
-7.64883620359e-09
-2.85553007665e-08
-6.79040139625e-09
2.36581846423e-11
-7.77133832593e-10
-2.60040977218e-08
-6.70048121786e-09
-2.04494978913e-12
-1.30746228018e-09
-2.67537611944e-08
-7.57564310724e-09
-1.56049456705e-09
-2.73607219722e-08
-8.37962839518e-09
-1.54280183158e-09
-2.78247700336e-08
-9.08544363168e-09
-1.28513327177e-09
-2.81778743435e-08
-9.66513466838e-09
-8.41072965101e-10
-2.84273577444e-08
-1.00962914856e-08
-2.80274666456e-10
-2.85805275027e-08
-1.03636926323e-08
3.19227649731e-10
-2.86373863938e-08
-1.04562898052e-08
8.79537399595e-10
-2.85795115789e-08
-1.03629992947e-08
1.32260424576e-09
-2.84254124767e-08
-1.00949140073e-08
1.57878451958e-09
-2.81751192161e-08
-9.66312414411e-09
1.59450394746e-09
-2.78213680879e-08
-9.08287156017e-09
1.33902614019e-09
-2.73568266427e-08
-8.37657981176e-09
8.05755258924e-10
-2.67495059792e-08
-7.57219159056e-09
-2.5998993753e-08
-6.69673332523e-09
2.33750198986e-11
-8.1826926244e-10
-2.31878816181e-08
-6.4775734933e-09
-1.86689911885e-12
-1.37828138339e-09
-2.37734539383e-08
-7.36522579341e-09
-1.6449763445e-09
-2.42665835002e-08
-8.17756292273e-09
-1.62359589854e-09
-2.46489099844e-08
-8.88799247469e-09
-1.3499291018e-09
-2.49432349553e-08
-9.46953589025e-09
-8.82310174988e-10
-2.51515994154e-08
-9.90091046604e-09
-2.93966910048e-10
-2.5278736926e-08
-1.0167639802e-08
3.34258059598e-10
-2.53250745147e-08
-1.02594783558e-08
9.22029432595e-10
-2.52777405259e-08
-1.01669585818e-08
1.38849651149e-09
-2.51496702622e-08
-9.89956126117e-09
1.6604495121e-09
-2.4940463422e-08
-9.4675759515e-09
1.67958771806e-09
-2.46454084335e-08
-8.88550325359e-09
1.41016341838e-09
-2.42624550808e-08
-8.17464266154e-09
8.46937602972e-10
-2.37687808234e-08
-7.36195857756e-09
-2.31822951735e-08
-6.47406811265e-09
2.34285631818e-11
-8.59397418741e-10
-2.02219724614e-08
-6.14429313889e-09
-1.71318198264e-12
-1.45086030089e-09
-2.06421641072e-08
-7.04091670235e-09
-1.7280875199e-09
-2.10350295101e-08
-7.85788712124e-09
-1.69941675637e-09
-2.13498376868e-08
-8.56885276444e-09
-1.40854382318e-09
-2.15943977335e-08
-9.14841491503e-09
-9.18700687551e-10
-2.17671689711e-08
-9.57693442059e-09
-3.05780286352e-10
-2.18715054635e-08
-9.84097585048e-09
3.47642869457e-10
-2.1908505145e-08
-9.93130070707e-09
9.59911313128e-10
-2.1870445639e-08
-9.84031487685e-09
1.44844499094e-09
-2.17650985878e-08
-9.57562846485e-09
1.73738554851e-09
-2.15913819033e-08
-9.14652493768e-09
1.76355432727e-09
-2.13459536016e-08
-8.56646710151e-09
1.48332577683e-09
-2.10303380031e-08
-7.85511512927e-09
8.88388035445e-10
-2.06366928647e-08
-7.03785399589e-09
-2.02154954308e-08
-6.14105051961e-09
2.36783141287e-11
-9.14424290261e-10
-1.71882479764e-08
-5.71524528389e-09
-1.58848063435e-12
-1.53763931845e-09
-1.745713933e-08
-6.61907210014e-09
-1.8148868626e-09
-1.77771581098e-08
-7.43764148112e-09
-1.77176176363e-09
-1.8039070293e-08
-8.145384246e-09
-1.46139617205e-09
-1.82414893465e-08
-8.71947691108e-09
-9.50411485657e-10
-1.83835280047e-08
-9.14241041626e-09
-3.15823702188e-10
-1.84682641977e-08
-9.40200277899e-09
3.59353958182e-10
-1.84971747603e-08
-9.49016253023e-09
9.93212340374e-10
-1.84670483062e-08
-9.40137200703e-09
1.50273722875e-09
-1.83811346941e-08
-9.141166227e-09
1.810960733e-09
-1.82379687124e-08
-8.71768124698e-09
1.85133716692e-09
-1.80344837355e-08
-8.14312827522e-09
1.57083758605e-09
-1.77715523733e-08
-7.43504229278e-09
9.43917236766e-10
-1.74504854924e-08
-6.61623933501e-09
-1.71804452026e-08
-5.71229964501e-09
2.41291142988e-11
-1.03206531069e-09
-5.20079316283e-09
-1.43672393728e-12
-1.41095040561e-08
-1.66432289474e-09
-6.11339918174e-09
-1.43249341751e-08
-1.92394664677e-09
-6.93040322215e-09
-1.45976268146e-08
-1.85775698928e-09
-7.63169220438e-09
-1.48154504547e-08
-1.52325909203e-09
-8.19769475214e-09
-1.49819983365e-08
-9.87492551174e-10
-8.61314650401e-09
-1.50990863976e-08
-3.27660150271e-10
-8.86711271793e-09
-1.51684891544e-08
3.72862932023e-10
-8.9526731197e-09
-1.51910555049e-08
1.03189178059e-09
-8.86652352769e-09
-1.51670100819e-08
1.56605640551e-09
-8.61198577057e-09
-1.50961637455e-08
1.89820822117e-09
-8.19602306224e-09
-1.49776799372e-08
1.96140285113e-09
-7.62959895119e-09
-1.48098000589e-08
1.69827121606e-09
-6.92800782821e-09
-1.45906989824e-08
1.06210734585e-09
-6.11081155599e-09
-1.43167150104e-08
-5.19820365465e-09
2.4673887657e-11
-1.40999340571e-08
-1.76493825699e-11
1.02522791091e-09
-8.65233231271e-10
2.32823716819e-13
-2.60873446836e-11
1.13082786541e-09
-9.61625390481e-10
-2.83803030754e-11
1.23204010058e-09
-1.05371484351e-09
-2.71779705144e-11
1.3236885903e-09
-1.13707769995e-09
-2.26277506467e-11
1.39942208734e-09
-1.20721481718e-09
-1.53705310009e-11
1.45596591752e-09
-1.26037784483e-09
-6.26094617089e-12
1.4913480319e-09
-1.29402295153e-09
3.52125670653e-12
1.50395358528e-09
-1.30609987133e-09
1.26411488381e-11
1.49112103845e-09
-1.29399129866e-09
1.99062150609e-11
1.45552059305e-09
-1.26031341038e-09
2.44474568054e-11
1.39883004623e-09
-1.20711742836e-09
2.57017465533e-11
1.32313554259e-09
-1.13694664842e-09
2.35079319049e-11
1.23157471603e-09
-1.05355067106e-09
1.53557001397e-11
1.13070113457e-09
-9.61429547008e-10
1.02532915266e-09
-8.6500707817e-10
-1.59946378467e-12
-2.18091107281e-11
2.79596812831e-09
-2.21707157353e-09
6.60289281951e-13
-2.8890192153e-11
3.03801961943e-09
-2.45691955626e-09
-2.93785147906e-11
3.26354379145e-09
-2.68492306163e-09
-2.67851362828e-11
3.46132828255e-09
-2.8903864292e-09
-2.20320814112e-11
3.62107259517e-09
-3.06264310998e-09
-1.55695483468e-11
3.7380947389e-09
-3.19287545404e-09
-7.88264200965e-12
3.81062972652e-09
-3.2751503621e-09
3.10998562532e-13
3.83664345478e-09
-3.30463894271e-09
8.02549303705e-12
3.81032792834e-09
-3.27507072167e-09
1.45218929161e-11
3.73749527387e-09
-3.19270899812e-09
1.93019564451e-11
3.62029850219e-09
-3.06238827372e-09
2.20309258547e-11
3.46069269109e-09
-2.89004020644e-09
2.18693959095e-11
3.26325398588e-09
-2.68448531868e-09
1.55497844482e-11
3.03843105068e-09
-2.45639340938e-09
2.7969664588e-09
-2.21646228338e-09
-4.42391741119e-12
-8.5345138831e-12
4.47129646152e-09
-3.30682083126e-09
9.1589989731e-13
-3.86829876413e-12
4.78663372049e-09
-3.66386582327e-09
1.28956247714e-12
5.07299828886e-09
-4.00219462491e-09
4.08225792694e-12
5.31549716782e-09
-4.30631429237e-09
3.705326954e-12
5.50616495203e-09
-4.56080406117e-09
8.02715694152e-13
5.6427216275e-09
-4.75294143469e-09
-3.57221129388e-12
5.72643063996e-09
-4.87414522613e-09
-8.31607306215e-12
5.75674873779e-09
-4.9174620921e-09
-1.26377503481e-11
5.72623609366e-09
-4.87399664608e-09
-1.54479303575e-11
5.64235295569e-09
-4.75265132426e-09
-1.56960395046e-11
5.50578243161e-09
-4.56037487596e-09
-1.2617736526e-11
5.31545827666e-09
-4.30574397451e-09
-6.86168482279e-12
5.07361572136e-09
-4.00148796555e-09
-1.00631409983e-12
4.78823138507e-09
-3.66303304415e-09
4.47379998373e-09
-3.30587232713e-09
-6.89002581394e-12
1.23425153658e-11
5.66807726411e-09
-4.20660961962e-09
1.09811348748e-12
3.16922025346e-11
5.98037628096e-09
-4.66394096543e-09
4.30857223537e-11
6.25798468e-09
-5.09589010953e-09
4.48203121289e-11
6.48384840395e-09
-5.48325896993e-09
3.71418428701e-11
6.65577543123e-09
-5.80686267101e-09
2.21435765585e-11
6.77555893738e-09
-6.05087743577e-09
2.69543941655e-12
6.84809994891e-09
-6.2046015845e-09
-1.80963138208e-11
6.87484292481e-09
-6.25939396466e-09
-3.74730176137e-11
6.84806608233e-09
-6.20439673839e-09
-5.23251829884e-11
6.77553380206e-09
-6.05048493711e-09
-5.97770196866e-11
6.65593183927e-09
-5.80628384448e-09
-5.76138634191e-11
6.48453406369e-09
-5.48249554916e-09
-4.54008822186e-11
6.25955900111e-09
-5.09494950369e-09
-2.45398707146e-11
5.98313287605e-09
-4.66283641174e-09
5.67199891552e-09
-4.2053731572e-09
-8.96765425734e-12
3.4581066659e-11
6.29811339236e-09
-4.92730736745e-09
1.21317697418e-12
6.65575244236e-11
6.55829332059e-09
-5.46962392381e-09
8.26764501762e-11
6.7859614111e-09
-5.98023951339e-09
8.24809042125e-11
6.96274254282e-09
-6.43717724635e-09
6.75957607506e-11
7.09198401633e-09
-6.81832878705e-09
4.1477824987e-11
7.17883048898e-09
-7.10542738898e-09
8.53389853659e-12
7.23069203743e-09
-7.2860541888e-09
-2.65290566733e-11
7.2504248923e-09
-7.35025325451e-09
-5.93924500733e-11
7.23078973093e-09
-7.28579681582e-09
-8.53291340891e-11
7.17908381355e-09
-7.10493321663e-09
-9.99179503535e-11
7.09256407585e-09
-6.81760406592e-09
-9.95779622846e-11
6.96398106794e-09
-6.43623126706e-09
-8.24894160934e-11
6.78821404754e-09
-5.9790886996e-09
-4.88027292891e-11
6.56186683677e-09
-5.46828981875e-09
6.30302473118e-09
-4.9258345322e-09
-1.06250569818e-11
5.4748390696e-11
6.44111336773e-09
-5.4815876377e-09
1.26318217627e-12
9.57494230373e-11
6.63358275559e-09
-6.0956352675e-09
1.14718375944e-10
6.79978047261e-09
-6.6721032093e-09
1.12301714083e-10
6.92168273848e-09
-7.18696660385e-09
9.13895651561e-11
7.00598891624e-09
-7.61586515736e-09
5.65042059346e-11
7.05967690215e-09
-7.93861130745e-09
1.31550758306e-11
7.0911345873e-09
-8.14139172883e-09
-3.28464562156e-11
7.10382278299e-09
-8.21324103338e-09
-7.61128409399e-11
7.09132025584e-09
-8.14108128372e-09
-1.10800062328e-10
7.06011179301e-09
-7.93801468255e-09
-1.31372310421e-10
7.00683370493e-09
-7.61499585936e-09
-1.33190113935e-10
6.92323107077e-09
-7.18584464345e-09
-1.13163780852e-10
6.80236891047e-09
-6.67075742981e-09
-7.0375115124e-11
6.63749009521e-09
-6.09409804313e-09
6.44646731466e-09
-5.47991487495e-09
-1.18564829069e-11
7.12615322622e-11
6.2327997614e-09
-5.88274240265e-09
1.2642753271e-12
1.18037371252e-10
6.3641352473e-09
-6.55708617522e-09
1.38382089549e-10
6.4751218207e-09
-7.1883607463e-09
1.3385822024e-10
6.55051510452e-09
-7.75107681224e-09
1.08369555946e-10
6.59819116115e-09
-8.21919756588e-09
6.71783926399e-11
6.62568604533e-09
-8.57108710431e-09
1.6507216177e-11
6.64124351465e-09
-8.791847986e-09
-3.71471238507e-11
6.64833583086e-09
-8.86979912819e-09
-8.77357396501e-11
6.64148162705e-09
-8.79148546669e-09
-1.28720271995e-10
6.62622188139e-09
-8.57039023071e-09
-1.53842822138e-10
6.59916521746e-09
-8.21818856269e-09
-1.57732376925e-10
6.55217310529e-09
-7.74978832881e-09
-1.36296196247e-10
6.47776761559e-09
-7.18683609023e-09
-8.77303578068e-11
6.36801900389e-09
-6.55537004361e-09
6.23811560987e-09
-5.88090109189e-09
-1.26881349974e-11
8.36714342069e-11
5.80191705981e-09
-6.14307964849e-09
1.22473950033e-12
1.33916004471e-10
5.88793663778e-09
-6.86754418994e-09
1.54659971095e-10
5.95652542381e-09
-7.54371642574e-09
1.48321322271e-10
5.99786439245e-09
-8.14516164752e-09
1.19578633654e-10
6.01961246229e-09
-8.64470791052e-09
7.41805217399e-11
6.02912466482e-09
-9.01974367923e-09
1.87614786347e-11
6.03389130631e-09
-9.25461792753e-09
-3.98133401097e-11
6.03707865533e-09
-9.33723613304e-09
-9.51477440492e-11
6.03415657894e-09
-9.2542069398e-09
-1.40329341777e-10
6.02970515089e-09
-9.01895375759e-09
-1.68683768299e-10
6.02062104586e-09
-8.64357055411e-09
-1.74362322454e-10
5.99949434029e-09
-8.14372275663e-09
-1.52520431008e-10
5.95902584429e-09
-7.54203440108e-09
-1.00528307297e-10
5.89152674946e-09
-6.86567626988e-09
5.80680494345e-09
-6.14110157473e-09
-1.31847910302e-11
9.21795471668e-11
5.24749256353e-09
-6.27325735921e-09
1.15753011647e-12
1.4440098427e-10
5.30470434791e-09
-7.03848527067e-09
1.64959838351e-10
5.34387066456e-09
-7.7503820026e-09
1.57154259345e-10
5.36261577299e-09
-8.38205063054e-09
1.26243838283e-10
5.36778057215e-09
-8.90570124398e-09
7.82898389018e-11
5.36623003316e-09
-9.29821972582e-09
2.01227086945e-11
5.3644459452e-09
-9.5435454434e-09
-4.12553282094e-11
5.36514963049e-09
-9.62947512185e-09
-9.93301772248e-11
5.36471802489e-09
-9.54309210322e-09
-1.47050185014e-10
5.36681088153e-09
-9.29734874367e-09
-1.77544255535e-10
5.36875108667e-09
-8.90445320303e-09
-1.84663260078e-10
5.36411517842e-09
-8.38048428825e-09
-1.6300500314e-10
5.34609063764e-09
-7.74857036756e-09
-1.09098397271e-10
5.30781961788e-09
-7.03649729573e-09
5.25170883528e-09
-6.27117717004e-09
-1.34232522386e-11
9.73333375795e-11
4.63767306105e-09
-6.28251575001e-09
1.07536744788e-12
1.50553097904e-10
4.67933165537e-09
-7.07980323398e-09
1.70615805262e-10
4.69962192421e-09
-7.81891265373e-09
1.61700907915e-10
4.70458027474e-09
-8.47289812267e-09
1.29487309136e-10
4.70018661159e-09
-9.01382073039e-09
8.02225232713e-11
4.6926856967e-09
-9.41851892765e-09
2.07880356736e-11
4.68746370708e-09
-9.67086323011e-09
-4.18330053347e-11
4.68673872071e-09
-9.75883661365e-09
-1.01161140507e-10
4.68772139981e-09
-9.6703755795e-09
-1.50164892933e-10
4.69322312915e-09
-9.41758249677e-09
-1.81924302819e-10
4.70105312762e-09
-9.01248441412e-09
-1.90117114169e-10
4.70586331201e-09
-8.4712324366e-09
-1.68948424029e-10
4.70145232389e-09
-7.8170039767e-09
-1.14099394628e-10
4.68183657055e-09
-7.07773069599e-09
4.6410247942e-09
-6.28037076394e-09
-1.34827783324e-11
9.98088019116e-11
4.01612990443e-09
-6.1792729215e-09
9.85914772033e-13
1.53356951655e-10
4.05120759715e-09
-7.00063555398e-09
1.72830562226e-10
4.06019171459e-09
-7.75925151526e-09
1.63183795156e-10
4.05753714656e-09
-8.42839023526e-09
1.30344649519e-10
4.04854278417e-09
-8.98036263247e-09
8.06521347197e-11
4.03869217187e-09
-9.3923924865e-09
2.09576466261e-11
4.03222301281e-09
-9.64861271856e-09
-4.18562384018e-11
4.03082459966e-09
-9.73747100566e-09
-1.0142478745e-10
4.03244117054e-09
-9.64810012257e-09
-1.50820555167e-10
4.03913773862e-09
-9.39140862273e-09
-1.83158548536e-10
4.04923545746e-09
-8.97896345073e-09
-1.92038898589e-10
4.05851910329e-09
-8.42665639271e-09
-1.71442669564e-10
4.061537445e-09
-7.75728111375e-09
-1.16307128111e-10
4.05299612172e-09
-6.9985159999e-09
4.01848735828e-09
-6.17710160912e-09
-1.34286979545e-11
1.00253135929e-10
3.40950312975e-09
-5.9716729433e-09
8.87359958244e-13
1.53772945656e-10
3.44289414199e-09
-6.81006915652e-09
1.72847309662e-10
3.44542129601e-09
-7.58153035076e-09
1.62897198022e-10
3.43933436326e-09
-8.25955495098e-09
1.29920771628e-10
3.42926406606e-09
-8.81705933339e-09
8.03052832386e-11
3.41964522563e-09
-9.23209177267e-09
2.0866687416e-11
3.41350690628e-09
-9.48937589165e-09
-4.16215989852e-11
3.41197764263e-09
-9.57808333732e-09
-1.00910214183e-10
3.41365779743e-09
-9.48884864036e-09
-1.501877723e-10
3.41994265485e-09
-9.23108007739e-09
-1.82609407562e-10
3.42970624965e-09
-8.81562446033e-09
-1.91742423214e-10
3.43992500751e-09
-8.25778560182e-09
-1.71519550222e-10
3.4461882754e-09
-7.57953456087e-09
-1.16437444052e-10
3.44387575362e-09
-6.8079409747e-09
3.41078324344e-09
-5.96951387597e-09
-1.33134818269e-11
9.93379599439e-11
2.83337531398e-09
-5.66791807998e-09
7.84826124759e-13
1.53131404069e-10
2.86614180497e-09
-6.51766004551e-09
1.72444510468e-10
2.86507247945e-09
-7.29658502534e-09
1.62621410069e-10
2.858674493e-09
-7.97815485391e-09
1.29673927329e-10
2.85031953888e-09
-8.53636009555e-09
8.01272923517e-11
2.84295839269e-09
-8.95057594848e-09
2.0829247438e-11
2.83833933001e-09
-9.20644296685e-09
-4.14661785251e-11
2.83711366389e-09
-9.29408825438e-09
-1.00589227922e-10
2.83838825961e-09
-9.20591216482e-09
-1.49752030273e-10
2.84304689226e-09
-8.94955736067e-09
-1.82088161918e-10
2.85042982736e-09
-8.5349180203e-09
-1.91039340183e-10
2.85878286194e-09
-7.97638325527e-09
-1.70544416858e-10
2.86516400557e-09
-7.29460001822e-09
-1.15197124786e-10
2.86621717839e-09
-6.51556225721e-09
2.83349199768e-09
-5.6658118455e-09
-1.31644778589e-11
9.81391709116e-11
2.29601391371e-09
-5.27637406108e-09
6.7885397286e-13
1.53920321246e-10
2.32552151299e-09
-6.13399754731e-09
1.74633573431e-10
2.32320536845e-09
-6.91628613984e-09
1.65108440725e-10
2.31971956139e-09
-7.59673299247e-09
1.31740801345e-10
2.31568003119e-09
-8.15133737755e-09
8.14477118653e-11
2.31228325524e-09
-8.56135962323e-09
2.13127817477e-11
2.31017593782e-09
-8.81363578371e-09
-4.18573130516e-11
2.30957117887e-09
-8.89942653014e-09
-1.01789330154e-10
2.31008849559e-09
-8.81311351664e-09
-1.51650820711e-10
2.3120931771e-09
-8.56035682283e-09
-1.84349476188e-10
2.31536358532e-09
-8.14991849317e-09
-1.92950027551e-10
2.31923945714e-09
-7.59499324278e-09
-1.71021356112e-10
2.32252564265e-09
-6.91434683687e-09
-1.13682976804e-10
2.32459194308e-09
-6.13196891858e-09
2.29486428827e-09
-5.27436621503e-09
-1.30048330555e-11
9.29878262694e-11
-4.80786138062e-09
5.49453513428e-13
1.80982285631e-09
1.58294059265e-10
-5.67376625179e-09
1.82077199366e-09
1.82455816951e-10
-6.45467794738e-09
1.82348679817e-09
1.7328060557e-10
-7.12891852621e-09
1.82624667632e-09
1.3858391817e-10
-7.67553553974e-09
1.82831853294e-09
8.59554643926e-11
-8.07806129143e-09
1.82990604544e-09
2.28977054804e-11
-8.32467285046e-09
1.8308375696e-09
-4.33624191292e-11
-8.40786759745e-09
1.83106157101e-09
-1.06191185251e-10
-8.32417303902e-09
1.83056883101e-09
-1.5833773672e-10
-8.07710062493e-09
1.82936323593e-09
-1.92304333673e-10
-7.67417562302e-09
1.82747556607e-09
-2.0049516655e-10
-7.12725052447e-09
1.8250706543e-09
-1.7509133644e-10
-6.45282337863e-09
1.82192308316e-09
-1.08239518922e-10
-5.67183459228e-09
1.81874964806e-09
-4.80602146584e-09
-1.28244726808e-11
1.80725484027e-09
1.62769564531e-11
-1.95307486031e-10
-6.86332055283e-10
-2.41677365291e-13
2.5562198131e-11
-2.17098040528e-10
-7.54343619104e-10
2.9844690399e-11
-2.39864078113e-10
-8.1876097479e-10
2.94284671832e-11
-2.6048655365e-10
-8.76684358511e-10
2.46067662388e-11
-2.77769733744e-10
-9.25130850891e-10
1.61948071848e-11
-2.90737119669e-10
-9.61679271179e-10
5.41049430974e-12
-2.98847984156e-10
-9.84749384876e-10
-6.2123230814e-12
-3.01701199868e-10
-9.93048332006e-10
-1.69466816186e-11
-2.98759256783e-10
-9.84711334355e-10
-2.5264025035e-11
-2.90570196565e-10
-9.61603481826e-10
-2.99648432702e-11
-2.77552626915e-10
-9.25018667089e-10
-3.02663584988e-11
-2.60249422707e-10
-8.76537499278e-10
-2.58165479479e-11
-2.3955108998e-10
-8.1858131206e-10
-1.63870493909e-11
-2.16849129838e-10
-7.54133845976e-10
-1.95141048809e-10
-6.86090956314e-10
-2.77141314895e-13
3.59574117594e-11
-4.25499830689e-10
-2.02284706788e-09
-6.04585056468e-13
5.79836519546e-11
-4.66972319872e-10
-2.2299420817e-09
6.81979345096e-11
-5.09558098357e-10
-2.42636247849e-09
6.73186341239e-11
-5.47718611043e-10
-2.60310193337e-09
5.6278351332e-11
-5.79098467018e-10
-2.75105104621e-09
3.70329672114e-11
-6.02294459954e-10
-2.86274839648e-09
1.24035343402e-11
-6.16680046027e-10
-2.93322844681e-09
-1.41205296813e-11
-6.21755345977e-10
-2.95847969985e-09
-3.86427708169e-11
-6.16521084004e-10
-2.93312026993e-09
-5.76854452245e-11
-6.01983565356e-10
-2.86253205922e-09
-6.84637802247e-11
-5.78677681398e-10
-2.75073006141e-09
-6.90613492473e-11
-5.47234917367e-10
-2.60268099395e-09
-5.8488661053e-11
-5.08969500494e-10
-2.42584774059e-09
-3.61328789282e-11
-4.66449646433e-10
-2.22934144812e-09
-4.25141681922e-10
-2.02216383725e-09
-6.03885542175e-13
4.56506306752e-11
-5.94534077575e-10
-3.18319265936e-09
-8.05112286694e-13
7.44406296418e-11
-6.45653196999e-10
-3.51477358441e-09
8.77637239845e-11
-6.97223013845e-10
-3.82867505727e-09
8.65484080496e-11
-7.42874719641e-10
-4.11068916925e-09
7.22567316412e-11
-7.79785408511e-10
-4.34651540343e-09
4.75232684119e-11
-8.06675802788e-10
-4.52442673893e-09
1.59878289606e-11
-8.23198550762e-10
-4.63657467586e-09
-1.79335810773e-11
-8.29031370087e-10
-4.67664423389e-09
-4.93426150559e-11
-8.23012002488e-10
-4.63640244772e-09
-7.38415511626e-11
-8.06310662162e-10
-4.52408319793e-09
-8.78283384623e-11
-7.79287532007e-10
-4.3460062152e-09
-8.87006054798e-11
-7.42293169231e-10
-4.11002238051e-09
-7.49562760128e-11
-6.96533826566e-10
-3.82786210745e-09
-4.57720010519e-11
-6.45017532799e-10
-3.51382854815e-09
-5.94110516382e-10
-3.18212572012e-09
-7.12802242257e-13
4.87402785391e-11
-7.08745714914e-10
-4.1407665537e-09
-9.05426177707e-13
7.99805287666e-11
-7.62666693538e-10
-4.5788618793e-09
9.44476100292e-11
-8.15782330366e-10
-4.99251879259e-09
9.30617185443e-11
-8.61951298899e-10
-5.36346008992e-09
7.76091154052e-11
-8.98549982987e-10
-5.67324509024e-09
5.10404341291e-11
-9.24767989651e-10
-5.9067324647e-09
1.72754424706e-11
-9.40716922123e-10
-6.05373960076e-09
-1.90104985853e-11
-9.46357520543e-10
-6.1061201044e-09
-5.26541213588e-11
-9.40534426381e-10
-6.05350797937e-09
-7.90023533094e-11
-9.24411961004e-10
-5.90627184381e-09
-9.41645428163e-11
-8.98055826285e-10
-5.67256401892e-09
-9.52130498744e-11
-8.61362252816e-10
-5.36257136359e-09
-8.03359868093e-11
-8.15099100607e-10
-4.99144084261e-09
-4.87136202409e-11
-7.62023661872e-10
-4.57761671527e-09
-7.08301068605e-10
-4.13937342185e-09
-6.66954251908e-13
4.7657361887e-11
-7.72924794124e-10
-4.91034614686e-09
-9.29160997167e-13
7.86177551984e-11
-8.24872593828e-10
-5.43898150021e-09
9.29828020791e-11
-8.74377451246e-10
-5.93664379437e-09
9.15940676622e-11
-9.16317587759e-10
-6.38199696133e-09
7.63487110809e-11