# vtk DataFile Version 2.0
track0
ASCII
DATASET POLYDATA
POINTS 12075 float
-0.0205 0.001 1e-05
-0.02052 0.000999985 1e-05
-0.02054 0.000999974 1e-05
-0.02056 0.000999965 1e-05
-0.02058 0.000999959 1e-05
-0.0206 0.000999956 1e-05
-0.0205 0.00367778 1e-05
-0.02052 0.00367778 1e-05
-0.02054 0.00367777 1e-05
-0.02056 0.00367777 1e-05
-0.02058 0.00367777 1e-05
-0.0206 0.00367777 1e-05
-0.0205 0.00635556 1e-05
-0.02052 0.00635555 1e-05
-0.02054 0.00635555 1e-05
-0.02056 0.00635555 1e-05
-0.02058 0.00635555 1e-05
-0.0206 0.00635555 1e-05
-0.0205 0.00903333 1e-05
-0.02052 0.00903333 1e-05
-0.02054 0.00903333 1e-05
-0.02056 0.00903333 1e-05
-0.02058 0.00903333 1e-05
-0.0206 0.00903333 1e-05
-0.0205 0.0117111 1e-05
-0.02052 0.0117111 1e-05
-0.02054 0.0117111 1e-05
-0.02056 0.0117111 1e-05
-0.02058 0.0117111 1e-05
-0.0206 0.0117111 1e-05
-0.0205 0.0143889 1e-05
-0.02052 0.0143889 1e-05
-0.02054 0.0143889 1e-05
-0.02056 0.0143889 1e-05
-0.02058 0.0143889 1e-05
-0.0206 0.0143889 1e-05
-0.0205 0.0170667 1e-05
-0.02052 0.0170667 1e-05
-0.02054 0.0170667 1e-05
-0.02056 0.0170667 1e-05
-0.02058 0.0170667 1e-05
-0.0206 0.0170667 1e-05
-0.0205 0.0197444 1e-05
-0.02052 0.0197444 1e-05
-0.02054 0.0197444 1e-05
-0.02056 0.0197444 1e-05
-0.02058 0.0197444 1e-05
-0.0206 0.0197444 1e-05
-0.0205 0.0224222 1e-05
-0.02052 0.0224222 1e-05
-0.02054 0.0224222 1e-05
-0.02056 0.0224222 1e-05
-0.02058 0.0224222 1e-05
-0.0206 0.0224222 1e-05
-0.0205 0.0251 1e-05
-0.02052 0.0250998 1e-05
-0.02054 0.0250997 1e-05
-0.02056 0.0250995 1e-05
-0.02058 0.0250995 1e-05
-0.0206 0.0250994 1e-05
-0.0205 0.001 1e-05
-0.0202034 0.00100022 1e-05
-0.0199069 0.00100067 1e-05
-0.0196103 0.00100132 1e-05
-0.0193137 0.00100219 1e-05
-0.0190172 0.00100326 1e-05
-0.0187132 0.00100466 1e-05
-0.0184093 0.00100588 1e-05
-0.0181054 0.0010071 1e-05
-0.0178015 0.00100832 1e-05
-0.0174976 0.00100953 1e-05
-0.0172058 0.00101083 1e-05
-0.016914 0.00101193 1e-05
-0.0166222 0.00101303 1e-05
-0.0163305 0.00101413 1e-05
-0.0160387 0.00101523 1e-05
-0.0157586 0.00101636 1e-05
-0.0154784 0.00101745 1e-05
-0.0151983 0.00101856 1e-05
-0.0149182 0.00101972 1e-05
-0.0146381 0.0010209 1e-05
-0.0143747 0.00102209 1e-05
-0.0141113 0.00102327 1e-05
-0.0138479 0.00102449 1e-05
-0.0135846 0.00102574 1e-05
-0.0133621 0.00102682 1e-05
-0.0133484 0.00102689 1e-05
-0.0133347 0.00102695 1e-05
-0.0133209 0.00102702 1e-05
-0.0133072 0.00102709 1e-05
-0.0132934 0.00102716 1e-05
-0.0130353 0.00102845 1e-05
-0.0127771 0.00102975 1e-05
-0.0125189 0.00103107 1e-05
-0.0122607 0.0010324 1e-05
-0.0120025 0.00103376 1e-05
-0.0117547 0.00103506 1e-05
-0.0115068 0.00103638 1e-05
-0.0112589 0.0010377 1e-05
-0.0110111 0.00103903 1e-05
-0.0107632 0.00104036 1e-05
-0.0105252 0.00104163 1e-05
-0.0102873 0.00104291 1e-05
-0.0100493 0.00104419 1e-05
-0.00981133 0.00104547 1e-05
-0.00957337 0.00104675 1e-05
-0.00934491 0.00104797 1e-05
-0.00911645 0.00104919 1e-05
-0.00888799 0.00105041 1e-05
-0.00865954 0.00105163 1e-05
-0.00843108 0.00105285 1e-05
-0.00821175 0.001054 1e-05
-0.00799242 0.00105516 1e-05
-0.00777309 0.00105632 1e-05
-0.00755376 0.00105747 1e-05
-0.00733443 0.00105861 1e-05
-0.00712387 0.0010597 1e-05
-0.0069133 0.0010608 1e-05
-0.00670273 0.00106189 1e-05
-0.00649216 0.00106297 1e-05
-0.0062816 0.00106405 1e-05
-0.00607944 0.00106507 1e-05
-0.00587729 0.0010661 1e-05
-0.00567514 0.00106713 1e-05
-0.00547298 0.00106815 1e-05
-0.00527083 0.00106916 1e-05
-0.00507675 0.00107013 1e-05
-0.00488267 0.00107109 1e-05
-0.0046886 0.00107206 1e-05
-0.00449452 0.00107302 1e-05
-0.00430044 0.00107397 1e-05
-0.00411412 0.00107488 1e-05
-0.0039278 0.00107579 1e-05
-0.00374147 0.0010767 1e-05
-0.00355515 0.00107761 1e-05
-0.00336883 0.00107851 1e-05
-0.00318995 0.00107937 1e-05
-0.00301107 0.00108023 1e-05
-0.00283219 0.00108109 1e-05
-0.00265331 0.00108194 1e-05
-0.00247443 0.0010828 1e-05
-0.0023027 0.00108361 1e-05
-0.00213097 0.00108443 1e-05
-0.00195924 0.00108525 1e-05
-0.0017875 0.00108607 1e-05
-0.00161577 0.00108689 1e-05
-0.0014509 0.00108766 1e-05
-0.00128603 0.00108844 1e-05
-0.00112116 0.00108923 1e-05
-0.000956289 0.00109001 1e-05
-0.000791418 0.0010908 1e-05
-0.000633135 0.00109156 1e-05
-0.000474851 0.00109232 1e-05
-0.000316567 0.00109309 1e-05
-0.000158284 0.00109385 1e-05
0 0.00109462 1e-05
0.000105677 0.00109513 1e-05
0.000211355 0.00109564 1e-05
0.000317032 0.00109615 1e-05
0.00042271 0.00109666 1e-05
0.000528387 0.00109716 1e-05
0.000634886 0.00109766 1e-05
0.000741385 0.00109817 1e-05
0.000847885 0.00109866 1e-05
0.000954384 0.00109916 1e-05
0.00106088 0.00109965 1e-05
0.00116821 0.00110013 1e-05
0.00127554 0.00110062 1e-05
0.00138286 0.00110109 1e-05
0.00149019 0.00110156 1e-05
0.00159752 0.00110203 1e-05
0.00170568 0.00110248 1e-05
0.00181384 0.00110294 1e-05
0.001922 0.00110338 1e-05
0.00203016 0.00110382 1e-05
0.00213833 0.00110424 1e-05
0.00224733 0.00110466 1e-05
0.00235633 0.00110507 1e-05
0.00246533 0.00110548 1e-05
0.00257434 0.00110587 1e-05
0.00268334 0.00110626 1e-05
0.00279319 0.00110663 1e-05
0.00290304 0.00110701 1e-05
0.00301289 0.00110737 1e-05
0.00312274 0.00110773 1e-05
0.00323259 0.00110808 1e-05
0.00334329 0.00110842 1e-05
0.003454 0.00110875 1e-05
0.0035647 0.00110908 1e-05
0.0036754 0.0011094 1e-05
0.00378611 0.00110971 1e-05
0.00389767 0.00111001 1e-05
0.00400924 0.00111031 1e-05
0.0041208 0.0011106 1e-05
0.00423237 0.00111089 1e-05
0.00434393 0.00111116 1e-05
0.00445636 0.00111143 1e-05
0.00456879 0.00111169 1e-05
0.00468123 0.00111194 1e-05
0.00479366 0.00111218 1e-05
0.00490609 0.00111242 1e-05
0.0050194 0.00111265 1e-05
0.0051327 0.00111287 1e-05
0.00524601 0.00111309 1e-05
0.00535932 0.00111329 1e-05
0.00547262 0.00111349 1e-05
0.00558681 0.00111368 1e-05
0.005701 0.00111387 1e-05
0.00581518 0.00111405 1e-05
0.00592937 0.00111422 1e-05
0.00604356 0.00111438 1e-05
0.00615863 0.00111453 1e-05
0.00627371 0.00111468 1e-05
0.00638878 0.00111482 1e-05
0.00650386 0.00111495 1e-05
0.00661893 0.00111507 1e-05
0.0067349 0.00111519 1e-05
0.00685087 0.0011153 1e-05
0.00696684 0.0011154 1e-05
0.00708281 0.00111549 1e-05
0.00719878 0.00111558 1e-05
0.00731543 0.00111566 1e-05
0.00743209 0.00111573 1e-05
0.00754874 0.00111579 1e-05
0.00766539 0.00111584 1e-05
0.00777541 0.00111589 1e-05
0.00777696 0.00111589 1e-05
0.0077785 0.00111589 1e-05
0.00778005 0.00111589 1e-05
0.00778159 0.00111589 1e-05
0.00778313 0.00111589 1e-05
0.00790091 0.00111593 1e-05
0.00801869 0.00111596 1e-05
0.00813647 0.00111599 1e-05
0.00825425 0.001116 1e-05
0.00837203 0.00111601 1e-05
0.00849073 0.001116 1e-05
0.00860942 0.00111599 1e-05
0.00872812 0.00111598 1e-05
0.00884682 0.00111595 1e-05
0.00896551 0.00111592 1e-05
0.00908513 0.00111587 1e-05
0.00920475 0.00111582 1e-05
0.00932437 0.00111576 1e-05
0.00944398 0.00111569 1e-05
0.0095636 0.00111561 1e-05
0.00968415 0.00111552 1e-05
0.0098047 0.00111543 1e-05
0.00992525 0.00111532 1e-05
0.0100458 0.00111521 1e-05
0.0101663 0.00111509 1e-05
0.0102878 0.00111495 1e-05
0.0104093 0.00111481 1e-05
0.0105308 0.00111467 1e-05
0.0106523 0.00111451 1e-05
0.0107738 0.00111435 1e-05
0.0108962 0.00111416 1e-05
0.0110186 0.00111397 1e-05
0.0111411 0.00111378 1e-05
0.0112635 0.00111358 1e-05
0.0113859 0.00111337 1e-05
0.0115093 0.00111313 1e-05
0.0116327 0.0011129 1e-05
0.0117561 0.00111266 1e-05
0.0118795 0.00111241 1e-05
0.0120028 0.00111215 1e-05
0.0121272 0.00111187 1e-05
0.0122515 0.00111159 1e-05
0.0123759 0.0011113 1e-05
0.0125002 0.00111101 1e-05
0.0126245 0.0011107 1e-05
0.0127498 0.00111037 1e-05
0.0128752 0.00111004 1e-05
0.0130005 0.0011097 1e-05
0.0131258 0.00110935 1e-05
0.0132511 0.00110899 1e-05
0.0133774 0.00110861 1e-05
0.0135036 0.00110823 1e-05
0.0136299 0.00110784 1e-05
0.0137562 0.00110744 1e-05
0.0138825 0.00110703 1e-05
0.0140098 0.0011066 1e-05
0.014137 0.00110617 1e-05
0.0142643 0.00110573 1e-05
0.0143915 0.00110527 1e-05
0.0145188 0.00110481 1e-05
0.0146471 0.00110433 1e-05
0.0147753 0.00110384 1e-05
0.0149036 0.00110335 1e-05
0.0150318 0.00110284 1e-05
0.0151601 0.00110233 1e-05
0.0152893 0.00110179 1e-05
0.0154186 0.00110125 1e-05
0.0155478 0.0011007 1e-05
0.0156771 0.00110014 1e-05
0.0158063 0.00109957 1e-05
0.0159366 0.00109898 1e-05
0.0160668 0.00109839 1e-05
0.0161971 0.00109778 1e-05
0.0163274 0.00109717 1e-05
0.0164576 0.00109654 1e-05
0.0165889 0.00109591 1e-05
0.0167201 0.00109526 1e-05
0.0168514 0.00109459 1e-05
0.0169827 0.00109392 1e-05
0.0171139 0.00109324 1e-05
0.0172462 0.00109255 1e-05
0.0173785 0.00109185 1e-05
0.0175108 0.00109113 1e-05
0.0176431 0.0010904 1e-05
0.0177754 0.00108966 1e-05
0.0179087 0.00108892 1e-05
0.018042 0.00108816 1e-05
0.0181753 0.00108739 1e-05
0.0183087 0.0010866 1e-05
0.018442 0.00108581 1e-05
0.0185763 0.00108501 1e-05
0.0187107 0.0010842 1e-05
0.018845 0.00108336 1e-05
0.0189794 0.00108252 1e-05
0.0191137 0.00108167 1e-05
0.0192491 0.00108083 1e-05
0.0193845 0.00107995 1e-05
0.0195199 0.00107906 1e-05
0.0196553 0.00107816 1e-05
0.0197907 0.00107726 1e-05
0.0199272 0.00107635 1e-05
0.0200636 0.00107543 1e-05
0.0202001 0.00107448 1e-05
0.0203365 0.00107351 1e-05
0.020473 0.00107256 1e-05
0.0206105 0.0010716 1e-05
0.020748 0.00107062 1e-05
0.0208855 0.00106961 1e-05
0.021023 0.00106859 1e-05
0.0211606 0.00106758 1e-05
0.0212991 0.00106656 1e-05
0.0214377 0.00106552 1e-05
0.0215763 0.00106445 1e-05
0.0217149 0.00106338 1e-05
0.0218535 0.00106231 1e-05
0.0219931 0.00106124 1e-05
0.0221328 0.00106014 1e-05
0.0222724 0.00105901 1e-05
0.0224121 0.00105788 1e-05
0.0225517 0.00105675 1e-05
0.0226925 0.00105562 1e-05
0.0228332 0.00105447 1e-05
0.022974 0.00105328 1e-05
0.0231147 0.00105209 1e-05
0.0232555 0.00105091 1e-05
0.0233973 0.00104972 1e-05
0.0235391 0.00104851 1e-05
0.023681 0.00104726 1e-05
0.0238228 0.00104601 1e-05
0.0239647 0.00104477 1e-05
0.0241076 0.00104352 1e-05
0.0242505 0.00104225 1e-05
0.0243935 0.00104094 1e-05
0.0245364 0.00103963 1e-05
0.0246794 0.00103833 1e-05
0.0248234 0.00103702 1e-05
0.0249675 0.00103569 1e-05
0.0251115 0.00103432 1e-05
0.0252556 0.00103295 1e-05
[...]
POINT_DATA 12075
 FIELD attributes 2
p 1 12075 float
-5.6579 -5.65459 -5.65127 -5.64796 -5.64464 -5.64133
-5.81025 -5.81023 -5.81021 -5.81019 -5.81016 -5.81014
-5.98436 -5.98423 -5.98411 -5.98399 -5.98386 -5.98376
-6.07768 -6.07763 -6.07757 -6.07752 -6.07747 -6.07741
-6.1228 -6.12269 -6.12257 -6.12246 -6.12235 -6.12224
-6.12941 -6.12925 -6.12909 -6.12892 -6.12876 -6.1286
-6.10256 -6.10249 -6.10242 -6.10235 -6.10228 -6.10221
-6.03307 -6.03303 -6.03299 -6.03295 -6.03291 -6.03287
-5.91184 -5.91185 -5.91185 -5.91186 -5.91187 -5.91187
-3.69926 -3.71859 -3.73779 -3.75686 -3.7758 -3.7946
-5.6579 -5.65719 -5.65357 -5.64987 -5.6461 -5.63772 -5.65156 -5.66653 -5.6815 -5.69646 -5.72088 -5.74263 -5.77256 -5.80248 -5.8324 -5.86514 -5.88078 -5.90246 -5.92415 -5.94584 -5.96915 -5.98801 -6.00888 -6.02975 -6.05063 -6.06827 -6.06935 -6.07044 -6.07152 -6.07261 -6.07369 -6.09533 -6.11696 -6.1386 -6.16023 -6.1816 -6.20033 -6.21886 -6.2374 -6.25594 -6.2739 -6.28948 -6.30478 -6.32008 -6.33538 -6.35012 -6.36384 -6.37731 -6.39077 -6.40424 -6.41725 -6.42988 -6.44225 -6.45461 -6.46698 -6.47892 -6.49061 -6.502 -6.51338 -6.52477 -6.53572 -6.54655 -6.55709 -6.56763 -6.57817 -6.58834 -6.59849 -6.60835 -6.6182 -6.62805 -6.63758 -6.64715 -6.6565 -6.66584 -6.67519 -6.68432 -6.69349 -6.70232 -6.71114 -6.71997 -6.7286 -6.73748 -6.74645 -6.75542 -6.76439 -6.77363 -6.78313 -6.79226 -6.80138 -6.81051 -6.81965 -6.8297 -6.84108 -6.85246 -6.86384 -6.87595 -6.8874 -6.9004 -6.9134 -6.9264 -6.93901 -6.95048 -6.96168 -6.97288 -6.98408 -6.99414 -7.00253 -7.01159 -7.02066 -7.02973 -7.03931 -7.04787 -7.05665 -7.06542 -7.0742 -7.08301 -7.09149 -7.09887 -7.10625 -7.11363 -7.12003 -7.12712 -7.13285 -7.13858 -7.14432 -7.14889 -7.15479 -7.15959 -7.1644 -7.1692 -7.173 -7.17799 -7.18207 -7.18614 -7.19021 -7.19348 -7.19748 -7.20074 -7.20399 -7.20725 -7.20993 -7.21297 -7.21547 -7.21796 -7.22045 -7.2226 -7.22497 -7.227 -7.22902 -7.23104 -7.23287 -7.23495 -7.23681 -7.23866 -7.24052 -7.24227 -7.24418 -7.24596 -7.24773 -7.24951 -7.25123 -7.253 -7.2547 -7.2564 -7.2581 -7.25971 -7.25973 -7.25975 -7.25977 -7.2598 -7.25982 -7.26149 -7.26317 -7.26484 -7.26652 -7.26836 -7.26987 -7.27156 -7.27325 -7.27494 -7.27704 -7.27836 -7.28013 -7.28189 -7.28366 -7.28614 -7.28729 -7.28919 -7.29109 -7.29299 -7.29596 -7.29693 -7.29896 -7.30099 -7.30302 -7.30647 -7.30724 -7.30937 -7.3115 -7.31363 -7.31752 -7.3181 -7.32034 -7.32259 -7.32483 -7.32915 -7.3296 -7.33197 -7.33435 -7.33672 -7.34143 -7.34181 -7.34431 -7.34682 -7.34932 -7.35438 -7.35471 -7.35735 -7.35998 -7.36262 -7.36797 -7.36831 -7.37107 -7.37383 -7.37668 -7.38217 -7.38276 -7.38548 -7.38837 -7.39161 -7.39701 -7.39795 -7.40058 -7.4036 -7.40719 -7.41248 -7.41377 -7.41635 -7.41951 -7.42339 -7.42857 -7.4302 -7.43279 -7.43606 -7.44019 -7.44526 -7.44723 -7.44984 -7.45324 -7.45757 -7.46253 -7.46481 -7.4675 -7.47102 -7.4755 -7.48037 -7.48294 -7.48573 -7.48936 -7.49396 -7.49876 -7.5016 -7.50451 -7.50825 -7.51294 -7.51767 -7.52076 -7.52385 -7.52772 -7.53241 -7.53709 -7.54041 -7.54373 -7.5477 -7.55235 -7.557 -7.56055 -7.56409 -7.56817 -7.57278 -7.57739 -7.58114 -7.58489 -7.58905 -7.59362 -7.59818 -7.6021 -7.60603 -7.61025 -7.61478 -7.6193 -7.62335 -7.62741 -7.63169 -7.63619 -7.64069 -7.64483 -7.64898 -7.65331 -7.65781 -7.66231 -7.66653 -7.67075 -7.67514 -7.67965 -7.68418 -7.68845 -7.69276 -7.69718 -7.7017 -7.70625 -7.71057 -7.71493 -7.71939 -7.72392 -7.72848 -7.73283 -7.73724 -7.74173 -7.74625 -7.75083 -7.7552 -7.75964 -7.76414 -7.76866 -7.77325 -7.77761 -7.78208 -7.78658 -7.79109 -7.79568 -7.80004 -7.80452 -7.80901 -7.8135 -7.81807 -7.82242 -7.82689 -7.83137 -7.83584 -7.84038 -7.84472 -7.84916 -7.8536 -7.85804 -7.86254 -7.86686 -7.87126 -7.87566 -7.88006 -7.88449 -7.88878 -7.89313 -7.89747 -7.90182 -7.90618 -7.91042 -7.91469 -7.91897 -7.92324 -7.92753 -7.93082 -7.93413 -7.93744 -7.94076 -7.94395 -7.94485 -7.94575 -7.94664 -7.94754 -7.94844 -7.95253 -7.95662 -7.96071 -7.9648 -7.96891 -7.97289 -7.97686 -7.98084 -7.98482 -7.98881 -7.99268 -7.99653 -8.00038 -8.00424 -8.0081 -8.01184 -8.01554 -8.01925 -8.02295 -8.02666 -8.03025 -8.03378 -8.0373 -8.04083 -8.04435 -8.04777 -8.0511 -8.05443 -8.05775 -8.06106 -8.06429 -8.06744 -8.07055 -8.07366 -8.07673 -8.07976 -8.08271 -8.0856 -8.08845 -8.09127 -8.09406 -8.0968 -8.09943 -8.10199 -8.10453 -8.10706 -8.10957 -8.11191 -8.11415 -8.11638 -8.11862 -8.12086 -8.1229 -8.12479 -8.12669 -8.12861 -8.13053 -8.13224 -8.13377 -8.1353 -8.13687 -8.13844 -8.1398 -8.14094 -8.14207 -8.14325 -8.14444 -8.14544 -8.14615 -8.14686 -8.14764 -8.14841 -8.14898 -8.14928 -8.14954 -8.14989 -8.15016 -8.15027 -8.15018 -8.14996 -8.14984 -8.14958 -8.1492 -8.14869 -8.14796 -8.14733 -8.14648 -8.14557 -8.14464 -8.14335 -8.14217 -8.14069 -8.13922 -8.13774 -8.13596 -8.13412 -8.13204 -8.12996 -8.12789 -8.12561 -8.12305 -8.12033 -8.11762 -8.11491 -8.11212 -8.11006 -8.10794 -8.10582 -8.1037 -8.10167 -8.10041 -8.09914 -8.09787 -8.09661 -8.0953 -8.09131 -8.08726 -8.08321 -8.07917 -8.07493 -8.07038 -8.06558 -8.06078 -8.05599 -8.05083 -8.0457 -8.0401 -8.03452 -8.02894 -8.0228 -8.01698 -8.01065 -8.00423 -7.99764 -7.99063 -7.98397 -7.977 -7.96971 -7.96203 -7.95413 -7.94657 -7.93895 -7.93075 -7.92192 -7.91306 -7.90458 -7.8961 -7.88693 -7.87708 -7.86724 -7.85778 -7.84833 -7.83818 -7.8273 -7.81643 -7.80595 -7.79549 -7.78426 -7.77238 -7.76044 -7.74891 -7.7371 -7.72478 -7.71211 -7.69906 -7.68644 -7.6732 -7.65975 -7.64628 -7.63208 -7.61821 -7.60358 -7.58896 -7.57434 -7.55928 -7.54388 -7.52804 -7.5122 -7.49637 -7.48047 -7.47701 -7.47347 -7.46993 -7.46639 -7.46291 -7.44947 -7.43605 -7.42263 -7.40921 -7.39553 -7.3776 -7.3594 -7.34121 -7.32303 -7.3042 -7.28534 -7.26583 -7.24633 -7.22662 -7.20628 -7.18612 -7.16565 -7.1448 -7.12332 -7.1016 -7.08007 -7.05856 -7.03625 -7.01312 -6.98999 -6.96707 -6.94416 -6.92042 -6.89586 -6.8713 -6.84696 -6.82241 -6.79712 -6.77141 -6.74539 -6.71961 -6.69309 -6.66632 -6.63957 -6.61215 -6.58461 -6.55635 -6.5281 -6.49986 -6.47148 -6.46339 -6.45514 -6.44689 -6.43864 -6.43056 -6.40911 -6.38767 -6.36623 -6.3448 -6.32307 -6.29219 -6.26106 -6.22994 -6.19883 -6.16698 -6.13484 -6.10232 -6.0697 -6.03667 -6.00327 -5.9696 -5.93595 -5.90173 -5.86681 -5.8319 -5.79672 -5.76155 -5.72573 -5.68932 -5.6529 -5.61622 -5.57927 -5.54183 -5.50423 -5.46633 -5.42816 -5.38923 -5.35031 -5.3114 -5.27227 -5.25091 -5.22928 -5.20765 -5.18603 -5.1652 -5.14635 -5.1275 -5.10866 -5.08982 -5.07073 -5.02922 -4.98755 -4.94588 -4.90424 -4.8618 -4.81914 -4.77621 -4.73316 -4.68962 -4.64579 -4.60175 -4.55773 -4.5132 -4.46807 -4.42293 -4.37756 -4.33219 -4.28614 -4.23985 -4.19346 -4.14683 -4.0997 -4.05243 -4.00517 -3.95769 -3.92622 -3.89445 -3.86269 -3.83094 -3.8005 -3.7836 -3.76671 -3.74982 -3.73292 -3.71586 -3.66652 -3.61709 -3.56769 -3.51829 -3.46826 -3.41803 -3.36771 -3.3173 -3.26649 -3.21552 -3.16434 -3.11316 -3.06168 -3.00989 -2.95809 -2.90603 -2.85385 -2.80142 -2.74897 -2.69643 -2.64356 -2.59042 -2.5373 -2.48419 -2.43105 -2.43033 -2.4296 -2.42887 -2.42815 -2.42742 -2.37442 -2.32143 -2.26845 -2.21549 -2.16225 -2.10801 -2.05381 -1.99962 -1.94529 -1.89085 -1.83618 -1.78152 -1.72684 -1.67213 -1.6174 -1.5624 -1.50739 -1.45235 -1.39735 -1.34243 -1.29435 -1.24629 -1.19823 -1.15018 -1.10411 -1.09658 -1.08904 -1.08151 -1.07398 -1.06644 -1.01106 -0.955734 -0.900416 -0.84511 -0.789793 -0.734255 -0.678846 -0.623587 -0.56842 -0.513231 -0.4578 -0.402382 -0.347117 -0.292191 -0.237233 -0.182013 -0.12697 -0.072004 -0.0170478 0.0377356 0.0585732 0.0793029 0.100031 0.120758 0.141207 0.175269 0.209328 0.243384 0.277436 0.311379 0.366106 0.420479 0.474843 0.529071 0.583191 0.637477 0.691754 0.745634 0.79917 0.852734 0.906477 0.960086 1.01348 1.06683 1.11978 1.15682 1.19362 1.23041 1.2672 1.30336 1.31956 1.33575 1.35195 1.36814 1.38426 1.43686 1.48924 1.54162 1.59391 1.64597 1.69813 1.75027 1.80183 1.85307 1.90433 1.95571 2.00703 2.05797 2.10867 2.15908 2.20552 2.25155 2.29757 2.34359 2.38911 2.39331 2.39751 2.40171 2.40591 2.41008 2.45968 2.50922 2.55876 2.60828 2.65743 2.70662 2.75562 2.80425 2.85248 2.9007 2.94899 2.99727 3.04514 3.09254 3.13983 3.18719 3.23414 3.28105 3.32796 3.37474 3.38111 3.38742 3.39374 3.40005 3.40636 3.44628 3.48621 3.52613 3.56606 3.60565 3.65154 3.69704 3.74237 3.78738 3.83229 3.87725 3.9222 3.96675 4.01071 4.05466 4.09868 4.14243 4.18603 4.22963 4.27283 4.29183 4.31064 4.32946 4.34828 4.3672 4.3912 4.4152 4.43921 4.46321 4.48701 4.52952 4.5716 4.61367 4.65558 4.69726 4.739 4.78075 4.82197 4.86281 4.90365 4.94456 4.98538 5.02594 5.06634 5.10636 5.14208 5.17752 5.21297 5.24841 5.28441 5.28866 5.29291 5.29716 5.30141 5.30563 5.34497 5.38424 5.42351 5.46278 5.50172 5.54078 5.57962 5.6182 5.65653 5.69481 5.73322 5.77163 5.8098 5.84749 5.88517 5.923 5.96066 5.99825 6.03584 6.07312 6.09199 6.11076 6.12953 6.14831 6.16722 6.1856 6.20397 6.22235 6.24072 6.25901 6.29609 6.33292 6.36975 6.40652 6.44317 6.47998 6.51678 6.55326 6.58962 6.62596 6.66246 6.69894 6.73535 6.77164 6.80776 6.84362 6.87945 6.91528 6.95111 6.98714 6.9875 6.98787 6.98824 6.98861 6.98898 7.02519 7.06141 7.09762 7.13384 7.17006 7.20645 7.24273 7.27893 7.31519 7.35146 7.38788 7.42429 7.46081 7.49722 7.53364 7.57019 7.60688 7.64363 7.68038 7.71709 7.72915 7.74129 7.75343 7.76557 7.77765 7.80256 7.82747 7.85238 7.8773 7.90238 7.93981 7.97722 8.01464 8.05226 8.09003 8.12789 8.16576 8.20389 8.2422 8.28053 8.31895 8.35764 8.39654 8.43543 8.4744 8.48959 8.50498 8.52037 8.53577 8.55099 8.57517 8.59935 8.62353 8.64772 8.67224 8.71234 8.75261 8.79289 8.83357 8.87447 8.91541 8.95635 8.99778 9.03959 9.08143 9.12328 9.16568 9.20823 9.25078 9.29341 9.29783 9.30231 9.30681 9.31131 9.31579 9.35466 9.39353 9.4324 9.47134 9.51088 9.55494 9.59907 9.64351 9.68858 9.73368 9.77874 9.82398 9.86975 9.91555 9.96164 9.98547 10.0096 10.0338 10.058 10.082 10.1044 10.1269 10.1494 10.1719 10.1947 10.2418 10.2891 10.3365 10.3843 10.4323 10.4802 10.5281 10.5765 10.6251 10.6737 10.7112 10.749 10.7869 10.8247 10.8634 10.8743 10.8852 10.8961 10.907 10.918 10.9672 11.0165 11.0657 11.1151 11.1648 11.2143 11.2638 11.313 11.362 11.4109 11.4597 11.5095 11.5597 11.61 11.6602 11.6681 11.675 11.6817 11.6885 11.6954 11.7344 11.7734 11.8123 11.8508 11.8838 11.9223 11.965 12.012 12.0724 12.1341 12.1953 12.2536 12.2908 12.3272 12.3539 12.3627 12.3729 12.384 12.3952 12.4069 12.4267 12.4464 12.466 12.4875 12.5116 12.5479 12.5841 12.62 12.656 12.6917 12.727 12.7598 12.7913 12.8227 12.8546 12.8556 12.8566 12.8575 12.8585 12.8594 12.8863 12.9131 12.9397 12.9655 12.9892 13.0124 13.0354 13.0562 13.0749 13.0935 13.1103 13.1248 13.138 13.1512 13.1635 13.165 13.1659 13.1667 13.1675 13.1683 13.1745 13.1806 13.1866 13.1923 13.1952 13.1957 13.1949 13.1923 13.1856 13.1785 13.1681 13.1575 13.1426 13.125 13.1067 13.0846 13.0578 13.0302 13.0025 12.9734 12.9632 12.9517 12.9402 12.9286 12.916 12.8885 12.861 12.8333 12.8056 12.7748 12.7254 12.6723 12.619 12.5634 12.5036 12.4391 12.3739 12.3039 12.2277 12.1513 12.0698 11.9882 11.9002 11.8062 11.7121 11.6124 11.5104 11.4033 11.2938 11.1812 11.0626 10.9366 10.8096 10.6824 10.5501 10.4072 10.2596 10.112 9.96437 9.81548 9.75427 9.69108 9.62789 9.5647 9.49175 9.38563 9.27946 9.17326 9.06702 8.95759 8.7655 8.57218 8.3788 8.18536 7.98878 7.77743 7.54838 7.31919 7.08987 6.83434 6.56929 6.32083 6.07459 5.83381 5.60763 5.37362 5.08807 4.76018 4.37218 3.94106 3.49439 3.08666 2.80703 2.66752 2.55887 2.44603 2.33344 1.81674 0.907697 0