# vtk DataFile Version 2.0
track0
ASCII
DATASET POLYDATA
POINTS 12075 float
-0.0205 0.001 1e-05
-0.02052 0.000999985 1e-05
-0.02054 0.000999974 1e-05
-0.02056 0.000999965 1e-05
-0.02058 0.000999959 1e-05
-0.0206 0.000999956 1e-05
-0.0205 0.00367778 1e-05
-0.02052 0.00367778 1e-05
-0.02054 0.00367777 1e-05
-0.02056 0.00367777 1e-05
-0.02058 0.00367777 1e-05
-0.0206 0.00367777 1e-05
-0.0205 0.00635556 1e-05
-0.02052 0.00635555 1e-05
-0.02054 0.00635555 1e-05
-0.02056 0.00635555 1e-05
-0.02058 0.00635555 1e-05
-0.0206 0.00635555 1e-05
-0.0205 0.00903333 1e-05
-0.02052 0.00903333 1e-05
-0.02054 0.00903333 1e-05
-0.02056 0.00903333 1e-05
-0.02058 0.00903333 1e-05
-0.0206 0.00903333 1e-05
-0.0205 0.0117111 1e-05
-0.02052 0.0117111 1e-05
-0.02054 0.0117111 1e-05
-0.02056 0.0117111 1e-05
-0.02058 0.0117111 1e-05
-0.0206 0.0117111 1e-05
-0.0205 0.0143889 1e-05
-0.02052 0.0143889 1e-05
-0.02054 0.0143889 1e-05
-0.02056 0.0143889 1e-05
-0.02058 0.0143889 1e-05
-0.0206 0.0143889 1e-05
-0.0205 0.0170667 1e-05
-0.02052 0.0170667 1e-05
-0.02054 0.0170667 1e-05
-0.02056 0.0170667 1e-05
-0.02058 0.0170667 1e-05
-0.0206 0.0170667 1e-05
-0.0205 0.0197444 1e-05
-0.02052 0.0197444 1e-05
-0.02054 0.0197444 1e-05
-0.02056 0.0197444 1e-05
-0.02058 0.0197444 1e-05
-0.0206 0.0197444 1e-05
-0.0205 0.0224222 1e-05
-0.02052 0.0224222 1e-05
-0.02054 0.0224222 1e-05
-0.02056 0.0224222 1e-05
-0.02058 0.0224222 1e-05
-0.0206 0.0224222 1e-05
-0.0205 0.0251 1e-05
-0.02052 0.0250998 1e-05
-0.02054 0.0250997 1e-05
-0.02056 0.0250995 1e-05
-0.02058 0.0250995 1e-05
-0.0206 0.0250994 1e-05
-0.0205 0.001 1e-05
-0.0202034 0.00100022 1e-05
-0.0199069 0.00100067 1e-05
-0.0196103 0.00100132 1e-05
-0.0193137 0.00100219 1e-05
-0.0190172 0.00100326 1e-05
-0.0187132 0.00100466 1e-05
-0.0184093 0.00100588 1e-05
-0.0181054 0.0010071 1e-05
-0.0178015 0.00100832 1e-05
-0.0174976 0.00100953 1e-05
-0.0172058 0.00101083 1e-05
-0.016914 0.00101193 1e-05
-0.0166222 0.00101303 1e-05
-0.0163305 0.00101413 1e-05
-0.0160387 0.00101523 1e-05
-0.0157586 0.00101636 1e-05
-0.0154784 0.00101745 1e-05
-0.0151983 0.00101856 1e-05
-0.0149182 0.00101972 1e-05
-0.0146381 0.0010209 1e-05
-0.0143747 0.00102209 1e-05
-0.0141113 0.00102327 1e-05
-0.0138479 0.00102449 1e-05
-0.0135846 0.00102574 1e-05
-0.0133621 0.00102682 1e-05
-0.0133484 0.00102689 1e-05
-0.0133347 0.00102695 1e-05
-0.0133209 0.00102702 1e-05
-0.0133072 0.00102709 1e-05
-0.0132934 0.00102716 1e-05
-0.0130353 0.00102845 1e-05
-0.0127771 0.00102975 1e-05
-0.0125189 0.00103107 1e-05
-0.0122607 0.0010324 1e-05
-0.0120025 0.00103376 1e-05
-0.0117547 0.00103506 1e-05
-0.0115068 0.00103638 1e-05
-0.0112589 0.0010377 1e-05
-0.0110111 0.00103903 1e-05
-0.0107632 0.00104036 1e-05
-0.0105252 0.00104163 1e-05
-0.0102873 0.00104291 1e-05
-0.0100493 0.00104419 1e-05
-0.00981133 0.00104547 1e-05
-0.00957337 0.00104675 1e-05
-0.00934491 0.00104797 1e-05
-0.00911645 0.00104919 1e-05
-0.00888799 0.00105041 1e-05
-0.00865954 0.00105163 1e-05
-0.00843108 0.00105285 1e-05
-0.00821175 0.001054 1e-05
-0.00799242 0.00105516 1e-05
-0.00777309 0.00105632 1e-05
-0.00755376 0.00105747 1e-05
-0.00733443 0.00105861 1e-05
-0.00712387 0.0010597 1e-05
-0.0069133 0.0010608 1e-05
-0.00670273 0.00106189 1e-05
-0.00649216 0.00106297 1e-05
-0.0062816 0.00106405 1e-05
-0.00607944 0.00106507 1e-05
-0.00587729 0.0010661 1e-05
-0.00567514 0.00106713 1e-05
-0.00547298 0.00106815 1e-05
-0.00527083 0.00106916 1e-05
-0.00507675 0.00107013 1e-05
-0.00488267 0.00107109 1e-05
-0.0046886 0.00107206 1e-05
-0.00449452 0.00107302 1e-05
-0.00430044 0.00107397 1e-05
-0.00411412 0.00107488 1e-05
-0.0039278 0.00107579 1e-05
-0.00374147 0.0010767 1e-05
-0.00355515 0.00107761 1e-05
-0.00336883 0.00107851 1e-05
-0.00318995 0.00107937 1e-05
-0.00301107 0.00108023 1e-05
-0.00283219 0.00108109 1e-05
-0.00265331 0.00108194 1e-05
-0.00247443 0.0010828 1e-05
-0.0023027 0.00108361 1e-05
-0.00213097 0.00108443 1e-05
-0.00195924 0.00108525 1e-05
-0.0017875 0.00108607 1e-05
-0.00161577 0.00108689 1e-05
-0.0014509 0.00108766 1e-05
-0.00128603 0.00108844 1e-05
-0.00112116 0.00108923 1e-05
-0.000956289 0.00109001 1e-05
-0.000791418 0.0010908 1e-05
-0.000633135 0.00109156 1e-05
-0.000474851 0.00109232 1e-05
-0.000316567 0.00109309 1e-05
-0.000158284 0.00109385 1e-05
0 0.00109462 1e-05
0.000105677 0.00109513 1e-05
0.000211355 0.00109564 1e-05
0.000317032 0.00109615 1e-05
0.00042271 0.00109666 1e-05
0.000528387 0.00109716 1e-05
0.000634886 0.00109766 1e-05
0.000741385 0.00109817 1e-05
0.000847885 0.00109866 1e-05
0.000954384 0.00109916 1e-05
0.00106088 0.00109965 1e-05
0.00116821 0.00110013 1e-05
0.00127554 0.00110062 1e-05
0.00138286 0.00110109 1e-05
0.00149019 0.00110156 1e-05
0.00159752 0.00110203 1e-05
0.00170568 0.00110248 1e-05
0.00181384 0.00110294 1e-05
0.001922 0.00110338 1e-05
0.00203016 0.00110382 1e-05
0.00213833 0.00110424 1e-05
0.00224733 0.00110466 1e-05
0.00235633 0.00110507 1e-05
0.00246533 0.00110548 1e-05
0.00257434 0.00110587 1e-05
0.00268334 0.00110626 1e-05
0.00279319 0.00110663 1e-05
0.00290304 0.00110701 1e-05
0.00301289 0.00110737 1e-05
0.00312274 0.00110773 1e-05
0.00323259 0.00110808 1e-05
0.00334329 0.00110842 1e-05
0.003454 0.00110875 1e-05
0.0035647 0.00110908 1e-05
0.0036754 0.0011094 1e-05
0.00378611 0.00110971 1e-05
0.00389767 0.00111001 1e-05
0.00400924 0.00111031 1e-05
0.0041208 0.0011106 1e-05
0.00423237 0.00111089 1e-05
0.00434393 0.00111116 1e-05
0.00445636 0.00111143 1e-05
0.00456879 0.00111169 1e-05
0.00468123 0.00111194 1e-05
0.00479366 0.00111218 1e-05
0.00490609 0.00111242 1e-05
0.0050194 0.00111265 1e-05
0.0051327 0.00111287 1e-05
0.00524601 0.00111309 1e-05
0.00535932 0.00111329 1e-05
0.00547262 0.00111349 1e-05
0.00558681 0.00111368 1e-05
0.005701 0.00111387 1e-05
0.00581518 0.00111405 1e-05
0.00592937 0.00111422 1e-05
0.00604356 0.00111438 1e-05
0.00615863 0.00111453 1e-05
0.00627371 0.00111468 1e-05
0.00638878 0.00111482 1e-05
0.00650386 0.00111495 1e-05
0.00661893 0.00111507 1e-05
0.0067349 0.00111519 1e-05
0.00685087 0.0011153 1e-05
0.00696684 0.0011154 1e-05
0.00708281 0.00111549 1e-05
0.00719878 0.00111558 1e-05
0.00731543 0.00111566 1e-05
0.00743209 0.00111573 1e-05
0.00754874 0.00111579 1e-05
0.00766539 0.00111584 1e-05
0.00777541 0.00111589 1e-05
0.00777696 0.00111589 1e-05
0.0077785 0.00111589 1e-05
0.00778005 0.00111589 1e-05
0.00778159 0.00111589 1e-05
0.00778313 0.00111589 1e-05
0.00790091 0.00111593 1e-05
0.00801869 0.00111596 1e-05
0.00813647 0.00111599 1e-05
0.00825425 0.001116 1e-05
0.00837203 0.00111601 1e-05
0.00849073 0.001116 1e-05
0.00860942 0.00111599 1e-05
0.00872812 0.00111598 1e-05
0.00884682 0.00111595 1e-05
0.00896551 0.00111592 1e-05
0.00908513 0.00111587 1e-05
0.00920475 0.00111582 1e-05
0.00932437 0.00111576 1e-05
0.00944398 0.00111569 1e-05
0.0095636 0.00111561 1e-05
0.00968415 0.00111552 1e-05
0.0098047 0.00111543 1e-05
0.00992525 0.00111532 1e-05
0.0100458 0.00111521 1e-05
0.0101663 0.00111509 1e-05
0.0102878 0.00111495 1e-05
0.0104093 0.00111481 1e-05
0.0105308 0.00111467 1e-05
0.0106523 0.00111451 1e-05
0.0107738 0.00111435 1e-05
0.0108962 0.00111416 1e-05
0.0110186 0.00111397 1e-05
0.0111411 0.00111378 1e-05
0.0112635 0.00111358 1e-05
0.0113859 0.00111337 1e-05
0.0115093 0.00111313 1e-05
0.0116327 0.0011129 1e-05
0.0117561 0.00111266 1e-05
0.0118795 0.00111241 1e-05
0.0120028 0.00111215 1e-05
0.0121272 0.00111187 1e-05
0.0122515 0.00111159 1e-05
0.0123759 0.0011113 1e-05
0.0125002 0.00111101 1e-05
0.0126245 0.0011107 1e-05
0.0127498 0.00111037 1e-05
0.0128752 0.00111004 1e-05
0.0130005 0.0011097 1e-05
0.0131258 0.00110935 1e-05
0.0132511 0.00110899 1e-05
0.0133774 0.00110861 1e-05
0.0135036 0.00110823 1e-05
0.0136299 0.00110784 1e-05
0.0137562 0.00110744 1e-05
0.0138825 0.00110703 1e-05
0.0140098 0.0011066 1e-05
0.014137 0.00110617 1e-05
0.0142643 0.00110573 1e-05
0.0143915 0.00110527 1e-05
0.0145188 0.00110481 1e-05
0.0146471 0.00110433 1e-05
0.0147753 0.00110384 1e-05
0.0149036 0.00110335 1e-05
0.0150318 0.00110284 1e-05
0.0151601 0.00110233 1e-05
0.0152893 0.00110179 1e-05
0.0154186 0.00110125 1e-05
0.0155478 0.0011007 1e-05
0.0156771 0.00110014 1e-05
0.0158063 0.00109957 1e-05
0.0159366 0.00109898 1e-05
0.0160668 0.00109839 1e-05
0.0161971 0.00109778 1e-05
0.0163274 0.00109717 1e-05
0.0164576 0.00109654 1e-05
0.0165889 0.00109591 1e-05
0.0167201 0.00109526 1e-05
0.0168514 0.00109459 1e-05
0.0169827 0.00109392 1e-05
0.0171139 0.00109324 1e-05
0.0172462 0.00109255 1e-05
0.0173785 0.00109185 1e-05
0.0175108 0.00109113 1e-05
0.0176431 0.0010904 1e-05
0.0177754 0.00108966 1e-05
0.0179087 0.00108892 1e-05
0.018042 0.00108816 1e-05
0.0181753 0.00108739 1e-05
0.0183087 0.0010866 1e-05
0.018442 0.00108581 1e-05
0.0185763 0.00108501 1e-05
0.0187107 0.0010842 1e-05
0.018845 0.00108336 1e-05
0.0189794 0.00108252 1e-05
0.0191137 0.00108167 1e-05
0.0192491 0.00108083 1e-05
0.0193845 0.00107995 1e-05
0.0195199 0.00107906 1e-05
0.0196553 0.00107816 1e-05
0.0197907 0.00107726 1e-05
0.0199272 0.00107635 1e-05
0.0200636 0.00107543 1e-05
0.0202001 0.00107448 1e-05
0.0203365 0.00107351 1e-05
0.020473 0.00107256 1e-05
0.0206105 0.0010716 1e-05
0.020748 0.00107062 1e-05
0.0208855 0.00106961 1e-05
0.021023 0.00106859 1e-05
0.0211606 0.00106758 1e-05
0.0212991 0.00106656 1e-05
0.0214377 0.00106552 1e-05
0.0215763 0.00106445 1e-05
0.0217149 0.00106338 1e-05
0.0218535 0.00106231 1e-05
0.0219931 0.00106124 1e-05
0.0221328 0.00106014 1e-05
0.0222724 0.00105901 1e-05
0.0224121 0.00105788 1e-05
0.0225517 0.00105675 1e-05
0.0226925 0.00105562 1e-05
0.0228332 0.00105447 1e-05
0.022974 0.00105328 1e-05
0.0231147 0.00105209 1e-05
0.0232555 0.00105091 1e-05
0.0233973 0.00104972 1e-05
0.0235391 0.00104851 1e-05
0.023681 0.00104726 1e-05
0.0238228 0.00104601 1e-05
0.0239647 0.00104477 1e-05
0.0241076 0.00104352 1e-05
0.0242505 0.00104225 1e-05
0.0243935 0.00104094 1e-05
0.0245364 0.00103963 1e-05
0.0246794 0.00103833 1e-05
0.0248234 0.00103702 1e-05
0.0249675 0.00103569 1e-05
0.0251115 0.00103432 1e-05
0.0252556 0.00103295 1e-05
[...]
POINT_DATA 12075
 FIELD attributes 1
U 3 12075 float
10.0004 	0.00731841 	0 10.0004 	0.00585473 	0 10.0003 	0.00439105 	0 10.0002 	0.00292736 	0 10.0001 	0.00146368 	0 10 	0 	0
10.0001 	0.000879924 	0 10 	0.000703939 	0 10 	0.000527954 	0 10 	0.000351969 	0 10 	0.000175985 	0 10 	0 	0
10.0001 	0.000467242 	0 10.0001 	0.000373604 	0 10.0001 	0.000279965 	0 10 	0.000186326 	0 10 	9.26869e-05 	0 10 	0 	0
10 	0.00026743 	0 10 	0.000213944 	0 10 	0.000160458 	0 10 	0.000106972 	0 10 	5.3486e-05 	0 10 	0 	0
10 	8.17856e-05 	0 10 	6.54285e-05 	0 10 	4.90714e-05 	0 10 	3.27143e-05 	0 10 	1.63571e-05 	0 10 	0 	0
10 	-2.49634e-05 	0 10 	-1.99707e-05 	0 10 	-1.4978e-05 	0 10 	-9.98536e-06 	0 10 	-4.99268e-06 	0 10 	0 	0
10 	-0.000215228 	0 10 	-0.000172183 	0 10 	-0.000129137 	0 10 	-8.60914e-05 	0 10 	-4.30457e-05 	0 10 	0 	0
10 	-0.000377228 	0 10 	-0.000301782 	0 10 	-0.000226337 	0 10 	-0.000150891 	0 10 	-7.54456e-05 	0 10 	0 	0
9.99999 	-0.000427184 	0 9.99999 	-0.000341747 	0 9.99999 	-0.00025631 	0 10 	-0.000170874 	0 10 	-8.54368e-05 	0 10 	0 	0
9.17387 	0.0870992 	0 9.1308 	0.0696794 	0 9.08741 	0.0522592 	0 9.04368 	0.0348389 	0 8.99962 	0.0174184 	0 8.95524 	0 	0
10.0004 	0.00731841 	0 10.0024 	0.015169 	0 10.0045 	0.0221881 	0 10.0065 	0.029163 	0 10.0085 	0.036094 	0 10.0135 	0.0463095 	0 10.0163 	0.040209 	0 10.0207 	0.0401678 	0 10.0252 	0.0401268 	0 10.0296 	0.040086 	0 10.0356 	0.0445468 	0 10.0384 	0.037907 	0 10.0424 	0.0378635 	0 10.0464 	0.0378199 	0 10.0504 	0.0377763 	0 10.0545 	0.0408778 	0 10.0567 	0.0388008 	0 10.0591 	0.0401106 	0 10.0616 	0.041422 	0 10.064 	0.042735 	0 10.0662 	0.0451933 	0 10.0677 	0.0453048 	0 10.069 	0.0465071 	0 10.0703 	0.0477106 	0 10.0717 	0.0489152 	0 10.0728 	0.0499335 	0 10.0729 	0.0499968 	0 10.0729 	0.0500601 	0 10.073 	0.0501234 	0 10.0731 	0.0501868 	0 10.0732 	0.0502405 	0 10.0737 	0.0508684 	0 10.0742 	0.0514902 	0 10.0747 	0.0521124 	0 10.0752 	0.0527353 	0 10.0757 	0.0531939 	0 10.0756 	0.0534911 	0 10.0752 	0.0536828 	0 10.0749 	0.0538746 	0 10.0745 	0.0540666 	0 10.074 	0.0540199 	0 10.0736 	0.0541671 	0 10.0725 	0.0541458 	0 10.0714 	0.0541244 	0 10.0703 	0.0541031 	0 10.0687 	0.0538124 	0 10.0683 	0.0538958 	0 10.0667 	0.0537652 	0 10.0651 	0.0536346 	0 10.0634 	0.0535039 	0 10.0609 	0.0530869 	0 10.0609 	0.0531453 	0 10.0589 	0.0529548 	0 10.0568 	0.0527642 	0 10.0548 	0.0525736 	0 10.0512 	0.0520843 	0 10.0518 	0.0521432 	0 10.0495 	0.0519282 	0 10.0472 	0.0517132 	0 10.0449 	0.0514981 	0 10.0402 	0.0509764 	0 10.0417 	0.0510581 	0 10.0391 	0.0508413 	0 10.0366 	0.0506244 	0 10.0341 	0.0504075 	0 10.0283 	0.0498712 	0 10.0308 	0.049984 	0 10.0281 	0.0497841 	0 10.0254 	0.0495841 	0 10.0228 	0.0493841 	0 10.0158 	0.0488584 	0 10.0194 	0.0490148 	0 10.0167 	0.0488359 	0 10.0139 	0.0486571 	0 10.0112 	0.0484781 	0 10.003 	0.0479567 	0 10.0079 	0.0481613 	0 10.0051 	0.0480492 	0 10.0023 	0.0479372 	0 9.99957 	0.0478251 	0 9.99027 	0.0473837 	0 9.99643 	0.0476824 	0 9.9937 	0.0476092 	0 9.99096 	0.0475358 	0 9.98822 	0.0474625 	0 9.97771 	0.047003 	0 9.98528 	0.0473524 	0 9.98265 	0.0474911 	0 9.98003 	0.0476298 	0 9.97741 	0.0477685 	0 9.96578 	0.0475873 	0 9.9749 	0.0480891 	1.06462e-21 9.97299 	0.0481796 	7.07762e-21 9.97109 	0.0482702 	1.30905e-20 9.96918 	0.0483608 	1.91033e-20 9.95716 	0.047953 	1.61544e-20 9.96764 	0.0482066 	1.12391e-19 9.96602 	0.0479952 	1.04418e-19 9.96439 	0.0477839 	9.64418e-20 9.96277 	0.0475725 	8.84628e-20 9.95055 	0.0469274 	-1.78554e-20 9.96095 	0.0468604 	-4.85156e-20 9.95936 	0.0464995 	-5.39631e-20 9.95777 	0.0461385 	-5.94084e-20 9.95618 	0.0457775 	-6.48514e-20 9.94409 	0.045141 	-2.52264e-20 9.95403 	0.0448677 	-2.2229e-20 9.9522 	0.0442085 	-1.54458e-20 9.95036 	0.0435492 	-8.66318e-21 9.94852 	0.0428898 	-1.88118e-21 9.9365 	0.0420221 	8.48737e-21 9.94603 	0.0416889 	-6.44296e-21 9.94393 	0.0408223 	-2.83891e-20 9.94182 	0.0399555 	-5.03378e-20 9.9397 	0.0390885 	-7.2289e-20 9.92765 	0.0379368 	-1.0346e-19 9.93665 	0.0377078 	-1.47502e-19 9.93416 	0.0368611 	-1.32941e-19 9.93167 	0.0360141 	-1.18371e-19 9.92917 	0.0351669 	-1.03792e-19 9.91704 	0.0338896 	-3.51726e-20 9.92535 	0.0337845 	4.227e-20 9.92245 	0.0330211 	5.81993e-20 9.91953 	0.0322575 	7.41173e-20 9.91662 	0.0314936 	9.00239e-20 9.90446 	0.0301967 	4.32791e-20 9.912 	0.0301198 	-5.77967e-20 9.90868 	0.0293898 	-6.49976e-20 9.90535 	0.0286596 	-7.2181e-20 9.90202 	0.0279291 	-7.9347e-20 9.88993 	0.0266512 	-3.98748e-22 9.89658 	0.0265321 	7.42881e-20 9.89281 	0.0258105 	6.32856e-20 9.88904 	0.0250886 	5.22658e-20 9.88526 	0.0243665 	4.12284e-20 9.87331 	0.023145 	-3.31035e-20 9.87888 	0.022962 	-9.93771e-20 9.87463 	0.0222477 	-1.25508e-19 9.87037 	0.0215331 	-1.51632e-19 9.86611 	0.0208182 	-1.7775e-19 9.8544 	0.0196786 	-1.59652e-19 9.85867 	0.0194308 	-1.84552e-19 9.85392 	0.018728 	-1.69931e-19 9.84916 	0.018025 	-1.55305e-19 9.84439 	0.0173217 	-1.40673e-19 9.83308 	0.016276 	-9.73237e-20 9.83579 	0.0159718 	-8.20762e-20 9.83054 	0.0152851 	-6.03327e-20 9.82528 	0.0145981 	-3.85912e-20 9.82001 	0.0139108 	-1.68518e-20 9.80934 	0.0129588 	2.68699e-21 9.81018 	0.0125905 	0 9.80444 	0.0119135 	0 9.79869 	0.0112363 	0 9.79294 	0.0105587 	0 9.78322 	0.00969461 	0 9.78182 	0.00924735 	-1.89895e-20 9.7756 	0.0085759 	-4.1252e-20 9.76938 	0.00790413 	-6.35165e-20 9.76315 	0.00723202 	-8.57831e-20 9.75474 	0.00645951 	-1.09121e-19 9.75069 	0.00591768 	-1.15596e-19 9.74402 	0.00525319 	-1.16452e-19 9.73734 	0.00458834 	-1.17302e-19 9.73065 	0.00392312 	-1.18146e-19 9.72433 	0.00329538 	-1.18935e-19 9.72424 	0.00328652 	-1.18964e-19 9.72415 	0.00327766 	-1.18992e-19 9.72407 	0.0032688 	-1.19021e-19 9.72398 	0.00325994 	-1.19049e-19 9.7238 	0.00324722 	-1.19049e-19 9.71667 	0.00258644 	-8.49572e-20 9.70945 	0.00192173 	-5.07434e-20 9.70223 	0.00125659 	-1.65412e-20 9.69499 	0.000591034 	1.76493e-20 9.68131 	-0.000361903 	5.95285e-20 9.67956 	-0.000765041 	6.06267e-20 9.6719 	-0.0014265 	6.19479e-20 9.66424 	-0.00208841 	6.32664e-20 9.65656 	-0.00275079 	6.45822e-20 9.63624 	-0.00395258 	6.80102e-20 9.63973 	-0.00413142 	5.36829e-20 9.63165 	-0.00478943 	3.9353e-20 9.62356 	-0.00544795 	2.50216e-20 9.61546 	-0.00610697 	1.06888e-20 9.58888 	-0.00751029 	-1.12352e-21 9.59728 	-0.00751148 	-1.00834e-20 9.58881 	-0.0081674 	-2.37607e-20 9.58033 	-0.00882387 	-3.74365e-20 9.57183 	-0.00948089 	-5.1111e-20 9.53948 	-0.0110318 	-6.48019e-20 9.55238 	-0.0109078 	-6.53386e-20 9.54354 	-0.0115638 	-7.39574e-20 9.5347 	-0.0122204 	-8.25723e-20 9.52584 	-0.0128776 	-9.11833e-20 9.48836 	-0.0145192 	-1.12409e-19 9.50523 	-0.0143215 	-1.72117e-19 9.49607 	-0.0149773 	-1.60941e-19 9.48688 	-0.0156338 	-1.49781e-19 9.47769 	-0.0162909 	-1.38638e-19 9.43578 	-0.017962 	-4.85413e-20 9.45605 	-0.0177419 	-3.13995e-20 9.44657 	-0.0183977 	-2.21012e-20 9.43708 	-0.0190542 	-1.28019e-20 9.42757 	-0.0197113 	-3.50171e-21 9.38197 	-0.0213549 	0 9.40506 	-0.0211638 	0 9.3953 	-0.0218213 	0 9.38552 	-0.0224796 	0 9.37573 	-0.0231385 	0 9.3272 	-0.0247022 	0 9.3525 	-0.0245913 	2.15894e-21 9.34249 	-0.0252513 	1.07954e-20 9.33246 	-0.0259121 	1.94309e-20 9.32241 	-0.0265736 	2.80654e-20 9.27169 	-0.0280034 	4.86892e-20 9.29863 	-0.0280208 	1.83337e-19 9.2884 	-0.0286823 	1.86786e-19 9.27814 	-0.0293447 	1.90253e-19 9.26787 	-0.0300078 	1.93738e-19 9.21566 	-0.0312516 	4.8914e-20 9.24371 	-0.0314383 	2.6499e-20 9.23327 	-0.0321001 	1.87453e-20 9.22281 	-0.0327626 	1.09906e-20 9.21111 	-0.0334361 	3.9493e-21 9.15928 	-0.0344394 	2.01079e-20 9.18525 	-0.0348485 	1.22647e-19 9.17736 	-0.035491 	1.3165e-19 9.16672 	-0.0361529 	1.33143e-19 9.15092 	-0.0368258 	1.18756e-19 9.10274 	-0.0375633 	4.57648e-21 9.12537 	-0.038191 	-1.16694e-19 9.12088 	-0.0388452 	-1.49205e-19 9.1101 	-0.0395061 	-1.61167e-19 9.09092 	-0.0401267 	-1.50639e-19 9.0462 	-0.0406226 	-7.16175e-20 9.06571 	-0.041446 	-2.08878e-19 9.06408 	-0.0421551 	-2.52564e-19 9.05317 	-0.0428148 	-2.55302e-19 9.03127 	-0.0433381 	-2.03633e-19 8.9898 	-0.0436177 	-5.4992e-20 9.00644 	-0.0446139 	-2.89275e-20 9.00714 	-0.0454152 	-1.29835e-20 8.99612 	-0.0460734 	-4.47565e-21 8.97211 	-0.0464616 	0 8.93369 	-0.0465499 	0 8.94768 	-0.0476965 	0 8.95027 	-0.0486205 	0 8.93917 	-0.049277 	0 8.91358 	-0.0494996 	2.28792e-21 8.87798 	-0.0494213 	6.16082e-21 8.88956 	-0.0506971 	2.47137e-21 8.89362 	-0.0517684 	0 8.88246 	-0.0524233 	0 8.85578 	-0.0524562 	2.75257e-21 8.82277 	-0.0522347 	6.63054e-21 8.83217 	-0.0536191 	2.94074e-21 8.83737 	-0.0548561 	1.55971e-21 8.82616 	-0.0555094 	9.24826e-21 8.7988 	-0.0553359 	2.85163e-20 8.76817 	-0.0549942 	5.01387e-20 8.7756 	-0.0564694 	1.97151e-19 8.78163 	-0.0578858 	3.33733e-19 8.77039 	-0.0585383 	3.37875e-19 8.74271 	-0.058147 	1.97759e-19 8.71425 	-0.0577057 	5.07584e-20 8.71992 	-0.0592547 	2.94573e-20 8.72554 	-0.0608052 	8.15777e-21 8.71407 	-0.0614162 	2.97816e-22 8.68758 	-0.0608939 	4.01952e-21 8.6611 	-0.0603713 	7.74104e-21 8.66518 	-0.0619749 	4.21289e-21 8.66921 	-0.0635801 	6.85759e-22 8.65815 	-0.0641601 	2.64024e-21 8.63346 	-0.0635775 	-1.91517e-21 8.60878 	-0.0629945 	-6.46944e-21 8.61146 	-0.0646443 	-5.7294e-20 8.61407 	-0.0662957 	-1.08123e-19 8.60345 	-0.0668471 	-1.09703e-19 8.58039 	-0.0662176 	-6.32237e-20 8.55735 	-0.0655877 	-1.6742e-20 8.55879 	-0.0672791 	9.90789e-20 8.56016 	-0.0689723 	2.14893e-19 8.55001 	-0.0694952 	2.24832e-19 8.52843 	-0.0688234 	1.28333e-19 8.50687 	-0.0681511 	3.18338e-20 8.50721 	-0.0698681 	1.85062e-20 8.5075 	-0.0715868 	5.17429e-21 8.49785 	-0.0720818 	5.52715e-22 8.47759 	-0.0713843 	5.99235e-21 8.45734 	-0.0706863 	1.1434e-20 8.45674 	-0.0724142 	4.88569e-21 8.45607 	-0.0741438 	-1.66897e-21 8.44694 	-0.074614 	-2.41808e-20 8.42786 	-0.0739105 	-8.25779e-20 8.4088 	-0.0732065 	-1.40978e-19 8.40736 	-0.0749345 	-2.93637e-19 8.40586 	-0.0766641 	-4.46289e-19 8.39725 	-0.0771113 	-4.2839e-19 8.37925 	-0.0764157 	-2.53393e-19 8.36126 	-0.0757196 	-7.83968e-20 8.35908 	-0.0774398 	6.62723e-20 8.35671 	-0.0791353 	2.08032e-19 8.34831 	-0.0795319 	2.05175e-19 8.33174 	-0.0789112 	1.05505e-19 8.31472 	-0.0782337 	4.57616e-22 8.31188 	-0.0799432 	-1.03725e-19 8.30812 	-0.081442 	-1.9272e-19 8.29986 	-0.0818482 	-2.03425e-19 8.28532 	-0.081412 	-1.33582e-19 8.26918 	-0.0807598 	-4.31297e-20 8.26577 	-0.0824569 	-3.01001e-20 8.26088 	-0.0837618 	-1.71853e-20 8.25274 	-0.0841795 	-4.52329e-21 8.23997 	-0.0839293 	1.54024e-20 8.22464 	-0.0833074 	3.93672e-20 8.22071 	-0.0849912 	1.39107e-20 8.21491 	-0.0861069 	-3.04769e-21 8.2069 	-0.0865377 	-9.7662e-21 8.19567 	-0.0864728 	-4.74318e-21 8.18106 	-0.085885 	1.26613e-20 8.17668 	-0.0875554 	-6.7072e-21 8.17017 	-0.0884882 	-1.88601e-20 8.16228 	-0.0889334 	-2.62453e-20 8.15238 	-0.0890518 	-3.94505e-20 8.13843 	-0.0885008 	-6.45619e-20 8.13364 	-0.0901584 	6.12582e-20 8.1266 	-0.0909152 	9.43668e-20 8.11881 	-0.0913764 	9.70215e-20 8.11007 	-0.0916751 	8.12092e-20 8.09673 	-0.0911631 	-2.65157e-20 8.09157 	-0.0928088 	7.95932e-20 8.08414 	-0.0933973 	9.28135e-20 8.07644 	-0.0938757 	9.63254e-20 8.06871 	-0.0943511 	9.9503e-20 8.05591 	-0.0938798 	1.12272e-20 8.05031 	-0.0954461 	-7.19615e-22 8.04273 	-0.0959428 	-4.92069e-22 8.03512 	-0.0964397 	-2.6455e-22 8.0275 	-0.096937 	-3.70585e-23 8.01596 	-0.0966587 	1.92874e-20 8.00983 	-0.0980436 	0 8.00233 	-0.0985601 	0 7.99481 	-0.0990768 	0 7.98726 	-0.099594 	0 7.97684 	-0.0995077 	1.5511e-20 7.97031 	-0.100719 	0 7.96288 	-0.101257 	0 7.95543 	-0.101795 	0 7.94796 	-0.102333 	0 7.93852 	-0.102435 	0 7.93169 	-0.103481 	0 7.92433 	-0.104041 	0 7.91695 	-0.104601 	0 7.90954 	-0.105162 	0 7.90095 	-0.105447 	-7.20504e-21 7.89393 	-0.106337 	0 7.88662 	-0.10692 	0 7.8793 	-0.107504 	0 7.87195 	-0.108087 	0 7.8641 	-0.108552 	-6.40242e-21 7.85846 	-0.109166 	0 7.85272 	-0.109647 	0 7.84696 	-0.110128 	0 7.84119 	-0.11061 	0 7.83562 	-0.111075 	0 7.83401 	-0.111205 	0 7.83239 	-0.111336 	0 7.83078 	-0.111466 	0 7.82916 	-0.111597 	0 7.82773 	-0.111692 	0 7.82026 	-0.112359 	-1.06112e-20 7.81283 	-0.112995 	-2.16696e-20 7.80538 	-0.113631 	-3.27262e-20 7.7979 	-0.114267 	-4.3781e-20 7.79143 	-0.114702 	-5.4845e-20 7.78367 	-0.115546 	-5.14781e-20 7.77627 	-0.116209 	-5.06885e-20 7.76885 	-0.116872 	-4.9895e-20 7.7614 	-0.117536 	-4.90977e-20 7.7558 	-0.117838 	-5.30712e-20 7.74774 	-0.118856 	-4.10757e-20 7.74036 	-0.119547 	-2.90568e-20 7.73296 	-0.120239 	-1.7036e-20 7.72553 	-0.120931 	-5.01322e-21 7.72077 	-0.121107 	0 7.71241 	-0.122294 	-2.02354e-21 7.70505 	-0.123014 	-7.46526e-21 7.69766 	-0.123735 	-1.29059e-20 7.69025 	-0.124457 	-1.83456e-20 7.68631 	-0.124514 	-2.37542e-20 7.67763 	-0.125866 	-6.03018e-20 7.67028 	-0.126618 	-8.28474e-20 7.6629 	-0.127371 	-1.05395e-19 7.65549 	-0.128124 	-1.27945e-19 7.65235 	-0.12807 	-1.10929e-19 7.64342 	-0.129558 	-8.22094e-20 7.63601 	-0.130371 	-6.87551e-20 7.62862 	-0.131157 	-5.59146e-20 7.62189 	-0.131817 	-4.93017e-20 7.61885 	-0.131785 	-7.68482e-20 7.60994 	-0.133289 	-9.26803e-20 7.60218 	-0.134281 	-8.09931e-20 7.59479 	-0.135102 	-6.00891e-20 7.58889 	-0.135642 	-3.3286e-20 7.58577 	-0.135666 	4.42646e-21 7.57686 	-0.137187 	9.23578e-21 7.56875 	-0.138355 	8.39575e-21 7.56135 	-0.139211 	2.60026e-21 7.55625 	-0.139638 	0 7.55304 	-0.139717 	0 7.54414 	-0.141258 	0 7.53567 	-0.142597 	0 7.52824 	-0.14349 	0 7.52392 	-0.14381 	0 7.52062 	-0.143945 	0 7.51171 	-0.145507 	0 7.50288 	-0.147016 	-1.69571e-21 7.49541 	-0.147946 	-2.16116e-20 7.49186 	-0.148165 	-4.16131e-20 7.48845 	-0.148357 	-6.16175e-20 7.47953 	-0.149941 	-3.98407e-20 7.47056 	-0.151526 	-1.80558e-20 7.46353 	-0.15246 	3.90405e-21 7.46001 	-0.152709 	8.49586e-21 7.45649 	-0.152958 	1.30875e-20 7.44755 	-0.154567 	4.95957e-20 7.43855 	-0.156176 	8.61017e-20 7.43196 	-0.157142 	9.85211e-20 7.42833 	-0.157448 	8.17916e-20 7.42469 	-0.157755 	6.50593e-20 7.41572 	-0.159391 	3.78435e-20 7.40669 	-0.161027 	1.0617e-20 7.40052 	-0.162026 	6.38552e-21 7.39676 	-0.162391 	1.6853e-20 7.39298 	-0.162755 	2.7322e-20 7.38397 	-0.16442 	9.83246e-20 7.37491 	-0.166084 	1.69331e-19 7.36915 	-0.167119 	1.7015e-19 7.36524 	-0.167542 	9.99615e-20 7.36132 	-0.167965 	2.9771e-20 7.35227 	-0.16966 	2.03049e-20 7.3434 	-0.171311 	1.15171e-20 7.33796 	-0.172355 	1.2104e-20 7.33373 	-0.172908 	2.10744e-20 7.32966 	-0.173389 	3.12637e-20 7.32055 	-0.175116 	1.00397e-19 7.31249 	-0.17665 	1.47776e-19 7.30692 	-0.17774 	1.45014e-19 7.30218 	-0.178494 	1.02115e-19 7.29794 	-0.179034 	3.38319e-20 7.28877 	-0.180793 	2.46797e-20 7.28148 	-0.182214 	1.5434e-20 7.27579 	-0.183352 	6.1094e-21 7.27052 	-0.184303 	0 7.26611 	-0.184902 	0 7.25687 	-0.186696 	0 7.25034 	-0.188009 	0 7.2445 	-0.189193 	0 7.23872 	-0.190341 	0 7.23412 	-0.190999 	0 7.22493 	-0.192804 	0 7.21899 	-0.194037 	0 7.21301 	-0.195269 	0 7.20698 	-0.196501 	0 7.20192 	-0.197329 	1.38073e-20 7.1935 	-0.199021 	2.85918e-21 7.1874 	-0.200302 	1.24666e-20 7.18125 	-0.201582 	2.20771e-20 7.17507 	-0.202863 	3.16907e-20 7.16945 	-0.203895 	4.36016e-20 7.16177 	-0.205477 	8.80738e-20 7.15551 	-0.206806 	9.25214e-20 7.14919 	-0.208135 	9.69393e-20 7.14283 	-0.209465 	1.01327e-19 7.13665 	-0.210699 	8.25287e-20 7.1321 	-0.211656 	9.67043e-20 7.12809 	-0.212517 	8.81041e-20 7.12405 	-0.213378 	7.94921e-20 7.12 	-0.214239 	7.08681e-20 7.1161 	-0.215064 	6.2597e-20 7.11353 	-0.215588 	5.76868e-20 7.11095 	-0.216111 	5.2773e-20 7.10837 	-0.216635 	4.78557e-20 7.10578 	-0.217158 	4.29348e-20 7.10366 	-0.217629 	4.37002e-20 7.0966 	-0.219106 	4.16963e-20 7.08976 	-0.220532 	4.01642e-20 7.08286 	-0.221957 	3.86248e-20 7.07592 	-0.223382 	3.70781e-20 7.07067 	-0.224617 	4.12069e-20 7.06269 	-0.226281 	3.46545e-20 7.05565 	-0.227756 	3.3527e-20 7.04855 	-0.229231 	3.23921e-20 7.0414 	-0.230706 	3.12498e-20 7.03722 	-0.231856 	4.28052e-20 7.0283 	-0.233707 	5.43103e-20 7.02104 	-0.235232 	4.72708e-20 7.01372 	-0.236756 	4.02425e-20 7.00637 	-0.238279 	3.31185e-20 7.00325 	-0.239347 	4.06236e-21 6.99367 	-0.241325 	2.75099e-22 6.98586 	-0.242957 	-1.83343e-22 6.97832 	-0.244532 	-7.43797e-23 6.97208 	-0.245963 	0 6.96871 	-0.247087 	0 6.9589 	-0.249107 	0 6.95008 	-0.250932 	-7.30268e-21 6.9423 	-0.252554 	-2.21814e-20 6.93717 	-0.253894 	-3.44252e-20 6.93354 	-0.255074 	-4.51714e-20 6.92349 	-0.257136 	-3.1702e-20 6.91362 	-0.259152 	-1.78397e-20 6.90559 	-0.260823 	-1.02189e-21 6.90158 	-0.262072 	7.23774e-21 6.89768 	-0.263305 	1.51984e-20 6.88739 	-0.265409 	8.42939e-21 6.87702 	-0.267512 	1.66576e-21 6.86941 	-0.269206 	1.30946e-20 6.86527 	-0.270494 	3.59742e-20 6.86108 	-0.271781 	5.88535e-20 6.85053 	-0.273926 	3.4815e-20 6.83991 	-0.276071 	1.07713e-20 6.83261 	-0.277819 	-2.40615e-21 6.82817 	-0.279159 	-6.03233e-21 6.82369 	-0.280499 	-9.66047e-21 6.81287 	-0.282685 	-6.55767e-20 6.80199 	-0.284869 	-1.21364e-19 6.79517 	-0.286639 	-1.29289e-19 6.79023 	-0.288063 	-9.00803e-20 6.78544 	-0.289454 	-4.62575e-20 6.77435 	-0.29168 	-9.10556e-20 6.76468 	-0.293754 	-1.17085e-19 6.75757 	-0.295568 	-1.1072e-19 6.75141 	-0.297201 	-8.49082e-20 6.7463 	-0.298639 	-3.82682e-20 6.73491 	-0.300903 	-8.5325e-20 6.72648 	-0.302865 	-8.97239e-20 6.71905 	-0.304722 	-7.91318e-20 6.71165 	-0.306563 	-6.68704e-20 6.7062 	-0.308048 	-1.39775e-20 6.69501 	-0.310299 	-1.10148e-20 6.68732 	-0.312197 	-7.79271e-21 6.67957 	-0.314094 	-4.57279e-21 6.67176 	-0.315991 	-1.35505e-21 6.66509 	-0.317675 	0 6.65518 	-0.319806 	0 6.64716 	-0.321743 	0 6.63908 	-0.323679 	0 6.63093 	-0.325615 	0 6.62293 	-0.327514 	0 6.62087 	-0.327956 	-4.22235e-22 6.61915 	-0.328365 	-1.13564e-21 6.61743 	-0.328773 	-1.84912e-21 6.6157 	-0.329182 	-2.56269e-21 6.614 	-0.329584 	-3.26524e-21 6.60698 	-0.331146 	-5.53809e-21 6.59991 	-0.332708 	-7.80951e-21 6.5928 	-0.334269 	-1.00795e-20 6.58564 	-0.33583 	-1.23481e-20 6.57932 	-0.337276 	-1.45577e-20 6.56976 	-0.33941 	-7.26873e-22 6.56053 	-0.341412 	2.38111e-21 6.55122 	-0.343414 	5.5119e-21 6.54184 	-0.345416 	8.66558e-21 6.53441 	-0.347155 	-1.81462e-20 6.52393 	-0.349488 	-9.4762e-21 6.51429 	-0.351522 	-5.83142e-22 6.50458 	-0.353555 	8.30761e-21 6.49545 	-0.355506 	1.62524e-20 6.48815 	-0.357212 	2.14225e-20 6.47722 	-0.359579 	1.49924e-20 6.46664 	-0.361807 	1.21141e-20 6.45652 	-0.363869 	1.34617e-20 6.44818 	-0.365695 	2.44069e-20 6.44049 	-0.367433 	3.8979e-20 6.42912 	-0.369823 	4.70786e-20 6.41767 	-0.372212 	5.51753e-20 6.40751 	-0.374274 	4.98689e-20 6.39947 	-0.37604 	2.6029e-20 6.39135 	-0.377806 	2.17625e-21 6.37954 	-0.380215 	2.28894e-20 6.36764 	-0.382623 	4.35918e-20 6.35772 	-0.384736 	4.05626e-20 6.34924 	-0.386526 	9.69923e-21 6.34069 	-0.388316 	-2.11738e-20 6.32843 	-0.390742 	-1.35664e-20 6.31664 	-0.393096 	-5.35731e-21 6.30679 	-0.395205 	4.95912e-21 6.29745 	-0.397138 	9.69174e-21 6.28846 	-0.398949 	1.0489e-20 6.27572 	-0.401387 	1.22186e-20 6.26484 	-0.403589 	1.35792e-20 6.25454 	-0.405711 	1.48221e-20 6.24414 	-0.407833 	1.60738e-20 6.2346 	-0.409685 	2.13931e-20 6.22213 	-0.412041 	1.69371e-20 6.21144 	-0.414173 	1.24714e-20 6.20066 	-0.416305 	8.01046e-21 6.1898 	-0.418435 	3.55415e-21 6.17905 	-0.420506 	0 6.17557 	-0.421148 	0 6.17249 	-0.42174 	0 6.1694 	-0.422332 	0 6.16631 	-0.422924 	0 6.16327 	-0.423504 	0 6.1555 	-0.425054 	0 6.14769 	-0.426604 	0 6.13983 	-0.428153 	0 6.13193 	-0.429701 	0 6.12407 	-0.431122 	-4.14875e-21 6.11338 	-0.433421 	1.87184e-21 6.1022 	-0.435561 	5.69264e-21 6.09093 	-0.4377 	9.50939e-21 6.07958 	-0.439839 	1.33221e-20 6.06833 	-0.44167 	2.65857e-20 6.05755 	-0.444111 	4.92657e-20 6.04607 	-0.446319 	5.73704e-20 6.03431 	-0.448451 	6.08012e-20 6.02256 	-0.450411 	5.20951e-20 6.0108 	-0.452223 	3.28527e-20 5.99953 	-0.454649 	3.53673e-20 5.98815 	-0.457075 	3.78885e-20 5.97591 	-0.459157 	3.03242e-20 5.96372 	-0.460955 	1.21427e-20 5.95145 	-0.462753 	-6.04021e-21 5.93966 	-0.465158 	-3.54209e-20 5.92777 	-0.467563 	-6.47938e-20 5.91575 	-0.469675 	-7.12935e-20 5.90304 	-0.471453 	-4.75564e-20 5.89023 	-0.473231 	-2.38166e-20 5.87791 	-0.475609 	1.38891e-20 5.86555 	-0.477873 	3.57519e-20 5.85319 	-0.479931 	2.88604e-20 5.84046 	-0