/*--------------------------------*- C++ -*----------------------------------*\
  =========                 |
  \\      /  F ield         | OpenFOAM: The Open Source CFD Toolbox
   \\    /   O peration     | Website:  https://openfoam.org
    \\  /    A nd           | Version:  7
     \\/     M anipulation  |
\*---------------------------------------------------------------------------*/
FoamFile
{
    version     2.0;
    format      ascii;
    class       surfaceScalarField;
    location    "2.1";
    object      phi;
}
// * * * * * * * * * * * * * * * * * * * * * * * * * * * * * * * * * * * * * //

dimensions      [0 3 -1 0 0 0 0];

internalField   nonuniform List<scalar> 
65775
(
-1.3533226662e-11
-3.25637016894e-09
-1.21860166411e-10
4.87099846263e-16
-2.35014301633e-11
-3.42374713547e-09
-1.33667415121e-10
-2.86094288719e-11
-3.57552412509e-09
-1.44724639286e-10
-2.82293669278e-11
-3.707121876e-09
-1.54644876451e-10
-2.35054913385e-11
-3.81295183464e-09
-1.62949737729e-10
-1.54493989357e-11
-3.89077052592e-09
-1.69221941341e-10
-5.32786892864e-12
-3.9396619842e-09
-1.73189402426e-10
5.5188783666e-12
-3.95793973699e-09
-1.74623776613e-10
1.56355381839e-11
-3.93965851221e-09
-1.73185942982e-10
2.36821404332e-11
-3.8907638819e-09
-1.69215140866e-10
2.83926354677e-11
-3.81294253298e-09
-1.6293982708e-10
2.87564067593e-11
-3.70711096205e-09
-1.54632209928e-10
2.36303120941e-11
-3.57551256921e-09
-1.44709708958e-10
1.36431453344e-11
-3.4237374777e-09
-1.3365089166e-10
-3.2563609957e-09
-1.21843157015e-10
8.83193869218e-14
-4.29118597822e-11
-6.00088119873e-09
-4.43898073511e-10
2.95094589286e-16
-7.55097660304e-11
-6.30398459428e-09
-4.9344127254e-10
-9.08065937903e-11
-6.58279254178e-09
-5.40699349102e-10
-8.99756850324e-11
-6.82254636949e-09
-5.83579140525e-10
-7.51053315369e-11
-7.01495283262e-09
-6.19780755054e-10
-4.94747676727e-11
-7.15591077604e-09
-6.47299250086e-10
-1.70707076766e-11
-7.24427656505e-09
-6.64735094306e-10
1.76235280308e-11
-7.2772274505e-09
-6.70981745058e-10
5.00139136699e-11
-7.24426652577e-09
-6.64724899122e-10
7.56179066834e-11
-7.15589159233e-09
-6.47279221553e-10
9.04506108662e-11
-7.01492628155e-09
-6.19751603561e-10
9.1235280713e-11
-6.82251526457e-09
-5.8354195269e-10
7.58865534487e-11
-6.58276021471e-09
-5.40655620669e-10
4.3232147901e-11
-6.30395530556e-09
-4.93393010929e-10
-6.00085421639e-09
-4.43848280339e-10
2.60642474277e-13
-7.48216877611e-11
-8.19855783031e-09
-7.98373675967e-10
-5.49244034323e-16
-1.28423794094e-10
-8.60268356512e-09
-8.92862322454e-10
-1.53411308809e-10
-8.97566036979e-09
-9.83309502109e-10
-1.5190894894e-10
-9.29352754155e-09
-1.06547281872e-09
-1.26873176071e-10
-9.54775319799e-09
-1.13487428919e-09
-8.36313553243e-11
-9.73318775902e-09
-1.18764102776e-09
-2.88812413596e-11
-9.84914146796e-09
-1.2210421456e-09
2.97297982454e-11
-9.89231102099e-09
-1.23295748809e-09
8.44600295998e-11
-9.84912464623e-09
-1.22102628092e-09
1.27663133043e-10
-9.73315565629e-09
-1.18760985672e-09
1.52643652959e-10
-9.54770897269e-09
-1.13482891045e-09
1.54077426841e-10
-9.29347577788e-09
-1.06541491847e-09
1.29011765382e-10
-8.97560681862e-09
-9.83241400791e-10
7.53232591699e-11
-8.60263289039e-09
-8.92787091758e-10
-8.1985117986e-09
-7.98295772684e-10
4.11133237975e-13
-1.07720323701e-10
-9.84705994267e-09
-1.15420049516e-09
-1.69004440103e-15
-1.81166402634e-10
-1.0318010471e-08
-1.29527705658e-09
-2.15464096168e-10
-1.07503258523e-08
-1.43010185609e-09
-2.13021677932e-10
-1.11154034076e-08
-1.55229689806e-09
-1.77898172319e-10
-1.14059601947e-08
-1.65528283881e-09
-1.17290737873e-10
-1.16169012023e-08
-1.73343741533e-09
-4.05439608126e-11
-1.17484469899e-08
-1.78280952078e-09
4.16070123113e-11
-1.17973837546e-08
-1.80036310689e-09
1.1833053838e-10
-1.17484245631e-08
-1.78278949576e-09
1.78892503393e-10
-1.16168584309e-08
-1.73339795501e-09
2.13950557047e-10
-1.14059013192e-08
-1.65522529612e-09
2.16310717515e-10
-1.11153343653e-08
-1.55222336338e-09
1.81917783915e-10
-1.0750254064e-08
-1.43001521547e-09
1.08365280669e-10
-1.03179404492e-08
-1.29518108742e-09
-9.84699599417e-09
-1.15410059179e-09
5.32148237782e-13
-1.39962438568e-10
-1.09694495554e-08
-1.48762147892e-09
-2.94405268315e-15
-2.32511569348e-10
-1.14756914559e-08
-1.67270665009e-09
-2.75698182523e-10
-1.19353283896e-08
-1.8487762158e-09
-2.72166078352e-10
-1.2319774316e-08
-2.0076704119e-09
-2.27200235258e-10
-1.26239305826e-08
-2.14108933246e-09
-1.4979259022e-10
-1.28436809588e-08
-2.24203859048e-09
-5.18240730904e-11
-1.29803478614e-08
-2.30564728603e-09
5.30243845139e-11
-1.30311774831e-08
-2.32819444047e-09
1.5096856829e-10
-1.29803218918e-08
-2.30562444462e-09
2.28328381622e-10
-1.28436313857e-08
-2.24199355534e-09
2.73224745148e-10
-1.26238621593e-08
-2.14102360105e-09
2.76668431102e-10
-1.23196936526e-08
-2.00758630754e-09
2.33377861555e-10
-1.19352436487e-08
-1.84867695249e-09
1.40711474524e-10
-1.14756067974e-08
-1.67259639857e-09
-1.09693709294e-08
-1.48750612708e-09
6.2204673081e-13
-1.70470059974e-10
-1.16089905618e-08
-1.7795131545e-09
-4.15154103508e-15
-2.81421462509e-10
-1.21233795436e-08
-2.00318416674e-09
-3.33054745923e-10
-1.25839164975e-08
-2.21464431951e-09
-3.28386021661e-10
-1.29652502115e-08
-2.40448103119e-09
-2.73989231283e-10
-1.32649594289e-08
-2.56318944273e-09
-1.80610046735e-10
-1.34804712427e-08
-2.68286697554e-09
-6.2531386936e-11
-1.36141498487e-08
-2.75806776886e-09
6.38077106214e-11
-1.366386519e-08
-2.78464604564e-09
1.8186234049e-10
-1.36141226131e-08
-2.75804329569e-09
2.75194058761e-10
-1.34804191091e-08
-2.68281870901e-09
3.29521313049e-10
-1.32648871032e-08
-2.56311895993e-09
3.34100563394e-10
-1.29651642288e-08
-2.40439077941e-09
2.82360644772e-10
-1.25838249419e-08
-2.21453767898e-09
1.71288031628e-10
-1.21232858668e-08
-2.00306547962e-09
-1.16089010211e-08
-1.77938848742e-09
6.83572063563e-13
-1.98699064589e-10
-1.1822243039e-08
-2.01712355327e-09
-5.22264929183e-15
-3.27216746081e-10
-1.23229018244e-08
-2.27267059948e-09
-3.86833012257e-10
-1.27644312756e-08
-2.51263524687e-09
-3.81066471259e-10
-1.31261912111e-08
-2.72689286014e-09
-3.17777362233e-10
-1.34085649664e-08
-2.90523279946e-09
-2.0942480254e-10
-1.36107077683e-08
-3.03926155188e-09
-7.25488597798e-11
-1.37357807031e-08
-3.12324768591e-09
7.38599498676e-11
-1.37822823304e-08
-3.15284128447e-09
2.10712707882e-10
-1.37357540986e-08
-3.12322244993e-09
3.19019286082e-10
-1.3610656625e-08
-3.039211789e-09
3.82240592622e-10
-1.34084934712e-08
-2.90516014783e-09
3.87919147769e-10
-1.31261052199e-08
-2.72679984944e-09
3.28196974283e-10
-1.27643380829e-08
-2.5125253469e-09
1.99558205682e-10
-1.23228041037e-08
-2.27254819921e-09
-1.18221458282e-08
-2.01699469862e-09
7.22098007715e-13
-2.24516593853e-10
-1.16723763543e-08
-2.19397633109e-09
-6.08398423828e-15
-3.69587312604e-10
-1.21427890166e-08
-2.47463975752e-09
-4.36710120313e-10
-1.2551536893e-08
-2.73643861884e-09
-4.2994528084e-10
-1.2882819876e-08
-2.96898276861e-09
-3.58374767072e-10
-1.31396597874e-08
-3.16175278699e-09
-2.36118738574e-10
-1.33228014885e-08
-3.30617536762e-09
-8.183052964e-11
-1.34358496611e-08
-3.39643344389e-09
8.31534946296e-11
-1.34778382776e-08
-3.42813272198e-09
2.37419307496e-10
-1.34358249147e-08
-3.39640802841e-09
3.59630807187e-10
-1.33227536303e-08
-3.30612528468e-09
4.31135418567e-10
-1.3139592155e-08
-3.16167974532e-09
4.3781431918e-10
-1.28827372517e-08
-2.96888938362e-09
3.70587490318e-10
-1.25514453003e-08
-2.73632843486e-09
2.25397502604e-10
-1.21426902354e-08
-2.47451715876e-09
-1.16722733165e-08
-2.1938472374e-09
7.44007859419e-13
-2.48062191754e-10
-1.12238245844e-08
-2.3086672474e-09
-6.7336948645e-15
-4.08550740563e-10
-1.16524039251e-08
-2.60838148759e-09
-4.82717996479e-10
-1.20197034666e-08
-2.88623412917e-09
-4.75085045336e-10
-1.23141992055e-08
-3.13187964438e-09
-3.95850652264e-10
-1.25411365659e-08
-3.33476266474e-09
-2.60740410643e-10
-1.2702457048e-08
-3.48633536941e-09
-9.03892651294e-11
-1.28018092754e-08
-3.5808173655e-09
9.17151667854e-11
-1.28386243595e-08
-3.61387804955e-09
2.62044327478e-10
-1.28017868221e-08
-3.58079215006e-09
3.97110837241e-10
-1.27024132604e-08
-3.48628573712e-09
4.76280457438e-10
-1.25410737861e-08
-3.3346904124e-09
4.83828864518e-10
-1.23141209003e-08
-3.13178749377e-09
4.09559154408e-10
-1.20196141679e-08
-2.88612571347e-09
2.48953157952e-10
-1.1652304422e-08
-2.60826117371e-09
-1.12237154988e-08
-2.30854078911e-09
7.55312730671e-13
-2.69606537038e-10
-1.05386636481e-08
-2.3632838208e-09
-7.18901304182e-15
-4.4438132569e-10
-1.09180161645e-08
-2.67698534686e-09
-5.25195034236e-10
-1.12391401685e-08
-2.96621865611e-09
-5.16821679521e-10
-1.14941232906e-08
-3.22085485947e-09
-4.30475275873e-10
-1.16897477978e-08
-3.43046831498e-09
-2.83458635815e-10
-1.18285554194e-08
-3.58666667146e-09
-9.82792585629e-11
-1.19138453411e-08
-3.68378086199e-09
9.96082058233e-11
-1.1945306601e-08
-3.71762002201e-09
2.84765530333e-10
-1.19138248357e-08
-3.68375610922e-09
4.31738357841e-10
-1.1828515008e-08
-3.58661802148e-09
5.18019996147e-10
-1.16896888109e-08
-3.43039766352e-09
5.26309007348e-10
-1.1494047839e-08
-3.22076505173e-09
4.45393353071e-10
-1.1239051208e-08
-2.96611343186e-09
2.7050199831e-10
-1.0917913469e-08
-2.67686905354e-09
-1.05385458738e-08
-2.36316203871e-09
7.60970929538e-13
-2.89431970476e-10
-9.67457031166e-09
-2.36194278863e-09
-7.49991001654e-15
-4.77557373017e-10
-1.00005530765e-08
-2.68559759278e-09
-5.64749669337e-10
-1.02737177672e-08
-2.98260040798e-09
-5.55706954238e-10
-1.04892693506e-08
-3.24308193388e-09
-4.6265035293e-10
-1.06544264241e-08
-3.45683929256e-09
-3.04507749756e-10
-1.07715845809e-08
-3.61572964985e-09
-1.05575361127e-10
-1.08433750551e-08
-3.71425197558e-09
1.06912297853e-10
-1.08696474665e-08
-3.74841674015e-09
3.05822109441e-10
-1.08433554465e-08
-3.71422789982e-09
4.63919971689e-10
-1.07715455169e-08
-3.61568240855e-09
5.56910689063e-10
-1.0654368327e-08
-3.45677087688e-09
5.65868006229e-10
-1.04891930597e-08
-3.24299531393e-09
4.78573010804e-10
-1.02736247367e-08
-2.98249943741e-09
2.90330667045e-10
-1.00004420823e-08
-2.68548659234e-09
-9.67443876102e-09
-2.36182715866e-09
7.64664162293e-13
-3.07778456103e-10
-8.68395466474e-09
-2.3096706567e-09
-7.67958648553e-15
-5.08835028694e-10
-8.95445876744e-09
-2.64018528343e-09
-6.02286008856e-10
-9.18027330624e-09
-2.94226512179e-09
-5.92441329348e-10
-9.35886224821e-09
-3.20621685145e-09
-4.92812189967e-10
-9.49611509318e-09
-3.42213005885e-09
-3.24114134241e-10
-9.59355795621e-09
-3.58220870145e-09
-1.12346326276e-10
-9.65302459463e-09
-3.68117937637e-09
1.13697892812e-10
-9.67450563354e-09
-3.7153111015e-09
3.25442212622e-10
-9.65300421939e-09
-3.68115618892e-09
4.94093884157e-10
-9.59351701625e-09
-3.58216327936e-09
5.9365505984e-10
-9.49605335029e-09
-3.42206446761e-09
6.03412194668e-10
-9.35877949434e-09
-3.20613416631e-09
5.09856623219e-10
-9.18016965797e-09
-2.94216930367e-09
3.08681552698e-10
-8.95433204819e-09
-2.64008061878e-09
-8.68380215226e-09
-2.30956233802e-09
7.68612113727e-13
-3.25296588915e-10
-7.61338311017e-09
-2.21166056778e-09
-7.84172704186e-15
-5.3981168733e-10
-7.82715280446e-09
-2.54682612747e-09
-6.39101122209e-10
-8.00909886454e-09
-2.85205808639e-09
-6.27704539441e-10
-8.15534571468e-09
-3.11765804419e-09
-5.21235459969e-10
-8.26836157654e-09
-3.33414050156e-09
-3.4236703908e-10
-8.34858997438e-09
-3.49418836413e-09
-1.18611100047e-10
-8.39722939682e-09
-3.59282400467e-09
1.19983497566e-10
-8.41445206991e-09
-3.62662843178e-09
3.43714741316e-10
-8.39720600974e-09
-3.59280193912e-09
5.22534541242e-10
-8.34854288468e-09
-3.49414520727e-09
6.28932800338e-10
-8.26829019541e-09
-3.33407835347e-09
6.40238826496e-10
-8.15524920596e-09
-3.11758003927e-09
5.40842073522e-10
-8.0089762883e-09
-2.85196827083e-09
3.26206001969e-10
-7.82700097891e-09
-2.54672877343e-09
-7.61319979439e-09
-2.21156064365e-09
7.73003753701e-13
-3.45264374605e-10
-6.50121432778e-09
-2.07284219005e-09
-8.1220452661e-15
-5.73811908337e-10
-6.66004040981e-09
-2.41148790842e-09
-6.76619122576e-10
-6.80585211203e-09
-2.71851411548e-09
-6.61778093277e-10
-6.92547106042e-09
-2.98424061635e-09
-5.47831045804e-10
-7.01802349067e-09
-3.19993148189e-09
-3.59149246379e-10
-7.08358614219e-09
-3.35890550066e-09
-1.24325377163e-10
-7.12299887269e-09
-3.45653920338e-09
1.25723077735e-10
-7.13656921213e-09
-3.48976668724e-09
3.6052079556e-10
-7.12296971504e-09
-3.45651852645e-09
5.49151279334e-10
-7.08352758314e-09
-3.35886511455e-09
6.63023983377e-10
-7.01793504021e-09
-3.19987346522e-09
6.77770733485e-10
-6.9253518618e-09
-2.98416808258e-09
5.74853004705e-10
-6.80570093909e-09
-2.71843113924e-09
3.46181899777e-10
-6.65985293693e-09
-2.41139881567e-09
-6.500989471e-09
-2.07275182483e-09
7.79484292892e-13
-3.76787353552e-10
-1.89754237965e-09
-7.9296532635e-15
-5.37237503672e-09
-6.15818829606e-10
-2.24013364274e-09
-5.49268628048e-09
-7.17905915819e-10
-2.54752931534e-09
-5.61221197631e-09
-6.97478333838e-10
-2.81193943982e-09
-5.71026418131e-09
-5.75199743481e-10
-3.02566515358e-09
-5.78601177867e-09
-3.76318423665e-10
-3.18271653812e-09
-5.83983888167e-09
-1.30161813303e-10
-3.27882079574e-09
-5.87203135311e-09
1.31586994411e-10
-3.31127508913e-09
-5.88273358566e-09
3.77715786851e-10
-3.27880180452e-09
-5.87199309544e-09
5.76542610037e-10
-3.18267949102e-09
-5.83976242538e-09
6.98742521624e-10
-3.02561205223e-09
-5.78589715698e-09
7.19070939705e-10
-2.81187327301e-09
-5.71011128325e-09
6.16868794356e-10
-2.54745408025e-09
-5.61202011793e-09
3.77711255838e-10
-2.2400534713e-09
-5.49245200751e-09
-1.89746323348e-09
7.84826390407e-13
-5.37209646391e-09
-2.83053450841e-12
1.5725188289e-10
-2.7628342267e-10
-2.60660312234e-15
-4.39584104146e-12
1.73786065069e-10
-3.05895497553e-10
-4.80964264367e-12
1.89631204501e-10
-3.3394945293e-10
-4.55183307928e-12
2.04272203281e-10
-3.59181603122e-10
-3.71099169462e-12
2.16509867254e-10
-3.80305526422e-10
-2.4291235721e-12
2.25751820677e-10
-3.96259555279e-10
-8.61028683763e-13
2.31577124939e-10
-4.06338116058e-10
8.07406028433e-13
2.33666541898e-10
-4.09962129932e-10
2.37664029229e-12
2.3157846668e-10
-4.06336940125e-10
3.66081990878e-12
2.25754704645e-10
-3.96257242375e-10
4.50534007723e-12
2.1651469725e-10
-3.80302158134e-10
4.76835023265e-12
2.04279044864e-10
-3.59177301954e-10
4.36091619214e-12
1.89639159428e-10
-3.33944385242e-10
2.80238723676e-12
1.73794668192e-10
-3.05889881641e-10
1.57257976356e-10
-2.76277597763e-10
-2.3856165126e-14
-4.19745670227e-12
4.6102856241e-10
-7.4347883348e-10
-6.83609223518e-15
-6.2723726797e-12
5.0459089813e-10
-8.22182589938e-10
-6.69792452191e-12
5.45809317097e-10
-8.96463688411e-10
-6.11756537075e-12
5.83139236541e-10
-9.6303674308e-10
-4.85816588392e-12
6.14078070312e-10
-1.0186162397e-09
-3.13551063688e-12
6.3723154907e-10
-1.06050800565e-09
-1.1312612232e-12
6.51761313419e-10
-1.08692929052e-09
9.76063627956e-13
6.56980094068e-10
-1.09640815784e-09
2.98371433022e-12
6.51766315298e-10
-1.08692577995e-09
4.7132682025e-12
6.37241812835e-10
-1.06050109881e-09
5.98337589824e-12
6.14094137601e-10
-1.0186061994e-09
6.57845971969e-12
5.83161076087e-10
-9.6302395938e-10
6.17078606948e-12
5.45835161386e-10
-8.96448679795e-10
4.1153212156e-12
5.04618644721e-10
-8.22166026582e-10
4.610523284e-10
-7.43461668083e-10
-6.98339551843e-14
-2.63058788206e-12
8.00546763998e-10
-1.13525900012e-09
-1.02358469888e-14
-3.24130685348e-12
8.68526176391e-10
-1.25619717616e-09
-2.87585542926e-12
9.32156310353e-10
-1.37003268979e-09
-2.11590329325e-12
9.8873319567e-10
-1.47183592145e-09
-1.38109697812e-12
1.03515097119e-09
-1.55668921667e-09
-7.94487412529e-13
1.06956588736e-09
-1.62056792316e-09
-3.36573203171e-13
1.09105742148e-09
-1.66080157375e-09
8.8964925695e-14
1.0987881222e-09
-1.67519624282e-09
5.52361944543e-13
1.09106741503e-09
-1.66079580996e-09
1.15007461737e-12
1.06958596876e-09
-1.62055659914e-09
1.90190567381e-12
1.03518147394e-09
-1.55667279092e-09
2.68489917448e-12
9.88773666737e-10
-1.47181506818e-09
3.07822126141e-12
9.32204325684e-10
-1.37000828931e-09
2.49808229178e-12
8.68577846652e-10
-1.25617033295e-09
8.00594857589e-10
-1.135231221e-09
-1.12863195606e-13
9.16446929967e-13
1.10907080015e-09
-1.46363564817e-09
-1.28861957308e-14
2.99405568371e-12
1.19269791961e-09
-1.62153580666e-09
4.64609599828e-12
1.27014999278e-09
-1.7697571964e-09
5.41347565168e-12
1.33770257138e-09
-1.90204186395e-09
4.96949134445e-12
1.39243909065e-09
-2.01213361419e-09
3.41362491066e-12
1.43259617031e-09
-2.09491744063e-09
1.10767800045e-12
1.45753588887e-09
-2.14698717273e-09
-1.43721938528e-12
1.46652905191e-09
-2.16556404051e-09
-3.73587620058e-12
1.45755102651e-09
-2.14697918063e-09
-5.27699313112e-12
1.43262641674e-09
-2.09490185554e-09
-5.69855546715e-12
1.39248442661e-09
-2.01211110514e-09
-4.9011628709e-12
1.3377620404e-09
-1.90201340355e-09
-3.21291064155e-12
1.27022077964e-09
-1.76972403161e-09
-1.09536168024e-12
1.19277479498e-09
-1.62149944598e-09
1.10914610858e-09
-1.46359810125e-09
-1.52636523427e-13
5.68121355914e-12
1.34753714024e-09
-1.73176107396e-09
-1.48911059126e-14
1.09541963021e-11
1.43643870374e-09
-1.92172889939e-09
1.40259137377e-11
1.51783322195e-09
-2.09953961736e-09
1.46074051476e-11
1.58734573758e-09
-2.25790239267e-09
1.26041381975e-11
1.64284202413e-09
-2.38949502997e-09
8.42450322923e-12
1.6830637213e-09
-2.48833170108e-09
2.82793839873e-12
1.70789017001e-09
-2.55040977979e-09
-3.22783484686e-12
1.71687766883e-09
-2.57249184654e-09
-8.81565107492e-12
1.70790979031e-09
-2.55039978449e-09
-1.29776045743e-11
1.68310280265e-09
-2.48831222923e-09
-1.49541430564e-11
1.64290023208e-09
-2.38946696556e-09
-1.43371046782e-11
1.58742174853e-09
-2.25786701089e-09
-1.1222549905e-11
1.51792401572e-09
-2.09949852979e-09
-5.90207241265e-12
1.4365383629e-09
-1.92168399831e-09
1.34763811653e-09
-1.73171478854e-09
-1.88702840962e-13
1.10059875814e-11
1.4998397874e-09
-1.9428119902e-09
-1.63399087529e-14
1.94858283504e-11
1.58510363116e-09
-2.16033641057e-09
2.38762785918e-11
1.66212064786e-09
-2.36332968156e-09
2.4099922834e-11
1.726368716e-09
-2.54373423707e-09
2.0385407634e-11
1.77677010868e-09
-2.69340857164e-09
1.3488985108e-11
1.81278075141e-09
-2.80569246558e-09
4.56339403217e-12
1.83485410987e-09
-2.87611063141e-09
-5.02134131549e-12
1.84289223217e-09
-2.90108016762e-09
-1.39371181233e-11
1.83487695445e-09
-2.8760988086e-09
-2.08137209281e-11
1.81282618225e-09
-2.80566945809e-09
-2.449836884e-11
1.77683756249e-09
-2.69337548246e-09
-2.42351401746e-11
1.72645668366e-09
-2.54369264617e-09
-1.97969273996e-11
1.66222615703e-09
-2.36328156092e-09
-1.12638764981e-11
1.58522057137e-09
-2.16028401609e-09
1.49996148198e-09
-1.94275811399e-09
-2.20660615872e-13
1.63560302043e-11
1.56636499496e-09
-2.09999351044e-09
-1.72932849206e-14
2.775616868e-11
1.64197501534e-09
-2.34094865755e-09
3.3242164781e-11
1.70910786707e-09
-2.56511507515e-09
3.29860479114e-11
1.76362708037e-09
-2.76390096975e-09
2.75832422111e-11
1.80549813602e-09
-2.92856308429e-09
1.81369787336e-11
1.83490043349e-09
-3.05193948262e-09
6.15218585434e-12
1.85277774377e-09
-3.12919072576e-09
-6.65580858359e-12
1.8593442012e-09
-3.1564892577e-09
-1.86301168686e-11
1.85280224858e-09
-3.12917727137e-09
-2.80552142002e-11
1.83494912416e-09
-3.05191332892e-09
-3.34261586086e-11
1.80557034387e-09
-2.92852555307e-09
-3.36400959659e-11
1.76372128406e-09
-2.76385394329e-09
-2.81030421149e-11
1.70922138604e-09
-2.56506087824e-09
-1.66456910908e-11
1.6421018877e-09
-2.34088988807e-09
1.56649991029e-09
-2.0999332771e-09
-2.48324261161e-13
2.13438225655e-11
1.55756016214e-09
-2.20650289835e-09
-1.78088770542e-14
3.52365020155e-11
1.62057291659e-09
-2.46713606707e-09
4.15569479494e-11
1.6751947651e-09
-2.70885174282e-09
4.0759723744e-11
1.71815800656e-09
-2.92272170746e-09
3.38094881804e-11
1.75027962262e-09
-3.09958867503e-09
2.21276760388e-11
1.77234272714e-09
-3.23194005147e-09
7.51280653498e-12
1.78562364179e-09
-3.31466840359e-09
-8.05041443036e-12
1.79056360082e-09
-3.34379264386e-09
-2.26544845561e-11
1.78564824204e-09
-3.31465353636e-09
-3.43144889702e-11
1.77239157433e-09
-3.23191118356e-09
-4.12318939726e-11
1.7503520103e-09
-3.09954734102e-09
-4.19856196652e-11
1.71825251013e-09
-2.92267008295e-09
-3.56123027723e-11
1.67530910853e-09
-2.70879249212e-09
-2.16599197376e-11
1.62070167195e-09
-2.46707210381e-09
1.55769939151e-09
-2.20643760562e-09
-2.71632129257e-13
2.57117753533e-11
1.48867209686e-09
-2.26547784755e-09
-1.79815029204e-14
4.16341527103e-11
1.53864810838e-09
-2.54238402793e-09
4.85472823359e-11
1.58042777375e-09
-2.7983852877e-09
4.72088744025e-11
1.61199082877e-09
-3.02437870243e-09
3.89224738507e-11
1.63475045549e-09
-3.21095128828e-09
2.53827615542e-11
1.64991625173e-09
-3.35037304578e-09
8.62014175196e-12
1.65892191249e-09
-3.43735665641e-09
-9.18134155686e-12
1.66233578865e-09
-3.4678522276e-09
-2.59331359611e-11
1.65894517702e-09
-3.43734062189e-09
-3.94509739995e-11
1.64996241001e-09
-3.35034194532e-09
-4.7704414895e-11
1.63481879787e-09
-3.21090685596e-09
-4.89990586187e-11
1.61208008972e-09
-3.02432338979e-09
-4.20324601526e-11
1.58053610126e-09
-2.7983220773e-09
-2.60492011176e-11
1.53877079253e-09
-2.54231611466e-09
1.4888066112e-09
-2.26540884753e-09
-2.90721340615e-13
2.93105571839e-11
1.37604403461e-09
-2.27995281337e-09
-1.78645681572e-14
4.68237950659e-11
1.41419104184e-09
-2.57004578218e-09
5.41404078648e-11
1.44429271515e-09
-2.83740454558e-09
5.23169453471e-11
1.46582587701e-09
-3.07287053611e-09
4.29403825571e-11
1.48055927349e-09
-3.2669043616e-09
2.79272038591e-11
1.48993841386e-09
-3.41167919981e-09
9.48453208555e-12
1.49539313183e-09
-3.50181278098e-09
-1.00605963469e-11
1.49752552143e-09
-3.53326784514e-09
-2.84926255435e-11
1.49541385564e-09
-3.50179585414e-09
-4.34842865076e-11
1.48997947592e-09
-3.41164640287e-09
-5.28283816033e-11
1.48061996057e-09
-3.26685760652e-09
-5.46086146716e-11
1.46590505442e-09
-3.07281252341e-09
-4.72388752685e-11
1.44438891813e-09
-2.83733854533e-09
-2.96646007517e-11
1.41430035058e-09
-2.56997522562e-09
1.37616518733e-09
-2.27988150569e-09
-3.05899515813e-13
3.20799242646e-11
1.23486960196e-09
-2.25283468572e-09
-1.75547892478e-14
5.08014168473e-11
1.26319784296e-09
-2.55332953122e-09
5.84050302868e-11
1.28352936928e-09
-2.82944441304e-09
5.62004783362e-11
1.29696885848e-09
-3.07202395424e-09
4.59859356587e-11
1.30543615388e-09
-3.27150502331e-09
2.98512925084e-11
1.31042047161e-09
-3.42008030035e-09
1.01383755201e-11
1.31321084932e-09
-3.51235986412e-09
-1.07223312979e-11
1.31436620875e-09
-3.5443996989e-09
-3.04249193128e-11
1.31322804605e-09
-3.51234235003e-09
-4.65386739991e-11
1.3104544567e-09
-3.42004639825e-09
-5.67216588339e-11
1.3054862093e-09
-3.27145679223e-09
-5.88840631904e-11
1.29703393373e-09
-3.07196430629e-09
-5.12283337694e-11
1.28360827964e-09
-2.82937686623e-09
-3.24464225834e-11
1.26328740236e-09
-2.55325769854e-09
1.23496971487e-09
-2.25276250921e-09
-3.17568206429e-13
3.40266939387e-11
1.07808208458e-09
-2.18689628885e-09
-1.70882838015e-14
5.36716990404e-11
1.09869061012e-09
-2.49532618559e-09
6.15409197513e-11
1.11133279427e-09
-2.77794096997e-09
5.90923033618e-11
1.11875350237e-09
-3.02555601488e-09
4.826621399e-11
1.12280571468e-09
-3.22867654506e-09
3.12947797388e-11
1.12482285483e-09
-3.37964254027e-09
1.06302476903e-11
1.1258449899e-09
-3.47315179549e-09
-1.12167415155e-11
1.12633362406e-09
-3.50543420939e-09
-3.18713197829e-11
1.12585784435e-09
-3.47313402843e-09
-4.88226220979e-11
1.12484816402e-09
-3.37960817733e-09
-5.96182888152e-11
1.12284272102e-09
-3.22862775123e-09
-6.20261681508e-11
1.11880120809e-09
-3.02549586459e-09
-5.41062899367e-11
1.11139015404e-09
-2.7778731832e-09
-3.44020091289e-11
1.09875507074e-09
-2.49525450215e-09
1.07815447898e-09
-2.18682471981e-09
-3.26185187519e-13
3.5248426863e-11
9.1596548749e-10
-2.08477905472e-09
-1.65176462849e-14
5.57326049818e-11
9.30473396645e-10
-2.39909578396e-09
6.39490417031e-11
9.37398294156e-10
-2.68634278598e-09
6.13770448715e-11
9.4083339394e-10
-2.93716863724e-09
5.0084719474e-11
9.42243594649e-10
-3.14228871267e-09
3.24490683058e-11
9.42619719099e-10
-3.29435217587e-09
1.10249703409e-11
9.42691383335e-10
-3.38824878334e-09
-1.16099869284e-11
9.42797651103e-10
-3.4204599537e-09
-3.30244840982e-11
9.42699216744e-10
-3.38823112537e-09
-5.06407735311e-11
9.42634978025e-10
-3.29431804638e-09
-6.1903846161e-11
9.4226555558e-10
-3.14224032911e-09
-6.4436661196e-11
9.40861053231e-10
-2.93710917105e-09
-5.61712894458e-11
9.37430685747e-10
-2.68627610806e-09
-3.56293763249e-11
9.3050834545e-10
-2.39902572831e-09
9.1600453453e-10
-2.08470964625e-09
-3.32022833631e-13
3.608108654e-11
7.5605155493e-10
-1.94899644618e-09
-1.5884383219e-14
5.7634547427e-11
7.65315663009e-10
-2.2678859693e-09
6.63002563483e-11
7.68495112023e-10
-2.55827899373e-09
6.36029320467e-11
7.6992722362e-10
-2.81063952053e-09
5.18384830168e-11
7.70294442095e-10
-3.01622022935e-09
3.35549370537e-11
7.70168842003e-10
-3.16817336338e-09
1.14030200105e-11
7.69978702061e-10
-3.26167686886e-09
-1.19835208627e-11
7.69943653595e-10
-3.29352829079e-09
-3.41261284511e-11
7.69980863284e-10
-3.26165970141e-09
-5.2390935859e-11
7.70172830173e-10
-3.16814020343e-09
-6.41271863617e-11
7.7029959605e-10
-3.01617328036e-09
-6.67868070759e-11
7.69932643259e-10
-2.81058195931e-09
-5.80740660362e-11
7.68499813863e-10
-2.55821476982e-09
-3.6464749338e-11
7.65317685914e-10
-2.26781904573e-09
7.56052873097e-10
-1.94893086583e-09
-3.35478782249e-13
3.65462056109e-11
-1.78247751635e-09
-1.51599415273e-14
6.04452858984e-10
6.01965967115e-11
-2.10610400989e-09
6.07633542884e-10
6.93158183554e-11
-2.39789884917e-09
6.09743291049e-10
6.63485233275e-11
-2.64994881864e-09
6.10901806879e-10
5.39803119306e-11
-2.85440509107e-09
6.11400475884e-10
3.49089045972e-11
-3.00505382746e-09
6.11575454328e-10
1.18679536553e-11
-3.09741060353e-09
6.11607469601e-10
-1.2441578786e-11
-3.12862833134e-09
6.11604479349e-10
-3.54733578266e-11
-3.09739435784e-09
6.11603348426e-10
-5.45264014025e-11
-3.00502245739e-09
6.11566958847e-10
-6.6867104593e-11
-2.85436071459e-09
6.11387128708e-10
-6.97978883173e-11
-2.64989449758e-09
6.10882898827e-10
-6.06333205417e-11
-2.39783849405e-09
6.0971803829e-10
-3.69294133352e-11
-2.10604149412e-09
6.07600298444e-10
-1.78241790242e-09
-3.35812660007e-13
6.04412551091e-10
2.12611251609e-12
-3.54912210092e-11
-2.42920732956e-10
-1.52748709284e-15
3.27761486007e-12
-3.95684128943e-11
-2.67483106383e-10
3.74122851002e-12
-4.38136497373e-11
-2.90604630841e-10
3.62721658777e-12
-4.77617573726e-11
-3.11310033161e-10
3.00478980685e-12
-5.11057364684e-11
-3.28581730416e-10
1.97938693264e-12
-5.36475861807e-11
-3.41590878535e-10
6.90209419895e-13
-5.52544252668e-11
-3.49798382404e-10
-6.93792485525e-13
-5.58267383795e-11
-3.52754695721e-10
-1.98265048978e-12
-5.52538801229e-11
-3.49797078662e-10
-3.0074886234e-12
-5.36466693667e-11
-3.41588316703e-10
-3.62931416051e-12
-5.11047068149e-11
-3.28577997904e-10
-3.7428947982e-12
-4.77606963682e-11
-3.11305259457e-10
-3.27847007542e-12
-4.38119445572e-11
-2.90598986657e-10
-2.12636799531e-12
-3.95671785225e-11
-2.67476821299e-10
-3.54901822643e-11
-2.42914148252e-10
-1.53594451656e-15
4.78453246622e-12
-8.3330093121e-11
-7.00426984189e-10
-3.89504146885e-15
7.64373528975e-12
-9.19079418684e-11
-7.72709773309e-10
8.85744613783e-12
-1.00720474163e-10
-8.40778315928e-10
8.63605170843e-12
-1.08869630954e-10
-9.01714494976e-10
7.17038396403e-12
-1.15721443783e-10
-9.52541888734e-10
4.72717412356e-12
-1.20892898545e-10
-9.90826230145e-10
1.649256691e-12
-1.2414918839e-10
-1.01496263817e-09
-1.65557267522e-12
-1.25310983209e-10
-1.023624316e-09
-4.73283036416e-12
-1.24148240973e-10
-1.01495876358e-09
-7.1748819313e-12
-1.20891240248e-10
-9.90818623163e-10
-8.63930412891e-12
-1.15719489523e-10
-9.52530823005e-10
-8.85963529998e-12
-1.08867544952e-10
-9.01700375047e-10
-7.64441872956e-12
-1.00717566163e-10
-8.40761677118e-10
-4.78395403636e-12
-9.19055461558e-11
-7.72691316043e-10
-8.33282953441e-11
-7.00407686914e-10
-2.76235366847e-15
6.21846362714e-12
-1.25957210781e-10
-1.09885047159e-09
-5.64710068215e-15
1.01118675469e-11
-1.37807757321e-10
-1.21419765623e-09
1.18137673099e-11
-1.49810496614e-10
-1.3226514634e-09
1.155109628e-11
-1.60843914136e-10
-1.4196054394e-09
9.59819018217e-12
-1.70069687318e-10
-1.50039448819e-09
6.32815301698e-12
-1.76995173583e-10
-1.56120178208e-09
2.20867267752e-12
-1.81341228628e-10
-1.59949559844e-09
-2.21352117312e-12
-1.82892496861e-10
-1.61319738787e-09
-6.33224432025e-12
-1.81340349385e-10
-1.59948927427e-09
-9.60097505046e-12
-1.76993617808e-10
-1.56118937873e-09
-1.15524874077e-11
-1.70067887228e-10
-1.50037647641e-09
-1.18139264491e-11
-1.60842040465e-10
-1.41958251295e-09
-1.01104693655e-11
-1.4980796895e-10
-1.32262453435e-09
-6.21575459781e-12
-1.37805693777e-10
-1.21416788258e-09
-1.25956153169e-10
-1.0988194054e-09
-2.45356285129e-15
6.77859558213e-12
-1.6195865602e-10
-1.43441128283e-09
-6.87213476491e-15
1.11554828279e-11
-1.76082933363e-10
-1.5876435065e-09
1.31229200604e-11
-1.90137330313e-10
-1.73140392445e-09
1.2867215155e-11
-2.02930869926e-10
-1.85970513069e-09
1.0701970389e-11
-2.13559090411e-10
-1.96648477162e-09
7.05787648769e-12
-2.21493202031e-10
-2.04678082523e-09
2.46515187666e-12
-2.26455633969e-10
-2.09728503013e-09
-2.46504682696e-12
-2.2822745989e-10
-2.11530331513e-09
-7.05710110084e-12
-2.26455050977e-10
-2.09727639907e-09
-1.07000837452e-11
-2.21492201388e-10
-2.04676391705e-09
-1.28641824755e-11
-2.13558002186e-10
-1.96646026525e-09
-1.31189251695e-11
-2.02929855792e-10
-1.85967402273e-09
-1.11503541983e-11
-1.9013605551e-10
-1.73136751168e-09
-6.77266288203e-12
-1.76082222448e-10
-1.58760338602e-09
-1.61959036796e-10
-1.43436950171e-09
-8.88400905757e-16
6.70602244201e-12
-1.90329161841e-10
-1.7100937928e-09
-7.65944479645e-15
1.11431328524e-11
-2.05858125099e-10
-1.89639589085e-09
1.31852029985e-11
-2.20987233167e-10
-2.0707371755e-09
1.29627318789e-11
-2.34574727035e-10
-2.22604128788e-09