/*--------------------------------*- C++ -*----------------------------------*\
  =========                 |
  \\      /  F ield         | OpenFOAM: The Open Source CFD Toolbox
   \\    /   O peration     | Website:  https://openfoam.org
    \\  /    A nd           | Version:  7
     \\/     M anipulation  |
\*---------------------------------------------------------------------------*/
FoamFile
{
    version     2.0;
    format      ascii;
    class       volScalarField;
    location    "0.26";
    object      p;
}
// * * * * * * * * * * * * * * * * * * * * * * * * * * * * * * * * * * * * * //

dimensions      [0 2 -2 0 0 0 0];

internalField   nonuniform List<scalar> 
22500
(
-3.83096714963e-05
-3.8309575922e-05
-3.83098446078e-05
-3.83101344477e-05
-3.83108482543e-05
-3.83115827682e-05
-3.83121437192e-05
-3.83123830457e-05
-3.83122860475e-05
-3.83118673998e-05
-3.8311273025e-05
-3.83107117334e-05
-3.83105800846e-05
-3.83105010288e-05
-3.83108526743e-05
-3.83217622993e-05
-3.83220168133e-05
-3.83226019949e-05
-3.83229716504e-05
-3.83236319242e-05
-3.83242773082e-05
-3.83247681427e-05
-3.8324986229e-05
-3.83249179619e-05
-3.83245770365e-05
-3.83240806184e-05
-3.83235800905e-05
-3.83233825654e-05
-3.83230011692e-05
-3.8323019249e-05
-3.8331958236e-05
-3.83324247886e-05
-3.83330079507e-05
-3.83332543996e-05
-3.83337061127e-05
-3.83341398428e-05
-3.83344825073e-05
-3.83346532392e-05
-3.83346456516e-05
-3.83344670668e-05
-3.83341978916e-05
-3.83339206042e-05
-3.8333862786e-05
-3.83334959009e-05
-3.83333046698e-05
-3.83383411973e-05
-3.83385660751e-05
-3.83385809822e-05
-3.83382582843e-05
-3.83381261498e-05
-3.83380582646e-05
-3.83380662752e-05
-3.83381243931e-05
-3.83382409222e-05
-3.83384093084e-05
-3.83386556798e-05
-3.83389762972e-05
-3.83395008395e-05
-3.83397149785e-05
-3.83397567742e-05
-3.83400123555e-05
-3.8339209582e-05
-3.83379451796e-05
-3.83364051123e-05
-3.83351290011e-05
-3.83341264653e-05
-3.83335241194e-05
-3.83333745575e-05
-3.83337096513e-05
-3.83344999507e-05
-3.83356932821e-05
-3.83371702396e-05
-3.83389229788e-05
-3.83404284434e-05
-3.83414863562e-05
-3.83358917841e-05
-3.83329854682e-05
-3.83296297733e-05
-3.83260984966e-05
-3.83230198386e-05
-3.83205811404e-05
-3.83190536349e-05
-3.8318589519e-05
-3.83192518244e-05
-3.83209800416e-05
-3.83236223989e-05
-3.8326913641e-05
-3.83306677104e-05
-3.83342719046e-05
-3.83374188975e-05
-3.83249979521e-05
-3.83187530889e-05
-3.83124704456e-05
-3.83061535942e-05
-3.83006135775e-05
-3.82962468342e-05
-3.82934905029e-05
-3.82926097263e-05
-3.82937038411e-05
-3.82966757443e-05
-3.83012600768e-05
-3.83070243672e-05
-3.83135723397e-05
-3.8320109568e-05
-3.8326580256e-05
-3.83066548337e-05
-3.82958499919e-05
-3.82858611384e-05
-3.8276058728e-05
-3.82674939533e-05
-3.8260790668e-05
-3.82565588835e-05
-3.82551797105e-05
-3.82567898156e-05
-3.82612540755e-05
-3.82681899858e-05
-3.82769908638e-05
-3.82870318329e-05
-3.82972781304e-05
-3.83082956632e-05
-3.82805650711e-05
-3.82641575352e-05
-3.82498257099e-05
-3.82360265887e-05
-3.82240458821e-05
-3.82147379983e-05
-3.8208875937e-05
-3.82069483377e-05
-3.82091263571e-05
-3.821523926e-05
-3.82247957542e-05
-3.82370242374e-05
-3.82510686615e-05
-3.82656578036e-05
-3.82822705477e-05
-3.82468357883e-05
-3.82240823515e-05
-3.82049825626e-05
-3.81869258061e-05
-3.81713581459e-05
-3.81593503774e-05
-3.81518141097e-05
-3.81493259613e-05
-3.81520848561e-05
-3.81598909604e-05
-3.81721635211e-05
-3.81879905505e-05
-3.82062986011e-05
-3.82256540362e-05
-3.82486060916e-05
-3.82059406449e-05
-3.81764725015e-05
-3.81524434259e-05
-3.81301431144e-05
-3.81110508862e-05
-3.80964267167e-05
-3.80872851607e-05
-3.80842626721e-05
-3.8087575872e-05
-3.80970059118e-05
-3.8111910613e-05
-3.81312733696e-05
-3.81538307238e-05
-3.81781128764e-05
-3.82077773006e-05
-3.81585475998e-05
-3.81224968249e-05
-3.80937128676e-05
-3.80674497756e-05
-3.80451083395e-05
-3.80281095598e-05
-3.8017531006e-05
-3.80140334913e-05
-3.80178402622e-05
-3.80287243332e-05
-3.80460182739e-05
-3.80686408042e-05
-3.80951666155e-05
-3.81242018031e-05
-3.81604499844e-05
-3.81050915998e-05
-3.80634747032e-05
-3.80305318441e-05
-3.80008168965e-05
-3.79756889126e-05
-3.79567060082e-05
-3.79449511397e-05
-3.79410715489e-05
-3.79452757319e-05
-3.79573505858e-05
-3.79766416161e-05
-3.8002060087e-05
-3.80320434977e-05
-3.8065235931e-05
-3.81070521209e-05
-3.80465460292e-05
-3.80007775463e-05
-3.79644071512e-05
-3.79318940373e-05
-3.79046727314e-05
-3.78843097993e-05
-3.78717873493e-05
-3.78676628574e-05
-3.78721218043e-05
-3.78849743786e-05
-3.7905653479e-05
-3.79331731042e-05
-3.79659605715e-05
-3.8002582657e-05
-3.80485494135e-05
-3.79904655237e-05
-3.79371351271e-05
-3.78973646987e-05
-3.78623226008e-05
-3.78336530137e-05
-3.78125210553e-05
-3.77996337666e-05
-3.77954065274e-05
-3.77999721696e-05
-3.78131932363e-05
-3.78346463987e-05
-3.78636183452e-05
-3.78989393979e-05
-3.79389673486e-05
-3.79924932504e-05
-4.59745933227e-05
-4.59726856093e-05
-4.59703180692e-05
-4.59682739757e-05
-4.59664693314e-05
-4.59650923806e-05
-4.59642163831e-05
-4.59639096789e-05
-4.59641948923e-05
-4.59650477749e-05
-4.5966395486e-05
-4.59681415426e-05
-4.59701016439e-05
-4.59723301873e-05
-4.59740614699e-05
-4.59671348953e-05
-4.59656990321e-05
-4.59637782738e-05
-4.59621914525e-05
-4.59607992417e-05
-4.59597432203e-05
-4.59590712905e-05
-4.59588347275e-05
-4.59590510753e-05
-4.59597011089e-05
-4.59607289249e-05
-4.59620660099e-05
-4.59635645551e-05
-4.59653444609e-05
-4.59665956954e-05
-4.59673083484e-05
-4.59670257317e-05
-4.59660994087e-05
-4.59654147381e-05
-4.5964756992e-05
-4.59642398669e-05
-4.59638956187e-05
-4.59637668962e-05
-4.59638687754e-05
-4.59641837459e-05
-4.59646650279e-05
-4.59652643555e-05
-4.59658580199e-05
-4.59666487422e-05
-4.59667509357e-05
-4.59744250393e-05
-4.59752923345e-05
-4.59752468631e-05
-4.59752743655e-05
-4.59751353878e-05
-4.59749632936e-05
-4.59748135052e-05
-4.59747457841e-05
-4.59747818309e-05
-4.59748966925e-05
-4.59750274134e-05
-4.59751064084e-05
-4.59749901313e-05
-4.5974906733e-05
-4.59738680547e-05
-4.59832454007e-05
-4.59845584937e-05
-4.59847213064e-05
-4.59848006474e-05
-4.5984611665e-05
-4.59843486311e-05
-4.59841206224e-05
-4.59840219113e-05
-4.59840871135e-05
-4.59842779254e-05
-4.59844977304e-05
-4.59846273525e-05
-4.59844638687e-05
-4.59841801001e-05
-4.59827049066e-05
-4.59902191742e-05
-4.59911089254e-05
-4.59907832039e-05
-4.59902894979e-05
-4.59895537503e-05
-4.59888397026e-05
-4.59883169786e-05
-4.59881155282e-05
-4.59882830051e-05
-4.59887679751e-05
-4.59894383823e-05
-4.5990117074e-05
-4.59905316231e-05
-4.59907476288e-05
-4.59897060262e-05
-4.59938794221e-05
-4.59936679214e-05
-4.5992395134e-05
-4.59909546147e-05
-4.59893965944e-05
-4.59880443594e-05
-4.59871189459e-05
-4.59867797579e-05
-4.59870848382e-05
-4.59879724564e-05
-4.59892814067e-05
-4.59907849399e-05
-4.59921517892e-05
-4.59933245679e-05
-4.59933986077e-05
-4.59939954743e-05
-4.59922686254e-05
-4.59898290429e-05
-4.5987283784e-05
-4.59847996109e-05
-4.59827459904e-05
-4.5981384644e-05
-4.59808975085e-05
-4.59813507876e-05
-4.59826746699e-05
-4.59846857161e-05
-4.59871177633e-05
-4.59895951014e-05
-4.59919443044e-05
-4.59935505084e-05
-4.59909055763e-05
-4.598746598e-05
-4.59837875361e-05
-4.59801053072e-05
-4.59766855621e-05
-4.59739326608e-05
-4.59721403571e-05
-4.59715077669e-05
-4.59721070784e-05
-4.59738626598e-05
-4.59765741315e-05
-4.59799443954e-05
-4.59835638942e-05
-4.59871614056e-05
-4.59904963102e-05
-4.59851312086e-05
-4.5979934156e-05
-4.59750231717e-05
-4.59702388075e-05
-4.59659229531e-05
-4.59625077164e-05
-4.59603104616e-05
-4.59595420617e-05
-4.59602783048e-05
-4.59624401059e-05
-4.5965815512e-05
-4.59700845678e-05
-4.59748113642e-05
-4.5979650142e-05
-4.59847604636e-05
-4.5977209514e-05
-4.59703118259e-05
-4.59642186942e-05
-4.5958405399e-05
-4.59532650692e-05
-4.59492494604e-05
-4.59466894376e-05
-4.59458003821e-05
-4.59466589698e-05
-4.5949185381e-05
-4.59531632864e-05
-4.59582597968e-05
-4.5964020258e-05
-4.59700488793e-05
-4.59768764644e-05
-4.59676441025e-05
-4.59591676716e-05
-4.59519702554e-05
-4.59452257573e-05
-4.59393582412e-05
-4.59348268405e-05
-4.59319611743e-05
-4.59309721879e-05
-4.5931932906e-05
-4.59347675102e-05
-4.59392637845e-05
-4.59450906612e-05
-4.59517867469e-05
-4.59589260626e-05
-4.59673460675e-05
-4.59569262362e-05
-4.59470052594e-05
-4.59387836394e-05
-4.59312221257e-05
-4.59247501591e-05
-4.59198100218e-05
-4.59167133358e-05
-4.59156491272e-05
-4.59166880572e-05
-4.59197566246e-05
-4.59246645247e-05
-4.59310992721e-05
-4.59386165488e-05
-4.5946786308e-05
-4.59566628761e-05
-4.59453549766e-05
-4.59340644537e-05
-4.59249588621e-05
-4.59167511003e-05
-4.59098612524e-05
-4.59046728097e-05
-4.59014459288e-05
-4.59003458448e-05
-4.59014242491e-05
-4.59046265111e-05
-4.59097870141e-05
-4.59166432377e-05
-4.59248101065e-05
-4.59338685894e-05
-4.59451278561e-05
-4.59318084538e-05
-4.59202912954e-05
-4.59106232869e-05
-4.5902088046e-05
-4.58950935371e-05
-4.58898986869e-05
-4.58866983444e-05
-4.58856112446e-05
-4.58866809255e-05
-4.5889860609e-05
-4.58950310657e-05
-4.5901995778e-05
-4.59104944054e-05
-4.59201157344e-05
-4.59316084843e-05
-3.67797142183e-05
-3.67810734692e-05
-3.67826128253e-05
-3.67841928302e-05
-3.67856244842e-05
-3.67867471107e-05
-3.67874520617e-05
-3.67876706065e-05
-3.67873763901e-05
-3.67865977127e-05
-3.67854063183e-05
-3.67839170654e-05
-3.67822853717e-05
-3.67807170856e-05
-3.67793554269e-05
-3.67807166371e-05
-3.67820478033e-05
-3.67835789238e-05
-3.6785157373e-05
-3.67865910539e-05
-3.67877191057e-05
-3.67884290169e-05
-3.67886492305e-05
-3.6788351656e-05
-3.67875664477e-05
-3.67863682186e-05
-3.67848749427e-05
-3.67832457034e-05
-3.67816850478e-05
-3.67803534391e-05
-3.67802449635e-05
-3.67814585877e-05
-3.67828879872e-05
-3.67843878379e-05
-3.67857637113e-05
-3.67868543127e-05
-3.67875438849e-05
-3.67877581029e-05
-3.67874677825e-05
-3.67867044584e-05
-3.67855451547e-05
-3.67841103139e-05
-3.67825609414e-05
-3.67811012274e-05
-3.67798849025e-05
-3.67796782649e-05
-3.67808285656e-05
-3.678219672e-05
-3.67836502389e-05
-3.67849944511e-05
-3.67860669251e-05
-3.67867481351e-05
-3.67869605476e-05
-3.67866739842e-05
-3.67859211652e-05
-3.67847818644e-05
-3.67833795139e-05
-3.67818775457e-05
-3.67804785302e-05
-3.67793217768e-05
-3.67794310309e-05
-3.67805857952e-05
-3.67819445629e-05
-3.67833935487e-05
-3.67847388807e-05
-3.67858164645e-05
-3.67865030813e-05
-3.6786718401e-05
-3.67864311564e-05
-3.67856752166e-05
-3.67845328565e-05
-3.67831304984e-05
-3.67816338709e-05
-3.67802435015e-05
-3.67790795019e-05
-3.67794892993e-05
-3.67806996833e-05
-3.67820856407e-05
-3.67835594283e-05
-3.678492757e-05
-3.67860248026e-05
-3.67867252102e-05
-3.67869461649e-05
-3.67866557196e-05
-3.67858884163e-05
-3.67847285427e-05
-3.67833046749e-05
-3.67817841613e-05
-3.67803657097e-05
-3.67791434321e-05
-3.67798204384e-05
-3.67811250966e-05
-3.67825643126e-05
-3.6784082219e-05
-3.67854864579e-05
-3.6786611351e-05
-3.67873297014e-05
-3.67875576335e-05
-3.67872630342e-05
-3.67864805355e-05
-3.67852954162e-05
-3.67838370926e-05
-3.67822733133e-05
-3.67808011176e-05
-3.67794813811e-05
-3.67804039335e-05
-3.67818310476e-05
-3.67833393937e-05
-3.67849117096e-05
-3.67863571495e-05
-3.67875113383e-05
-3.67882475751e-05
-3.67884824045e-05
-3.67881839292e-05
-3.67873864244e-05
-3.67861745893e-05
-3.67846769208e-05
-3.67830598115e-05
-3.67815178011e-05
-3.67800721056e-05
-3.6781207186e-05
-3.67827718552e-05
-3.6784355234e-05
-3.67859821023e-05
-3.6787465298e-05
-3.67886438586e-05
-3.67893939281e-05
-3.67896341334e-05
-3.67893335534e-05
-3.67885253078e-05
-3.67872918171e-05
-3.6785758398e-05
-3.67840878408e-05
-3.6782470088e-05
-3.67808833519e-05
-3.67821860545e-05
-3.67838895446e-05
-3.67855444266e-05
-3.67872168873e-05
-3.67887267455e-05
-3.67899189264e-05
-3.67906751008e-05
-3.67909178794e-05
-3.67906181334e-05
-3.67898069886e-05
-3.67885626912e-05
-3.6787004765e-05
-3.67852897854e-05
-3.67835999827e-05
-3.67818698339e-05
-3.67832901171e-05
-3.67851223709e-05
-3.67868377054e-05
-3.67885398232e-05
-3.67900592261e-05
-3.67912497484e-05
-3.67920014884e-05
-3.67922431151e-05
-3.67919480653e-05
-3.67911446791e-05
-3.67899049401e-05
-3.67883397137e-05
-3.67865963798e-05
-3.6784845811e-05
-3.67829824735e-05
-3.67844666656e-05
-3.678641068e-05
-3.67881714781e-05
-3.67898839354e-05
-3.67913923339e-05
-3.67925630489e-05
-3.67932981272e-05
-3.67935341804e-05
-3.67932483748e-05
-3.67924650004e-05
-3.67912480556e-05
-3.67896961943e-05
-3.67879440033e-05
-3.67861481271e-05
-3.67841693421e-05
-3.67856518492e-05
-3.67876928307e-05
-3.67894888667e-05
-3.67911948063e-05
-3.67926723338e-05
-3.67938057867e-05
-3.67945113236e-05
-3.67947380234e-05
-3.6794465221e-05
-3.67937147911e-05
-3.67925382945e-05
-3.67910197302e-05
-3.6789275689e-05
-3.67874448302e-05
-3.67853659625e-05
-3.67868184119e-05
-3.67889555201e-05
-3.67907704997e-05
-3.67924492516e-05
-3.67938713212e-05
-3.6794945193e-05
-3.67956085093e-05
-3.6795819728e-05
-3.6795566085e-05
-3.67948615257e-05
-3.67937474339e-05
-3.67922870624e-05
-3.67905723342e-05
-3.67887232446e-05
-3.67865444948e-05
-3.67885016701e-05
-3.67904982165e-05
-3.67922180787e-05
-3.67937619484e-05
-3.67950348029e-05
-3.67959808197e-05
-3.67965581131e-05
-3.6796741134e-05
-3.67965195092e-05
-3.67959046819e-05
-3.67949221438e-05
-3.67936140506e-05
-3.6792036187e-05
-3.67902845426e-05
-3.6788246041e-05
-3.95714717177e-05
-3.95706471114e-05
-3.95697267236e-05
-3.95687895897e-05
-3.95679492034e-05
-3.95672962351e-05
-3.95668875775e-05
-3.95667607149e-05
-3.95669303432e-05
-3.95673806852e-05
-3.95680722086e-05
-3.95689402922e-05
-3.95698984073e-05
-3.95708191193e-05
-3.95716293693e-05
-3.95712068832e-05
-3.95704078299e-05
-3.95695014635e-05
-3.95685727129e-05
-3.95677382312e-05
-3.95670871129e-05
-3.95666789007e-05
-3.95665525007e-05
-3.95667236798e-05
-3.95671755315e-05
-3.95678668368e-05
-3.95687312858e-05
-3.95696803397e-05
-3.95705871628e-05
-3.95713697471e-05
-3.95718658006e-05
-3.9571153333e-05
-3.95703249286e-05
-3.95694573247e-05
-3.95686695521e-05
-3.9568049386e-05
-3.95676587165e-05
-3.95675375546e-05
-3.95677021641e-05
-3.95681349476e-05
-3.95687936675e-05
-3.95696109975e-05
-3.95704982452e-05
-3.95713285543e-05
-3.95720269823e-05
-3.95725067321e-05
-3.95718522454e-05
-3.95710800492e-05
-3.95702574691e-05
-3.95695032211e-05
-3.95689045765e-05
-3.95685255599e-05
-3.95684075105e-05
-3.95685670145e-05
-3.95689859835e-05
-3.95696211547e-05
-3.95704041774e-05
-3.95712461885e-05
-3.95720216562e-05
-3.95726662648e-05
-3.95729493726e-05
-3.95723216395e-05
-3.95715805227e-05
-3.95707840516e-05
-3.95700487587e-05
-3.95694618858e-05
-3.95690888869e-05
-3.95689721253e-05
-3.95691284553e-05
-3.95695394526e-05
-3.95701610768e-05
-3.95709242531e-05
-3.95717401826e-05
-3.95724858261e-05
-3.95731068926e-05
-3.95732563682e-05
-3.95726364777e-05
-3.95719121474e-05
-3.95711308655e-05
-3.95704072706e-05
-3.95698276105e-05
-3.95694582269e-05
-3.95693419999e-05
-3.95694958779e-05
-3.95699013675e-05
-3.95705140165e-05
-3.95712647036e-05
-3.95720651649e-05
-3.95727958022e-05
-3.95734118485e-05
-3.95734669917e-05
-3.95728431551e-05
-3.95721257292e-05
-3.95713537784e-05
-3.95706382677e-05
-3.95700642564e-05
-3.95696979057e-05
-3.95695820678e-05
-3.95697335248e-05
-3.95701340107e-05
-3.95707392662e-05
-3.95714809158e-05
-3.95722719037e-05
-3.95729968964e-05
-3.95736200396e-05
-3.95735979846e-05
-3.95729620821e-05
-3.95722458888e-05
-3.95714805528e-05
-3.95707723359e-05
-3.95702045089e-05
-3.95698420008e-05
-3.9569726872e-05
-3.95698755293e-05
-3.95702701727e-05
-3.9570867492e-05
-3.95716007732e-05
-3.95723850095e-05
-3.95731101059e-05
-3.95737488274e-05
-3.95736659695e-05
-3.95730134046e-05
-3.95722962314e-05
-3.95715378058e-05
-3.95708388822e-05
-3.95702798005e-05
-3.95699231918e-05
-3.95698095515e-05
-3.95699545555e-05
-3.95703412754e-05
-3.95709280961e-05
-3.9571651029e-05
-3.95724281421e-05
-3.95731556893e-05
-3.95738139518e-05
-3.95736878312e-05
-3.9573018147e-05
-3.95723004001e-05
-3.95715517808e-05
-3.95708661956e-05
-3.95703200589e-05
-3.95699724303e-05
-3.95698614146e-05
-3.95700016162e-05
-3.95703773244e-05
-3.957094947e-05
-3.95716579287e-05
-3.95724250242e-05
-3.95731544537e-05
-3.9573833625e-05
-3.95736806276e-05
-3.9572995011e-05
-3.95722787101e-05
-3.95715443811e-05
-3.95708777859e-05
-3.9570349989e-05
-3.9570015197e-05
-3.95699081941e-05
-3.95700422064e-05
-3.95704030356e-05
-3.9570955138e-05
-3.95716434537e-05
-3.95723959359e-05
-3.95731249711e-05
-3.95738233946e-05
-3.95736594769e-05
-3.95729585149e-05
-3.95722462527e-05
-3.95715311296e-05
-3.95708898965e-05
-3.95703865886e-05
-3.95700688528e-05
-3.95699675336e-05
-3.9570093664e-05
-3.95704354773e-05
-3.95709613766e-05
-3.95716231136e-05
-3.95723558948e-05
-3.9573081516e-05
-3.95737979227e-05
-3.95736433599e-05
-3.95729252061e-05
-3.95722161891e-05
-3.95715229144e-05
-3.95709121397e-05
-3.95704381592e-05
-3.95701418366e-05
-3.95700470781e-05
-3.95701645534e-05
-3.95704830032e-05
-3.95709777384e-05
-3.95716078423e-05
-3.95723181115e-05
-3.95730410371e-05
-3.95737766456e-05
-3.9573639647e-05
-3.9572895968e-05
-3.95721899955e-05
-3.95715213505e-05
-3.95709461013e-05
-3.95705076122e-05
-3.95702353078e-05
-3.95701495884e-05
-3.95702560109e-05
-3.95705482919e-05
-3.95710061421e-05
-3.95715991948e-05
-3.9572284025e-05
-3.95730040251e-05
-3.95737676821e-05
-3.95733541157e-05
-3.95726630014e-05
-3.95720210077e-05
-3.95714345209e-05
-3.95709434682e-05
-3.95705748689e-05
-3.95703493097e-05
-3.95702785731e-05
-3.95703678533e-05
-3.95706114642e-05
-3.95709972505e-05
-3.95715047384e-05
-3.9572106433e-05
-3.95727617461e-05
-3.95734729854e-05
-3.47910117638e-05
-3.47915214521e-05
-3.47921000171e-05
-3.47926974929e-05
-3.47932377532e-05
-3.47936636532e-05
-3.47939333558e-05
-3.4794022214e-05
-3.47939204996e-05
-3.47936382591e-05
-3.47932006179e-05
-3.47926489311e-05
-3.4792039135e-05
-3.47914540255e-05
-3.47909436792e-05
-3.47911480957e-05
-3.47916411031e-05
-3.47922109706e-05
-3.47928034378e-05
-3.47933416495e-05
-3.47937675069e-05
-3.47940379605e-05
-3.47941271758e-05
-3.4794024709e-05
-3.47937413249e-05
-3.47933032719e-05
-3.47927531744e-05
-3.47921484053e-05
-3.47915715585e-05
-3.47910785081e-05
-3.47907125547e-05
-3.4791152198e-05
-3.47916744818e-05
-3.47922293071e-05
-3.47927387996e-05
-3.47931449759e-05
-3.4793404197e-05
-3.47934898784e-05
-3.47933912372e-05
-3.47931193645e-05
-3.47927011649e-05
-3.47921799621e-05
-3.47916133273e-05
-3.47910839276e-05
-3.47906435775e-05
-3.47902928297e-05
-3.47906963153e-05
-3.47911834146e-05
-3.47917096181e-05
-3.47921971287e-05
-3.47925882386e-05
-3.47928389572e-05
-3.47929220045e-05
-3.47928263985e-05
-3.47925633994e-05
-3.47921604705e-05
-3.47916614635e-05
-3.47911239634e-05
-3.47906296891e-05
-3.47902244085e-05
-3.47899925779e-05
-3.47903766727e-05
-3.47908419278e-05
-3.47913490109e-05
-3.47918214666e-05
-3.47922021489e-05
-3.47924469318e-05
-3.47925281936e-05
-3.4792434788e-05
-3.47921781079e-05
-3.47917858849e-05
-3.47913021597e-05
-3.47907841655e-05
-3.47903116618e-05
-3.47899248908e-05
-3.47897658169e-05
-3.47901389195e-05
-3.47905887669e-05
-3.47910806706e-05
-3.47915403372e-05
-3.47919116096e-05
-3.47921508369e-05
-3.47922303555e-05
-3.47921390723e-05
-3.47918883068e-05
-3.47915057538e-05
-3.47910350689e-05
-3.47905326458e-05
-3.47900754347e-05
-3.47896988424e-05
-3.47895830134e-05
-3.47899492321e-05
-3.47903868703e-05
-3.47908646723e-05
-3.47913115572e-05
-3.47916728187e-05
-3.4791905839e-05
-3.47919833378e-05
-3.47918944993e-05
-3.4791650343e-05
-3.47912781428e-05
-3.47908205485e-05
-3.47903325499e-05
-3.47898875597e-05
-3.47895168983e-05
-3.47894306686e-05
-3.47897920198e-05
-3.47902185129e-05
-3.4790681815e-05
-3.47911146078e-05
-3.47914642628e-05
-3.47916897572e-05
-3.47917647621e-05
-3.47916788394e-05
-3.47914426055e-05
-3.47910823915e-05
-3.47906392411e-05
-3.47901661089e-05
-3.47897321716e-05
-3.47893653568e-05
-3.47892974798e-05
-3.47896541547e-05
-3.47900691672e-05
-3.47905162555e-05
-3.47909326014e-05
-3.47912682732e-05
-3.47914845072e-05
-3.47915563813e-05
-3.4791474049e-05
-3.47912475171e-05
-3.47909016943e-05
-3.47904753723e-05
-3.47900187836e-05
-3.47895962031e-05
-3.47892330502e-05
-3.47891732113e-05
-3.47895241948e-05
-3.47899264342e-05
-3.47903548258e-05
-3.47907516935e-05
-3.47910704989e-05
-3.47912754133e-05
-3.47913433985e-05
-3.47912654369e-05
-3.47910506875e-05
-3.47907221683e-05
-3.47903157354e-05
-3.4789878162e-05
-3.47894682403e-05
-3.47891094258e-05
-3.47890495361e-05
-3.47893937816e-05
-3.47897816355e-05
-3.47901885061e-05
-3.47905624765e-05
-3.47908612314e-05
-3.47910525892e-05
-3.47911158852e-05
-3.47910431351e-05
-3.47908424365e-05
-3.47905344338e-05
-3.47901513204e-05
-3.4789735596e-05
-3.47893399739e-05
-3.47889865858e-05
-3.47889204719e-05
-3.4789258219e-05
-3.4789630487e-05
-3.47900132269e-05
-3.47903608781e-05
-3.47906363205e-05
-3.47908118533e-05
-3.47908696316e-05
-3.47908029625e-05
-3.47906186033e-05
-3.47903344019e-05
-3.47899780616e-05
-3.47895868216e-05
-3.47892068195e-05
-3.47888588142e-05
-3.47887781242e-05
-3.47891124481e-05
-3.47894703342e-05
-3.47898280719e-05
-3.47901471857e-05
-3.47903970913e-05
-3.47905548304e-05
-3.47906066276e-05
-3.47905465096e-05
-3.47903804773e-05
-3.47901223886e-05
-3.478979504e-05
-3.47894291857e-05
-3.47890635977e-05
-3.47887180573e-05
-3.47886220208e-05
-3.47889599443e-05
-3.47893045084e-05
-3.47896367992e-05
-3.47899257074e-05
-3.47901478952e-05
-3.47902870196e-05
-3.47903319517e-05
-3.47902792842e-05
-3.47901324693e-05
-3.47899025341e-05
-3.4789605958e-05
-3.47892660489e-05
-3.47889139661e-05
-3.47885636884e-05
-3.47886356313e-05
-3.47889339093e-05
-3.47892281626e-05
-3.47895007923e-05
-3.47897319253e-05
-3.47899070396e-05
-3.47900151686e-05
-3.4790049778e-05
-3.47900079844e-05
-3.47898927826e-05
-3.47897105812e-05
-3.47894723827e-05
-3.47891925261e-05
-3.47888914311e-05
-3.4788581168e-05
-3.47297193973e-05
-3.47294052265e-05
-3.47290539805e-05
-3.47286960932e-05
-3.47283744622e-05
-3.47281221794e-05
-3.4727963898e-05
-3.47279139584e-05
-3.47279778358e-05
-3.47281495095e-05
-3.47284140416e-05
-3.4728746878e-05
-3.47291149982e-05
-3.4729469274e-05
-3.4729781542e-05
-3.47296298888e-05
-3.47293252967e-05
-3.47289788573e-05
-3.47286235277e-05
-3.4728302855e-05
-3.4728050493e-05
-3.47278917723e-05
-3.47278416988e-05
-3.47279061929e-05
-3.47280788073e-05
-3.47283439232e-05
-3.47286762348e-05
-3.47290418133e-05
-3.47293915867e-05
-3.47296937472e-05
-3.47298970001e-05
-3.47296254451e-05
-3.47293083345e-05
-3.47289757318e-05
-3.4728672354e-05
-3.47284318354e-05
-3.47282798598e-05
-3.47282318492e-05
-3.47282939425e-05
-3.47284594878e-05
-3.47287124825e-05
-3.47290271914e-05
-3.47293695457e-05
-3.47296903564e-05
-3.47299602412e-05
-3.4730153588e-05
-3.47299047618e-05
-3.47296093757e-05
-3.4729294041e-05
-3.47290037769e-05
-3.47287722522e-05
-3.47286252939e-05
-3.47285787409e-05
-3.4728638883e-05
-3.47287989443e-05
-3.47290425936e-05
-3.47293437632e-05
-3.47296683522e-05
-3.47299677402e-05
-3.47302161409e-05
-3.47303363202e-05
-3.47301000672e-05
-3.4729818292e-05
-3.4729514646e-05
-3.47292334394e-05
-3.47290081457e-05
-3.47288646729e-05
-3.47288190876e-05
-3.47288777778e-05
-3.47290338874e-05
-3.47292709102e-05
-3.47295626642e-05
-3.47298752361e-05
-3.47301612491e-05
-3.47303979773e-05
-3.47304753557e-05
-3.47302467951e-05
-3.47299750738e-05
-3.47296809098e-05
-3.47294075739e-05
-3.47291880143e-05
-3.47290478665e-05
-3.47290032375e-05
-3.47290604934e-05
-3.47292128233e-05
-3.47294437234e-05
-3.4729727244e-05
-3.47300299571e-05
-3.47303063076e-05
-3.47305360198e-05
-3.4730589688e-05
-3.47303667601e-05
-3.47301032969e-05
-3.47298182112e-05
-3.47295528992e-05
-3.4729339516e-05
-3.47292031135e-05
-3.47291596042e-05
-3.47292152195e-05
-3.47293632978e-05
-3.47295875874e-05
-3.47298627135e-05
-3.4730156068e-05
-3.47304243873e-05
-3.47306491776e-05
-3.47306878035e-05
-3.47304696089e-05
-3.47302138632e-05
-3.47299381936e-05
-3.47296817279e-05
-3.47294754776e-05
-3.47293435923e-05
-3.47293014787e-05
-3.47293551646e-05
-3.47294982167e-05
-3.47297149159e-05
-3.47299808091e-05
-3.47302644611e-05
-3.47305253242e-05
-3.47307461293e-05
-3.47307765565e-05
-3.47305630325e-05
-3.47303152461e-05
-3.47300499987e-05
-3.47298037451e-05
-3.47296059616e-05
-3.47294795635e-05
-3.47294392006e-05
-3.47294905667e-05
-3.47296275952e-05
-3.47298353495e-05
-3.47300906629e-05
-3.47303636476e-05
-3.47306168294e-05
-3.47308334804e-05
-3.47308618045e-05
-3.4730653665e-05
-3.47304145524e-05
-3.47301610889e-05
-3.47299266799e-05
-3.47297389376e-05
-3.47296191506e-05
-3.47295809484e-05
-3.47296295735e-05
-3.47297594427e-05
-3.47299566729e-05
-3.47301997494e-05
-3.47304607298e-05
-3.47307054722e-05
-3.4730917471e-05
-3.47309484537e-05
-3.47307463442e-05
-3.47305167036e-05
-3.47302764713e-05
-3.47300557001e-05
-3.47298796784e-05
-3.47297677048e-05
-3.47297320859e-05
-3.47297775302e-05
-3.47298990168e-05
-3.47300840365e-05
-3.47303130893e-05
-3.47305606166e-05
-3.47307960531e-05
-3.47310025869e-05
-3.47310402909e-05
-3.47308439642e-05
-3.47306242854e-05
-3.47303984384e-05
-3.47301929771e-05
-3.47300303648e-05
-3.47299273663e-05
-3.47298948056e-05
-3.47299365661e-05
-3.47300485214e-05
-3.47302196238e-05
-3.47304329557e-05
-3.47306658449e-05
-3.47308913708e-05
-3.4731092479e-05
-3.4731142723e-05
-3.47309503127e-05
-3.47307393161e-05
-3.47305277309e-05
-3.47303384047e-05
-3.47301901195e-05
-3.4730097128e-05
-3.47300677505e-05
-3.47301057178e-05
-3.47302070909e-05
-3.47303633008e-05
-3.47305601096e-05
-3.47307784483e-05
-3.4730995335e-05
-3.47311927118e-05
-3.47312573399e-05
-3.47310638815e-05
-3.47308600413e-05
-3.47306622254e-05
-3.47304894103e-05
-3.47303565206e-05
-3.47302737584e-05
-3.47302481921e-05
-3.47302817437e-05
-3.47303722121e-05
-3.47305126044e-05
-3.47306923835e-05
-3.47308966355e-05
-3.47311063109e-05
-3.47313050955e-05
-3.47312650066e-05
-3.47310976076e-05
-3.47309240289e-05
-3.47307617874e-05
-3.4730623495e-05
-3.47305186694e-05
-3.47304544482e-05
-3.47304348753e-05
-3.47304617182e-05
-3.47305330201e-05
-3.47306446052e-05
-3.47307893995e-05
-3.47309577051e-05
-3.47311369517e-05
-3.47313097604e-05
-3.17252729906e-05
-3.17254714108e-05
-3.17256990156e-05
-3.17259353174e-05
-3.172614858e-05
-3.17263170909e-05
-3.17264246253e-05
-3.17264612333e-05
-3.17264229198e-05
-3.1726313549e-05
-3.17261429994e-05
-3.17259276388e-05
-3.1725689613e-05
-3.17254620619e-05
-3.17252643507e-05
-3.17253128984e-05
-3.17255040784e-05
-3.17257273001e-05
-3.17259606171e-05
-3.17261722976e-05
-3.17263402075e-05
-3.17264476552e-05
-3.17264842893e-05
-3.1726445861e-05
-3.17263364856e-05
-3.17261664415e-05
-3.17259525572e-05
-3.17257174546e-05
-3.17254941035e-05
-3.17253039061e-05
-3.17251331002e-05
-3.17253031674e-05
-3.17255070325e-05
-3.17257248526e-05
-3.17259246958e-05
-3.17260844162e-05
-3.1726187086e-05
-3.17262221446e-05
-3.1726185257e-05
-3.17260806501e-05
-3.17259188225e-05
-3.17257168362e-05
-3.17254973007e-05
-3.17252931756e-05
-3.17251239796e-05
-3.17249624998e-05
-3.17251183258e-05
-3.17253079506e-05
-3.17255140389e-05
-3.17257049181e-05
-3.17258584315e-05
-3.172595748e-05
-3.17259913341e-05
-3.17259556302e-05
-3.17258546533e-05
-3.17256990863e-05
-3.17255061628e-05
-3.17252984203e-05
-3.17251084696e-05
-3.17249531571e-05
-3.17248397378e-05
-3.17249877797e-05
-3.17251683983e-05
-3.17253665148e-05
-3.1725551136e-05
-3.17257002489e-05
-3.17257967026e-05
-3.17258297022e-05
-3.17257948627e-05
-3.17256965125e-05
-3.17255454146e-05
-3.17253588304e-05
-3.17251590936e-05
-3.17249780875e-05
-3.17248301887e-05
-3.17247454849e-05
-3.17248887824e-05
-3.17250627354e-05
-3.17252542997e-05
-3.17254334423e-05
-3.17255784733e-05
-3.1725672436e-05
-3.17257045916e-05
-3.17256706126e-05
-3.17255747955e-05
-3.17254278528e-05
-3.17252468424e-05
-3.17250536997e-05
-3.1724879259e-05
-3.17247357122e-05
-3.17246673513e-05
-3.17248071791e-05
-3.17249754898e-05
-3.17251607476e-05
-3.17253342204e-05
-3.17254747844e-05
-3.17255659231e-05
-3.1725597107e-05
-3.17255641468e-05
-3.17254712197e-05
-3.172532883e-05
-3.17251535788e-05
-3.17249667734e-05
-3.17247979055e-05
-3.17246573637e-05
-3.17245994075e-05
-3.17247361392e-05
-3.17248990118e-05
-3.17250775907e-05
-3.17252446856e-05
-3.17253800108e-05
-3.17254677249e-05
-3.1725497728e-05
-3.17254660095e-05
-3.17253765786e-05
-3.17252395254e-05
-3.17250707409e-05
-3.17248906531e-05
-3.17247271289e-05
-3.17245890978e-05
-3.17245367926e-05
-3.17246702212e-05
-3.17248273407e-05
-3.17249983848e-05
-3.17251579966e-05
-3.17252870033e-05
-3.17253705276e-05
-3.17253990747e-05
-3.17253688932e-05
-3.17252837399e-05
-3.17251530965e-05
-3.17249918757e-05
-3.17248193457e-05
-3.1724661468e-05
-3.1724526187e-05
-3.17244753863e-05
-3.17246049246e-05
-3.17247556552e-05
-3.17249180575e-05
-3.17250688527e-05
-3.17251902999e-05
-3.17252687569e-05
-3.17252955326e-05
-3.17252672148e-05
-3.17251872217e-05
-3.17250642299e-05
-3.17249118968e-05
-3.17247480265e-05
-3.17245964286e-05
-3.17244643407e-05
-3.17244120867e-05
-3.1724537326e-05
-3.17246809955e-05
-3.17248335628e-05
-3.17249741029e-05
-3.17250866497e-05
-3.17251591137e-05
-3.17251837808e-05
-3.17251576722e-05
-3.17250837694e-05
-3.17249697624e-05
-3.17248277528e-05
-3.17246737365e-05
-3.17245290959e-05
-3.17244006797e-05
-3.17243452025e-05
-3.17244663665e-05
-3.17246025033e-05
-3.17247441284e-05
-3.17248729637e-05
-3.17249752639e-05
-3.17250407863e-05
-3.17250630101e-05
-3.17250394498e-05
-3.17249725816e-05
-3.17248689018e-05
-3.17247386613e-05
-3.1724595623e-05
-3.1724458457e-05
-3.17243335219e-05
-3.17242727054e-05
-3.17243913268e-05
-3.17245203104e-05
-3.17246504684e-05
-3.17247665535e-05
-3.17248575982e-05
-3.17249153807e-05
-3.17249349275e-05
-3.17249141448e-05
-3.17248550882e-05
-3.17247627752e-05
-3.17246453339e-05
-3.17245138132e-05
-3.1724383745e-05
-3.17242608654e-05
-3.17241951395e-05
-3.17243138579e-05
-3.17244361025e-05
-3.17245544949e-05
-3.17246572096e-05