/*--------------------------------*- C++ -*----------------------------------*\
  =========                 |
  \\      /  F ield         | OpenFOAM: The Open Source CFD Toolbox
   \\    /   O peration     | Website:  https://openfoam.org
    \\  /    A nd           | Version:  7
     \\/     M anipulation  |
\*---------------------------------------------------------------------------*/
FoamFile
{
    version     2.0;
    format      ascii;
    class       surfaceScalarField;
    location    "0.26";
    object      phi;
}
// * * * * * * * * * * * * * * * * * * * * * * * * * * * * * * * * * * * * * //

dimensions      [0 3 -1 0 0 0 0];

internalField   nonuniform List<scalar> 
65775
(
-4.51430847699e-11
-8.65751299816e-09
2.59803694653e-11
-1.88003812662e-12
-8.19950338983e-11
-9.12244823101e-09
2.98882973709e-11
-9.58645260451e-11
-9.55116661818e-09
3.07810248712e-11
-9.10965805718e-11
-9.91615689385e-09
2.94095848121e-11
-7.2877445356e-11
-1.02075688715e-08
2.69854735736e-11
-4.49158976074e-11
-1.04205899595e-08
2.45388440338e-11
-1.09959976294e-11
-1.05539776025e-08
2.28133102145e-11
2.4971311924e-11
-1.06034280825e-08
2.22634783735e-11
5.87313295925e-11
-1.0553034216e-08
2.30735241387e-11
8.63993502449e-11
-1.04187321645e-08
2.50535993607e-11
1.04272797422e-10
-1.02048745752e-08
2.77415823799e-11
1.0857073994e-10
-9.91299826287e-09
3.03873854542e-11
9.41591402786e-11
-9.54781332437e-09
3.19557400589e-11
5.63824829536e-11
-9.11956975332e-09
3.12274980108e-11
-8.65565126967e-09
2.74245036966e-11
7.76948829658e-12
-1.43815465046e-10
-1.61536790686e-08
-6.2469328861e-10
-4.87808608412e-12
-2.5401154223e-10
-1.70051849262e-08
-7.26202846259e-10
-3.00409495028e-10
-1.77908082451e-08
-8.35527647139e-10
-2.91484278819e-10
-1.84482223986e-08
-9.43208284621e-10
-2.37325469866e-10
-1.89662013423e-08
-1.03914240591e-09
-1.4915097376e-10
-1.9341012279e-08
-1.11457463138e-09
-3.96428628531e-11
-1.95744418457e-08
-1.16303642553e-09
7.70283097459e-11
-1.96608392396e-08
-1.18004429378e-09
1.86186703357e-10
-1.95723883739e-08
-1.16233494592e-09
2.73717193024e-10
-1.93369892435e-08
-1.11317482608e-09
3.2703685187e-10
-1.89604059414e-08
-1.0370745878e-09
3.34843879376e-10
-1.84412690566e-08
-9.40518012126e-10
2.86944344877e-10
-1.77834202037e-08
-8.32274837078e-10
1.74174488812e-10
-1.69984518014e-08
-7.22474570608e-10
-1.61487859042e-08
-6.2065035235e-10
2.14479448887e-11
-2.45374659101e-10
-2.20558444999e-08
-1.70462891901e-09
-6.58630233992e-12
-4.19110778419e-10
-2.31683586858e-08
-1.96939947822e-09
-4.97935330515e-10
-2.41771212256e-08
-2.24089727536e-09
-4.88052877693e-10
-2.50074312184e-08
-2.49865452161e-09
-4.0154641997e-10
-2.56527820389e-08
-2.72255645703e-09
-2.55838750338e-10
-2.61148550512e-08
-2.8956972607e-09
-7.26212722363e-11
-2.64012283666e-08
-3.00592930894e-09
1.23204968999e-10
-2.65074778651e-08
-3.0446987287e-09
3.06096121597e-10
-2.63985555916e-08
-3.00498140614e-09
4.5119389385e-10
-2.61096517114e-08
-2.89379604148e-09
5.36862788425e-10
-2.56453227068e-08
-2.71972992456e-09
5.45562698789e-10
-2.4998404877e-08
-2.49494679835e-09
4.6493794846e-10
-2.41674844751e-08
-2.23637221566e-09
2.87920163164e-10
-2.31592207938e-08
-1.96414891424e-09
-2.20487226251e-08
-1.69884766887e-09
3.06613063152e-11
-3.40413413749e-10
-2.6238660005e-08
-2.9177213313e-09
-7.12953769835e-12
-5.70088969004e-10
-2.74862839689e-08
-3.34587677029e-09
-6.78607607485e-10
-2.85871598458e-08
-3.77197011281e-09
-6.6878767561e-10
-2.9479472285e-08
-4.16736136522e-09
-5.53903369523e-10
-3.0164269012e-08
-4.50508339518e-09
-3.56505446866e-10
-3.06499606912e-08
-4.76318121076e-09
-1.06563540393e-10
-3.09498360358e-08
-4.92638481214e-09
1.61089180832e-10
-3.10616283883e-08
-4.98378898639e-09
4.10833517586e-10
-3.094695485e-08
-4.92537362805e-09
6.07852658271e-10
-3.06443773149e-08
-4.76114541234e-09
7.22179606144e-10
-3.01563088153e-08
-4.50203496476e-09
7.31106885338e-10
-2.94698089862e-08
-4.16332083061e-09
6.2100295374e-10
-2.85767561779e-08
-3.76697521701e-09
3.88155425617e-10
-2.74761266255e-08
-3.33999220977e-09
-2.62301051948e-08
-2.91112782141e-09
3.51349369319e-11
-4.23623303736e-10
-2.88018598345e-08
-4.04361391014e-09
-6.88448717301e-12
-7.04037735981e-10
-3.00840094628e-08
-4.60257167227e-09
-8.38842342322e-10
-3.11814055613e-08
-5.14607230179e-09
-8.29050277197e-10
-3.20586572822e-08
-5.64191620949e-09
-6.89308203843e-10
-3.2724652376e-08
-6.06020861589e-09
-4.46735444347e-10
-3.31934082497e-08
-6.37712753296e-09
-1.38573459991e-10
-3.3482104048e-08
-6.57652270917e-09
1.91715422626e-10
-3.35903403558e-08
-6.64663967739e-09
4.99788348775e-10
-3.34792715057e-08
-6.57554624482e-09
7.42176170929e-10
-3.3187946972e-08
-6.37515655622e-09
8.81609266341e-10
-3.2716905971e-08
-6.05724287775e-09
8.90798102399e-10
-3.20492579374e-08
-5.63795591727e-09
7.54732769215e-10
-3.11712077738e-08
-5.14112827589e-09
4.71596462538e-10
-3.00738849683e-08
-4.59667434042e-09
-2.87927287559e-08
-4.0369046546e-09
3.60403602737e-11
-4.93710611537e-10
-2.9972037934e-08
-4.95645294275e-09
-6.24805376187e-12
-8.2073467859e-10
-3.12180791943e-08
-5.60694230657e-09
-9.78650875899e-10
-3.22547181665e-08
-6.22851089702e-09
-9.68623422824e-10
-3.30730072119e-08
-6.78881100647e-09
-8.07068888804e-10
-3.36887932802e-08
-7.25751420431e-09
-5.25361064952e-10
-3.41196938032e-08
-7.61061419008e-09
-1.67040994124e-10
-3.43846522063e-08
-7.83203724891e-09
2.17102319691e-10
-3.44845152286e-08
-7.90985675743e-09
5.75366255776e-10
-3.43820096533e-08
-7.83111721838e-09
8.56943779288e-10
-3.4114620135e-08
-7.60875703552e-09
1.01825258608e-09
-3.36816383598e-08
-7.25471825086e-09
1.02776771098e-09
-3.30643506558e-08
-6.78507129716e-09
8.68739514195e-10
-3.22453017289e-08
-6.22382729188e-09
5.39376021321e-10
-3.1208593708e-08
-5.60132400055e-09
-2.99629209082e-08
-4.95000449438e-09
3.49765088307e-11
-5.52330336449e-10
-3.0012901831e-08
-5.6171743303e-09
-5.51184641126e-12
-9.21787242439e-10
-3.1176284774e-08
-6.32770560484e-09
-1.10006410846e-09
-3.2122544781e-08
-6.99838417207e-09
-1.08960154208e-09
-3.28603296687e-08
-7.59819078592e-09
-9.08854798452e-10
-3.34116511392e-08
-8.09731333079e-09
-5.93170302951e-10
-3.37957563676e-08
-8.47204556912e-09
-1.91566940222e-10
-3.40316531094e-08
-8.70652507384e-09
2.38944808077e-10
-3.41209068169e-08
-8.78883398585e-09
6.40454706646e-10
-3.40292595178e-08
-8.7056465952e-09
9.55928793553e-10
-3.37911781043e-08
-8.47027695425e-09
1.13630834383e-09
-3.3405229008e-08
-8.09466095349e-09
1.14612425275e-09
-3.28525876103e-08
-7.59465899979e-09
9.66656522986e-10
-3.21141091538e-08
-6.99397953089e-09
5.94992433212e-10
-3.11677233376e-08
-6.32243409535e-09
-3.00041865721e-08
-5.6111184187e-09
3.32210684092e-11
-6.02331366297e-10
-2.91728096015e-08
-6.03816353349e-09
-4.81778450789e-12
-1.00969771482e-09
-3.02238920809e-08
-6.7878275686e-09
-1.2058892701e-09
-3.10661089404e-08
-7.48957776983e-09
-1.19482894377e-09
-3.17145127924e-08
-8.1139453553e-09
-9.97075832308e-10
-3.21964495198e-08
-8.63178919722e-09
-6.51666575316e-10
-3.25311455261e-08
-9.01974081907e-09
-2.12428208835e-10
-3.27364387902e-08
-9.26208029741e-09
2.58307138372e-10
-3.28142483478e-08
-9.34696955571e-09
6.97368419932e-10
-3.27343046278e-08
-9.26122167919e-09
1.04239769366e-09
-3.25270756223e-08
-9.0180197628e-09
1.23953687618e-09
-3.21907583814e-08
-8.62922544803e-09
1.24965684472e-09
-3.1707667216e-08
-8.11056131693e-09
1.05200761745e-09
-3.10586289598e-08
-7.48539850651e-09
6.4232659503e-10
-3.02162426686e-08
-6.78286931969e-09
-2.91645948174e-08
-6.03250188612e-09
3.15602988219e-11
-6.46370843779e-10
-2.76649002924e-08
-6.25188801701e-09
-4.22338083109e-12
-1.08697972249e-09
-2.85858096166e-08
-7.027797464e-09
-1.29887377497e-09
-2.93186595741e-08
-7.74982715569e-09
-1.28697870342e-09
-2.98757428806e-08
-8.389832822e-09
-1.07395539263e-09
-3.02884524917e-08
-8.91931943549e-09
-7.0230461714e-10
-3.0574552287e-08
-9.31530137161e-09
-2.3011200215e-10
-3.07497617522e-08
-9.56222299919e-09
2.75741376054e-10
-3.08160936801e-08
-9.64845160096e-09
7.47648216976e-10
-3.07478685331e-08
-9.56136888986e-09
1.118703084e-09
-3.05709448257e-08
-9.31359781056e-09
1.33079794967e-09
-3.02834080625e-08
-8.9168012261e-09
1.34137276878e-09
-2.98696574202e-08
-8.38654368895e-09
1.12764078442e-09
-2.93119597554e-08
-7.74581595505e-09
6.8445267524e-10
-2.85788586861e-08
-7.02309742584e-09
-2.765714074e-08
-6.24657844356e-09
3.03386768076e-11
-6.86292358653e-10
-2.56658805196e-08
-6.29300829092e-09
-3.7380177522e-12
-1.15574984834e-09
-2.64472406405e-08
-7.08703436794e-09
-1.38137802971e-09
-2.70699328947e-08
-7.82240164498e-09
-1.3682411361e-09
-2.75381816319e-08
-8.47204016712e-09
-1.14122369798e-09
-2.78851403427e-08
-9.00815925663e-09
-7.46205656883e-10
-2.81256681017e-08
-9.4083420667e-09
-2.4507135969e-10
-2.8272652355e-08
-9.65735552252e-09
2.9148116929e-10
-2.83280117604e-08
-9.74396601237e-09
7.92210166081e-10
-2.82709579127e-08
-9.65649959528e-09
1.18639647225e-09
-2.81224321419e-08
-9.40664285386e-09
1.41214513029e-09
-2.78805932206e-08
-9.00566595935e-09
1.4235461065e-09
-2.7532643423e-08
-8.46881755821e-09
1.19565166085e-09
-2.70637369253e-08
-7.81852312341e-09
7.23251638293e-10
-2.64406601179e-08
-7.08255180596e-09
-2.56582921553e-08
-6.28800979556e-09
2.96491211747e-11
-7.23034699751e-10
-2.33216426801e-08
-6.1913385152e-09
-3.34683350221e-12
-1.21778929868e-09
-2.39601605752e-08
-6.99788429121e-09
-1.45548715887e-09
-2.44750898534e-08
-7.74153785002e-09
-1.44040185998e-09
-2.48607250686e-08
-8.39611475701e-09
-1.2001470349e-09
-2.51480818663e-08
-8.93471810807e-09
-7.84142940257e-10
-2.53477158789e-08
-9.33581547043e-09
-2.57647852109e-10
-2.54692904443e-08
-9.58474721579e-09
3.05591704068e-10
-2.55145804606e-08
-9.67090630961e-09
8.31558802598e-10
-2.54677306297e-08
-9.5838907039e-09
1.24649037105e-09
-2.53447229401e-08
-9.33412191145e-09
1.48513205565e-09
-2.51438339424e-08
-8.93224908743e-09
1.49806278813e-09
-2.48554640898e-08
-8.39295388525e-09
1.2576586025e-09
-2.44690620534e-08
-7.73778153906e-09
7.59566646197e-10
-2.39535493412e-08
-6.99360212608e-09
-2.33138702928e-08
-6.18662807421e-09
2.94493176986e-11
-7.56854860185e-10
-2.0754041474e-08
-5.97061842059e-09
-3.01471513801e-12
-1.27508703687e-09
-2.12496021867e-08
-6.78555600513e-09
-1.52337907758e-09
-2.16627944759e-08
-7.53352868716e-09
-1.50497174126e-09
-2.19759353361e-08
-8.18904802266e-09
-1.25158294367e-09
-2.22120532629e-08
-8.72643935192e-09
-8.16563844321e-10
-2.2376559138e-08
-9.12546702546e-09
-2.6805719665e-10
-2.24761525814e-08
-9.37233650382e-09
3.18040933881e-10
-2.25125159569e-08
-9.45729302e-09
8.65895945246e-10
-2.24746476695e-08
-9.37148599326e-09
1.29960534891e-09
-2.23736449862e-08
-9.12379070659e-09
1.55104319618e-09
-2.22078588999e-08
-8.72400833759e-09
1.56688817538e-09
-2.19706351799e-08
-8.18596142872e-09
1.31545922905e-09
-2.16565548942e-08
-7.52990361225e-09
7.93485585603e-10
-2.1242534912e-08
-6.78147895153e-09
-2.07456882724e-08
-5.96619435883e-09
2.96432227396e-11
-7.89162451292e-10
-1.80649620321e-08
-5.64949493998e-09
-2.73200749053e-12
-1.33179662493e-09
-1.84179394492e-08
-6.46995342426e-09
-1.58786188858e-09
-1.87422806744e-08
-7.21914374703e-09
-1.56307169836e-09
-1.89967851342e-08
-7.87210545312e-09
-1.29578851568e-09
-1.91910496674e-08
-8.40494108746e-09
-8.43497933438e-10
-1.9326439039e-08
-8.79919423876e-09
-2.76342440247e-10
-1.94075650272e-08
-9.04221831011e-09
3.28665042265e-10
-1.94362964837e-08
-9.12530468788e-09
8.95049718844e-10
-1.94060120956e-08
-9.04138407851e-09
1.34580068491e-09
-1.93234010368e-08
-8.79755383474e-09
1.61080394752e-09
-1.91866281309e-08
-8.40257160791e-09
1.63264152143e-09
-1.89910873032e-08
-7.86911709182e-09
1.37302324677e-09
-1.87354112953e-08
-7.21567150891e-09
8.26251035218e-10
-1.84099340795e-08
-6.46610277021e-09
-1.80555310616e-08
-5.64537866897e-09
3.00652713688e-11
-8.31727581081e-10
-1.53296329271e-08
-5.2428750523e-09
-2.49769947888e-12
-1.39907102771e-09
-1.55515354261e-08
-6.06769866427e-09
-1.65382683398e-09
-1.58117433111e-08
-6.81567332403e-09
-1.61634470174e-09
-1.60218931168e-08
-7.46288892524e-09
-1.33334351611e-09
-1.61822502725e-08
-7.98815599955e-09
-8.65185063584e-10
-1.62935838206e-08
-8.375256767e-09
-2.82665207951e-10
-1.63595349735e-08
-8.61289696806e-09
3.3745739675e-10
-1.63818420667e-08
-8.69354565129e-09
9.19096206695e-10
-1.63578114898e-08
-8.61209215455e-09
1.38548800446e-09
-1.62901941552e-08
-8.37367647627e-09
1.66590376565e-09
-1.61772578909e-08
-7.98587924164e-09
1.70005975091e-09
-1.60153885909e-08
-7.46003098554e-09
1.44136507623e-09
-1.58037966548e-08
-6.81238234359e-09
8.69517141357e-10
-1.55421027715e-08
-6.06410376828e-09
-1.5318585945e-08
-5.23910914821e-09
3.07328259138e-11
-9.27844476455e-10
-4.76177377707e-09
-2.23654323536e-12
-1.25689840436e-08
-1.50115234034e-09
-5.59276067159e-09
-1.27418486696e-08
-1.73867385036e-09
-6.33689545975e-09
-1.29624538635e-08
-1.68039387703e-09
-6.97561191826e-09
-1.31374467929e-08
-1.37746231917e-09
-7.49106808169e-09
-1.32701533638e-08
-8.90593167457e-10
-7.869395388e-09
-1.33628449427e-08
-2.9017867515e-10
-8.10064762151e-09
-1.34174620975e-08
3.47451162999e-10
-8.17849132849e-09
-1.34349191839e-08
9.46874302793e-10
-8.09988804136e-09
-1.34154283398e-08
1.43177265773e-09
-7.86790511181e-09
-1.33588268495e-08
1.7318132106e-09
-7.4889245238e-09
-1.32642149604e-08
1.78640136572e-09
-6.97292841008e-09
-1.31296692327e-08
1.54455157326e-09
-6.3338252253e-09
-1.29529015584e-08
9.66408414728e-10
-5.58943606008e-09
-1.27304932097e-08
-4.75844163087e-09
3.15211723966e-11
-1.25557639779e-08
-1.18811766162e-11
8.51950894394e-10
-8.13795296e-10
9.95358131117e-13
-1.55549275013e-11
9.40217152571e-10
-9.0421455189e-10
-1.51448599332e-11
1.02466746872e-09
-9.9089936462e-10
-1.34910111936e-11
1.10067820473e-09
-1.06955464293e-09
-1.07594063373e-11
1.16319041026e-09
-1.13584093414e-09
-7.26834995903e-12
1.20951017801e-09
-1.1861412282e-09
-3.20326885693e-12
1.23831955681e-09
-1.21799133579e-09
1.07110096817e-12
1.24843837807e-09
-1.22942217798e-09
5.08531421803e-12
1.23769206193e-09
-1.21796194089e-09
8.42722241899e-12
1.2082504478e-09
-1.18608137734e-09
1.08391982914e-11
1.16140039151e-09
-1.13574884637e-09
1.21438818159e-11
1.09875642204e-09
-1.06942618546e-09
1.22056514349e-11
1.02281714497e-09
-9.90730706257e-10
8.55538124571e-12
9.39038982893e-10
-9.0400029284e-10
8.51476657118e-10
-8.1352693645e-10
-1.83545737426e-12
-1.13388976423e-11
2.33972407731e-09
-2.10129419206e-09
2.45894174753e-12
-9.03386394601e-12
2.5441832475e-09
-2.32839369858e-09
-3.76556758722e-12
2.73425553228e-09
-2.54510939531e-09
4.20299459752e-14
2.89989956214e-09
-2.74092825251e-09
1.37645375024e-12
3.03272710693e-09
-2.90541090199e-09
4.62062770273e-13
3.12920673537e-09
-3.02992513905e-09
-1.83836885348e-12
3.18857377834e-09
-3.10863429724e-09
-4.59232139366e-12
3.20953798626e-09
-3.13683205126e-09
-7.02244505218e-12
3.18736606402e-09
-3.10854614223e-09
-8.28561893298e-12
3.12679700047e-09
-3.02975149188e-09
-7.62175599186e-12
3.02931520759e-09
-2.90514778418e-09
-4.60245854875e-12
2.89616866993e-09
-2.74056690088e-09
2.5651570666e-14
2.73085742568e-09
-2.54464196679e-09
2.52020996641e-12
2.54211676446e-09
-2.32780394287e-09
2.33922894949e-09
-2.10056329829e-09
-5.13442153333e-12
2.56170255174e-12
3.77044599619e-09
-3.13921585173e-09
3.43033360434e-12
1.8054784682e-11
4.04084530188e-09
-3.4778302578e-09
3.03331287297e-11
4.2857322187e-09
-3.79995664608e-09
3.49616778383e-11
4.4916726083e-09
-4.09034013238e-09
3.08764671389e-11
4.65209418701e-09
-4.33383744943e-09
1.95070933451e-11
4.76579852957e-09
-4.51793778894e-09
3.50317594179e-12
4.8348642669e-09
-4.63416360464e-09
-1.40523995512e-11
4.85945920361e-09
-4.67569675707e-09
-3.02342774008e-11
4.83349701631e-09
-4.63401634457e-09
-4.20517088523e-11
4.76310127938e-09
-4.51765178672e-09
-4.69438281377e-11
4.64833928434e-09
-4.33340606624e-09
-4.32691897029e-11
4.4876464596e-09
-4.0897501498e-09
-3.16586258649e-11
4.28234553789e-09
-3.79919505669e-09
-1.57427387418e-11
4.03915607129e-09
-3.47688163076e-09
3.770884982e-09
-3.13807405793e-09
-7.98581563223e-12
2.20544945904e-11
4.8183472735e-09
-3.98964848552e-09
4.03223306578e-12
5.20699700886e-11
5.09103202992e-09
-4.4227090671e-09
7.0973405015e-11
5.33240558595e-09
-4.83335299835e-09
7.50063382688e-11
5.52706206188e-09
-5.20268445327e-09
6.39634409199e-11
5.67333780197e-09
-5.51187330517e-09
4.069926318e-11
5.77378861634e-09
-5.74536214756e-09
9.69989956245e-12
5.83383237305e-09
-5.89257301316e-09
-2.3892522982e-11
5.85551188867e-09
-5.945039479e-09
-5.50969405733e-11
5.83251931853e-09
-5.89236596555e-09
-7.88403533341e-11
5.7712352227e-09
-5.74495984733e-09
-9.06995085932e-11
5.66985734045e-09
-5.51127148055e-09
-8.76050828583e-11
5.52342761648e-09
-5.20187359439e-09
-6.92701404977e-11
5.32961509172e-09
-4.8323243025e-09
-3.85925790675e-11
5.09013705121e-09
-4.42145138735e-09
4.81985145711e-09
-3.98816562912e-09
-1.03785959608e-11
4.20832051533e-11
5.39496119762e-09
-4.66474164069e-09
4.35438873299e-12
8.39932968095e-11
5.62639330745e-09
-5.17687102964e-09
1.07498453718e-10
5.82740612505e-09
-5.66091361419e-09
1.09881873413e-10
5.9815596579e-09
-6.09531062287e-09
9.21875617825e-11
6.09212414802e-09
-6.4584229429e-09
5.85627406317e-11
6.16476138594e-09
-6.73233642427e-09
1.49391571077e-11
6.20724922111e-09
-6.90480764563e-09
-3.20283632085e-11
6.22298095159e-09
-6.96610269731e-09
-7.5870451727e-11
6.20606715863e-09
-6.90453641121e-09
-1.09970188553e-10
6.16249761728e-09
-6.73181000188e-09
-1.28431262955e-10
6.08909660331e-09
-6.45764357789e-09
-1.26887933142e-10
5.97850045453e-09
-6.09427866387e-09
-1.03807747177e-10
5.82527109759e-09
-5.65963154554e-09
-6.10584529234e-11
5.62623435878e-09
-5.17533767974e-09
5.3972929643e-09
-4.66297321909e-09
-1.22788233381e-11
5.98026943836e-11
5.55372230769e-09
-5.17770724686e-09
4.46131093423e-12
1.09762355086e-10
5.72769120852e-09
-5.75551651611e-09
1.35638948666e-10
5.87607148345e-09
-6.29992176265e-09
1.35885362521e-10
5.98293875062e-09
-6.78748424479e-09
1.12762019412e-10
6.05461699796e-09
-7.19447052422e-09
7.14028554344e-11
6.09848911037e-09
-7.50116854921e-09
1.86799416431e-11
6.1232572526e-09
-7.69402115748e-09
-3.78324799599e-11
6.13289982313e-09
-7.76234662075e-09
-9.07770760763e-11
6.12222174193e-09
-7.69368158076e-09
-1.32589784386e-10
6.09653234434e-09
-7.50051070336e-09
-1.56399834445e-10
6.05204865607e-09
-7.19350672152e-09
-1.56870003684e-10
5.98040598152e-09
-6.78622971654e-09
-1.31263784753e-10
5.87445275239e-09
-6.29839610204e-09
-8.03758946848e-11
5.72792544964e-09
-5.75373318118e-09
5.55642803268e-09
-5.17569527311e-09
-1.3693673853e-11
7.39213613174e-11
5.40194057682e-09
-5.54209154686e-09
4.41691627327e-12
1.28452546715e-10
5.5217795077e-09
-6.17402169193e-09
1.54959126591e-10
5.62138517673e-09
-6.76756572807e-09
1.53018879943e-10
5.68717394739e-09
-7.29802944351e-09
1.25927562863e-10
5.72658056815e-09
-7.74018928644e-09
7.94597374596e-11
5.7474478293e-09
-8.07302943877e-09
2.09922670577e-11
5.758300488e-09
-8.28200594903e-09
-4.14653555782e-11
5.76309274522e-09
-8.35578885749e-09
-1.00147236829e-10
5.75741549985e-09
-8.28159676165e-09
-1.47030517107e-10
5.74579028957e-09
-8.07223830415e-09
-1.74713052093e-10
5.72442996496e-09
-7.73904085154e-09
-1.77232364125e-10
5.68507595551e-09
-7.29655694938e-09
-1.50860988778e-10
5.62011186805e-09
-6.76580946615e-09
-9.5359673033e-11
5.52215810781e-09
-6.17201256663e-09
5.404606467e-09
-5.53987132183e-09
-1.46475147052e-11
8.41218830617e-11
5.04758202682e-09
-5.77063799723e-09
4.25765891865e-12
1.40699992671e-10
5.12590072937e-09
-6.4465331512e-09
1.66673376431e-10
5.1873534021e-09
-7.07930938526e-09
1.62739862468e-10
5.22273195249e-09
-7.64354711809e-09
1.33012996209e-10
5.23925143888e-09
-8.11307937837e-09
8.36277476435e-11
5.24442083358e-09
-8.46606230745e-09
2.21348056159e-11
5.24594923581e-09
-8.68729929924e-09
-4.33679934075e-11
5.24742236144e-09
-8.76511186662e-09
-1.05056764196e-10
5.24520797443e-09
-8.686823244e-09
-1.54802293082e-10
5.24303977697e-09
-8.46514357436e-09
-1.85010475144e-10
5.23746755533e-09
-8.11175588781e-09
-1.89372584623e-10
5.22098773736e-09
-7.64187128213e-09
-1.63405771359e-10
5.18628059137e-09
-7.07734356364e-09
-1.0584572822e-10
5.12620713217e-09
-6.4443264477e-09
5.04983696265e-09
-5.76824472807e-09
-1.52171676092e-11
9.06475655732e-11
4.57720630479e-09
-5.87475028452e-09
4.02314984903e-12
1.47619994292e-10
4.62833514607e-09
-6.58549035285e-09
1.72378452068e-10
4.66314887483e-09
-7.2485591055e-09
1.66759372704e-10
4.67844750881e-09
-7.83827601478e-09
1.35486150044e-10
4.68059220403e-09
-8.32803586572e-09
8.48599121481e-11
4.67642358894e-09
-8.69563182058e-09
2.23781562059e-11
4.67254911434e-09
-8.92555600815e-09
-4.40100972237e-11
4.67202302381e-09
-9.00607966529e-09
-1.06656824255e-10
4.6719424932e-09
-8.92501958731e-09
-1.57570327387e-10
4.67529235853e-09
-8.69459825163e-09
-1.89198414329e-10
4.67912142562e-09
-8.32655615601e-09
-1.95086641828e-10
4.67697290973e-09
-7.83642136437e-09
-1.7020021647e-10
4.66216648767e-09
-7.24641352634e-09
-1.12247682761e-10
4.62841229336e-09
-6.58312025783e-09
4.57884552505e-09
-5.8722221579e-09
-1.54867607924e-11
9.40335231907e-11
4.05241997327e-09
-5.86461106403e-09
3.746878355e-12
1.50342895061e-10
4.08842312923e-09
-6.60194684955e-09
1.73555427121e-10
4.10626997066e-09
-7.28723169702e-09
1.66602464769e-10
4.10960452255e-09
-7.89490259487e-09
1.34639279269e-10
4.10386733724e-09
-8.39836803947e-09
8.39908633e-11
4.09509887955e-09
-8.77550384383e-09
2.19609826767e-11
4.08871479171e-09
-9.01082924844e-09
-4.37962678402e-11
4.08716892501e-09
-9.09285373997e-09
-1.05949774099e-10
4.0882231187e-09
-9.01024188429e-09
-1.56797046182e-10
4.09417455851e-09
-8.77437363726e-09
-1.8897578579e-10
4.10264125186e-09
-8.39675800503e-09
-1.96026810273e-10
4.10831275497e-09
-7.8929012287e-09
-1.72545435517e-10
4.10526971327e-09
-7.2849430303e-09
-1.15238236786e-10
4.08814314628e-09
-6.59945259273e-09
4.05324097545e-09
-5.86198937804e-09
-1.55478178267e-11
9.49089546711e-11
3.51367347735e-09
-5.74961111528e-09
3.45296483788e-12
1.49886865302e-10
3.54300563858e-09
-6.50618868667e-09
1.7149171223e-10
3.55091311718e-09
-7.20655569506e-09
1.63596653488e-10
3.54796770694e-09
-7.82550047809e-09
1.31600244331e-10
3.53887313515e-09
-8.33683373492e-09
8.17555375757e-11
3.52878118946e-09
-8.718941493e-09
2.11027733603e-11
3.5218740643e-09
-8.9567019927e-09
-4.30626035348e-11
3.51999226184e-09
-9.03913644929e-09
-1.0378971495e-10
3.52146788036e-09
-8.95607513962e-09
-1.53733886205e-10
3.5280058221e-09
-8.71773652084e-09
-1.8579805757e-10
3.53780553207e-09
-8.3351238486e-09
-1.93616387562e-10
3.54675310206e-09
-7.82338917051e-09
-1.71595259288e-10
3.54978437967e-09
-7.20416473092e-09
-1.1558278852e-10
3.5422591407e-09
-6.50361252689e-09
3.5135536437e-09
-5.74693871216e-09
-1.54731586421e-11
9.38787246377e-11
2.98602584404e-09
-5.53878142904e-09
3.14045648874e-12
1.47225888519e-10
3.01346991113e-09
-6.30831073512e-09
1.67462023419e-10
3.01588155453e-09
-7.01773549266e-09
1.59069718063e-10
3.01038929114e-09
-7.64220867651e-09
1.2750089063e-10
3.0010230261e-09
-8.15630145668e-09
7.88947264241e-11
2.99183106663e-09
-8.53934828472e-09
2.00429646035e-11
2.98576380397e-09
-8.77691741792e-09
-4.21155581073e-11
2.9839959986e-09
-8.85879727481e-09
-1.00986614429e-10
2.98540788236e-09
-8.77626392928e-09
-1.49588383935e-10
2.99113068887e-09
-8.53809282318e-09
-1.81075123714e-10
3.00000928415e-09
-8.15452488638e-09
-1.89217547112e-10
3.00913079508e-09
-7.64002647916e-09
-1.68416033561e-10
3.01450328238e-09
-7.01528471859e-09
-1.13977692029e-10
3.01215920362e-09
-6.30569655332e-09
2.98490501018e-09
-5.536101715e-09
-1.53247126455e-11
9.15965863708e-11
2.48426900849e-09
-5.24107995128e-09
2.82690163304e-12
1.43662206921e-10
2.511001321e-09
-6.01867407564e-09
1.63199774302e-10
2.51040928169e-09
-6.73240512297e-09
1.54753173142e-10
2.50499908045e-09
-7.35758151013e-09
1.23751946121e-10
2.49765335257e-09
-7.87000989201e-09
7.63309393878e-11
2.49100800604e-09
-8.25047176215e-09
1.90795707783e-11
2.48669139087e-09
-8.48555346823e-09
-4.12770903027e-11
2.48539765539e-09
-8.56603836486e-09
-9.84930239883e-11
2.48633730956e-09
-8.48488737337e-09
-1.45804603404e-10
2.49029428235e-09
-8.24919202362e-09
-1.76576080244e-10
2.49658132938e-09
-7.86820169666e-09
-1.84607048903e-10
2.50356730084e-09
-7.35536834279e-09
-1.64355015256e-10
2.50864871557e-09
-6.72993690439e-09
-1.1112274888e-10
2.50899927471e-09
-6.01606727066e-09
2.48206915647e-09
-5.23844032617e-09
-1.51298615698e-11
8.91152263399e-11
2.01623572168e-09
-4.86550075848e-09
2.5234607226e-12
1.4155657394e-10
2.03997273366e-09
-5.64840133809e-09
1.61527078268e-10
2.03830495801e-09
-6.36290403108e-09
1.53214822827e-10
2.03560092681e-09
-6.98461778775e-09
1.22360010407e-10
2.03231629242e-09
-7.49148639901e-09
7.52891251003e-11
2.02946247545e-09
-7.86628243517e-09
1.86663023509e-11
2.0276352906e-09
-8.09688839791e-09
-4.09986750736e-11
2.0269967926e-09
-8.17525694242e-09
-9.75314832322e-11
2.02722989096e-09
-8.09622513183e-09
-1.44384636475e-10
2.02863480269e-09
-7.86500713434e-09
-1.7487427909e-10
2.03103748238e-09
-7.48968438089e-09
-1.82619525973e-10
2.03383615103e-09
-6.98241469831e-09
-1.61799245807e-10
2.03602331471e-09
-6.36045880566e-09
-1.08101500469e-10
2.03714542275e-09
-5.64584741535e-09
2.01282042157e-09
-4.86295740265e-09
-1.49160142311e-11
8.39814747133e-11
-4.42298532172e-09
2.19374980346e-12
1.59212708385e-09
1.43283002245e-10
-5.2118947807e-09
1.60039726103e-09
1.65456773628e-10
-5.92311404134e-09
1.60288750352e-09
1.57256017424e-10
-6.5369165102e-09
1.60555178055e-09
1.25614326871e-10
-7.03435417509e-09
1.60763001195e-09
7.73565479681e-11
-7.40055837836e-09
1.60922160574e-09
1.93153999999e-11
-7.62484993942e-09
1.61013138066e-09
-4.17753004052e-11
-7.7004481538e-09
1.61027452332e-09
-9.96724608106e-11
-7.62420774393e-09
1.60960328927e-09
-1.4761018401e-10
-7.39932195366e-09
1.60815745409e-09
-1.78746006596e-10
-7.03260461496e-09
1.6059903838e-09
-1.86229317744e-10
-6.53477377032e-09
1.6032881295e-09
-1.63096444914e-10
-5.92073886568e-09
1.59991137316e-09
-1.02480232756e-10
-5.20942238856e-09
1.59661464426e-09
-4.42063294252e-09
-1.46733481191e-11
1.58729802963e-09
1.29579194574e-11
-1.6027834919e-10
-6.66579091839e-10
-4.58291614721e-13
1.99851177713e-11
-1.7846992042e-10
-7.33756699563e-10
2.31040425242e-11
-1.97417341174e-10
-7.97773186259e-10
2.26488660307e-11
-2.14540882923e-10
-8.55579364683e-10
1.8826370899e-11
-2.28879545856e-10
-9.04074633247e-10
1.22708640086e-11
-2.39583789143e-10
-9.40735418655e-10
3.90551751096e-12
-2.46245123805e-10
-9.63898224881e-10
-5.09514548663e-12
-2.48552118805e-10
-9.72220808257e-10
-1.33953751826e-11
-2.46058447967e-10
-9.63848489055e-10
-1.98141598437e-11
-2.3921094795e-10
-9.40636650682e-10
-2.34288963795e-11
-2.28353081405e-10
-9.03929184602e-10
-2.36493823663e-11
-2.13945802882e-10
-8.55390305917e-10
-2.02134078901e-11
-1.96739937051e-10
-7.97543126954e-10
-1.29033493274e-11
-1.77931223565e-10
-7.33486393279e-10
-1.59976521921e-10
-6.66258489394e-10
-2.91785556057e-13
2.84751169899e-11
-3.52231961995e-10
-1.93771232929e-09
-1.0901068255e-12
4.50573167215e-11
-3.87220260158e-10
-2.13783589045e-09
5.24448993301e-11
-4.23064129767e-10
-2.32862569271e-09
5.14227080995e-11
-4.55145983667e-10
-2.50092221533e-09
4.27260539519e-11
-4.81474603911e-10
-2.64552292481e-09
2.78522419176e-11
-5.00844246647e-10
-2.7548814312e-09
8.92325547877e-12
-5.12783553649e-10
-2.8239441648e-09
-1.14204621929e-11
-5.16910909723e-10
-2.84866941335e-09
-3.02052898129e-11
-5.1239930583e-10
-2.82380326492e-09
-4.47805019556e-11
-5.00076427222e-10
-2.75460058304e-09
-5.30286310904e-11
-4.80379366468e-10
-2.64510848596e-09
-5.35026397871e-11
-4.53860464567e-10
-2.50038244279e-09
-4.54334442064e-11
-4.21665415218e-10
-2.32796869287e-09
-2.82351374001e-11
-3.86033874219e-10
-2.13706398722e-09
-3.51517984695e-10
-1.93680900815e-09
-5.87941180288e-13
3.59599104187e-11
-4.9608858995e-10
-3.03077109762e-09
-1.45977845536e-12
5.74732959853e-11
-5.39666868025e-10
-3.34834399168e-09
6.69994551066e-11
-5.83630852933e-10
-3.65048482749e-09
6.55787825978e-11
-6.22578406381e-10
-3.92290880483e-09
5.43968075346e-11
-6.5404296281e-10
-4.15130086555e-09
3.54537368706e-11
-6.76877810364e-10
-4.32390339076e-09
1.14565388916e-11
-6.90828176854e-10
-4.43279904574e-09
-1.42974118303e-11
-6.95647992438e-10
-4.47168103759e-09
-3.8119812234e-11
-6.90361545445e-10
-4.43257368272e-09
-5.67046810934e-11
-6.75949530821e-10
-4.32345557474e-09
-6.73458776759e-11
-6.52718093478e-10
-4.15064113916e-09
-6.8081863368e-11
-6.21011895993e-10
-3.92205113218e-09
-5.77225243465e-11
-5.8194450858e-10
-3.64944430143e-09
-3.54582322535e-11
-5.38203448902e-10
-3.34712781351e-09
-4.9519214051e-10
-3.02936330338e-09
-6.29717624996e-13
3.81544405127e-11
-5.96033589012e-10
-3.92710511498e-09
-1.63702216887e-12
6.12948364989e-11
-6.42552857637e-10
-4.34425552218e-09
7.15124113273e-11
-6.8853587776e-10
-4.74005995017e-09
6.98937462843e-11
-7.28630465596e-10
-5.09626802857e-09
5.79045063378e-11
-7.60451060199e-10
-5.39452150922e-09
3.77669925755e-11
-7.83195819003e-10
-5.61971516468e-09
1.23604396756e-11
-7.96959796545e-10
-5.76162767491e-09
-1.48749883155e-11
-8.01714612737e-10
-5.81216241955e-09
-4.01099333385e-11
-7.96481445993e-10
-5.76132348824e-09
-5.98989630981e-11
-7.82248428169e-10
-5.61911266314e-09
-7.13566220242e-11
-7.59095272387e-10
-5.3936363041e-09
-7.22834578657e-11
-7.27011480891e-10
-5.09512139302e-09
-6.1228001913e-11
-6.86803925698e-10
-4.73867632858e-09
-3.73380017462e-11
-6.41030559433e-10
-4.34265107564e-09
-5.95052676697e-10
-3.92527154127e-09
-4.84132360949e-13
3.70197254598e-11
-6.55348121075e-10
-4.64158308616e-09
-1.67726529866e-12
5.97146489759e-11
-7.00834630558e-10
-5.14241715811e-09
6.97274466191e-11
-7.44514640954e-10
-5.61614959039e-09
6.80992319252e-11
-7.81772933107e-10
-6.04160107341e-09
5.63955454354e-11
-8.10718661924e-10