/*--------------------------------*- C++ -*----------------------------------*\
  =========                 |
  \\      /  F ield         | OpenFOAM: The Open Source CFD Toolbox
   \\    /   O peration     | Website:  https://openfoam.org
    \\  /    A nd           | Version:  7
     \\/     M anipulation  |
\*---------------------------------------------------------------------------*/
FoamFile
{
    version     2.0;
    format      ascii;
    class       volVectorField;
    location    "0.26";
    object      U;
}
// * * * * * * * * * * * * * * * * * * * * * * * * * * * * * * * * * * * * * //

dimensions      [0 1 -1 0 0 0 0];

internalField   nonuniform List<vector> 
22500
(
(-3.91644091966e-05 -4.36770078465e-05 0.0001775204517)
(-3.66819664015e-05 -4.97684946205e-05 0.000184034286489)
(-3.27352104747e-05 -5.58288892029e-05 0.000187751301737)
(-2.7649524279e-05 -6.12454021198e-05 0.000189456864547)
(-2.15520802703e-05 -6.57525256305e-05 0.000190040990691)
(-1.47260612077e-05 -6.91122134472e-05 0.000190109980006)
(-7.39136031356e-06 -7.11795907248e-05 0.000190035406546)
(2.06238934892e-07 -7.18643485753e-05 0.000190037084422)
(7.80036785748e-06 -7.11322354779e-05 0.00019021822599)
(1.51249974735e-05 -6.90185769078e-05 0.00019047359522)
(2.19365093956e-05 -6.56142330546e-05 0.000190581609985)
(2.80156545053e-05 -6.10666561796e-05 0.000190168014391)
(3.30793782492e-05 -5.56133425209e-05 0.000188625250861)
(3.70024644435e-05 -4.9524122973e-05 0.000185059397674)
(3.94414976382e-05 -4.34275082864e-05 0.000178667097513)
(-0.000115980764484 -0.000128694597263 3.86637433365e-05)
(-0.000108279885869 -0.000146469372329 7.61662429171e-06)
(-9.67142580499e-05 -0.000163997400044 -2.93514044978e-05)
(-8.17900836857e-05 -0.000179584448148 -6.69935290603e-05)
(-6.38810677718e-05 -0.00019252643977 -0.000100695059961)
(-4.37219564786e-05 -0.000202184044478 -0.000127038573569)
(-2.19917907015e-05 -0.000208136474358 -0.000143699754957)
(5.51495140965e-07 -0.000210110256809 -0.000149269865751)
(2.30862120531e-05 -0.000208005050253 -0.00014317822235)
(4.47918135779e-05 -0.000201924101211 -0.000125999148569)
(6.49137997331e-05 -0.000192142952433 -9.9144832191e-05)
(8.27753516488e-05 -0.000179088506839 -6.4945939244e-05)
(9.7641277088e-05 -0.000163401696168 -2.68232860107e-05)
(0.000109136874716 -0.000145797036722 1.05979230396e-05)
(0.000116722517693 -0.00012800375991 4.20243497435e-05)
(-0.000187912233332 -0.000207510270496 -0.000527155993605)
(-0.000174451995739 -0.000235615069145 -0.000626232687275)
(-0.000155424493572 -0.000262710808951 -0.00072951413609)
(-0.000131201311769 -0.000286566846333 -0.000826660815923)
(-0.000102393707017 -0.000306236022542 -0.000909595111731)
(-7.00708306993e-05 -0.000320866768582 -0.00097255403189)
(-3.52965934005e-05 -0.000329871986099 -0.00101171804648)
(7.4567763376e-07 -0.000332861731506 -0.00102482483734)
(3.67784168725e-05 -0.000329692497636 -0.00101098674239)
(7.15254464446e-05 -0.000320510989714 -0.000971091166421)
(0.000103806080758 -0.00030570958906 -0.000907398477156)
(0.000132558301949 -0.0002858823431 -0.000823731339439)
(0.000156711930648 -0.000261886170355 -0.000725854597693)
(0.000175649111606 -0.000234680664503 -0.000621855765025)
(0.000188963777059 -0.00020653972881 -0.000522137639478)
(-0.000250506481138 -0.000275790013296 -0.001346522165)
(-0.000231269375004 -0.000311785089222 -0.00151192725931)
(-0.00020524370731 -0.000345702489148 -0.00167480960217)
(-0.000172735648656 -0.000375275959599 -0.00182207855712)
(-0.000134562099199 -0.000399488312749 -0.00194438661457)
(-9.20035257571e-05 -0.000417432514162 -0.00203549935986)
(-4.63901461076e-05 -0.000428458452844 -0.00209151539357)
(8.03202497372e-07 -0.000432124167227 -0.00211020827352)
(4.7988736078e-05 -0.000428266259921 -0.00209071139738)
(9.35799620212e-05 -0.000417050824495 -0.00203388449017)
(0.000136103375357 -0.000398921707302 -0.00194194252454)
(0.000174229414748 -0.000374535013801 -0.00181878083645)
(0.000206675989769 -0.000344804360792 -0.00167062896672)
(0.000232613930853 -0.000310759152573 -0.00150683623607)
(0.000251709724664 -0.000274705458306 -0.00134055606835)
(-0.000301795277445 -0.000331755521712 -0.00224005061953)
(-0.00027725313427 -0.000372922700036 -0.00244944349803)
(-0.000245008502885 -0.000410957444949 -0.00264757956809)
(-0.000205521737013 -0.000443850585506 -0.00282180301158)
(-0.000159755155074 -0.000470628542818 -0.00296362841269)
(-0.000109099705655 -0.000490415850692 -0.00306780976664)
(-5.50394115785e-05 -0.000502558060209 -0.00313129273519)
(7.82396910147e-07 -0.000506600202632 -0.00315240874568)
(5.6598409796e-05 -0.000502373323066 -0.00313050110972)
(0.000110642400324 -0.000490048756002 -0.0030662144028)
(0.000161271527832 -0.000470082860815 -0.00296119752135)
(0.000207001680387 -0.000443134785831 -0.00281848882642)
(0.000246440202496 -0.000410085499077 -0.00264332009357)
(0.000278609421405 -0.000371920153015 -0.00244416663884)
(0.000303031263388 -0.000330674649215 -0.00223373311786)
(-0.000341737628184 -0.000375520171604 -0.00308407230014)
(-0.00031265220879 -0.000419370540774 -0.00331185735669)
(-0.000275160823483 -0.000459294602118 -0.00352111364211)
(-0.000230087031269 -0.000493588430831 -0.00370157778616)
(-0.00017846446446 -0.000521391663759 -0.00384650920509)
(-0.000121723363243 -0.000541894975636 -0.00395199274433)
(-6.14161612202e-05 -0.000554465407564 -0.00401589708942)
(7.36870760634e-07 -0.000558654561348 -0.00403709986875)
(6.28852697194e-05 -0.000554295407484 -0.00401514721296)
(0.000123179505827 -0.000541557523456 -0.00395047870585)
(0.000179899475456 -0.000520890669638 -0.00384419277537)
(0.000231492627226 -0.000492931590732 -0.00369839804027)
(0.000276527517566 -0.000458493548247 -0.003516987447)
(0.000313954428234 -0.000418447024671 -0.00330667943727)
(0.000342942150269 -0.000374506527273 -0.00307776688342)
(-0.000371329608762 -0.000408151234679 -0.00382066740468)
(-0.000338542262289 -0.000452596676573 -0.00404814497521)
(-0.000296820032076 -0.000492698209353 -0.00425295757862)
(-0.000247485787202 -0.000526936997465 -0.00442756521427)
(-0.000191572611862 -0.000554615698807 -0.00456677197284)
(-0.00013050110501 -0.000575000649001 -0.0046676207476)
(-6.58330197749e-05 -0.000587491539576 -0.00472854671794)
(6.97425031406e-07 -0.000591657156355 -0.00474873094723)
(6.72234868947e-05 -0.000587336713612 -0.00472783506453)
(0.000131879223548 -0.000574694029913 -0.00466618360801)
(0.000192930562339 -0.000554162071281 -0.00456457091162)
(0.000248815952697 -0.00052634446393 -0.00442453637246)
(0.000298114568488 -0.000491977530488 -0.00424901023981)
(0.000339777763746 -0.000451766970992 -0.00404315642009)
(0.000372483205487 -0.000407227630291 -0.00381452607905)
(-0.000391917181178 -0.000431012599511 -0.00443844162704)
(-0.000356215093328 -0.000474354622807 -0.00465564431257)
(-0.000311219548596 -0.000513317096663 -0.00484901575682)
(-0.000258810175954 -0.00054638575147 -0.00501310755911)
(-0.000199962046671 -0.000573064545779 -0.00514364120959)
(-0.00013604904796 -0.000592697186615 -0.00523810715174)
(-6.86018142154e-05 -0.000604722498776 -0.00529514613166)
(6.7555439744e-07 -0.000608734146039 -0.00531402883322)
(6.99481997113e-05 -0.000604580888015 -0.00529445736194)
(0.000137381945493 -0.000592417571081 -0.00523671776951)
(0.000201272884885 -0.000572652732837 -0.00514151629102)
(0.000260090998323 -0.0005458507761 -0.00501018704442)
(0.000312463021867 -0.000512669783693 -0.00484521118326)
(0.000357399958473 -0.000473612772813 -0.00465082790228)
(0.000393027564619 -0.000430178708153 -0.00443248263678)
(-0.000404808707473 -0.000445418943952 -0.00494930803367)
(-0.000366870327719 -0.000486279579948 -0.00515271509027)
(-0.000319458054661 -0.000523045942378 -0.00533308163061)
(-0.000265000604414 -0.000554058852944 -0.00548618191246)
(-0.000204375757902 -0.00057904447878 -0.00560807879428)
(-0.000138879818807 -0.000597422817634 -0.00569636884238)
(-6.99836178548e-05 -0.000608676144143 -0.00574970754003)
(6.72132018964e-07 -0.000612429992857 -0.00576735712526)
(7.132255408e-05 -0.000608545737128 -0.00574902600839)
(0.000140203358226 -0.000597166044513 -0.00569499653598)
(0.000205674015225 -0.000578667926349 -0.00560598585881)
(0.000266264643674 -0.000553572326538 -0.00548331536265)
(0.000320680162896 -0.000522460643851 -0.0053293606071)
(0.00036803102713 -0.000485612226592 -0.00514801362009)
(0.000405895897418 -0.000444664882106 -0.00494348779437)
(-0.000411123502402 -0.000452507225757 -0.00537249004842)
(-0.000371512804602 -0.000489757161167 -0.00556211800924)
(-0.000322438932283 -0.000523432694258 -0.00573040920507)
(-0.000266816989181 -0.000551664828603 -0.00587363322279)
(-0.000205405462121 -0.000574394565686 -0.0059878537839)
(-0.000139398013559 -0.000591111325345 -0.00607066514126)
(-7.01848922116e-05 -0.000601343248517 -0.00612071817313)
(6.83880417484e-07 -0.000604754678414 -0.00613726901882)
(7.15466828282e-05 -0.000601222775673 -0.00612003211935)
(0.000140742376136 -0.000590874599364 -0.00606928642155)
(0.000206721071352 -0.000574048497891 -0.00598575784676)
(0.000268093633382 -0.000551219434254 -0.0058707752168)
(0.000323667964905 -0.000522899269128 -0.00572671808814)
(0.000372675953901 -0.000489151147701 -0.00555747211337)
(0.00041221016238 -0.000451820970975 -0.00536674893296)
(-0.000411775629145 -0.000453233543458 -0.00572652844839)
(-0.000370958704289 -0.000485923514595 -0.00590386149033)
(-0.000320897023296 -0.000515720478053 -0.00606171949058)
(-0.000264874830665 -0.000540576845815 -0.00619636037207)
(-0.000203525117617 -0.000560596381043 -0.00630376495774)
(-0.000137924786828 -0.000575321021743 -0.00638161365678)
(-6.93692121654e-05 -0.00058432749935 -0.00642864947512)
(7.06710060693e-07 -0.000587327155766 -0.00644418264235)
(7.07760997531e-05 -0.000584216481591 -0.00642795166602)
(0.000139312450649 -0.00057510312879 -0.00638021375171)
(0.000204880902639 -0.00056027830182 -0.0063016432286)
(0.000266187246782 -0.000540168145952 -0.00619348001784)
(0.000322156229527 -0.00051523191821 -0.00605802003949)
(0.00037214727828 -0.000485368711415 -0.00589922591788)
(0.000412882683239 -0.000452604444252 -0.00572081409143)
(-0.000407500513768 -0.000448401604907 -0.00602652395884)
(-0.000365886961271 -0.000475697340017 -0.00619347714748)
(-0.000315456909511 -0.00050092655193 -0.00634246370551)
(-0.000259694610318 -0.000521941581113 -0.00646940712261)
(-0.000199127595663 -0.000538894940694 -0.00657038423767)
(-0.00013472225492 -0.000551359613899 -0.00664339943)
(-6.76691456374e-05 -0.000558971969282 -0.00668744283404)
(7.36963330787e-07 -0.000561502145241 -0.00670195791097)
(6.91361007223e-05 -0.000558870605589 -0.00668673008683)
(0.000136168592227 -0.000551160648635 -0.00664197141746)
(0.000200539585745 -0.000538604380555 -0.0065682251289)
(0.000261059623231 -0.000521567915154 -0.0064664874164)
(0.000316763913562 -0.000500479292355 -0.0063387339392)
(0.000367119077382 -0.000475187755462 -0.00618882588307)
(0.000408645513119 -0.000447823153742 -0.00602080268905)
(-0.000398893504199 -0.000438587020267 -0.00628394994183)
(-0.000356939529628 -0.000459769640864 -0.00644266001684)
(-0.000306700334716 -0.000479908365849 -0.00658398717376)
(-0.000251736246059 -0.000496770277842 -0.00670349408052)
(-0.000192543949592 -0.00051038968629 -0.00679787549233)
(-0.00013000599069 -0.000520374476074 -0.00686579486949)
(-6.51928332731e-05 -0.000526449958309 -0.00690664544357)
(7.71594110546e-07 -0.000528462082858 -0.00692006997085)
(6.67288089739e-05 -0.000526358817904 -0.00690591816224)
(0.000131520449454 -0.000520195327726 -0.00686433875176)
(0.00019402234676 -0.000510127638106 -0.00679567724972)
(0.000253165036923 -0.000496432145822 -0.00670052992034)
(0.000308067399137 -0.000479501783932 -0.00658021880493)
(0.000358228268465 -0.000459302832143 -0.00643798618022)
(0.000400089629826 -0.000438056480295 -0.00627821679866)
(-0.00038672551632 -0.000424044786472 -0.00650732898398)
(-0.000344966265676 -0.000438505151489 -0.00666067211243)
(-0.000295227739126 -0.000453322094635 -0.00679492096732)
(-0.000241418004849 -0.000465891526879 -0.00690647002956)
(-0.000184064108576 -0.000475989154679 -0.0069935588793)
(-0.000123967406994 -0.000483328618561 -0.00705581294654)
(-6.20385918691e-05 -0.000487763213103 -0.00709311398511)
(8.08136920466e-07 -0.000489222430457 -0.00710532899963)
(6.36475872132e-05 -0.00048768263846 -0.00709237613996)
(0.000125554372596 -0.000483170017682 -0.00705433557585)
(0.00018561401957 -0.000475756390302 -0.0069913295425)
(0.000242916708698 -0.000465589727 -0.00690346765767)
(0.000296662250893 -0.000452956656849 -0.00679111655246)
(0.000346319929239 -0.000438080639671 -0.00665598134799)
(0.000387984146612 -0.000423559091315 -0.00650161308018)
(-0.000373274795797 -0.00040592724333 -0.00670181277474)
(-0.000331590938258 -0.000411977284513 -0.00685477226702)
(-0.000282040935735 -0.000421790904681 -0.00698110869322)
(-0.000229559501574 -0.000429903182741 -0.00708359446059)
(-0.000174345665618 -0.00043629492372 -0.00716258434396)
(-0.000117081085459 -0.00044086133436 -0.00721865584186)
(-5.84569056912e-05 -0.000443590028254 -0.0072521216146)
(8.44828123521e-07 -0.000444476996671 -0.00726303962198)
(6.01392306705e-05 -0.00044352006545 -0.00725138084136)
(0.000118741241074 -0.00044072330762 -0.00721717135458)
(0.000175968238037 -0.00043609152709 -0.00716034350259)
(0.000231129693716 -0.00042963809333 -0.00708057526614)
(0.000283545254259 -0.000421467623414 -0.00697728606109)
(0.000333010774882 -0.000411596124434 -0.00685005456709)
(0.000374603966176 -0.000405485963376 -0.0066962099745)
(1.95512139544e-06 2.66521424757e-06 -0.000231076100524)
(1.70129447391e-06 3.34608895201e-06 -0.000242629211594)
(1.47417520509e-06 3.90056811891e-06 -0.000253259653932)
(1.25514673685e-06 4.35515524683e-06 -0.000262605627695)
(9.74506718133e-07 4.73130898998e-06 -0.000270302022988)
(6.60031845252e-07 5.00712627628e-06 -0.000276035041051)
(3.19713696388e-07 5.17442279292e-06 -0.000279575822092)
(-3.12902849595e-08 5.22722755556e-06 -0.000280781892578)
(-3.82355041584e-07 5.16276963442e-06 -0.000279576156407)
(-7.23449673963e-07 4.98315786352e-06 -0.000276034542221)
(-1.04209084635e-06 4.69374022493e-06 -0.000270297695459)
(-1.32985388212e-06 4.30395702565e-06 -0.000262592192097)
(-1.55680915606e-06 3.83409374758e-06 -0.00025323131363)
(-1.78958617931e-06 3.26839027077e-06 -0.000242579510041)
(-2.0343104755e-06 2.58694402129e-06 -0.000231002319696)
(1.36065134381e-05 1.61654825593e-05 -0.000693264125526)
(1.27187325935e-05 1.93337617535e-05 -0.00072765519438)
(1.14476980028e-05 2.22705718438e-05 -0.000759363504825)
(9.84412211568e-06 2.4832977585e-05 -0.000787236962579)
(7.78106889289e-06 2.69726756464e-05 -0.000810188549571)
(5.36574017407e-06 2.85687914507e-05 -0.000827289356374)
(2.69878389962e-06 2.95509277264e-05 -0.000837850575603)
(-9.43558542685e-08 2.98732992086e-05 -0.000841439425669)
(-2.8877148983e-06 2.95187847319e-05 -0.000837854061149)
(-5.55656530103e-06 2.85032768284e-05 -0.000827292677676)
(-7.98022201049e-06 2.68718183411e-05 -0.000810182509856)
(-1.00588003018e-05 2.46976154052e-05 -0.000787205593544)
(-1.167946512e-05 2.209947654e-05 -0.000759288797393)
(-1.29608242205e-05 1.913715238e-05 -0.000727517660191)
(-1.38264351618e-05 1.59671207858e-05 -0.00069305613625)
(2.89077271465e-05 3.34577765881e-05 -0.00115066517496)
(2.70492813362e-05 3.91066510841e-05 -0.00120709258669)
(2.42459140994e-05 4.4427385839e-05 -0.00125910319464)
(2.06876502397e-05 4.90439900146e-05 -0.00130478880936)
(1.6265837839e-05 5.28488314899e-05 -0.00134237849282)
(1.11796441692e-05 5.56631113532e-05 -0.00137037191439)
(5.62926118857e-06 5.73845247183e-05 -0.00138765041883)
(-1.54829413484e-07 5.79495883477e-05 -0.00139351084046)
(-5.93921928765e-06 5.73352740932e-05 -0.00138765076487)
(-1.14918371891e-05 5.5563255093e-05 -0.00137036699878)
(-1.65872650165e-05 5.2696897619e-05 -0.00134235436896)
(-2.10271894459e-05 4.88423085397e-05 -0.00130472162098)
(-2.4606225899e-05 4.41787916326e-05 -0.00125896505636)
(-2.74209325255e-05 3.88254734501e-05 -0.00120685349763)
(-2.92503141437e-05 3.31762883162e-05 -0.00115031650452)
(4.37152635066e-05 4.99761469097e-05 -0.00159785587954)
(4.05609224493e-05 5.72885800807e-05 -0.00167448315053)
(3.60235519415e-05 6.41589309568e-05 -0.00174496157898)
(3.04356073476e-05 7.00201858968e-05 -0.00180677018477)
(2.37486346815e-05 7.47701985475e-05 -0.00185755878219)
(1.62340067559e-05 7.8238057448e-05 -0.00189534706574)
(8.15403166364e-06 8.0339753699e-05 -0.00191865269744)
(-2.08330170812e-07 8.10261969078e-05 -0.00192654396684)
(-8.57135698928e-06 8.02801369414e-05 -0.00191864104119)
(-1.66544158392e-05 7.81177046578e-05 -0.00189531727026)
(-2.41789720247e-05 7.45883917427e-05 -0.00185749474406)
(-3.08849019125e-05 6.97800350894e-05 -0.00180664461688)
(-3.64950718206e-05 6.38662032603e-05 -0.00174474146392)
(-4.10435986602e-05 5.69590664933e-05 -0.00167413254834)
(-4.41657728988e-05 4.96456676593e-05 -0.0015973666773)
(5.53506939584e-05 6.27293860362e-05 -0.00202929468296)
(5.07444054512e-05 7.0659798343e-05 -0.00212366645272)
(4.45936705562e-05 7.80315021501e-05 -0.00221025965324)
(3.72984452889e-05 8.41911865006e-05 -0.00228610824403)
(2.88747229733e-05 8.90933020111e-05 -0.00234838087602)
(1.96247827753e-05 9.26204538794e-05 -0.00239468879733)
(9.82318468804e-06 9.47360097343e-05 -0.00242323405278)
(-2.5084455236e-07 9.54216100399e-05 -0.00243288536874)
(-1.03260461645e-05 9.46712542016e-05 -0.00242319942682)
(-2.01318845054e-05 9.24902320532e-05 -0.0023946135887)
(-2.93925792353e-05 8.88974871319e-05 -0.00234824994821)
(-3.7835522539e-05 8.39332611727e-05 -0.0022858958303)
(-4.51532448447e-05 7.77185261861e-05 -0.00220993349578)
(-5.13154754306e-05 7.0308131677e-05 -0.0021231896886)
(-5.58901494458e-05 6.2374440387e-05 -0.00202866159703)
(6.31300573898e-05 7.09937788248e-05 -0.00244139763605)
(5.71335822208e-05 7.87510717618e-05 -0.00255103365128)
(4.96981255692e-05 8.58459583496e-05 -0.00265145962224)
(4.11837758941e-05 9.16554015198e-05 -0.00273938772444)
(3.16535024101e-05 9.61979413494e-05 -0.00281156421046)
(2.14003451667e-05 9.94201683303e-05 -0.00286523150658)
(1.06748963559e-05 0.000101333036844 -0.00289830490894)
(-2.81115243601e-07 0.000101947205484 -0.00290947259778)
(-1.12387975713e-05 0.000101266804579 -0.00289823628438)
(-2.19696437444e-05 9.92873733091e-05 -0.00286509012968)
(-3.22342825904e-05 9.59989127965e-05 -0.00281133866671)
(-4.17837165394e-05 9.13937818261e-05 -0.00273905800675)
(-5.03202064258e-05 8.55292462825e-05 -0.00265099958473)
(-5.77680091196e-05 7.83950956421e-05 -0.002550410304)
(-6.37372197107e-05 7.06317101422e-05 -0.00244060925445)
(6.74310185601e-05 7.52666883896e-05 -0.0028326247854)
(6.02708295431e-05 8.2415709736e-05 -0.00295524804179)
(5.19537964388e-05 8.88118378407e-05 -0.00306743311198)
(4.27074331594e-05 9.39592191241e-05 -0.00316565712553)
(3.2621970121e-05 9.79191549382e-05 -0.00324628670387)
(2.19555975223e-05 0.000100691702376 -0.00330623511448)
(1.09173461886e-05 0.000102321856445 -0.00334316879863)
(-3.00490733801e-07 0.000102840004472 -0.00335562353564)
(-1.1520404641e-05 0.000102256918038 -0.00334305711881)
(-2.25649714427e-05 0.00010056175497 -0.00330601040438)
(-3.32433083013e-05 9.77248572438e-05 -0.00324594318133)
(-4.3347504025e-05 9.37040606218e-05 -0.00316518346004)
(-5.26154120212e-05 8.85033248774e-05 -0.00306681308853)
(-6.09456263585e-05 8.20682361082e-05 -0.00295445621688)
(-6.8085222687e-05 7.49101207518e-05 -0.00283166452025)
(6.8997826662e-05 7.6456717044e-05 -0.00320249657404)
(6.09743219856e-05 8.28311148033e-05 -0.00333594001629)
(5.21551072057e-05 8.83659240707e-05 -0.00345786619937)
(4.25798338082e-05 9.27591633637e-05 -0.00356460547711)
(3.23545260926e-05 9.60884655506e-05 -0.00365220027292)
(2.16920737115e-05 9.83916497201e-05 -0.00371729887607)
(1.07556367289e-05 9.97337059184e-05 -0.00375738197498)
(-3.11663606942e-07 0.000100155809374 -0.00377087909942)
(-1.13813196193e-05 9.9672154942e-05 -0.00375722111904)
(-2.23246569048e-05 9.82686229195e-05 -0.00371697912922)
(-3.29992012597e-05 9.59047622596e-05 -0.00365172253087)
(-4.32424065697e-05 9.25179767431e-05 -0.00356396862979)
(-5.28381936067e-05 8.80742609487e-05 -0.00345706616228)
(-6.16712520798e-05 8.25017654205e-05 -0.00333496094105)
(-6.96814008792e-05 7.61146209607e-05 -0.00320134748128)
(6.85834330812e-05 7.54637132652e-05 -0.0035506998084)
(5.99961940882e-05 8.10485266332e-05 -0.00369274542509)
(5.09823777343e-05 8.57028462133e-05 -0.00382229799111)
(4.1377875133e-05 8.93562357877e-05 -0.00393564633712)
(3.12995039855e-05 9.20843039699e-05 -0.00402858199815)
(2.09145124346e-05 9.39498419023e-05 -0.00409757859753)
(1.03425269174e-05 9.50274238104e-05 -0.00414001781509)
(-3.17565016972e-07 9.5362620647e-05 -0.00415428449048)
(-1.09801377182e-05 9.49707233686e-05 -0.0041398045609)
(-2.15592197852e-05 9.38365749952e-05 -0.00409715754941)
(-3.19559958147e-05 9.19152489964e-05 -0.00402796106288)
(-4.20510516049e-05 8.91341420939e-05 -0.0039348350995)
(-5.16745459368e-05 8.54338505295e-05 -0.00382130535323)
(-6.07023287037e-05 8.07435649071e-05 -0.00369156577414)
(-6.9283050519e-05 7.51423367167e-05 -0.00354934778548)
(6.68078212186e-05 7.30153225009e-05 -0.00387668525811)
(5.79133273087e-05 7.7857156118e-05 -0.00402499754394)
(4.89317274885e-05 8.1674402099e-05 -0.00415994678259)
(3.9507313019e-05 8.46390812588e-05 -0.00427787857305)
(2.97642458801e-05 8.68184138576e-05 -0.00437441058054)
(1.98282334052e-05 8.82912845636e-05 -0.00444595038702)
(9.77972854611e-06 8.91346465236e-05 -0.00448988458182)
(-3.20631323935e-07 8.9393863077e-05 -0.00450462512541)
(-1.04234625497e-05 8.90837412532e-05 -0.00448961806519)
(-2.04789208184e-05 8.81895805992e-05 -0.00444542619203)
(-3.04260361538e-05 8.66665137664e-05 -0.00437364340113)
(-4.01842184834e-05 8.44391523852e-05 -0.00427688840832)
(-4.96256656953e-05 8.14314950233e-05 -0.00415875543175)
(-5.86204823596e-05 7.75802186115e-05 -0.00402360919128)
(-6.7514252835e-05 7.27185073461e-05 -0.00387511972569)
(6.41278808984e-05 6.96394509203e-05 -0.0041796576833)
(5.51253950796e-05 7.37913254173e-05 -0.00433185381809)
(4.63339524331e-05 7.68300069833e-05 -0.0044699737153)
(3.72325021964e-05 7.91596856531e-05 -0.0045904500495)
(2.79465822026e-05 8.08425418508e-05 -0.00468879493097)
(1.85644528825e-05 8.19662976733e-05 -0.00476147899561)
(9.13193261564e-06 8.26042411549e-05 -0.00480601529005)
(-3.22567973459e-07 8.27976821233e-05 -0.00482092330429)
(-9.77942448386e-06 8.25596467602e-05 -0.00480569639081)
(-1.92185010276e-05 8.18771359611e-05 -0.00476085301653)
(-2.86107912156e-05 8.07091001613e-05 -0.00468788264024)
(-3.79100886388e-05 7.89834276421e-05 -0.00458928100123)
(-4.70263782228e-05 7.66146929431e-05 -0.00446858194575)
(-5.5829614545e-05 7.35438805988e-05 -0.00433025213793)
(-6.48355118377e-05 6.93687619042e-05 -0.00417787034846)
(6.08513546435e-05 6.56895428547e-05 -0.00445873820608)
(5.18882046302e-05 6.91798535685e-05 -0.00461260527183)
(4.3398131227e-05 7.14874870655e-05 -0.00475189118464)
(3.47209840168e-05 7.32265482154e-05 -0.00487299211745)
(2.59731052925e-05 7.44595455759e-05 -0.0049714013556)
(1.72077733443e-05 7.52740287748e-05 -0.00504383117644)
(8.44109132476e-06 7.57331365967e-05 -0.00508807077651)
(-3.24347613657e-07 7.58699909382e-05 -0.00510283768613)
(-9.09195266733e-06 7.56951173644e-05 -0.00508770168213)
(-1.78646516486e-05 7.5197831121e-05 -0.00504310708825)
(-2.6639111642e-05 7.43450562053e-05 -0.00497034786059)
(-3.53986490209e-05 7.30744257959e-05 -0.00487164688416)
(-4.40884829352e-05 7.13001152688e-05 -0.00475029953542)
(-5.25886631892e-05 6.8962260001e-05 -0.00461078739905)
(-6.15577786375e-05 6.54461771011e-05 -0.00445672130811)
(5.71563229506e-05 6.1369311313e-05 -0.00471313407986)
(4.83535866961e-05 6.41839966547e-05 -0.00486708395905)
(4.02604743436e-05 6.57925760943e-05 -0.00500602084516)
(3.20892101183e-05 6.69804717753e-05 -0.00512600462163)
(2.39352569415e-05 6.78111690543e-05 -0.00522276109067)
(1.58206943816e-05 6.83576091191e-05 -0.0052935313914)
(7.73860219024e-06 6.8664426679e-05 -0.00533656739682)
(-3.26312693983e-07 6.87541805312e-05 -0.00535088225238)
(-8.39321124429e-06 6.86330278027e-05 -0.0053361515277)
(-1.6480757168e-05 6.82944235336e-05 -0.00529271496924)
(-2.46034412965e-05 6.77157394057e-05 -0.00522157254098)
(-3.27675221042e-05 6.68524991778e-05 -0.00512448738501)
(-4.09495118244e-05 6.56329538688e-05 -0.00500423036357)
(-4.90509540189e-05 6.39958932173e-05 -0.00486504812504)
(-5.78609967267e-05 6.11541666394e-05 -0.00471088222191)
(5.31367479209e-05 5.67454945086e-05 -0.00494222723782)
(4.46444888814e-05 5.88887864421e-05 -0.00509636185546)
(3.70565829825e-05 5.98022515699e-05 -0.00523404411485)
(2.94544910337e-05 6.0484329646e-05 -0.0053511554544)
(2.19247699818e-05 6.0964136738e-05 -0.00544443390625)
(1.44647684011e-05 6.12833965002e-05 -0.00551206365444)
(7.05531164481e-06 6.14633370202e-05 -0.00555295263669)
(-3.28427286483e-07 6.15141598735e-05 -0.00556649481337)
(-7.71394526089e-06 6.14383705741e-05 -0.00555249507997)
(-1.51281954083e-05 6.12329225267e-05 -0.00551116362581)
(-2.25953690055e-05 6.08872667664e-05 -0.005443119752)
(-3.0134069922e-05 6.03799233161e-05 -0.0053494722578)
(-3.77454382268e-05 5.96697368082e-05 -0.0052320547696)
(-4.53399324068e-05 5.87289780432e-05 -0.00509410638154)
(-5.38398478333e-05 5.65574000197e-05 -0.00493974304345)
(4.8833174576e-05 5.24781304982e-05 -0.00514635928165)
(4.09571320634e-05 5.34120376034e-05 -0.00530498956922)
(3.39497517773e-05 5.36281497447e-05 -0.00543963799629)
(2.69436768875e-05 5.38260889084e-05 -0.00555139363182)
(2.00333503814e-05 5.39615159025e-05 -0.00563898578931)
(1.31994387105e-05 5.40517625541e-05 -0.00570182731084)
(6.42038124764e-06 5.4100757931e-05 -0.00573956414152)
(-3.30439368903e-07 5.41105344118e-05 -0.00575199931071)
(-7.08280530127e-06 5.40818045135e-05 -0.00573907327935)
(-1.38660033302e-05 5.40133884393e-05 -0.00570085889596)
(-2.07060398746e-05 5.39025201126e-05 -0.00563756466063)
(-2.76241277671e-05 5.37449288383e-05 -0.00554956003866)
(-3.46387731373e-05 5.35227070209e-05 -0.0054374562141)
(-4.16516389558e-05 5.32807443406e-05 -0.00530249682173)
(-4.9536142613e-05 5.23160549249e-05 -0.0051436919722)
(-5.10726980255e-07 -9.84096338124e-07 -0.000361647069278)
(-2.01554401674e-07 -1.35141204916e-06 -0.000380221117496)
(-5.44622343923e-09 -1.56332478526e-06 -0.000397421546246)
(1.23813124861e-07 -1.68359348503e-06 -0.000412507945056)
(1.7654026852e-07 -1.73959387629e-06 -0.000424865960077)
(1.58190559315e-07 -1.75652450102e-06 -0.000434024046827)
(8.53548374902e-08 -1.75701240834e-06 -0.000439654274863)
(-1.76844985545e-08 -1.75614003282e-06 -0.00044155896658)
(-1.19878608383e-07 -1.7590517246e-06 -0.000439632941111)
(-1.90083086727e-07 -1.76007175976e-06 -0.000433981726361)
(-2.03698828032e-07 -1.74374179632e-06 -0.00042480347085)
(-1.45038146055e-07 -1.68751748767e-06 -0.000412426398652)
(-8.40418220939e-09 -1.56466144078e-06 -0.00039732158792)
(1.97106832045e-07 -1.34893068585e-06 -0.000380102196723)
(5.12950233973e-07 -9.78779756203e-07 -0.000361500763638)
(-1.84741099155e-06 -3.00974535423e-06 -0.00102572237528)
(-1.06922153659e-06 -3.94543601486e-06 -0.00107466948753)
(-5.25118074658e-07 -4.53905458934e-06 -0.00111994604078)
(-1.4067076486e-07 -4.9039665897e-06 -0.0011595938354)
(7.61506518389e-08 -5.10030507448e-06 -0.0011920280411)
(1.39009106886e-07 -5.18691351286e-06 -0.001216039391)
(8.36146967163e-08 -5.21599029493e-06 -0.00123078694516)
(-3.71615832066e-08 -5.22272188595e-06 -0.00123576138909)
(-1.56140410388e-07 -5.21925885106e-06 -0.00123072284233)
(-2.05996168681e-07 -5.19234761445e-06 -0.00121591225174)
(-1.33361139462e-07 -5.1061094162e-06 -0.00119184029579)
(9.64872591024e-08 -4.908379857e-06 -0.00115934892483)
(4.97276922744e-07 -4.53759284424e-06 -0.00111964635738)
(1.06168472115e-06 -3.93580960422e-06 -0.00107431367126)
(1.85492802035e-06 -2.99396406704e-06 -0.00102529255336)
(-3.47967803725e-06 -5.12161061396e-06 -0.00162771293659)
(-2.36338552987e-06 -6.49736482028e-06 -0.00170095071676)
(-1.52765640783e-06 -7.43314423515e-06 -0.00176855703149)
(-8.90718560495e-07 -8.04809638961e-06 -0.00182767765839)
(-4.53830760535e-07 -8.41619047301e-06 -0.00187599178488)
(-1.98402369459e-07 -8.61181176525e-06 -0.00191173190186)
(-8.19755119787e-08 -8.70017311172e-06 -0.00193366704176)
(-4.23020871374e-08 -8.72520835152e-06 -0.00194105190773)
(-6.01292354171e-10 -8.70193626249e-06 -0.00193356212272)
(1.22012221076e-07 -8.61411866465e-06 -0.00191152373295)
(3.88371275943e-07 -8.41719975499e-06 -0.00187568405082)
(8.40455010225e-07 -8.04593976053e-06 -0.00182727568065)
(1.49712357441e-06 -7.42341508164e-06 -0.00176806523067)
(2.35735561745e-06 -6.4776884832e-06 -0.00170036772075)
(3.492897254e-06 -5.09534561624e-06 -0.00162701504298)
(-4.91051542087e-06 -6.82789640401e-06 -0.00217355654315)
(-3.55672315621e-06 -8.45525752095e-06 -0.00226611796936)
(-2.50042795813e-06 -9.59605737391e-06 -0.00235137352597)
(-1.65769027548e-06 -1.03660982451e-05 -0.00242586105248)
(-1.02293958937e-06 -1.08446143123e-05 -0.00248670020824)
(-5.74046896063e-07 -1.11131620638e-05 -0.00253168966636)
(-2.66754777072e-07 -1.12425137335e-05 -0.00255929009126)
(-3.74764669296e-08 -1.12800931118e-05 -0.00256856983364)
(1.93671525343e-07 -1.12421103396e-05 -0.00255914684375)
(5.06607477023e-07 -1.11113042802e-05 -0.00253140532035)
(9.65517045554e-07 -1.08397440451e-05 -0.00248627935561)
(1.61479989984e-06 -1.03565806133e-05 -0.00242531044165)
(2.47710047215e-06 -9.57820460065e-06 -0.00235069961831)
(3.55779529147e-06 -8.42704511041e-06 -0.00226532024456)
(4.9313666337e-06 -6.7931208429e-06 -0.00217260927314)
(-6.08650178061e-06 -8.12754344212e-06 -0.00266970720312)
(-4.56773626089e-06 -9.86600920999e-06 -0.0027776633701)
(-3.3494505798e-06 -1.10985056804e-05 -0.00287689159721)
(-2.34417956265e-06 -1.19396222657e-05 -0.00296354775026)
(-1.54283081318e-06 -1.24698881233e-05 -0.00303431780888)