/*--------------------------------*- C++ -*----------------------------------*\
  =========                 |
  \\      /  F ield         | OpenFOAM: The Open Source CFD Toolbox
   \\    /   O peration     | Website:  https://openfoam.org
    \\  /    A nd           | Version:  7
     \\/     M anipulation  |
\*---------------------------------------------------------------------------*/
FoamFile
{
    version     2.0;
    format      ascii;
    class       surfaceScalarField;
    location    "2.44";
    object      phi;
}
// * * * * * * * * * * * * * * * * * * * * * * * * * * * * * * * * * * * * * //

dimensions      [0 3 -1 0 0 0 0];

internalField   nonuniform List<scalar> 
65775
(
7.01024238604e-12
6.64027956079e-11
5.1944277149e-11
-4.28328496456e-14
1.22800527658e-11
6.82049273589e-11
5.83031238645e-11
1.49494918768e-11
7.00544486609e-11
6.48818238736e-11
1.49327206936e-11
7.15233700898e-11
7.11347210123e-11
1.24757882705e-11
7.26031869032e-11
7.65632583396e-11
8.1125807092e-12
7.33102067285e-11
8.07593992671e-11
2.53940534238e-12
7.37312007448e-11
8.34364815589e-11
-3.44591222941e-12
7.39040603388e-11
8.43874780394e-11
-8.99922926087e-12
7.37457980198e-11
8.34196573957e-11
-1.33247972422e-11
7.33392936539e-11
8.07262898129e-11
-1.57281268217e-11
7.26474120963e-11
7.65147590163e-11
-1.56796384193e-11
7.15828606908e-11
7.10718658135e-11
-1.29357472263e-11
7.0128088842e-11
6.48051768368e-11
-7.59422708888e-12
6.82879044086e-11
5.82102064187e-11
6.64008582509e-11
5.18232734602e-11
-4.68503327906e-13
1.71457563217e-11
4.38735789207e-11
1.24809005648e-10
-8.74833806099e-14
3.08028713025e-11
4.0802112017e-11
1.39515250337e-10
3.81900512809e-11
3.92981641102e-11
1.54927792567e-10
3.85934024256e-11
3.7971385848e-11
1.69703289607e-10
3.2480631588e-11
3.67041212121e-11
1.82601996212e-10
2.11678359685e-11
3.55772006078e-11
1.92606749899e-10
6.52289097503e-12
3.48080582025e-11
1.98998910275e-10
-9.25817918313e-12
3.45558317985e-11
2.01264073289e-10
-2.3843071596e-11
3.48403191728e-11
1.98948402724e-10
-3.5040624541e-11
3.56428249516e-11
1.92507558644e-10
-4.09893421357e-11
3.68055467905e-11
1.82457062968e-10
-4.03818855414e-11
3.81109945595e-11
1.69516092487e-10
-3.27621232118e-11
3.94763494728e-11
1.5470055325e-10
-1.88387385055e-11
4.09917950601e-11
1.39241926282e-10
4.38816250734e-11
1.2446560364e-10
-1.37919861823e-12
2.37286870568e-11
-3.83191478351e-11
1.71988591713e-10
-1.10366010641e-13
4.31949694435e-11
-5.05715351094e-11
1.91733471559e-10
5.41430220661e-11
-5.8733958829e-11
2.12664849154e-10
5.51262544942e-11
-6.53694575672e-11
2.32890698354e-10
4.65994884837e-11
-7.08829557248e-11
2.50642101058e-10
3.03763864559e-11
-7.51923665477e-11
2.64457845636e-10
9.18528596016e-12
-7.79884199807e-11
2.73296943651e-10
-1.37025834304e-11
-7.89789889352e-11
2.76421395471e-10
-3.47944212556e-11
-7.79479375953e-11
2.73214238024e-10
-5.0825919791e-11
-7.51082029226e-11
2.64295664005e-10
-5.90788474058e-11
-7.07497407562e-11
2.50405690062e-10
-5.77518626692e-11
-6.51812151615e-11
2.32586454873e-10
-4.64072326669e-11
-5.84865616593e-11
2.1229774599e-10
-2.64757618423e-11
-5.03204334968e-11
1.91297211374e-10
-3.8315848173e-11
1.71453384331e-10
-2.25414351028e-12
2.74559386891e-11
-1.57395139131e-10
1.99230085467e-10
-1.21216665451e-13
5.0437321434e-11
-1.81148212927e-10
2.21479119303e-10
6.37825878821e-11
-1.97829477267e-10
2.45353739296e-10
6.53496956217e-11
-2.11045117801e-10
2.68621875908e-10
5.54331191098e-11
-2.21662250228e-10
2.8916281512e-10
3.61029623898e-11
-2.2970179692e-10
3.05209519252e-10
1.06531016547e-11
-2.34842309217e-10
3.15491851875e-10
-1.68900343373e-11
-2.36690838677e-10
3.19117427109e-10
-4.22026168215e-11
-2.34804561975e-10
3.15379051116e-10
-6.12667320406e-11
-2.29620422252e-10
3.04988681624e-10
-7.08015303025e-11
-2.21528703877e-10
2.88841748489e-10
-6.87531655612e-11
-2.108495986e-10
2.68210412508e-10
-5.48478070652e-11
-1.97562691583e-10
2.44860759959e-10
-3.12157532083e-11
-1.80889941501e-10
2.20901064e-10
-1.57417955322e-10
1.98537503023e-10
-3.10154433628e-12
2.87368026836e-11
-2.94289904882e-10
2.09848031521e-10
-1.24203224978e-13
5.32551954144e-11
-3.30227461431e-10
2.3250266092e-10
6.78918926396e-11
-3.56013178094e-10
2.57173161278e-10
6.99535911215e-11
-3.76076385559e-10
2.81462964349e-10
5.95020540236e-11
-3.91858513319e-10
3.03053602859e-10
3.86674312499e-11
-4.03586388248e-10
3.19994316713e-10
1.10363567967e-11
-4.1101383958e-10
3.30869719557e-10
-1.8922026124e-11
-4.13699961429e-10
3.34694226585e-10
-4.6379429316e-11
-4.10990314861e-10
3.30729225295e-10
-6.68765151827e-11
-4.03531071816e-10
3.19719737429e-10
-7.6842123868e-11
-3.9175970671e-10
3.02655560306e-10
-7.41665937866e-11
-3.75920442133e-10
2.80955241519e-10
-5.88134465919e-11
-3.55784526662e-10
2.56569562356e-10
-3.34744472054e-11
-3.30022272493e-10
2.31804075237e-10
-2.9437446589e-10
2.09028439028e-10
-3.92581247256e-12
2.79515751458e-11
-4.33375823632e-10
2.06899249941e-10
-1.22190125465e-13
5.22966466271e-11
-4.80836753426e-10
2.28262551688e-10
6.71960953005e-11
-5.15245967665e-10
2.51981998604e-10
6.95975082909e-11
-5.41642606119e-10
2.75637360619e-10
5.93162821926e-11
-5.62075798478e-10
2.96842703174e-10
3.83882869406e-11
-5.77048438039e-10
3.13569665883e-10
1.04449527264e-11
-5.86457475529e-10
3.24332495485e-10
-1.99020766658e-11
-5.89868806266e-10
3.28106100048e-10
-4.76375978666e-11
-5.8646020424e-10
3.2416694634e-10
-6.81606968039e-11
-5.77043676465e-10
3.13246694092e-10
-7.78577306947e-11
-5.62049395169e-10
2.96375948557e-10
-7.47176099209e-11
-5.41576732418e-10
2.75044980884e-10
-5.89562405631e-11
-5.15118167758e-10
2.5128343196e-10
-3.36357098353e-11
-4.80749039735e-10
2.27463794773e-10
-4.33570748859e-10
2.05978294886e-10
-4.72595234711e-12
2.54369916313e-11
-5.62202765411e-10
1.93226339819e-10
-1.17049833899e-13
4.81378462238e-11
-6.1945834901e-10
2.11975988857e-10
6.23634555799e-11
-6.61174647963e-10
2.33372888724e-10
6.49124622598e-11
-6.92820929508e-10
2.55080572533e-10
5.53792515228e-11
-7.17012882546e-10
2.74752497228e-10
3.55871298617e-11
-7.3454580506e-10
2.90373462999e-10
8.99086635942e-12
-7.4549104257e-10
3.004537447e-10
-1.99364840668e-11
-7.49463136931e-10
3.03975560317e-10
-4.62936582766e-11
-7.4553168224e-10
3.00265964475e-10
-6.56190176443e-11
-7.34615859076e-10
2.90007756885e-10
-7.44775923105e-11
-7.1709666716e-10
2.74225637349e-10
-7.10751535145e-11
-6.92896521121e-10
2.54415360307e-10
-5.58545478584e-11
-6.6121182707e-10
2.32594764225e-10
-3.20373192733e-11
-6.19557922455e-10
2.11095981386e-10
-5.62569795454e-10
1.92226406234e-10
-5.50179782109e-12
2.14724684099e-11
-6.71250186218e-10
1.71480303407e-10
-1.09683554293e-13
4.12683688679e-11
-7.3578813666e-10
1.86644289241e-10
5.39849471089e-11
-7.82899467493e-10
2.04697712458e-10
5.64787291886e-11
-8.18349918373e-10
2.23463822043e-10
4.81698594818e-11
-8.4520546115e-10
2.40720542973e-10
3.05773025258e-11
-8.64508502396e-10
2.54542795458e-10
6.78428585966e-12
-8.76492352598e-10
2.63495858574e-10
-1.91307132752e-11
-8.80841226427e-10
2.66610064753e-10
-4.2656852885e-11
-8.76581748483e-10
2.63288782908e-10
-5.9727480119e-11
-8.64676348826e-10
2.54140153628e-10
-6.72807620738e-11
-8.45435652093e-10
2.40142231686e-10
-6.38306120322e-11
-8.18617248371e-10
2.22737371133e-10
-4.99992999449e-11
-7.83165920854e-10
2.03854620296e-10
-2.8958428438e-11
-7.36148023939e-10
1.85700095945e-10
-6.71863059792e-10
1.70421002545e-10
-6.25251542056e-12
1.62821631913e-11
-7.53698203725e-10
1.44138051464e-10
-1.00898676131e-13
3.20874164542e-11
-8.22502166799e-10
1.55073077857e-10
4.25614654707e-11
-8.72752342254e-10
1.69086826715e-10
4.48096864611e-11
-9.10403163744e-10
1.84209929422e-10
3.81278572597e-11
-9.38779719301e-10
1.98411521754e-10
2.36540395238e-11
-9.59066741439e-10
2.09922574738e-10
3.93017535374e-12
-9.71606167563e-10
2.17416582034e-10
-1.75860689219e-11
-9.76152864641e-10
2.20007850519e-10
-3.70192579802e-11
-9.71753897662e-10
2.17193189772e-10
-5.09234934079e-11
-9.59352972512e-10
2.09488771957e-10
-5.67794757038e-11
-9.3918959633e-10
1.9779017587e-10
-5.34847036804e-11
-9.10909466397e-10
1.83433195571e-10
-4.1789726251e-11
-8.73310830244e-10
1.68192074517e-10
-2.46223643357e-11
-8.23197595868e-10
1.54079602422e-10
-7.54639743344e-10
1.43036329657e-10
-6.97734861814e-12
1.00364234163e-11
-8.05216303142e-10
1.1351881914e-10
-9.10792000694e-14
2.09019387627e-11
-8.75042447057e-10
1.19891649466e-10
2.8500190803e-11
-9.26092071885e-10
1.29466312127e-10
3.03482656847e-11
-9.64377081081e-10
1.40505822967e-10
2.56507189648e-11
-9.9321650183e-10
1.5122487569e-10
1.50924914363e-11
-1.01378517786e-09
1.60069426353e-10
5.27587819418e-13
-1.02645630744e-09
1.65870651656e-10
-1.53987566634e-11
-1.03104275179e-09
1.67858846409e-10
-2.96533683817e-11
-1.02667040292e-09
1.65633931267e-10
-3.96022425356e-11
-1.01420751043e-09
1.59610101272e-10
-4.34147357195e-11
-9.93835191802e-10
1.50568465855e-10
-4.04430894048e-11
-9.65165428998e-10
1.39688829572e-10
-3.1531105925e-11
-9.27002225399e-10
1.28531640168e-10
-1.91976617422e-11
-8.76148767219e-10
1.18861512332e-10
-8.06575525224e-10
1.12388943958e-10
-7.67547424362e-12
2.85140287095e-12
-8.23769544838e-10
8.18022733136e-11
-8.06603799849e-14
7.93300300692e-12
-8.91429138043e-10
8.35736717521e-11
1.21321915326e-11
-9.41124817188e-10
8.85741393342e-11
1.34897644706e-11
-9.78692912796e-10
9.5312276773e-11
1.1114327952e-11
-1.00711536136e-09
1.02299322999e-10
5.16111260083e-12
-1.02739063548e-09
1.08252868777e-10
-3.32559505796e-12
-1.03984665824e-09
1.12209149459e-10
-1.26642149937e-11
-1.04434285761e-09
1.13543533211e-10
-2.08248589683e-11
-1.04013412965e-09
1.11962230326e-10
-2.61364166608e-11
-1.02796429222e-09
1.07773530714e-10
-2.75782308612e-11
-1.00796814505e-09
1.01615317466e-10
-2.5032672751e-11
-9.79801623104e-10
9.44640068854e-11
-1.94399257987e-11
-9.42442325832e-10
8.76097010033e-11
-1.27966013149e-11
-8.93019348508e-10
8.2517471421e-11
-8.25636003241e-10
8.06560068875e-11
-8.34583401098e-12
-5.21104290126e-12
-8.094453132e-10
5.10503796663e-11
-6.9184991834e-14
-6.65362195396e-12
-8.72124829274e-10
4.84575933011e-11
-6.22390538279e-12
-9.18769622256e-10
4.89705062586e-11
-5.34386323922e-12
-9.5461202524e-10
5.13662231068e-11
-5.06496167938e-12
-9.81946884621e-10
5.45112121893e-11
-5.83883240754e-12
-1.00147348324e-09
5.74524109888e-11
-7.51950554733e-12
-1.01343500113e-09
5.9477043546e-11
-9.4897821737e-12
-1.01773569321e-09
6.01306716384e-11
-1.08313223919e-11
-1.01380321292e-09
5.92230993362e-11
-1.09370624368e-11
-1.00221301003e-09
5.69588340401e-11
-9.68466975869e-12
-9.83056889774e-10
5.38069578934e-11
-7.56311557212e-12
-9.56075990054e-10
5.0494953341e-11
-5.67156345787e-12
-9.20546748834e-10
4.79853532496e-11
-5.47095567913e-12
-8.74268394814e-10
4.73850117387e-11
-8.11903647621e-10
4.98981489523e-11
-8.98439327259e-12
-1.41886605006e-11
-7.64267104691e-10
2.32337442824e-11
-5.51258431608e-14
-2.27044544587e-11
-8.19995391952e-10
1.67556766503e-11
-2.61420125694e-11
-8.62590623479e-10
1.30278509585e-11
-2.55771198656e-11
-8.96041661363e-10
1.11644030113e-11
-2.23326193391e-11
-9.21759233965e-10
1.04596522155e-11
-1.75161634166e-11
-9.40140835211e-10
1.0346758179e-11
-1.19126157042e-11
-9.51358721013e-10
1.04047097849e-11
-6.01306732806e-12
-9.55375548373e-10
1.03693571396e-11
-5.78100176947e-14
-9.51816894058e-10
1.01465973005e-11
5.45101708794e-12
-9.41063622848e-10
9.84413578449e-12
9.70437307057e-12
-9.23150963069e-10
9.74154914852e-12
1.15575734449e-11
-8.97895006916e-10
1.02766337277e-11
9.63986239798e-12
-8.64875510735e-10
1.20288647496e-11
2.83864409595e-12
-8.22760652697e-10
1.56762327567e-11
-7.67407154091e-10
2.20881927977e-11
-9.55809250938e-12
-2.41928656382e-11
-6.92052695146e-10
2.53355468393e-13
-3.43825897685e-14
-3.97070113678e-11
-7.40569499982e-10
-9.49308911435e-12
-4.66812493219e-11
-7.78694512903e-10
-1.71392410649e-11
-4.61808320708e-11
-8.09173905022e-10
-2.30974566409e-11
-3.98170533256e-11
-8.32720941469e-10
-2.75783870678e-11
-2.92982878519e-11
-8.49545476659e-10
-3.07176681971e-11
-1.63047687519e-11
-8.59778616723e-10
-3.26145236913e-11
-2.42550612581e-12
-8.63433168477e-10
-3.33298342689e-11
1.09336410117e-11
-8.6034023124e-10
-3.28738910708e-11
2.21707723307e-11
-8.5067538589e-10
-3.12238412128e-11
2.95786915338e-11
-8.34425094887e-10
-2.83031669973e-11
3.14103230697e-11
-8.11452279593e-10
-2.39949190025e-11
2.60022770026e-11
-7.81528876128e-10
-1.81463655864e-11
1.22602448723e-11
-7.44020413774e-10
-1.05690772432e-11
-6.95936612481e-10
-8.65911595158e-13
-1.00857908955e-11
-3.24615380622e-11
-1.60313356138e-11
-1.96770533528e-14
-6.01227739373e-10
-5.44640769426e-11
-2.85977265613e-11
-6.41503063801e-10
-6.50587417768e-11
-3.97943502716e-11
-6.74511683194e-10
-6.50275059092e-11
-4.95991424363e-11
-7.01364772897e-10
-5.6063531459e-11
-5.76889217673e-11
-7.22241087231e-10
-4.03484927894e-11
-6.37440385633e-11
-7.37221428043e-10
-2.04238113145e-11
-6.75277488102e-11
-7.46340992377e-10
9.97528146337e-13
-6.88933968928e-11
-7.49608459314e-10
2.13064660303e-11
-6.778285488e-11
-7.4702913115e-10
3.77744541259e-11
-6.42429051948e-11
-7.38601162194e-10
4.78290547982e-11
-5.84056253884e-11
-7.2431361047e-10
4.92441332708e-11
-5.04911376808e-11
-7.04128545576e-10
4.02753042325e-11
-4.07968687252e-11
-6.77961505856e-10
2.00882263706e-11
-2.96694068869e-11
-6.45689648019e-10
-1.70741222156e-11
-1.05209517105e-11
-6.05925340743e-10
-4.97623082404e-13
8.71855845835e-12
4.36918684192e-11
-1.43171511375e-14
-8.01894184388e-13
9.66576028951e-12
4.8868456965e-11
-9.36964961268e-13
1.06051374089e-11
5.4336455181e-11
-9.23853074426e-13
1.14553914345e-11
5.95974317824e-11
-7.75897396199e-13
1.21627907554e-11
6.41989509392e-11
-5.22009717094e-13
1.2691501986e-11
6.77718291589e-11
-1.99991713686e-13
1.30211152668e-11
7.00560996792e-11
1.45807995226e-13
1.31391269538e-11
7.08672171564e-11
4.66181401373e-13
1.30245711882e-11
7.00407358478e-11
7.17693092688e-13
1.27003595777e-11
6.77415862325e-11
8.65418956067e-13
1.21807992506e-11
6.41546786008e-11
8.83638323071e-13
1.1482944179e-11
5.95400527832e-11
7.57792735295e-13
1.06351439057e-11
5.42662038545e-11
4.64514431483e-13
9.69266165914e-12
4.87822085267e-11
8.72827308426e-12
4.35760306851e-11
-4.36567443332e-14
-1.07286387285e-12
2.05136203105e-11
1.14040620169e-10
-3.83962653257e-14
-1.76561163146e-12
2.24430410266e-11
1.27315808997e-10
-2.07525500176e-12
2.42598281893e-11
1.41462605584e-10
-2.0418680778e-12
2.58520007336e-11
1.55167505454e-10
-1.71208428722e-12
2.71380414399e-11
1.67213290862e-10
-1.15574648526e-12
2.80761481503e-11
1.76597329467e-10
-4.56479272292e-13
2.86535913695e-11
1.82605860738e-10
2.92502156415e-13
2.88614556556e-11
1.8473475376e-10
9.89352250052e-13
2.86603543544e-11
1.82560131146e-10
1.54322872839e-12
2.80932265494e-11
1.76507397816e-10
1.87624412411e-12
2.71716422604e-11
1.67081835447e-10
1.92473316079e-12
2.59034654423e-11
1.54997527815e-10
1.64031644578e-12
2.43170472806e-11
1.41255307815e-10
9.74757481951e-13
2.24916493489e-11
1.27063145273e-10
2.05326672014e-11
1.13714325703e-10
-1.20479328197e-13
-1.34417681813e-12
3.08951322844e-11
1.62927841962e-10
-5.69951195268e-14
-2.23065882792e-12
3.34193864775e-11
1.81539464343e-10
-2.62042599546e-12
3.56471224859e-11
2.01557531617e-10
-2.56616938166e-12
3.75117272007e-11
2.21081022307e-10
-2.14448072412e-12
3.89596603246e-11
2.38321914158e-10
-1.45154789139e-12
3.99822558643e-11
2.51794808319e-10
-5.91666880578e-13
4.06000064721e-11
2.60432951072e-10
3.26133640298e-13
4.08229939581e-11
2.6348748621e-10
1.18471637116e-12
4.06052778811e-11
2.60358465689e-10
1.87817869272e-12
3.99967861589e-11
2.51648475209e-10
2.30885638699e-12
3.89900457153e-11
2.38108407674e-10
2.38721588879e-12
3.75592688043e-11
2.20805815627e-10
2.03474091553e-12
3.56987287671e-11
2.01223896994e-10
1.18714550096e-12
3.34562506549e-11
1.81137951891e-10
3.08991738607e-11
1.62422524881e-10
-1.87506696149e-13
-1.41304231943e-12
3.94156365967e-11
1.92117422315e-10
-7.15161678668e-14
-2.35538461404e-12
4.22068527798e-11
2.13538366134e-10
-2.76244243564e-12
4.44699571183e-11
2.36838888342e-10
-2.69251681072e-12
4.6230014662e-11
2.59747475908e-10
-2.24263379271e-12
4.75109188731e-11
2.80090690377e-10
-1.52320934147e-12
4.83663449317e-11
2.96045640541e-10
-6.42779216553e-13
4.88653254451e-11
3.06291265825e-10
2.93460715845e-13
4.9045761905e-11
3.09906683073e-10
1.17460813303e-12
4.88636754767e-11
3.06190113305e-10
1.89872610389e-12
4.8366878125e-11
2.95847160041e-10
2.36350622102e-12
4.751979051e-11
2.79801749963e-10
2.46436982494e-12
4.6248547423e-11
2.59376501898e-10
2.10205807427e-12
4.44874575488e-11
2.3639242433e-10
1.2058209907e-12
4.22054994417e-11
2.13008813049e-10
3.93841731301e-11
1.91467908373e-10
-2.45393630112e-13
-1.35142581103e-12
4.58290020162e-11
2.04798239612e-10
-8.28474734583e-14
-2.26050357994e-12
4.86136189236e-11
2.2691858569e-10
-2.64608396941e-12
5.06208751812e-11
2.51320399435e-10
-2.56777308109e-12
5.19906635684e-11
2.75546979583e-10
-2.13230929036e-12
5.28610330446e-11
2.97203523222e-10
-1.45418551011e-12
5.33657378845e-11
3.142609164e-10
-6.36009206051e-13
5.36308354513e-11
3.25234954893e-10
2.30740587318e-13
5.37263041528e-11
3.29098660484e-10
1.0515701067e-12
5.36167152737e-11
3.25109337134e-10
1.73801876011e-12
5.33412790037e-11
3.14014783768e-10
2.19260181182e-12
5.28322356767e-11
2.96846177188e-10
2.30544931849e-12
5.19599041514e-11
2.75090331659e-10
1.96712368209e-12
5.05811939694e-11
2.50775365437e-10
1.1063391058e-12
4.85527247563e-11
2.26281360644e-10
4.57425378497e-11
2.04034561701e-10
-2.91559409956e-13
-1.21346767817e-12
5.00445408238e-11
2.03922160593e-10
-9.17278869762e-14
-2.03476100657e-12
5.26006790636e-11
2.25020062687e-10
-2.37674291753e-12
5.41382694472e-11
2.48728767028e-10
-2.29677516393e-12
5.49210843596e-11
2.72557455578e-10
-1.90195372309e-12
5.52182478456e-11
2.94031163823e-10
-1.30232988515e-12
5.52523782546e-11
3.1103094162e-10
-5.88864812345e-13
5.52090739326e-11
3.21992529346e-10
1.64188304289e-13
5.51918602155e-11
3.25841960193e-10
8.81442245375e-13
5.5178358695e-11
3.21844668547e-10
1.49123195333e-12
5.5194999112e-11
3.10741695784e-10
1.90641193535e-12
5.51406053954e-11
2.93612513186e-10
2.02021689676e-12
5.48275069679e-11
2.72025292884e-10
1.72285235401e-12
5.40264676503e-11
2.48099214828e-10
9.46210207662e-13
5.2465611499e-11
2.24293967696e-10
4.98905410475e-11
2.03068800655e-10
-3.23407870892e-13
-1.03083930658e-12
5.20961849017e-11
1.92242616607e-10
-9.86227107665e-14
-1.73176692234e-12
5.42495123878e-11
2.10960851399e-10
-2.01631265944e-12
5.51777760306e-11
2.32549162099e-10
-1.93889096526e-12
5.52623921857e-11
2.54599970163e-10
-1.5998619185e-12
5.49017785323e-11
2.74675865938e-10
-1.09828224789e-12
5.44066912555e-11
2.90669202656e-10
-5.10081989411e-13
5.40193560641e-11
3.01010411922e-10
1.0826784065e-13
5.38757479775e-11
3.04630906524e-10
7.00143011751e-13
5.39695475927e-11
3.00842492344e-10
1.21115157215e-12
5.43117621474e-11
2.90341294178e-10
1.56801093332e-12
5.47693687085e-11
2.74202840554e-10
1.67373771837e-12
5.50994672286e-11
2.54002097193e-10
1.42578132564e-12
5.49873634695e-11
2.31848291609e-10
7.60201118489e-13
5.40335212978e-11
2.10162593876e-10
5.18681288724e-11
1.91320029645e-10
-3.39525752016e-13
-8.18190563451e-13
5.21088026586e-11
1.7233427149e-10
-1.03805291954e-13
-1.37588730531e-12
5.37334560082e-11
1.8765885599e-10
-1.59015660772e-12
5.39833033262e-11
2.06046120194e-10
-1.51537802806e-12
5.33393269918e-11
2.25256758456e-10
-1.24096252681e-12
5.23124808025e-11
2.42985963179e-10
-8.50438230349e-13
5.12900557207e-11
2.57223949399e-10
-4.01902303439e-13
5.05621596574e-11
2.66462572152e-10
6.66333917337e-14
5.029293244e-11
2.69684620576e-10
5.1733491813e-13
5.04931314242e-11
2.66276674632e-10
9.13816376335e-13
5.11576014156e-11
2.5686159141e-10
1.19963956553e-12
5.21258875988e-11
2.42465055503e-10
1.29255438764e-12
5.31084436611e-11
2.24602208277e-10
1.10147892792e-12
5.37160706748e-11
2.05285743047e-10
5.64792185952e-13
5.34389805522e-11
1.8680269186e-10
5.18063629001e-11
1.71359492363e-10
-3.38634063806e-13
-5.79783021985e-13
5.02743523208e-11
1.46609810885e-10
-1.07856127012e-13
-9.72341423185e-13
5.12964925877e-11
1.57851100512e-10
-1.10082434571e-12
5.08648644502e-11
1.72281295631e-10
-1.02441727925e-12
4.95389908859e-11
1.87884843508e-10
-8.20787256787e-13
4.79110776637e-11
2.02564705778e-10
-5.54889119219e-13
4.64225317796e-11
2.14482974535e-10
-2.63833135679e-13
4.53962322446e-11
2.22252690632e-10
3.53113423319e-14
4.50164829584e-11
2.24948310915e-10
3.25791534696e-13
4.53099434238e-11
2.22050741434e-10
5.91774440719e-13
4.62566351079e-11
2.14090020417e-10
7.97050923047e-13
4.76766379422e-11
2.02001748682e-10
8.77527691356e-13
4.92487808616e-11
1.87181545457e-10
7.54526701381e-13
5.05309332723e-11
1.71471462483e-10
3.64011733388e-13
5.09340109812e-11
1.56948647815e-10
4.99062789068e-11
1.45596724001e-10
-3.20566024198e-13
-3.14546294837e-13
4.68364328023e-11
1.17336905175e-10
-1.10863834506e-13
-5.18798459052e-13
4.72341976884e-11
1.24113828356e-10
-5.43985422629e-13
4.61797050537e-11
1.34131250122e-10
-4.59572505337e-13
4.42886636374e-11
1.45628543954e-10
-3.32828456701e-13
4.21917746727e-11
1.56777162106e-10
-2.07843493687e-13
4.0353197376e-11
1.65976046819e-10
-9.72311603345e-14
3.91065987879e-11
1.72013825209e-10
7.02562151205e-15
3.8644947169e-11
1.74092023804e-10
1.13549268347e-13
3.90070929005e-11
1.71797583788e-10
2.31178988671e-13
4.01618769855e-11
1.65555940995e-10
3.47728795522e-13
4.19212314902e-11
1.56177210865e-10
4.19678341516e-13
4.39539456192e-11
1.44883137863e-10
3.79416412493e-13
4.57961946749e-11
1.33280091096e-10
1.55166461721e-13
4.68214913969e-11
1.23174100512e-10
4.64179092167e-11
1.1629641569e-10
-2.86485063495e-13
-2.41298830598e-14
4.20775502534e-11
8.66573531776e-11
-1.13311324835e-13
-2.00202978061e-14
4.18811012494e-11
8.88846220322e-11
7.20872392823e-14
4.03175065664e-11
9.43050457302e-11
1.68565188016e-13
3.80363573108e-11
1.01430227774e-10
2.11928878252e-13
3.56567278443e-11
1.0875505734e-10
1.80703286955e-13
3.36272433255e-11
1.14975685698e-10
9.00133711773e-14
3.22667764307e-11
1.19106907241e-10
-2.35589849325e-14
3.1762110257e-11
1.2050842216e-10
-1.21966575445e-13
3.21596841346e-11
1.1887801641e-10
-1.68369727207e-13
3.34212216031e-11
1.14531535853e-10
-1.47520663356e-13
3.53654897927e-11
1.08122438577e-10
-8.04238429218e-14
3.76765100606e-11
1.00648083818e-10
-2.46899871264e-14
3.99069851478e-11
9.34188977334e-11
-6.39157159963e-14
4.14415795281e-11
8.7914457475e-11
4.16307539993e-11
8.55977376885e-11
-2.38766341584e-13
2.728580107e-13
3.63233840648e-11
5.66098593545e-11
-1.15021326122e-13
4.91975093218e-13
3.56027529072e-11
5.44841451314e-11
7.03792627097e-13
3.36866418021e-11
5.53559715505e-11
8.09648602155e-13
3.12301872589e-11
5.80334962493e-11
7.65101681085e-13
2.8785454282e-11
6.13951488142e-11
5.73786571698e-13
2.6746960604e-11
6.44934482162e-11
2.78973094857e-13
2.53925654512e-11
6.66163210655e-11
-5.4280803249e-14
2.48895294253e-11
6.73082281426e-11
-3.59955758809e-13
2.52844035761e-11
6.63764546322e-11
-5.7325019075e-13
2.65389211213e-11
6.402828499e-11
-6.51245510385e-13
2.84911687485e-11
6.0733752461e-11
-5.89764355749e-13
3.08669884448e-11
5.72189775181e-11
-4.33844674873e-13
3.32745133851e-11
5.44398258701e-11
-2.79932248875e-13
3.51633463536e-11
5.34893414319e-11
3.58742442237e-11
5.55379743772e-11
-1.81717047779e-13
5.43155334075e-13
2.99411093868e-11
2.91561141557e-11
-1.16267854673e-13
9.70606962685e-13
2.87782302778e-11
2.31246624266e-11
1.28766324873e-12
2.66982504875e-11
1.96702340848e-11
1.38939951472e-12
2.4299740619e-11
1.79647394289e-11
1.25415165429e-12
2.20111477445e-11
1.73412342729e-11
9.16026002994e-13
2.01393699684e-11
1.72650132449e-11
4.43906294603e-13
1.89055607599e-11
1.73377066919e-11
-7.77210426374e-14
1.84455823845e-11
1.7309071065e-11
-5.62947926551e-13
1.88031437744e-11
1.70888677985e-11
-9.28412708391e-13
1.99418872866e-11
1.67823547271e-11
-1.10561963544e-12
2.17315962206e-11
1.66552097536e-11
-1.06052655546e-12
2.39548738496e-11
1.71217664702e-11
-8.13837790064e-13
2.63082671016e-11
1.87283625706e-11
-4.69150729339e-13
2.83648326167e-11
2.21118165795e-11
2.95172945874e-11
2.80815760006e-11
-1.21971673724e-13
8.03588221175e-13
2.32738134791e-11
6.20363683379e-12
-1.17415945028e-13
1.42936167702e-12
2.17710983333e-11
-3.13597479066e-12
1.80783928518e-12
1.97587373373e-11
-1.06027503825e-11
1.86751241606e-12
1.76455187308e-11
-1.65280866093e-11
1.63283232305e-12
1.5702355332e-11
-2.10596570028e-11
1.17025073994e-12
1.41387739401e-11
-2.42785013174e-11
5.64236718658e-13
1.31142534126e-11
-2.62410694464e-11
-9.32726716158e-14
1.27308809872e-11
-2.69800662303e-11
-7.14022811759e-13
1.30229887098e-11
-2.64954277362e-11
-1.20743142386e-12
1.39625734679e-11
-2.47724507496e-11
-1.48963013722e-12
1.54523997582e-11
-2.17628997203e-11
-1.49355864256e-12
1.73372449899e-11
-1.73931905583e-11
-1.19324873384e-12
1.94096803921e-11
-1.15663209136e-11
-6.5995833746e-13
2.14048584148e-11
-4.158599821e-12
2.2898284466e-11
5.14360034781e-12
-6.51700513132e-14
1.16754528992e-12
-1.04782670347e-11
-1.17041844477e-13
1.66415231366e-11
1.98054014657e-12
-2.26746363531e-11
1.5013231623e-11
2.33007695578e-12
-3.37561369634e-11
1.33486751539e-11
2.28041710057e-12
-4.36102171913e-11
1.16843464475e-11
1.92295384635e-12
-5.18382751376e-11
1.01869462433e-11
1.34822695794e-12
-5.80515726155e-11
8.99908126411e-12
6.44346365677e-13
-6.19564097711e-11
8.22589902807e-12
-1.06223803774e-13
-6.33672436233e-11
7.93481704597e-12
-8.26035781136e-13
-6.22105959074e-11
8.15125784907e-12
-1.43431539112e-12
-5.85460072374e-11
8.85428563456e-12
-1.84285384982e-12
-5.25444684897e-11
9.98069791421e-12
-1.96017678146e-12
-4.44833331091e-11
1.14285602399e-11
-1.69282134648e-12
-3.47300668551e-11
1.3058734051e-11
-9.74871788431e-13
-2.37078835142e-11
1.47098632873e-11
-1.14762616232e-11
-1.60538218912e-14
1.63272812569e-11
4.14218973954e-13
-6.50709744421e-12
4.97538265172e-11
-1.08481898303e-14
6.25994470678e-13
-7.28530829865e-12
5.58924750854e-11
7.04956861001e-13
-8.10671536634e-12
6.23073404928e-11
6.78441120866e-13
-8.86735530641e-12
6.84443158564e-11
5.5585886165e-13
-9.5215399743e-12
7.3795724014e-11
3.58862425114e-13
-1.00209300775e-11
7.79442143715e-11
1.14701875091e-13
-1.03351027606e-11
8.05948776275e-11
-1.45606024688e-13
-1.0443564823e-11
8.15364584398e-11
-3.87827883905e-13
-1.03261512262e-11
8.05788951277e-11
-5.81338830221e-13
-1.00048282464e-11
7.79127332028e-11
-7.00206634557e-13
-9.50106171764e-12
7.37495910124e-11
-7.24111701955e-13
-8.8441115438e-12
6.83844689619e-11
-6.38088565399e-13
-8.07633849283e-12
6.2234107329e-11
-4.20841683538e-13
-7.25921833655e-12
5.58028616122e-11
-6.48686693578e-12
4.96345034537e-11
-1.25516289163e-14
9.67299077762e-13
-1.46690927117e-11
1.21194615156e-10
-2.78973493648e-14
1.51940160615e-12
-1.62560545798e-11
1.35652220043e-10
1.74357323671e-12
-1.79145344908e-11
1.50960565298e-10
1.68824670806e-12
-1.94589778764e-11
1.65736399638e-10
1.38702025319e-12
-2.0779276219e-11
1.78696103154e-10
8.95290343819e-13
-2.17833179532e-11
1.88779815855e-10
2.83126718523e-13
-2.24137507793e-11
1.95233165208e-10
-3.70098047098e-13
-2.26310847802e-11
1.97520374399e-10
-9.77428994695e-13
-2.23929276315e-11
1.95185664606e-10
-1.46035998007e-12
-2.17447001399e-11
1.88686350861e-10
-1.75145637356e-12
-2.07280320555e-11
1.78559371332e-10
-1.79665875117e-12
-1.93989536556e-11
1.65559480329e-10
-1.55586743247e-12
-1.78427738465e-11
1.50744895806e-10
-9.87453369452e-13
-1.61885017484e-11
1.35390182012e-10
-1.46154358261e-11
1.20858604686e-10
-3.43171964392e-14
1.30857211926e-12
-2.13268411899e-11
1.68255354302e-10
-4.07038490453e-14
2.0995339822e-12
-2.34459135016e-11
1.87863005828e-10
2.43699234198e-12
-2.56357859707e-11
2.08864793234e-10
2.36975118575e-12
-2.76810894457e-11
2.29298531544e-10
1.95000454464e-12
-2.94256740517e-11
2.47318312262e-10
1.25769781008e-12
-3.07503423852e-11
2.61388379105e-10
3.93390229594e-13
-3.15812369459e-11
2.70406085121e-10
-5.29355314385e-13
-3.18671854509e-11
2.73595010169e-10
-1.38673588672e-12
-3.15513931251e-11
2.70328806937e-10
-2.06632692682e-12
-3.06943648531e-11
2.61236482115e-10
-2.47052161958e-12
-2.93501349338e-11
2.47096524001e-10
-2.52044200352e-12
-2.75916021632e-11
2.2901248026e-10
-2.15902752156e-12
-2.55323070403e-11
2.08518117516e-10
-1.34316185659e-12
-2.3345040597e-11
1.87446944403e-10
-2.12457868964e-11
1.67734992093e-10
-5.43926132765e-14
1.49938001875e-12
-2.65861753358e-11
1.95869675351e-10
-5.04799447574e-14
2.44515276062e-12
-2.90430825251e-11
2.18123508181e-10
2.86807813453e-12
-3.15399393148e-11
2.42251621558e-10
2.80318931775e-12
-3.38635336477e-11
2.65928877552e-10
2.31181852811e-12
-3.58386841545e-11
2.86931715387e-10
1.49039657435e-12
-3.73356125166e-11
3.03393199358e-10
4.60534264803e-13
-3.82739863672e-11
3.13960696263e-10
-6.40019643594e-13
-3.8596581794e-11
3.17689400365e-10
-1.66143884422e-12
-3.82380307232e-11
3.13855831436e-10
-2.46720719425e-12
-3.7267436984e-11
3.03187332264e-10
-2.93841540993e-12
-3.57449652431e-11
2.86631809662e-10
-2.9797785071e-12
-3.37512182657e-11
2.65543601403e-10
-2.52687883346e-12
-3.14127343974e-11
2.41788021885e-10
-1.55018958868e-12
-2.89173866166e-11
2.17574893163e-10
-2.64807838283e-11
1.9520048718e-10
-7.44743070795e-14
1.57919695915e-12
-3.05538396858e-11
2.07191574329e-10
-5.7813683973e-14
2.61011765899e-12
-3.32144866901e-11
2.30002527045e-10
3.09077198083e-12
-3.58574544227e-11
2.55096970306e-10
3.03705187634e-12
-3.82916375925e-11
2.79970621743e-10
2.51101077655e-12
-4.03502671983e-11
3.02184953879e-10
1.61786034258e-12
-4.19063227957e-11
3.19671895004e-10
4.92326296936e-13
-4.28806117542e-11
3.30918989527e-10
-7.11972307387e-13
-4.32150759718e-11
3.34878137321e-10
-1.82787451352e-12
-4.28407766513e-11
3.30788777823e-10
-2.70296900685e-12
-4.18302751456e-11
3.19416639285e-10
-3.20495416327e-12
-4.02446001594e-11
3.01814113131e-10
-3.2300123366e-12
-3.81640230376e-11