/*--------------------------------*- C++ -*----------------------------------*\
  =========                 |
  \\      /  F ield         | OpenFOAM: The Open Source CFD Toolbox
   \\    /   O peration     | Website:  https://openfoam.org
    \\  /    A nd           | Version:  7
     \\/     M anipulation  |
\*---------------------------------------------------------------------------*/
FoamFile
{
    version     2.0;
    format      ascii;
    class       volVectorField;
    location    "1.02";
    object      U;
}
// * * * * * * * * * * * * * * * * * * * * * * * * * * * * * * * * * * * * * //

dimensions      [0 1 -1 0 0 0 0];

internalField   nonuniform List<vector> 
22500
(
(1.21678925246e-05 1.36505456064e-05 0.000184546865355)
(1.13207217461e-05 1.53937177572e-05 0.000193700097442)
(9.90994411079e-06 1.71477633514e-05 0.000202021826976)
(8.3307918829e-06 1.863686614e-05 0.000209200323728)
(6.47527455355e-06 1.98678993848e-05 0.000215014468463)
(4.43300804674e-06 2.07818733545e-05 0.000219290586367)
(2.25258849456e-06 2.13451197612e-05 0.000221907951845)
(5.1805832807e-10 2.15356237671e-05 0.000222793819613)
(-2.25156808863e-06 2.13451901776e-05 0.000221907942974)
(-4.432030928e-06 2.07820086932e-05 0.00021929057235)
(-6.47436854504e-06 1.98680846323e-05 0.000215014451794)
(-8.32998070865e-06 1.86370849343e-05 0.000209200310433)
(-9.90926493257e-06 1.71479854286e-05 0.00020202185708)
(-1.13201361558e-05 1.53939699815e-05 0.000193700434642)
(-1.2167507459e-05 1.36507858801e-05 0.000184548816667)
(3.54514830293e-05 3.97899433895e-05 0.000485333454918)
(3.29185792879e-05 4.47649788232e-05 0.000505976451866)
(2.89050305088e-05 4.97216637364e-05 0.000524525558717)
(2.42738624555e-05 5.39689098634e-05 0.000540374558722)
(1.88756832105e-05 5.74811164562e-05 0.000553108226514)
(1.29213822648e-05 6.00912806252e-05 0.000562416405681)
(6.56554108684e-06 6.17012853325e-05 0.000568089710361)
(1.33694105095e-09 6.22457180608e-05 0.000570003085141)
(-6.56290341971e-06 6.17014420004e-05 0.000568089685579)
(-1.29188476042e-05 6.00915808136e-05 0.000562416363519)
(-1.88733160422e-05 5.74815261963e-05 0.000553108169802)
(-2.42717214203e-05 5.39693916728e-05 0.000540374500066)
(-2.89031883479e-05 4.97221542656e-05 0.000524525609596)
(-3.29169849728e-05 4.47655389978e-05 0.00050597737079)
(-3.54504138901e-05 3.97904895573e-05 0.000485338193939)
(5.35197567767e-05 5.99630900833e-05 0.000729812927345)
(4.94491374314e-05 6.71001826003e-05 0.000757244606676)
(4.33333319742e-05 7.41528019278e-05 0.00078163078353)
(3.62821886896e-05 8.01823321235e-05 0.00080229791964)
(2.81566952689e-05 8.5148658479e-05 0.000818789508418)
(1.92440265933e-05 8.88300543975e-05 0.000830782283605)
(9.76860628948e-06 9.10969665409e-05 0.000838065168096)
(1.96476673236e-09 9.18628131614e-05 0.000840514496627)
(-9.76472447198e-06 9.10971558907e-05 0.000838065105898)
(-1.92402824084e-05 8.88304158731e-05 0.000830782167679)
(-2.81531743174e-05 8.51491500692e-05 0.000818789336418)
(-3.62789679598e-05 8.0182904252e-05 0.000802297699659)
(-4.33305022308e-05 7.41533850207e-05 0.000781630652644)
(-4.94466547181e-05 6.71008596675e-05 0.000757245594049)
(-5.35180317292e-05 5.99637821109e-05 0.000729819096252)
(6.74743804965e-05 7.54512879256e-05 0.00092907884034)
(6.204125041e-05 8.39370554187e-05 0.000959999335701)
(5.42233604742e-05 9.22789654437e-05 0.000987177906129)
(4.52596384223e-05 9.93737495076e-05 0.00101001905543)
(3.50445927746e-05 0.000105193139283 0.00102811934715)
(2.39102989646e-05 0.000109493176317 0.00104121259281)
(1.2124458489e-05 0.000112135568885 0.00104913425366)
(2.43952810774e-09 0.000113027248422 0.00105179148716)
(-1.21196347863e-05 0.000112135779406 0.00104913411735)
(-2.39056364288e-05 0.000109493577341 0.00104121232491)
(-3.50401912752e-05 0.000105193684843 0.00102811893173)
(-4.5255584156e-05 9.93743822323e-05 0.00101001847724)
(-5.42197486319e-05 9.22796125767e-05 0.000987177268834)
(-6.20380432924e-05 8.39378104561e-05 0.00095999970907)
(-6.74720600345e-05 7.54520783376e-05 0.000929084729504)
(7.8137795766e-05 8.7230742382e-05 0.00109151516409)
(7.15203933344e-05 9.64495031935e-05 0.00112358335967)
(6.23278150661e-05 0.000105481999793 0.00115142674927)
(5.1865977072e-05 0.000113117737124 0.00117461464502)
(4.00692144866e-05 0.000119353400362 0.00119285365336)
(2.7291650374e-05 0.00012394586356 0.00120597257824)
(1.38245988038e-05 0.000126761829942 0.00121387830806)
(2.79729557307e-09 0.000127710973358 0.00121652340654)
(-1.38190650067e-05 0.000126762061171 0.00121387807248)
(-2.72862943716e-05 0.000123946304113 0.00120597210169)
(-4.00641457089e-05 0.000119354001983 0.00119285289422)
(-5.18612863558e-05 0.00011311843779 0.00117461353899)
(-6.23235916131e-05 0.000105482721876 0.00115142530638)
(-7.15166030045e-05 9.64503461206e-05 0.00112358255141)
(-7.81349442255e-05 8.7231636177e-05 0.00109151955563)
(8.59523052451e-05 9.5806428272e-05 0.00122365789786)
(7.83258881083e-05 0.000105251960043 0.00125522130652)
(6.80484234855e-05 0.000114488451698 0.00128225834414)
(5.64532021615e-05 0.000122246200228 0.0013045484174)
(4.35133401845e-05 0.000128551527108 0.0013219381703)
(2.95865048729e-05 0.0001331795983 0.00133436807196)
(1.49713893857e-05 0.000136010994504 0.00134182596035)
(3.07036105468e-09 0.000136964229347 0.00134431463039)
(-1.49653133595e-05 0.000136011251581 0.00134182561246)
(-2.9580618683e-05 0.000133180089135 0.00133436735398)
(-4.35077594446e-05 0.000128552201963 0.00132193700117)
(-5.64480195051e-05 0.000122246993564 0.00130454665682)
(-6.80437153518e-05 0.000114489282572 0.00128225586032)
(-7.83216192023e-05 0.000105252927354 0.00125521891864)
(-8.59489875495e-05 9.58074642581e-05 0.00122366015703)
(9.12786270072e-05 0.000101578704024 0.00133074611279)
(8.2814266285e-05 0.000110838229944 0.00136066698479)
(7.17144091399e-05 0.000119883933811 0.00138591522874)
(5.9309784056e-05 0.000127430079209 0.00140649594761)
(4.56089155986e-05 0.000133532197821 0.00142240527254)
(3.09576917587e-05 0.000137995754031 0.00143369710567)
(1.56488353016e-05 0.000140720215397 0.00144043912455)
(3.28702891938e-09 0.000141636402449 0.00144268256039)
(-1.5642329117e-05 0.000140720508793 0.00144043866045)
(-3.09513847516e-05 0.000137996316181 0.00143369613234)
(-4.56029276023e-05 0.000133532978195 0.00142240365648)
(-5.93042076754e-05 0.000127431008561 0.0014064934495)
(-7.17093060947e-05 0.000119884928429 0.00138591154547)
(-8.2809596273e-05 0.000110839380914 0.00136066279378)
(-9.12749002321e-05 0.000101579941211 0.00133074598813)
(9.44617241283e-05 0.000104933603103 0.00141706977956)
(8.53241035022e-05 0.000113682918112 0.00144460495222)
(7.36387875425e-05 0.000122227252921 0.00146745424689)
(6.07093057702e-05 0.000129305075784 0.00148584279834)
(4.65754917998e-05 0.000134997644955 0.00149991011557)
(3.15590507435e-05 0.000139147579832 0.00150981468649)
(1.59361935931e-05 0.000141674902793 0.00151569562813)
(3.47170788137e-09 0.000142523879971 0.00151764645341)
(-1.59293207747e-05 0.000141675245984 0.00151569505194)
(-3.1552384753e-05 0.000139148240922 0.00150981346152)
(-4.65691556672e-05 0.000134998572503 0.0014999080461)
(-6.07033918762e-05 0.000129306196867 0.00148583953078)
(-7.36333429641e-05 0.000122228479459 0.00146744929781)
(-8.53190858559e-05 0.000113684328157 0.00144459891195)
(-9.44576380682e-05 0.000104935113249 0.00141706730339)
(9.58178412708e-05 0.000106227671434 0.00148619605292)
(8.61626948482e-05 0.00011421994906 0.00151090803222)
(7.41047142639e-05 0.000122024547154 0.0015310337924)
(6.08987157346e-05 0.000128442164889 0.00154699770294)
(4.66108054754e-05 0.000133575050893 0.00155906527551)
(3.1528823244e-05 0.000137305231572 0.00156748349753)
(1.59045668099e-05 0.000139572238943 0.00157244990472)
(3.64598381168e-09 0.000140333050935 0.00157409156794)
(-1.58973476296e-05 0.000139572646519 0.00157244923014)
(-3.15218172573e-05 0.00013730602147 0.00156748204665)
(-4.66041384951e-05 0.000133576171013 0.00155906278636)
(-6.08924809502e-05 0.000128443538186 0.00154699370283)
(-7.40989475611e-05 0.000122026079489 0.00153102762723)
(-8.61573580004e-05 0.000114221698735 0.00151090028721)
(-9.58134354964e-05 0.000106229532363 0.00148619150311)
(9.56299393598e-05 0.000105781517625 0.00154111960927)
(8.56018282336e-05 0.000112833725307 0.00156280679723)
(7.33616228282e-05 0.000119719221182 0.00158010200096)
(6.00954333793e-05 0.000125337333426 0.00159359718595)
(4.58886550014e-05 0.000129806408046 0.00160365889547)
(3.09881932946e-05 0.000133045735917 0.0016106021844)
(1.56161511068e-05 0.000135011144406 0.00161466761013)
(3.82893168395e-09 0.000135670260416 0.00161600596218)
(-1.56085675357e-05 0.000135011629201 0.00161466686593)
(-3.0980827563e-05 0.000133046681058 0.0016106005678)
(-4.58816360604e-05 0.000129807761846 0.00160365608266)
(-6.00888572692e-05 0.000125339014883 0.00159359259231)
(-7.33555204611e-05 0.000119721128362 0.00158009482591)
(-8.55961745565e-05 0.000112835891271 0.00156279771698)
(-9.5625236689e-05 0.000105783805287 0.00154111352274)
(9.41502814364e-05 0.000103883901618 0.00158436325)
(8.38806960519e-05 0.000109861572913 0.00160300323434)
(7.16287678657e-05 0.000115694619121 0.00161752396765)
(5.84908508161e-05 0.00012041631936 0.00162864477961)
(4.45616141811e-05 0.000124155211134 0.00163680375607)
(3.00430078116e-05 0.000126860952924 0.00164236186602)
(1.51250555362e-05 0.000128500881091 0.00164558681592)
(4.03676170391e-09 0.000129050607225 0.00164664330186)
(-1.5117056814e-05 0.000128501451001 0.00164558605566)
(-3.0035229153e-05 0.000126862070443 0.00164236020002)
(-4.4554187985e-05 0.000124156826794 0.00163680081497)
(-5.84838795225e-05 0.000120418350015 0.00162863988741)
(-7.16222859244e-05 0.000115696954077 0.00161751620875)
(-8.38747016055e-05 0.000109864216921 0.00160299347292)
(-9.41452818187e-05 0.000103886678026 0.00158435648835)
(9.16012776403e-05 0.000100794815442 0.0016180443626)
(8.12096197206e-05 0.000105593714019 0.00163374882851)
(6.9101147196e-05 0.000110276028834 0.00164567192902)
(5.62552812697e-05 0.000114040613302 0.00165461118929)
(4.27640293347e-05 0.000117014804696 0.00166104549389)
(2.87852826585e-05 0.000119166873789 0.00166536052066)
(1.44779115845e-05 0.000120470654746 0.00166783633328)
(4.28195905928e-09 0.000120907614053 0.00166864254663)
(-1.44694215594e-05 0.000120471309568 0.00166783564853)
(-2.87770115587e-05 0.000119168164246 0.00166535900719)
(-4.2756113468e-05 0.000117016687174 0.00166104277062)
(-5.62478336032e-05 0.000114043006375 0.00165460652653)
(-6.90942163093e-05 0.000110278815126 0.00164566432283)
(-8.12032376416e-05 0.000105596868215 0.0016337393969)
(-9.15959534902e-05 0.000100798118131 0.00161803820315)
(8.81725390134e-05 9.67299736259e-05 0.00164391542491)
(7.77814178598e-05 0.000100263770389 0.00165690189217)
(6.59614760459e-05 0.000103735381131 0.00166649501441)
(5.35439759756e-05 0.000106518548577 0.00167351185862)
(4.06137667932e-05 0.000108721090328 0.00167844656401)
(2.7293344966e-05 0.000110315955532 0.00168169219171)
(1.37137388429e-05 0.000111281501652 0.00168352838716)
(4.57206929249e-09 0.000111604970316 0.00168412183548)
(-1.37046667356e-05 0.00011128222898 0.00168352791941)
(-2.7284486904e-05 0.000110317396059 0.001681691146)
(-4.06052623254e-05 0.000108723210014 0.00167844460865)
(-5.35359533547e-05 0.000106521275381 0.00167350828025)
(-6.59540101204e-05 0.000103738597211 0.00166648873302)
(-7.77745860082e-05 0.000100267423444 0.00165689422147)
(-8.8166850577e-05 9.67337877174e-05 0.00164391149915)
(8.40612032792e-05 9.1845524895e-05 0.00166338046226)
(7.3820216688e-05 9.4088501478e-05 0.0016739834699)
(6.23973497387e-05 9.63166929737e-05 0.00168158286326)
(5.04945118749e-05 9.81340224942e-05 0.00168697191581)
(3.82062656935e-05 9.95752716903e-05 0.00169065505821)
(2.56274317619e-05 0.000100616144144 0.00169302003069)
(1.28618852463e-05 0.000101243914152 0.00169433464389)
(4.90710350774e-09 0.000101453853893 0.00169475556566)
(-1.28521397945e-05 0.000101244687665 0.00169433458241)
(-2.56178923466e-05 0.000100617683294 0.00169301987852)
(-3.81970737452e-05 9.95775550346e-05 0.00169065463422)
(-5.04858136196e-05 9.81369976458e-05 0.00168697067162)
(-6.23892581365e-05 9.63202597463e-05 0.00168157969841)
(-7.38128680207e-05 9.40925867451e-05 0.00167397954821)
(-8.40550852118e-05 9.18498020692e-05 0.00166338055885)
(7.95489147955e-05 8.66031384234e-05 0.00167751827791)
(6.96053025817e-05 8.69863735041e-05 0.00168631001796)
(5.85241066372e-05 8.81028420947e-05 0.00169223695162)
(4.7178778262e-05 8.90019434945e-05 0.00169628601616)
(3.55870756913e-05 8.97058183594e-05 0.00169896576923)
(2.38169770645e-05 9.02047453838e-05 0.00170064052185)
(1.19373152082e-05 9.05017106269e-05 0.00170155271945)
(5.27881388751e-09 9.06005198084e-05 0.00170184167165)
(-1.19268230662e-05 9.05024801273e-05 0.00170155322696)
(-2.38066819341e-05 9.02062825002e-05 0.0017006416359)
(-3.55771174483e-05 8.97081153964e-05 0.00169896757707)
(-4.71693158486e-05 8.90049763232e-05 0.00169628839536)
(-5.85152979636e-05 8.81065444886e-05 0.00169223897897)
(-6.9597397953e-05 8.69907141216e-05 0.0016863134654)
(-7.95422450735e-05 8.66077119035e-05 0.00167752217369)
(2.72322207232e-07 4.3470203298e-07 0.000129013009372)
(1.72500288064e-07 5.64536292377e-07 0.000135365759837)
(1.29565963968e-07 6.39725508059e-07 0.000141099744685)
(8.96795456986e-08 6.97217957347e-07 0.000146039172145)
(5.75933625028e-08 7.37937538381e-07 0.000150039342149)
(3.31974068188e-08 7.64552760276e-07 0.000152981556251)
(1.48874553863e-08 7.79428017111e-07 0.00015478334748)
(1.98551850192e-10 7.84235844456e-07 0.000155394235394)
(-1.44826725872e-08 7.79464827593e-07 0.00015478334962)
(-3.2770113651e-08 7.64625713216e-07 0.000152981565774)
(-5.71414297845e-08 7.38040572542e-07 0.000150039368853)
(-8.92325284636e-08 6.97339194769e-07 0.000146039239827)
(-1.29173892658e-07 6.39855703778e-07 0.000141099935043)
(-1.72180806295e-07 5.6466466265e-07 0.000135366419938)
(-2.72147872781e-07 4.34824626233e-07 0.000129015411411)
(2.41643120166e-06 2.9591769237e-06 0.000371485724446)
(2.09296875048e-06 3.61144040238e-06 0.000388823772775)
(1.83487953024e-06 4.1561817964e-06 0.000404431581873)
(1.53347388699e-06 4.62952082684e-06 0.000417842760551)
(1.1899359622e-06 5.01241952686e-06 0.00042868067232)
(8.13060605461e-07 5.29389304821e-06 0.000436640931278)
(4.12661865901e-07 5.46608014683e-06 0.000441510066838)
(6.61685936026e-10 5.52418054975e-06 0.000443156289896)
(-4.11324904695e-07 5.46618256619e-06 0.000441510060729)
(-8.11686287372e-07 5.29409193403e-06 0.000436640933673)
(-1.18852822081e-06 5.01269582551e-06 0.00042868071223)
(-1.53210043552e-06 4.62984556143e-06 0.000417842909215)
(-1.83366486038e-06 4.1565318007e-06 0.000404432081764)
(-2.09197596383e-06 3.61180284068e-06 0.000388825641992)
(-2.41585894028e-06 2.95954146447e-06 0.000371492001947)
(5.76084966905e-06 6.71408850881e-06 0.000598712734843)
(5.16501479928e-06 8.04590103151e-06 0.000625531908553)
(4.58501552228e-06 9.23608818037e-06 0.000649584482183)
(3.87431276622e-06 1.02883701912e-05 0.000670190421618)
(3.03390562168e-06 1.1153144895e-05 0.000686800548984)
(2.08702759807e-06 1.17961030511e-05 0.000698977748833)
(1.06371108453e-06 1.21924571072e-05 0.000706415481522)
(1.15479862315e-09 1.23266189724e-05 0.000708925032795)
(-1.06138975678e-06 1.21926147075e-05 0.000706415428878)
(-2.08467665767e-06 1.17964048216e-05 0.000698977664402)
(-3.03154092185e-06 1.11535575889e-05 0.000686800474588)
(-3.87202319168e-06 1.02888496504e-05 0.000670190463975)
(-4.58297030624e-06 9.2366020718e-06 0.000649585000531)
(-5.16332686432e-06 8.04646200472e-06 0.0006255343955)
(-5.75982353519e-06 6.7146913519e-06 0.000598721565813)
(9.77921991144e-06 1.11257332391e-05 0.000810658396929)
(8.86153837442e-06 1.31785137306e-05 0.000845347279664)
(7.88864737768e-06 1.50496519717e-05 0.00087628955345)
(6.67767894442e-06 1.67135916151e-05 0.00090268739465)
(5.23640664343e-06 1.8086610992e-05 0.000923891105731)
(3.60559977592e-06 1.91098960377e-05 0.000939394077018)
(1.83878606643e-06 1.97416394568e-05 0.000948844208056)
(1.64949179128e-09 1.99555389512e-05 0.000952026736018)
(-1.83548244845e-06 1.97418469735e-05 0.000948844044201)
(-3.60228945592e-06 1.91102925827e-05 0.000939393771314)
(-5.23312245806e-06 1.80871549109e-05 0.000923890701731)
(-6.6745243959e-06 1.67142304249e-05 0.000902687012368)
(-7.88581364262e-06 1.50503434513e-05 0.000876289606967)
(-8.85917555949e-06 1.31792943016e-05 0.00084534952175)
(-9.77770499395e-06 1.11266003354e-05 0.000810668017859)
(1.40495546613e-05 1.57365493017e-05 0.00100659135981)
(1.27729465907e-05 1.84726100598e-05 0.00104740060751)
(1.13699046597e-05 2.09701644163e-05 0.00108354240889)
(9.61676968338e-06 2.31943256819e-05 0.00111420727735)
(7.53547449453e-06 2.50298105448e-05 0.00113872496475)
(5.18548970706e-06 2.63971783447e-05 0.00115658721639)
(2.6435063669e-06 2.72409918879e-05 0.00116744754535)
(2.12655654599e-09 2.75265440909e-05 0.00117109795664)
(-2.63925839184e-06 2.72412466896e-05 0.00116744721323)
(-5.18126509955e-06 2.63976665318e-05 0.00115658656758)
(-7.53132450165e-06 2.50304866234e-05 0.00113872402843)
(-9.6128088016e-06 2.31951327347e-05 0.00111420615501)
(-1.13663311056e-05 2.09710512067e-05 0.00108354149972)
(-1.27699291503e-05 1.84736250603e-05 0.00104740178328)
(-1.4047522067e-05 1.57376936546e-05 0.00100660030168)
(1.82808859071e-05 2.02424355183e-05 0.00118573892856)
(1.66221220998e-05 2.35741565667e-05 0.00123085604549)
(1.47756754087e-05 2.65907373647e-05 0.00127046169481)
(1.24735777135e-05 2.92744819452e-05 0.00130383934937)
(9.75773685892e-06 3.14847691436e-05 0.00133037593092)
(6.70611859323e-06 3.31282788127e-05 0.00134962477964)
(3.41601234723e-06 3.4141117972e-05 0.0013612919276)
(2.57483403114e-09 3.44835602151e-05 0.00136520557139)
(-3.41087829972e-06 3.41414181936e-05 0.00136129138953)
(-6.7010393024e-06 3.31288564319e-05 0.00134962370396)
(-9.75278078549e-06 3.14855775689e-05 0.00133037431373)
(-1.24688666815e-05 2.92754617541e-05 0.00130383723823)
(-1.47714065965e-05 2.65918303993e-05 0.00127045941008)
(-1.66184678396e-05 2.35754148732e-05 0.00123085549834)
(-1.82783137107e-05 2.02438575225e-05 0.00118574619806)
(2.22533965498e-05 2.44207081899e-05 0.00134760930973)
(2.02036233297e-05 2.82259300648e-05 0.00139526198716)
(1.79199336269e-05 3.16224397664e-05 0.00143666077922)
(1.50899485795e-05 3.46359820841e-05 0.00147127461903)
(1.17788700739e-05 3.71091736989e-05 0.0014986133935)
(8.08180873862e-06 3.8942906688e-05 0.00151834299639)
(4.11260358415e-06 4.00707201377e-05 0.00153025860695)
(2.98966995835e-09 4.04516004089e-05 0.00153424690396)
(-4.10664967589e-06 4.00710645153e-05 0.00153025785299)
(-8.07593830704e-06 3.89435724843e-05 0.00151834146565)
(-1.17731661728e-05 3.71101147853e-05 0.00149861103048)
(-1.50845374781e-05 3.4637137791e-05 0.00147127138373)
(-1.79150061792e-05 3.16237450869e-05 0.00143665686271)
(-2.01993499794e-05 2.82274377158e-05 0.00139525931527)
(-2.2250267816e-05 2.44224018166e-05 0.00134761433443)
(2.58025106937e-05 2.81086387022e-05 0.00149211293887)
(2.33671492403e-05 3.22431727307e-05 0.00154066293102)
(2.06688992828e-05 3.58653691938e-05 0.00158234469452)
(1.73545015379e-05 3.90654690638e-05 0.00161688431628)
(1.3512992721e-05 4.16793096775e-05 0.0016439617486)
(9.25429092196e-06 4.3610198056e-05 0.00166338950405)
(4.70385670293e-06 4.47948186294e-05 0.00167507515031)
(3.37180341076e-09 4.51943571323e-05 0.00167897730568)
(-4.6971468309e-06 4.47952060859e-05 0.00167507420568)
(-9.24768861275e-06 4.3610950905e-05 0.00166338756219)
(-1.35065924721e-05 4.16803832335e-05 0.00164395868747)
(-1.73484322663e-05 3.90668023247e-05 0.00161687998114)
(-2.06633420573e-05 3.58668907996e-05 0.00158233911352)
(-2.33622724633e-05 3.22449318774e-05 0.00154065805833)
(-2.57988194093e-05 2.81106002079e-05 0.00149211557371)
(2.88134416882e-05 3.11961503286e-05 0.00161956998816)
(2.60110278347e-05 3.55047263178e-05 0.00166758290641)
(2.29345674709e-05 3.91963699584e-05 0.00170826567087)
(1.91963897326e-05 4.24387331523e-05 0.00174164642816)
(1.49072733327e-05 4.50714796702e-05 0.00176759983832)
(1.01887178773e-05 4.7007756398e-05 0.00178610069002)
(5.17250210235e-06 4.81922548942e-05 0.0017971783716)
(3.72466774425e-09 4.85911724513e-05 0.00180086812801)
(-5.16509282377e-06 4.8192683175e-05 0.00179717730518)
(-1.01814344205e-05 4.7008592625e-05 0.00178609847201)
(-1.49002184996e-05 4.50726819945e-05 0.00176759627182)
(-1.91896940645e-05 4.24402410118e-05 0.00174164122623)
(-2.29284024924e-05 3.91981073205e-05 0.00170825868075)
(-2.60055604294e-05 3.55067347114e-05 0.00166757614858)
(-2.88091886005e-05 3.11983746453e-05 0.00161957055122)
(3.1214868057e-05 3.36181869627e-05 0.00173065560308)
(2.80751885932e-05 3.79433654095e-05 0.00177694364459)
(2.46676227987e-05 4.1555513886e-05 0.001815612801)
(2.05785202493e-05 4.47036411046e-05 0.00184700674194)
(1.59361079575e-05 4.7241792301e-05 0.00187119589169)
(1.08693770065e-05 4.90989994034e-05 0.00188831584337)
(5.51114511815e-06 5.02314720835e-05 0.00189851517211)
(4.05261654568e-09 5.06122775502e-05 0.00190190301133)
(-5.50308427231e-06 5.02319364314e-05 0.00189851410666)
(-1.08614543768e-05 4.90999102748e-05 0.00188831359771)
(-1.59284319648e-05 4.72431121765e-05 0.00187119219572)
(-2.0571222527e-05 4.47053116911e-05 0.00184700117077)
(-2.46608670635e-05 4.1557456834e-05 0.00181560501405)
(-2.8069143467e-05 3.79456133818e-05 0.00177693577871)
(-3.12100571311e-05 3.3620664225e-05 0.00173065493806)
(3.29719423157e-05 3.53470447664e-05 0.00182631264928)
(2.95338539622e-05 3.95357126616e-05 0.00186995488974)
(2.58503242275e-05 4.29321297296e-05 0.00190588011026)
(2.14910022686e-05 4.58628738428e-05 0.00193472357776)
(1.65955919983e-05 4.82061783119e-05 0.00195673065457)
(1.1295646128e-05 4.99110963978e-05 0.0019721832964)
(5.72011908568e-06 5.09471155569e-05 0.00198133799247)
(4.35855267916e-09 5.12949305299e-05 0.0019843697153)
(-5.71144888976e-06 5.09476069129e-05 0.00198133711592)
(-1.12871212318e-05 4.99120649087e-05 0.00197218141037)
(-1.65873238562e-05 4.82075925789e-05 0.00195672743173)
(-2.14831236821e-05 4.58646810599e-05 0.0019347184628)
(-2.58429939581e-05 4.29342528584e-05 0.00190587257002)
(-2.9527245663e-05 3.95381777863e-05 0.00186994722425)
(-3.29665813039e-05 3.5349754548e-05 0.00182631221177)
(3.40778757332e-05 3.63834986444e-05 0.00190764742785)
(3.03876283959e-05 4.02906192198e-05 0.00194800066907)
(2.64898192917e-05 4.33501026731e-05 0.0019807412134)
(2.19455535318e-05 4.59572249041e-05 0.00200672488449)
(1.68989333723e-05 4.8022167885e-05 0.0020263372298)
(1.14786420833e-05 4.95155181304e-05 0.00203998710628)
(5.80569939569e-06 5.04197397853e-05 0.00204802352301)
(4.64259159916e-09 5.07228201448e-05 0.00205067618426)
(-5.79646222318e-06 5.04202444639e-05 0.00204802309721)
(-1.14695533316e-05 4.95165172066e-05 0.00203998612702)
(-1.68901055995e-05 4.80236388603e-05 0.00202633534997)
(-2.19371201542e-05 4.59591239529e-05 0.00200672144505)
(-2.6481936567e-05 4.33523602284e-05 0.00198073547076)
(-3.03804786157e-05 4.02932583399e-05 0.00194799508643)
(-3.40719760449e-05 3.63864047397e-05 0.00190764934748)
(3.45437310054e-05 3.6741964952e-05 0.00197581279571)
(3.06574354266e-05 4.02337390207e-05 0.00201254495345)
(2.66150569567e-05 4.28540720221e-05 0.00204195379247)
(2.19730664728e-05 4.50514779098e-05 0.0020649947873)
(1.68740581127e-05 4.677459637e-05 0.0020821713824)
(1.14392335155e-05 4.80132580495e-05 0.00209400674149)
(5.77897460847e-06 4.87605693191e-05 0.00210092663264)
(4.9016405654e-09 4.90106513904e-05 0.00210320266259)
(-5.7692203397e-06 4.87610688295e-05 0.00210092699019)
(-1.14296288453e-05 4.80142517933e-05 0.00209400737375)
(-1.68647150596e-05 4.67760718584e-05 0.00208217199447)
(-2.19641184978e-05 4.50534057232e-05 0.00206499468539)
(-2.66066588493e-05 4.28563963968e-05 0.00204195198425)
(-3.06497802162e-05 4.02364880239e-05 0.00201254389245)
(-3.45373213854e-05 3.67450054464e-05 0.0019758196669)
(3.44101524003e-05 3.64442021987e-05 0.00203187390689)
(3.03981349144e-05 3.94458628322e-05 0.0020651098789)
(2.62869562365e-05 4.15273475177e-05 0.00209131914744)
(2.16268423992e-05 4.32457521596e-05 0.00211149605386)
(1.65638443077e-05 4.45797785544e-05 0.00212631479381)
(1.12072038209e-05 4.55328302955e-05 0.00213641179902)
(5.65515156366e-06 4.6105508743e-05 0.00214227145938)
(5.12945817586e-09 4.62967871037e-05 0.00214419175799)
(-5.64494253437e-06 4.61059822593e-05 0.00214227297002)
(-1.11971465233e-05 4.55337767995e-05 0.00213641483823)
(-1.65540494022e-05 4.45811961062e-05 0.00212631924182)
(-2.16174419641e-05 4.3247629316e-05 0.0021115013602)
(-2.62781021477e-05 4.152965349e-05 0.00209132410515)
(-3.03900283542e-05 3.94486378112e-05 0.00206511638188)
(-3.44032617291e-05 3.64473118759e-05 0.0020318883457)
(3.3717026584e-05 3.60093515617e-05 0.00207678889118)
(2.96890450259e-05 3.81353309621e-05 0.00210757091479)
(2.5565103002e-05 3.95382527585e-05 0.00213070747741)
(2.09564525259e-05 4.06872019281e-05 0.00214811702099)
(1.60075865038e-05 4.15643191835e-05 0.00216070323495)
(1.0809550487e-05 4.21846149272e-05 0.00216918671851)
(5.44796386156e-06 4.25546092718e-05 0.00217407584502)
(5.31908794812e-09 4.26777445284e-05 0.0021756729227)
(-5.43737791766e-06 4.25550271828e-05 0.00217407878068)
(-1.07991210937e-05 4.21854546568e-05 0.00216919275789)
(-1.5997423532e-05 4.15655884884e-05 0.00216071257562)
(-2.09466831609e-05 4.06889085676e-05 0.00214812959042)
(-2.55558709838e-05 3.95403928872e-05 0.00213072211469)
(-2.96805847519e-05 3.81379886554e-05 0.00210758990888)
(-3.37096604902e-05 3.60123647258e-05 0.00207681055404)
(-6.40176113371e-08 -1.27919677355e-07 9.2465151842e-05)
(-1.80555376159e-08 -1.8123802623e-07 9.70131481833e-05)
(1.31169888534e-08 -2.1300835845e-07 0.000101098794487)
(3.44478441905e-08 -2.30617616534e-07 0.00010462215105)
(4.17897371175e-08 -2.37354476227e-07 0.000107478178186)
(3.64212223805e-08 -2.38026532627e-07 0.000109581040534)
(2.10957900459e-08 -2.36616864349e-07 0.000110870003686)
(2.48422743727e-10 -2.35812977064e-07 0.000111307597521)
(-2.06082163747e-08 -2.36583071409e-07 0.000110870105323)
(-3.59601457773e-08 -2.37959184721e-07 0.000109581245302)
(-4.13645441004e-08 -2.37252655381e-07 0.000107478492891)
(-3.40425406205e-08 -2.30477326678e-07 0.000104622605602)
(-1.27471688014e-08 -2.12856249426e-07 0.000101099484427)
(1.83633017731e-08 -1.81069523733e-07 9.70143891943e-05)
(6.42355700452e-08 -1.27767574545e-07 9.24679757956e-05)
(4.39080389478e-08 -8.51291636802e-08 0.000276927611565)
(1.51860010929e-07 -1.63739334582e-07 0.000290307775379)
(2.17699027168e-07 -1.93517164893e-07 0.00030234830749)
(2.47882575456e-07 -1.90131412638e-07 0.00031272939156)
(2.34848627909e-07 -1.65521116436e-07 0.000321143848791)
(1.82523964578e-07 -1.34927868472e-07 0.000327340142922)
(9.99347803214e-08 -1.1089091781e-07 0.000331137465446)
(7.34525566923e-10 -1.01826434538e-07 0.000332423032248)
(-9.84878735412e-08 -1.10798803764e-07 0.000331137748149)
(-1.81140665071e-07 -1.34743784771e-07 0.000327340714505)
(-2.33554586536e-07 -1.65243903467e-07 0.000321144733924)
(-2.46664789676e-07 -1.89757514099e-07 0.000312730684453)
(-2.16591069648e-07 -1.93100673423e-07 0.000302350296174)
(-1.50929337909e-07 -1.63273195576e-07 0.000290311393267)
(-4.32438894299e-08 -8.46910649805e-08 0.000276935331982)
(4.12585854083e-07 2.77277449677e-07 0.000459031059623)
(5.54415280901e-07 2.53680670682e-07 0.000480908970251)
(6.24061562715e-07 2.95670490453e-07 0.000500589210801)
(6.27119390404e-07 3.80073055432e-07 0.000517544642204)
(5.54561783944e-07 4.83996820106e-07 0.000531279955233)
(4.1398375765e-07 5.80756893762e-07 0.000541390643254)
(2.21664496071e-07 6.48552817597e-07 0.000547583898517)
(1.19826260178e-09 6.72937183797e-07 0.000549677044987)
(-2.19298263786e-07 6.48688685675e-07 0.000547584312852)
(-4.11704903333e-07 5.81029211507e-07 0.000541391485294)
(-5.52411081815e-07 4.84408784422e-07 0.000531281270303)
(-6.25101750373e-07 3.80625428752e-07 0.000517546583894)
(-6.22230123675e-07 2.96302887459e-07 0.000500592222048)
(-5.5285783705e-07 2.54392350358e-07 0.000480914453122)
(-4.11458394543e-07 2.77982450659e-07 0.000459042596143)
(1.11162014483e-06 1.02776224184e-06 0.000637909607459)
(1.26172826622e-06 1.14561778703e-06 0.000667802224341)
(1.30137579729e-06 1.34013069138e-06 0.000694641569723)
(1.23460287707e-06 1.57599831274e-06 0.000717729785737)
(1.05229075298e-06 1.81664498851e-06 0.000736409381179)
(7.6738481739e-07 2.02193081806e-06 0.00075014641911)
(4.05332087488e-07 2.15942518126e-06 0.000758553953235)
(1.64172877603e-09 2.2078611323e-06 0.000761391564145)
(-4.02085023474e-07 2.15960479788e-06 0.000758554424293)
(-7.64243248658e-07 2.02229012892e-06 0.000750147383331)
(-1.04931055612e-06 1.81718578038e-06 0.000736410904658)
(-1.23181302053e-06 1.57671721028e-06 0.000717732068551)
(-1.29885049446e-06 1.34097020312e-06 0.000694645156724)
(-1.25956343103e-06 1.14657183904e-06 0.000667808822339)
(-1.11002240621e-06 1.0287402127e-06 0.000637923528138)
(2.10067178666e-06 2.11011508796e-06 0.000812410185373)
(2.23499343765e-06 2.4325264048e-06 0.000849635699065)
(2.21339528588e-06 2.83823869785e-06 0.000882945004041)
(2.03843724802e-06 3.27552102953e-06 0.000911526794057)
(1.70218452142e-06 3.69252660921e-06 0.000934602068744)
(1.22450219898e-06 4.03489949662e-06 0.000951543766076)
(6.41517110081e-07 4.259275717e-06 0.000961899418516)
(2.06685577946e-09 4.33748958814e-06 0.000965389977677)
(-6.37425032505e-07 4.25949918681e-06 0.000961899877976)
(-1.22053163673e-06 4.03534512426e-06 0.000951544714608)
(-1.69840580264e-06 3.69319271708e-06 0.000934603587079)
(-2.03490302809e-06 3.27640026514e-06 0.000911529106466)
(-2.21019966201e-06 2.83927855226e-06 0.00088294869783)
(-2.23223936117e-06 2.43372228026e-06 0.000849642674506)
(-2.09859560721e-06 2.11136008526e-06 0.000812425277302)
(3.32383052695e-06 3.4526172584e-06 0.000981186266781)
(3.41983011724e-06 4.01740890665e-06 0.00102484673884)