/*--------------------------------*- C++ -*----------------------------------*\
  =========                 |
  \\      /  F ield         | OpenFOAM: The Open Source CFD Toolbox
   \\    /   O peration     | Website:  https://openfoam.org
    \\  /    A nd           | Version:  7
     \\/     M anipulation  |
\*---------------------------------------------------------------------------*/
FoamFile
{
    version     2.0;
    format      ascii;
    class       volVectorField;
    location    "1.66";
    object      U;
}
// * * * * * * * * * * * * * * * * * * * * * * * * * * * * * * * * * * * * * //

dimensions      [0 1 -1 0 0 0 0];

internalField   nonuniform List<vector> 
22500
(
(1.48532635383e-05 1.65531216401e-05 0.000244305029066)
(1.39089082522e-05 1.86015827357e-05 0.000256625926165)
(1.22387596154e-05 2.07094550458e-05 0.00026791947531)
(1.03325906938e-05 2.25225269021e-05 0.000277684776278)
(8.05782101704e-06 2.40366526195e-05 0.00028559852617)
(5.52795700902e-06 2.51690687646e-05 0.000291418657542)
(2.8100389326e-06 2.58700235442e-05 0.000294980475073)
(-5.59990941539e-09 2.61074430328e-05 0.000296185457701)
(-2.8210216292e-06 2.58696037301e-05 0.000294980151875)
(-5.53833657647e-06 2.51683217435e-05 0.000291418021451)
(-8.06711222025e-06 2.4035837898e-05 0.000285597622708)
(-1.03403060471e-05 2.25218833974e-05 0.000277683705087)
(-1.22442188883e-05 2.07095542542e-05 0.000267918212169)
(-1.3911988807e-05 1.8602355245e-05 0.000256623283362)
(-1.4853873747e-05 1.65543550365e-05 0.000244293873037)
(4.3036200844e-05 4.80556525032e-05 0.00063236334687)
(4.01823688994e-05 5.38919223613e-05 0.000659396500453)
(3.54405745756e-05 5.98165657689e-05 0.000683931086457)
(2.98729632099e-05 6.49504987406e-05 0.000704953786274)
(2.32955505923e-05 6.92338539311e-05 0.000721850735842)
(1.59755848364e-05 7.24374673261e-05 0.000734197485246)
(8.11977166379e-06 7.44212800275e-05 0.000741719416512)
(-1.43518432207e-08 7.50931646754e-05 0.000744254976022)
(-8.14797100938e-06 7.44207445753e-05 0.000741718208354)
(-1.60023227745e-05 7.24366052051e-05 0.000734195152993)
(-2.33197222361e-05 6.92332013591e-05 0.000721847495277)
(-2.98933349798e-05 6.49505409397e-05 0.000704950028307)
(-3.54556495625e-05 5.98183292105e-05 0.000683926850325)
(-4.01917436186e-05 5.38950404358e-05 0.000659388465024)
(-4.30391613286e-05 4.80596638358e-05 0.000632335652918)
(6.43017303313e-05 7.17214469719e-05 0.000939811558996)
(5.97153107014e-05 7.99722302583e-05 0.000974955319213)
(5.25432040244e-05 8.82788517777e-05 0.00100656997749)
(4.41460859979e-05 9.54548837166e-05 0.00103345559299)
(3.43495599412e-05 0.000101417293728 0.00105491701785)
(2.35154180593e-05 0.000105864450833 0.00107051418727)
(1.19393668701e-05 0.000108613570887 0.00107997970199)
(-2.08732212123e-08 0.000109544027163 0.00108316127571)
(-1.19804536458e-05 0.000108613625595 0.00107997780603)
(-2.35545600275e-05 0.000105864806882 0.00107051057035)
(-3.43853176919e-05 0.000101418543464 0.00105491209666)
(-4.41768261796e-05 9.54575763335e-05 0.00103345006255)
(-5.25669279854e-05 8.82838559896e-05 0.00100656414268)
(-5.97313463249e-05 7.99787502364e-05 0.000974944858351)
(-6.43084529436e-05 7.17285930446e-05 0.000939774802736)
(8.02525088169e-05 8.93820761797e-05 0.0011843091349)
(7.41415250316e-05 9.90355136855e-05 0.00122311879268)
(6.50414349197e-05 0.00010871092445 0.00125771148391)
(5.44661620676e-05 0.000117018822451 0.00128690811413)
(4.22767971193e-05 0.0001238920133 0.00131005563253)
(2.88889087522e-05 0.000129001323928 0.00132678661481)
(1.46510120405e-05 0.00013215313523 0.00133690070104)
(-2.56549102417e-08 0.000133218824673 0.00134029130241)
(-1.47015547807e-05 0.000132153753834 0.00133689859744)
(-2.89371628622e-05 0.000129002812725 0.00132678268375)
(-4.23211012324e-05 0.000123894932186 0.00131005049734)
(-5.45046953395e-05 0.000117023708523 0.00128690277908)
(-6.50719898515e-05 0.000108718419378 0.0012577067008)
(-7.41633265643e-05 9.90445109173e-05 0.00122311033016)
(-8.02632844675e-05 8.9391542204e-05 0.00118427319721)
(9.20454263633e-05 0.000102388866421 0.00137876538599)
(8.46218295361e-05 0.000112703668785 0.00141821779459)
(7.399905667e-05 0.000123021511946 0.00145304289624)
(6.17672065752e-05 0.000131819750978 0.0014822038321)
(4.78286859224e-05 0.00013906595452 0.00150515930011)
(3.26233733583e-05 0.000144434024406 0.00152165652356)
(1.65265623871e-05 0.000147738140107 0.00153158848464)
(-2.90443413221e-08 0.000148854116789 0.00153490949459)
(-1.6583807809e-05 0.000147739167747 0.00153158662605)
(-3.26780928624e-05 0.000144436315499 0.00152165319254)
(-4.78790843629e-05 0.000139070001292 0.00150515533653)
(-6.18113969381e-05 0.000131826027584 0.00148220058921)
(-7.40348608312e-05 0.000123030520122 0.00145304174845)
(-8.46484543705e-05 0.000112714064915 0.00141821519694)
(-9.20602426295e-05 0.000102399730898 0.00137873744334)
(0.000100321137607 0.000111461467937 0.00153298767723)
(9.17931130839e-05 0.000121847848902 0.00157105136755)
(8.00013691774e-05 0.000132238034062 0.00160430845086)
(6.6562499408e-05 0.000141033446185 0.0016319244734)
(5.14179791246e-05 0.000148242762094 0.00165350129468)
(3.50084732191e-05 0.00015356491932 0.00166891311484)
(1.77153172691e-05 0.00015683331966 0.00167815109447)
(-3.13491010132e-08 0.000157936018324 0.00168123211502)
(-1.77771289659e-05 0.000156834596054 0.00167814982969)
(-3.50676221335e-05 0.000153567680558 0.00166891108938)
(-5.14726147636e-05 0.000148247420816 0.0016534995845)
(-6.6610750139e-05 0.000141040395622 0.00163192484395)
(-8.00412400326e-05 0.000132247652673 0.00160431304007)
(-9.18238749018e-05 0.000121858685815 0.00157105747592)
(-0.000100339826519 0.000111472796302 0.00153297158793)
(0.000105595321544 0.000117166051448 0.0016546523869)
(9.61657914546e-05 0.000127161122361 0.00169001560786)
(8.3520608022e-05 0.000137178621663 0.0017205883334)
(6.92654353954e-05 0.000145595161297 0.00174575523381)
(5.33767921725e-05 0.000152459083036 0.00176526413138)
(3.62770580209e-05 0.00015750867405 0.00177910846501)
(1.83371855854e-05 0.000160602570356 0.00178736822427)
(-3.28529709773e-08 0.000161645232745 0.00179011579274)
(-1.8401985153e-05 0.000160603900624 0.00178736778474)
(-3.63391397685e-05 0.000157511517699 0.00177910821556)
(-5.3434309729e-05 0.000152463769162 0.00176526541199)
(-6.9316591368e-05 0.000145602013578 0.00174576028885)
(-8.35636354186e-05 0.000137187918397 0.00172060014538)
(-9.6200102074e-05 0.000127171443704 0.00169003215874)
(-0.000105617653124 0.000117176911203 0.0016546498053)
(0.00010834814379 0.00012003581962 0.00174989960286)
(9.82115221738e-05 0.000129293969519 0.00178178390196)
(8.49925211767e-05 0.000138605032879 0.00180905960608)
(7.02558868648e-05 0.000146368585412 0.00183131632436)
(5.40091864741e-05 0.000152666539227 0.00184842982549)
(3.66416589247e-05 0.00015728421918 0.00186049178169)
(1.85013885449e-05 0.000160107166066 0.00186765282854)
(-3.37992817183e-08 0.000161057472666 0.00187002858817)
(-1.85680807324e-05 0.000160108348545 0.00186765332889)
(-3.67056455409e-05 0.000157286738644 0.00186049354421)
(-5.40686701895e-05 0.000152670659456 0.00184843448083)
(-7.03091753913e-05 0.000146374572839 0.00183132664698)
(-8.50380960545e-05 0.000138613114449 0.00180907942882)
(-9.82489141059e-05 0.000129302813549 0.00178181151722)
(-0.000108373850924 0.000120045309617 0.00174991055056)
(0.000109010112184 0.000120553460652 0.00182371575202)
(9.83482741861e-05 0.000128829118179 0.00185173981557)
(8.48009229244e-05 0.000137192701112 0.00187547583195)
(6.98668517527e-05 0.000144111853018 0.00189468262316)
(5.35805261805e-05 0.000149694386025 0.00190933223651)
(3.6287056263e-05 0.000153774889786 0.00191958607348)
(1.83026385577e-05 0.000156264338223 0.00192564288075)
(-3.44056756766e-08 0.000157101501443 0.00192764694657)
(-1.83705617113e-05 0.000156265174377 0.00192564432039)
(-3.63523381062e-05 0.000153776689425 0.0019195898469)
(-5.36414522172e-05 0.000149697368016 0.00190934027643)
(-6.99218469054e-05 0.000144116253123 0.00189469825159)
(-8.48486971045e-05 0.000137198736694 0.00187550366339)
(-9.8388425487e-05 0.000128835629184 0.0018517779577)
(-0.000109038921328 0.000120560736044 0.00182373885372)
(0.000107958265804 0.000119144663024 0.00188019215292)
(9.69368268867e-05 0.000126272842157 0.00190426855628)
(8.32744720825e-05 0.000133521137237 0.00192448865826)
(6.83823448837e-05 0.000139468515286 0.00194073045636)
(5.23161688958e-05 0.000144241423544 0.00195302402657)
(3.53694923539e-05 0.000147721197803 0.00196157007266)
(1.78207754637e-05 0.000149840557552 0.00196659260381)
(-3.4861399398e-08 0.000150552584784 0.00196825012292)
(-1.78896440233e-05 0.000149840878976 0.00196659485248)
(-3.54358282796e-05 0.000147721946976 0.00196157558039)
(-5.2378357101e-05 0.000144242786686 0.00195303500672)
(-6.84389316714e-05 0.000139470727948 0.00194075074681)
(-8.33243510533e-05 0.000133524445706 0.00192452352677)
(-9.69796041234e-05 0.000126276308821 0.00190431537019)
(-0.000107989987724 0.000119149001666 0.00188022458548)
(0.000105521515765 0.000116185249096 0.00192271172106)
(9.42863977213e-05 0.000122060917762 0.00194296906186)
(8.06928898136e-05 0.000128080875254 0.0019598817068)
(6.60434883598e-05 0.00013297779955 0.00197338858982)
(5.04064559483e-05 0.000136889561129 0.0019835409097)
(3.40201018559e-05 0.000139736835626 0.0019905523402)
(1.71224962016e-05 0.000141468943573 0.00199465277778)
(-3.53279392601e-08 0.000142050358719 0.00199600262319)
(-1.71923446096e-05 0.000141468631257 0.00199465553731)
(-3.40875623251e-05 0.000139736296921 0.00199055893902)
(-5.04700212766e-05 0.00013688896265 0.00198355376282)
(-6.61018085611e-05 0.000132977390055 0.00197341195579)
(-8.07449867438e-05 0.00012808096854 0.00195992134981)
(-9.4331814379e-05 0.000122060822335 0.0019430210616)
(-0.00010555608955 0.000116186132153 0.00192274885216)
(0.000101983862101 0.000112007763527 0.00195409907962)
(9.06608613132e-05 0.000116561575934 0.00197082806953)
(7.72957413652e-05 0.000121278810674 0.00198476106355)
(6.305629292e-05 0.000125085163446 0.00199583925879)
(4.80121769948e-05 0.00012811808267 0.00200411058059)
(3.23482333961e-05 0.000130325022435 0.00200978640832)
(1.6262933096e-05 0.000131666642471 0.00201308999589)
(-3.59321271553e-08 0.000132116553232 0.00201417490396)
(-1.63340497546e-05 0.000131665643233 0.00201309273929)
(-3.24171346897e-05 0.000130323098361 0.00200979294554)
(-4.80774618658e-05 0.000128115370538 0.00200412335355)
(-6.31166902479e-05 0.000125081928798 0.00199586275865)
(-7.73503287813e-05 0.000121275441527 0.00198480142756)
(-9.07090456546e-05 0.000116557630578 0.00197087972542)
(-0.000102021349776 0.000112004817196 0.00195413393789)
(9.75821342477e-05 0.00010688662351 0.00197676204683)
(8.62926831564e-05 0.000110066074028 0.00199038802437)
(7.32977594906e-05 0.000113443953659 0.00200173093767)
(5.96007865239e-05 0.000116156204156 0.00201069518076)
(4.52688945381e-05 0.00011832058464 0.0020173320982)
(3.04434526595e-05 0.000119896090355 0.00202185351252)
(1.52865178496e-05 0.000120852667893 0.00202447211904)
(-3.67620395407e-08 0.000121172864462 0.00202532985071)
(-1.53593545986e-05 0.000120851019812 0.00202447403272)
(-3.05142665129e-05 0.000119892847992 0.00202185818426)
(-4.53363879676e-05 0.00011831584938 0.00201734166377)
(-5.96637260069e-05 0.000116150227384 0.00201071398867)
(-7.33552083061e-05 0.000113437179131 0.00200176545579)
(-8.63438452315e-05 0.000110058285139 0.00199043136952)
(-9.76226494343e-05 0.000106879783447 0.00197678561361)
(9.25464673496e-05 0.000101019040639 0.001992850506)
(8.14368900659e-05 0.000102819589511 0.00200393680889)
(6.89095154887e-05 0.000104847000789 0.0020130660954)
(5.58310028893e-05 0.000106503904713 0.00202015915492)
(4.22832671752e-05 0.000107828860933 0.00202533441269)
(2.83729972104e-05 0.000108789680184 0.0020288243373)
(1.42259588271e-05 0.000109369942551 0.00203083308537)
(-3.78456566276e-08 0.000109563245655 0.00203148877836)
(-1.43010316527e-05 0.000109367776336 0.002030833087)
(-2.84462428286e-05 0.000108785375304 0.00202882471173)
(-4.23534854171e-05 0.000107822478981 0.00202533641931)
(-5.58969645022e-05 0.000106495632819 0.00202016616697)
(-6.89701873794e-05 0.000104837243679 0.00201308461549)
(-8.14912331965e-05 0.000102808339629 0.00200396061648)
(-9.2590248018e-05 0.000101008583948 0.00199285273237)
(8.71977681153e-05 9.48072118593e-05 0.0020045119078)
(7.64115188555e-05 9.46467941691e-05 0.00201377603815)
(6.42647702725e-05 9.55136618939e-05 0.00202085821515)
(5.18323491791e-05 9.62032149108e-05 0.00202615030763)
(3.9110409178e-05 9.67463717353e-05 0.00202990930258)
(2.61728011208e-05 9.71299179351e-05 0.00203240194985)
(1.30996113244e-05 9.73568658711e-05 0.0020338227135)
(-3.9153620234e-08 9.74312668062e-05 0.00203428372096)
(-1.31773587506e-05 9.73544304661e-05 0.00203381987294)
(-2.62488970533e-05 9.71250496175e-05 0.00203239589235)
(-3.91837491259e-05 9.67390856569e-05 0.00202989973669)
(-5.19017191731e-05 9.61935914637e-05 0.00202613814897)
(-6.43289619895e-05 9.55020058106e-05 0.0020208488941)
(-7.646892999e-05 9.46329589982e-05 0.00201375976066)
(-8.72452495851e-05 9.47940066408e-05 0.00200449390595)
(3.8263062031e-07 5.66921442711e-07 0.000172402521573)
(2.85369699369e-07 7.17490973725e-07 0.000181186785892)
(2.55807709154e-07 8.11541207408e-07 0.000189284218012)
(2.12416933965e-07 8.95245667974e-07 0.000196337437799)
(1.63381127729e-07 9.62951153803e-07 0.000202082870565)
(1.10893946905e-07 1.0122315745e-06 0.000206321961433)
(5.65101234818e-08 1.04204899291e-06 0.000208921919091)
(1.64750227902e-09 1.05209410999e-06 0.000209803631739)
(-5.34895432442e-08 1.04214251877e-06 0.000208922299326)
(-1.08713698783e-07 1.01231371992e-06 0.000206322623496)
(-1.62548232526e-07 9.62871855581e-07 0.000202083627057)
(-2.12936139178e-07 8.94925133479e-07 0.000196337988732)
(-2.57328326083e-07 8.10717988119e-07 0.000189284012942)
(-2.87461261153e-07 7.16334735934e-07 0.000181183817651)
(-3.84255767442e-07 5.65434524285e-07 0.00017238991834)
(3.17938306379e-06 3.7987243121e-06 0.000490803057992)
(2.85598084878e-06 4.58849488259e-06 0.000514330263689)
(2.60420364637e-06 5.28244754973e-06 0.000536005501497)
(2.24859374374e-06 5.91932761005e-06 0.000554865556282)
(1.79033473329e-06 6.4561496719e-06 0.000570209439308)
(1.24634442268e-06 6.86224219937e-06 0.000581519643514)
(6.40418172156e-07 7.11519660821e-06 0.000588450309473)
(2.7176386066e-09 7.20125893194e-06 0.000590794905152)
(-6.35600839356e-07 7.11524841912e-06 0.000588451358687)
(-1.24339013546e-06 6.86215645559e-06 0.000581521466805)
(-1.79030475678e-06 6.45565121575e-06 0.000570211507545)
(-2.25161194701e-06 5.91824147253e-06 0.000554867038594)
(-2.60937327635e-06 5.28026347166e-06 0.000536004816759)
(-2.86218952911e-06 4.58543231068e-06 0.000514321634158)
(-3.18409401827e-06 3.79480465371e-06 0.000490770091436)
(7.41630549951e-06 8.49721473694e-06 0.000783729511597)
(6.79740832575e-06 1.01109558121e-05 0.000819509530703)
(6.18899572312e-06 1.16101452228e-05 0.000852398661733)
(5.34322751103e-06 1.29870767914e-05 0.000880957839247)
(4.2555632222e-06 1.41508631496e-05 0.0009041463473)
(2.96286093677e-06 1.50331451263e-05 0.000921211387759)
(1.52107762293e-06 1.55836495478e-05 0.000931654556981)
(1.75544689959e-09 1.577092612e-05 0.000935180857723)
(-1.51832206087e-06 1.5583407867e-05 0.000931656190512)
(-2.96236037522e-06 1.50324870074e-05 0.000921214273862)
(-4.25855762141e-06 1.41495663848e-05 0.00090414975847)
(-5.34991763272e-06 1.29850231976e-05 0.000880960617428)
(-6.19823004358e-06 1.16068761707e-05 0.000852398510293)
(-6.80755012361e-06 1.01064241663e-05 0.000819498080044)
(-7.4239212814e-06 8.49144129596e-06 0.000783683120148)
(1.23653848069e-05 1.38717227782e-05 0.00105179296345)
(1.13795009811e-05 1.6338975718e-05 0.00109725264989)
(1.032703041e-05 1.86588350267e-05 0.00113887089664)
(8.88931267852e-06 2.07865683702e-05 0.00117489129839)
(7.06404312836e-06 2.25819483508e-05 0.00120404923989)
(4.9099797379e-06 2.3940968671e-05 0.00122545423565)
(2.51703265003e-06 2.47880998765e-05 0.00123852830463)
(-5.35035536081e-10 2.50759978287e-05 0.00124293520822)
(-2.51885740105e-06 2.47875464692e-05 0.001238530566)
(-4.91403270475e-06 2.39397224969e-05 0.00122545837576)
(-7.07150136589e-06 2.25798551572e-05 0.00120405452512)
(-8.90036545324e-06 2.07835485142e-05 0.00117489651846)
(-1.03404707103e-05 1.86545664624e-05 0.00113887347061)
(-1.13933988326e-05 1.63331415625e-05 0.0010972428245)
(-1.23758695417e-05 1.38643242662e-05 0.00105174265269)
(1.74879899192e-05 1.93437212572e-05 0.0012945397712)
(1.60803755606e-05 2.25984419674e-05 0.00134700294343)
(1.4538386193e-05 2.56449280982e-05 0.00139476405535)
(1.24680948619e-05 2.84321474003e-05 0.00143591855806)
(9.87912310367e-06 3.07765489939e-05 0.0014691002051)
(6.85179046439e-06 3.25463516156e-05 0.00149338009804)
(3.5069211053e-06 3.36475063322e-05 0.00150817429925)
(-3.62485346544e-09 3.40212502048e-05 0.00151315215038)
(-3.51483631684e-06 3.36466362382e-05 0.00150817728013)
(-6.86164656422e-06 3.25445120185e-05 0.0014933857788)
(-9.89189593355e-06 3.07736412816e-05 0.00146910804057)
(-1.24838887972e-05 2.84281337595e-05 0.00143592757243)
(-1.45560279639e-05 2.56396188038e-05 0.00139477184194)
(-1.60979219606e-05 2.25914241185e-05 0.00134699917206)
(-1.75013518849e-05 1.93348510488e-05 0.00129449351895)
(2.24283369001e-05 2.45477159228e-05 0.00151155288353)
(2.0563943312e-05 2.84678376421e-05 0.00156837591144)
(1.85162420129e-05 3.20881796842e-05 0.00161975056549)
(1.58150112434e-05 3.53892141515e-05 0.00166378381412)
(1.24900814396e-05 3.81540685746e-05 0.00169911951194)
(8.64162336422e-06 4.02340624253e-05 0.0017248763881)
(4.41563389759e-06 4.15251342839e-05 0.00174052637937)
(-7.09958309146e-09 4.19626787426e-05 0.0017457825872)
(-4.43035831893e-06 4.15239298111e-05 0.00174053017583)
(-8.65785992925e-06 4.02315973747e-05 0.00172488388676)
(-1.25085383073e-05 3.81502990934e-05 0.00169913051899)
(-1.58356827344e-05 3.53841604424e-05 0.00166379784332)
(-1.85380120955e-05 3.20817720609e-05 0.00161976577893)
(-2.05850499433e-05 2.84596429326e-05 0.00156838182063)
(-2.24446425291e-05 2.45375036125e-05 0.00151151618223)
(2.69321331748e-05 2.92324173787e-05 0.00170288921456)
(2.45965533923e-05 3.36605764766e-05 0.00176161501257)
(2.20503374951e-05 3.76719217539e-05 0.00181429385446)
(1.87522128722e-05 4.13137372245e-05 0.00185917733406)
(1.47575076628e-05 4.4348177724e-05 0.00189500742894)
(1.01836374522e-05 4.66215989455e-05 0.00192101345159)
(5.19447899374e-06 4.80287505612e-05 0.00193676587859)
(-1.06644350331e-08 4.85048272869e-05 0.00194204664704)
(-5.21617424151e-06 4.80272036385e-05 0.00193677052928)
(-1.02063704284e-05 4.66184866709e-05 0.00192102290438)
(-1.47817069252e-05 4.43435108771e-05 0.00189502196048)
(-1.87777513707e-05 4.1307594095e-05 0.00185919714757)
(-2.20761795089e-05 3.76643659671e-05 0.00181431796577)
(-2.46211407396e-05 3.36511526495e-05 0.00176163288708)
(-2.69514791673e-05 2.9220964818e-05 0.00170286525299)
(3.08233268856e-05 3.32300274982e-05 0.00186919366033)
(2.80222704603e-05 3.79899167696e-05 0.00192767280264)
(2.50044643829e-05 4.22010120147e-05 0.00197968594926)
(2.11683763041e-05 4.60034513096e-05 0.00202372467337)
(1.65967958537e-05 4.9152176541e-05 0.00205868633028)
(1.14210867873e-05 5.14999886953e-05 0.00208394720553)
(5.81508051014e-06 5.29485014889e-05 0.00209919808736)
(-1.41382455347e-08 5.34376516132e-05 0.00210430108922)
(-5.84356868655e-06 5.29466121483e-05 0.00209920349688)
(-1.14501539948e-05 5.14962214485e-05 0.00208395845109)
(-1.66266101909e-05 4.91465922585e-05 0.00205870422873)
(-2.11986874349e-05 4.59961861345e-05 0.00202375024958)
(-2.50343281068e-05 4.21922518189e-05 0.00197971924355)
(-2.80503133296e-05 3.79792232023e-05 0.00192770312634)
(-3.0845758687e-05 3.32173229312e-05 0.00186918323473)
(3.39933854466e-05 3.64427795113e-05 0.0020116574212)
(3.07505027585e-05 4.13528216149e-05 0.00206812310612)
(2.73038787333e-05 4.5579819147e-05 0.00211790628888)
(2.30066324962e-05 4.93703320584e-05 0.00215979038919)
(1.79678050282e-05 5.24863983805e-05 0.0021928535951)
(1.23287476311e-05 5.47971950448e-05 0.00221663112723)
(6.26538770569e-06 5.62177330314e-05 0.00223093780407)
(-1.74235043436e-08 5.66964503776e-05 0.00223571577766)
(-6.30031019705e-06 5.62155155947e-05 0.00223094366005)
(-1.23638471022e-05 5.47927926502e-05 0.00221664353808)
(-1.80030241545e-05 5.24799057293e-05 0.00219287393355)
(-2.30416043528e-05 4.93619360734e-05 0.00215982056366)
(-2.73377262455e-05 4.55697997358e-05 0.00211794743735)
(-3.07820092294e-05 4.13407979021e-05 0.00206816414136)
(-3.40189349818e-05 3.64287646457e-05 0.00201165869438)
(3.6389832362e-05 3.88296961775e-05 0.00213191059591)
(3.27434088189e-05 4.37131750103e-05 0.00218501203628)
(2.8922594302e-05 4.77893869969e-05 0.00223142629417)
(2.4252594636e-05 5.1412256444e-05 0.002270235267)
(1.88646995052e-05 5.43650713444e-05 0.00230069594757)
(1.2905525429e-05 5.65412876207e-05 0.00232249681746)
(6.54578569421e-06 5.78738038913e-05 0.00233556846289)
(-2.04795280837e-08 5.83218591182e-05 0.00233992550874)
(-6.58670887839e-06 5.78712928143e-05 0.0023355741486)
(-1.29462986457e-05 5.65363083742e-05 0.00232250911955)
(-1.89050804948e-05 5.43577323317e-05 0.0023007167478)
(-2.42921098318e-05 5.14027753008e-05 0.00227026734982)
(-2.89604038014e-05 4.77781064343e-05 0.00223147190629)
(-3.27783888165e-05 4.36997792559e-05 0.00218505938555)
(-3.64185347033e-05 3.88143144507e-05 0.00213191871522)
(3.80045613626e-05 4.03940597237e-05 0.00223190011841)
(3.40037589298e-05 4.50854399338e-05 0.00228070773036)
(2.98717032342e-05 4.88653709604e-05 0.00232302592298)
(2.49237956396e-05 5.21861689538e-05 0.00235819706613)
(1.93072184805e-05 5.48657174488e-05 0.00238563768381)
(1.31681841274e-05 5.68270426585e-05 0.00240517725599)
(6.66581604476e-06 5.80229238093e-05 0.00241684995713)
(-2.32919922601e-08 5.84240851966e-05 0.00242073265627)
(-6.71227946004e-06 5.80201846619e-05 0.00241685446601)
(-1.32142507812e-05 5.6821603536e-05 0.00240518734654)
(-1.93525049131e-05 5.48576773578e-05 0.00238565561922)
(-2.49677316536e-05 5.21757414692e-05 0.00235822642816)
(-2.99134523133e-05 4.88529211454e-05 0.00232307007494)
(-3.40422219186e-05 4.50706988344e-05 0.00228075389849)
(-3.80364322038e-05 4.03772954149e-05 0.00223190669747)
(3.88609400093e-05 4.11703165575e-05 0.00231378254168)
(3.45629351704e-05 4.55173392994e-05 0.00235778471042)
(3.01894020789e-05 4.88761543352e-05 0.00239565823322)
(2.506161907e-05 5.17834922457e-05 0.00242692768864)
(1.93342637274e-05 5.41027693274e-05 0.00245115324715)
(1.31467580834e-05 5.57881994113e-05 0.00246830189195)
(6.64176977237e-06 5.68114775244e-05 0.0024785036652)
(-2.58502526866e-08 5.71538996921e-05 0.00248188895763)
(-6.69328939538e-06 5.68086105708e-05 0.00247850554007)
(-1.31977053128e-05 5.57824901844e-05 0.00246830669877)
(-1.93841543285e-05 5.40942787986e-05 0.00245116338251)
(-2.51098041289e-05 5.17723953154e-05 0.00242694735073)
(-3.02350252098e-05 4.88627846547e-05 0.00239569199784)
(-3.46048608482e-05 4.55014504252e-05 0.00235781882863)
(-3.88959960383e-05 4.11523081171e-05 0.00231377528038)
(3.89990555779e-05 4.12048908738e-05 0.00237984938274)
(3.4471857345e-05 4.50682772004e-05 0.00241897194321)
(2.99366451227e-05 4.79026379251e-05 0.00245238178238)
(2.47284147116e-05 5.03099997382e-05 0.00247969593919)
(1.90012287219e-05 5.22078169036e-05 0.00250064867512)
(1.28823331305e-05 5.35775532506e-05 0.00251536663734)
(6.49542291873e-06 5.44057804372e-05 0.00252407730203)
(-2.81321667982e-08 5.46822494226e-05 0.00252695896353)
(-6.55146180225e-06 5.44029180084e-05 0.00252407465568)
(-1.29376783873e-05 5.35718269776e-05 0.00251536213601)
(-1.905532788e-05 5.21992372212e-05 0.00250064440466)
(-2.47805576415e-05 5.02986553648e-05 0.00247969629486)
(-2.9985945172e-05 4.78887781443e-05 0.00245239277672)
(-3.45171029687e-05 4.50516216716e-05 0.00241897986555)
(-3.90372019451e-05 4.11859920638e-05 0.00237981326067)
(3.84850736766e-05 4.0545043361e-05 0.00243249628125)
(3.38165073713e-05 4.38483196108e-05 0.00246720984818)
(2.92109084883e-05 4.60554249467e-05 0.00249636322401)
(2.4013144818e-05 4.78972851275e-05 0.00251973892655)
(1.83814522691e-05 4.93338756295e-05 0.0025373945976)
(1.24266673486e-05 5.03644222623e-05 0.00254966411538)
(6.25346165907e-06 5.09850482231e-05 0.00255687665462)
(-3.00989951125e-08 5.11916289708e-05 0.00255925275021)
(-6.31339954983e-06 5.09823385901e-05 0.00255686738)
(-1.24858107342e-05 5.03589749708e-05 0.00254964574918)
(-1.84392082379e-05 4.93256403851e-05 0.0025373681786)
(-2.40687693307e-05 4.78862399716e-05 0.00251970800065)
(-2.92634952294e-05 4.60416608478e-05 0.00249633504698)
(-3.38647626763e-05 4.38314593604e-05 0.00246717394191)
(-3.85261754236e-05 4.05256606532e-05 0.00243241614179)
(3.73762709961e-05 3.97984362964e-05 0.00247440808153)
(3.27166525022e-05 4.21005369382e-05 0.00250601046534)
(2.81153191111e-05 4.35318830715e-05 0.00253089754979)
(2.30044127972e-05 4.47232995811e-05 0.00255020611882)
(1.75457828093e-05 4.56377093453e-05 0.00256447187551)
(1.1828750268e-05 4.62879194371e-05 0.00257424567159)
(5.94092979944e-06 4.66767995396e-05 0.00257994048294)
(-3.17011359332e-08 4.68055614731e-05 0.00258180562168)
(-6.00403540958e-06 4.66744360157e-05 0.00257992304839)
(-1.18909637939e-05 4.62831490833e-05 0.00257421007878)
(-1.76064719025e-05 4.56304257696e-05 0.00256441728026)
(-2.30628285842e-05 4.47133750965e-05 0.00255013327428)
(-2.81705950208e-05 4.35192300162e-05 0.00253081344979)
(-3.27672446652e-05 4.2084483356e-05 0.00250590249352)
(-3.74202811219e-05 3.97797392246e-05 0.00247428579854)
(-7.62696292838e-08 -1.77373111801e-07 0.00012512067122)
(4.38201668883e-09 -2.60407263654e-07 0.00013158525225)
(6.32716478179e-08 -3.0744180837e-07 0.00013759958832)
(9.9835233544e-08 -3.27539405409e-07 0.000142898575294)
(1.07740725914e-07 -3.2896714516e-07 0.000147252044971)
(8.85072456303e-08 -3.21240585587e-07 0.000150484199478)
(4.87280893286e-08 -3.12862917735e-07 0.000152474520327)
(-2.16412489322e-09 -3.09509595243e-07 0.000153150745532)
(-5.29096725831e-08 -3.13199955278e-07 0.000152473765176)
(-9.22811275192e-08 -3.2190784775e-07 0.000150482697953)
(-1.11025717096e-07 -3.29985656467e-07 0.000147249766703)
(-1.02967235902e-07 -3.28975518698e-07 0.000142895310995)
(-6.62758613627e-08 -3.0901880488e-07 0.000137594705839)
(-7.03842625346e-09 -2.62196407103e-07 0.000131577033024)
(7.42453046032e-08 -1.78959898422e-07 0.000125103761389)
(4.79183736799e-08 -1.68240376723e-07 0.000370247632057)
(2.42839350776e-07 -3.08482422296e-07 0.000388840997106)
(3.80038879781e-07 -3.62579738742e-07 0.000406181011169)
(4.47863426091e-07 -3.50820004209e-07 0.000421472067078)
(4.31978753738e-07 -2.98944824216e-07 0.000434044682608)
(3.37023126308e-07 -2.35906021481e-07 0.00044338553195)
(1.81887415061e-07 -1.86941743396e-07 0.000449138748663)
(-5.82791002366e-09 -1.68903716458e-07 0.000451089212271)
(-1.93238378604e-07 -1.87867573284e-07 0.000449136726395)
(-3.47535949029e-07 -2.37763533878e-07 0.000443381486372)
(-4.41484915531e-07 -3.01783748211e-07 0.000434038462419)
(-4.56886308251e-07 -3.5472325298e-07 0.000421462981879)
(-3.88691365273e-07 -3.66981886252e-07 0.000406167154296)
(-2.50570903754e-07 -3.13455302662e-07 0.000388817237085)
(-5.38429326047e-08 -1.72848781448e-07 0.000370201146469)
(4.80274515436e-07 2.30053623589e-07 0.000607833136783)
(7.46058184062e-07 1.39815691277e-07 0.000637676568433)
(9.1843871826e-07 1.71184887851e-07 0.000665512859916)
(9.723283181e-07 2.9219733273e-07 0.000690059212568)
(8.87552081778e-07 4.57799926578e-07 0.000710241529922)
(6.72632159912e-07 6.19060378203e-07 0.000725236290084)
(3.5863364205e-07 7.34180925859e-07 0.000734470075758)
(-8.96811231408e-09 7.75420032202e-07 0.000737596394098)
(-3.7620768418e-07 7.32802421823e-07 0.000734467155828)
(-6.89213959554e-07 6.16261411513e-07 0.000725230404637)
(-9.02911550703e-07 4.53471897322e-07 0.000710232360206)
(-9.86931603449e-07 2.86274600175e-07 0.0006900456081)
(-9.32361738135e-07 1.64332708913e-07 0.000665491876805)
(-7.58641639054e-07 1.32147079459e-07 0.000637640394687)
(-4.90003615976e-07 2.2259995477e-07 0.000607763141349)
(1.31301856174e-06 1.1058829549e-06 0.000836958444193)
(1.61104794248e-06 1.17902553073e-06 0.000876995132244)
(1.77198469451e-06 1.40032212042e-06 0.000914285466145)
(1.75757373972e-06 1.7200644291e-06 0.000947138012175)
(1.54368998946e-06 2.07088800438e-06 0.000974128734839)
(1.14441438274e-06 2.38216087914e-06 0.000994169475233)
(6.04352953815e-07 2.59471156134e-06 0.00100650320269)
(-1.17562130194e-08 2.66961277557e-06 0.0010106745328)
(-6.27503094481e-07 2.59293146143e-06 0.00100649981592)
(-1.1665714195e-06 2.37854153155e-06 0.000994162594387)
(-1.56457423052e-06 2.06530874344e-06 0.000974117869112)
(-1.77747905403e-06 1.71249006088e-06 0.000947121655924)
(-1.79084682831e-06 1.39138462053e-06 0.000914259993839)
(-1.62819238775e-06 1.16895629516e-06 0.000876950908109)
(-1.32646958294e-06 1.09572904666e-06 0.000836872878017)
(2.49074552733e-06 2.38144210542e-06 0.00105626258335)
(2.78461491317e-06 2.69842635646e-06 0.00110518711609)
(2.89045622009e-06 3.18194308334e-06 0.00115062085955)
(2.7586385162e-06 3.75990898716e-06 0.00119057010597)
(2.3632890975e-06 4.34129041966e-06 0.00122333762868)
(1.72573179562e-06 4.83403472487e-06 0.00124763570088)
(9.05018391549e-07 5.1623872143e-06 0.00126257380369)
(-1.43952366162e-08 5.27698010973e-06 0.00126762054196)
(-9.33465363573e-07 5.16024727163e-06 0.00126257029745)
(-1.75323004257e-06 4.82969733038e-06 0.00124762853288)
(-2.38950917723e-06 4.33465287248e-06 0.0012233261917)
(-2.78367317542e-06 3.7509597595e-06 0.00119055271509)
(-2.91405839593e-06 3.17123528165e-06 0.00115059360013)
(-2.80607334145e-06 2.6861908473e-06 0.00110513913733)
(-2.50787013764e-06 2.36884593985e-06 0.00105616826088)
(3.93556617856e-06 3.95744994281e-06 0.00126413265606)
(4.1908224002e-06 4.56372735376e-06 0.00132038509678)
(4.20213737696e-06 5.34561401746e-06 0.00137239494011)