/*--------------------------------*- C++ -*----------------------------------*\
  =========                 |
  \\      /  F ield         | OpenFOAM: The Open Source CFD Toolbox
   \\    /   O peration     | Website:  https://openfoam.org
    \\  /    A nd           | Version:  7
     \\/     M anipulation  |
\*---------------------------------------------------------------------------*/
FoamFile
{
    version     2.0;
    format      ascii;
    class       volScalarField;
    location    "1.6";
    object      p;
}
// * * * * * * * * * * * * * * * * * * * * * * * * * * * * * * * * * * * * * //

dimensions      [0 2 -2 0 0 0 0];

internalField   nonuniform List<scalar> 
22500
(
2.27731588129e-05
2.27670623779e-05
2.27657978936e-05
2.27637210002e-05
2.27622837103e-05
2.27611692102e-05
2.27604839209e-05
2.27602338359e-05
2.27604618964e-05
2.27611258801e-05
2.27622200991e-05
2.27636394372e-05
2.27657011577e-05
2.27669578582e-05
2.27730469205e-05
2.26835526383e-05
2.26728160627e-05
2.26676390723e-05
2.26621408906e-05
2.26579376973e-05
2.26547909376e-05
2.26528656783e-05
2.26522010169e-05
2.26528433008e-05
2.2654746865e-05
2.26578730774e-05
2.26620579567e-05
2.26675409708e-05
2.26727098338e-05
2.26834383473e-05
2.25957899342e-05
2.25806316024e-05
2.25720598936e-05
2.25634971168e-05
2.25568588465e-05
2.25519241087e-05
2.25489114273e-05
2.25478832555e-05
2.25488897893e-05
2.25518814874e-05
2.25567964488e-05
2.25634170539e-05
2.25719652478e-05
2.25805287605e-05
2.25956776748e-05
2.25171828426e-05
2.24983235655e-05
2.24871254833e-05
2.24762204023e-05
2.24677340531e-05
2.24614547181e-05
2.24576277823e-05
2.24563282986e-05
2.24576072497e-05
2.24614142692e-05
2.24676749107e-05
2.24761446032e-05
2.248703581e-05
2.24982259171e-05
2.25170747162e-05
2.24435863593e-05
2.2421513776e-05
2.24081397984e-05
2.23953630259e-05
2.23853991206e-05
2.23780568139e-05
2.23735888747e-05
2.23720767713e-05
2.2373569473e-05
2.23780186097e-05
2.23853432961e-05
2.23952915409e-05
2.24080552075e-05
2.24214215655e-05
2.24434833056e-05
2.23741742456e-05
2.23493773915e-05
2.23342080596e-05
2.23199598941e-05
2.23088296359e-05
2.23006581383e-05
2.22956915443e-05
2.22940145954e-05
2.22956733065e-05
2.23006222127e-05
2.23087771666e-05
2.23198927161e-05
2.23341286317e-05
2.23492905198e-05
2.23740762119e-05
2.23093135814e-05
2.22823064752e-05
2.22656891549e-05
2.22503334963e-05
2.22383168632e-05
2.22295234981e-05
2.22241837206e-05
2.22223837582e-05
2.22241665975e-05
2.22294897674e-05
2.22382676037e-05
2.22502704211e-05
2.22656146031e-05
2.22822247236e-05
2.23092201774e-05
2.22489912121e-05
2.22202564006e-05
2.22024776747e-05
2.21863207265e-05
2.2173651056e-05
2.21644063347e-05
2.21587964133e-05
2.21569077215e-05
2.2158780336e-05
2.21643746689e-05
2.21736047892e-05
2.21862614615e-05
2.22024076327e-05
2.222017926e-05
2.22489019039e-05
2.2192932973e-05
2.21629110982e-05
2.21442096066e-05
2.2127508485e-05
2.21143817236e-05
2.21048268392e-05
2.2099032162e-05
2.20970831318e-05
2.20990170349e-05
2.21047970353e-05
2.21143381575e-05
2.21274526082e-05
2.21441435619e-05
2.21628379066e-05
2.21928470941e-05
2.21408328974e-05
2.21099338155e-05
2.20905282673e-05
2.20735097987e-05
2.20601004828e-05
2.20503592454e-05
2.20444549319e-05
2.20424705551e-05
2.20444406403e-05
2.20503310739e-05
2.20600592621e-05
2.20734568581e-05
2.20904656216e-05
2.21098638518e-05
2.21407496277e-05
2.20924048587e-05
2.20610217072e-05
2.20411366354e-05
2.2024010466e-05
2.20104808437e-05
2.20006668212e-05
2.19947220606e-05
2.19927254643e-05
2.19947084806e-05
2.20006400352e-05
2.2010441593e-05
2.20239599409e-05
2.20410767361e-05
2.20609541852e-05
2.2092323293e-05
2.204736779e-05
2.2015920812e-05
2.19958148444e-05
2.19787763557e-05
2.1965275517e-05
2.19554926656e-05
2.1949571609e-05
2.19475843498e-05
2.194955862e-05
2.19554669903e-05
2.19652378181e-05
2.1978727679e-05
2.19957569486e-05
2.20158548503e-05
2.20472870808e-05
2.20053675786e-05
2.19744495482e-05
2.19544457721e-05
2.19376618853e-05
2.19243166613e-05
2.19146579141e-05
2.19088198113e-05
2.19068623637e-05
2.19088072593e-05
2.19146331013e-05
2.19242800684e-05
2.19376144144e-05
2.19543890049e-05
2.19743841299e-05
2.20052866238e-05
2.19661961129e-05
2.1936525216e-05
2.19168944354e-05
2.19004921637e-05
2.18874267996e-05
2.18780020781e-05
2.18723208032e-05
2.18704185799e-05
2.18723085874e-05
2.18779778423e-05
2.18873908482e-05
2.1900445135e-05
2.19168377708e-05
2.19364590915e-05
2.19661140715e-05
2.19315411795e-05
2.19015107245e-05
2.18825502308e-05
2.18666021715e-05
2.18540289246e-05
2.18450362073e-05
2.18396402403e-05
2.18378373892e-05
2.18396282297e-05
2.18450123145e-05
2.18539932393e-05
2.18665549461e-05
2.18824922452e-05
2.19014421649e-05
2.19314586466e-05
1.23915461588e-05
1.2394550237e-05
1.23969363309e-05
1.23992517742e-05
1.2401290629e-05
1.2402869109e-05
1.24038757317e-05
1.24042238509e-05
1.24038858972e-05
1.24028883781e-05
1.24013167021e-05
1.23992821722e-05
1.23969702232e-05
1.23945874383e-05
1.23915858039e-05
1.24029380124e-05
1.24064890396e-05
1.240940014e-05
1.24121919818e-05
1.24146394495e-05
1.24165283379e-05
1.24177302231e-05
1.2418145463e-05
1.24177401984e-05
1.24165471929e-05
1.24146648875e-05
1.24122213888e-05
1.24094324213e-05
1.24065248787e-05
1.24029765039e-05
1.24188000324e-05
1.24236886744e-05
1.24277192954e-05
1.24315533584e-05
1.24348899683e-05
1.24374530447e-05
1.24390771646e-05
1.24396363584e-05
1.24390870909e-05
1.24374719076e-05
1.24349157149e-05
1.24315835581e-05
1.24277524803e-05
1.24237257532e-05
1.24188393643e-05
1.244020904e-05
1.2447330606e-05
1.24531309839e-05
1.24585788504e-05
1.24632737572e-05
1.24668582396e-05
1.24691173111e-05
1.24698919754e-05
1.24691271513e-05
1.24668770629e-05
1.24632997913e-05
1.24586099122e-05
1.24531653262e-05
1.24473689375e-05
1.24402491842e-05
1.2467739285e-05
1.24777628779e-05
1.24857588899e-05
1.2493166846e-05
1.2499484866e-05
1.25042768313e-05
1.25072804478e-05
1.25083067451e-05
1.25072901302e-05
1.25042954098e-05
1.24995107869e-05
1.24931981246e-05
1.24857937386e-05
1.24778017178e-05
1.24677796314e-05
1.25005686776e-05
1.25138500268e-05
1.25241999177e-05
1.25336645586e-05
1.25416568631e-05
1.2547679545e-05
1.25514352444e-05
1.25527145229e-05
1.25514445899e-05
1.25476975356e-05
1.25416821503e-05
1.25336953543e-05
1.25242344613e-05
1.25138886491e-05
1.25006082008e-05
1.25373515886e-05
1.25539555364e-05
1.25666006527e-05
1.25780216591e-05
1.25875777109e-05
1.25947346757e-05
1.25991765582e-05
1.26006854493e-05
1.25991854473e-05
1.25947518351e-05
1.25876019489e-05
1.25780513796e-05
1.25666341406e-05
1.25539931635e-05
1.25373895851e-05
1.25767072469e-05
1.25964592281e-05
1.26111872278e-05
1.26243294573e-05
1.26352332886e-05
1.26433528605e-05
1.26483700614e-05
1.26500702504e-05
1.2648378385e-05
1.26433689612e-05
1.26352561277e-05
1.26243576188e-05
1.26112191314e-05
1.25964951385e-05
1.25767432566e-05
1.26173904391e-05
1.26399389972e-05
1.26564430279e-05
1.26709938582e-05
1.2682973783e-05
1.26918470449e-05
1.26973075765e-05
1.26991539166e-05
1.26973152808e-05
1.26918619643e-05
1.26829950099e-05
1.26710201162e-05
1.26564729164e-05
1.26399727111e-05
1.26174239006e-05
1.26583509799e-05
1.26832286718e-05
1.27011535154e-05
1.27167686584e-05
1.27295350268e-05
1.27389436239e-05
1.2744711376e-05
1.27466575854e-05
1.27447184344e-05
1.27389573056e-05
1.27295545347e-05
1.27167928642e-05
1.27011811799e-05
1.26832599302e-05
1.26583816664e-05
1.26987471753e-05
1.27254187774e-05
1.27443918427e-05
1.2760728362e-05
1.27739986955e-05
1.27837322915e-05
1.27896772313e-05
1.27916792803e-05
1.27896836715e-05
1.27837447888e-05
1.27740165358e-05
1.27607505192e-05
1.27444172411e-05
1.27254475076e-05
1.26987748852e-05
1.27379119189e-05
1.27658123547e-05
1.27854700794e-05
1.28022135093e-05
1.28157299203e-05
1.28255964679e-05
1.2831600194e-05
1.28336179846e-05
1.2831606099e-05
1.28256079151e-05
1.28157462943e-05
1.28022338398e-05
1.27854934133e-05
1.27658386676e-05
1.27379368183e-05
1.2775298843e-05
1.28039008718e-05
1.28239228209e-05
1.28407999438e-05
1.28543305188e-05
1.28641544222e-05
1.28701083397e-05
1.28721052525e-05
1.28701138059e-05
1.2864165088e-05
1.28543457521e-05
1.28408188751e-05
1.2823944499e-05
1.28039251659e-05
1.27753212423e-05
1.28108139842e-05
1.2839716908e-05
1.28596976379e-05
1.28763956268e-05
1.28896598292e-05
1.28992288654e-05
1.29050040598e-05
1.29069367618e-05
1.29050092351e-05
1.2899238956e-05
1.28896743071e-05
1.28764135721e-05
1.2859718231e-05
1.28397395842e-05
1.28108343929e-05
1.28462659112e-05
1.28733472593e-05
1.28927248655e-05
1.29088757805e-05
1.29215130745e-05
1.29305613576e-05
1.29359993872e-05
1.29378156334e-05
1.29360042885e-05
1.29305710188e-05
1.29215270098e-05
1.29088932014e-05
1.28927447131e-05
1.28733687923e-05
1.28462855476e-05
1.41520688072e-05
1.41514367097e-05
1.41502809722e-05
1.41489889739e-05
1.4147743506e-05
1.41467355705e-05
1.41460807487e-05
1.41458530648e-05
1.41460798218e-05
1.41467341403e-05
1.41477423294e-05
1.41489884734e-05
1.41502782914e-05
1.41514334985e-05
1.41520626123e-05
1.41536885842e-05
1.41531335207e-05
1.41520509196e-05
1.41508268137e-05
1.41496316178e-05
1.41486572208e-05
1.41480209024e-05
1.41477989455e-05
1.41480197448e-05
1.41486552986e-05
1.41496296823e-05
1.41508252394e-05
1.41520474537e-05
1.4153129016e-05
1.41536815305e-05
1.41557353554e-05
1.41552868694e-05
1.41542919198e-05
1.41531548565e-05
1.41520257047e-05
1.41510983861e-05
1.41504897088e-05
1.41502769067e-05
1.41504887185e-05
1.41510967391e-05
1.41520240255e-05
1.41531534244e-05
1.41542889662e-05
1.41552827195e-05
1.41557286388e-05
1.41572114984e-05
1.41568575656e-05
1.41559280399e-05
1.41548685697e-05
1.41538028953e-05
1.41529241798e-05
1.41523458158e-05
1.41521434266e-05
1.41523450916e-05
1.41529229875e-05
1.4153801674e-05
1.41548675193e-05
1.41559257979e-05
1.41568542836e-05
1.41572051286e-05
1.41583702457e-05
1.41581582822e-05
1.41573252937e-05
1.41563840804e-05
1.41554222957e-05
1.41546257954e-05
1.41541000388e-05
1.41539158053e-05
1.41540995134e-05
1.41546249608e-05
1.41554214747e-05
1.41563833949e-05
1.41573235927e-05
1.41581557708e-05
1.41583642611e-05
1.4159595043e-05
1.41596158733e-05
1.4158944434e-05
1.41581901902e-05
1.41573944082e-05
1.4156728648e-05
1.41562865039e-05
1.41561310612e-05
1.41562861507e-05
1.41567281085e-05
1.41573939011e-05
1.41581897808e-05
1.41589431961e-05
1.41596138261e-05
1.41595895363e-05
1.41611292034e-05
1.41614828724e-05
1.41610428551e-05
1.41605423085e-05
1.41599708589e-05
1.41594799161e-05
1.41591489477e-05
1.41590316615e-05
1.41591487107e-05
1.41594795776e-05
1.41599705628e-05
1.41605420693e-05
1.41610419215e-05
1.41614811595e-05
1.41611239573e-05
1.41631070246e-05
1.4163879187e-05
1.41637281029e-05
1.4163529672e-05
1.41632236562e-05
1.41629373467e-05
1.41627357303e-05
1.41626627022e-05
1.41627355535e-05
1.41629371004e-05
1.41632234168e-05
1.41635294114e-05
1.41637272191e-05
1.416387757e-05
1.416310176e-05
1.41655815109e-05
1.41668273886e-05
1.41670019372e-05
1.41671290525e-05
1.41671074806e-05
1.41670383548e-05
1.4166973221e-05
1.41669467648e-05
1.41669730502e-05
1.41670380933e-05
1.41671071651e-05
1.4167128608e-05
1.41670008646e-05
1.41668256046e-05
1.41655760377e-05
1.41685407479e-05
1.4170276361e-05
1.41707896312e-05
1.4171240743e-05
1.41715011391e-05
1.41716455433e-05
1.4171713911e-05
1.41717329051e-05
1.4171713691e-05
1.41716451662e-05
1.41715006002e-05
1.41712399368e-05
1.41707881424e-05
1.41702741289e-05
1.41685348381e-05
1.41719255785e-05
1.41741254984e-05
1.41749679763e-05
1.41757211173e-05
1.41762436817e-05
1.41765853653e-05
1.41767765047e-05
1.41768372408e-05
1.41767762019e-05
1.41765848099e-05
1.41762428441e-05
1.41757198496e-05
1.41749659488e-05
1.41741226661e-05
1.41719190588e-05
1.4175637849e-05
1.41782405983e-05
1.41793861418e-05
1.41804071625e-05
1.41811611956e-05
1.41816761129e-05
1.41819747113e-05
1.41820719014e-05
1.41819743135e-05
1.41816753451e-05
1.41811600131e-05
1.41804054046e-05
1.41793835218e-05
1.41782371352e-05
1.41756307528e-05
1.41795428564e-05
1.41824760112e-05
1.41838931716e-05
1.41851413379e-05
1.41860890968e-05
1.4186748747e-05
1.41871369591e-05
1.41872646487e-05
1.41871364589e-05
1.41867477788e-05
1.41860876106e-05
1.41851391269e-05
1.41838900198e-05
1.41824719346e-05
1.41795351689e-05
1.41836311065e-05
1.41868279811e-05
1.41884239277e-05
1.41898268287e-05
1.41909054572e-05
1.41916650155e-05
1.41921163032e-05
1.41922654732e-05
1.41921157033e-05
1.41916638898e-05
1.41909036887e-05
1.41898242585e-05
1.41884203537e-05
1.41868233648e-05
1.41836230144e-05
1.41886446638e-05
1.41911914051e-05
1.41928043967e-05
1.41942652248e-05
1.41953932601e-05
1.41961971783e-05
1.41966783591e-05
1.41968380514e-05
1.41966776585e-05
1.41961958302e-05
1.41953912373e-05
1.4194262312e-05
1.41928003815e-05
1.41911861669e-05
1.41886364185e-05
1.10396116727e-05
1.10401436426e-05
1.1040851134e-05
1.10415890459e-05
1.10422644392e-05
1.10428022006e-05
1.10431481058e-05
1.10432689571e-05
1.10431522089e-05
1.10428096445e-05
1.10422735547e-05
1.1041597204e-05
1.10408568437e-05
1.10401451874e-05
1.103961286e-05
1.10403343094e-05
1.104088403e-05
1.10416144444e-05
1.10423758893e-05
1.10430757923e-05
1.10436347782e-05
1.10439951376e-05
1.10441212188e-05
1.10439993886e-05
1.10436424804e-05
1.10430851887e-05
1.10423842521e-05
1.10416198733e-05
1.10408854371e-05
1.1040334463e-05
1.10408573467e-05
1.10414112428e-05
1.10421507723e-05
1.10429206623e-05
1.10436319525e-05
1.1044201744e-05
1.10445697645e-05
1.10446985651e-05
1.10445737755e-05
1.10442090155e-05
1.10436408496e-05
1.1042928763e-05
1.10421560487e-05
1.10414131841e-05
1.10408574983e-05
1.10413407145e-05
1.10419015117e-05
1.10426526568e-05
1.10434285857e-05
1.10441473844e-05
1.10447242741e-05
1.10450972795e-05
1.10452277747e-05
1.10451009341e-05
1.10447308967e-05
1.10441555005e-05
1.10434360915e-05
1.10426576778e-05
1.10419036286e-05
1.10413409454e-05
1.10418371134e-05
1.10424088013e-05
1.10431769981e-05
1.10439607131e-05
1.10446874389e-05
1.10452714177e-05
1.10456492152e-05
1.10457813184e-05
1.10456525209e-05
1.10452774025e-05
1.10446948116e-05
1.1043967594e-05
1.10431817767e-05
1.10424109351e-05
1.10418374093e-05
1.10423524382e-05
1.10429434126e-05
1.10437384274e-05
1.10445370102e-05
1.10452773085e-05
1.1045872416e-05
1.10462574576e-05
1.10463919444e-05
1.10462603571e-05
1.10458776631e-05
1.10452837728e-05
1.10445430909e-05
1.10437426887e-05
1.10429455773e-05
1.104235244e-05
1.10429122095e-05
1.10435401287e-05
1.10443764878e-05
1.1045202711e-05
1.10459668267e-05
1.10465804972e-05
1.10469772682e-05
1.10471156227e-05
1.10469797529e-05
1.10465849986e-05
1.10459723773e-05
1.10452079791e-05
1.104438018e-05
1.10435422257e-05
1.10429119972e-05
1.10435550451e-05
1.10442447709e-05
1.1045138975e-05
1.10460075607e-05
1.10468065453e-05
1.10474463638e-05
1.10478592217e-05
1.10480028518e-05
1.10478612749e-05
1.10474500802e-05
1.104681114e-05
1.10460119505e-05
1.10451421147e-05
1.10442466747e-05
1.10435547668e-05
1.10443145341e-05
1.10450927439e-05
1.1046058751e-05
1.10469811136e-05
1.1047822448e-05
1.10484927783e-05
1.10489239016e-05
1.10490734483e-05
1.10489255549e-05
1.10484957694e-05
1.10478261614e-05
1.10469846829e-05
1.10460613621e-05
1.10450944463e-05
1.1044314081e-05
1.1045210049e-05
1.10461002948e-05
1.10471455942e-05
1.10481262416e-05
1.1049010895e-05
1.10497107575e-05
1.10501588671e-05
1.10503137729e-05
1.10501601566e-05
1.10497130962e-05
1.10490138056e-05
1.10481290793e-05
1.10471477318e-05
1.10461018344e-05
1.10452094397e-05
1.10462458434e-05
1.10472641349e-05
1.10483877905e-05
1.10494228648e-05
1.10503443446e-05
1.10510670261e-05
1.10515271891e-05
1.10516856907e-05
1.10515281835e-05
1.10510688295e-05
1.10503466059e-05
1.10494250771e-05
1.1048389506e-05
1.10472654529e-05
1.10462449723e-05
1.10474071641e-05
1.10485615568e-05
1.10497560978e-05
1.10508349914e-05
1.10517809048e-05
1.1052515126e-05
1.10529796554e-05
1.1053139011e-05
1.10529804309e-05
1.10525165362e-05
1.10517826697e-05
1.1050836745e-05
1.10497574729e-05
1.10485626304e-05
1.10474059677e-05
1.10486591376e-05
1.10499589886e-05
1.10512156135e-05
1.10523228603e-05
1.10532766339e-05
1.10540083772e-05
1.1054467828e-05
1.1054624854e-05
1.10544684599e-05
1.10540095191e-05
1.10532781053e-05
1.10523242995e-05
1.10512167611e-05
1.10499598285e-05
1.10486576267e-05
1.105005969e-05
1.1051517527e-05
1.10527849352e-05
1.10538799933e-05
1.1054807686e-05
1.1055511349e-05
1.10559500322e-05
1.10560992634e-05
1.10559505692e-05
1.10555123841e-05
1.10548089819e-05
1.10538813054e-05
1.10527859716e-05
1.10515181494e-05
1.10500577823e-05
1.10522974481e-05
1.10534184486e-05
1.10545309681e-05
1.10554997503e-05
1.10563167913e-05
1.10569331159e-05
1.10573155372e-05
1.10574453615e-05
1.1057316049e-05
1.10569340749e-05
1.10563180766e-05
1.10555010557e-05
1.10545319906e-05
1.10534189169e-05
1.10522956336e-05
1.01673548777e-05
1.01671891403e-05
1.01669767258e-05
1.01667110061e-05
1.01664581747e-05
1.0166248846e-05
1.01661107189e-05
1.01660610845e-05
1.01661068474e-05
1.0166241913e-05
1.01664496507e-05
1.01667010353e-05
1.01669637987e-05
1.01671753686e-05
1.01673371255e-05
1.01679031675e-05
1.01677589543e-05
1.0167564779e-05
1.01673138778e-05
1.01670720351e-05
1.01668697474e-05
1.01667354811e-05
1.01666870411e-05
1.01667315297e-05
1.01668626294e-05
1.01670631659e-05
1.01673035683e-05
1.01675516615e-05
1.01677443845e-05
1.01678849378e-05
1.01685348477e-05
1.01684099075e-05
1.0168236373e-05
1.01679997345e-05
1.01677684166e-05
1.0167572625e-05
1.01674419626e-05
1.01673947117e-05
1.01674381172e-05
1.01675656225e-05
1.01677595137e-05
1.01679893492e-05
1.01682235979e-05
1.01683955118e-05
1.0168517123e-05
1.01690086709e-05
1.01688865732e-05
1.01687225557e-05
1.01684889876e-05
1.01682592736e-05
1.01680634612e-05
1.01679325045e-05
1.016788518e-05
1.01679288321e-05
1.01680566884e-05
1.0168250443e-05
1.01684786666e-05
1.01687102179e-05
1.01688727791e-05
1.01689914777e-05
1.01693449033e-05
1.01692162643e-05
1.01690555731e-05
1.016881928e-05
1.0168587083e-05
1.01683887446e-05
1.01682560796e-05
1.01682082322e-05
1.01682525903e-05
1.01683822576e-05
1.01685784978e-05
1.0168809206e-05
1.01690436978e-05
1.01692031803e-05
1.01693282804e-05
1.01695892694e-05
1.01694530559e-05
1.0169295789e-05
1.01690577128e-05
1.01688247452e-05
1.01686258427e-05
1.01684929472e-05
1.01684451339e-05
1.01684896731e-05
1.01686197098e-05
1.01688165064e-05
1.01690479983e-05
1.01692844628e-05
1.01694404802e-05
1.01695734346e-05
1.01697765831e-05
1.01696384149e-05
1.01694910246e-05
1.01692582309e-05
1.01690314962e-05
1.01688381529e-05
1.01687091134e-05
1.01686627754e-05
1.01687060688e-05
1.01688324199e-05
1.01690237107e-05
1.01692489831e-05
1.01694803206e-05
1.01696264155e-05
1.01697614255e-05
1.01699412548e-05
1.01698138374e-05
1.01696881229e-05
1.01694728951e-05
1.01692637374e-05
1.01690853181e-05
1.01689662517e-05
1.01689235177e-05
1.0168963445e-05
1.01690800025e-05
1.01692564291e-05
1.01694641121e-05
1.0169677949e-05
1.01698023587e-05
1.01699265854e-05
1.01701189938e-05
1.01700208501e-05
1.01699319958e-05
1.01697498698e-05
1.01695720743e-05
1.01694196181e-05
1.01693175952e-05
1.01692808988e-05
1.01693150182e-05
1.0169414706e-05
1.01695652477e-05
1.01697415533e-05
1.01699222869e-05
1.01700098205e-05
1.01701047727e-05
1.0170342933e-05
1.01702955731e-05
1.01702592604e-05
1.0170126077e-05
1.01699932285e-05
1.01698773384e-05
1.01697990773e-05
1.01697706948e-05
1.01697967027e-05
1.01698727875e-05
1.01699868169e-05
1.01701181427e-05
1.01702498925e-05
1.01702848298e-05
1.01703290679e-05
1.0170638914e-05
1.01706630907e-05
1.01706924389e-05
1.01706214242e-05
1.01705445545e-05
1.01704737044e-05
1.0170424457e-05
1.01704061768e-05
1.01704222563e-05
1.01704694552e-05
1.01705385065e-05
1.01706138047e-05
1.01706833516e-05
1.01706525612e-05
1.01706253353e-05
1.01710189758e-05
1.0171132017e-05
1.01712359063e-05
1.01712360817e-05
1.01712226314e-05
1.01712023234e-05
1.01711855308e-05
1.01711784473e-05
1.0171183468e-05
1.01711983204e-05
1.01712168423e-05
1.01712287155e-05
1.01712270204e-05
1.01711217024e-05
1.01710057292e-05
1.0171480368e-05
1.0171696499e-05
1.0171878997e-05
1.01719540318e-05
1.01720072526e-05
1.01720401507e-05
1.01720572661e-05
1.01720619673e-05
1.01720553113e-05
1.01720362985e-05
1.01720016984e-05
1.01719468143e-05
1.01718702795e-05
1.01716863408e-05
1.01714674296e-05
1.01720751607e-05
1.01724018315e-05
1.01726334191e-05
1.01727672615e-05
1.01728770763e-05
1.01729560298e-05
1.01730030176e-05
1.01730179242e-05
1.01730011105e-05
1.01729523424e-05
1.01728716171e-05
1.01727602154e-05
1.01726247946e-05
1.01723918022e-05
1.01720625756e-05
1.01732016812e-05
1.01733328833e-05
1.01735115036e-05
1.0173643541e-05
1.01737673419e-05
1.01738623988e-05
1.01739209386e-05
1.01739401057e-05
1.01739190894e-05
1.01738587415e-05
1.01737620022e-05
1.0173636511e-05
1.01735029053e-05
1.01733227194e-05
1.01731893581e-05
8.53192361954e-06
8.53203381572e-06
8.53217928574e-06
8.53232478756e-06
8.53245775566e-06
8.53256251575e-06
8.53263029443e-06
8.53265495329e-06
8.53263417879e-06
8.5325696382e-06
8.53246683375e-06
8.53233415005e-06
8.53218777441e-06
8.53203966665e-06
8.53192974945e-06
8.53231399251e-06
8.53243751023e-06
8.53259726372e-06
8.53275541691e-06
8.53290003496e-06
8.53301413473e-06
8.53308801958e-06
8.53311486373e-06
8.53309207831e-06
8.53302157362e-06
8.53290948577e-06
8.53276509039e-06
8.53260576605e-06
8.53244349716e-06
8.53231935925e-06
8.53268491199e-06
8.53281999448e-06
8.53299288385e-06
8.53316149471e-06
8.53331594964e-06
8.53343763874e-06
8.5335163595e-06
8.5335447845e-06
8.53352017791e-06
8.53344463931e-06
8.53332486849e-06
8.53317076659e-06
8.53300107797e-06
8.53282635762e-06
8.53269022073e-06
8.53301250586e-06
8.5331583638e-06
8.53334349914e-06
8.5335208894e-06
8.53368334645e-06
8.53381108933e-06
8.53389359416e-06
8.53392319378e-06
8.53389707737e-06
8.53381748079e-06
8.53369151138e-06
8.53352946573e-06
8.53335123529e-06
8.53316465621e-06
8.53301786137e-06
8.53332028377e-06
8.53347704711e-06
8.53367481282e-06
8.53386051225e-06
8.53403030321e-06
8.53416353904e-06
8.53424941231e-06
8.53428005423e-06
8.53425257793e-06
8.5341693521e-06
8.53403777722e-06
8.53386843482e-06
8.53368216748e-06
8.53348316373e-06
8.53332562158e-06
8.5336174823e-06
8.53378566716e-06
8.53399725833e-06
8.53419123015e-06
8.53436824136e-06
8.53450681863e-06
8.53459595024e-06
8.53462758183e-06
8.53459878859e-06
8.5345120411e-06
8.5343749825e-06
8.53419842863e-06
8.53400402055e-06
8.53379163553e-06
8.53362245459e-06
8.53390810324e-06
8.53408987367e-06
8.53431672799e-06
8.53451980439e-06
8.53470462359e-06
8.53484897443e-06
8.53494161151e-06
8.53497431667e-06
8.5349441255e-06
8.53485361901e-06
8.53471065705e-06
8.53452632729e-06
8.5343229282e-06
8.5340956427e-06
8.5339127901e-06
8.53419827132e-06
8.53439743914e-06
8.53464171783e-06
8.53485568746e-06
8.53504960797e-06
8.53520074635e-06
8.53529750202e-06
8.53533149875e-06
8.53529970236e-06
8.53520482592e-06
8.53505495034e-06
8.53486153589e-06
8.53464739887e-06
8.53440291091e-06
8.53420283041e-06
8.53449607214e-06
8.53471764181e-06
8.53498225572e-06
8.53520955603e-06
8.53541441712e-06
8.53557376358e-06
8.53567550825e-06
8.53571110189e-06
8.53567742515e-06
8.53557733279e-06
8.53541914753e-06
8.53521481896e-06
8.53498750786e-06
8.53472287291e-06
8.53450041337e-06
8.53480994941e-06
8.53506029964e-06
8.53534826194e-06
8.53559135119e-06
8.53580892938e-06
8.53597778161e-06
8.5360853166e-06
8.53612277305e-06
8.53608697984e-06
8.53598090469e-06
8.53581310971e-06
8.53559610622e-06
8.53535314735e-06
8.53506534332e-06
8.53481412851e-06
8.53514847346e-06
8.53543439604e-06
8.53574778701e-06
8.53600826871e-06
8.53623949049e-06
8.53641851942e-06
8.53653218429e-06
8.53657164019e-06
8.53653364455e-06
8.53642127384e-06
8.53624323798e-06
8.53601259923e-06
8.53575236918e-06
8.53543923289e-06
8.53515240243e-06
8.53551635563e-06
8.53584454217e-06
8.53618420985e-06
8.53646246712e-06
8.53670731746e-06
8.53689628995e-06
8.53701592863e-06
8.53705728533e-06
8.53701722771e-06
8.53689877472e-06
8.53671070204e-06
8.53646648104e-06
8.5361885311e-06
8.53584915056e-06
8.53551997552e-06
8.53591408688e-06
8.53629150918e-06
8.5366569961e-06
8.53695187505e-06
8.53720920494e-06
8.53740732456e-06
8.53753217418e-06
8.53757527027e-06
8.53753337116e-06
8.53740957012e-06
8.53721237628e-06
8.53695560409e-06
8.53666111226e-06
8.53629587482e-06
8.53591739813e-06
8.53639412136e-06
8.53682595695e-06
8.53719291732e-06
8.53748945133e-06
8.5377488778e-06
8.53794816386e-06
8.53807347779e-06
8.53811651365e-06
8.53807456943e-06
8.53795031802e-06
8.53775182634e-06
8.53749304819e-06
8.53719683116e-06
8.53683006011e-06
8.53639698114e-06
8.53731766044e-06
8.53758229348e-06
8.5378580017e-06
8.5380967182e-06
8.53831350613e-06
8.53848140331e-06
8.53858695567e-06
8.53862328728e-06
8.5385880209e-06
8.53848343474e-06
8.5383163966e-06
8.53810017388e-06
8.53786180366e-06
8.53758611335e-06
8.53732041138e-06
7.28042298561e-06
7.2804210069e-06
7.28042070873e-06
7.28040481417e-06
7.28038560335e-06
7.28036648394e-06
7.28035278726e-06
7.28034725781e-06
7.28035111744e-06
7.2803633882e-06
7.28038151868e-06
7.28040070175e-06
7.28041743197e-06
7.28041932858e-06
7.28041817042e-06
7.28073290538e-06
7.28074230632e-06
7.28075211049e-06
7.28074498654e-06
7.28073293122e-06
7.28071902749e-06
7.28070845278e-06
7.28070395259e-06
7.28070672921e-06
7.28071582362e-06
7.28072873285e-06
7.28074075561e-06
7.28074875695e-06
7.28074022049e-06
7.2807279908e-06
7.28104824634e-06
7.28106661562e-06
7.28108521066e-06
7.28108472732e-06
7.28107819829e-06
7.28106825937e-06
7.28106006636e-06
7.28105637324e-06
7.2810583934e-06
7.28106517434e-06
7.28107420887e-06
7.28108072454e-06
7.28108208033e-06
7.28106434346e-06
7.28104354809e-06
7.28129774086e-06
7.281319223e-06
7.28134295657e-06
7.28134482931e-06
7.28134037465e-06
7.2813318208e-06
7.28132441853e-06
7.28132101456e-06
7.28132285686e-06
7.28132898019e-06
7.28133678844e-06
7.28134130787e-06
7.28134019999e-06
7.2813171948e-06
7.28129322005e-06
7.28149779581e-06
7.28151926005e-06
7.28154616935e-06
7.28154818935e-06
7.28154398949e-06
7.28153548847e-06
7.28152808331e-06
7.28152472015e-06
7.28152667794e-06
7.28153296041e-06
7.28154086332e-06
7.28154520207e-06
7.28154383062e-06
7.28151762284e-06
7.28149357953e-06
7.28166350139e-06
7.28168430254e-06
7.28171371621e-06
7.28171536279e-06
7.28171104879e-06
7.28170243292e-06
7.28169496614e-06
7.28169164802e-06
7.28169376135e-06
7.28170029562e-06
7.28170847901e-06
7.28171300353e-06
7.28171189826e-06
7.28168292731e-06
7.28165980862e-06
7.28180440051e-06
7.28182525424e-06
7.2818581104e-06
7.28186032582e-06
7.28185674086e-06
7.28184878373e-06
7.28184179462e-06
7.28183872779e-06
7.28184081056e-06
7.28184706495e-06
7.28185473282e-06
7.28185856711e-06
7.28185682823e-06
7.28182417336e-06
7.28180112139e-06
7.28192966725e-06
7.28195321486e-06
7.28199180597e-06
7.28199676229e-06
7.2819958743e-06
7.28199024131e-06
7.28198483855e-06
7.28198241366e-06
7.28198408065e-06
7.28198894388e-06
7.28199440926e-06
7.2819955401e-06
7.28199093542e-06
7.28195236607e-06
7.28192658814e-06
7.28204896522e-06
7.28207979992e-06
7.282127445e-06
7.28213838868e-06
7.28214305604e-06
7.28214207437e-06
7.28213977401e-06
7.2821385081e-06
7.28213921899e-06
7.28214114293e-06
7.28214203989e-06
7.28213758145e-06
7.28212684829e-06
7.28207907637e-06
7.2820460301e-06
7.28217218554e-06
7.28221628062e-06
7.28227680029e-06
7.28229746623e-06
7.28231093512e-06
7.2823172511e-06
7.28231976041e-06
7.28232023794e-06
7.28231936863e-06
7.28231660514e-06
7.28231024881e-06
7.28229691011e-06
7.28227630115e-06
7.28221549796e-06
7.28216926789e-06
7.28230837316e-06
7.28237233796e-06
7.28244940234e-06
7.28248334979e-06
7.28250876532e-06
7.28252492364e-06
7.28253388492e-06
7.28253665161e-06
7.28253359779e-06
7.28252445822e-06
7.28250825672e-06
7.28248288319e-06
7.28244886339e-06
7.28237139122e-06
7.28230539454e-06
7.28246317878e-06
7.28255379157e-06
7.28265047495e-06
7.28270073804e-06
7.28274090685e-06
7.28276922999e-06
7.28278612456e-06
7.28279166924e-06
7.2827858866e-06
7.28276881721e-06
7.2827404305e-06
7.28270019837e-06
7.28264974806e-06
7.28255263075e-06
7.282460141e-06
7.28263895787e-06
7.28276281656e-06
7.28288109931e-06
7.28294972209e-06
7.2830071262e-06
7.28304971552e-06
7.28307591806e-06
7.28308468122e-06
7.28307565461e-06
7.28304926915e-06
7.28300652633e-06
7.28294897481e-06
7.28288008526e-06
7.28276135364e-06
7.28263582415e-06
7.28287567482e-06
7.2830373977e-06
7.28316112875e-06
7.28324016257e-06
7.28331046555e-06
7.28336454501e-06
7.28339831543e-06
7.28340969054e-06
7.28339798315e-06
7.28336394076e-06
7.28330963472e-06
7.28323906563e-06
7.28315970101e-06
7.28303552119e-06
7.28287239885e-06
7.28343950629e-06
7.28347713362e-06
7.283539053e-06
7.28358699562e-06
7.28363999662e-06
7.28368333755e-06
7.28371101165e-06
7.28372034902e-06
7.28371055405e-06
7.28368248106e-06
7.28363878195e-06
7.28358539107e-06
7.28353703125e-06
7.28347459804e-06
7.28343590137e-06
6.03173896226e-06
6.03175340815e-06
6.0317760977e-06
6.03179479068e-06
6.03181190674e-06
6.03182489098e-06
6.03183332807e-06
6.03183694809e-06
6.03183575462e-06
6.03182965092e-06
6.03181876515e-06
6.03180289133e-06
6.03178420575e-06
6.03175946199e-06
6.03174398332e-06
6.03197132648e-06
6.03199407443e-06
6.03202548068e-06
6.03205147779e-06
6.03207489687e-06
6.03209266566e-06
6.0321041107e-06
6.03210878946e-06
6.03210662758e-06
6.03209759723e-06
6.03208198859e-06
6.03205985738e-06
6.03203381089e-06
6.03200053887e-06
6.0319759009e-06
6.03222073629e-06
6.03225210416e-06
6.03229299424e-06
6.03232598832e-06
6.03235540924e-06
6.03237753255e-06
6.03239168513e-06
6.03239725791e-06
6.03239413289e-06
6.03238231553e-06
6.03236223746e-06
6.03233409173e-06
6.03230105588e-06
6.03225882338e-06
6.03222535645e-06
6.03243106584e-06
6.03246840238e-06
6.03251646076e-06
6.03255417685e-06
6.03258751324e-06
6.03261238605e-06
6.03262821435e-06
6.03263431484e-06
6.03263054826e-06
6.03261693362e-06
6.03259397093e-06
6.03256188397e-06
6.03252429342e-06
6.03247520141e-06
6.03243602088e-06
6.03261219654e-06
6.03265371614e-06
6.03270775313e-06