/*--------------------------------*- C++ -*----------------------------------*\
  =========                 |
  \\      /  F ield         | OpenFOAM: The Open Source CFD Toolbox
   \\    /   O peration     | Website:  https://openfoam.org
    \\  /    A nd           | Version:  7
     \\/     M anipulation  |
\*---------------------------------------------------------------------------*/
FoamFile
{
    version     2.0;
    format      ascii;
    class       surfaceScalarField;
    location    "1.6";
    object      phi;
}
// * * * * * * * * * * * * * * * * * * * * * * * * * * * * * * * * * * * * * //

dimensions      [0 3 -1 0 0 0 0];

internalField   nonuniform List<scalar> 
65775
(
4.45157581889e-11
7.28260906243e-09
1.42872810676e-09
1.70446348196e-13
6.24562323891e-11
7.61180998921e-09
1.57975333442e-09
7.27874691709e-11
7.88422594601e-09
1.72280235849e-09
7.07446068967e-11
8.11951275053e-09
1.85101369944e-09
5.87928738805e-11
8.30574457524e-09
1.95806923206e-09
3.87750696165e-11
8.44154788201e-09
2.03875409344e-09
1.36540164457e-11
8.5268224868e-09
2.08965724485e-09
-1.32861397572e-11
8.55931891163e-09
2.10795163665e-09
-3.84244994267e-11
8.52675899928e-09
2.08965764982e-09
-5.84750072343e-11
8.44142442971e-09
2.0387550691e-09
-7.04772736169e-11
8.3055627787e-09
1.95807098046e-09
-7.25851897389e-11
8.11928589477e-09
1.85101603119e-09
-6.23331044441e-11
7.88396728331e-09
1.72280513929e-09
-4.44489830405e-11
7.61156875683e-09
1.57976133439e-09
7.28245327872e-09
1.4287713017e-09
1.83937328385e-13
1.12784436142e-10
1.20760751879e-08
3.43538172415e-09
3.75858600952e-13
1.80840988058e-10
1.25604369733e-08
3.77711536863e-09
2.11698311453e-10
1.29552672885e-08
4.09721325003e-09
2.07790764017e-10
1.32891562116e-08
4.38159521749e-09
1.73044350986e-10
1.35511216372e-08
4.61733541396e-09
1.14222772527e-10
1.37404551478e-08
4.79405751394e-09
4.00945909701e-11
1.38592358929e-08
4.90521480318e-09
-3.92513494673e-11
1.39050355167e-08
4.94515970964e-09
-1.13418240015e-10
1.3859092907e-08
4.90521718511e-09
-1.72314873161e-10
1.37401756668e-08
4.79406242459e-09
-2.07174055201e-10
1.35507123916e-08
4.61734298703e-09
-2.11228472387e-10
1.32886404366e-08
4.38160444443e-09
-1.80538065353e-10
1.29546797606e-08
4.09722327283e-09
-1.12615160564e-10
1.25598639156e-08
3.77713891074e-09
1.20756466673e-08
3.43548185274e-09
4.19239161778e-13
1.65738937145e-10
1.50025228391e-08
4.83508394015e-09
5.09906823872e-13
2.73769479624e-10
1.55275511259e-08
5.30268766515e-09
3.20176453249e-10
1.59525272203e-08
5.73692282884e-09
3.13868348108e-10
1.63012226738e-08
6.12016482512e-09
2.60866940552e-10
1.65718532135e-08
6.43612046358e-09
1.71920748307e-10
1.67652177438e-08
6.67200104014e-09
6.0252895984e-11
1.68864348723e-08
6.81995747356e-09
-5.90866427435e-11
1.6933931789e-08
6.87304872932e-09
-1.70807919119e-10
1.68862388542e-08
6.81996048869e-09
-2.59858671467e-10
1.67648346063e-08
6.67200727166e-09
-3.13015125912e-10
1.65712943717e-08
6.4361297354e-09
-3.19523618288e-10
1.63005162437e-08
6.12017527577e-09
-2.73337770456e-10
1.59517217409e-08
5.73693236096e-09
-1.65493759727e-10
1.55267458825e-08
5.3027115004e-09
1.50018732464e-08
4.83520475597e-09
5.8140925887e-13
2.0800622347e-10
1.65145336696e-08
5.79295916212e-09
5.8613602356e-13
3.45755905378e-10
1.70088185354e-08
6.342845942e-09
4.04137942769e-10
1.7407127419e-08
6.84908464848e-09
3.95153041012e-10
1.77218478043e-08
7.29286942126e-09
3.27674448617e-10
1.79623582678e-08
7.65670922557e-09
2.15559680687e-10
1.81316333416e-08
7.92719176477e-09
7.54414586292e-11
1.82376836936e-08
8.0963484196e-09
-7.40758550637e-11
1.82801998305e-08
8.15693306028e-09
-2.14256639989e-10
1.82374592713e-08
8.09635034695e-09
-3.2649417336e-10
1.81311939005e-08
7.92719572218e-09
-3.94152997581e-10
1.79617194307e-08
7.65671451449e-09
-4.03366872095e-10
1.77210405787e-08
7.29287323256e-09
-3.4523398325e-10
1.74062027394e-08
6.84908314722e-09
-2.07697783089e-10
1.70078770453e-08
6.34285239238e-09
1.6513723956e-08
5.793060418e-09
6.93763074532e-13
2.40361048821e-10
1.6975080856e-08
6.39780481382e-09
6.2367572713e-13
4.00080336364e-10
1.73976821329e-08
6.99731600599e-09
4.67520974767e-10
1.77389002612e-08
7.54433859057e-09
4.56154933285e-10
1.79958224329e-08
8.02049566744e-09
3.77537928973e-10
1.81879644529e-08
8.40863715758e-09
2.47977954764e-10
1.83204386705e-08
8.69592538097e-09
8.66849613363e-11
1.84034219376e-08
8.87502688544e-09
-8.52038765643e-11
1.84378210885e-08
8.93903027501e-09
-2.46564849185e-10
1.84031879317e-08
8.87502726242e-09
-3.7625784235e-10
1.83199810261e-08
8.6959253425e-09
-4.55068369711e-10
1.81873007629e-08
8.40863524726e-09
-4.66676061225e-10
1.79949851536e-08
8.02048785558e-09
-3.99494803099e-10
1.77379364723e-08
7.54431876848e-09
-2.39999042917e-10
1.73966907261e-08
6.9972936496e-09
1.69741919482e-08
6.39786339138e-09
7.73760328052e-13
2.64733078437e-10
1.66759941526e-08
6.71883177116e-09
6.34936024784e-13
4.39930565244e-10
1.7008410669e-08
7.34401477097e-09
5.13774795566e-10
1.72807134131e-08
7.90937932601e-09
5.00328097138e-10
1.74729984831e-08
8.39797332142e-09
4.13414288412e-10
1.76124334101e-08
8.79396415346e-09
2.71181544668e-10
1.77057395868e-08
9.08578388361e-09
9.47024511725e-11
1.77642499425e-08
9.2671190022e-09
-9.31621594652e-11
1.77897849991e-08
9.33174581466e-09
-2.69711741997e-10
1.77640238588e-08
9.26711694769e-09
-4.12082192476e-10
1.77052975302e-08
9.08577851291e-09
-4.99194204171e-10
1.76117940857e-08
8.79395311212e-09
-5.12884680261e-10
1.74721931653e-08
8.39795115173e-09
-4.39296961591e-10
1.7279784524e-08
7.90933738358e-09
-2.64321307778e-10
1.70074443812e-08
7.34395882156e-09
1.66751022517e-08
6.7188412334e-09
8.31986859636e-13
2.83106420713e-10
1.58493504304e-08
6.8137995275e-09
6.29043492265e-13
4.68408310796e-10
1.60890820334e-08
7.44801005004e-09
5.46290088247e-10
1.62927707454e-08
8.01659182142e-09
5.30966409288e-10
1.64240990955e-08
8.50452942178e-09
4.38061484127e-10
1.65149467609e-08
8.89780808411e-09
2.87012419344e-10
1.65729003909e-08
9.1864242831e-09
1.00147471215e-10
1.66093981308e-08
9.36518211188e-09
-9.85831838361e-11
1.66267635371e-08
9.4286802061e-09
-2.85519171071e-10
1.66091934177e-08
9.36517772536e-09
-4.36706419165e-10
1.65725004836e-08
9.18641374044e-09
-5.29808220584e-10
1.6514370194e-08
8.89778802319e-09
-5.45370059966e-10
1.64233742595e-08
8.50449280449e-09
-4.67734377515e-10
1.62919334323e-08
8.01652753301e-09
-2.82644071946e-10
1.60882064181e-08
7.44792139217e-09
1.58485233409e-08
6.81376321082e-09
8.78374713019e-13
2.96862290346e-10
1.46767298979e-08
6.73181876759e-09
6.11233713926e-13
4.88061630385e-10
1.48315414925e-08
7.36437422287e-09
5.68060144921e-10
1.49738849875e-08
7.92691818471e-09
5.51045580013e-10
1.5053508569e-08
8.40652042328e-09
4.53984699825e-10
1.51041991043e-08
8.7911267562e-09
2.97140736759e-10
1.51336558837e-08
9.07231153909e-09
1.03609918479e-10
1.51524888947e-08
9.24590584319e-09
-1.02041269789e-10
1.51631068695e-08
9.30732106567e-09
-2.9564218147e-10
1.51523162013e-08
9.24589947042e-09
-4.52621588557e-10
1.51333193245e-08
9.07229652316e-09
-5.49873626059e-10
1.51037153473e-08
8.79109871455e-09
-5.6711554366e-10
1.50529024928e-08
8.40647076704e-09
-4.87347484468e-10
1.49731843673e-08
7.92683377584e-09
-2.96345761183e-10
1.48308074343e-08
7.36425768798e-09
1.4676023732e-08
6.73174532124e-09
9.18128767511e-13
3.06964232651e-10
1.32973454882e-08
6.51428871121e-09
5.86086735562e-13
5.00973143773e-10
1.33805188629e-08
7.13910289613e-09
5.81699362013e-10
1.34719318099e-08
7.69076395996e-09
5.63225425471e-10
1.35111814052e-08
8.15833108066e-09
4.63433338535e-10
1.35315929359e-08
8.53162128071e-09
3.03061982633e-10
1.35403065518e-08
8.80363375908e-09
1.05615958334e-10
1.35463633348e-08
8.97103926379e-09
-1.0405070813e-10
1.35518959947e-08
9.02997654338e-09
-3.01564558452e-10
1.3546230317e-08
8.97103132251e-09
-4.6206624121e-10
1.3540048228e-08
8.80361517069e-09
-5.62040215064e-10
1.35312236404e-08
8.5315867552e-09
-5.80727427491e-10
1.35107206305e-08
8.15827072583e-09
-5.00213337718e-10
1.34713998629e-08
7.69066336349e-09
-3.06387513852e-10
1.33799629172e-08
7.13896589068e-09
1.3296803172e-08
6.51418941396e-09
9.55858906354e-13
3.14127439908e-10
1.18155364698e-08
6.19536769256e-09
5.56564213499e-13
5.08888791021e-10
1.18422560426e-08
6.80965240148e-09
5.89540905214e-10
1.18936867871e-08
7.34864303109e-09
5.69927893969e-10
1.19037912787e-08
7.80315255043e-09
4.68456721314e-10
1.19035409096e-08
8.16465578127e-09
3.06129137384e-10
1.18988913013e-08
8.42734880535e-09
1.06639061296e-10
1.18967985927e-08
8.5885267864e-09
-1.05075659824e-10
1.18988521285e-08
8.64494474484e-09
-3.04630171151e-10
1.18967099793e-08
8.58851772404e-09
-4.67080831906e-10
1.18987204379e-08
8.42732767313e-09
-5.68722188554e-10
1.19032992466e-08
8.16461663828e-09
-5.88532154349e-10
1.190349286e-08
7.80308465318e-09
-5.08073525659e-10
1.18933435561e-08
7.3485315981e-09
-3.13482083852e-10
1.18419020044e-08
6.80950411615e-09
1.18151864612e-08
6.19525508628e-09
9.95167885062e-13
3.18852017266e-10
1.03077096032e-08
5.80248405669e-09
5.25280718434e-13
5.13319301189e-10
1.02923907825e-08
6.40561434875e-09
5.93758372082e-10
1.03137510468e-08
6.93206458385e-09
5.73425580772e-10
1.03047900209e-08
7.37410728222e-09
4.70950709532e-10
1.02924457676e-08
7.72461496683e-09
3.07573743618e-10
1.02808320828e-08
7.97873814368e-09
1.0710572498e-10
1.02745495864e-08
8.13419434648e-09
-1.05535098991e-10
1.0274519821e-08
8.18824799623e-09
-3.060631086e-10
1.02745071779e-08
8.13418472922e-09
-4.69554065528e-10
1.02807525254e-08
7.97871581724e-09
-5.72185436039e-10
1.02923373471e-08
7.72457375298e-09
-5.92698166239e-10
1.0304661208e-08
7.37403618871e-09
-5.12435212412e-10
1.03136060577e-08
6.93194931552e-09
-3.18127759693e-10
1.02922507354e-08
6.40546557441e-09
1.03075662601e-08
5.80237162598e-09
1.03929951302e-12
3.21456695292e-10
8.82858070876e-09
5.35700246641e-09
4.92246790976e-13
5.15839471712e-10
8.78269405054e-09
5.94959972051e-09
5.96652208659e-10
8.78234793848e-09
6.46467973181e-09
5.75980889009e-10
8.76318803285e-09
6.89567399096e-09
4.72695694794e-10
8.74610222854e-09
7.23658947721e-09
3.08505533978e-10
8.73271585473e-09
7.48330443527e-09
1.0739312469e-10
8.72535976817e-09
7.63378681175e-09
-1.05800005531e-10
8.72435424921e-09
7.68572038369e-09
-3.06966817453e-10
8.72536284405e-09
7.63377751191e-09
-4.71260430226e-10
8.7327253524e-09
7.48328297775e-09
-5.74687215633e-10
8.74612455971e-09
7.23655003045e-09
-5.9552183671e-10
8.76322677659e-09
6.89560601137e-09
-5.14870781456e-10
8.78240052864e-09
6.46456993531e-09
-3.20642672893e-10
8.78276893995e-09
5.9494629385e-09
8.82864857926e-09
5.35690470454e-09
1.09189977963e-12
3.22594191495e-10
7.41613529786e-09
4.87500560659e-09
4.58661146416e-13
5.18958592415e-10
7.34643478145e-09
5.45825272986e-09
6.01033067174e-10
7.33232698476e-09
5.96356090188e-09
5.79811359516e-10
7.31120740968e-09
6.38523291537e-09
4.75189114038e-10
7.29544327881e-09
6.7181592988e-09
3.09781044436e-10
7.28407957165e-09
6.95874310572e-09
1.07780115329e-10
7.27778951041e-09
7.10506104642e-09
-1.06144132609e-10
7.27658727234e-09
7.15514400312e-09
-3.08193493598e-10
7.27783364547e-09
7.1050534342e-09
-4.73692907795e-10
7.28417071891e-09
6.95872568658e-09
-5.78441575998e-10
7.29558555952e-09
6.71812737013e-09
-5.99811599992e-10
7.31140193753e-09
6.38517720964e-09
-5.17889073979e-10
7.33256580634e-09
5.96346909726e-09
-3.21679970965e-10
7.34671498588e-09
5.4581420191e-09
7.41640560624e-09
4.87493640552e-09
1.15106175568e-12
3.25675974186e-10
6.09333117453e-09
4.36811345811e-09
4.25011082975e-13
5.27485692986e-10
6.00374882174e-09
4.94330867622e-09
6.09796647668e-10
5.98665791155e-09
5.4404998345e-09
5.86104213891e-10
5.97098529437e-09
5.85458036229e-09
4.78823939239e-10
5.96043288638e-09
6.18109076406e-09
3.11511250757e-10
5.95301245204e-09
6.4167778158e-09
1.08292797264e-10
5.94880090263e-09
6.55970890229e-09
-1.06590955521e-10
5.94780739388e-09
6.60820283812e-09
-3.09851197615e-10
5.94887915259e-09
6.55970483606e-09
-4.77243167742e-10
5.95317065374e-09
6.41676865055e-09
-5.84635100541e-10
5.96067395016e-09
6.18107392112e-09
-6.08464189052e-10
5.97130968097e-09
5.85454914013e-09
-5.26300851477e-10
5.98705823082e-09
5.44044276382e-09
-3.24654903597e-10
6.00421328535e-09
4.94324008266e-09
6.09377800209e-09
4.36808347743e-09
1.21705184942e-12
3.5308516858e-10
3.84514332125e-09
3.8990697781e-13
4.85191921958e-09
5.53785742326e-10
4.41344950426e-09
4.77611110933e-09
6.27577847979e-10
4.90384336457e-09
4.76769804452e-09
5.96111511364e-10
5.31168765928e-09
4.76006638295e-09
4.8374175523e-10
5.63299475238e-09
4.754532003e-09
3.13585785624e-10
5.86472612445e-09
4.75054633498e-09
1.08864857691e-10
6.00486014174e-09
4.74817210714e-09
-1.070743655e-10
6.05196408169e-09
4.74741472541e-09
-3.11831416177e-10
6.00486104558e-09
4.74827483128e-09
-4.82056112892e-10
5.86472842287e-09
4.75075311713e-09
-5.94525088252e-10
5.63299882486e-09
4.7548444403e-09
-6.26118838164e-10
5.31169129525e-09
4.76048605438e-09
-5.52477684581e-10
4.90383671762e-09
4.7682208811e-09
-3.51960904404e-10
4.4134484809e-09
4.77672278604e-09
3.84514362835e-09
1.29002104452e-12
4.8525182663e-09
-1.91206690524e-11
6.52092315559e-10
7.95888445372e-10
6.43461687622e-14
-2.57513291168e-11
7.11727918733e-10
8.74976697636e-10
-2.84762932876e-11
7.77004859108e-10
9.48850298112e-10
-2.75688844222e-11
8.35762808384e-10
1.01464082036e-09
-2.29157698932e-11
8.84317077615e-10
1.06932437064e-09
-1.51641040343e-11
9.20761057032e-10
1.11041331815e-09
-5.30780571245e-12
9.43644088394e-10
1.13630748569e-09
5.297273494e-12
9.51846976328e-10
1.14564343462e-09
1.51656297446e-11
9.43618748236e-10
1.13631002003e-09
2.29372721308e-11
9.20700847296e-10
1.11041821319e-09
2.76042965316e-11
8.84203889729e-10
1.06933112563e-09
2.85053469545e-11
8.35594019524e-10
1.01464873833e-09
2.57612516676e-11
7.76813863489e-10
9.48859599724e-10
1.91072994354e-11
7.11541825757e-10
8.74993561086e-10
6.52017459931e-10
7.95943253413e-10
3.20973863286e-14
-3.05327556753e-11
1.81688416599e-09
2.30130561387e-09
1.77676922155e-13
-4.23717098329e-11
1.96497876779e-09
2.53619837115e-09
-4.66330367071e-11
2.12304317604e-09
2.75595051676e-09
-4.47309798215e-11
2.26416648844e-09
2.95173614872e-09
-3.69359375922e-11
2.37966336754e-09
3.11453787809e-09
-2.43099124345e-11
2.46555259613e-09
3.23691422175e-09
-8.45989817918e-12
2.51926294967e-09
3.31399015922e-09
8.56111121772e-12
2.53855112491e-09
3.34166684197e-09
2.44301749716e-11
2.51919494779e-09
3.31399639936e-09
3.70844196731e-11
2.46539973829e-09
3.23692618446e-09
4.4890784161e-11
2.37939603104e-09
3.11455422114e-09
4.67606285124e-11
2.26377702183e-09
2.95175494888e-09
4.24342487265e-11
2.12258824471e-09
2.75597223131e-09
3.05228091318e-11
1.96453967767e-09
2.53624038402e-09
1.81665646684e-09
2.30143547065e-09
1.05334948095e-13
-2.53156657178e-11
3.07207366783e-09
3.60526671751e-09
2.82029535552e-13
-3.51719827134e-11
3.29953027363e-09
3.97843493618e-09
-3.81624636322e-11
3.53682266117e-09
4.32659729499e-09
-3.60255533199e-11
3.7466623055e-09
4.63592924453e-09
-2.94085156187e-11
3.9169300579e-09
4.89254708257e-09
-1.9189410301e-11
4.04249259134e-09
5.08509404878e-09
-6.59827240072e-12
4.12070245346e-09
5.20615263225e-09
6.89300534335e-12
4.14882911906e-09
5.2494939712e-09
1.94984371631e-11
4.12059660427e-09
5.20616028193e-09
2.97337957556e-11
4.04226306482e-09
5.08510844934e-09
3.63398776088e-11
3.91654678671e-09
4.8925660979e-09
3.84104036074e-11
3.74611936814e-09
4.63594977606e-09
3.53088245672e-11
3.53618406476e-09
4.32661920836e-09
2.5333523174e-11
3.29891742352e-09
3.97848141343e-09
3.07172516686e-09
3.60542955493e-09
1.99894708492e-13
-9.81775290185e-12
4.20251367359e-09
4.67228748105e-09
3.68554371731e-13
-1.26218485765e-11
4.48657385677e-09
5.15900578191e-09
-1.25890541028e-11
4.77549409668e-09
5.61079020529e-09
-1.10161499409e-11
5.0279643865e-09
6.01034418476e-09
-8.50419151995e-12
5.23088578333e-09
6.34052238582e-09
-5.31741618468e-12
5.37922092234e-09
6.58751079651e-09
-1.6877945284e-12
5.47122207825e-09
6.74241055163e-09
2.19340959661e-12
5.50436799751e-09
6.79771303483e-09
5.8270038839e-12
5.4710887413e-09
6.74241669694e-09
9.00959506606e-12
5.37893957281e-09
6.58752179831e-09
1.14824835679e-11
5.23043213787e-09
6.34053533155e-09
1.29569494862e-11
5.02733683686e-09
6.01035477472e-09
1.28431521861e-11
4.77475137692e-09
5.61079693208e-09
9.88485434991e-12
4.48585295948e-09
5.15903289012e-09
4.2020669094e-09
4.6724376592e-09
3.10632083787e-13
1.17163973235e-11
5.09091062054e-09
5.49754564361e-09
4.36370114747e-13
1.87538810096e-11
5.40586314505e-09
6.07134666892e-09
2.27444668535e-11
5.71587966177e-09
6.60031970592e-09
2.30646854665e-11
5.9831070585e-09
7.06534157731e-09
1.96668409602e-11
6.19548414565e-09
7.44768901217e-09
1.32200769243e-11
6.34923155241e-09
7.73257601448e-09
4.82427147081e-12
6.44414483273e-09
7.91069481606e-09
-4.12443098707e-12
6.47842531489e-09
7.97410615789e-09
-1.25273708192e-11
6.44399925032e-09
7.91069648986e-09
-1.89993982675e-11
6.34892898748e-09
7.73257835563e-09
-2.24621950369e-11
6.19500652182e-09
7.4476883147e-09
-2.22658189432e-11
5.98245535815e-09
7.06533225686e-09
-1.84449274912e-11
5.71510389311e-09
6.60029828465e-09
-1.1584296316e-11
5.40509392655e-09
6.07133615045e-09
5.09040097921e-09
5.49765259247e-09
4.26107878042e-13
3.58302269784e-11
5.68838608101e-09
6.08531233929e-09
4.86025798624e-13
5.40487717097e-11
6.01139565256e-09
6.72057627673e-09
6.23363368112e-11
6.31579117402e-09
7.3014935084e-09
6.09095766997e-11
6.57415250554e-09
7.80862929994e-09
5.06951837529e-11
6.77670398159e-09
8.22318876501e-09
3.35100195181e-11
6.92171993327e-09
8.53068038354e-09
1.19159652574e-11
7.0107762496e-09
8.72226430086e-09
-1.10531672089e-11
7.04304993432e-09
8.79026279281e-09
-3.26643028728e-11
7.01063153543e-09
8.72226080829e-09
-4.98925363258e-11
6.92142230146e-09
8.53067203845e-09
-6.01918040452e-11
6.77624134019e-09
8.2231709314e-09
-6.17585952026e-11
6.57352657576e-09
7.80859490236e-09
-5.36528382646e-11
6.31504041205e-09
7.3014367373e-09
-3.56211152628e-11
6.01063470344e-09
6.72051842579e-09
5.68784536952e-09
6.08536202893e-09
5.36897510559e-13
5.98902414085e-11
5.99243121337e-09
6.44959458962e-09
5.18573745878e-13
8.96694513298e-11
6.30617866428e-09
7.12371963129e-09
1.02199421104e-10
6.58535791848e-09
7.73477017843e-09
9.87520714816e-11
6.8181623493e-09
8.26420994614e-09
8.1511015712e-11
6.99763696767e-09
8.69432428697e-09
5.35541644941e-11
7.12446432156e-09
9.01182026138e-09
1.88936194219e-11
7.20188649966e-09
9.20890152603e-09
-1.79021884201e-11
7.23007008842e-09
9.27861584989e-09
-5.25873460162e-11
7.20175461156e-09
9.20889268074e-09
-8.05998889323e-11
7.12419489152e-09
9.01180075816e-09
-9.79384310784e-11
6.99722147788e-09
8.69428847395e-09
-1.01532851892e-10
6.81760146008e-09
8.26414917574e-09
-8.91875325376e-11
6.58467623719e-09
7.73467636667e-09
-5.95972002833e-11
6.30547414986e-09
7.12361299944e-09
5.99189768357e-09
6.44958517396e-09
6.4083379184e-13
8.21028801614e-11
6.02971894256e-09
6.61211475558e-09
5.35731851501e-13
1.2317330535e-10
6.32290677679e-09
7.30681277865e-09
1.39673589898e-10
6.5651629249e-09
7.93085195848e-09
1.34154858406e-10
6.76300618527e-09
8.46741098574e-09
1.10185174075e-10
6.91233233654e-09
8.90059058258e-09
7.2125088793e-11
7.01619758787e-09
9.21880852395e-09
2.53380743436e-11
7.07915777828e-09
9.41557947781e-09
-2.42478349096e-11
7.10221117818e-09
9.48491538801e-09
-7.10642246275e-11
7.07904726935e-09
9.41556589074e-09
-1.09187358912e-10
7.01597277261e-09
9.21877904559e-09
-1.33260080011e-10
6.91198692714e-09
8.90053856163e-09
-1.38925600258e-10
6.76253887133e-09
8.46732629515e-09
-1.22605209101e-10
6.56458554772e-09
7.93072465067e-09
-8.17221124938e-11
6.32229702971e-09
7.3066631499e-09
6.02923627226e-09
6.61205331132e-09
7.35975073649e-13
1.01402727294e-10
5.84293308407e-09
6.59933134903e-09
5.41094396255e-13
1.53057637459e-10
6.10953025862e-09
7.30102965073e-09
1.73183397474e-10
6.31016821031e-09
7.92583986356e-09
1.65757385487e-10
6.46987617181e-09
8.45907770435e-09
1.35705108772e-10
6.58717203198e-09
8.88700465778e-09
8.86098811652e-11
6.66716229742e-09
9.19992046328e-09
3.10472343548e-11
6.71523855765e-09
9.39266725013e-09
-2.98803543729e-11
6.73297483193e-09
9.46027922868e-09
-8.74744966598e-11
6.71515534513e-09
9.39265008784e-09
-1.34635322462e-10
6.6669930871e-09
9.19988340519e-09
-1.64790225923e-10
6.58691159202e-09
8.88694022934e-09
-1.72357387355e-10
6.46952013764e-09
8.45897461055e-09
-1.52402831344e-10
6.30971824023e-09
7.92568695661e-09
-1.00931025706e-10
6.10904539012e-09
7.30084851331e-09
5.84253611793e-09
6.59923124363e-09
8.2239230874e-13
1.17319981173e-10
5.48114545878e-09
6.43947831574e-09
5.36643575278e-13
1.78570063834e-10
5.71907660685e-09
7.13903167e-09
2.02011282172e-10
5.87867308315e-09
7.75687520051e-09
1.93043015539e-10
6.00161448001e-09
8.28054996448e-09
1.57769188171e-10
6.08874208572e-09
8.6985137607e-09
1.0286725943e-10
6.1466869946e-09
9.00286926075e-09
3.59841307539e-11
6.18115003577e-09
9.18963386857e-09
-3.47542819499e-11
6.19398479033e-09
9.25480200888e-09
-1.01668907067e-10
6.1810965428e-09
9.18961471677e-09
-1.5663520028e-10
6.14657777121e-09
9.00282797405e-09
-1.92007201193e-10
6.0885725163e-09
8.69844240353e-09
-2.01107715318e-10
6.00137818731e-09
8.28043657833e-09
-1.77827502822e-10
5.878363889e-09
7.75670817995e-09
-1.16756069532e-10
5.71873734473e-09
7.13883482838e-09
5.48086490407e-09
6.43935726842e-09
9.0135063366e-13
1.29839080315e-10
4.99331490596e-09
6.16011259904e-09
5.26148293686e-13
1.99543753622e-10
5.2030447264e-09
6.85209166797e-09
2.26121159066e-10
5.32544513134e-09
7.4588686706e-09
2.16164101147e-10
5.41577250218e-09
7.9700531873e-09
1.76627752575e-10
5.47690900777e-09
8.37612241701e-09
1.1511454998e-10
5.51632044077e-09
8.6707487657e-09
4.02351400029e-11
5.53946519689e-09
8.85088293238e-09
-3.8948662851e-11
5.54818294122e-09
8.91335316962e-09
-1.13858110905e-10
5.53944099328e-09
8.85086379809e-09
-1.75431950941e-10
5.51627045131e-09
8.67070756293e-09
-2.15059601673e-10
5.47682876539e-09
8.37605128635e-09
-2.25139105186e-10
5.41565468268e-09
7.96994011892e-09
-1.98713133857e-10
5.32527905274e-09
7.45870217078e-09
-1.29182915281e-10
5.20286102627e-09
6.85189815851e-09
4.99316819991e-09
6.15999137738e-09
9.73833814979e-13
1.39232685424e-10
4.42436237236e-09
5.78635790014e-09
5.10961398624e-13
2.16275369715e-10
4.60756788349e-09
6.46816297143e-09
2.46083244812e-10
4.69800060646e-09
7.06244801561e-09
2.35863823284e-10
4.76122146979e-09
7.56057277658e-09
1.92992632141e-10
4.80175601706e-09
7.95473643137e-09
1.25852061367e-10
4.82700674351e-09
8.23987589153e-09
4.39811313212e-11
4.84163270973e-09
8.41360375451e-09
-4.26390920702e-11
4.84719910929e-09
8.47343252951e-09
-1.24537794152e-10
4.84163541655e-09
8.41358715384e-09
-1.91734548559e-10
4.82701020243e-09
8.23984021007e-09
-2.34689722558e-10
4.80175745923e-09
7.95467457435e-09
-2.45022759545e-10
4.76121318617e-09
7.56047330966e-09
-2.15358521188e-10
4.69797102255e-09
7.06229962611e-09
-1.38487852175e-10
4.60753775312e-09
6.46799397023e-09
4.42435766112e-09
5.78625901899e-09
1.04137546381e-12
1.45957872028e-10
3.81320576197e-09
5.33984287091e-09
4.93165089216e-13
2.29670019473e-10
3.97137098842e-09
6.01084877688e-09
2.63297086705e-10
4.03504817643e-09
6.59300001607e-09
2.53604909966e-10
4.07726803857e-09
7.07898917346e-09
2.08061540335e-10
4.10316288273e-09
7.46240429012e-09
1.35846454067e-10
4.11893893781e-09
7.73913167626e-09
4.74844901876e-11
4.12797312291e-09
7.90718337034e-09
-4.60849486852e-11
4.13140358403e-09
7.96460821212e-09
-1.34473170766e-10
4.1279982023e-09
7.90717234429e-09
-2.06740171016e-10
4.11898831779e-09
7.73910807722e-09
-2.52362265209e-10
4.10323379849e-09
7.46236262096e-09
-2.62161532683e-10
4.07735548687e-09
7.07891927357e-09
-2.28673473016e-10
4.03514047019e-09
6.59289010666e-09
-1.45131889715e-10
3.97148415904e-09
6.01072606106e-09
3.81334022437e-09
5.33978698987e-09
1.10022081958e-12
1.50025808996e-10
3.19270490472e-09
4.838238222e-09
4.74946848738e-13
2.41125786042e-10
3.32451056139e-09
5.49916600591e-09
2.80013440108e-10
3.3661632592e-09
6.07059426632e-09
2.71500331252e-10
3.39430675951e-09
6.54615335009e-09
2.2341781239e-10
3.41188613951e-09
6.92054620575e-09
1.46058230627e-10
3.42284913879e-09
7.19032055234e-09
5.10684881156e-11
3.42911103911e-09
7.35365291766e-09
-4.96093098056e-11
3.43137724938e-09
7.40899414531e-09
-1.44624531831e-10
3.42915433407e-09
7.35365069584e-09
-2.22035020246e-10
3.42293456701e-09
7.19031596171e-09
-2.70193890634e-10
3.41201259528e-09
6.92053632221e-09
-2.78812666221e-10
3.39447057151e-09
6.54613051277e-09
-2.40061313758e-10
3.36635813889e-09
6.07054569591e-09
-1.49131869916e-10
3.32474832599e-09
5.49911100413e-09
3.19295884175e-09
4.83823935696e-09
1.15259346789e-12
1.3968655711e-10
4.29471390954e-09
4.56658727248e-13
2.60310739806e-09
2.49097315084e-10
4.9475747497e-09
2.68106140028e-09
2.96955793529e-10
5.51012766513e-09
2.71210845763e-09
2.90688680622e-10
5.97732407378e-09
2.73502344423e-09
2.40190400333e-10
6.3446924271e-09
2.75077347448e-09
1.5732302016e-10
6.60915268171e-09
2.76137524875e-09
5.50386703679e-11
6.76882718548e-09
2.7675097867e-09
-5.35191041226e-11
6.82244416343e-09
2.76953454879e-09
-1.55831117726e-10
6.7688357567e-09
2.76756709225e-09
-2.38752280979e-10
6.60917125485e-09
2.76148964734e-09
-2.89331135602e-10
6.34472134014e-09
2.75094373612e-09
-2.95706436117e-10
5.97736020308e-09
2.73524854872e-09
-2.4798826186e-10
5.51015821113e-09
2.71238480464e-09
-1.38747415149e-10
4.94761632198e-09
2.68140124684e-09
4.29475981131e-09
1.18381184968e-12
2.60346855469e-09
6.14558806027e-12
3.50180646129e-11
7.54884240234e-10
4.86857044725e-15
1.174090853e-11
3.58824024119e-11
8.33687124092e-10
1.48791337629e-11
3.83610990088e-11
9.07568333834e-10
1.53225379252e-11
4.08073606301e-11
9.735650659e-10
1.31351793827e-11
4.3147431187e-11
1.0285464896e-09
8.83019353333e-12
4.49618694227e-11
1.06993659093e-09
3.12907083151e-12
4.61246457363e-11
1.09604558338e-09
-3.07523697878e-12
4.65383810667e-11
1.10544725211e-09
-8.78222162387e-12
4.60896970834e-11
1.09604708452e-09
-1.30955848828e-11
4.4899449138e-11
1.06993944995e-09
-1.52853978735e-11
4.30689778387e-11
1.02855046693e-09
-1.48325890082e-11
4.07184402929e-11
9.73570180118e-10
-1.17024133853e-11
3.82416573961e-11
9.07575725732e-10
-6.11264700337e-12
3.57836565755e-11
8.33703685838e-10
3.49517127615e-11
7.54937400838e-10
2.02382123701e-14
1.43029365222e-11
2.31018232216e-10
2.09124715269e-09
1.96753750858e-14
2.67883312724e-11
2.50257400666e-10
2.30964861796e-09
3.38783199173e-11
2.73598359685e-10
2.51394348778e-09
3.47118891325e-11
2.9605185596e-10
2.69594836363e-09
2.9658555116e-11
3.15763887933e-10
2.84726560781e-09
1.9885676289e-11
3.30918916338e-10
2.96100968783e-09
7.04612346933e-12
3.40546357254e-10
3.03265774604e-09
-6.88356715143e-12
3.43968331862e-10
3.05838301659e-09
-1.97351227115e-11
3.40466464924e-10
3.03266126959e-09
-2.95256435323e-11
3.3077096251e-10
2.96101625322e-09
-3.45873149924e-11
3.15568213049e-10
2.84727447018e-09
-3.37479733969e-11
2.9582270245e-10
2.6959594943e-09
-2.66765229551e-11
2.73322416647e-10
2.51396022905e-09
-1.42195505948e-11
2.50008395778e-10
2.30969027127e-09
2.3085519269e-10
2.09137480642e-09
5.8901739756e-14
1.99295290028e-11
5.75154226919e-10
3.24139788571e-09
4.08350261022e-14
3.65059406345e-11
6.28466518002e-10
3.58393291601e-09
4.57284417862e-11
6.87605485412e-10
3.90365115844e-09
4.65083086197e-11
7.4358269051e-10
4.18788426829e-09
3.95411218862e-11
7.91742811531e-10
4.42379904436e-09
2.64261390447e-11
8.28473691772e-10
4.60090773613e-09
9.36114530522e-12
8.51686062728e-10
4.71230547533e-09
-9.08951591032e-12
8.5992939664e-10
4.7521823473e-09
-2.61700283017e-11
8.5157388762e-10
4.71230907144e-09
-3.93087179114e-11
8.28262783233e-10
4.60091416601e-09
-4.62923577275e-11
7.91457742229e-10
4.42380705789e-09
-4.55195374954e-11
7.432441739e-10
4.18789352657e-09
-3.63277718635e-11
6.87214232161e-10
3.90366607491e-09
-1.98008010042e-11
6.28104753749e-10
3.58398015097e-09
5.7492857636e-10
3.2415610697e-09
1.06600385666e-13
2.51245287549e-11
1.00740580704e-09
4.21506017973e-09
7.00057535816e-14
4.47691417627e-11
1.10157280425e-09
4.66649892297e-09
5.52994385171e-11
1.20155371851e-09
5.08656077329e-09
5.57549140906e-11
1.29476676041e-09
5.45894547411e-09
4.71447167803e-11
1.37380550211e-09
5.76730580784e-09
3.14064788384e-11
1.43357244475e-09
5.99837406186e-09
1.11230893308e-11
1.47114142742e-09
6.14344099864e-09
-1.07352497329e-11
1.48446729109e-09
6.19521326602e-09
-3.10368442295e-11
1.47101094287e-09
6.1434420848e-09
-4.68045077484e-11
1.43332377162e-09
5.99837521407e-09
-5.54423960083e-11
1.3734621679e-09
5.76730526922e-09
-5.50113185459e-11
1.29435418844e-09
5.45894231622e-09
-4.45273343348e-11
1.20108933566e-09
5.08655931763e-09
-2.49476558941e-11
1.101141986e-09
4.66652883849e-09
1.00713475533e-09
4.21521673072e-09
1.69274918593e-13
3.13628890541e-11
1.46466772134e-09
5.00901439683e-09
1.03797925217e-13
5.41757399056e-11
1.5979052713e-09
5.55240660105e-09
6.58704867102e-11
1.73458229627e-09
6.05581414289e-09
6.58128035873e-11
1.8600300584e-09
6.50034655467e-09
5.53532566012e-11
1.96491538438e-09
6.86724555605e-09
3.67654498223e-11
2.04347334652e-09
7.14146037145e-09
1.3015232285e-11
2.09256006242e-09
7.31320711265e-09
-1.25064452552e-11
2.10994825881e-09
7.37430952892e-09
-3.62777146128e-11
2.09242223107e-09
7.31320357664e-09
-5.49013469416e-11
2.04320901263e-09
7.14145199934e-09
-6.54009741314e-11
1.96454645425e-09
6.86722999961e-09
-6.55008016827e-11
1.85958350744e-09
6.50032199326e-09
-5.38686135599e-11
1.73408388197e-09
6.05578386659e-09
-3.11334972869e-11
1.597446092e-09
5.55240110763e-09
1.46437117961e-09
5.00913541351e-09
2.43164350914e-13
3.93125589071e-11
1.88963114693e-09
5.62106684607e-09
1.37477224134e-13
6.60720149772e-11
2.05372387278e-09
6.23817631093e-09
7.92010106821e-11
2.21651109132e-09
6.80662083514e-09
7.84992307844e-11
2.36347406801e-09
7.30607034758e-09