/*--------------------------------*- C++ -*----------------------------------*\
  =========                 |
  \\      /  F ield         | OpenFOAM: The Open Source CFD Toolbox
   \\    /   O peration     | Website:  https://openfoam.org
    \\  /    A nd           | Version:  7
     \\/     M anipulation  |
\*---------------------------------------------------------------------------*/
FoamFile
{
    version     2.0;
    format      ascii;
    class       volVectorField;
    location    "1.6";
    object      U;
}
// * * * * * * * * * * * * * * * * * * * * * * * * * * * * * * * * * * * * * //

dimensions      [0 1 -1 0 0 0 0];

internalField   nonuniform List<vector> 
22500
(
(3.1798397969e-05 3.56295137303e-05 0.000701465064027)
(2.95824626303e-05 4.00454451224e-05 0.000735777226387)
(2.57771877741e-05 4.45243817544e-05 0.000767019770639)
(2.16297820423e-05 4.82810385865e-05 0.000793908340232)
(1.67835822339e-05 5.13767725079e-05 0.000815653127413)
(1.14792531486e-05 5.36688293193e-05 0.00083162480921)
(5.83138626117e-06 5.5079072714e-05 0.000841390205519)
(5.46108318269e-09 5.5555714746e-05 0.000844690462863)
(-5.82069472032e-06 5.50796968584e-05 0.000841390361246)
(-1.14692078986e-05 5.3669983283e-05 0.000831625184816)
(-1.67746137173e-05 5.13782062501e-05 0.000815653749059)
(-2.16223038529e-05 4.82824459592e-05 0.000793909131791)
(-2.57717283372e-05 4.45252515182e-05 0.000767020684646)
(-2.95788463844e-05 4.00458553914e-05 0.000735779617056)
(-3.17967844038e-05 3.56294773553e-05 0.000701480847388)
(9.13257808099e-05 0.0001025875104 0.00171069463949)
(8.47882719185e-05 0.00011494644329 0.0017769662673)
(7.4120137295e-05 0.00012731415623 0.00183629604958)
(6.2091318993e-05 0.000137796922749 0.00188664255092)
(4.81808862801e-05 0.000146433542135 0.00192687539098)
(3.29381020219e-05 0.00015283047321 0.00195615837613)
(1.67263859093e-05 0.000156768076738 0.00197395064424)
(1.25233706534e-08 0.00015809813257 0.00197993882055)
(-1.67018167585e-05 0.000156769161514 0.00197395129627)
(-3.29149078016e-05 0.000152832444041 0.00195615980899)
(-4.81599665259e-05 0.000146435888975 0.0019268775921)
(-6.20735742659e-05 0.000137799034961 0.00188664522145)
(-7.41065606606e-05 0.000127315085639 0.00183629891532)
(-8.47785777015e-05 0.000114946479626 0.0017769731743)
(-9.13208090632e-05 0.000102586629709 0.00171073061375)
(0.000133333760104 0.000149770876604 0.00244306772681)
(0.000123134657691 0.000166594023578 0.00252104123511)
(0.000107308859488 0.000183331552228 0.00258972454717)
(8.95367747877e-05 0.000197442334687 0.00264729106733)
(6.92784654018e-05 0.000209007865881 0.00269280662141)
(4.72558251919e-05 0.000217540647665 0.00272566473031)
(2.39641886484e-05 0.000222779613844 0.00274551480448)
(1.7317987926e-08 0.000224546630078 0.00275217082594)
(-2.39301500723e-05 0.000222780489955 0.00274551556888)
(-4.72235307017e-05 0.000217542155853 0.00272566643853)
(-6.92490551121e-05 0.000209009416895 0.0026928091904)
(-8.95113845649e-05 0.000197443204185 0.00264729397623)
(-0.000107288695453 0.00018333079423 0.00258972703733)
(-0.000123119398147 0.000166592164929 0.00252104766099)
(-0.000133324948179 0.000149768000575 0.00244311122829)
(0.000162185045165 0.000182122199796 0.00297777490714)
(0.000148958422539 0.000200942949816 0.00305587853809)
(0.000129289942657 0.000219662430139 0.00312343557609)
(0.000107419395872 0.000235278276238 0.00317930318996)
(8.28454105932e-05 0.000248003132955 0.00322297374712)
(5.63711022944e-05 0.000257343768134 0.00325422225836)
(2.8543504963e-05 0.000263060403253 0.00327298205382)
(2.02740045142e-08 0.000264985030001 0.00327924820118)
(-2.85036101564e-05 0.00026306095371 0.00327298248812)
(-5.63331322467e-05 0.000257344613143 0.0032542233044)
(-8.2810622131e-05 0.000248003693514 0.00322297520096)
(-0.000107388996657 0.000235277824072 0.0031793042327)
(-0.000129265158357 0.000219660123046 0.003123434632)
(-0.000148938839766 0.000200939466307 0.00305587854752)
(-0.000162172600899 0.000182117598378 0.00297780994192)
(0.000181442851588 0.000203742574434 0.00336757048531)
(0.000165766742774 0.000222941223866 0.00343929099324)
(0.000143273821499 0.000242125704516 0.00350002098393)
(0.00011854901346 0.000257930955141 0.00354946539307)
(9.11395967333e-05 0.000270733193477 0.00358761573496)
(6.18669156762e-05 0.000280081798181 0.00361463942174)
(3.12805563485e-05 0.000285784545842 0.0036307468407)
(2.19848665906e-08 0.000287701001263 0.0036361041573)
(-3.12372626645e-05 0.000285784787891 0.00363074674652)
(-6.18256218055e-05 0.000280082038117 0.00361463934403)
(-9.11016011303e-05 0.000270732902392 0.00358761527438)
(-0.000118515518167 0.000257929468655 0.00354946327888)
(-0.000143245944153 0.000242122277515 0.00350001445501)
(-0.00016574397504 0.000222936665146 0.00343928058005)
(-0.000181427233479 0.000203736808483 0.0033675874288)
(0.000193072344229 0.000216810964689 0.00364961714678)
(0.000175476038514 0.000235233126117 0.00371161846883)
(0.000151013465878 0.000253824083752 0.00376280100774)
(0.000124454390544 0.000268935577778 0.00380369664215)
(9.53870947602e-05 0.000281100813112 0.00383477006168)
(6.46020914673e-05 0.000289939021131 0.00385651924808)
(3.26180285325e-05 0.000295313188182 0.00386937334964)
(2.28607604044e-08 0.000297116159762 0.00387362774476)
(-3.25729839502e-05 0.000295313193188 0.00386937270655)
(-6.45590567336e-05 0.000289938811708 0.00385651795584)
(-9.53473620891e-05 0.000281099928943 0.00383476744232)
(-0.000124419114639 0.000268933446203 0.0038036907961)
(-0.000150983583994 0.000253820079642 0.0037627876899)
(-0.000175450935737 0.00023522814126 0.00371159563662)
(-0.00019305411205 0.000216804796221 0.00364961321411)
(0.000198594497312 0.000222982680083 0.00385125626871)
(0.000179565974141 0.000239832971243 0.00390227872354)
(0.000153863447526 0.000257104851535 0.00394311055844)
(0.000126309197522 0.000270949244734 0.00397498431687)
(9.65244114692e-05 0.000282025637297 0.00399875126167)
(6.52301051629e-05 0.000290034341049 0.00401514485461)
(3.2891901291e-05 0.000294889588195 0.00402473367427)
(2.32139717793e-08 0.000296516024697 0.00402788870856)
(-3.28461427438e-05 0.000294889481152 0.00402473254312)
(-6.51863337146e-05 0.000290033932991 0.00401514243397)
(-9.64838874442e-05 0.000282024545976 0.00399874651269)
(-0.00012627300298 0.000270946989982 0.00397497455031)
(-0.000153832325645 0.000257100936983 0.00394308988264)
(-0.000179539183783 0.000239828312426 0.00390224296411)
(-0.000198574168178 0.000222976942247 0.00385123232927)
(0.000199365752479 0.000223756361237 0.0039931550604)
(0.000179349223051 0.000238544562036 0.00403328737961)
(0.000153019160218 0.000254040566664 0.00406416848267)
(0.000125140753775 0.000266287805145 0.00408755823673)
(9.53651966165e-05 0.000276027879368 0.00410457964554)
(6.4315393441e-05 0.000283041373675 0.00411610004515)
(3.23912455542e-05 0.000287282449838 0.00412274812949)
(2.32753072198e-08 0.000288701447455 0.00412491897001)
(-3.2345353926e-05 0.000287282380783 0.004122746576)
(-6.4271451448e-05 0.000283041071909 0.00411609660145)
(-9.53244196979e-05 0.00027602703299 0.00410457284032)
(-0.000125104144325 0.000266286023411 0.00408754447426)
(-0.000152987264658 0.000254037461369 0.00406414022357)
(-0.000179321213778 0.000238541038943 0.00403323915438)
(-0.000199343788805 0.000223751879848 0.00399311376923)
(0.000196530743982 0.000220410395312 0.00409113449611)
(0.000175919499701 0.000232878402197 0.00412129160735)
(0.000149466526942 0.000246336564808 0.00414331198693)
(0.000121788964929 0.000256826560305 0.00415930441679)
(9.25689364805e-05 0.000265124230817 0.00417054769465)
(6.2312320398e-05 0.000271081457082 0.00417795291206)
(3.1347706961e-05 0.000274677419943 0.00418214296857)
(2.32200900355e-08 0.00027587969985 0.00418349592391)
(-3.13019130051e-05 0.000274677551843 0.00418214101525)
(-6.22684329439e-05 0.000271081589001 0.00417794847239)
(-9.25281192635e-05 0.000265124111438 0.00417053881497)
(-0.000121752142988 0.000256825870834 0.00415928654263)
(-0.000149434072658 0.000246334999406 0.00414327608606)
(-0.000175890554525 0.000232876792982 0.00412123199133)
(-0.000196507531986 0.000220407950896 0.0040910793005)
(0.00019101423313 0.00021398347859 0.00415732231499)
(0.000170144874238 0.00022403282876 0.00417886000443)
(0.000143979100093 0.000235318926729 0.00419342913382)
(0.00011690820687 0.000243998081489 0.00420333099233)
(8.86452429014e-05 0.000250835837646 0.00420990187273)
(5.95694312502e-05 0.000255739955815 0.00421402788313)
(2.99380770132e-05 0.000258698697221 0.00421627989918)
(2.31852257337e-08 0.000259687895584 0.00421699178214)
(-2.98923370988e-05 0.000258699188286 0.00421627751415)
(-5.9525546442e-05 0.00025574083583 0.00421402237977)
(-8.86043267064e-05 0.00025083690907 0.00420989080383)
(-0.000116871114061 0.000243999074975 0.00420330887483)
(-0.000143946070343 0.000235319582104 0.00419338573357)
(-0.000170115088639 0.000224033840434 0.00417879062505)
(-0.000190990031246 0.000213983770163 0.00415725715355)
(0.000183549421652 0.000205306899694 0.00420094401476)
(0.000162699185952 0.000212934259604 0.00421537771054)
(0.000137152241148 0.000221989288616 0.00422396884878)
(0.000111000796808 0.0002288660215 0.00422909012518)
(8.39823891664e-05 0.00023427923188 0.00423206255008)
(5.63499528178e-05 0.000238170019317 0.00423370183378)
(2.82950040532e-05 0.000240520555828 0.00423450048151)
(2.32810856041e-08 0.000241307130053 0.00423473454096)
(-2.82490508587e-05 0.000240521543494 0.00423449761403)
(-5.630578833e-05 0.000238171923855 0.00423369519226)
(-8.39410769882e-05 0.000234281901692 0.00423204925362)
(-0.000110963142933 0.000228869219122 0.0042290638985)
(-0.000137118410418 0.000221992752893 0.00422391864829)
(-0.000162668475895 0.00021293849295 0.00421530109203)
(-0.00018352432836 0.000205310485999 0.00420087372194)
(0.000174706733336 0.000195040797399 0.00422889775465)
(0.000154099565868 0.000200276601474 0.00423770298435)
(0.000129445252882 0.000207080392379 0.00424169394566)
(0.000104454234548 0.000212201111558 0.00424322794823)
(7.88757461456e-05 0.000216257030834 0.00424355852557)
(5.28507601295e-05 0.000219192511323 0.00424340336631)
(2.65165321921e-05 0.000220972387468 0.00424316587129)
(2.35986011685e-08 0.000221569157905 0.00424306148548)
(-2.64699105151e-05 0.000220973973955 0.00424316254887)
(-5.28058335791e-05 0.000219195638479 0.00424339573339)
(-7.88335320873e-05 0.000216261599066 0.00424354345765)
(-0.000104415518291 0.000212206902104 0.00424319866894)
(-0.000129410202355 0.000207087106867 0.00424163902313)
(-0.000154067681831 0.000200284493055 0.00423762332062)
(-0.000174680649887 0.000195048108064 0.00422882908546)
(0.000164915506652 0.00018367289814 0.00424616660608)
(0.000144761041306 0.00018654117938 0.00425064099148)
(0.000121233967867 0.000191114346793 0.00425123974387)
(9.75759163308e-05 0.000194561626943 0.0042502296081)
(7.35483492583e-05 0.000197347036661 0.00424874526894)
(4.92143239405e-05 0.000199387709485 0.00424738534536)
(2.46718205303e-05 0.000200631420157 0.00424646252661)
(2.42125321482e-08 0.000201049525187 0.00424613604519)
(-2.46239286673e-05 0.000200633638904 0.00424645902002)
(-4.91679948808e-05 0.000199392132102 0.00424737746999)
(-7.3504547302e-05 0.000197353617984 0.00424873008229)
(-9.75354504537e-05 0.000194570179833 0.00425020041076)
(-0.000121197105101 0.000191124511317 0.00425118507808)
(-0.00014472757264 0.000186552921871 0.00425056529893)
(-0.000164888175757 0.000183684075674 0.00424610859674)
(0.000154560662191 0.000171505965389 0.00425606354034)
(0.000135118263406 0.0001720585683 0.00425724175945)
(0.000112856782627 0.000174467279727 0.00425550377675)
(9.05953005059e-05 0.000176381865511 0.00425289056009)
(6.81447985806e-05 0.000177987940664 0.00425033809262)
(4.55245365062e-05 0.000179180891138 0.00424830115324)
(2.27997263604e-05 0.00017991044048 0.00424700400645)
(2.51626569943e-08 0.000180156319314 0.00424655805157)
(-2.27498703276e-05 0.000179913229218 0.00424700100584)
(-4.54760635135e-05 0.00017918648723 0.00424829478967)
(-6.80986067567e-05 0.000177996351706 0.00425032640963)
(-9.05522594162e-05 0.000176392972735 0.00425286817788)
(-0.000112817378578 0.000174480732055 0.00425545989398)
(-0.000135082694177 0.000172074003766 0.00425718215127)
(-0.000154531667037 0.000171520785344 0.00425602720147)
(0.000144255798281 0.00015876077521 0.0042602283466)
(0.000125725253409 0.000156176274531 0.00425894370748)
(0.000104482309364 0.000156982152323 0.00425592622857)
(8.3586161636e-05 0.000157613085076 0.00425266690864)
(6.26895729939e-05 0.000158188536671 0.00424980109909)
(4.1791337977e-05 0.000158618742556 0.00424761726616)
(2.090470727e-05 0.000158881767906 0.00424625696396)
(2.64477571019e-08 0.000158971036144 0.00424579392471)
(-2.0852205985e-05 0.000158884924089 0.00424625526512)
(-4.17400005695e-05 0.000158625094887 0.00424761447648)
(-6.26401933201e-05 0.000158198138219 0.00424979729277)
(-8.35396370241e-05 0.000157625928215 0.00425266024234)
(-0.000104439473063 0.000156997973489 0.00425590820916)
(-0.000125687057707 0.000156194701882 0.00425892785621)
(-0.000144224452141 0.000158778739939 0.0042602102553)
(1.05942263773e-06 1.75977908951e-06 0.000426587491672)
(5.86990288098e-07 2.30589566665e-06 0.000447379848492)
(3.65339477978e-07 2.60979177118e-06 0.000466041204964)
(1.65624378358e-07 2.82440743653e-06 0.000482079413376)
(3.40037571135e-08 2.95360630496e-06 0.000495060866474)
(-2.490638155e-08 3.02168156721e-06 0.000504607985604)
(-2.86221425661e-08 3.05192729939e-06 0.000510454171667)
(-1.89024571535e-10 3.06021184665e-06 0.000512435854014)
(2.84396396281e-08 3.05181153287e-06 0.0005104545419)
(2.52860356888e-08 3.02147575694e-06 0.000504608825924)
(-3.29217410094e-08 2.95328364196e-06 0.000495062258069)
(-1.64189916406e-07 2.82387905791e-06 0.000482081255695)
(-3.64172935267e-07 2.60902690166e-06 0.000466043436234)
(-5.86284553803e-07 2.30487933801e-06 0.000447384866951)
(-1.05986936102e-06 1.75880996531e-06 0.000426608904874)
(9.99209656444e-06 1.22295732553e-05 0.00121445915641)
(8.5355757227e-06 1.49340644184e-05 0.00127024476084)
(7.36540540246e-06 1.71748833306e-05 0.00132014508319)
(6.03122699008e-06 1.90722648351e-05 0.0013628960792)
(4.58639419034e-06 2.05581090687e-05 0.00139741264775)
(3.08654647833e-06 2.16199408517e-05 0.00142275565126)
(1.55052986858e-06 2.22570242582e-05 0.0014382539536)
(1.42545101054e-09 2.24695770468e-05 0.00144349251646)
(-1.54732324785e-06 2.22567454483e-05 0.00143825515001)
(-3.08234497041e-06 2.16193777937e-05 0.00142275827844)
(-4.58101009963e-06 2.05571320563e-05 0.00139741685134)
(-6.02540564254e-06 1.90706565655e-05 0.00136290145373)
(-7.36058958242e-06 1.71725642997e-05 0.00132015131774)
(-8.53232517804e-06 1.4931190016e-05 0.00127025866636)
(-9.99227628769e-06 1.22268244961e-05 0.00121451246124)
(2.2773662824e-05 2.64622133734e-05 0.00193791887391)
(2.01395672172e-05 3.16539319995e-05 0.00202173080948)
(1.76643273124e-05 3.62096359576e-05 0.00209614975305)
(1.4721616324e-05 4.01334426895e-05 0.00215950592943)
(1.13778427857e-05 4.32726775379e-05 0.00221038738056)
(7.75183481125e-06 4.55560413031e-05 0.00224759593261)
(3.92660471252e-06 4.69437097262e-05 0.00227028348322)
(4.27844169589e-09 4.74096615971e-05 0.00227793102193)
(-3.91769971316e-06 4.69433409978e-05 0.00227028506201)
(-7.74197891711e-06 4.55552048987e-05 0.00224759934026)
(-1.13669413713e-05 4.32710738747e-05 0.00221039263763)
(-1.47105829597e-05 4.01306878914e-05 0.00215951218389)
(-1.76550032828e-05 3.62056047526e-05 0.00209615611816)
(-2.01328853077e-05 3.16492240279e-05 0.00202174622849)
(-2.27724135034e-05 2.64579147846e-05 0.00193798824144)
(3.6893998805e-05 4.17549663706e-05 0.00258781535772)
(3.2888435135e-05 4.92739280671e-05 0.00269095082449)
(2.89245346302e-05 5.59214524063e-05 0.00278148382812)
(2.41695317214e-05 6.16671303267e-05 0.00285782700324)
(1.87297533728e-05 6.62813284799e-05 0.00291864865429)
(1.27856646176e-05 6.96462533325e-05 0.00296285380792)
(6.48547481571e-06 7.16951782515e-05 0.00298969001876)
(7.40802822715e-09 7.23836364732e-05 0.00299870826587)
(-6.47040744299e-06 7.16947786205e-05 0.00298969115996)
(-1.27699440697e-05 6.96452963275e-05 0.00296285622038)
(-1.87134563347e-05 6.6279415782e-05 0.00291865201483)
(-2.41536384435e-05 6.16637906987e-05 0.00285782980803)
(-2.89109594141e-05 5.591647001e-05 0.0027814841995)
(-3.28782972257e-05 4.92682401017e-05 0.0026909575874)
(-3.6890582382e-05 4.17499084769e-05 0.00258788014088)
(5.06015990106e-05 5.62655989599e-05 0.00315579776859)
(4.5113081247e-05 6.56947981244e-05 0.00326900464296)
(3.96299545328e-05 7.39253246139e-05 0.00336688541123)
(3.30687075842e-05 8.10319447146e-05 0.00344840229493)
(2.56029829146e-05 8.67283697497e-05 0.00351267636113)
(1.74651848568e-05 9.08747230662e-05 0.00355902074825)
(8.85606997502e-06 9.33964006955e-05 0.00358699946255)
(1.03006409945e-08 9.4242978678e-05 0.00359636920536)
(-8.83534183396e-06 9.33960401053e-05 0.00358699941224)
(-1.7444176626e-05 9.08738120897e-05 0.00355902056409)
(-2.55819508335e-05 8.6726470918e-05 0.00351267517108)
(-3.30486405931e-05 8.10285485085e-05 0.00344839768486)
(-3.96126452719e-05 7.39201191857e-05 0.00336687403737)
(-4.50996161781e-05 6.56888560085e-05 0.00326899392591)
(-5.05955183782e-05 5.62604282629e-05 0.00315584218913)
(6.28671994883e-05 6.89771938988e-05 0.00363854804666)
(5.58733300013e-05 7.97876736186e-05 0.00375334529664)
(4.89405027748e-05 8.89926863245e-05 0.00385076630048)
(4.07113001727e-05 9.69137649415e-05 0.00393066825869)
(3.14445005569e-05 0.000103232065983 0.00399288055096)
(2.14109864992e-05 0.00010781236159 0.00403730731627)
(1.08453394686e-05 0.000110590406811 0.00406394929981)
(1.27300495003e-08 0.000111521635421 0.00407283668018)
(-1.08198751173e-05 0.000110590153577 0.00406394762089)
(-2.13855975982e-05 0.000107811646588 0.00403730355081)
(-3.14195864229e-05 0.000103230448751 0.00399287309319)
(-4.06878017173e-05 9.69107237522e-05 0.0039306535085)
(-4.89200005936e-05 8.89878407686e-05 0.00385073902658)
(-5.58567229556e-05 7.97820989101e-05 0.00375331106549)
(-6.28581834723e-05 6.89724082683e-05 0.00363856311988)
(7.30885954524e-05 7.93401446164e-05 0.00403808688331)
(6.46537266442e-05 9.09735797717e-05 0.00414763607521)
(5.64136124739e-05 0.000100550208421 0.00423853946436)
(4.67422367053e-05 0.000108749973201 0.00431173932232)
(3.5988430224e-05 0.000115245111138 0.00436788284092)
(2.44467922035e-05 0.000119927806467 0.00440751690703)
(1.23655590889e-05 0.000122757683383 0.00443109686992)
(1.46480142466e-08 0.000123704504126 0.00443892786284)
(-1.23363610329e-05 0.000122757599 0.00443109339773)
(-2.44179561177e-05 0.000119927429144 0.00440750915026)
(-3.596044911e-05 0.000115244019764 0.00436786831339)
(-4.6715965671e-05 0.000108747652461 0.0043117130096)
(-5.63903789962e-05 0.000100546212848 0.00423849400369)
(-6.46342217081e-05 9.09689386539e-05 0.00414757539578)
(-7.30765363043e-05 7.93361650218e-05 0.00403806904403)
(8.0977171171e-05 8.71307458109e-05 0.00436057880719)
(7.12420394559e-05 9.9056558012e-05 0.00446003934601)
(6.18898126143e-05 0.00010847486988 0.00454038010355)
(5.10554428414e-05 0.000116487847381 0.00460366220079)
(3.91700666606e-05 0.000122780348899 0.00465132883659)
(2.65377703999e-05 0.000127287474386 0.00468451541472)
(1.34020475317e-05 0.000129999806674 0.00470407218142)
(1.6119096997e-08 0.000130905438175 0.0047105331437)
(-1.3369982371e-05 0.00012999995997 0.00470406695441)
(-2.65062721836e-05 0.000127287585569 0.00468450369572)
(-3.91396744566e-05 0.000122780025417 0.00465130717624)
(-5.1026910511e-05 0.000116486591186 0.00460362405001)
(-6.18642015262e-05 0.00010847217516 0.00454031596269)
(-7.12198834e-05 9.90533525096e-05 0.0044599522198)
(-8.09621695358e-05 8.71280294513e-05 0.00436052878036)
(8.64804687581e-05 9.23620349493e-05 0.00461479594807)
(7.56433405518e-05 0.000104110912166 0.00470128910705)
(6.54070955838e-05 0.000112947167336 0.00476891822728)
(5.37136292479e-05 0.000120405432897 0.00482076687268)
(4.10581133483e-05 0.00012620275102 0.00485895682987)
(2.77413397389e-05 0.000130324887478 0.00488509017649)
(1.398725378e-05 0.000132794285226 0.00490030823272)
(1.72559196373e-08 0.000133617103476 0.00490530335731)
(-1.39529614017e-05 0.000132794741866 0.00490030141502)
(-2.77077368184e-05 0.000130325625506 0.00488507482605)
(-4.10257468498e-05 0.000126203415927 0.00485892854451)
(-5.36831547141e-05 0.00012040554425 0.00482071760515)
(-6.53793479778e-05 0.000112946173184 0.00476883658827)
(-7.56187477153e-05 0.000104109582399 0.00470117822106)
(-8.64627404558e-05 9.23610242591e-05 0.00461471797038)
(8.97098562799e-05 9.5204455351e-05 0.00481072095356)
(7.80044650394e-05 0.000106382276479 0.00488305169433)
(6.71268105709e-05 0.00011432503532 0.00493738404134)
(5.48802999817e-05 0.000120961324855 0.00497763579903)
(4.1798319571e-05 0.000126058645515 0.00500643433375)
(2.81668118653e-05 0.000129654337661 0.00502569581645)
(1.41796829105e-05 0.000131798454273 0.00503673478187)
(1.81845235733e-08 0.000132511541064 0.0050403268076)
(-1.4143554898e-05 0.000131799264629 0.00503672665188)
(-2.81314246751e-05 0.00012965580608 0.00502567746099)
(-4.17642045987e-05 0.000126060460562 0.00500640053571)
(-5.48480300797e-05 0.000120963028161 0.00497757723426)
(-6.70970552189e-05 0.000114326042661 0.00493728789386)
(-7.79776253648e-05 0.000106383176872 0.00488292242597)
(-8.96896464256e-05 9.52055323014e-05 0.00481062250183)
(9.08777000072e-05 9.59205421863e-05 0.00495844505975)
(7.85523762764e-05 0.000106207804599 0.00501670875922)
(6.72756084976e-05 0.000113045044656 0.00505830938677)
(5.47685658924e-05 0.000118681120533 0.00508775732629)
(4.1572160001e-05 0.000122950905029 0.00510798966378)
(2.79462863596e-05 0.000125938103195 0.00512108034396)
(1.40488293429e-05 0.000127711789302 0.00512840583653)
(1.90144808967e-08 0.000128300831889 0.00513075817569)
(-1.40110427881e-05 0.000127712968932 0.00512839687373)
(-2.79092355563e-05 0.000125940338543 0.00512106010426)
(-4.15363454662e-05 0.00012295393051 0.00510795242138)
(-5.47345087878e-05 0.000118684513654 0.00508769289673)
(-6.72438887811e-05 0.000113048205926 0.00505820410526)
(-7.85234415718e-05 0.000106211156552 0.00501656963237)
(-9.08552597004e-05 9.59239648666e-05 0.00495833727362)
(9.02423992831e-05 9.48113695761e-05 0.00506736920988)
(7.75439612382e-05 0.000103951385219 0.00511253642258)
(6.610319155e-05 0.000109546702582 0.00514272115919)
(5.36069416748e-05 0.000114076766419 0.00516275708266)
(4.0570240929e-05 0.000117455940545 0.0051756915369)
(2.72161686569e-05 0.000119801981239 0.00518361045629)
(1.36656509652e-05 0.000121190473737 0.00518785733504)
(1.98258749689e-08 0.000121651298601 0.00518918794102)
(-1.3626228095e-05 0.000121191997969 0.0051878484118)
(-2.71774407779e-05 0.000119804927474 0.00518359036536)
(-4.05326761785e-05 0.000117460103385 0.00517565457546)
(-5.35710373245e-05 0.000114081767355 0.0051626928372)
(-6.60695082055e-05 0.000109551965004 0.00514261562413)
(-7.75130650698e-05 0.000103957189156 0.00511239993064)
(-9.02179366753e-05 9.48172310839e-05 0.00506726778194)
(8.80548485706e-05 9.2159456266e-05 0.00514564605142)
(7.52304045211e-05 9.99439910256e-05 0.00517919601255)
(6.38633422447e-05 0.000104219813436 0.00519971173117)
(5.16266958136e-05 0.000107598305288 0.00521205538518)
(3.8981838917e-05 0.000110080257885 0.00521918915709)
(2.61092484195e-05 0.000111794380802 0.00522307958122)
(1.30982624073e-05 0.000112807527422 0.00522495981195)
(2.06654612424e-08 0.000113143968817 0.00522551062791)
(-1.30571489969e-05 0.000112809317184 0.00522495243706)
(-2.60687780484e-05 0.000111797886908 0.0052230631058)
(-3.89424522872e-05 0.000110085329642 0.00521915874816)
(-5.15888995532e-05 0.000107604640322 0.00521200137215)
(-6.38277268905e-05 0.000104226884726 0.00519962003486)
(-7.51976964783e-05 9.99520019204e-05 0.00517907953009)
(-8.80285892877e-05 9.21675966424e-05 0.00514557058697)
(8.45586351841e-05 8.8217991559e-05 0.00519977056084)
(7.18887466662e-05 9.45965478827e-05 0.0052234669121)
(6.08494995714e-05 9.74638450365e-05 0.00523629090648)
(4.90774221708e-05 9.96820021748e-05 0.00524281925795)
(3.69996981813e-05 0.000101292996693 0.00524574947047)
(2.47547180088e-05 0.000102403953595 0.00524681038758)
(1.24111159777e-05 0.000103060803208 0.00524706202955)
(2.15394935637e-08 0.000103279240975 0.00524708246477)
(-1.23682420928e-05 0.000103062731074 0.00524705845811)
(-2.47124566894e-05 0.000102407760484 0.00524680264321)
(-3.69584747977e-05 0.000101298585658 0.00524573485108)
(-4.9037775852e-05 9.96891650976e-05 0.0052427906118)
(-6.0812080059e-05 9.74721897013e-05 0.00523623472791)
(-7.1854429205e-05 9.46062405127e-05 0.00522339450348)
(-8.4530744184e-05 8.82280137881e-05 0.00519974220887)
(7.98440047844e-05 8.45198989778e-05 0.00523425439712)
(6.7837791406e-05 8.85121197973e-05 0.00525029596743)
(5.73349291017e-05 8.97785975114e-05 0.00525748384851)
(4.61662340962e-05 9.07949297718e-05 0.00526013150469)
(3.47736630654e-05 9.15024399228e-05 0.00526048344798)
(2.32482342007e-05 9.19840708395e-05 0.00525992104015)
(1.16507272067e-05 9.226605831e-05 0.0052592809813)
(2.24297583828e-08 9.23596451965e-05 0.00525901901498)
(-1.16060818913e-05 9.2267889416e-05 0.00525928349937)
(-2.32042141085e-05 9.19877123412e-05 0.00525992714988)
(-3.47307009423e-05 9.15078538856e-05 0.00526049393779)
(-4.61248875214e-05 9.08020343798e-05 0.00526014466868)
(-5.72959082057e-05 8.97871701438e-05 0.00525748900597)
(-6.78023040329e-05 8.85225223429e-05 0.00525030982365)
(-7.98145534641e-05 8.45307529989e-05 0.00523427372075)
(-1.05773988997e-07 -2.93599529784e-07 0.000291569115476)
(6.39125019807e-08 -4.64596451847e-07 0.000305742561863)
(2.14043000614e-07 -5.64984518577e-07 0.000318344075796)
(2.90712725214e-07 -5.94752760029e-07 0.000329147643)
(2.99499924628e-07 -5.82410863369e-07 0.000337877719492)
(2.41540679669e-07 -5.52240912768e-07 0.000344296525068)
(1.34697258288e-07 -5.2520448333e-07 0.000348229105318)
(8.0726451535e-10 -5.14621987215e-07 0.000349564632103)
(-1.33157352093e-07 -5.25284984022e-07 0.000348230242943)
(-2.40193269742e-07 -5.52381648373e-07 0.000344298648264)
(-2.983161299e-07 -5.82538847891e-07 0.000337880535135)
(-2.89295958001e-07 -5.94699886997e-07 0.000329150920594)
(-2.12455173948e-07 -5.64953360153e-07 0.00031834816708)
(-6.24965885114e-08 -4.64362729656e-07 0.000305750205185)
(1.06659198062e-07 -2.93427482641e-07 0.000291592809381)
(1.0767993222e-06 8.11252356177e-07 0.000880374550401)
(1.37843555424e-06 7.42235856455e-07 0.000922754574886)
(1.60989973413e-06 8.36768387903e-07 0.000960533840077)
(1.62797293162e-06 1.0705473375e-06 0.000992920179042)
(1.44738381523e-06 1.35571058243e-06 0.00101909280179)
(1.08052247587e-06 1.62013439766e-06 0.00103834132806)
(5.78194196587e-07 1.80392434787e-06 0.00105013267111)
(2.42452045911e-09 1.86964253898e-06 0.00105412511169)
(-5.73474896286e-07 1.8036194006e-06 0.00105013563217)
(-1.07613230897e-06 1.61958247857e-06 0.00103834680883)
(-1.44324763624e-06 1.3550764243e-06 0.00101909995504)
(-1.62347394223e-06 1.07016576874e-06 0.000992928309319)
(-1.60512474547e-06 8.36337194987e-07 0.00096054391277)
(-1.37421182374e-06 7.42314593575e-07 0.00092277467896)
(-1.07426776398e-06 8.11334138335e-07 0.000880434259396)
(3.78946336647e-06 3.71671102918e-06 0.00146555682442)
(4.04431422162e-06 4.18150522407e-06 0.0015351005253)
(4.1459175993e-06 4.8626147869e-06 0.00159702001575)
(3.88165829957e-06 5.68563831361e-06 0.00164999479864)
(3.28052259197e-06 6.49541113232e-06 0.00169273290717)
(2.37403929733e-06 7.17108447215e-06 0.00172412440854)
(1.24775187794e-06 7.61617644856e-06 0.0017433328416)
(4.03745804372e-09 7.77147403855e-06 0.00174982278407)
(-1.23980775798e-06 7.61556303439e-06 0.00174333666547)
(-2.36641864488e-06 7.16995453317e-06 0.0017241313843)
(-3.27313907239e-06 6.49402115866e-06 0.00169274170353)
(-3.87393424117e-06 5.68439962399e-06 0.00165000419664)
(-4.13801176033e-06 4.86133726754e-06 0.00159703106899)
(-4.03722163821e-06 4.18089359489e-06 0.00153512486814)
(-3.78515743718e-06 3.71654049844e-06 0.00146563699037)
(8.09789140405e-06 8.4359960453e-06 0.00203763305847)
(8.15263297689e-06 9.80096924695e-06 0.00213156131205)
(7.92711783819e-06 1.13945984654e-05 0.00221477885903)
(7.15553112843e-06 1.30763874351e-05 0.00228563767365)
(5.89019345114e-06 1.46168287863e-05 0.00234257041148)
(4.19006804383e-06 1.58477620699e-05 0.00238425400723)
(2.1798359937e-06 1.66389629689e-05 0.00240969883251)
(5.75214046232e-09 1.69118165532e-05 0.00241827651107)
(-2.16845905738e-06 1.6638188325e-05 0.00240970215912)
(-4.1790047078e-06 1.58463156534e-05 0.00238425980053)
(-5.87939968952e-06 1.4614980613e-05 0.00234257690643)
(-7.14459282303e-06 1.30745525095e-05 0.00228564302376)
(-7.91630108097e-06 1.13927499804e-05 0.00221478360645)
(-8.14290118641e-06 9.79992552548e-06 0.00213157870358)
(-8.09177710008e-06 8.43585861704e-06 0.00203771383255)
(1.35633691392e-05 1.44213096404e-05 0.00258481815449)
(1.32840669447e-05 1.68635984837e-05 0.00269843902489)
(1.25714996128e-05 1.94981856957e-05 0.00279821110286)
(1.11183588871e-05 2.21264590804e-05 0.00288250536434)
(9.01191158848e-06 2.44496971785e-05 0.00294978322525)
(6.34418129249e-06 2.62631302419e-05 0.00299878398113)
(3.27976557641e-06 2.74124699285e-05 0.00302858323909)
(7.53736301363e-09 2.78061225862e-05 0.00303860238967)
(-3.26482815801e-06 2.74116812897e-05 0.0030285848058)
(-6.32959019488e-06 2.62616403349e-05 0.00299878606652)
(-8.99769345935e-06 2.44477392003e-05 0.00294978360211)
(-1.11042788198e-05 2.21244143523e-05 0.00288250139069)
(-1.25579199065e-05 1.94961531208e-05 0.00279820225823)
(-1.32718836104e-05 1.68625286911e-05 0.00269843893846)
(-1.355534681e-05 1.44214318738e-05 0.00258488332398)
(1.96741326431e-05 2.1070733249e-05 0.00309528411957)
(1.89490697713e-05 2.45902238118e-05 0.00322243587805)
(1.76315058151e-05 2.82124217567e-05 0.00333267458363)
(1.53831127645e-05 3.17104316791e-05 0.00342481040405)
(1.23371608533e-05 3.47317311586e-05 0.00349767778751)