/*--------------------------------*- C++ -*----------------------------------*\
  =========                 |
  \\      /  F ield         | OpenFOAM: The Open Source CFD Toolbox
   \\    /   O peration     | Website:  https://openfoam.org
    \\  /    A nd           | Version:  7
     \\/     M anipulation  |
\*---------------------------------------------------------------------------*/
FoamFile
{
    version     2.0;
    format      ascii;
    class       volScalarField;
    location    "0.2";
    object      p;
}
// * * * * * * * * * * * * * * * * * * * * * * * * * * * * * * * * * * * * * //

dimensions      [0 2 -2 0 0 0 0];

internalField   nonuniform List<scalar> 
22500
(
-1.90509294761e-05
-1.9050652388e-05
-1.9051054278e-05
-1.90511085472e-05
-1.90513191559e-05
-1.90515147194e-05
-1.90516635373e-05
-1.90517170656e-05
-1.90516801965e-05
-1.90515477482e-05
-1.90513677812e-05
-1.90511717721e-05
-1.90511308854e-05
-1.90507408741e-05
-1.90510323119e-05
-1.90514078984e-05
-1.90510066409e-05
-1.90514281349e-05
-1.90514603072e-05
-1.90516305863e-05
-1.90517851428e-05
-1.90519056891e-05
-1.90519512152e-05
-1.90519235834e-05
-1.90518206137e-05
-1.90516828427e-05
-1.90515282645e-05
-1.90515106075e-05
-1.90511019344e-05
-1.90515185897e-05
-1.90506802951e-05
-1.90500607336e-05
-1.90503084832e-05
-1.90501682353e-05
-1.90501848236e-05
-1.90502116847e-05
-1.90502499685e-05
-1.90502684728e-05
-1.90502692778e-05
-1.90502499686e-05
-1.90502412661e-05
-1.90502416662e-05
-1.90503976627e-05
-1.90501635973e-05
-1.90507991976e-05
-1.90481039945e-05
-1.90470782887e-05
-1.9046854819e-05
-1.90463142358e-05
-1.90459843977e-05
-1.90457398302e-05
-1.90456053814e-05
-1.90455656989e-05
-1.90456260056e-05
-1.90457807529e-05
-1.90460447743e-05
-1.90463928357e-05
-1.90469502594e-05
-1.90471882972e-05
-1.90482300804e-05
-1.90432274803e-05
-1.90414876454e-05
-1.90404600075e-05
-1.90392391295e-05
-1.90383197966e-05
-1.90376200593e-05
-1.90371969759e-05
-1.90370594285e-05
-1.90372188689e-05
-1.90376635146e-05
-1.90383839174e-05
-1.90393226232e-05
-1.90405613254e-05
-1.90416044769e-05
-1.90433600389e-05
-1.90356955722e-05
-1.90328335252e-05
-1.90306560419e-05
-1.90284435206e-05
-1.90266653166e-05
-1.90253059615e-05
-1.90244656959e-05
-1.90241863801e-05
-1.90244888561e-05
-1.90253519251e-05
-1.90267331249e-05
-1.90285317908e-05
-1.90307630576e-05
-1.90329569462e-05
-1.90358340331e-05
-1.90252421194e-05
-1.90207842227e-05
-1.90171135721e-05
-1.90135917802e-05
-1.90106831507e-05
-1.90084588927e-05
-1.90070732628e-05
-1.90066085314e-05
-1.90070976917e-05
-1.90085073574e-05
-1.90107546083e-05
-1.90136847345e-05
-1.90172261006e-05
-1.90209140347e-05
-1.90253861446e-05
-1.90116870361e-05
-1.90051427677e-05
-1.89996570918e-05
-1.89945328949e-05
-1.89902475094e-05
-1.89869741336e-05
-1.89849293859e-05
-1.89842407064e-05
-1.89849550927e-05
-1.89870251081e-05
-1.89903226025e-05
-1.89946304765e-05
-1.89997750161e-05
-1.90052787445e-05
-1.90118365101e-05
-1.89949469655e-05
-1.898586677e-05
-1.89782903514e-05
-1.89713274125e-05
-1.89654717717e-05
-1.89610075914e-05
-1.89582179388e-05
-1.89572765246e-05
-1.8958244912e-05
-1.89610610428e-05
-1.89655504433e-05
-1.89714295135e-05
-1.89784135251e-05
-1.8986008645e-05
-1.8995101932e-05
-1.89750537214e-05
-1.8963082785e-05
-1.89532123482e-05
-1.89442588111e-05
-1.89367150029e-05
-1.89309779624e-05
-1.89273962169e-05
-1.89261866398e-05
-1.89274244037e-05
-1.89310337849e-05
-1.89367970973e-05
-1.89443652335e-05
-1.89533405372e-05
-1.89632302281e-05
-1.89752141936e-05
-1.89521625085e-05
-1.89370820033e-05
-1.89248144989e-05
-1.89138223144e-05
-1.89045618971e-05
-1.88975393063e-05
-1.8893162707e-05
-1.88916848608e-05
-1.88931919957e-05
-1.88975972866e-05
-1.89046471173e-05
-1.89139326984e-05
-1.89249473229e-05
-1.89372345688e-05
-1.89523284471e-05
-1.89264714127e-05
-1.89082846079e-05
-1.88936694398e-05
-1.88807059308e-05
-1.88697928312e-05
-1.88615426175e-05
-1.88564134984e-05
-1.88546828106e-05
-1.88564437115e-05
-1.88616024101e-05
-1.88698807075e-05
-1.8880819726e-05
-1.8893806319e-05
-1.89084416807e-05
-1.89266425949e-05
-1.88980325046e-05
-1.88772270265e-05
-1.88605230173e-05
-1.88457589535e-05
-1.88333432568e-05
-1.88239952886e-05
-1.88182035035e-05
-1.88162520157e-05
-1.8818234362e-05
-1.88240563822e-05
-1.88334330754e-05
-1.88458753291e-05
-1.88606630847e-05
-1.88773877377e-05
-1.88982081973e-05
-1.886757283e-05
-1.8844790812e-05
-1.88261993986e-05
-1.88098114969e-05
-1.87961162476e-05
-1.87858862798e-05
-1.87795827207e-05
-1.87774638846e-05
-1.87796137921e-05
-1.87859478219e-05
-1.87962068196e-05
-1.88099290313e-05
-1.88263412083e-05
-1.88449539552e-05
-1.88677517619e-05
-1.88402987309e-05
-1.88123998183e-05
-1.87916534888e-05
-1.87735613184e-05
-1.87587643915e-05
-1.87478645369e-05
-1.87412009406e-05
-1.87389687518e-05
-1.87412317368e-05
-1.87479255958e-05
-1.87588544014e-05
-1.87736784218e-05
-1.87917953225e-05
-1.88125640138e-05
-1.88404791451e-05
-2.26570195501e-05
-2.26560622862e-05
-2.2654792341e-05
-2.26536545006e-05
-2.26526410508e-05
-2.26518611313e-05
-2.26513660955e-05
-2.2651194231e-05
-2.26513580168e-05
-2.26518449573e-05
-2.26526167287e-05
-2.26536220556e-05
-2.26547523435e-05
-2.26560157827e-05
-2.26569669217e-05
-2.26524931588e-05
-2.26516418666e-05
-2.26504552539e-05
-2.26494122327e-05
-2.26484841355e-05
-2.26477719929e-05
-2.26473203919e-05
-2.26471632622e-05
-2.26473119609e-05
-2.26477551231e-05
-2.26484587991e-05
-2.26493784758e-05
-2.26504135923e-05
-2.26515935869e-05
-2.26524384462e-05
-2.26510664642e-05
-2.26506437917e-05
-2.26498160425e-05
-2.2649114708e-05
-2.26484695368e-05
-2.26479704457e-05
-2.26476506335e-05
-2.26475379612e-05
-2.2647641937e-05
-2.26479530561e-05
-2.2648443476e-05
-2.26490800949e-05
-2.26497733279e-05
-2.26505944162e-05
-2.26510101941e-05
-2.26529955715e-05
-2.26531318601e-05
-2.26527535632e-05
-2.26524531376e-05
-2.2652125913e-05
-2.26518566444e-05
-2.26516751268e-05
-2.26516085093e-05
-2.26516664785e-05
-2.26518393115e-05
-2.26520999452e-05
-2.2652418688e-05
-2.2652711001e-05
-2.26530825982e-05
-2.26529389403e-05
-2.26564499479e-05
-2.26569928989e-05
-2.26569096371e-05
-2.26568432514e-05
-2.26566826062e-05
-2.26565213678e-05
-2.26563995906e-05
-2.26563519322e-05
-2.26563912278e-05
-2.26565045763e-05
-2.26566574363e-05
-2.26568098363e-05
-2.26568682728e-05
-2.2656944878e-05
-2.26563941831e-05
-2.26599776107e-05
-2.26606191192e-05
-2.26605671786e-05
-2.26604807662e-05
-2.26602730575e-05
-2.2660057916e-05
-2.26598953007e-05
-2.26598325459e-05
-2.2659887371e-05
-2.26600419774e-05
-2.266024915e-05
-2.26604489947e-05
-2.26605277513e-05
-2.26605732347e-05
-2.26599236967e-05
-2.266269454e-05
-2.26631005278e-05
-2.26628262146e-05
-2.2662490595e-05
-2.26620529267e-05
-2.2661650937e-05
-2.266136722e-05
-2.26612626054e-05
-2.26613598176e-05
-2.26616360443e-05
-2.26620305645e-05
-2.26624608352e-05
-2.26627891824e-05
-2.26630573104e-05
-2.26626432352e-05
-2.26641466125e-05
-2.2664036299e-05
-2.26633517036e-05
-2.26626081007e-05
-2.26618204485e-05
-2.26611482289e-05
-2.26606946457e-05
-2.26605321976e-05
-2.26606878188e-05
-2.26611344788e-05
-2.26617997768e-05
-2.26625805432e-05
-2.26633173304e-05
-2.26639960337e-05
-2.26640984406e-05
-2.26641925071e-05
-2.26633696194e-05
-2.26621601152e-05
-2.26609206568e-05
-2.26597213095e-05
-2.2658738948e-05
-2.26580934108e-05
-2.26578661383e-05
-2.26580871888e-05
-2.26587263978e-05
-2.26597024079e-05
-2.26608953959e-05
-2.26621285156e-05
-2.26633324395e-05
-2.26641477195e-05
-2.2662888248e-05
-2.26612415128e-05
-2.26594516192e-05
-2.26576826745e-05
-2.26560525013e-05
-2.26547509346e-05
-2.26539099837e-05
-2.26536171187e-05
-2.26539043844e-05
-2.26547396184e-05
-2.2656035414e-05
-2.26576597628e-05
-2.26594228503e-05
-2.2661207474e-05
-2.26628470153e-05
-2.26603904358e-05
-2.26578810777e-05
-2.26554971199e-05
-2.26532017272e-05
-2.26511502357e-05
-2.26495412698e-05
-2.26485141432e-05
-2.26481591798e-05
-2.26485091809e-05
-2.26495312153e-05
-2.26511349957e-05
-2.26531811919e-05
-2.26554711966e-05
-2.26578501864e-05
-2.26603527999e-05
-2.26569035356e-05
-2.26535466135e-05
-2.26505802697e-05
-2.2647783841e-05
-2.26453398368e-05
-2.26434501943e-05
-2.26422555306e-05
-2.26418451556e-05
-2.26422512159e-05
-2.26434414183e-05
-2.26453264669e-05
-2.26477657001e-05
-2.26505571931e-05
-2.26535188465e-05
-2.26568695016e-05
-2.26526721095e-05
-2.26484956896e-05
-2.26449642559e-05
-2.26417060229e-05
-2.2638914396e-05
-2.26367842358e-05
-2.26354492777e-05
-2.26349931281e-05
-2.26354456132e-05
-2.26367767529e-05
-2.26389029061e-05
-2.26416902883e-05
-2.26449440157e-05
-2.26484710308e-05
-2.2652641655e-05
-2.26478447355e-05
-2.26428558925e-05
-2.26388191178e-05
-2.2635173359e-05
-2.26321146188e-05
-2.26298106973e-05
-2.26283786161e-05
-2.26278916146e-05
-2.26283756042e-05
-2.26298045038e-05
-2.26321050264e-05
-2.26351600446e-05
-2.26388017335e-05
-2.26428343141e-05
-2.26478178732e-05
-2.26417118509e-05
-2.26366471944e-05
-2.2632263891e-05
-2.26283834997e-05
-2.26252019917e-05
-2.26228345201e-05
-2.26213737317e-05
-2.26208790484e-05
-2.26213713542e-05
-2.2622829596e-05
-2.26251942689e-05
-2.26283726085e-05
-2.26322493325e-05
-2.26366285637e-05
-2.26416886139e-05
-1.80379023196e-05
-1.80384997925e-05
-1.80391563272e-05
-1.80398146799e-05
-1.80404019273e-05
-1.8040861426e-05
-1.80411534333e-05
-1.80412530886e-05
-1.80411505237e-05
-1.80408557532e-05
-1.80403937922e-05
-1.8039804433e-05
-1.80391438067e-05
-1.8038485637e-05
-1.80378867314e-05
-1.80385161212e-05
-1.80391014414e-05
-1.80397582488e-05
-1.8040418869e-05
-1.80410103911e-05
-1.8041474471e-05
-1.80417700199e-05
-1.80418711009e-05
-1.80417670795e-05
-1.80414687293e-05
-1.80410021564e-05
-1.80404084918e-05
-1.80397456833e-05
-1.80390871489e-05
-1.80385004625e-05
-1.80383557795e-05
-1.80388770496e-05
-1.8039479768e-05
-1.80400962869e-05
-1.80406544619e-05
-1.80410954383e-05
-1.80413775345e-05
-1.80414742552e-05
-1.80413746264e-05
-1.80410897527e-05
-1.80406462842e-05
-1.80400859503e-05
-1.8039467332e-05
-1.80388628579e-05
-1.8038340258e-05
-1.80380616124e-05
-1.80385354942e-05
-1.8039095503e-05
-1.80396762905e-05
-1.80402077926e-05
-1.80406306093e-05
-1.80409023028e-05
-1.80409956553e-05
-1.80408994188e-05
-1.80406249856e-05
-1.80401996822e-05
-1.80396660117e-05
-1.80390832011e-05
-1.80385214701e-05
-1.80380462296e-05
-1.80378412071e-05
-1.80382926536e-05
-1.80388300974e-05
-1.80393913518e-05
-1.80399088902e-05
-1.8040322718e-05
-1.80405895543e-05
-1.80406813972e-05
-1.80405867135e-05
-1.80403171811e-05
-1.80399008909e-05
-1.80393811896e-05
-1.80388179516e-05
-1.80382788215e-05
-1.8037826012e-05
-1.80376947404e-05
-1.80381432523e-05
-1.80386728639e-05
-1.80392266767e-05
-1.80397393664e-05
-1.80401505457e-05
-1.80404162463e-05
-1.80405078049e-05
-1.80404134664e-05
-1.80401451244e-05
-1.80397315172e-05
-1.80392166823e-05
-1.80386609326e-05
-1.80381296221e-05
-1.80376798129e-05
-1.8037616089e-05
-1.80380778966e-05
-1.80386110524e-05
-1.8039166702e-05
-1.80396812249e-05
-1.80400941848e-05
-1.80403612229e-05
-1.80404532826e-05
-1.80403585155e-05
-1.80400889036e-05
-1.80396735668e-05
-1.80391569292e-05
-1.80385993859e-05
-1.80380645268e-05
-1.80376014517e-05
-1.80376071308e-05
-1.80380958131e-05
-1.80386412526e-05
-1.8039205571e-05
-1.80397264421e-05
-1.80401438814e-05
-1.80404136088e-05
-1.80405065651e-05
-1.80404109861e-05
-1.80401387629e-05
-1.80397190062e-05
-1.80391960573e-05
-1.80386298844e-05
-1.80380827497e-05
-1.80375927949e-05
-1.80376651909e-05
-1.8038190895e-05
-1.80387543976e-05
-1.80393313327e-05
-1.80398605529e-05
-1.80402831869e-05
-1.80405556791e-05
-1.80406494867e-05
-1.80405531522e-05
-1.8040278251e-05
-1.80398533705e-05
-1.8039322118e-05
-1.80387433613e-05
-1.80381781773e-05
-1.80376511889e-05
-1.80377819598e-05
-1.80383508479e-05
-1.80389351951e-05
-1.80395257386e-05
-1.80400627238e-05
-1.80404892312e-05
-1.8040763267e-05
-1.80408574346e-05
-1.80407608435e-05
-1.8040484493e-05
-1.80400558151e-05
-1.80395168494e-05
-1.80389245187e-05
-1.80383385056e-05
-1.80377683085e-05
-1.80379461091e-05
-1.80385603323e-05
-1.80391656883e-05
-1.80397682356e-05
-1.80403100669e-05
-1.80407372713e-05
-1.80410104399e-05
-1.80411040707e-05
-1.8041008127e-05
-1.80407327449e-05
-1.80403034546e-05
-1.80397597011e-05
-1.80391554076e-05
-1.803854841e-05
-1.80379328372e-05
-1.80381429649e-05
-1.80388020935e-05
-1.80394275122e-05
-1.80400389806e-05
-1.8040581101e-05
-1.80410044144e-05
-1.80412733965e-05
-1.80413652725e-05
-1.80412712005e-05
-1.80410001094e-05
-1.80405747999e-05
-1.8040030826e-05
-1.8039417659e-05
-1.80387906434e-05
-1.80381301318e-05
-1.80383463927e-05
-1.80390537509e-05
-1.80397013879e-05
-1.80403196135e-05
-1.80408574759e-05
-1.80412721506e-05
-1.80415334797e-05
-1.80416223545e-05
-1.80415314028e-05
-1.80412680754e-05
-1.80408515024e-05
-1.804031186e-05
-1.80396919967e-05
-1.80390428114e-05
-1.80383340266e-05
-1.80385469178e-05
-1.80393134496e-05
-1.8039980593e-05
-1.80406003854e-05
-1.80411266952e-05
-1.80415263513e-05
-1.80417758552e-05
-1.80418602428e-05
-1.80417739021e-05
-1.80415225221e-05
-1.80411210649e-05
-1.80405930659e-05
-1.8039971712e-05
-1.80393030843e-05
-1.80385350597e-05
-1.80390552106e-05
-1.80397340964e-05
-1.80403648542e-05
-1.80409342014e-05
-1.80414056983e-05
-1.80417589624e-05
-1.80419776718e-05
-1.80420512699e-05
-1.80419758586e-05
-1.8041755399e-05
-1.80414004617e-05
-1.80409273791e-05
-1.80403565611e-05
-1.80397244271e-05
-1.8039044011e-05
-1.96327756489e-05
-1.96323822944e-05
-1.96319549122e-05
-1.96315214105e-05
-1.96311354565e-05
-1.96308331477e-05
-1.96306408351e-05
-1.96305747793e-05
-1.96306416219e-05
-1.96308346631e-05
-1.9631137564e-05
-1.96315238125e-05
-1.96319575235e-05
-1.96323848333e-05
-1.96327787688e-05
-1.96325819793e-05
-1.96322015338e-05
-1.96317787874e-05
-1.96313476243e-05
-1.96309619411e-05
-1.96306588514e-05
-1.96304655644e-05
-1.9630399034e-05
-1.96304664021e-05
-1.96306604625e-05
-1.96309641709e-05
-1.96313501564e-05
-1.96317814366e-05
-1.96322041131e-05
-1.96325849402e-05
-1.96328976887e-05
-1.96325638405e-05
-1.96321823443e-05
-1.96317846426e-05
-1.96314247588e-05
-1.96311397169e-05
-1.96309570534e-05
-1.96308939854e-05
-1.96309578507e-05
-1.96311412518e-05
-1.96314268895e-05
-1.96317871054e-05
-1.96321849222e-05
-1.96325664608e-05
-1.96329005948e-05
-1.96332346763e-05
-1.96329345427e-05
-1.96325856326e-05
-1.9632215301e-05
-1.96318765956e-05
-1.9631606367e-05
-1.96314324141e-05
-1.96313721994e-05
-1.96314331568e-05
-1.96316077985e-05
-1.96318785911e-05
-1.96322176461e-05
-1.96325881342e-05
-1.96329371507e-05
-1.96332375634e-05
-1.96334905986e-05
-1.96332097102e-05
-1.96328815786e-05
-1.96325297347e-05
-1.96322054793e-05
-1.96319454075e-05
-1.96317774105e-05
-1.96317191533e-05
-1.96317781168e-05
-1.96319467702e-05
-1.96322073912e-05
-1.96325320044e-05
-1.96328840517e-05
-1.96332123134e-05
-1.96334934795e-05
-1.96336947617e-05
-1.96334241681e-05
-1.96331096595e-05
-1.9632770966e-05
-1.96324573644e-05
-1.96322049645e-05
-1.96320415341e-05
-1.96319847913e-05
-1.96320422057e-05
-1.96322062632e-05
-1.96324591929e-05
-1.96327731636e-05
-1.96331120843e-05
-1.96334268007e-05
-1.96336975878e-05
-1.96338645823e-05
-1.96335977984e-05
-1.96332916702e-05
-1.96329623521e-05
-1.96326568631e-05
-1.96324106083e-05
-1.96322509613e-05
-1.9632195504e-05
-1.96322516049e-05
-1.96324118572e-05
-1.96326586289e-05
-1.96329644989e-05
-1.96332940604e-05
-1.96336004556e-05
-1.96338673786e-05
-1.96340049718e-05
-1.96337368272e-05
-1.96334349232e-05
-1.9633112146e-05
-1.9632812997e-05
-1.96325719497e-05
-1.96324156785e-05
-1.96323614074e-05
-1.96324162957e-05
-1.96325731504e-05
-1.96328147051e-05
-1.96331142453e-05
-1.9633437299e-05
-1.9633739502e-05
-1.96340077787e-05
-1.96341202883e-05
-1.9633846893e-05
-1.96335462201e-05
-1.9633228131e-05
-1.96329344115e-05
-1.96326982966e-05
-1.96325454223e-05
-1.96324923847e-05
-1.96325460187e-05
-1.96326994602e-05
-1.96329360769e-05
-1.9633230198e-05
-1.96335485922e-05
-1.96338495925e-05
-1.96341230923e-05
-1.96342158e-05
-1.96339345509e-05
-1.96336332045e-05
-1.96333189278e-05
-1.96330305864e-05
-1.96327997918e-05
-1.96326507594e-05
-1.96325991458e-05
-1.96326513375e-05
-1.9632800924e-05
-1.96330322156e-05
-1.96333209723e-05
-1.96336355817e-05
-1.96339372846e-05
-1.96342186154e-05
-1.96342966002e-05
-1.96340058961e-05
-1.96337028465e-05
-1.96333923361e-05
-1.96331100984e-05
-1.96328856483e-05
-1.96327413077e-05
-1.96326914526e-05
-1.9632741872e-05
-1.96328867559e-05
-1.96331117014e-05
-1.96333943618e-05
-1.96337052271e-05
-1.96340086479e-05
-1.96342994099e-05
-1.96343678254e-05
-1.96340663614e-05
-1.96337608713e-05
-1.963345449e-05
-1.96331796296e-05
-1.96329630294e-05
-1.96328245638e-05
-1.963277691e-05
-1.96328251167e-05
-1.96329641182e-05
-1.96331812098e-05
-1.96334565023e-05
-1.96337632506e-05
-1.96340691133e-05
-1.96343706068e-05
-1.96344397627e-05
-1.963412431e-05
-1.96338139176e-05
-1.96335110251e-05
-1.9633244285e-05
-1.96330367759e-05
-1.96329052074e-05
-1.9632860159e-05
-1.96329057501e-05
-1.96330378441e-05
-1.96332458463e-05
-1.96335130172e-05
-1.96338162875e-05
-1.96341270444e-05
-1.96344424984e-05
-1.96345178424e-05
-1.96341813256e-05
-1.96338644652e-05
-1.96335648448e-05
-1.96333074203e-05
-1.96331103559e-05
-1.96329866919e-05
-1.96329446008e-05
-1.96329872178e-05
-1.96331114029e-05
-1.9633308948e-05
-1.96335668092e-05
-1.96338668089e-05
-1.96341840221e-05
-1.96345204839e-05
-1.96344304835e-05
-1.96341244047e-05
-1.96338341859e-05
-1.96335687561e-05
-1.96333461076e-05
-1.96331779873e-05
-1.96330733599e-05
-1.96330379507e-05
-1.96330738678e-05
-1.96331789927e-05
-1.96333475903e-05
-1.9633570669e-05
-1.96338364849e-05
-1.96341270642e-05
-1.96344331211e-05
-1.70176826932e-05
-1.70179461219e-05
-1.70182327909e-05
-1.70185240345e-05
-1.70187835577e-05
-1.70189869957e-05
-1.70191163003e-05
-1.70191606619e-05
-1.70191156922e-05
-1.70189858874e-05
-1.7018782155e-05
-1.70185223326e-05
-1.70182305349e-05
-1.70179436854e-05
-1.70176796024e-05
-1.70177913826e-05
-1.70180460006e-05
-1.70183295389e-05
-1.70186193981e-05
-1.70188790198e-05
-1.70190832233e-05
-1.70192133612e-05
-1.70192581111e-05
-1.70192127354e-05
-1.70190820775e-05
-1.70188775534e-05
-1.70186176349e-05
-1.70183272424e-05
-1.70180434146e-05
-1.70177881859e-05
-1.70175605814e-05
-1.70177841317e-05
-1.70180403524e-05
-1.70183082717e-05
-1.70185510205e-05
-1.70187434326e-05
-1.70188666542e-05
-1.70189091509e-05
-1.70188660391e-05
-1.70187422929e-05
-1.70185495283e-05
-1.70183064666e-05
-1.70180380758e-05
-1.70177815284e-05
-1.70175574237e-05
-1.70173218428e-05
-1.70175229042e-05
-1.70177575496e-05
-1.70180074777e-05
-1.70182362613e-05
-1.70184188629e-05
-1.70185363233e-05
-1.70185769304e-05
-1.70185357269e-05
-1.70184177424e-05
-1.7018234753e-05
-1.70180056461e-05
-1.70177553002e-05
-1.70175203511e-05
-1.70173187226e-05
-1.7017139592e-05
-1.70173271285e-05
-1.70175474264e-05
-1.70177845832e-05
-1.70180032517e-05
-1.70181786625e-05
-1.70182918771e-05
-1.7018331084e-05
-1.70182912981e-05
-1.70181775658e-05
-1.70180017523e-05
-1.70177827529e-05
-1.70175452052e-05
-1.70173246416e-05
-1.70171365143e-05
-1.70169903756e-05
-1.70171691975e-05
-1.7017378883e-05
-1.70176057829e-05
-1.70178159603e-05
-1.7017985118e-05
-1.70180945607e-05
-1.70181325066e-05
-1.70180940025e-05
-1.70179840529e-05
-1.70178144826e-05
-1.70176039711e-05
-1.70173767071e-05
-1.70171667447e-05
-1.70169873841e-05
-1.70168596743e-05
-1.70170325895e-05
-1.701723391e-05
-1.70174518687e-05
-1.70176542205e-05
-1.70178173643e-05
-1.70179230664e-05
-1.7017959738e-05
-1.70179225308e-05
-1.70178163375e-05
-1.70176527825e-05
-1.70174500949e-05
-1.70172317967e-05
-1.70170301896e-05
-1.70168567559e-05
-1.70167419565e-05
-1.70169107903e-05
-1.70171052334e-05
-1.70173149598e-05
-1.70175096711e-05
-1.70176666807e-05
-1.70177684507e-05
-1.70178037595e-05
-1.701776794e-05
-1.7017665697e-05
-1.701750828e-05
-1.70173132296e-05
-1.70171031765e-05
-1.70169084469e-05
-1.70167390871e-05
-1.70166327592e-05
-1.70167985648e-05
-1.70169869827e-05
-1.70171886964e-05
-1.70173755569e-05
-1.70175260207e-05
-1.70176234822e-05
-1.70176572769e-05
-1.70176229973e-05
-1.70175250825e-05
-1.70173742205e-05
-1.70171870204e-05
-1.70169849841e-05
-1.70167962809e-05
-1.70166299453e-05
-1.70165277612e-05
-1.70166910521e-05
-1.70168738355e-05
-1.70170674034e-05
-1.70172458925e-05
-1.70173891601e-05
-1.70174817903e-05
-1.70175138674e-05
-1.70174813304e-05
-1.70173882674e-05
-1.701724461e-05
-1.70170657803e-05
-1.701687189e-05
-1.70166888174e-05
-1.7016525e-05
-1.70164235253e-05
-1.7016584584e-05
-1.70167618898e-05
-1.70169469706e-05
-1.70171163449e-05
-1.70172515864e-05
-1.70173387384e-05
-1.70173688563e-05
-1.70173383032e-05
-1.70172507378e-05
-1.70171151192e-05
-1.70169454035e-05
-1.70167600033e-05
-1.70165824044e-05
-1.70164208208e-05
-1.70163172725e-05
-1.7016476739e-05
-1.70166489048e-05
-1.70168251998e-05
-1.70169846484e-05
-1.7017110922e-05
-1.70171918823e-05
-1.70172197654e-05
-1.70171914701e-05
-1.70171101164e-05
-1.70169834737e-05
-1.70168236914e-05
-1.70166470789e-05
-1.70164746313e-05
-1.70163146468e-05
-1.70162034909e-05
-1.70163637238e-05
-1.70165324973e-05
-1.7016700673e-05
-1.70168499875e-05
-1.70169667853e-05
-1.70170410637e-05
-1.70170665364e-05
-1.70170406733e-05
-1.70169660142e-05
-1.70168488685e-05
-1.70166992178e-05
-1.70165307387e-05
-1.70163616908e-05
-1.70162009463e-05
-1.70160792685e-05
-1.70162453212e-05
-1.7016412471e-05
-1.70165733835e-05
-1.70167126091e-05
-1.70168196921e-05
-1.70168871131e-05
-1.70169100706e-05
-1.70168867381e-05
-1.7016818963e-05
-1.70167115318e-05
-1.70165719944e-05
-1.70164107815e-05
-1.70162433784e-05
-1.70160768102e-05
-1.70160546323e-05
-1.70161986294e-05
-1.70163434755e-05
-1.70164777321e-05
-1.70165911606e-05
-1.70166772905e-05
-1.70167310769e-05
-1.70167492944e-05
-1.70167307221e-05
-1.70166765896e-05
-1.70165901385e-05
-1.70164764002e-05
-1.70163418665e-05
-1.70161967816e-05
-1.70160523193e-05
-1.7217228717e-05
-1.72170537771e-05
-1.72168639875e-05
-1.72166714543e-05
-1.72165002661e-05
-1.72163663089e-05
-1.72162812087e-05
-1.72162520472e-05
-1.72162817044e-05
-1.72163672416e-05
-1.72165014984e-05
-1.72166727688e-05
-1.72168652466e-05
-1.72170547251e-05
-1.72172299036e-05
-1.72171538883e-05
-1.72169846255e-05
-1.72167968578e-05
-1.72166052469e-05
-1.72164340486e-05
-1.72162996425e-05
-1.72162140503e-05
-1.72161846638e-05
-1.7216214582e-05
-1.72163006423e-05
-1.72164353646e-05
-1.72166066396e-05
-1.72167981459e-05
-1.72169856165e-05
-1.72171549612e-05
-1.72173047193e-05
-1.7217156038e-05
-1.72169865426e-05
-1.72168096307e-05
-1.72166497375e-05
-1.72165232118e-05
-1.7216442245e-05
-1.72164143574e-05
-1.72164427389e-05
-1.7216524142e-05
-1.72166509672e-05
-1.72168109557e-05
-1.72169877704e-05
-1.72171570789e-05
-1.721730577e-05
-1.72174602363e-05
-1.72173264183e-05
-1.72171712824e-05
-1.72170063981e-05
-1.72168558044e-05
-1.72167357797e-05
-1.7216658629e-05
-1.72166319814e-05
-1.72166590715e-05
-1.72167366146e-05
-1.72168569128e-05
-1.72170076075e-05
-1.72171724294e-05
-1.7217327437e-05
-1.72174612869e-05
-1.72175778238e-05
-1.72174529217e-05
-1.7217307294e-05
-1.72171509469e-05
-1.72170070792e-05
-1.72168918218e-05
-1.72168174794e-05
-1.72167917494e-05
-1.7216817879e-05
-1.72168925756e-05
-1.72170080867e-05
-1.72171520586e-05
-1.72173083862e-05
-1.72174539129e-05
-1.72175788683e-05
-1.72176737346e-05
-1.72175546609e-05
-1.72174161389e-05
-1.72172667043e-05
-1.72171285375e-05
-1.72170174627e-05
-1.72169456415e-05
-1.72169207452e-05
-1.72169459996e-05
-1.72170181388e-05
-1.72171294446e-05
-1.72172677158e-05
-1.72174171506e-05
-1.72175556445e-05
-1.72176747187e-05
-1.72177581085e-05
-1.72176431791e-05
-1.72175103604e-05
-1.72173670572e-05
-1.72172342305e-05
-1.72171272433e-05
-1.72170579599e-05
-1.72170339192e-05
-1.72170582796e-05
-1.72171278488e-05
-1.72172350477e-05
-1.72173679838e-05
-1.72175113038e-05
-1.72176441526e-05
-1.72177590496e-05
-1.72178349101e-05
-1.72177231096e-05
-1.72175950867e-05
-1.72174575257e-05
-1.72173299727e-05
-1.7217227195e-05
-1.72171605998e-05
-1.72171374834e-05
-1.72171608844e-05
-1.72172277353e-05
-1.72173307082e-05
-1.7217458374e-05
-1.72175959761e-05
-1.72177240635e-05
-1.72178358385e-05
-1.72179072432e-05
-1.72177979839e-05
-1.7217674256e-05
-1.72175423322e-05
-1.72174202241e-05
-1.72173219496e-05
-1.72172583014e-05
-1.72172362145e-05
-1.72172585564e-05
-1.72173224354e-05
-1.72174208941e-05
-1.72175431209e-05
-1.72176751097e-05
-1.72177989311e-05
-1.72179081446e-05
-1.72179779343e-05
-1.72178709591e-05
-1.72177512981e-05
-1.72176251019e-05
-1.72175087783e-05
-1.72174154218e-05
-1.72173550592e-05
-1.72173341324e-05
-1.72173552894e-05
-1.72174158641e-05
-1.72175093947e-05
-1.72176258459e-05
-1.7217752129e-05
-1.72178719118e-05
-1.72179788197e-05
-1.72180491734e-05
-1.72179443008e-05
-1.72178285928e-05
-1.72177083203e-05
-1.72175982293e-05
-1.72175103086e-05
-1.72174536304e-05
-1.72174340197e-05
-1.7217453843e-05
-1.72175107186e-05
-1.72175988101e-05
-1.72177090333e-05
-1.72178294116e-05
-1.72179452566e-05
-1.72180500298e-05
-1.72181226633e-05
-1.72180194257e-05
-1.72179074182e-05
-1.72177931934e-05
-1.72176898091e-05
-1.7217607871e-05
-1.72175553155e-05
-1.7217537183e-05
-1.72175555156e-05
-1.7217608262e-05
-1.72176903633e-05
-1.72177938902e-05
-1.72179082304e-05
-1.72180203795e-05
-1.72181234787e-05
-1.72182019637e-05
-1.72180987188e-05
-1.72179891796e-05
-1.72178804671e-05
-1.72177837845e-05
-1.72177080925e-05
-1.72176598979e-05
-1.72176433579e-05
-1.72176600924e-05
-1.72177084655e-05
-1.72177843302e-05
-1.72178811485e-05
-1.72179899901e-05
-1.72180996652e-05
-1.72182027313e-05
-1.72182883828e-05
-1.72181816302e-05
-1.72180735353e-05
-1.72179697271e-05
-1.72178796956e-05
-1.72178103137e-05
-1.72177666036e-05
-1.72177516848e-05
-1.72177667894e-05
-1.72178106858e-05
-1.72178802259e-05
-1.72179704098e-05
-1.72180743397e-05
-1.72181825657e-05
-1.72182890617e-05
-1.72183040521e-05
-1.7218214386e-05
-1.72181225435e-05
-1.72180372652e-05
-1.72179647958e-05
-1.72179096232e-05
-1.72178751068e-05
-1.72178633989e-05
-1.72178752933e-05
-1.72179099853e-05
-1.72179653282e-05
-1.72180379421e-05
-1.72181233549e-05
-1.72182153295e-05
-1.7218304758e-05
-1.55365489136e-05
-1.55366654155e-05
-1.553679243e-05
-1.55369215937e-05
-1.55370364716e-05
-1.5537126448e-05
-1.5537183697e-05
-1.55372034057e-05
-1.55371836012e-05
-1.55371262569e-05
-1.55370361943e-05
-1.55369213414e-05
-1.55367923568e-05
-1.55366657403e-05
-1.55365490187e-05
-1.55365911187e-05
-1.55367034972e-05
-1.553682886e-05
-1.55369571693e-05
-1.55370718786e-05
-1.55371620388e-05
-1.55372195495e-05
-1.55372393903e-05
-1.55372194428e-05
-1.5537161826e-05
-1.55370715775e-05
-1.55369568938e-05
-1.55368287738e-05
-1.55367037579e-05
-1.55365912027e-05
-1.55364823803e-05
-1.55365807956e-05
-1.55366937238e-05
-1.55368120451e-05
-1.5536919076e-05
-1.55370038766e-05
-1.55370582299e-05
-1.55370770363e-05
-1.55370581247e-05
-1.55370036697e-05
-1.55369187891e-05
-1.55368117811e-05
-1.5536693644e-05
-1.55365809917e-05
-1.5536482464e-05
-1.55363715853e-05
-1.55364599106e-05
-1.55365630684e-05
-1.55366732322e-05
-1.55367739591e-05
-1.55368543483e-05
-1.55369060979e-05
-1.5536924045e-05
-1.5536905998e-05
-1.55368541569e-05
-1.55367737041e-05
-1.55366730052e-05
-1.55365630011e-05
-1.55364600987e-05
-1.55363716444e-05
-1.55362868732e-05
-1.55363691082e-05
-1.55364657404e-05
-1.55365701015e-05
-1.55366662511e-05
-1.55367433903e-05
-1.55367932118e-05
-1.55368105194e-05
-1.55367931178e-05
-1.55367432131e-05
-1.55366660223e-05
-1.55365699053e-05
-1.55364656805e-05
-1.5536369302e-05
-1.55362869153e-05
-1.55362172276e-05
-1.55362954778e-05
-1.55363871844e-05
-1.55364868239e-05
-1.55365790809e-05
-1.55366533569e-05
-1.55367014426e-05
-1.55367181669e-05
-1.55367013568e-05
-1.55366531986e-05
-1.55365788845e-05
-1.55364866657e-05
-1.55363871434e-05
-1.55362956505e-05
-1.55362172852e-05
-1.5536155811e-05
-1.55362311942e-05
-1.5536318893e-05
-1.55364143298e-05
-1.55365029208e-05
-1.55365743811e-05
-1.55366207097e-05
-1.5536636834e-05
-1.55366206329e-05
-1.55365742423e-05
-1.55365027546e-05
-1.55364142044e-05
-1.55363188763e-05
-1.55362313547e-05
-1.55361558648e-05
-1.55360998486e-05
-1.55361730105e-05
-1.55362572704e-05
-1.55363487264e-05
-1.55364336551e-05
-1.55365021868e-05
-1.5536546638e-05
-1.55365621116e-05
-1.55365465723e-05
-1.55365020709e-05
-1.55364335215e-05
-1.55363486318e-05
-1.55362572686e-05
-1.55361731609e-05
-1.55360998688e-05
-1.55360470936e-05
-1.55361183496e-05
-1.55361994562e-05
-1.55362869474e-05
-1.5536368051e-05
-1.55364334157e-05
-1.55364757898e-05
-1.5536490534e-05
-1.55364757357e-05
-1.55364333223e-05
-1.55363679477e-05
-1.55362868812e-05
-1.55361994665e-05
-1.55361184908e-05
-1.5536047084e-05
-1.55359954695e-05
-1.55360649105e-05
-1.55361429604e-05
-1.55362263653e-05
-1.55363033593e-05
-1.55363652314e-05
-1.55364052732e-05
-1.55364191921e-05
-1.5536405231e-05
-1.55363651607e-05
-1.55363032855e-05
-1.55362263228e-05
-1.55361429779e-05
-1.55360650342e-05
-1.55359954242e-05
-1.55359433669e-05
-1.55360110159e-05
-1.55360860397e-05
-1.55361651763e-05
-1.55362377082e-05
-1.55362956989e-05
-1.55363331125e-05
-1.55363460944e-05
-1.55363330813e-05
-1.55362956499e-05
-1.55362376607e-05
-1.55361651563e-05
-1.5536086068e-05
-1.55360111287e-05
-1.55359432904e-05
-1.5535889587e-05
-1.55359556764e-05
-1.55360278198e-05
-1.55361025506e-05
-1.5536170252e-05
-1.55362239456e-05
-1.55362584107e-05
-1.55362703359e-05
-1.55362583902e-05
-1.55362239136e-05
-1.55361702286e-05
-1.55361025501e-05
-1.55360278582e-05
-1.55359557921e-05
-1.55358894954e-05
-1.55358318335e-05
-1.55358973913e-05
-1.55359674395e-05
-1.553603807e-05
-1.55361008659e-05
-1.55361500341e-05
-1.55361813493e-05
-1.55361921356e-05
-1.55361813353e-05
-1.55361500193e-05
-1.55361008597e-05
-1.55360380874e-05
-1.55359674914e-05
-1.55358975127e-05
-1.55358317297e-05
-1.5535768411e-05
-1.55358356535e-05
-1.55359046559e-05
-1.55359717406e-05
-1.55360297655e-05
-1.55360744223e-05
-1.55361025614e-05