/*--------------------------------*- C++ -*----------------------------------*\
  =========                 |
  \\      /  F ield         | OpenFOAM: The Open Source CFD Toolbox
   \\    /   O peration     | Website:  https://openfoam.org
    \\  /    A nd           | Version:  7
     \\/     M anipulation  |
\*---------------------------------------------------------------------------*/
FoamFile
{
    version     2.0;
    format      ascii;
    class       volScalarField;
    location    "0.5";
    object      p;
}
// * * * * * * * * * * * * * * * * * * * * * * * * * * * * * * * * * * * * * //

dimensions      [0 2 -2 0 0 0 0];

internalField   nonuniform List<scalar> 
22500
(
3.66283898683e-05
3.66208460063e-05
3.66183685278e-05
3.66149990578e-05
3.66124461661e-05
3.6610476609e-05
3.66092676932e-05
3.66088661712e-05
3.66093318e-05
3.66106031166e-05
3.6612630799e-05
3.66152315827e-05
3.66186343248e-05
3.66211215345e-05
3.66286523851e-05
3.65270213497e-05
3.65142548869e-05
3.65073532409e-05
3.65001082827e-05
3.64944178613e-05
3.64901396367e-05
3.64875211011e-05
3.64866481464e-05
3.64875850797e-05
3.6490265711e-05
3.64946014333e-05
3.65003394734e-05
3.65076171056e-05
3.6514529002e-05
3.65272840669e-05
3.64279891525e-05
3.64102711483e-05
3.63995620823e-05
3.63888780079e-05
3.63804506933e-05
3.63741609672e-05
3.63703178327e-05
3.63690345571e-05
3.63703802372e-05
3.63742837957e-05
3.63806292809e-05
3.63891030859e-05
3.63998193289e-05
3.64105396311e-05
3.64282487654e-05
3.63394138956e-05
3.63175830454e-05
3.63039675379e-05
3.62906923673e-05
3.62802201849e-05
3.62724424093e-05
3.62676973436e-05
3.62661121887e-05
3.62677571665e-05
3.62725600851e-05
3.6280391098e-05
3.62909079394e-05
3.63042147357e-05
3.63178427369e-05
3.63396680389e-05
3.62566788444e-05
3.62313011209e-05
3.62153053062e-05
3.61999858077e-05
3.61879019941e-05
3.61789656206e-05
3.6173521531e-05
3.61717031136e-05
3.61735781649e-05
3.61790769745e-05
3.61880637176e-05
3.62001901426e-05
3.62155407205e-05
3.62315504466e-05
3.62569258264e-05
3.6178819371e-05
3.61504513192e-05
3.61325085245e-05
3.61155980967e-05
3.6102256684e-05
3.60924276548e-05
3.60864466516e-05
3.60844492204e-05
3.60864995913e-05
3.60925317589e-05
3.61024079845e-05
3.61157897689e-05
3.61327305355e-05
3.61506889442e-05
3.61790581211e-05
3.61061890199e-05
3.60754066907e-05
3.60559032263e-05
3.60378065331e-05
3.60235196335e-05
3.60130292084e-05
3.60066513587e-05
3.60045215541e-05
3.60067002834e-05
3.60131254845e-05
3.60236598124e-05
3.60379848337e-05
3.60561111971e-05
3.60756318146e-05
3.61064187041e-05
3.60387280735e-05
3.60060674588e-05
3.59853176587e-05
3.59663710661e-05
3.59513958506e-05
3.59404323884e-05
3.59337717538e-05
3.59315475474e-05
3.59338164972e-05
3.59405205522e-05
3.59515245926e-05
3.59665356835e-05
3.59855112709e-05
3.60062796953e-05
3.60389483049e-05
3.59761007135e-05
3.5942048842e-05
3.59203126571e-05
3.59007974795e-05
3.58853496548e-05
3.58740692596e-05
3.58672206468e-05
3.58649336591e-05
3.58672611688e-05
3.58741492743e-05
3.58854669782e-05
3.59009485197e-05
3.59204920254e-05
3.59422481792e-05
3.59763109084e-05
3.59179472712e-05
3.58829565457e-05
3.58604724933e-05
3.58406379115e-05
3.58249110405e-05
3.58134521076e-05
3.58064999584e-05
3.58041784174e-05
3.58065362992e-05
3.58135240809e-05
3.58250171343e-05
3.58407756164e-05
3.5860637832e-05
3.58831429489e-05
3.59181472915e-05
3.5863938337e-05
3.58284407311e-05
3.58054548183e-05
3.57855333987e-05
3.57697102551e-05
3.57582022014e-05
3.57512258737e-05
3.57488964712e-05
3.57512581336e-05
3.57582663393e-05
3.57698054441e-05
3.57856581267e-05
3.58056063752e-05
3.58286141267e-05
3.58641274915e-05
3.58137528381e-05
3.57782038704e-05
3.57549999524e-05
3.57352122111e-05
3.57194652558e-05
3.57080302608e-05
3.57011055393e-05
3.56987939332e-05
3.57011338328e-05
3.57080868149e-05
3.57195498753e-05
3.57353243307e-05
3.57551379445e-05
3.57783640355e-05
3.58139303823e-05
3.57669830644e-05
3.5732010479e-05
3.57089438453e-05
3.56894873198e-05
3.56739722802e-05
3.56627257699e-05
3.56559263483e-05
3.56536578277e-05
3.56559508136e-05
3.56627749913e-05
3.56740466796e-05
3.56895871949e-05
3.57090684831e-05
3.57321572766e-05
3.576714821e-05
3.57233051062e-05
3.5689658951e-05
3.56670577834e-05
3.56481105279e-05
3.56329979825e-05
3.56220856177e-05
3.56155070264e-05
3.56133148055e-05
3.56155278304e-05
3.56221278074e-05
3.56330626193e-05
3.56481986219e-05
3.56671694647e-05
3.56897924122e-05
3.57234573294e-05
3.56841237174e-05
3.56503026105e-05
3.56285792287e-05
3.5610294351e-05
3.55958716544e-05
3.55855476315e-05
3.55793529721e-05
3.55772924059e-05
3.55793704865e-05
3.55855835008e-05
3.5595927363e-05
3.56103716094e-05
3.56286788962e-05
3.5650423649e-05
3.56842627966e-05
2.42662348673e-05
2.426960635e-05
2.42723018423e-05
2.42749330596e-05
2.42772726531e-05
2.42790862828e-05
2.42802341467e-05
2.42806079822e-05
2.42801739001e-05
2.42789685735e-05
2.4277104004e-05
2.42747265005e-05
2.42720736965e-05
2.42693788437e-05
2.42660258256e-05
2.4279027347e-05
2.42830538166e-05
2.42863783345e-05
2.42895788478e-05
2.42924038525e-05
2.42945856855e-05
2.42959649582e-05
2.42964183345e-05
2.42959045829e-05
2.42944677205e-05
2.42922347827e-05
2.42893711964e-05
2.42861491189e-05
2.42828248368e-05
2.42788165602e-05
2.42972075186e-05
2.43028233041e-05
2.4307492351e-05
2.43119433513e-05
2.43158344646e-05
2.4318824934e-05
2.43207109012e-05
2.43213374921e-05
2.43206519384e-05
2.43187098699e-05
2.43156697549e-05
2.43117408084e-05
2.43072684554e-05
2.43025983532e-05
2.42969983397e-05
2.43220946476e-05
2.43303278668e-05
2.43370944129e-05
2.43434590276e-05
2.4348962062e-05
2.43531659219e-05
2.43558071542e-05
2.43566910091e-05
2.43557505664e-05
2.4353055483e-05
2.43488039389e-05
2.43432640667e-05
2.4336877924e-05
2.43301087749e-05
2.43218883371e-05
2.43540929071e-05
2.43656729879e-05
2.43749954501e-05
2.43836438402e-05
2.43910400612e-05
2.43966537192e-05
2.4400165237e-05
2.44013443413e-05
2.44001114908e-05
2.43965488615e-05
2.43908898668e-05
2.43834581561e-05
2.43747881222e-05
2.4365461368e-05
2.43538908577e-05
2.43920549864e-05
2.44073328414e-05
2.44193448543e-05
2.4430344903e-05
2.44396569865e-05
2.44466802112e-05
2.445105405e-05
2.44525244814e-05
2.44510035507e-05
2.44465816785e-05
2.44395156969e-05
2.44301696205e-05
2.44191479761e-05
2.4407129826e-05
2.43918586097e-05
2.44343174074e-05
2.44533061877e-05
2.4467892079e-05
2.44810862367e-05
2.44921526181e-05
2.45004493955e-05
2.45055945499e-05
2.45073244678e-05
2.45055476432e-05
2.45003578376e-05
2.44920211506e-05
2.44809225471e-05
2.44677070263e-05
2.44531133834e-05
2.44341279228e-05
2.4479237054e-05
2.45016843512e-05
2.45185610046e-05
2.45336461009e-05
2.45461923395e-05
2.45555466451e-05
2.45613245328e-05
2.45632662854e-05
2.45612813434e-05
2.45554622927e-05
2.4546071016e-05
2.45334944656e-05
2.45183884111e-05
2.45015025859e-05
2.44790555315e-05
2.4525371371e-05
2.45508370439e-05
2.45696257458e-05
2.45862225016e-05
2.45999210174e-05
2.4610082167e-05
2.46163349426e-05
2.46184346541e-05
2.46162955199e-05
2.46100051149e-05
2.45998099926e-05
2.45860831887e-05
2.45694660627e-05
2.45506669478e-05
2.45251985537e-05
2.45715336965e-05
2.4599461998e-05
2.46197424668e-05
2.46374480353e-05
2.46519609663e-05
2.46626748758e-05
2.46692444333e-05
2.46714483258e-05
2.46692086752e-05
2.46626049364e-05
2.46518599852e-05
2.46373208441e-05
2.46195956567e-05
2.45993038053e-05
2.4571370096e-05
2.46167953177e-05
2.46465699621e-05
2.46679148275e-05
2.46863387749e-05
2.4701344904e-05
2.47123724992e-05
2.47191110013e-05
2.47213689696e-05
2.47190787545e-05
2.47123093696e-05
2.47012535979e-05
2.46862233092e-05
2.46677806415e-05
2.46464237285e-05
2.46166412046e-05
2.46604393044e-05
2.46914254963e-05
2.47134282371e-05
2.47322205053e-05
2.47474324383e-05
2.47585590333e-05
2.4765333907e-05
2.47676008454e-05
2.47653049532e-05
2.47585022856e-05
2.47473501949e-05
2.47321161506e-05
2.47133061872e-05
2.4691291065e-05
2.46602952488e-05
2.47018973997e-05
2.47335117687e-05
2.47558225618e-05
2.47746859016e-05
2.47898494699e-05
2.4800881324e-05
2.48075717083e-05
2.48098068819e-05
2.48075457329e-05
2.48008303879e-05
2.47897756016e-05
2.47745918518e-05
2.4755711891e-05
2.47333885977e-05
2.47017630827e-05
2.47410761434e-05
2.47728896211e-05
2.47950876719e-05
2.48136918437e-05
2.48285053268e-05
2.48392105085e-05
2.48456749915e-05
2.48478299726e-05
2.48456516523e-05
2.48391647699e-05
2.48284387824e-05
2.48136069698e-05
2.47949875208e-05
2.4772777196e-05
2.47409511665e-05
2.47798319708e-05
2.48097052336e-05
2.48312175649e-05
2.48491775595e-05
2.48632538004e-05
2.48733438645e-05
2.48794087465e-05
2.4881426625e-05
2.48793876863e-05
2.48733026296e-05
2.48631938549e-05
2.4849100985e-05
2.48311267419e-05
2.48096032501e-05
2.47797171515e-05
2.57422973297e-05
2.57414797417e-05
2.57399663528e-05
2.57382939813e-05
2.57366912653e-05
2.57354024951e-05
2.57345712983e-05
2.57342872814e-05
2.57345825897e-05
2.57354240487e-05
2.57367212508e-05
2.57383304124e-05
2.57400065893e-05
2.57415221118e-05
2.57423388081e-05
2.57439748671e-05
2.57432449243e-05
2.57418168063e-05
2.57402216041e-05
2.57386742951e-05
2.57374208588e-05
2.5736608327e-05
2.57363299422e-05
2.57366194838e-05
2.57374421e-05
2.57387037738e-05
2.57402571887e-05
2.57418559035e-05
2.57432858941e-05
2.57440151196e-05
2.57461040276e-05
2.57454978485e-05
2.57441696278e-05
2.57426751361e-05
2.57412033218e-05
2.57400028105e-05
2.57392208472e-05
2.57389524871e-05
2.57392322655e-05
2.57400246112e-05
2.57412336742e-05
2.57427118111e-05
2.57442099392e-05
2.57455397406e-05
2.57461447111e-05
2.57476385967e-05
2.5747154812e-05
2.57459092477e-05
2.57445144681e-05
2.57431247032e-05
2.5741986762e-05
2.57412435531e-05
2.57409883236e-05
2.57412550776e-05
2.57420088566e-05
2.57431555583e-05
2.57445517925e-05
2.57459503075e-05
2.57471974216e-05
2.57476797999e-05
2.5748890354e-05
2.57485956292e-05
2.57474786094e-05
2.57462407487e-05
2.574498888e-05
2.57439595774e-05
2.57432855338e-05
2.57430539812e-05
2.57432969517e-05
2.57439815376e-05
2.57450196921e-05
2.57462781902e-05
2.57475200008e-05
2.57486387332e-05
2.57489319849e-05
2.5750296451e-05
2.57503019268e-05
2.57493943851e-05
2.57483976693e-05
2.57473597274e-05
2.57464983734e-05
2.57459313889e-05
2.57457364406e-05
2.57459424283e-05
2.57465196667e-05
2.57473897303e-05
2.57484343395e-05
2.5749435239e-05
2.57503448334e-05
2.57503383023e-05
2.57521199553e-05
2.57525396192e-05
2.5751921895e-05
2.57512422713e-05
2.57504846286e-05
2.57498412821e-05
2.57494126296e-05
2.57492648726e-05
2.57494230937e-05
2.57498615441e-05
2.57505133642e-05
2.57512777109e-05
2.57519618546e-05
2.57525821076e-05
2.57521617444e-05
2.57544898211e-05
2.57554138439e-05
2.57551471776e-05
2.57548346847e-05
2.57543998913e-05
2.57540052573e-05
2.5753733567e-05
2.57536392158e-05
2.57537432542e-05
2.57540240962e-05
2.575442681e-05
2.57548682441e-05
2.5755185598e-05
2.57554554119e-05
2.57545313323e-05
2.57574392255e-05
2.57589169779e-05
2.57590357339e-05
2.57591093266e-05
2.57590128394e-05
2.57588766546e-05
2.57587672387e-05
2.57587279693e-05
2.57587760269e-05
2.57588938347e-05
2.57590376319e-05
2.57591406618e-05
2.57590722545e-05
2.57589572972e-05
2.57574800669e-05
2.57609289901e-05
2.5762962548e-05
2.57634732903e-05
2.5763923219e-05
2.57641560642e-05
2.57642697932e-05
2.57643166338e-05
2.57643302611e-05
2.57643244151e-05
2.57642851175e-05
2.57641784299e-05
2.57639519706e-05
2.57635075148e-05
2.57630012145e-05
2.57609689493e-05
2.57648713993e-05
2.5767415325e-05
2.57682996738e-05
2.57690945512e-05
2.57696295164e-05
2.57699715273e-05
2.57701605437e-05
2.57702222442e-05
2.57701672795e-05
2.57699849023e-05
2.57696493451e-05
2.57691205286e-05
2.57683313499e-05
2.57674519809e-05
2.57649100016e-05
2.57691405201e-05
2.57721101435e-05
2.57733327237e-05
2.5774429928e-05
2.5775229622e-05
2.57757709372e-05
2.57760838359e-05
2.57761872758e-05
2.57760895184e-05
2.57757823499e-05
2.5775246817e-05
2.57744530185e-05
2.577336162e-05
2.57721444678e-05
2.57691774855e-05
2.57735747914e-05
2.57768741871e-05
2.57783964904e-05
2.57797496551e-05
2.5780771235e-05
2.57814795989e-05
2.57818959881e-05
2.57820344682e-05
2.57819006336e-05
2.57814890322e-05
2.57807858446e-05
2.57797697532e-05
2.57784223937e-05
2.57769057391e-05
2.57736094009e-05
2.57781323384e-05
2.57816802794e-05
2.57834097149e-05
2.57849448602e-05
2.57861218935e-05
2.57869488557e-05
2.57874400598e-05
2.5787603587e-05
2.57874436759e-05
2.5786956417e-05
2.57861338102e-05
2.57849618877e-05
2.57834324241e-05
2.57817087334e-05
2.57781639441e-05
2.57835224538e-05
2.57864082439e-05
2.57881930875e-05
2.5789815634e-05
2.57910629098e-05
2.57919491037e-05
2.5792478919e-05
2.57926557461e-05
2.57924816447e-05
2.57919549118e-05
2.5791072465e-05
2.57898297364e-05
2.57882125407e-05
2.57864335933e-05
2.57835510476e-05
2.19027922713e-05
2.19033803651e-05
2.19041667779e-05
2.19049955673e-05
2.19057586361e-05
2.19063696329e-05
2.1906763781e-05
2.19069011552e-05
2.1906766979e-05
2.19063762809e-05
2.19057691389e-05
2.19050102878e-05
2.19041861788e-05
2.19034033933e-05
2.19028174414e-05
2.19034894729e-05
2.19040984943e-05
2.19049113338e-05
2.19057678677e-05
2.19065590835e-05
2.19071942362e-05
2.19076047472e-05
2.19077481146e-05
2.19076083425e-05
2.19072015499e-05
2.19065702854e-05
2.19057829771e-05
2.1904930397e-05
2.19041207853e-05
2.19035136861e-05
2.19039826095e-05
2.19045984733e-05
2.19054229635e-05
2.19062914175e-05
2.19070969672e-05
2.19077454622e-05
2.19081653168e-05
2.19083121013e-05
2.19081690021e-05
2.19077529782e-05
2.19071085237e-05
2.19063071049e-05
2.1905442647e-05
2.19046215169e-05
2.19040071402e-05
2.19044563157e-05
2.19050822783e-05
2.19059206559e-05
2.19067976123e-05
2.19076127805e-05
2.19082703967e-05
2.19086967268e-05
2.19088458909e-05
2.19087004663e-05
2.19082780013e-05
2.19076244221e-05
2.1906813401e-05
2.19059404639e-05
2.19051055605e-05
2.19044812329e-05
2.1904963443e-05
2.19056047347e-05
2.19064636387e-05
2.19073518609e-05
2.19081780725e-05
2.19088456046e-05
2.19092787461e-05
2.19094303562e-05
2.19092824408e-05
2.19088531085e-05
2.1908189597e-05
2.19073675405e-05
2.19064834441e-05
2.19056281443e-05
2.19049886742e-05
2.1905513245e-05
2.19061815685e-05
2.1907073076e-05
2.19079820777e-05
2.19088270708e-05
2.19095101779e-05
2.19099536381e-05
2.19101088175e-05
2.19099571783e-05
2.19095173588e-05
2.19088380771e-05
2.19079971117e-05
2.19070922224e-05
2.1906204657e-05
2.19055384923e-05
2.19061365374e-05
2.19068525371e-05
2.19077935968e-05
2.19087385646e-05
2.19096145611e-05
2.19103220197e-05
2.19107810149e-05
2.19109414343e-05
2.19107842866e-05
2.19103286914e-05
2.19096248689e-05
2.19087528375e-05
2.19078120662e-05
2.1906875302e-05
2.19061617477e-05
2.1906873404e-05
2.19076639508e-05
2.19086719585e-05
2.19096680511e-05
2.19105862742e-05
2.19113255169e-05
2.19118041886e-05
2.19119711243e-05
2.19118070765e-05
2.19113314471e-05
2.19105955537e-05
2.19096811465e-05
2.1908689365e-05
2.19076860293e-05
2.19068984972e-05
2.19077532901e-05
2.19086444244e-05
2.1909731698e-05
2.19107884604e-05
2.19117545726e-05
2.19125282424e-05
2.19130275125e-05
2.19132011107e-05
2.19130299305e-05
2.19125332829e-05
2.19117626721e-05
2.19108002594e-05
2.19097479392e-05
2.19086657e-05
2.19077779216e-05
2.19087867291e-05
2.1909798634e-05
2.1910968883e-05
2.19120869206e-05
2.19130983183e-05
2.19139023894e-05
2.19144189285e-05
2.19145978474e-05
2.19144207675e-05
2.19139063519e-05
2.19131049539e-05
2.19120971099e-05
2.19109836337e-05
2.19098187983e-05
2.19088106803e-05
2.19099665598e-05
2.19111090579e-05
2.19123563485e-05
2.19135270057e-05
2.19145729417e-05
2.19153972289e-05
2.1915923745e-05
2.19161053635e-05
2.19159249354e-05
2.19153999659e-05
2.19145779617e-05
2.19135353618e-05
2.19123693419e-05
2.19111276965e-05
2.19099892263e-05
2.19112653628e-05
2.19125390578e-05
2.19138512693e-05
2.19150595823e-05
2.19161237602e-05
2.19169536425e-05
2.19174802737e-05
2.19176609892e-05
2.1917480728e-05
2.1916955017e-05
2.1916126879e-05
2.19150658175e-05
2.19138621054e-05
2.19125556909e-05
2.19112862069e-05
2.19126355679e-05
2.19140427744e-05
2.19154086437e-05
2.19166366507e-05
2.19176996228e-05
2.19185186962e-05
2.19190340908e-05
2.19192101221e-05
2.19190337349e-05
2.19185184521e-05
2.19177006632e-05
2.1916640349e-05
2.19154168185e-05
2.19140566473e-05
2.19126535705e-05
2.19141168797e-05
2.19156699662e-05
2.1917042153e-05
2.19182498321e-05
2.19192764633e-05
2.1920057139e-05
2.19205444515e-05
2.19207096263e-05
2.19205431465e-05
2.19200552353e-05
2.19192750016e-05
2.19182506596e-05
2.19170471352e-05
2.19156804417e-05
2.19141309484e-05
2.19163845646e-05
2.19176095624e-05
2.19188302261e-05
2.1919903367e-05
2.19208064072e-05
2.19214870419e-05
2.19219087579e-05
2.19220509971e-05
2.192190664e-05
2.19214834638e-05
2.19208027216e-05
2.19199013309e-05
2.19188318529e-05
2.19176164176e-05
2.19163947282e-05
2.03578324386e-05
2.03576297537e-05
2.0357355185e-05
2.03570184131e-05
2.0356697089e-05
2.0356432865e-05
2.03562610949e-05
2.03562025498e-05
2.035626493e-05
2.03564408546e-05
2.03567099811e-05
2.03570366773e-05
2.03573783108e-05
2.03576580669e-05
2.03578624618e-05
2.03583601108e-05
2.03581793299e-05
2.03579244227e-05
2.03576029359e-05
2.03572926214e-05
2.03570352139e-05
2.03568669412e-05
2.03568094484e-05
2.03568707836e-05
2.0357043188e-05
2.0357305407e-05
2.03576208598e-05
2.03579468498e-05
2.03582064797e-05
2.03583891321e-05
2.03589581708e-05
2.03587954252e-05
2.03585611238e-05
2.03582534953e-05
2.03579531678e-05
2.03577015555e-05
2.03575362554e-05
2.03574797243e-05
2.03575403166e-05
2.03577099038e-05
2.03579663704e-05
2.03582719005e-05
2.03585842762e-05
2.03588231465e-05
2.03589877243e-05
2.03593938362e-05
2.03592325252e-05
2.03590067168e-05
2.03587008836e-05
2.0358401046e-05
2.03581485032e-05
2.035798221e-05
2.0357925314e-05
2.03579864113e-05
2.03581570785e-05
2.03584144089e-05
2.03587193554e-05
2.03590299831e-05
2.03592604465e-05
2.0359423738e-05
2.0359689399e-05
2.0359520414e-05
2.03592971383e-05
2.0358987935e-05
2.03586851559e-05
2.03584297438e-05
2.03582614177e-05
2.03582038162e-05
2.03582656239e-05
2.03584382986e-05
2.0358698424e-05
2.03590062512e-05
2.03593203527e-05
2.03595484832e-05
2.0359719598e-05
2.03598946252e-05
2.03597182327e-05
2.03594992273e-05
2.0359189151e-05
2.0358886756e-05
2.03586318298e-05
2.03584638993e-05
2.03584064181e-05
2.03584679701e-05
2.03586401051e-05
2.0358899547e-05
2.03592068268e-05
2.03595218128e-05
2.03597458402e-05
2.03599249992e-05
2.03600491442e-05
2.03598730549e-05
2.03596670875e-05
2.0359365899e-05
2.03590735001e-05
2.03588273196e-05
2.03586652757e-05
2.03586098134e-05
2.03586691153e-05
2.03588351499e-05
2.03590856465e-05
2.03593828189e-05
2.03596890392e-05
2.03599002467e-05
2.03600795602e-05
2.03601920136e-05
2.03600316783e-05
2.03598531547e-05
2.03595760597e-05
2.03593077543e-05
2.03590819454e-05
2.03589333646e-05
2.03588825314e-05
2.03589368717e-05
2.03590891349e-05
2.0359318988e-05
2.03595918869e-05
2.03598740845e-05
2.03600581344e-05
2.03602222849e-05
2.03603621429e-05
2.0360237953e-05
2.03601042164e-05
2.03598692791e-05
2.03596412169e-05
2.03594487054e-05
2.03593218564e-05
2.03592784787e-05
2.03593249533e-05
2.03594551078e-05
2.03596513775e-05
2.03598838705e-05
2.03601239822e-05
2.03602635366e-05
2.03603919923e-05
2.0360592852e-05
2.03605272335e-05
2.03604551061e-05
2.03602796802e-05
2.03601068945e-05
2.03599594003e-05
2.0359861722e-05
2.03598282832e-05
2.03598643184e-05
2.03599648642e-05
2.03601157479e-05
2.03602927713e-05
2.03604733923e-05
2.03605515919e-05
2.03606220374e-05
2.03609075379e-05
2.03609202521e-05
2.03609227408e-05
2.03608205409e-05
2.03607145552e-05
2.0360620951e-05
2.03605578853e-05
2.03605362438e-05
2.03605599113e-05
2.03606253228e-05
2.0360721942e-05
2.03608319046e-05
2.03609393033e-05
2.03609430334e-05
2.03609355649e-05
2.03613126163e-05
2.03614183357e-05
2.03615033849e-05
2.03614832224e-05
2.03614513889e-05
2.03614169514e-05
2.0361391823e-05
2.03613829555e-05
2.03613931964e-05
2.03614200991e-05
2.03614570352e-05
2.03614926117e-05
2.03615178578e-05
2.03614391459e-05
2.03613390406e-05
2.03617966618e-05
2.03620056501e-05
2.03621767473e-05
2.03622423871e-05
2.0362287667e-05
2.03623148247e-05
2.03623286261e-05
2.03623330911e-05
2.03623292643e-05
2.03623164885e-05
2.03622914171e-05
2.03622493854e-05
2.03621887284e-05
2.03620238866e-05
2.03618206798e-05
2.0362394347e-05
2.03627132257e-05
2.03629445083e-05
2.03630816296e-05
2.03631945331e-05
2.03632756728e-05
2.03633242526e-05
2.0363340094e-05
2.03633240127e-05
2.03632758339e-05
2.03631959685e-05
2.0363086069e-05
2.03629535581e-05
2.03627284663e-05
2.03624151138e-05
2.03634795216e-05
2.03636230058e-05
2.03638200125e-05
2.03639695029e-05
2.03641063785e-05
2.03642103965e-05
2.03642741177e-05
2.03642952486e-05
2.03642731586e-05
2.03642090524e-05
2.03641059088e-05
2.03639714394e-05
2.03638263866e-05
2.03636353889e-05
2.03634971117e-05
1.80825242916e-05
1.80826278337e-05
1.80827674915e-05
1.8082907311e-05
1.8083035203e-05
1.80831358609e-05
1.80832012552e-05
1.80832258248e-05
1.80832078816e-05
1.80831494667e-05
1.80830563116e-05
1.80829364114e-05
1.80828045257e-05
1.80826701044e-05
1.80825684306e-05
1.80828924121e-05
1.80830109687e-05
1.80831661913e-05
1.80833202625e-05
1.8083461253e-05
1.80835724935e-05
1.80836448667e-05
1.80836720604e-05
1.80836520095e-05
1.80835869919e-05
1.80834833661e-05
1.80833500789e-05
1.8083203235e-05
1.80830527635e-05
1.80829356752e-05
1.8083243793e-05
1.80833755457e-05
1.80835455273e-05
1.80837121886e-05
1.80838648778e-05
1.80839852092e-05
1.80840634144e-05
1.80840926137e-05
1.80840705592e-05
1.8083999718e-05
1.80838870366e-05
1.80837421662e-05
1.80835827505e-05
1.80834177682e-05
1.80832871491e-05
1.80835594735e-05
1.80837038497e-05
1.80838875249e-05
1.80840645055e-05
1.8084226647e-05
1.80843543358e-05
1.80844373021e-05
1.80844681637e-05
1.80844444895e-05
1.80843688909e-05
1.80842487677e-05
1.80840942799e-05
1.80839243806e-05
1.80837457612e-05
1.80836028617e-05
1.80838613329e-05
1.80840185108e-05
1.80842162609e-05
1.80844029964e-05
1.80845738905e-05
1.80847083172e-05
1.80847955638e-05
1.80848278979e-05
1.80848027152e-05
1.80847227581e-05
1.80845957976e-05
1.80844324024e-05
1.80842526492e-05
1.80840599606e-05
1.80839045146e-05
1.80841583663e-05
1.80843295762e-05
1.80845425172e-05
1.80847389003e-05
1.80849183342e-05
1.8085059315e-05
1.80851507528e-05
1.80851845153e-05
1.80851578301e-05
1.80850735444e-05
1.80849397754e-05
1.80847674939e-05
1.80845777712e-05
1.80843700588e-05
1.80842009257e-05
1.80844549963e-05
1.8084642492e-05
1.80848722001e-05
1.80850793238e-05
1.80852681193e-05
1.80854162593e-05
1.80855121967e-05
1.80855474353e-05
1.80855190448e-05
1.80854300105e-05
1.80852888021e-05
1.80851068887e-05
1.80849062403e-05
1.80846819248e-05
1.80844968408e-05
1.80847574402e-05
1.8084965195e-05
1.8085214033e-05
1.80854337587e-05
1.8085633338e-05
1.8085789767e-05
1.80858908926e-05
1.80859278066e-05
1.808589739e-05
1.80858027916e-05
1.80856528897e-05
1.80854598119e-05
1.8085246365e-05
1.80850031084e-05
1.80847984548e-05
1.80850733139e-05
1.80853060035e-05
1.80855768447e-05
1.80858117354e-05
1.80860241494e-05
1.80861904566e-05
1.80862976871e-05
1.80863365389e-05
1.8086303689e-05
1.80862024899e-05
1.80860422805e-05
1.80858360252e-05
1.80856072797e-05
1.80853422381e-05
1.80851131091e-05
1.80854098904e-05
1.80856732641e-05
1.80859688146e-05
1.80862212468e-05
1.80864482588e-05
1.80866256898e-05
1.80867397727e-05
1.80867807298e-05
1.80867451157e-05
1.8086636452e-05
1.80864645459e-05
1.80862433126e-05
1.80859968959e-05
1.80857074004e-05
1.80854482286e-05
1.80857738495e-05
1.80860730759e-05
1.80863947543e-05
1.80866661091e-05
1.80869084872e-05
1.80870975997e-05
1.80872186915e-05
1.80872617755e-05
1.80872232439e-05
1.80871068179e-05
1.80869226395e-05
1.80866855747e-05
1.80864201091e-05
1.80861046381e-05
1.80858100739e-05
1.80861665852e-05
1.80865060265e-05
1.80868539992e-05
1.80871444111e-05
1.80874020082e-05
1.80876022201e-05
1.80877299529e-05
1.80877748543e-05
1.80877335406e-05
1.80876096368e-05
1.80874135341e-05
1.80871608292e-05
1.80868760764e-05
1.80865344435e-05
1.80862000792e-05
1.80865839506e-05
1.80869674967e-05
1.80873410465e-05
1.80876497134e-05
1.8087921223e-05
1.80881317094e-05
1.80882648889e-05
1.80883113632e-05
1.80882673867e-05
1.80881368635e-05
1.80879298206e-05
1.80876624055e-05
1.80873592138e-05
1.80869919443e-05
1.80866136803e-05
1.80870663173e-05
1.80874987745e-05
1.80878770673e-05
1.80881907709e-05
1.80884667659e-05
1.80886792455e-05
1.8088813162e-05
1.80888590724e-05
1.80888142968e-05
1.8088682023e-05
1.80884717142e-05
1.8088199346e-05
1.80878905568e-05
1.80875185157e-05
1.80870910791e-05
1.80879534201e-05
1.80882333886e-05
1.80885306693e-05
1.80887921123e-05
1.80890275866e-05
1.80892091441e-05
1.8089322712e-05
1.80893613111e-05
1.8089322595e-05
1.80892093281e-05
1.80890291153e-05
1.80887962906e-05
1.80885393605e-05
1.80882479817e-05
1.8087973045e-05
1.61626267359e-05
1.61626090093e-05
1.61625853717e-05
1.6162546939e-05
1.61625088852e-05
1.61624764298e-05
1.61624556392e-05
1.61624499608e-05
1.61624608687e-05
1.61624871661e-05
1.61625253987e-05
1.61625691459e-05
1.61626119978e-05
1.61626382654e-05
1.61626537501e-05
1.61629131392e-05
1.61629071397e-05
1.61628948046e-05
1.61628659495e-05
1.6162835548e-05
1.61628085932e-05
1.61627911006e-05
1.61627864913e-05
1.61627962081e-05
1.61628190256e-05
1.61628514873e-05
1.61628872447e-05
1.61629203169e-05
1.61629351993e-05
1.6162939259e-05
1.61632008215e-05
1.61632038579e-05
1.61632012148e-05
1.61631799003e-05
1.61631556859e-05
1.61631331166e-05
1.61631182324e-05
1.6163114492e-05
1.61631233532e-05
1.61631435736e-05
1.61631716598e-05
1.61632011913e-05
1.61632267229e-05
1.61632317329e-05
1.61632269925e-05
1.61634276147e-05
1.61634343512e-05
1.61634375192e-05
1.61634193961e-05
1.6163397765e-05
1.61633768535e-05
1.61633628858e-05
1.61633594114e-05
1.61633679202e-05
1.61633871263e-05
1.61634134504e-05
1.61634402863e-05
1.61634625458e-05
1.61634617558e-05
1.61634534579e-05
1.61636092279e-05
1.6163616971e-05
1.61636240992e-05
1.61636070745e-05
1.61635863115e-05
1.6163565834e-05
1.61635520512e-05
1.61635485904e-05
1.61635569468e-05
1.61635758061e-05
1.61636015034e-05
1.6163627293e-05
1.61636483498e-05
1.61636437582e-05
1.61636347275e-05
1.61637609986e-05
1.61637695488e-05
1.61637803309e-05
1.61637641885e-05
1.61637442064e-05
1.61637242139e-05
1.61637106744e-05
1.61637072235e-05
1.61637153298e-05
1.61637336779e-05
1.61637586101e-05
1.61637833745e-05
1.61638034494e-05
1.61637952351e-05
1.61637860736e-05
1.61638927598e-05
1.61639032826e-05
1.61639190448e-05
1.61639051006e-05
1.61638871761e-05
1.61638688169e-05
1.61638563039e-05
1.61638531319e-05
1.61638606792e-05
1.61638776929e-05
1.616390067e-05
1.61639231e-05
1.61639409018e-05
1.61639278257e-05
1.61639172294e-05
1.61640139075e-05
1.61640295007e-05
1.61640528026e-05
1.61640436487e-05
1.61640302372e-05
1.61640155891e-05
1.61640054676e-05
1.61640030343e-05
1.61640095001e-05
1.61640237655e-05
1.61640426782e-05
1.61640603076e-05
1.61640732147e-05
1.61640527299e-05
1.61640376334e-05
1.61641340289e-05
1.61641592052e-05
1.61641935403e-05
1.61641927435e-05
1.61641871171e-05
1.61641788933e-05
1.61641729444e-05
1.61641718537e-05
1.61641765933e-05
1.61641862959e-05
1.61641984e-05
1.61642079398e-05
1.61642123784e-05
1.61641810159e-05
1.61641568484e-05
1.61642621298e-05
1.61643023955e-05
1.61643515291e-05
1.61643629952e-05
1.61643687377e-05
1.61643699098e-05
1.61643700576e-05
1.61643709664e-05
1.61643732879e-05
1.61643764712e-05
1.61643787925e-05
1.61643766486e-05
1.61643686873e-05
1.61643226221e-05
1.61642839274e-05
1.61644057772e-05
1.61644666279e-05
1.61645339843e-05
1.61645613268e-05
1.61645817943e-05
1.616459511e-05
1.61646031392e-05
1.61646066472e-05
1.61646059055e-05
1.6164600763e-05
1.61645905194e-05
1.61645733291e-05
1.61645493432e-05
1.61644851406e-05
1.61644263261e-05
1.61645681465e-05
1.6164654693e-05
1.61647429492e-05
1.61647892674e-05
1.61648274249e-05
1.61648553487e-05
1.61648728034e-05
1.61648794241e-05
1.61648750735e-05
1.61648599966e-05
1.61648347438e-05
1.61647995171e-05
1.61647563796e-05
1.61646713497e-05
1.61645873391e-05
1.61647477589e-05
1.61648643109e-05
1.61649755197e-05
1.61650433081e-05
1.61651019519e-05
1.61651466714e-05
1.61651749553e-05
1.61651851343e-05
1.61651766493e-05
1.61651502792e-05
1.61651077223e-05
1.61650516954e-05
1.61649869058e-05
1.6164878956e-05
1.61647653527e-05
1.61649743939e-05
1.61651252136e-05
1.61652463427e-05
1.61653295367e-05
1.61654051665e-05
1.61654642342e-05
1.61655016492e-05
1.61655147566e-05
1.61655027631e-05
1.61654666562e-05
1.61654093335e-05
1.61653359477e-05
1.61652556084e-05
1.6165137774e-05
1.61649900016e-05
1.6165493112e-05
1.61655351808e-05
1.61656057589e-05
1.61656650773e-05
1.61657278385e-05
1.61657786878e-05
1.61658111971e-05
1.61658224982e-05
1.61658117323e-05
1.6165780056e-05
1.61657305169e-05
1.61656697411e-05
1.61656132853e-05
1.61655462688e-05
1.616550719e-05
1.42496034405e-05
1.42496137038e-05
1.42496273782e-05
1.42496344302e-05
1.42496392789e-05
1.42496418737e-05
1.4249643714e-05
1.42496456222e-05
1.42496480642e-05
1.42496508561e-05
1.42496534974e-05
1.42496546077e-05
1.42496541049e-05
1.42496461619e-05
1.42496408094e-05
1.42498127737e-05
1.42498317712e-05
1.42498544164e-05
1.42498694183e-05
1.42498812644e-05
1.42498892816e-05
1.42498945636e-05
1.42498977294e-05
1.4249899165e-05
1.42498987506e-05
1.42498961444e-05
1.42498902292e-05
1.42498814352e-05
1.42498641654e-05
1.42498494721e-05
1.42500352724e-05
1.42500628843e-05
1.4250095198e-05
1.42501179088e-05
1.42501364037e-05
1.42501493217e-05
1.42501576647e-05
1.42501618849e-05
1.42501623121e-05
1.4250158859e-05
1.42501513181e-05
1.42501387482e-05
1.42501222117e-05
1.42500954946e-05
1.42500719952e-05
1.42502237335e-05
1.42502576149e-05
1.42502971314e-05
1.42503248774e-05
1.42503477201e-05
1.42503638636e-05
1.42503742386e-05
1.4250379159e-05
1.42503789015e-05
1.42503733905e-05
1.42503625067e-05
1.42503453892e-05
1.42503236151e-05
1.42502896592e-05
1.42502602828e-05
1.42503873109e-05
1.42504257476e-05
1.4250471342e-05
1.42505029272e-05