/*--------------------------------*- C++ -*----------------------------------*\
  =========                 |
  \\      /  F ield         | OpenFOAM: The Open Source CFD Toolbox
   \\    /   O peration     | Website:  https://openfoam.org
    \\  /    A nd           | Version:  7
     \\/     M anipulation  |
\*---------------------------------------------------------------------------*/
FoamFile
{
    version     2.0;
    format      ascii;
    class       volVectorField;
    location    "0.5";
    object      U;
}
// * * * * * * * * * * * * * * * * * * * * * * * * * * * * * * * * * * * * * //

dimensions      [0 1 -1 0 0 0 0];

internalField   nonuniform List<vector> 
22500
(
(3.44835568646e-05 3.84537982881e-05 0.000792566874724)
(3.222191565e-05 4.31157665138e-05 0.000831669940824)
(2.81792901855e-05 4.79190769271e-05 0.000867390960555)
(2.37129902085e-05 5.1986732716e-05 0.00089813934156)
(1.84405880926e-05 5.53626164192e-05 0.000922996535286)
(1.26286692606e-05 5.78749671369e-05 0.000941247635209)
(6.41441574793e-06 5.94253755787e-05 0.000952404251895)
(-8.71222244732e-09 5.9949658757e-05 0.000956174019382)
(-6.43142708084e-06 5.94245828065e-05 0.000952404644791)
(-1.26443965273e-05 5.78736044628e-05 0.000941248347438)
(-1.8453928237e-05 5.53611722672e-05 0.000922997485001)
(-2.37228960441e-05 5.19857583145e-05 0.00089814052171)
(-2.81849844345e-05 4.79194522427e-05 0.000867392277659)
(-3.22234317637e-05 4.31178715916e-05 0.000831670763635)
(-3.44819969726e-05 3.84572677011e-05 0.000792562471817)
(9.87317644297e-05 0.000110517696746 0.00191429636444)
(9.19881679724e-05 0.00012356843643 0.00198864505527)
(8.0644102072e-05 0.000136795029717 0.00205550484384)
(6.77095575407e-05 0.000148092828674 0.00211224719426)
(5.26302485104e-05 0.000157454775498 0.00215755658981)
(3.60156888837e-05 0.000164417715492 0.00219050996765)
(1.82875656389e-05 0.000168714185713 0.00221052361572)
(-1.80143651774e-08 0.000170166349095 0.00221725801647)
(-1.83228170772e-05 0.000168712725402 0.00221052383183)
(-3.6048508789e-05 0.000164415282486 0.0021905103058)
(-5.26585799145e-05 0.000157452400305 0.00215755701531)
(-6.7731240523e-05 0.000148091594978 0.00211224792554)
(-8.06574334062e-05 0.00013679662954 0.0020555059901)
(-9.19928730379e-05 0.000123573369177 0.0019886451104)
(-9.87294468301e-05 0.00011052505204 0.00191428548433)
(0.000143196293276 0.000160366115411 0.00271504916303)
(0.000132675788337 0.00017795648684 0.0028014332913)
(0.000115916526933 0.000195685009677 0.00287796626624)
(9.6916450515e-05 0.000210737887177 0.00294211732952)
(7.51025377709e-05 0.000223145432963 0.00299277971087)
(5.12737568267e-05 0.000232336195585 0.00302931138061)
(2.59991071716e-05 0.000237993011246 0.00305136580167)
(-2.2353237426e-08 0.000239902827658 0.00305875901736)
(-2.60429149424e-05 0.000237992568712 0.00305136535467)
(-5.13147591077e-05 0.000232335767492 0.00302931042574)
(-7.51384324295e-05 0.000223145941811 0.0029927783487)
(-9.69447665022e-05 0.00021074026425 0.00294211606129)
(-0.000115935165238 0.000195690501655 0.0028779656889)
(-0.000132684349689 0.000177965195684 0.00280143196765)
(-0.000143196084903 0.00016037689713 0.00271503426179)
(0.000173092158856 0.000193859658437 0.00329054673119)
(0.000159468596908 0.000213318581509 0.00337608824719)
(0.000138728816974 0.0002329475076 0.00345062037767)
(0.00011547874193 0.000249428560369 0.00351226571851)
(8.91845640765e-05 0.000262934777576 0.00356037506304)
(6.07330417372e-05 0.000272888471472 0.00359474409329)
(3.07486447746e-05 0.000278995582777 0.00361535760448)
(-2.38186578631e-08 0.000281054206319 0.00362224076638)
(-3.07953910707e-05 0.00027899611098 0.00361535665687)
(-6.07770127119e-05 0.000272889907483 0.00359474219142)
(-8.92235478455e-05 0.000262937851566 0.00356037245355)
(-0.000115510356095 0.000249433955544 0.00351226316814)
(-0.000138750884412 0.000232955962316 0.00345061906794)
(-0.000159480584541 0.00021332976171 0.0033760875497)
(-0.000173094779201 0.00019387234227 0.00329053363886)
(0.000192522422552 0.000215687443873 0.00370344228055)
(0.00017641293576 0.000235303754858 0.00378115556509)
(0.000152796315837 0.00025522462017 0.0038475796878)
(0.000126653005189 0.000271733049522 0.00390168633643)
(9.74961123784e-05 0.000285182857014 0.00394335044117)
(6.62309322637e-05 0.000295044070791 0.0039728006693)
(3.34826095924e-05 0.000301075194882 0.00399033254841)
(-2.46082902551e-08 0.00030310494827 0.00399616167933)
(-3.35309520352e-05 0.000301076475023 0.00399033143924)
(-6.62765666538e-05 0.000295046933956 0.00397279850671)
(-9.75369476315e-05 0.00028518784472 0.0039433475984)
(-0.000126686821606 0.000271740628446 0.00390168381306)
(-0.000152821020695 0.000255235178177 0.00384757926082)
(-0.000176427881459 0.000235316592446 0.00378115770109)
(-0.000192527851463 0.00021570143457 0.00370343518589)
(0.00020376104578 0.000228355856568 0.00399723684886)
(0.000185730481907 0.000246941574498 0.00406376222353)
(0.000160156536552 0.000266064111324 0.00411937740844)
(0.000132218004578 0.000281690346398 0.00416387815961)
(0.000101464863071 0.000294347539348 0.00419761796766)
(6.87677231902e-05 0.000303582185064 0.00422117343024)
(3.47163898122e-05 0.000309213106588 0.00423507433363)
(-2.49484989762e-08 0.000311105405818 0.00423967390728)
(-3.47654326612e-05 0.000309214900579 0.00423507335133)
(-6.8814138927e-05 0.000303586003849 0.00422117158235)
(-0.000101506692648 0.000294353765756 0.00419761573994)
(-0.000132253210359 0.000281699268309 0.00416387677731)
(-0.000160183217254 0.000266075871204 0.00411937923967)
(-0.000185747940343 0.000246955265311 0.00406376877827)
(-0.000203769055512 0.000228370510315 0.0039972374509)
(0.000208545072339 0.00023374711745 0.00420346923643)
(0.000189112031312 0.000250509859877 0.00425775517374)
(0.000162358451179 0.000268111183218 0.00430199417698)
(0.000133515565008 0.000282288411938 0.00433665578756)
(0.000102161194534 0.000293707348983 0.00436245942377)
(6.90899216861e-05 0.000302001778451 0.0043802110053)
(3.48335012172e-05 0.000307045789224 0.00439057845494)
(-2.49132203777e-08 0.000308738757492 0.00439398961379)
(-3.48825008889e-05 0.000307047876081 0.00439057779798)
(-6.91363980934e-05 0.000302006116819 0.00438020986536)
(-0.00010220333027 0.000293714186618 0.00436245839981)
(-0.000133551515896 0.000282297892231 0.00433665634608)
(-0.000162386535207 0.000268123275248 0.00430199926079)
(-0.000189131584256 0.000250523602083 0.00425776706351)
(-0.000208555404796 0.00023376176358 0.00420347776693)
(0.000208395098432 0.000233535171231 0.00434559854563)
(0.000188028047985 0.000248012004477 0.00438803723591)
(0.000160739744936 0.000263658093429 0.00442162029979)
(0.000131693546561 0.000276080871795 0.00444728506745)
(0.000100492910267 0.000286034827349 0.00446597490713)
(6.78264533312e-05 0.00029323927505 0.00447860354366)
(3.41556492264e-05 0.000297611028472 0.00448588528172)
(-2.45778368928e-08 0.000299077011364 0.00448826489105)
(-3.42040138635e-05 0.000297613198911 0.0044858850627)
(-6.78724240209e-05 0.000293243721532 0.00447860333713)
(-0.000100534819915 0.000286041688423 0.00446597544034)
(-0.000131729746781 0.000276090181767 0.00444728807684)
(-0.000160768782568 0.000263669715069 0.004421629264)
(-0.000188049308609 0.00024802500253 0.0043880548105)
(-0.00020840748981 0.000233549160164 0.00434561440057)
(0.000204573285651 0.000229125573249 0.00444126251465)
(0.000183682045336 0.000241099094487 0.00447308148491)
(0.000156382234638 0.000254559665859 0.00449742104112)
(0.000127670540556 0.000265098951214 0.00451547342326)
(9.71791682556e-05 0.000273506892205 0.00452826513765)
(6.54716199733e-05 0.0002795787307 0.00453671275835)
(3.29343640413e-05 0.000283258446808 0.0045415036181)
(-2.40310789585e-08 0.000284491789235 0.00454305556878)
(-3.29816818503e-05 0.00028326051807 0.00454150388525)
(-6.55167012021e-05 0.000279582927111 0.00453671358744)
(-9.72205023062e-05 0.000273513266189 0.0045282674077)
(-0.000127706671008 0.000265107464277 0.00451547916939)
(-0.000156411924324 0.000254570132039 0.00449743421024)
(-0.000183704710864 0.000241110691191 0.00447310464325)
(-0.000204587469985 0.000229138323844 0.00444128461185)
(0.000198083691768 0.000221643930297 0.00450371711193)
(0.000177012923174 0.000231062303378 0.00452654558175)
(0.000150118021394 0.000242236444012 0.00454333066393)
(0.000122146413821 0.000250868699848 0.00455533025697)
(9.27622529821e-05 0.000257736078007 0.00456353539105)
(6.23948717486e-05 0.00026269454014 0.00456878729238)
(3.13565054006e-05 0.000265699520037 0.00457169693081)
(-2.33775350621e-08 0.000266706858463 0.00457262784755)
(-3.14025728075e-05 0.000265701335948 0.00457169769067)
(-6.24388855621e-05 0.000262698181516 0.00456878917665)
(-9.28028584012e-05 0.000257741535352 0.00456353944993)
(-0.000122182331039 0.000250875895147 0.00455533883625)
(-0.000150148198008 0.000242245204283 0.00454334808019)
(-0.0001770367897 0.000231071975197 0.00452657381299)
(-0.000198099445866 0.000221654970913 0.00450374401612)
(0.00018971131709 0.000211980043703 0.00454284596387)
(0.000168737195864 0.000218888302547 0.00455841702035)
(0.000142574008666 0.000227748230407 0.00456933885117)
(0.000115645172205 0.000234507247812 0.00457678529969)
(8.76439694494e-05 0.000239887327457 0.0045816270155)
(5.88669826631e-05 0.000243783764568 0.00458458145766)
(2.95579514069e-05 0.000246149439777 0.00458615719849)
(-2.27184809855e-08 0.000246943189429 0.00458665101723)
(-2.96027687284e-05 0.000246150885828 0.00458615842046)
(-5.89099517673e-05 0.000243786626135 0.00458458433282)
(-8.76838850662e-05 0.000239891546414 0.0045816327602)
(-0.000115680901741 0.000234512736586 0.00457679654817)
(-0.000142604631368 0.000227754878621 0.00456936016592)
(-0.000168762116482 0.000218895683481 0.00455844928936)
(-0.000189728453962 0.000211989065724 0.00454287573598)
(0.000180059904368 0.000200835343135 0.00456593147832)
(0.000159395124452 0.000205310991675 0.00457589474989)
(0.000134222011416 0.000211863691909 0.00458248213153)
(0.00010855925253 0.000216815093167 0.00458668058715)
(8.21198703714e-05 0.000220787173593 0.00458919399502)
(5.50831670444e-05 0.000223686402731 0.00459059584349)
(2.76353059185e-05 0.000225453620056 0.0045912854273)
(-2.21416689106e-08 0.000226047569637 0.00459149151353)
(-2.76790487482e-05 0.000225454628304 0.00459128701843)
(-5.51252911351e-05 0.000223688351182 0.00459059949262)
(-8.21593033041e-05 0.000220789966039 0.00458920102338)
(-0.000108594962883 0.000216818629961 0.00458669383191)
(-0.000134253132115 0.000211867956633 0.00458250627983)
(-0.000159420977452 0.000205315814522 0.00457592918965)
(-0.000180078238069 0.000200842039088 0.00456596127161)
(0.000169579250829 0.000188728447382 0.00457828721237)
(0.000149410932633 0.000190838049956 0.00458410832777)
(0.000125436539371 0.00019512524581 0.00458763978455)
(0.000101188826911 0.000198364714969 0.00458963417986)
(7.64037570974e-05 0.000201022536286 0.00459062262889)
(5.11778846245e-05 0.000202988001326 0.0045910384647)
(2.56531497919e-05 0.000204192402104 0.00459117814279)
(-2.17081605815e-08 0.000204597880568 0.00459120789514)
(-2.56961138144e-05 0.000204192968343 0.00459117989174)
(-5.12194718584e-05 0.000202989035967 0.00459104238003)
(-7.64430226768e-05 0.000201023865054 0.00459062996599)
(-0.000101224794632 0.000198366230219 0.00458964776423)
(-0.000125468296176 0.000195127012262 0.0045876643391)
(-0.0001494376422 0.000190840150011 0.00458414174311)
(-0.00016959855785 0.000188732600697 0.00457831313569)
(0.000158661274757 0.000175982442761 0.0045838114052)
(0.000139216811885 0.000175797783172 0.0045867259273)
(0.00011654212026 0.00017790310767 0.00458818077407)
(9.3746324766e-05 0.000179583328025 0.00458872337928)
(7.06243427484e-05 0.000181024679959 0.00458874585461)
(4.72232102432e-05 0.000182107052273 0.00458856161529)
(2.36440748869e-05 0.000182772502234 0.00458837749112)
(-2.1423236791e-08 0.00018299665327 0.00458830528554)
(-2.36865598987e-05 0.000182772714446 0.0045883790145)
(-4.72646000746e-05 0.000182107324425 0.00458856486727)
(-7.06637953818e-05 0.000181024762745 0.00458875167913)
(-9.37828516947e-05 0.000179583045481 0.00458873406735)
(-0.000116574689093 0.000177902524902 0.00458820084373)
(-0.000139244351 0.000175797204121 0.00458675282248)
(-0.000158681428403 0.000175983921801 0.00458382858507)
(0.000147935961846 0.000162656020421 0.00458551796303)
(0.000129366500942 0.000159393926257 0.00458648029112)
(0.000107690148705 0.000159934256646 0.00458647862901)
(8.62897601659e-05 0.0001603376342 0.00458601765142)
(6.47933152754e-05 0.000160740783994 0.0045853924378)
(4.32204104444e-05 0.000161048071046 0.00458482108233)
(2.16082759558e-05 0.000161237024789 0.00458443529309)
(-2.12054087624e-08 0.000161300665015 0.00458430085135)
(-2.1650456666e-05 0.000161236892519 0.004584436198)
(-4.3261846044e-05 0.000161047604291 0.00458482268254)
(-6.48333191564e-05 0.000160739699997 0.0045853947091)
(-8.63273521914e-05 0.00016033565888 0.00458602139427)
(-0.000107724074978 0.000159931419102 0.00458648746437)
(-0.000129395252132 0.000159390447755 0.00458648862686)
(-0.000147957417928 0.00016265409234 0.00458552743256)
(1.22757837859e-06 1.95974018619e-06 0.000487150997354)
(7.62040479968e-07 2.53507718764e-06 0.000511478518121)
(5.53113870904e-07 2.86998973852e-06 0.000533588315288)
(3.4226469036e-07 3.12379333349e-06 0.000552682817554)
(1.81488035525e-07 3.29094726871e-06 0.000568163156068)
(8.28335233301e-08 3.38910375206e-06 0.000579553128638)
(3.20817478566e-08 3.438680758e-06 0.000586528230812)
(1.01152575595e-08 3.45404312076e-06 0.000588892335745)
(-1.24279673433e-08 3.43986904707e-06 0.000586530247787)
(-6.50224403752e-08 3.39108549506e-06 0.000579557078764)
(-1.67115848671e-07 3.29292031285e-06 0.000568168757202)
(-3.32787115107e-07 3.12481046164e-06 0.000552689377613)
(-5.49366035387e-07 2.86882646095e-06 0.000533594782679)
(-7.63649962388e-07 2.53135039263e-06 0.000511482659526)
(-1.23205587126e-06 1.95432531759e-06 0.000487147149081)
(1.11572914396e-05 1.34892341192e-05 0.00137620284738)
(9.72923369368e-06 1.63861621554e-05 0.00144064821282)
(8.56377798769e-06 1.8850652158e-05 0.00149908389159)
(7.13813270311e-06 2.09878599932e-05 0.00154941398817)
(5.50770281701e-06 2.26958655165e-05 0.00159011763016)
(3.75121828437e-06 2.39342295615e-05 0.00162001261683)
(1.90758401071e-06 2.46849407748e-05 0.00163829375334)
(2.47754900596e-08 2.4937551126e-05 0.00164447288634)
(-1.85948095354e-06 2.46873614936e-05 0.00163829929003)
(-3.70767267986e-06 2.39381767513e-05 0.00162002347606)
(-5.47237948228e-06 2.26995615544e-05 0.00159013306726)
(-7.11448714694e-06 2.09892450382e-05 0.00154943219319)
(-8.5536721419e-06 1.88470359311e-05 0.00149910194343)
(-9.73171531919e-06 1.63767911344e-05 0.00144065990486)
(-1.11669473191e-05 1.34756355098e-05 0.00137619450361)
(2.51190288361e-05 2.8922451492e-05 0.00218157697619)
(2.25062612702e-05 3.44621735241e-05 0.00227719109987)
(2.00015862409e-05 3.9421450896e-05 0.00236331318448)
(1.686222384e-05 4.37671723879e-05 0.00243703416027)
(1.31507766517e-05 4.72930524166e-05 0.00249632884335)
(9.02288442295e-06 4.98827023717e-05 0.00253969133116)
(4.59954681089e-06 5.1466894779e-05 0.00256612393332)
(2.9656087129e-08 5.2001263694e-05 0.00257503332415)
(-4.54187360766e-06 5.14687667968e-05 0.00256613149732)
(-8.97039545366e-06 4.98854673838e-05 0.00253970618346)
(-1.31076647331e-05 4.72948005331e-05 0.00249635004909)
(-1.68326762822e-05 4.37656547166e-05 0.00243705947554)
(-1.99882389566e-05 3.94141057008e-05 0.00236333879125)
(-2.2508316745e-05 3.44481501293e-05 0.00227720864586)
(-2.51306594061e-05 2.89033453103e-05 0.00218156703554)
(4.02535022911e-05 4.51991900405e-05 0.00289496242246)
(3.62282438081e-05 5.31600787248e-05 0.00301111653028)
(3.21922578325e-05 6.03100317091e-05 0.00311464405328)
(2.71448684955e-05 6.65784077318e-05 0.00320244692653)
(2.11847586683e-05 7.1669667885e-05 0.00327249517291)
(1.45387701194e-05 7.54113909841e-05 0.00332339364012)
(7.40702695131e-06 7.7701495574e-05 0.00335427709809)
(3.09195932553e-08 7.84733891064e-05 0.00336465396529)
(-7.34683167194e-06 7.77025442249e-05 0.0033542853598)
(-1.44837799407e-05 7.54125750261e-05 0.00332340991915)
(-2.11391762006e-05 7.16692488582e-05 0.00327251866374)
(-2.71130311977e-05 6.65743002121e-05 0.00320247564)
(-3.21772039442e-05 6.03000281524e-05 0.00311467437676)
(-3.62294720786e-05 5.31433099426e-05 0.00301113971399)
(-4.02655349536e-05 4.51768288041e-05 0.00289495616262)
(5.46847246549e-05 6.03626940335e-05 0.00350910600545)
(4.91122022018e-05 7.02647946378e-05 0.00363494675715)
(4.35164692614e-05 7.90151891446e-05 0.00374559370247)
(3.65909791007e-05 8.66660613613e-05 0.00383833153107)
(2.85002670997e-05 9.28592773269e-05 0.00391156001747)
(1.95279703119e-05 9.73972636497e-05 0.00396433801355)
(9.93534451655e-06 0.000100169212115 0.00399617757131)
(2.99109207476e-08 0.000101101990521 0.00400683816932)
(-9.87706997279e-06 0.000100169399145 0.00399618555576)
(-1.94745771621e-05 9.73968509031e-05 0.0039643538862)
(-2.84556730667e-05 9.28568096027e-05 0.00391158337697)
(-3.65593259854e-05 8.66597807435e-05 0.00383836117479)
(-4.35009031502e-05 7.90032824386e-05 0.0037456271122)
(-4.91126343707e-05 7.02465130046e-05 0.00363497603797)
(-5.46963755098e-05 6.03385439007e-05 0.00350910750292)
(6.73527710197e-05 7.33821721214e-05 0.00402273717623)
(6.02005935799e-05 8.46451969102e-05 0.00414870094926)
(5.31229267531e-05 9.43226045052e-05 0.00425767316754)
(4.44868393517e-05 0.000102747846435 0.00434773881637)
(3.45420909771e-05 0.000109528394348 0.00441800163445)
(2.36111559227e-05 0.00011447293112 0.00446815755118)
(1.19924816066e-05 0.000117483513186 0.00449821068905)
(2.75736601125e-08 0.000118494493037 0.00450823410811)
(-1.1938720654e-05 0.000117482830931 0.00449821787959)
(-2.3561755619e-05 0.000114470951311 0.00446817206685)
(-3.45005289997e-05 0.000109523994528 0.00441802365798)
(-4.4456890339e-05 0.000102739671001 0.00434776824867)
(-5.310765465e-05 9.4309264292e-05 0.00425770910615)
(-6.02003302961e-05 8.46260800593e-05 0.00414873695905)
(-6.73636989207e-05 7.33571763352e-05 0.00402274873509)
(7.76761879007e-05 8.37444347483e-05 0.00444051893238)
(6.90112121648e-05 9.57750539689e-05 0.00455921248386)
(6.06058678777e-05 0.000105734581701 0.00465999952281)
(5.05143055773e-05 0.000114359223762 0.00474198306809)
(3.90768641297e-05 0.000121248029485 0.00480506464651)
(2.66364296596e-05 0.00012624154614 0.00484960105695)
(1.35040560882e-05 0.000129269847088 0.0048760806218)
(2.45596847506e-08 0.000130284383246 0.00488487431171)
(-1.3456134974e-05 0.000129268360199 0.00487608689795)
(-2.65922666832e-05 0.000126238132925 0.00484961401978)
(-3.90394462679e-05 0.000121241901763 0.00480508514301)
(-5.04869567007e-05 0.000114349424503 0.00474201221915)
(-6.05914850595e-05 0.00010572015539 0.00466003820743)
(-6.90104462132e-05 9.57555135845e-05 0.00455925576676)
(-7.76862618595e-05 8.37192154376e-05 0.00444054146731)
(8.54180280969e-05 9.12905098991e-05 0.00477138649644)
(7.53927599186e-05 0.000103540763407 0.00487784804537)
(6.58678636047e-05 0.000113234177761 0.00496637525248)
(5.46255682866e-05 0.000121575518631 0.00503711596798)
(4.20889720073e-05 0.000128178378803 0.00509071053776)
(2.86045426687e-05 0.000132931978522 0.00512808049509)
(1.44742259913e-05 0.000135801895934 0.00515010440057)
(2.12929963872e-08 0.000136760958039 0.00515738360914)
(-1.44326523131e-05 0.000135799718837 0.00515010990704)
(-2.85661333004e-05 0.000132927342977 0.00512809220166)
(-4.2056232133e-05 0.000128170791635 0.00509072995163)
(-5.46013474637e-05 0.000121564393118 0.00503714538906)
(-6.58548167495e-05 0.000113218942648 0.00496641723324)
(-7.53917712564e-05 0.000103521094269 0.00487789878339)
(-8.54272501989e-05 9.1265420887e-05 0.00477141973336)
(9.05914006579e-05 9.61090095281e-05 0.00502667232723)
(7.94207114362e-05 0.000108107999725 0.00511819925549)
(6.90156052966e-05 0.000117113033472 0.0051925625594)
(5.69456136651e-05 0.000124803155936 0.00525082939418)
(4.3698212973e-05 0.00013082727772 0.00529421723309)
(2.96091824013e-05 0.000135131603016 0.00532404794473)
(1.49543043171e-05 0.000137717917646 0.00534145369506)
(1.80045890316e-08 0.000138579996631 0.00534717589174)
(-1.49191384809e-05 0.000137715182029 0.00534145869067)
(-2.9576641651e-05 0.000135125979716 0.00532405888849)
(-4.3670359523e-05 0.000130818516268 0.00529423622413)
(-5.69248377041e-05 0.000124790979727 0.00525085976244)
(-6.90042613524e-05 0.00011709719584 0.00519260824314)
(-7.94198052944e-05 0.00010808832642 0.00511825698121)
(-9.05998804156e-05 9.60842184235e-05 0.00502671486355)
(9.33744632716e-05 9.84441697969e-05 0.00521853119541)
(8.13090391551e-05 0.000109808014463 0.00529427217197)
(7.02734940322e-05 0.000117828259059 0.0053542662988)
(5.76933131587e-05 0.000124610709461 0.00540027304956)
(4.40946609605e-05 0.000129859565127 0.0054338764813)
(2.97905330631e-05 0.000133579421393 0.00545661419904)
(1.50186149095e-05 0.000135803765023 0.00546972999221)
(1.47992528741e-08 0.000136543346107 0.0054740157147)
(-1.49897170517e-05 0.0001358006137 0.00546973470601)
(-2.97638007555e-05 0.000133573060655 0.00545662478375)
(-4.40717673692e-05 0.000129849919496 0.00543389550569)
(-5.76762108592e-05 0.000124597738436 0.00540030465252)
(-7.02641923244e-05 0.000117811970509 0.00535431542968)
(-8.13085249206e-05 0.000109788363534 0.00529433538687)
(-9.33823482785e-05 9.84196962108e-05 0.00521858035615)
(9.40395688646e-05 9.8623002581e-05 0.00535880650642)
(8.13414423467e-05 0.000109049614261 0.00541927449998)
(6.9919532512e-05 0.000115894941231 0.00546587016855)
(5.71255694864e-05 0.000121606970197 0.00550076857274)
(4.34941183945e-05 0.000125964745011 0.00552570860988)
(2.93042030403e-05 0.000129026735487 0.00554227618271)
(1.47485327588e-05 0.000130849379698 0.0055517053702)
(1.16978842605e-08 0.000131454040934 0.00555476465745)
(-1.47257210267e-05 0.000130845955887 0.00555170986344)
(-2.92831800941e-05 0.000129019889127 0.00554228643977)
(-4.34762208273e-05 0.000125954506342 0.00552572748647)
(-5.71123443546e-05 0.000121593450929 0.00550080074597)
(-6.9912613855e-05 0.000115878323426 0.00546592122727)
(-8.13416754032e-05 0.000109029956772 0.00541934017215)
(-9.40470540163e-05 9.85987284792e-05 0.00535885793084)
(9.2893604431e-05 9.69976697484e-05 0.00545832577554)
(7.98179641095e-05 0.00010625007842 0.00550493850184)
(6.82415375429e-05 0.000111806366769 0.0055398050689)
(5.55030534766e-05 0.00011635758524 0.00556523697757)
(4.2112289905e-05 0.000119773150425 0.00558295481158)
(2.83036839055e-05 0.000122153573987 0.005594467969)
(1.42235879e-05 0.00012356544644 0.00560091429948)
(8.68962389343e-09 0.000124033004003 0.00560298774423)
(-1.42066994448e-05 0.000123561912111 0.00560091833098)
(-2.82882822669e-05 0.000122146521048 0.00559447727191)
(-4.20994286271e-05 0.000119762644228 0.00558297225928)
(-5.54939030234e-05 0.000116343802744 0.00556526745857)
(-6.82373393473e-05 0.000111789584248 0.00553985454491)
(-7.98193403477e-05 0.000106230440646 0.00550500148208)
(-9.29009610541e-05 9.69736024561e-05 0.00545837285306)
(9.02215901488e-05 9.38868787685e-05 0.00552655634158)
(7.70186900858e-05 0.00010177257814 0.00556126944612)
(6.55203076066e-05 0.000105979292509 0.00558638607686)
(5.3081295547e-05 0.000109336907269 0.00560412453765)
(4.01582039164e-05 0.000111815051846 0.00561608993259)
(2.69355133768e-05 0.000113532355934 0.00562364669549)
(1.35188632172e-05 0.000114549217738 0.00562778796942)
(5.77488501681e-09 0.000114885661349 0.00562910468339)
(-1.35077357719e-05 0.000114545749511 0.00562779089185)
(-2.69256381513e-05 0.000113525410549 0.00562365353106)
(-4.01503889509e-05 0.000111804685021 0.00561610316301)
(-5.30763675351e-05 0.000109323255165 0.00560414880336)
(-6.55191026699e-05 0.000105962626315 0.00558642761188)
(-7.70215366239e-05 0.000101753088902 0.00556132194027)
(-9.02290741841e-05 9.38631668378e-05 0.00552659040726)
(8.62843229393e-05 8.95636868706e-05 0.00557153911285)
(7.32385242659e-05 9.60409604785e-05 0.00559661569798)
(6.20729983074e-05 9.88162217364e-05 0.00561395604312)
(5.01341479032e-05 0.000100981483079 0.0056256266101)
(3.78454676145e-05 0.000102560175997 0.00563313199668)
(2.53437222823e-05 0.000103652955003 0.00563767379927)
(1.27064429687e-05 0.000104300270855 0.00564008189149)
(2.98294596029e-09 0.000104514239887 0.00564083345358)
(-1.27008445699e-05 0.000104297048893 0.00564008266216)
(-2.53391673019e-05 0.000103646468149 0.00563767578836)
(-3.78425678995e-05 0.000102550400341 0.00563313668846)
(-5.01334513461e-05 0.000100968453344 0.00562563755707)
(-6.20749459905e-05 9.88001169936e-05 0.00561397947879)
(-7.32430739891e-05 9.60218927392e-05 0.00559664649787)
(-8.62921851702e-05 8.95403691661e-05 0.00557155044761)
(8.11633340087e-05 8.56185048559e-05 0.00560010283774)
(6.88141601836e-05 8.96730221053e-05 0.00561803201153)
(5.8204799944e-05 9.08139981764e-05 0.00562915978124)
(4.68997499015e-05 9.17527160302e-05 0.0056360270046)
(3.53499404791e-05 9.24073696637e-05 0.00564006863246)
(2.36423641996e-05 9.28558266796e-05 0.00564231164932)
(1.18423508036e-05 9.31190113853e-05 0.00564341605247)
(3.7187012216e-10 9.32051241632e-05 0.00564374518218)
(-1.18419074241e-05 9.31162671718e-05 0.00564341364151)
(-2.36427516284e-05 9.28502867614e-05 0.00564230647272)
(-3.53515644307e-05 9.23989261752e-05 0.00564006053048)
(-4.69029015232e-05 9.174130516e-05 0.00563601706704)
(-5.82096892383e-05 9.07995656157e-05 0.00562915318343)
(-6.88203142581e-05 8.96554201617e-05 0.00561802182625)
(-8.11719608895e-05 8.5596630649e-05 0.00560009071502)
(-9.11373214562e-08 -3.47696548849e-07 0.000338018414861)
(1.49932664287e-07 -5.70715268542e-07 0.000355136949724)
(3.6100997471e-07 -6.93626321981e-07 0.000370765205506)
(4.6344508937e-07 -7.167959201e-07 0.000384348494735)
(4.65295509383e-07 -6.83049937148e-07 0.000395402562284)
(3.6968269571e-07 -6.27907548276e-07 0.000403558788558)
(2.03333022687e-07 -5.81944641384e-07 0.000408563642122)
(-1.48347133697e-09 -5.64473293844e-07 0.000410263135554)
(-2.06161127837e-07 -5.82346891701e-07 0.00040856499788)
(-3.72129128389e-07 -6.28649831765e-07 0.000403561406171)
(-4.67206873889e-07 -6.84009089293e-07 0.000395406191158)
(-4.64696857727e-07 -7.17761807234e-07 0.000384352626401)
(-3.61659903183e-07 -6.94467224266e-07 0.000370768902834)
(-1.50132211218e-07 -5.7119315086e-07 0.000355138174067)
(9.13399324358e-08 -3.47684618958e-07 0.000338012465621)
(1.20840647428e-06 7.90449986515e-07 0.0010103908277)
(1.6814418362e-06 6.23567968056e-07 0.00106056832016)
(2.06376275638e-06 6.97832642859e-07 0.00110647043793)
(2.14254074445e-06 9.81449254189e-07 0.00114636382268)
(1.93301831036e-06 1.3488958371e-06 0.00117883045963)
(1.45404793802e-06 1.69779347337e-06 0.0012027898523)
(7.79661333453e-07 1.94275349901e-06 0.00121748948391)
(4.58538321919e-10 2.03042792114e-06 0.00122246822123)
(-7.78593582948e-07 1.94158923031e-06 0.00121749453102)
(-1.4526280803e-06 1.69551815862e-06 0.00120279960198)
(-1.9313186611e-06 1.34562529455e-06 0.00117884401516)
(-2.14084688395e-06 9.77485858287e-07 0.00114637941642)
(-2.06259657175e-06 6.93448798327e-07 0.00110648498744)
(-1.68110778593e-06 6.19324694207e-07 0.00106057553393)
(-1.20854831872e-06 7.86831848439e-07 0.00101037885501)
(4.13996752379e-06 3.86666504373e-06 0.00166889509788)
(4.62912798561e-06 4.24180550795e-06 0.00174997533237)
(4.94010328315e-06 4.9490042463e-06 0.00182403128511)
(4.75084070412e-06 5.89389390309e-06 0.00188825793667)
(4.08661652713e-06 6.86380715414e-06 0.00194043306393)
(2.98913703233e-06 7.691906744e-06 0.00197888212511)
(1.57888926084e-06 8.24399793167e-06 0.00200244303034)
(2.3918810975e-09 8.43742517703e-06 0.00201040753524)
(-1.57409675036e-06 8.24253728036e-06 0.00200245195045)
(-2.98440172443e-06 7.68895062978e-06 0.00197889938066)
(-4.08223233309e-06 6.85939170267e-06 0.00194045716476)
(-4.74724190315e-06 5.88827612695e-06 0.00188828598878)
(-4.93786341156e-06 4.94247766714e-06 0.00182405835469)
(-4.62846888719e-06 4.23510298427e-06 0.00174999173238)
(-4.14029855052e-06 3.86047526792e-06 0.00166888300308)
(8.75611837584e-06 8.87034571786e-06 0.00230364174381)
(9.07884617195e-06 1.01875961076e-05 0.00241157886916)
(9.09519533192e-06 1.18752093634e-05 0.00250966723358)
(8.39451716148e-06 1.37615367884e-05 0.00259433485323)
(7.02087106166e-06 1.55421900996e-05 0.00266283110357)
(5.04611674194e-06 1.69913336879e-05 0.0027131398102)
(2.63958453839e-06 1.79324427488e-05 0.00274389097525)
(5.0960916343e-09 1.82583486078e-05 0.0027542637343)
(-2.62959739594e-06 1.793090042e-05 0.00274390298675)
(-5.03679740517e-06 1.69881096654e-05 0.00271316313579)
(-7.0128389288e-06 1.55371571563e-05 0.00266286397387)
(-8.38844381251e-06 1.37547707943e-05 0.0025943737996)
(-9.09173456953e-06 1.18669116372e-05 0.00250970628735)
(-9.07804304307e-06 1.01784720012e-05 0.00241160626718)
(-8.75701500391e-06 8.86120006923e-06 0.00230363527594)
(1.45512373742e-05 1.5169745781e-05 0.00290212174877)
(1.45475051597e-05 1.76118867497e-05 0.00303083814102)
(1.40873726291e-05 2.03997984227e-05 0.00314681438525)
(1.26885145462e-05 2.32990267297e-05 0.00324617928133)
(1.04266748461e-05 2.59225959292e-05 0.00332604579446)
(7.40822209322e-06 2.80013905692e-05 0.00338440042519)
(3.84948151378e-06 2.93304669882e-05 0.00341993480706)
(7.10824465742e-09 2.97873697525e-05 0.0034318905655)
(-3.83565162453e-06 2.93289505017e-05 0.0034199486443)
(-7.39557779671e-06 2.79981518678e-05 0.00338442746995)
(-1.04161042398e-05 2.59173700501e-05 0.00332608442323)
(-1.26808722242e-05 2.32916995457e-05 0.00324622617759)
(-1.40833451683e-05 2.03904136839e-05 0.00314686357106)
(-1.45469607266e-05 1.76010155954e-05 0.00303087699714)
(-1.45528612516e-05 1.51581289796e-05 0.00290212468157)
(2.09473732407e-05 2.20882426453e-05 0.00345208279853)
(2.04836751838e-05 2.56415725846e-05 0.003594086695)
(1.94120170762e-05 2.94491306969e-05 0.00372054666075)
(1.71954061093e-05 3.32521748078e-05 0.00382782728798)
(1.39543622518e-05 3.66014628479e-05 0.00391332194329)