/*--------------------------------*- C++ -*----------------------------------*\
  =========                 |
  \\      /  F ield         | OpenFOAM: The Open Source CFD Toolbox
   \\    /   O peration     | Website:  https://openfoam.org
    \\  /    A nd           | Version:  7
     \\/     M anipulation  |
\*---------------------------------------------------------------------------*/
FoamFile
{
    version     2.0;
    format      ascii;
    class       volScalarField;
    location    "1.4";
    object      p;
}
// * * * * * * * * * * * * * * * * * * * * * * * * * * * * * * * * * * * * * //

dimensions      [0 2 -2 0 0 0 0];

internalField   nonuniform List<scalar> 
22500
(
2.43561795623e-05
2.43540862638e-05
2.43521477252e-05
2.43500477902e-05
2.43482369369e-05
2.43468461654e-05
2.43459822642e-05
2.43456989047e-05
2.43460208761e-05
2.43469223686e-05
2.43483494851e-05
2.43501943687e-05
2.43523274055e-05
2.43542917372e-05
2.43564373948e-05
2.43414518031e-05
2.43387003382e-05
2.43361763657e-05
2.43335483494e-05
2.43312895011e-05
2.43295586572e-05
2.43284828586e-05
2.43281285402e-05
2.43285231369e-05
2.43296381909e-05
2.43314069238e-05
2.433370136e-05
2.43363637061e-05
2.4338914419e-05
2.43417173593e-05
2.43279433564e-05
2.43246623765e-05
2.43216962953e-05
2.43186628961e-05
2.43160641865e-05
2.43140751705e-05
2.43128385637e-05
2.43124302659e-05
2.43128799932e-05
2.43141569681e-05
2.43161848691e-05
2.43188200749e-05
2.43218885717e-05
2.43248811462e-05
2.43282136824e-05
2.43165357946e-05
2.43128850845e-05
2.4309612656e-05
2.43063087112e-05
2.43034841876e-05
2.43013253756e-05
2.42999835241e-05
2.42995401024e-05
2.43000259441e-05
2.43014090809e-05
2.43036075385e-05
2.43064691175e-05
2.43098084815e-05
2.43131066368e-05
2.43168090012e-05
2.43065390529e-05
2.43026343413e-05
2.4299142769e-05
2.42956588335e-05
2.42926836051e-05
2.42904133166e-05
2.42890030186e-05
2.4288537093e-05
2.42890465009e-05
2.42904990514e-05
2.42928097759e-05
2.42958225988e-05
2.42993420291e-05
2.43028585977e-05
2.4306815247e-05
2.42977076338e-05
2.42936497125e-05
2.42900125242e-05
2.42864229371e-05
2.42833585514e-05
2.42810241917e-05
2.42795752906e-05
2.42790970535e-05
2.42796199251e-05
2.42811121443e-05
2.42834877946e-05
2.42865903834e-05
2.4290215402e-05
2.42938771619e-05
2.4297987872e-05
2.42899944496e-05
2.42858738541e-05
2.42821566238e-05
2.42785259817e-05
2.42754264005e-05
2.42730693554e-05
2.42716078883e-05
2.42711262319e-05
2.42716537975e-05
2.42731597639e-05
2.42755590726e-05
2.4278697572e-05
2.42823636148e-05
2.42861051949e-05
2.42902800033e-05
2.42833388446e-05
2.42792308323e-05
2.42754895943e-05
2.4271872362e-05
2.42687843237e-05
2.42664405616e-05
2.42649892551e-05
2.42645119671e-05
2.42650365792e-05
2.4266533716e-05
2.42689208928e-05
2.42720487465e-05
2.42757014788e-05
2.42794672483e-05
2.42836312502e-05
2.42776551508e-05
2.4273616933e-05
2.42698988476e-05
2.42663416924e-05
2.42633072988e-05
2.42610096514e-05
2.42595894521e-05
2.42591237344e-05
2.4259638342e-05
2.42611058941e-05
2.42634483289e-05
2.42665237205e-05
2.42701167355e-05
2.42738600559e-05
2.42779564182e-05
2.42728440588e-05
2.42689123444e-05
2.42652579895e-05
2.42618041879e-05
2.42588650301e-05
2.42566466275e-05
2.42552788242e-05
2.42548320221e-05
2.42553294278e-05
2.42567463129e-05
2.425901117e-05
2.42619928645e-05
2.42654833332e-05
2.42691642726e-05
2.42731567949e-05
2.42687867325e-05
2.4264975106e-05
2.42614224612e-05
2.42581179476e-05
2.42553202401e-05
2.42532182567e-05
2.42519267745e-05
2.42515070974e-05
2.4251979195e-05
2.42533216786e-05
2.42554721035e-05
2.4258314372e-05
2.42616569778e-05
2.42652383834e-05
2.42691143887e-05
2.42653285323e-05
2.42616282405e-05
2.42582206526e-05
2.42551222573e-05
2.42525223121e-05
2.42505815225e-05
2.42493947369e-05
2.42490118972e-05
2.42494489605e-05
2.42506887859e-05
2.42526803177e-05
2.42553274014e-05
2.42584661327e-05
2.42619055755e-05
2.42656748182e-05
2.42622270304e-05
2.42586263183e-05
2.42554362833e-05
2.42526271475e-05
2.42502992935e-05
2.42485759856e-05
2.42475287949e-05
2.42471943349e-05
2.42475845637e-05
2.42486866716e-05
2.42504631992e-05
2.42528413553e-05
2.42556941519e-05
2.42589199879e-05
2.42625940078e-05
2.42589891994e-05
2.42555411738e-05
2.42527467394e-05
2.42503749069e-05
2.42484331624e-05
2.42470089423e-05
2.42461499806e-05
2.42458800722e-05
2.42462065667e-05
2.42471217867e-05
2.42486014347e-05
2.42505970306e-05
2.42530173103e-05
2.42558540317e-05
2.42593748109e-05
2.42547985627e-05
2.42518269295e-05
2.42497733309e-05
2.42480484176e-05
2.42466502592e-05
2.4245636375e-05
2.42450320844e-05
2.42448483659e-05
2.42450889709e-05
2.42457503856e-05
2.42468216162e-05
2.42482775553e-05
2.42500586632e-05
2.4252165345e-05
2.42551987206e-05
2.17623272082e-05
2.1762471935e-05
2.17625261066e-05
2.17625791389e-05
2.17626355425e-05
2.17626885675e-05
2.17627251837e-05
2.17627341699e-05
2.17627111681e-05
2.1762661596e-05
2.17625977212e-05
2.17625328173e-05
2.17624730429e-05
2.17624113937e-05
2.17622646277e-05
2.17628974541e-05
2.17630727003e-05
2.17631635536e-05
2.17632501387e-05
2.17633337319e-05
2.17634064121e-05
2.17634550567e-05
2.17634682512e-05
2.17634413602e-05
2.17633801218e-05
2.17632969441e-05
2.1763205271e-05
2.17631124909e-05
2.17630140069e-05
2.17628370233e-05
2.17634000826e-05
2.17636242917e-05
2.1763762796e-05
2.17638982247e-05
2.17640246657e-05
2.17641307195e-05
2.17642006785e-05
2.17642212516e-05
2.17641870058e-05
2.17641044597e-05
2.17639877928e-05
2.17638530532e-05
2.17637115075e-05
2.17635650453e-05
2.17633404175e-05
2.17641352708e-05
2.17644538274e-05
2.17646778246e-05
2.17648989911e-05
2.1765101739e-05
2.17652679353e-05
2.176537645e-05
2.17654102592e-05
2.17653625313e-05
2.17652411866e-05
2.17650640424e-05
2.17648525944e-05
2.17646252019e-05
2.17643930955e-05
2.1764075769e-05
2.17651827693e-05
2.17656310759e-05
2.17659688967e-05
2.17663017455e-05
2.17666033055e-05
2.17668469856e-05
2.17670049461e-05
2.17670556251e-05
2.17669905693e-05
2.17668193711e-05
2.17665643169e-05
2.17662536672e-05
2.17659143889e-05
2.1765568411e-05
2.17651230232e-05
2.17664874418e-05
2.1767079732e-05
2.17675398423e-05
2.17679908069e-05
2.17683958159e-05
2.17687200137e-05
2.17689290361e-05
2.17689970425e-05
2.17689140761e-05
2.17686913101e-05
2.17683552675e-05
2.17679407868e-05
2.17674831907e-05
2.17670148697e-05
2.17664273142e-05
2.17679632279e-05
2.17686929238e-05
2.17692661826e-05
2.17698243494e-05
2.17703219723e-05
2.17707174805e-05
2.1770971323e-05
2.1771054408e-05
2.17709556974e-05
2.17706875368e-05
2.17702796943e-05
2.176977224e-05
2.17692072717e-05
2.1768625844e-05
2.17679024992e-05
2.17695216306e-05
2.17703653302e-05
2.17710294584e-05
2.17716711199e-05
2.17722393324e-05
2.17726881695e-05
2.177297501e-05
2.17730690368e-05
2.17729587233e-05
2.17726569983e-05
2.17721953533e-05
2.17716169891e-05
2.17709683369e-05
2.17702962995e-05
2.17694600753e-05
2.17710806884e-05
2.17720038075e-05
2.17727285263e-05
2.1773422712e-05
2.17740331745e-05
2.1774512445e-05
2.17748173443e-05
2.17749171303e-05
2.17748004609e-05
2.17744801635e-05
2.17739876625e-05
2.1773366788e-05
2.17726654553e-05
2.17719332155e-05
2.17710183721e-05
2.17725718466e-05
2.17735344784e-05
2.17742868823e-05
2.17750007707e-05
2.17756235936e-05
2.17761092593e-05
2.17764165779e-05
2.17765167393e-05
2.17763992527e-05
2.17760761355e-05
2.1775576906e-05
2.17749434453e-05
2.17742222794e-05
2.17734628498e-05
2.17725087767e-05
2.17739435014e-05
2.1774906308e-05
2.17756556769e-05
2.17763592867e-05
2.17769671298e-05
2.17774371307e-05
2.1777732557e-05
2.17778281789e-05
2.17777150066e-05
2.17774035385e-05
2.1776919744e-05
2.17763010951e-05
2.17755900981e-05
2.17748342569e-05
2.1773879885e-05
2.17751615775e-05
2.17760909162e-05
2.17768126414e-05
2.17774822894e-05
2.17780531963e-05
2.17784897404e-05
2.17787617032e-05
2.17788489014e-05
2.17787442e-05
2.17784561768e-05
2.17780057186e-05
2.17774238511e-05
2.17767466835e-05
2.17760190736e-05
2.17750975082e-05
2.17762038557e-05
2.17770778787e-05
2.17777570647e-05
2.17783777086e-05
2.17788968408e-05
2.17792877287e-05
2.17795284864e-05
2.17796046314e-05
2.17795113947e-05
2.1779254787e-05
2.17788500225e-05
2.17783197299e-05
2.17776913439e-05
2.17770067279e-05
2.17761394848e-05
2.17770504395e-05
2.17778628626e-05
2.17784980213e-05
2.17790649451e-05
2.1779526155e-05
2.17798665658e-05
2.17800732359e-05
2.17801377329e-05
2.17800571039e-05
2.17798353144e-05
2.17794813532e-05
2.17790089065e-05
2.17784337343e-05
2.17777932647e-05
2.17769855666e-05
2.17777188292e-05
2.1778467314e-05
2.17790668805e-05
2.17795801628e-05
2.17799818396e-05
2.17802719379e-05
2.17804457879e-05
2.17804995587e-05
2.17804321223e-05
2.17802451738e-05
2.17799430193e-05
2.17795307988e-05
2.17790093044e-05
2.17784042564e-05
2.17776555029e-05
2.1511396193e-05
2.15112470521e-05
2.15110940212e-05
2.15109449514e-05
2.15108127076e-05
2.15107104416e-05
2.15106460194e-05
2.15106239849e-05
2.15106461945e-05
2.15107107741e-05
2.15108131516e-05
2.15109456861e-05
2.15110973685e-05
2.15112516603e-05
2.15114038636e-05
2.15112186188e-05
2.15110658106e-05
2.15109053677e-05
2.15107478715e-05
2.15106079307e-05
2.15104993519e-05
2.1510430799e-05
2.15104073562e-05
2.15104312002e-05
2.15105001553e-05
2.15106090887e-05
2.15107495849e-05
2.15109094929e-05
2.15110715496e-05
2.1511227379e-05
2.15112257126e-05
2.15110817095e-05
2.1510927329e-05
2.15107730238e-05
2.15106347886e-05
2.15105268092e-05
2.15104582962e-05
2.15104347625e-05
2.15104585926e-05
2.15105274384e-05
2.1510635785e-05
2.151077465e-05
2.15109311131e-05
2.15110872422e-05
2.15112346657e-05
2.15112306369e-05
2.15110909396e-05
2.15109400108e-05
2.15107878273e-05
2.15106507334e-05
2.15105431265e-05
2.15104745563e-05
2.15104508821e-05
2.15104746373e-05
2.15105433787e-05
2.15106513231e-05
2.15107890933e-05
2.15109432433e-05
2.15110958768e-05
2.15112397683e-05
2.15111950147e-05
2.15110550164e-05
2.15109046567e-05
2.15107532438e-05
2.15106165625e-05
2.15105090288e-05
2.1510440345e-05
2.15104165358e-05
2.15104402048e-05
2.1510508879e-05
2.15106166576e-05
2.15107540102e-05
2.15109073032e-05
2.15110593236e-05
2.15112042134e-05
2.1511135509e-05
2.15109934002e-05
2.15108433822e-05
2.15106932478e-05
2.15105578932e-05
2.15104513693e-05
2.15103832468e-05
2.15103595486e-05
2.15103828766e-05
2.15104508035e-05
2.15105574722e-05
2.15106934801e-05
2.15108454016e-05
2.15109972257e-05
2.15111446024e-05
2.151106518e-05
2.15109210635e-05
2.15107721509e-05
2.15106246324e-05
2.15104920897e-05
2.15103878806e-05
2.15103212215e-05
2.15102979594e-05
2.15103206306e-05
2.15103869039e-05
2.15104911335e-05
2.15106242854e-05
2.15107735124e-05
2.15109243848e-05
2.1511074142e-05
2.15109912211e-05
2.15108458563e-05
2.151069915e-05
2.15105556832e-05
2.15104274399e-05
2.15103268097e-05
2.1510262462e-05
2.15102399444e-05
2.15102616745e-05
2.15103254647e-05
2.15104260012e-05
2.15105548107e-05
2.15106999262e-05
2.15108487418e-05
2.15110000039e-05
2.15109190646e-05
2.15107735307e-05
2.15106301815e-05
2.15104919889e-05
2.15103692252e-05
2.15102731523e-05
2.15102117797e-05
2.15101902555e-05
2.15102108327e-05
2.15102715057e-05
2.15103673711e-05
2.15104906478e-05
2.15106304447e-05
2.15107760542e-05
2.15109275383e-05
2.15108531094e-05
2.15107086371e-05
2.1510569619e-05
2.15104375252e-05
2.15103210132e-05
2.15102301539e-05
2.15101721991e-05
2.15101518523e-05
2.15101711563e-05
2.15102283134e-05
2.15103188816e-05
2.15104358467e-05
2.15105694912e-05
2.15107109095e-05
2.1510861135e-05
2.1510796906e-05
2.15106547888e-05
2.15105207327e-05
2.15103950809e-05
2.15102851522e-05
2.15101997998e-05
2.15101455142e-05
2.15101264529e-05
2.1510144453e-05
2.15101979033e-05
2.15102829008e-05
2.15103932217e-05
2.15105203327e-05
2.15106568689e-05
2.15108043427e-05
2.15107542003e-05
2.15106152904e-05
2.15104861445e-05
2.15103666519e-05
2.15102631305e-05
2.15101832996e-05
2.15101327222e-05
2.1510115041e-05
2.15101317431e-05
2.15101815356e-05
2.15102610007e-05
2.15103648327e-05
2.15104856577e-05
2.15106172266e-05
2.15107608246e-05
2.151073153e-05
2.15105951331e-05
2.15104692705e-05
2.15103544832e-05
2.15102564051e-05
2.15101814728e-05
2.15101344151e-05
2.15101180256e-05
2.1510133657e-05
2.15101800845e-05
2.15102546997e-05
2.15103530469e-05
2.15104689761e-05
2.15105971053e-05
2.15107373925e-05
2.15107325428e-05
2.15105950578e-05
2.15104710871e-05
2.15103595738e-05
2.1510265974e-05
2.15101954817e-05
2.15101515825e-05
2.15101365857e-05
2.15101512374e-05
2.15101948154e-05
2.15102652322e-05
2.15103591167e-05
2.15104715778e-05
2.15105975031e-05
2.15107379402e-05
2.15106716109e-05
2.151056296e-05
2.151045558e-05
2.15103606047e-05
2.15102822582e-05
2.15102239751e-05
2.15101881814e-05
2.15101762026e-05
2.15101885839e-05
2.15102247511e-05
2.15102834558e-05
2.15103624265e-05
2.15104583609e-05
2.15105673749e-05
2.15106777702e-05
1.96079620926e-05
1.96080839798e-05
1.96082298444e-05
1.96083786505e-05
1.96085125095e-05
1.96086167595e-05
1.96086822275e-05
1.96087032275e-05
1.96086777017e-05
1.96086081338e-05
1.96085007609e-05
1.96083654528e-05
1.96082161331e-05
1.96080708898e-05
1.96079461943e-05
1.96080447508e-05
1.96081639727e-05
1.96083087979e-05
1.96084576427e-05
1.96085920233e-05
1.96086970587e-05
1.96087631713e-05
1.96087844037e-05
1.96087585252e-05
1.96086882263e-05
1.96085800504e-05
1.96084442835e-05
1.96082952773e-05
1.96081510064e-05
1.96080296896e-05
1.96079819421e-05
1.96080873937e-05
1.9608219614e-05
1.96083581911e-05
1.9608484661e-05
1.96085843697e-05
1.96086474556e-05
1.9608667764e-05
1.96086429328e-05
1.96085757504e-05
1.96084729028e-05
1.96083448357e-05
1.96082059848e-05
1.96080738827e-05
1.96079668009e-05
1.96078965636e-05
1.96079888467e-05
1.96081087857e-05
1.96082362632e-05
1.96083539545e-05
1.96084475099e-05
1.96085069994e-05
1.96085261923e-05
1.9608502666e-05
1.96084392316e-05
1.96083425868e-05
1.96082231344e-05
1.96080951162e-05
1.96079750417e-05
1.96078812473e-05
1.96078160944e-05
1.96078963953e-05
1.96080049767e-05
1.96081212362e-05
1.96082296857e-05
1.9608316439e-05
1.96083718423e-05
1.96083897163e-05
1.96083676745e-05
1.9608308462e-05
1.96082186418e-05
1.96081083148e-05
1.96079912253e-05
1.96078823753e-05
1.96078005779e-05
1.96077314801e-05
1.96077998522e-05
1.96078964903e-05
1.96080006807e-05
1.96080987176e-05
1.96081775956e-05
1.96082281277e-05
1.96082444133e-05
1.96082241402e-05
1.96081699462e-05
1.96080880689e-05
1.96079880588e-05
1.96078828462e-05
1.9607785616e-05
1.96077160129e-05
1.96076376696e-05
1.96076935448e-05
1.96077776625e-05
1.96078688549e-05
1.96079553214e-05
1.9608025241e-05
1.96080701368e-05
1.96080845539e-05
1.96080663207e-05
1.9608017896e-05
1.9607945033e-05
1.96078564986e-05
1.9607764127e-05
1.96076791293e-05
1.96076221794e-05
1.96075339667e-05
1.96075769604e-05
1.96076482952e-05
1.96077258715e-05
1.96078000208e-05
1.96078602384e-05
1.96078989727e-05
1.96079113234e-05
1.96078953342e-05
1.96078532162e-05
1.96077901139e-05
1.96077138247e-05
1.96076348665e-05
1.96075624628e-05
1.96075183441e-05
1.96074207024e-05
1.96074511704e-05
1.9607509753e-05
1.96075736525e-05
1.96076351974e-05
1.9607685354e-05
1.96077176384e-05
1.96077278095e-05
1.96077141658e-05
1.96076786312e-05
1.96076256394e-05
1.96075618918e-05
1.96074964285e-05
1.96074365969e-05
1.96074050298e-05
1.96072990379e-05
1.96073177715e-05
1.96073640462e-05
1.96074147132e-05
1.96074638461e-05
1.96075040137e-05
1.96075298364e-05
1.96075378235e-05
1.96075265335e-05
1.96074975904e-05
1.96074546503e-05
1.96074032476e-05
1.96073508526e-05
1.96073031306e-05
1.96072833156e-05
1.96071705117e-05
1.96071789071e-05
1.96072138298e-05
1.9607252183e-05
1.96072895821e-05
1.9607320179e-05
1.96073397936e-05
1.96073456596e-05
1.96073366532e-05
1.96073140494e-05
1.96072807356e-05
1.96072410414e-05
1.96072008213e-05
1.96071642999e-05
1.96071548587e-05
1.96070368619e-05
1.96070369936e-05
1.9607062067e-05
1.9607089489e-05
1.96071162005e-05
1.96071380453e-05
1.96071519052e-05
1.96071558349e-05
1.9607148928e-05
1.96071322085e-05
1.96071077338e-05
1.96070787001e-05
1.96070493256e-05
1.96070225306e-05
1.96070213794e-05
1.96068979376e-05
1.96068933267e-05
1.96069109816e-05
1.96069294406e-05
1.96069471893e-05
1.96069615129e-05
1.96069705205e-05
1.96069727362e-05
1.96069677161e-05
1.96069560072e-05
1.96069391154e-05
1.96069190971e-05
1.96068986161e-05
1.96068791693e-05
1.96068827882e-05
1.96067577869e-05
1.96067529812e-05
1.96067638818e-05
1.96067748163e-05
1.96067851585e-05
1.9606793558e-05
1.96067986072e-05
1.96067995856e-05
1.96067960056e-05
1.96067883759e-05
1.96067775761e-05
1.96067649862e-05
1.960675203e-05
1.96067393027e-05
1.96067433234e-05
1.96066928269e-05
1.96066567543e-05
1.96066481002e-05
1.96066416731e-05
1.96066380472e-05
1.96066360755e-05
1.96066348307e-05
1.96066336533e-05
1.96066323666e-05
1.96066311837e-05
1.96066307928e-05
1.96066322372e-05
1.96066366421e-05
1.96066434036e-05
1.9606678782e-05
1.88972846564e-05
1.88971974576e-05
1.88970946933e-05
1.88969907735e-05
1.88968955577e-05
1.88968201192e-05
1.88967727429e-05
1.8896757699e-05
1.88967764369e-05
1.88968270347e-05
1.88969048322e-05
1.88970024993e-05
1.88971100347e-05
1.88972146294e-05
1.88973054705e-05
1.88972160143e-05
1.88971307516e-05
1.88970288777e-05
1.88969249066e-05
1.88968292843e-05
1.8896753387e-05
1.88967055842e-05
1.88966903736e-05
1.88967093622e-05
1.88967604916e-05
1.88968388955e-05
1.88969369944e-05
1.88970444791e-05
1.88971486256e-05
1.88972372684e-05
1.88972555612e-05
1.88971802783e-05
1.88970872142e-05
1.88969901663e-05
1.88969000886e-05
1.88968281546e-05
1.88967826206e-05
1.8896768108e-05
1.88967863284e-05
1.88968351855e-05
1.88969097295e-05
1.88970022951e-05
1.88971025226e-05
1.88971979721e-05
1.88972764002e-05
1.88973133707e-05
1.88972476556e-05
1.88971630576e-05
1.88970734175e-05
1.88969894456e-05
1.88969220266e-05
1.88968791207e-05
1.88968654262e-05
1.88968827238e-05
1.88969289236e-05
1.88969990666e-05
1.88970855218e-05
1.88971780504e-05
1.88972648985e-05
1.88973337943e-05
1.88973688539e-05
1.88973119104e-05
1.8897235123e-05
1.88971529859e-05
1.889707538e-05
1.88970127473e-05
1.8896972727e-05
1.889695996e-05
1.88969762377e-05
1.88970195072e-05
1.88970849009e-05
1.88971649736e-05
1.88972498059e-05
1.88973286333e-05
1.88973888331e-05
1.88974285669e-05
1.88973803118e-05
1.88973118457e-05
1.88972378855e-05
1.88971674527e-05
1.88971103527e-05
1.88970737393e-05
1.88970620918e-05
1.88970771528e-05
1.88971169587e-05
1.88971768426e-05
1.88972497228e-05
1.88973262069e-05
1.88973967028e-05
1.88974479651e-05
1.88974963497e-05
1.88974574362e-05
1.88973978229e-05
1.88973327906e-05
1.88972703859e-05
1.88972195674e-05
1.88971869022e-05
1.88971765727e-05
1.88971902167e-05
1.88972260011e-05
1.88972795831e-05
1.88973444073e-05
1.88974118039e-05
1.88974734319e-05
1.88975152405e-05
1.88975729667e-05
1.88975438344e-05
1.88974934559e-05
1.88974379517e-05
1.88973842673e-05
1.88973403651e-05
1.88973121011e-05
1.88973032536e-05
1.88973153114e-05
1.88973466141e-05
1.88973932523e-05
1.88974493439e-05
1.88975071143e-05
1.88975594639e-05
1.88975914707e-05
1.88976583853e-05
1.8897639081e-05
1.8897598097e-05
1.8897552403e-05
1.88975078308e-05
1.889747124e-05
1.88974476858e-05
1.88974404326e-05
1.88974507869e-05
1.88974772941e-05
1.88975165695e-05
1.88975635289e-05
1.88976114315e-05
1.88976543473e-05
1.88976765104e-05
1.88977519372e-05
1.88977419829e-05
1.88977102337e-05
1.88976742627e-05
1.88976388823e-05
1.88976097645e-05
1.8897591049e-05
1.88975854515e-05
1.88975940409e-05
1.88976156151e-05
1.88976473723e-05
1.88976851229e-05
1.88977232744e-05
1.8897756947e-05
1.88977697085e-05
1.88978522578e-05
1.88978506831e-05
1.88978275786e-05
1.88978008487e-05
1.88977744133e-05
1.88977526246e-05
1.88977387148e-05
1.88977347476e-05
1.88977415894e-05
1.88977582626e-05
1.8897782619e-05
1.88978114131e-05
1.8897840288e-05
1.88978653273e-05
1.88978696833e-05
1.88979576843e-05
1.88979626869e-05
1.88979470915e-05
1.88979287972e-05
1.88979107022e-05
1.88978958975e-05
1.88978865308e-05
1.88978841469e-05
1.88978892809e-05
1.88979012997e-05
1.88979186212e-05
1.8897939016e-05
1.8897959439e-05
1.88979769276e-05
1.88979746696e-05
1.88980672683e-05
1.88980757767e-05
1.88980659361e-05
1.88980547813e-05
1.88980441013e-05
1.88980354017e-05
1.88980301609e-05
1.88980291012e-05
1.88980327735e-05
1.88980405773e-05
1.88980516562e-05
1.88980646404e-05
1.88980778452e-05
1.88980895694e-05
1.88980837706e-05
1.88981766733e-05
1.88981851554e-05
1.88981806056e-05
1.88981758482e-05
1.88981713901e-05
1.88981679294e-05
1.8898165936e-05
1.88981660785e-05
1.88981684237e-05
1.88981727915e-05
1.8898178604e-05
1.88981852058e-05
1.88981920097e-05
1.88981983791e-05
1.88981925893e-05
1.88982311366e-05
1.88982617627e-05
1.88982716574e-05
1.88982800406e-05
1.8898286394e-05
1.88982907803e-05
1.88982937111e-05
1.88982954025e-05
1.88982960242e-05
1.88982953652e-05
1.88982931256e-05
1.88982888835e-05
1.88982824137e-05
1.88982743549e-05
1.88982461823e-05
1.72933250375e-05
1.7293393365e-05
1.72934741024e-05
1.72935553516e-05
1.72936279278e-05
1.72936841536e-05
1.7293719155e-05
1.72937300205e-05
1.72937157666e-05
1.72936777498e-05
1.72936193145e-05
1.72935457241e-05
1.72934643126e-05
1.72933846278e-05
1.72933146041e-05
1.7293377498e-05
1.72934447438e-05
1.7293525026e-05
1.72936064912e-05
1.72936795114e-05
1.72937362427e-05
1.72937716149e-05
1.72937825905e-05
1.72937680955e-05
1.72937296052e-05
1.72936706317e-05
1.729359666e-05
1.72935152756e-05
1.72934359793e-05
1.7293367758e-05
1.72933502954e-05
1.72934100601e-05
1.72934832019e-05
1.72935590496e-05
1.72936277696e-05
1.72936816588e-05
1.72937154579e-05
1.72937259982e-05
1.72937121141e-05
1.72936753377e-05
1.72936192606e-05
1.72935494626e-05
1.72934735898e-05
1.72934009424e-05
1.72933405838e-05
1.72933091377e-05
1.72933615418e-05
1.72934278597e-05
1.72934976484e-05
1.72935616714e-05
1.72936123239e-05
1.72936442822e-05
1.72936543073e-05
1.72936411736e-05
1.72936064289e-05
1.72935536841e-05
1.72934885142e-05
1.7293418489e-05
1.72933523936e-05
1.72932993433e-05
1.72932693548e-05
1.72933150548e-05
1.72933751335e-05
1.72934388366e-05
1.72934979621e-05
1.7293545073e-05
1.7293574962e-05
1.72935843702e-05
1.72935720693e-05
1.72935395724e-05
1.72934904382e-05
1.72934301098e-05
1.72933659297e-05
1.72933059245e-05
1.72932594945e-05
1.72932258346e-05
1.72932649285e-05
1.72933183812e-05
1.72933756455e-05
1.72934293085e-05
1.72934723395e-05
1.72934997503e-05
1.72935083955e-05
1.72934970624e-05
1.72934672115e-05
1.72934222486e-05
1.72933673592e-05
1.7293309499e-05
1.72932557992e-05
1.72932161543e-05
1.72931758838e-05
1.72932079321e-05
1.72932544567e-05
1.72933047777e-05
1.72933523393e-05
1.72933907009e-05
1.72934152163e-05
1.72934229437e-05
1.72934127221e-05
1.72933859184e-05
1.72933457e-05
1.72932968681e-05
1.72932458475e-05
1.72931988142e-05
1.72931663075e-05
1.72931190677e-05
1.72931436639e-05
1.72931831197e-05
1.72932261391e-05
1.72932671664e-05
1.72933004197e-05
1.72933217211e-05
1.72933284031e-05
1.72933194042e-05
1.72932959591e-05
1.72932609214e-05
1.72932186e-05
1.72931747615e-05
1.72931346403e-05
1.72931094765e-05
1.72930554372e-05
1.72930727473e-05
1.72931051202e-05
1.72931407318e-05
1.72931749788e-05
1.72932028385e-05
1.72932207079e-05
1.72932262531e-05
1.72932185458e-05
1.72931986594e-05
1.72931690658e-05
1.7293133494e-05
1.72930969473e-05
1.72930637735e-05
1.72930459029e-05
1.72929857655e-05
1.729299619e-05
1.72930217065e-05
1.72930500825e-05
1.72930775411e-05
1.72930999467e-05
1.72931142895e-05
1.72931186629e-05
1.72931122687e-05
1.72930960148e-05
1.72930719358e-05
1.72930431127e-05
1.72930137009e-05
1.72929872486e-05
1.72929762462e-05
1.72929111285e-05
1.729291557e-05
1.72929348075e-05
1.72929563608e-05
1.72929772824e-05
1.7292994317e-05
1.72930051825e-05
1.72930083717e-05
1.72930032788e-05
1.7292990601e-05
1.72929719255e-05
1.72929496299e-05
1.72929269498e-05
1.72929066959e-05
1.72929017001e-05
1.72928330522e-05
1.7292832952e-05
1.72928467853e-05
1.72928621811e-05
1.72928769484e-05
1.7292888943e-05
1.72928964584e-05
1.72928985385e-05
1.72928946636e-05
1.72928854069e-05
1.72928718456e-05
1.72928556591e-05
1.72928390914e-05
1.72928241892e-05
1.72928237599e-05
1.7292752286e-05
1.7292750069e-05
1.72927598543e-05
1.72927699381e-05
1.7292779374e-05
1.72927867794e-05
1.72927914012e-05
1.72927924208e-05
1.72927896975e-05
1.72927834644e-05
1.72927744709e-05
1.7292763686e-05
1.72927523465e-05
1.72927414845e-05
1.72927431948e-05
1.72926723726e-05
1.72926709093e-05
1.72926766646e-05
1.72926820187e-05
1.72926866483e-05
1.72926903557e-05
1.72926924405e-05
1.72926927108e-05
1.72926908716e-05
1.72926871974e-05
1.72926820609e-05
1.72926760027e-05
1.72926694316e-05
1.72926625513e-05
1.72926637055e-05
1.72926377425e-05
1.72926180682e-05
1.72926123149e-05
1.72926072289e-05
1.72926035898e-05
1.72926011313e-05
1.7292599564e-05
1.72925985624e-05
1.72925980711e-05
1.72925981861e-05
1.72925991922e-05
1.72926014906e-05
1.72926052677e-05
1.72926098662e-05
1.72926291805e-05
1.63794863283e-05
1.63794344803e-05
1.63793723501e-05
1.6379310036e-05
1.63792544917e-05
1.63792112502e-05
1.63791839827e-05
1.63791751968e-05
1.63791858724e-05
1.63792149855e-05
1.63792599874e-05
1.63793168103e-05
1.63793798773e-05
1.63794419123e-05
1.6379496872e-05
1.637944424e-05
1.63793935072e-05
1.63793319035e-05
1.63792695369e-05
1.63792136728e-05
1.6379170016e-05
1.63791424347e-05
1.63791335389e-05
1.63791443823e-05
1.63791738677e-05
1.63792193048e-05
1.63792764639e-05
1.63793395496e-05
1.63794013121e-05
1.63794548899e-05
1.63794660042e-05
1.63794211263e-05
1.6379364971e-05
1.6379306818e-05
1.63792541104e-05
1.6379212576e-05
1.63791862241e-05
1.63791777186e-05
1.63791881391e-05
1.63792163457e-05
1.63792595858e-05
1.63793135584e-05
1.63793724067e-05
1.63794290105e-05
1.63794764192e-05
1.63794987553e-05
1.63794596077e-05
1.63794086007e-05
1.6379354988e-05
1.63793057408e-05
1.63792666179e-05
1.63792416982e-05
1.63792336508e-05
1.63792435512e-05
1.637927024e-05
1.63793109507e-05
1.63793613884e-05
1.63794157438e-05
1.63794672786e-05
1.63795090023e-05
1.63795303549e-05
1.63794964368e-05
1.63794501325e-05
1.63794010669e-05
1.6379355458e-05
1.63793189853e-05
1.63792956705e-05
1.63792881409e-05
1.63792974471e-05
1.63793224439e-05
1.63793604054e-05
1.63794071381e-05
1.63794569998e-05
1.63795038177e-05
1.63795403473e-05
1.63795648591e-05
1.63795360276e-05
1.63794947692e-05
1.63794506124e-05
1.63794091193e-05
1.63793757389e-05
1.63793543375e-05
1.63793474327e-05
1.63793560269e-05
1.63793790162e-05
1.63794137811e-05
1.63794563331e-05
1.63795013218e-05
1.63795432513e-05
1.63795744564e-05
1.63796043867e-05
1.63795810325e-05
1.63795450813e-05
1.63795062066e-05
1.63794693362e-05
1.63794395158e-05
1.6379420351e-05
1.63794141826e-05
1.63794219505e-05
1.63794426128e-05
1.63794737352e-05
1.63795116224e-05
1.63795513286e-05
1.63795880791e-05
1.63796136741e-05
1.63796492322e-05
1.63796316285e-05
1.63796011331e-05
1.63795678483e-05
1.63795359811e-05
1.63795100766e-05
1.63794933972e-05
1.63794880568e-05
1.63794949071e-05
1.63795129969e-05
1.63795401341e-05
1.63795730012e-05
1.63796071554e-05
1.63796385342e-05
1.63796583574e-05
1.63796993207e-05
1.63796874106e-05
1.63796623829e-05
1.63796347804e-05
1.63796081148e-05
1.63795863523e-05
1.63795723279e-05
1.63795678846e-05
1.63795737579e-05
1.63795891217e-05
1.63796120691e-05
1.63796397327e-05
1.63796682496e-05
1.63796942228e-05
1.6379708302e-05
1.63797541146e-05
1.637974755e-05
1.63797278356e-05
1.63797058052e-05
1.63796843652e-05
1.63796668123e-05
1.63796555142e-05
1.63796519951e-05
1.63796568744e-05
1.6379669454e-05
1.63796881574e-05
1.63797106168e-05
1.63797336171e-05
1.63797543532e-05
1.6379763013e-05
1.63798127473e-05
1.63798108863e-05
1.63797960643e-05
1.63797792792e-05
1.63797628898e-05
1.63797494749e-05
1.63797408766e-05
1.63797382828e-05
1.63797421834e-05
1.6379752015e-05
1.63797665657e-05
1.63797839951e-05
1.63798017895e-05
1.63798176932e-05
1.63798215762e-05
1.63798741815e-05
1.63798758871e-05
1.6379865247e-05
1.63798532119e-05
1.63798415544e-05
1.63798320606e-05
1.63798260485e-05
1.6379824346e-05
1.6379827309e-05
1.63798345343e-05
1.63798451386e-05
1.63798578626e-05
1.63798709411e-05
1.63798826607e-05
1.63798828822e-05
1.63799378885e-05
1.63799412483e-05
1.63799337396e-05
1.63799257407e-05
1.63799182424e-05
1.63799122688e-05
1.63799085595e-05
1.63799076611e-05
1.63799097968e-05
1.63799146694e-05
1.63799217686e-05
1.63799303323e-05
1.63799393846e-05
1.63799479743e-05
1.63799464277e-05
1.638000117e-05
1.63800039935e-05
1.63799994891e-05
1.6379995133e-05
1.63799912873e-05
1.63799882628e-05
1.63799864957e-05
1.63799862671e-05
1.6379987704e-05
1.63799906265e-05
1.6379994747e-05
1.63799996789e-05
1.63800050849e-05
1.63800106608e-05
1.6380009543e-05
1.63800292002e-05
1.63800461483e-05
1.63800504961e-05
1.63800541919e-05
1.63800569013e-05
1.638005872e-05
1.63800599242e-05
1.63800607097e-05
1.63800611244e-05
1.63800610664e-05
1.638006035e-05
1.63800587355e-05
1.63800560795e-05
1.63800527988e-05
1.63800373523e-05
1.49142367268e-05
1.49142821e-05
1.49143343889e-05
1.49143859813e-05
1.49144316276e-05
1.49144669975e-05
1.49144892245e-05
1.4914496273e-05
1.49144873452e-05
1.49144632544e-05
1.49144260859e-05
1.49143791412e-05
1.49143270341e-05
1.49142757407e-05
1.49142302674e-05
1.4914272809e-05
1.49143176365e-05
1.49143694637e-05
1.49144210124e-05
1.49144667996e-05
1.49145024024e-05
1.49145248179e-05
1.49145319189e-05
1.49145228561e-05
1.49144985036e-05
1.49144610478e-05
1.49144139266e-05
1.49143619129e-05
1.49143109504e-05
1.49142667374e-05
1.49142577733e-05
1.4914297687e-05
1.49143448131e-05
1.49143927608e-05
1.49144358379e-05
1.49144696421e-05
1.49144910083e-05
1.49144977809e-05
1.49144890794e-05
1.49144658169e-05
1.49144302257e-05
1.49143857964e-05
1.49143373452e-05
1.49142906835e-05
1.49142515908e-05
1.49142336377e-05
1.4914268657e-05
1.49143113592e-05
1.4914355408e-05
1.49143955227e-05
1.49144272841e-05
1.49144474412e-05
1.49144538347e-05
1.49144455754e-05
1.49144235909e-05
1.4914390121e-05
1.49143486497e-05
1.49143039461e-05
1.4914261481e-05
1.49142271134e-05
1.49142102015e-05
1.49142407816e-05
1.4914279445e-05
1.49143196005e-05