/*--------------------------------*- C++ -*----------------------------------*\
  =========                 |
  \\      /  F ield         | OpenFOAM: The Open Source CFD Toolbox
   \\    /   O peration     | Website:  https://openfoam.org
    \\  /    A nd           | Version:  7
     \\/     M anipulation  |
\*---------------------------------------------------------------------------*/
FoamFile
{
    version     2.0;
    format      ascii;
    class       volScalarField;
    location    "0.22";
    object      p;
}
// * * * * * * * * * * * * * * * * * * * * * * * * * * * * * * * * * * * * * //

dimensions      [0 2 -2 0 0 0 0];

internalField   nonuniform List<scalar> 
22500
(
-4.2320476084e-08
-4.42463749754e-08
-4.35665139458e-08
-4.33039600587e-08
-4.28590807292e-08
-4.25176186e-08
-4.22960213357e-08
-4.22371605913e-08
-4.23333494745e-08
-4.25912023128e-08
-4.29680542836e-08
-4.34441952123e-08
-4.37348465855e-08
-4.4426251871e-08
-4.25141967389e-08
-8.05222465879e-08
-8.44484738056e-08
-8.54219058657e-08
-8.6591942602e-08
-8.72995033331e-08
-8.78000924093e-08
-8.80910630678e-08
-8.82035927148e-08
-8.8130280527e-08
-8.78775145339e-08
-8.74138553257e-08
-8.67394831436e-08
-8.55979146827e-08
-8.46369010953e-08
-8.07250558888e-08
-1.17952103465e-07
-1.23785547467e-07
-1.26216961378e-07
-1.28694266874e-07
-1.3043389381e-07
-1.31689437084e-07
-1.32438174946e-07
-1.32702898068e-07
-1.32475702368e-07
-1.31763524265e-07
-1.30543045319e-07
-1.28835204204e-07
-1.26385004297e-07
-1.23966535166e-07
-1.18151097804e-07
-1.51600790577e-07
-1.59058131422e-07
-1.62672728383e-07
-1.66197213534e-07
-1.68762328887e-07
-1.7061798645e-07
-1.71729702074e-07
-1.72114456597e-07
-1.71764538775e-07
-1.7068681132e-07
-1.68863529769e-07
-1.66327745365e-07
-1.62828824405e-07
-1.59227139568e-07
-1.5179163521e-07
-1.83320525758e-07
-1.92209885375e-07
-1.96846053028e-07
-2.01241688661e-07
-2.04498215029e-07
-2.06852269589e-07
-2.08264863001e-07
-2.08748800862e-07
-2.08297160511e-07
-2.06916075499e-07
-2.045919853e-07
-2.01362541356e-07
-1.96990849924e-07
-1.92367153963e-07
-1.83501536494e-07
-2.13453496923e-07
-2.235719245e-07
-2.29076411889e-07
-2.34176091372e-07
-2.37996052387e-07
-2.40752074549e-07
-2.42407009465e-07
-2.42970497157e-07
-2.42436812569e-07
-2.40811020416e-07
-2.38082626276e-07
-2.34287673422e-07
-2.29209963342e-07
-2.23718020352e-07
-2.13624951491e-07
-2.41791527376e-07
-2.52913717867e-07
-2.59129547567e-07
-2.6476753033e-07
-2.69023330277e-07
-2.7208671269e-07
-2.73926732378e-07
-2.74550770825e-07
-2.739543006e-07
-2.72141245567e-07
-2.6910340311e-07
-2.64870738306e-07
-2.59252978184e-07
-2.53049249584e-07
-2.41954193281e-07
-2.68268608452e-07
-2.80171918331e-07
-2.86956714681e-07
-2.92982674598e-07
-2.97559183342e-07
-3.00846044785e-07
-3.02820557699e-07
-3.03488445442e-07
-3.02846148263e-07
-3.0089664336e-07
-2.97633520402e-07
-2.93078485205e-07
-2.87071173699e-07
-2.80298294231e-07
-2.68423783667e-07
-2.92936120502e-07
-3.05410104063e-07
-3.12637046233e-07
-3.18919390938e-07
-3.23716421572e-07
-3.2715521536e-07
-3.29221360443e-07
-3.29919009701e-07
-3.29245303173e-07
-3.2720256386e-07
-3.23785985982e-07
-3.19009159561e-07
-3.12744121342e-07
-3.05529235922e-07
-2.93085386356e-07
-3.15876428345e-07
-3.28723404459e-07
-3.36274724841e-07
-3.42698182708e-07
-3.47628454877e-07
-3.51158762456e-07
-3.53280492361e-07
-3.53996120604e-07
-3.5330313996e-07
-3.51203561938e-07
-3.47694311849e-07
-3.42783247524e-07
-3.36376178682e-07
-3.28837323335e-07
-3.16022164745e-07
-3.37181150947e-07
-3.50211321863e-07
-3.57969884595e-07
-3.64432969332e-07
-3.69421742602e-07
-3.72993598567e-07
-3.7514136392e-07
-3.7586529303e-07
-3.75163071695e-07
-3.73036548515e-07
-3.69484957222e-07
-3.64514797305e-07
-3.58067551056e-07
-3.50322208818e-07
-3.37325774284e-07
-3.56958940658e-07
-3.699629362e-07
-3.77797499579e-07
-3.84213315782e-07
-3.89201490909e-07
-3.92777215788e-07
-3.94928489322e-07
-3.95653497948e-07
-3.94949569216e-07
-3.92819047581e-07
-3.89263156981e-07
-3.84293409755e-07
-3.77893355416e-07
-3.70073117806e-07
-3.57104635174e-07
-3.75371309493e-07
-3.88022387615e-07
-3.95769622654e-07
-4.02079498444e-07
-4.07033364697e-07
-4.1059093662e-07
-4.12732040555e-07
-4.13453042233e-07
-4.12752882265e-07
-4.10632221419e-07
-4.07094567281e-07
-4.02159411513e-07
-3.95865835925e-07
-3.88134467903e-07
-3.75520876495e-07
-3.92359848687e-07
-4.04243753345e-07
-4.11834472265e-07
-4.18045802288e-07
-4.2296726007e-07
-4.26498298452e-07
-4.28619485804e-07
-4.29333581735e-07
-4.28640291444e-07
-4.26539708699e-07
-4.23029060035e-07
-4.18127340521e-07
-4.11933445536e-07
-4.04360774562e-07
-3.92515387287e-07
-4.06066952733e-07
-4.18749543741e-07
-4.26216771251e-07
-4.32428768881e-07
-4.3731322812e-07
-4.40786977982e-07
-4.42864467443e-07
-4.43562182125e-07
-4.42885572968e-07
-4.40829033097e-07
-4.3737643679e-07
-4.32513243379e-07
-4.26321726887e-07
-4.18875307318e-07
-4.06226035611e-07
-3.73626450417e-06
-3.73499170417e-06
-3.73396507169e-06
-3.73300981186e-06
-3.73221019842e-06
-3.73160650932e-06
-3.73122582762e-06
-3.73108902033e-06
-3.73120310354e-06
-3.73156340018e-06
-3.73215224224e-06
-3.73294430858e-06
-3.73389444968e-06
-3.73492007244e-06
-3.73619173583e-06
-3.73139398784e-06
-3.72995217792e-06
-3.72875955761e-06
-3.72765333519e-06
-3.72672123492e-06
-3.72601567319e-06
-3.72557058128e-06
-3.72541158692e-06
-3.72554797555e-06
-3.72597291395e-06
-3.7266639473e-06
-3.72758915628e-06
-3.72869215314e-06
-3.72988313056e-06
-3.73132416584e-06
-3.72553512259e-06
-3.72371274527e-06
-3.72220976225e-06
-3.72081262483e-06
-3.71962965201e-06
-3.71873307172e-06
-3.71816823014e-06
-3.71796849326e-06
-3.71814605808e-06
-3.71869096616e-06
-3.71957265184e-06
-3.72074765104e-06
-3.72214147796e-06
-3.7236416725e-06
-3.72546445225e-06
-3.71842131569e-06
-3.7159258056e-06
-3.71390569956e-06
-3.71203642277e-06
-3.71045421234e-06
-3.70925682921e-06
-3.70850491389e-06
-3.7082418406e-06
-3.70848334394e-06
-3.70921563496e-06
-3.71039770483e-06
-3.71197063381e-06
-3.71383581346e-06
-3.71585267407e-06
-3.71834949091e-06
-3.70944439356e-06
-3.70599561457e-06
-3.70326856983e-06
-3.70076774771e-06
-3.69866082947e-06
-3.69707219201e-06
-3.69607879208e-06
-3.69573426924e-06
-3.69605793833e-06
-3.69703221336e-06
-3.69860546334e-06
-3.70070236819e-06
-3.70319819327e-06
-3.7059216924e-06
-3.70937212506e-06
-3.6985461692e-06
-3.69393255358e-06
-3.69036790336e-06
-3.68713356677e-06
-3.6844261608e-06
-3.68239457795e-06
-3.68112993821e-06
-3.68069437766e-06
-3.68111008593e-06
-3.68235639328e-06
-3.68437286135e-06
-3.68706984747e-06
-3.69029856183e-06
-3.69385875764e-06
-3.69847523266e-06
-3.68595954213e-06
-3.68005266394e-06
-3.67558658358e-06
-3.6715788222e-06
-3.66824733655e-06
-3.66576048745e-06
-3.66421934781e-06
-3.66369140242e-06
-3.66420068452e-06
-3.6657245054e-06
-3.6681968515e-06
-3.67151789196e-06
-3.67551975286e-06
-3.67998056814e-06
-3.68589105756e-06
-3.67201291946e-06
-3.66477043659e-06
-3.65939993377e-06
-3.6546345954e-06
-3.65070112287e-06
-3.64778037688e-06
-3.6459781482e-06
-3.6453634699e-06
-3.64596092999e-06
-3.64774710966e-06
-3.65065419947e-06
-3.65457748729e-06
-3.65933664849e-06
-3.6647015487e-06
-3.67194760505e-06
-3.65706316558e-06
-3.64852284364e-06
-3.64229557769e-06
-3.63683413895e-06
-3.63235665698e-06
-3.62904918387e-06
-3.62701679484e-06
-3.62632619085e-06
-3.62700113761e-06
-3.62901888645e-06
-3.63231374433e-06
-3.63678160861e-06
-3.64223683242e-06
-3.6484582857e-06
-3.65700245678e-06
-3.64146440477e-06
-3.63173172141e-06
-3.62473592575e-06
-3.61867345059e-06
-3.61373526367e-06
-3.6101058565e-06
-3.60788453056e-06
-3.60713217149e-06
-3.60787048901e-06
-3.61007864625e-06
-3.61369659564e-06
-3.6186258532e-06
-3.62468225341e-06
-3.63167221975e-06
-3.64140894638e-06
-3.62554530312e-06
-3.61478147606e-06
-3.60713684821e-06
-3.60059012736e-06
-3.59529021073e-06
-3.59141390048e-06
-3.58905061737e-06
-3.58825245241e-06
-3.58903812253e-06
-3.59138965033e-06
-3.59525568474e-06
-3.6005475235e-06
-3.60708851512e-06
-3.61472750758e-06
-3.62549596847e-06
-3.6096115608e-06
-3.59801944251e-06
-3.58986476045e-06
-3.58295853978e-06
-3.57740143294e-06
-3.57335680847e-06
-3.57090019821e-06
-3.57007274071e-06
-3.57088905451e-06
-3.5733352011e-06
-3.57737059688e-06
-3.58292049852e-06
-3.58982148951e-06
-3.59797113518e-06
-3.60956851135e-06
-3.59395647051e-06
-3.5817437324e-06
-3.57321854768e-06
-3.56607761572e-06
-3.56036968503e-06
-3.55623670364e-06
-3.55373600026e-06
-3.55289563631e-06
-3.55372596116e-06
-3.5562170997e-06
-3.56034180704e-06
-3.56604322949e-06
-3.57317958835e-06
-3.58170046239e-06
-3.59391933634e-06
-3.57861724362e-06
-3.56596828851e-06
-3.55730036864e-06
-3.55009541854e-06
-3.54438340943e-06
-3.54026966192e-06
-3.53778921058e-06
-3.53695746284e-06
-3.53777991317e-06
-3.540251559e-06
-3.54435754536e-06
-3.55006376298e-06
-3.55726455742e-06
-3.56592951273e-06
-3.57858512841e-06
-3.56241784384e-06
-3.55069177369e-06
-3.54224621788e-06
-3.53520991694e-06
-3.52969851494e-06
-3.52575055159e-06
-3.52337690802e-06
-3.52258211698e-06
-3.52336828355e-06
-3.52573356105e-06
-3.52967418518e-06
-3.53517996194e-06
-3.54221290845e-06
-3.55065683157e-06
-3.56238859402e-06
-2.32539063113e-06
-2.3255755805e-06
-2.32580355384e-06
-2.32607797821e-06
-2.32633785136e-06
-2.32655427877e-06
-2.32669939221e-06
-2.32675354634e-06
-2.3267082886e-06
-2.32657076132e-06
-2.3263592926e-06
-2.32610234164e-06
-2.32583729562e-06
-2.32561365092e-06
-2.32543871065e-06
-2.32461400041e-06
-2.32476677868e-06
-2.32497017376e-06
-2.32522043395e-06
-2.32546166258e-06
-2.32566424047e-06
-2.32580103076e-06
-2.32585254821e-06
-2.3258103752e-06
-2.32568165222e-06
-2.32548448219e-06
-2.32524667717e-06
-2.32500477311e-06
-2.32480712649e-06
-2.3246634604e-06
-2.3235836123e-06
-2.32369441813e-06
-2.32385951359e-06
-2.32407638794e-06
-2.32429156692e-06
-2.32447473763e-06
-2.3245994123e-06
-2.3246466881e-06
-2.32460844343e-06
-2.32449169739e-06
-2.32431419087e-06
-2.32410295487e-06
-2.32389351886e-06
-2.32373453448e-06
-2.32363256161e-06
-2.32282278948e-06
-2.32291528788e-06
-2.32305953254e-06
-2.3232588478e-06
-2.32346049163e-06
-2.32363334705e-06
-2.32375125169e-06
-2.32379595044e-06
-2.32375973329e-06
-2.3236494442e-06
-2.32348248919e-06
-2.32328524381e-06
-2.32309261512e-06
-2.32295395848e-06
-2.32287128369e-06
-2.32229799768e-06
-2.32237895096e-06
-2.32250814135e-06
-2.32269309383e-06
-2.32288206583e-06
-2.32304447529e-06
-2.32315534813e-06
-2.32319739279e-06
-2.32316335856e-06
-2.32305977857e-06
-2.32290327836e-06
-2.32271896428e-06
-2.3225403907e-06
-2.32241617921e-06
-2.32234585607e-06
-2.32188827595e-06
-2.32194442695e-06
-2.32205016453e-06
-2.32220969067e-06
-2.32237540828e-06
-2.32251879438e-06
-2.32261702803e-06
-2.32265447462e-06
-2.32262456898e-06
-2.32253330395e-06
-2.32239581519e-06
-2.32223493124e-06
-2.32208140217e-06
-2.32198070157e-06
-2.32193495506e-06
-2.32150089311e-06
-2.32150744991e-06
-2.32157172914e-06
-2.32168752318e-06
-2.32181359647e-06
-2.32192522203e-06
-2.32200280756e-06
-2.32203294785e-06
-2.32200995513e-06
-2.32193902048e-06
-2.32183319959e-06
-2.3217120688e-06
-2.32160197661e-06
-2.3215427752e-06
-2.32154670403e-06
-2.32106325172e-06
-2.32098831183e-06
-2.32098903304e-06
-2.32104056842e-06
-2.32110943867e-06
-2.32117615892e-06
-2.32122497773e-06
-2.32124509202e-06
-2.32123177211e-06
-2.3211893295e-06
-2.32112835516e-06
-2.32106456704e-06
-2.32101856702e-06
-2.32102287195e-06
-2.32110862152e-06
-2.32051837515e-06
-2.32032845989e-06
-2.32024410752e-06
-2.32021306296e-06
-2.32020960493e-06
-2.32022044526e-06
-2.32023388587e-06
-2.32024178502e-06
-2.32024038392e-06
-2.32023310227e-06
-2.32022794082e-06
-2.32023661503e-06
-2.32027319269e-06
-2.32036255856e-06
-2.32056344855e-06
-2.31982657077e-06
-2.31949282061e-06
-2.31930613484e-06
-2.31917959235e-06
-2.31909389613e-06
-2.31904207768e-06
-2.31901618569e-06
-2.31901059449e-06
-2.31902246351e-06
-2.31905435507e-06
-2.31911184881e-06
-2.31920293074e-06
-2.31933507568e-06
-2.31952688127e-06
-2.31987163054e-06
-2.31896674762e-06
-2.31846970558e-06
-2.31817039655e-06
-2.31794277244e-06
-2.31777140798e-06
-2.31765501311e-06
-2.31758892871e-06
-2.31756958122e-06
-2.31759503141e-06
-2.31766699185e-06
-2.3177890575e-06
-2.31796599251e-06
-2.31819931393e-06
-2.31850389195e-06
-2.31901199597e-06
-2.3179393097e-06
-2.31727043093e-06
-2.3168555614e-06
-2.3165283869e-06
-2.31627402443e-06
-2.31609570963e-06
-2.31599119843e-06
-2.31595880185e-06
-2.31599713621e-06
-2.31610743141e-06
-2.3162914269e-06
-2.31655149171e-06
-2.31688449324e-06
-2.31730467727e-06
-2.31798454464e-06
-2.31676259853e-06
-2.31591835015e-06
-2.31539195718e-06
-2.31497485287e-06
-2.31464656784e-06
-2.31441292641e-06
-2.31427425205e-06
-2.31423006625e-06
-2.31428002428e-06
-2.31442435049e-06
-2.31466360215e-06
-2.31499772529e-06
-2.31542072334e-06
-2.31595255051e-06
-2.31680771473e-06
-2.31536387003e-06
-2.31435373325e-06
-2.31377047209e-06
-2.31330100212e-06
-2.31292680026e-06
-2.31265707028e-06
-2.3124951402e-06
-2.31244305228e-06
-2.31250073076e-06
-2.3126680527e-06
-2.31294335919e-06
-2.31332334805e-06
-2.3137987788e-06
-2.31438771913e-06
-2.31540818495e-06
-2.31321982319e-06
-2.31255934959e-06
-2.3120482502e-06
-2.31159806873e-06
-2.31122790076e-06
-2.31095508827e-06
-2.31078954767e-06
-2.31073581223e-06
-2.31079491578e-06
-2.31096573439e-06
-2.31124386346e-06
-2.31161982334e-06
-2.31207615806e-06
-2.31259361473e-06
-2.31326324851e-06
-3.48439989713e-06
-3.48416944895e-06
-3.48388169957e-06
-3.48358825018e-06
-3.48332309097e-06
-3.48311326122e-06
-3.482978371e-06
-3.48293020104e-06
-3.48297354762e-06
-3.48310465542e-06
-3.48331316214e-06
-3.48358182442e-06
-3.48388095566e-06
-3.48417891256e-06
-3.48441113093e-06
-3.4839829212e-06
-3.4837483927e-06
-3.48345263365e-06
-3.48315302381e-06
-3.48288009766e-06
-3.48266327033e-06
-3.48252331665e-06
-3.48247310443e-06
-3.48251789158e-06
-3.48265353651e-06
-3.48286874222e-06
-3.48314508998e-06
-3.48345152576e-06
-3.48375718468e-06
-3.48399593845e-06
-3.48371921453e-06
-3.48349096736e-06
-3.48319663869e-06
-3.48290042254e-06
-3.48262816027e-06
-3.48241154263e-06
-3.48227148767e-06
-3.48222138487e-06
-3.48226661887e-06
-3.48240284217e-06
-3.48261811258e-06
-3.48289334186e-06
-3.48319629814e-06
-3.48349880631e-06
-3.48373245462e-06
-3.4835045116e-06
-3.4832805172e-06
-3.48298647647e-06
-3.48269365257e-06
-3.48242330682e-06
-3.48220821981e-06
-3.48206914447e-06
-3.48201964527e-06
-3.48206509758e-06
-3.48220106805e-06
-3.48241525909e-06
-3.48268831065e-06
-3.48298722137e-06
-3.48328838748e-06
-3.48351775737e-06
-3.48330179371e-06
-3.48308125977e-06
-3.48278599671e-06
-3.48249648658e-06
-3.48222876278e-06
-3.48201576015e-06
-3.48187815392e-06
-3.48182936401e-06
-3.48187479086e-06
-3.48200990087e-06
-3.48222230316e-06
-3.48249261293e-06
-3.48278746645e-06
-3.48308933322e-06
-3.48331501658e-06
-3.48311763277e-06
-3.48290161077e-06
-3.48260309233e-06
-3.48231727273e-06
-3.48205260322e-06
-3.48184230818e-06
-3.4817065781e-06
-3.48165870338e-06
-3.48170394718e-06
-3.48183780674e-06
-3.48204790121e-06
-3.48231501948e-06
-3.48260573074e-06
-3.48290960735e-06
-3.48313158797e-06
-3.48295358914e-06
-3.48273943676e-06
-3.48243516007e-06
-3.48215140068e-06
-3.48188863888e-06
-3.48168023024e-06
-3.48154591747e-06
-3.48149879632e-06
-3.48154396764e-06
-3.48167697088e-06
-3.48188551455e-06
-3.48215058275e-06
-3.48243887911e-06
-3.48274748517e-06
-3.48296796516e-06
-3.48279964465e-06
-3.48258076107e-06
-3.48226619089e-06
-3.48198021353e-06
-3.48171637931e-06
-3.48150765384e-06
-3.48137350524e-06
-3.48132669965e-06
-3.48137222871e-06
-3.48150564407e-06
-3.48171480441e-06
-3.48198083494e-06
-3.48227076736e-06
-3.48258900211e-06
-3.48281393092e-06
-3.48263994726e-06
-3.48240681832e-06
-3.4820754523e-06
-3.48178167703e-06
-3.48151261288e-06
-3.48130056648e-06
-3.48116476496e-06
-3.4811176481e-06
-3.48116407552e-06
-3.48129963727e-06
-3.48151236515e-06
-3.48178351951e-06
-3.48208072926e-06
-3.48241515251e-06
-3.4826542973e-06
-3.48245799795e-06
-3.4821978415e-06
-3.48184267089e-06
-3.48153530554e-06
-3.48125691338e-06
-3.48103877153e-06
-3.48089967336e-06
-3.48085170839e-06
-3.48089950527e-06
-3.48103877933e-06
-3.48125782102e-06
-3.48153815035e-06
-3.48184846218e-06
-3.48220608288e-06
-3.48247223574e-06
-3.48223697829e-06
-3.48193554179e-06
-3.48155096412e-06
-3.481225756e-06
-3.4809354657e-06
-3.48070953988e-06
-3.48056625787e-06
-3.48051709536e-06
-3.48056648575e-06
-3.4807102706e-06
-3.48093723558e-06
-3.48122939382e-06
-3.48155715462e-06
-3.48194379964e-06
-3.48225127565e-06
-3.48196524251e-06
-3.48160790638e-06
-3.48119042437e-06
-3.48084552287e-06
-3.48054262194e-06
-3.48030881399e-06
-3.48016129841e-06
-3.48011096787e-06
-3.48016179157e-06
-3.48031001362e-06
-3.48054498573e-06
-3.48084964667e-06
-3.48119687086e-06
-3.48161625223e-06
-3.4819797782e-06
-3.48163687852e-06
-3.48120798751e-06
-3.48075684405e-06
-3.48039368101e-06
-3.48007976444e-06
-3.47983915887e-06
-3.4796883529e-06
-3.47963698751e-06
-3.4796889776e-06
-3.47984062521e-06
-3.48008235942e-06
-3.48039805748e-06
-3.48076336773e-06
-3.48121643772e-06
-3.4816516019e-06
-3.48118131196e-06
-3.48067248252e-06
-3.48021866519e-06
-3.47985653165e-06
-3.47954447427e-06
-3.47930628201e-06
-3.47915735487e-06
-3.47910692637e-06
-3.47915804e-06
-3.47930770565e-06
-3.47954709323e-06
-3.47986079882e-06
-3.48022509727e-06
-3.48068113115e-06
-3.48119640012e-06
-3.48016083699e-06
-3.47984875541e-06
-3.47950694847e-06
-3.47921756239e-06
-3.47895833052e-06
-3.47875808281e-06
-3.4786325983e-06
-3.47859001127e-06
-3.4786332143e-06
-3.47875946814e-06
-3.47896072489e-06
-3.47922162472e-06
-3.47951328602e-06
-3.47985789981e-06
-3.48017571854e-06
-3.10783826634e-06
-3.10791191983e-06
-3.10797829954e-06
-3.10806266292e-06
-3.10813710178e-06
-3.10819789635e-06
-3.10823996614e-06
-3.10825742972e-06
-3.10824709604e-06
-3.10821055009e-06
-3.10815220915e-06
-3.10808009242e-06
-3.10800139577e-06
-3.10793594691e-06
-3.10787107928e-06
-3.10756453686e-06
-3.10762611709e-06
-3.1076853093e-06
-3.10776286094e-06
-3.10783225053e-06
-3.1078899039e-06
-3.10793011303e-06
-3.1079469812e-06
-3.10793734111e-06
-3.10790279104e-06
-3.1078478341e-06
-3.10778059904e-06
-3.10770831551e-06
-3.10765146725e-06
-3.10759802887e-06
-3.10719950481e-06
-3.10724581547e-06
-3.10729178895e-06
-3.10735894346e-06
-3.10742104609e-06
-3.10747400026e-06
-3.10751126785e-06
-3.10752704309e-06
-3.10751830752e-06
-3.10748673803e-06
-3.10743691246e-06
-3.10737717601e-06
-3.10731444934e-06
-3.10727123745e-06
-3.10723216848e-06
-3.10690344101e-06
-3.10694354424e-06
-3.10698087653e-06
-3.10704291128e-06
-3.10710190708e-06
-3.1071533949e-06
-3.10718965594e-06
-3.10720494432e-06
-3.10719641454e-06
-3.10716583941e-06
-3.10711797303e-06
-3.10706150211e-06
-3.10700318077e-06
-3.10696820793e-06
-3.10693535392e-06
-3.10667688879e-06
-3.10671715138e-06
-3.10674986685e-06
-3.10681092763e-06
-3.10686982795e-06
-3.10692177232e-06
-3.10695828378e-06
-3.106973537e-06
-3.10696477022e-06
-3.1069338415e-06
-3.10688572811e-06
-3.10682946423e-06
-3.10677174195e-06
-3.10674080009e-06
-3.10670805133e-06
-3.10650011097e-06
-3.10654262248e-06
-3.10657332051e-06
-3.10663512344e-06
-3.10669515657e-06
-3.10674832863e-06
-3.10678551556e-06
-3.10680086125e-06
-3.10679167616e-06
-3.10675989828e-06
-3.10671069281e-06
-3.10665335893e-06
-3.10659454973e-06
-3.10656571758e-06
-3.10652998545e-06
-3.10636069784e-06
-3.10640664351e-06
-3.10643554876e-06
-3.10649813362e-06
-3.10655913585e-06
-3.10661311981e-06
-3.10665070627e-06
-3.10666603907e-06
-3.10665651432e-06
-3.10662409438e-06
-3.10657406213e-06
-3.10651580763e-06
-3.10645591413e-06
-3.10642900987e-06
-3.10638953975e-06
-3.10624867266e-06
-3.10629666292e-06
-3.10632211157e-06
-3.10638398488e-06
-3.10644445476e-06
-3.1064978866e-06
-3.10653495501e-06
-3.10654994658e-06
-3.10654038695e-06
-3.1065082113e-06
-3.1064586864e-06
-3.106401054e-06
-3.10634175841e-06
-3.10631833623e-06
-3.1062768736e-06
-3.10615284809e-06
-3.10619848645e-06
-3.10621724885e-06
-3.10627532604e-06
-3.10633242884e-06
-3.10638295358e-06
-3.1064180083e-06
-3.10643213976e-06
-3.10642306193e-06
-3.10639261285e-06
-3.10634588312e-06
-3.10629167999e-06
-3.10623620434e-06
-3.10621951403e-06
-3.10618039977e-06
-3.10606029057e-06
-3.10609659965e-06
-3.10610436392e-06
-3.10615450086e-06
-3.10620464803e-06
-3.10624937656e-06
-3.10628052637e-06
-3.10629316977e-06
-3.10628522149e-06
-3.10625839145e-06
-3.10621737125e-06
-3.10617021217e-06
-3.10612277293e-06
-3.10611723355e-06
-3.10608726677e-06
-3.10595781676e-06
-3.10597622422e-06
-3.10596830276e-06
-3.10600614944e-06
-3.10604558556e-06
-3.10608140982e-06
-3.10610670622e-06
-3.10611715873e-06
-3.10611106498e-06
-3.10608983605e-06
-3.1060575924e-06
-3.10602124546e-06
-3.10598617413e-06
-3.10599650928e-06
-3.10598425952e-06
-3.10583467496e-06
-3.10582548017e-06
-3.10579759938e-06
-3.10581945321e-06
-3.1058446183e-06
-3.10586871916e-06
-3.10588617893e-06
-3.10589385317e-06
-3.10589024359e-06
-3.10587660859e-06
-3.10585604558e-06
-3.10583397271e-06
-3.10581500749e-06
-3.10584531156e-06
-3.10586039853e-06
-3.10568005066e-06
-3.10563384731e-06
-3.1055842803e-06
-3.10558826161e-06
-3.10559674447e-06
-3.1056064351e-06
-3.10561455124e-06
-3.10561870028e-06
-3.10561835033e-06
-3.10561393703e-06
-3.10560757149e-06
-3.10560234385e-06
-3.10560121526e-06
-3.10565326506e-06
-3.1057049979e-06
-3.10544160802e-06
-3.10535577668e-06
-3.10530366839e-06
-3.10529956988e-06
-3.10529561357e-06
-3.10529373841e-06
-3.10529352771e-06
-3.10529486985e-06
-3.10529716894e-06
-3.10530078186e-06
-3.10530607822e-06
-3.1053131021e-06
-3.10532023868e-06
-3.10537480793e-06
-3.10546550761e-06
-3.10488922207e-06
-3.10492288789e-06
-3.10493250316e-06
-3.10495453448e-06
-3.10496116902e-06
-3.10496325753e-06
-3.10496458632e-06
-3.10496608917e-06
-3.1049680634e-06
-3.1049701622e-06
-3.10497129247e-06
-3.10496795343e-06
-3.1049490078e-06
-3.10494239947e-06
-3.10491257526e-06
-3.48184350502e-06
-3.48176688746e-06
-3.48167356491e-06
-3.48157648868e-06
-3.48148769338e-06
-3.48141653047e-06
-3.48136951709e-06
-3.48135118379e-06
-3.48136360215e-06
-3.48140561342e-06
-3.48147368598e-06
-3.48156202173e-06
-3.48166031604e-06
-3.48175880557e-06
-3.48183475435e-06
-3.48163883138e-06
-3.48155969134e-06
-3.48146183457e-06
-3.48136183449e-06
-3.48126984803e-06
-3.48119588681e-06
-3.48114685931e-06
-3.48112766055e-06
-3.48114049335e-06
-3.48118412637e-06
-3.48125478532e-06
-3.4813463704e-06
-3.4814482122e-06
-3.48155096225e-06
-3.48163149376e-06
-3.48147397438e-06
-3.48139436302e-06
-3.48129366169e-06
-3.48119306002e-06
-3.4811000134e-06
-3.48102546426e-06
-3.48097617529e-06
-3.480957078e-06
-3.48097031623e-06
-3.48101463575e-06
-3.48108611181e-06
-3.48117854451e-06
-3.48128091792e-06
-3.48138502168e-06
-3.48146694479e-06
-3.48133669179e-06
-3.48125562593e-06
-3.48115250075e-06
-3.48105137577e-06
-3.48095790346e-06
-3.48088329657e-06
-3.48083417023e-06
-3.48081539574e-06
-3.48082900394e-06
-3.48087374379e-06
-3.48094562338e-06
-3.48103844984e-06
-3.48114095866e-06
-3.4812466765e-06
-3.48132972271e-06
-3.48121077292e-06
-3.48112812186e-06
-3.48102238154e-06
-3.4809205991e-06
-3.48082684602e-06
-3.48075225791e-06
-3.48070338516e-06
-3.48068491091e-06
-3.48069881501e-06
-3.48074381265e-06
-3.48081592655e-06
-3.48090902578e-06
-3.48101170313e-06
-3.48111965949e-06
-3.48120395706e-06
-3.48109441941e-06
-3.48101116838e-06
-3.48090195988e-06
-3.48079997968e-06
-3.48070624761e-06
-3.48063198173e-06
-3.48058352276e-06
-3.48056541687e-06
-3.48057952521e-06
-3.48062458827e-06
-3.48069667382e-06
-3.48078979211e-06
-3.48089249916e-06
-3.48100299392e-06
-3.48108846631e-06
-3.48098882618e-06
-3.48090450244e-06
-3.48079172398e-06
-3.48068960616e-06
-3.48059600326e-06
-3.48052219444e-06
-3.48047425154e-06
-3.48045653815e-06
-3.48047078449e-06
-3.48051576168e-06
-3.48058763724e-06
-3.48068060485e-06
-3.48078331627e-06
-3.48089666414e-06
-3.480983508e-06
-3.48089258734e-06
-3.48080584676e-06
-3.48068927415e-06
-3.48058670339e-06
-3.4804932493e-06
-3.48041991791e-06
-3.48037253576e-06
-3.48035520465e-06
-3.48036955515e-06
-3.48041437703e-06
-3.48048599748e-06
-3.48057882273e-06
-3.48068175709e-06
-3.48079850004e-06
-3.48088750605e-06
-3.4808023678e-06
-3.48071189769e-06
-3.4805908058e-06
-3.48048731499e-06
-3.48039380299e-06
-3.48032080725e-06
-3.48027390724e-06
-3.48025690759e-06
-3.48027134142e-06
-3.48031602441e-06
-3.48038747171e-06
-3.48048032899e-06
-3.48058394302e-06
-3.48070488231e-06
-3.48079768558e-06
-3.48071477694e-06
-3.48061799212e-06
-3.48049140702e-06
-3.4803864901e-06
-3.48029267216e-06
-3.48021988945e-06
-3.4801733497e-06
-3.48015663963e-06
-3.48017113773e-06
-3.48021573108e-06
-3.48028712476e-06
-3.48038022396e-06
-3.4804850431e-06
-3.48061116141e-06
-3.48071032509e-06
-3.48062478598e-06
-3.48051823913e-06
-3.48038546771e-06
-3.48027884194e-06
-3.48018472305e-06
-3.48011204372e-06
-3.48006582547e-06
-3.48004932718e-06
-3.48006387472e-06
-3.48010836833e-06
-3.48017973603e-06
-3.48027313054e-06
-3.48037946586e-06
-3.48051162663e-06
-3.48062070922e-06
-3.48052795086e-06
-3.4804071832e-06
-3.4802677652e-06
-3.48015956975e-06
-3.48006516349e-06
-3.4799926785e-06
-3.47994666244e-06
-3.4799303796e-06
-3.47994490556e-06
-3.47998931191e-06
-3.48006062317e-06
-3.48015421597e-06
-3.48026204833e-06
-3.4804008398e-06
-3.4805243631e-06
-3.48041924473e-06
-3.48027896152e-06
-3.48013334225e-06
-3.48002426096e-06
-3.47992999362e-06
-3.47985741192e-06
-3.47981166309e-06
-3.47979538746e-06
-3.47980999733e-06
-3.47985432782e-06
-3.47992563374e-06
-3.48001923275e-06
-3.4801278186e-06
-3.48027292935e-06
-3.48041610906e-06
-3.48025997299e-06
-3.48009832382e-06
-3.47996107492e-06
-3.47985978244e-06
-3.47977035645e-06
-3.47970135873e-06
-3.47965754178e-06
-3.47964213933e-06
-3.47965599559e-06
-3.47969828974e-06
-3.47976623158e-06
-3.47985479791e-06
-3.4799557783e-06
-3.48009269624e-06
-3.48025756797e-06
-3.47984716064e-06
-3.47977974726e-06
-3.47970588032e-06
-3.47964574097e-06
-3.47958567607e-06
-3.4795373656e-06
-3.47950638414e-06
-3.47949521536e-06
-3.47950483903e-06
-3.47953445822e-06
-3.47958157271e-06
-3.47964096915e-06
-3.47970079285e-06
-3.47977480012e-06
-3.47984485316e-06
-3.42602286873e-06
-3.42602924168e-06
-3.42602143328e-06
-3.42602052286e-06
-3.42602189099e-06
-3.42602534624e-06
-3.42602844653e-06
-3.42603034868e-06
-3.4260305301e-06
-3.42602925419e-06
-3.42602713241e-06
-3.4260254606e-06
-3.42602436838e-06
-3.42602853651e-06
-3.42602850752e-06
-3.42586669404e-06
-3.42586710927e-06
-3.42585582482e-06
-3.42585167835e-06
-3.42585056783e-06
-3.425852265e-06
-3.42585439207e-06
-3.42585600479e-06
-3.42585657226e-06
-3.42585636332e-06
-3.42585597681e-06
-3.42585673714e-06
-3.42585873621e-06
-3.42586703101e-06
-3.42587232042e-06
-3.42569376138e-06
-3.42568832741e-06
-3.425673346e-06
-3.42566633941e-06
-3.42566294305e-06
-3.42566294149e-06
-3.42566405899e-06
-3.42566532394e-06
-3.42566618185e-06
-3.42566688938e-06
-3.42566806844e-06
-3.42567114075e-06
-3.42567607622e-06
-3.42568894702e-06
-3.42569912979e-06
-3.42555507823e-06
-3.42554789495e-06
-3.42553060287e-06
-3.42552305628e-06
-3.42551901895e-06
-3.42551853771e-06
-3.42551940473e-06
-3.42552055448e-06
-3.4255213932e-06
-3.42552216619e-06
-3.42552357484e-06
-3.42552720596e-06
-3.42553299184e-06
-3.42554840361e-06
-3.42556038291e-06
-3.42544538036e-06
-3.42543886901e-06
-3.42542049093e-06
-3.42541381552e-06
-3.42541033547e-06
-3.42541032424e-06
-3.42541150799e-06
-3.42541271834e-06
-3.42541331763e-06
-3.42541357921e-06
-3.42541430799e-06
-3.4254172895e-06
-3.4254224875e-06
-3.42543897954e-06
-3.42545042272e-06
-3.4253575099e-06
-3.42535218901e-06
-3.42533399301e-06
-3.42532892141e-06
-3.42532665592e-06
-3.42532757764e-06
-3.42532934695e-06
-3.42533068736e-06
-3.42533092067e-06
-3.42533035483e-06
-3.42532991273e-06
-3.42533157986e-06
-3.42533540989e-06
-3.42535220014e-06
-3.42536182148e-06
-3.42528693477e-06
-3.42528367625e-06
-3.42526591613e-06
-3.42526258465e-06
-3.42526181989e-06
-3.42526387405e-06
-3.42526633961e-06
-3.42526782848e-06
-3.42526765468e-06
-3.42526614655e-06
-3.42526437858e-06
-3.4252644999e-06
-3.42526669954e-06
-3.42528350315e-06
-3.4252907613e-06
-3.42523006578e-06
-3.42522887926e-06
-3.42521116493e-06
-3.42520943588e-06
-3.42521006873e-06
-3.42521312366e-06
-3.42521617471e-06
-3.4252177664e-06
-3.42521721195e-06
-3.42521486786e-06
-3.42521193667e-06
-3.42521069727e-06
-3.42521152141e-06
-3.42522858349e-06
-3.42523383278e-06
-3.42518321626e-06
-3.42518275831e-06
-3.42516429178e-06
-3.42516348288e-06
-3.42516498466e-06
-3.42516864103e-06
-3.42517201382e-06
-3.42517362955e-06
-3.42517279557e-06
-3.42516992009e-06
-3.4251662826e-06
-3.42516424476e-06
-3.42516440283e-06
-3.42518246828e-06
-3.42518697233e-06
-3.42514174231e-06
-3.42513967451e-06
-3.42511938981e-06
-3.42511852758e-06
-3.4251201785e-06
-3.42512382285e-06
-3.42512712786e-06
-3.42512862985e-06
-3.42512769373e-06
-3.42512472355e-06
-3.42512104432e-06
-3.42511901071e-06
-3.42511949903e-06
-3.42513967708e-06
-3.42514566443e-06
-3.4251008683e-06
-3.42509414913e-06
-3.42507077236e-06
-3.42506880145e-06
-3.4250697253e-06
-3.42507265894e-06
-3.4250754282e-06
-3.42507668114e-06
-3.4250758488e-06
-3.4250733042e-06
-3.42507035114e-06
-3.42506920211e-06
-3.42507103222e-06
-3.42509455587e-06
-3.42510503864e-06
-3.42505656806e-06
-3.42504133481e-06
-3.42501360398e-06
-3.42500961039e-06
-3.42500892375e-06
-3.42501031405e-06
-3.4250120126e-06
-3.4250128401e-06
-3.42501235047e-06
-3.42501087226e-06
-3.42500948555e-06
-3.42501013604e-06
-3.42501420136e-06
-3.42504214726e-06
-3.42506091153e-06
-3.42500415711e-06
-3.42497619751e-06
-3.42494375758e-06
-3.4249374092e-06
-3.42493418798e-06
-3.42493314013e-06
-3.42493305125e-06
-3.42493325507e-06
-3.42493340962e-06
-3.42493369976e-06
-3.42493489387e-06
-3.4249382119e-06
-3.42494478336e-06
-3.42497750123e-06
-3.42500865906e-06
-3.42491576138e-06
-3.42487370523e-06
-3.42484665646e-06
-3.42484308517e-06
-3.42483982602e-06
-3.42483756876e-06