/*--------------------------------*- C++ -*----------------------------------*\
  =========                 |
  \\      /  F ield         | OpenFOAM: The Open Source CFD Toolbox
   \\    /   O peration     | Website:  https://openfoam.org
    \\  /    A nd           | Version:  7
     \\/     M anipulation  |
\*---------------------------------------------------------------------------*/
FoamFile
{
    version     2.0;
    format      ascii;
    class       volVectorField;
    location    "0.22";
    object      U;
}
// * * * * * * * * * * * * * * * * * * * * * * * * * * * * * * * * * * * * * //

dimensions      [0 1 -1 0 0 0 0];

internalField   nonuniform List<vector> 
22500
(
(1.77352603662e-05 2.01327076809e-05 0.000301616379566)
(1.62938729188e-05 2.28066644225e-05 0.00031597445928)
(1.40721646703e-05 2.54049820129e-05 0.000328834729007)
(1.17122163737e-05 2.75385222625e-05 0.00033987050304)
(9.03034200067e-06 2.92630037474e-05 0.000348797380945)
(6.15071824238e-06 3.05216581817e-05 0.000355361560951)
(3.12136524974e-06 3.12892332919e-05 0.000359379361066)
(1.48760648862e-08 3.15478891721e-05 0.000360739235194)
(-3.09218915455e-06 3.12905485695e-05 0.000359380108021)
(-6.12314906464e-06 3.05240468797e-05 0.000355363162252)
(-9.00557345015e-06 2.92657942028e-05 0.000348799792533)
(-1.16914287128e-05 2.75410107257e-05 0.000339873459662)
(-1.40570517229e-05 2.54057324058e-05 0.000328838272526)
(-1.62843303019e-05 2.28060265058e-05 0.00031598266613)
(-1.77320112891e-05 2.01309382734e-05 0.000301656159565)
(5.17017408785e-05 5.86191250124e-05 0.000777747202135)
(4.75023615306e-05 6.61746902376e-05 0.000808506137819)
(4.12295570445e-05 7.34761945662e-05 0.000835514157289)
(3.431478766e-05 7.95573291394e-05 0.000858374831411)
(2.64945489918e-05 8.44876149207e-05 0.000876677626925)
(1.80540966021e-05 8.80971468927e-05 0.000890037351929)
(9.16189933505e-06 9.0302906477e-05 0.000898173755558)
(3.61168679273e-08 9.1045813701e-05 0.00090091727173)
(-9.09091710251e-06 9.03048266568e-05 0.000898176503453)
(-1.7986735834e-05 8.81004861003e-05 0.000890043078916)
(-2.64333871083e-05 8.44910232296e-05 0.000876685986928)
(-3.42625765425e-05 7.95594225173e-05 0.000858384798672)
(-4.11897069845e-05 7.34744260759e-05 0.000835525531978)
(-4.7474987354e-05 6.61703130857e-05 0.000808530408451)
(-5.16899336568e-05 5.86126306697e-05 0.000777843533939)
(7.78359310102e-05 8.80699664822e-05 0.00115501352845)
(7.12029583164e-05 9.88299419321e-05 0.00119432875232)
(6.16927373898e-05 0.000109160283999 0.00122820526834)
(5.11941357471e-05 0.000117746025902 0.00125653031669)
(3.94481256282e-05 0.000124679227858 0.0012790025354)
(2.68376481201e-05 0.000129741387874 0.00129530008795)
(1.36055363519e-05 0.000132828805508 0.00130518179349)
(5.27936797375e-08 0.000133866917438 0.00130850314395)
(-1.35016017737e-05 0.000132829537514 0.00130518552624)
(-2.67385922577e-05 0.000129742244804 0.00129530790061)
(-3.93573891743e-05 0.000124678648072 0.0012790137359)
(-5.11154112085e-05 0.000117742353693 0.00125654311478)
(-6.16304840723e-05 0.000109151156493 0.0012282185655)
(-7.11576739302e-05 9.88176265526e-05 0.00119435711198)
(-7.78132154227e-05 8.80558262349e-05 0.00115513717056)
(9.76625216658e-05 0.000110286116668 0.00145478322762)
(8.89307377625e-05 0.000122959023481 0.00149741954912)
(7.68415996799e-05 0.000135080132424 0.00153340696057)
(6.35545426391e-05 0.000145091745812 0.00156309510438)
(4.88531119686e-05 0.000153138734902 0.00158641939081)
(3.31733312376e-05 0.000158991861757 0.00160321886031)
(1.6797697578e-05 0.000162552580403 0.00161335703045)
(6.43487915762e-08 0.000163747710793 0.00161675359805)
(-1.66708973343e-05 0.000162552030976 0.0016133602843)
(-3.30522073079e-05 0.000158990143401 0.00160322577115)
(-4.87416346511e-05 0.000153134331419 0.00158642886861)
(-6.34568120506e-05 0.000145082989867 0.0015631044853)
(-7.67624113007e-05 0.00013506508235 0.00153341347606)
(-8.88706284964e-05 0.000122940609944 0.00149743652121)
(-9.76286576271e-05 0.000110265956677 0.00145489730665)
(0.000112522131671 0.000126865866619 0.00169286066416)
(0.000102006456 0.000140498504692 0.00173530002475)
(8.78701356221e-05 0.000153515973047 0.00177027439832)
(7.24360938317e-05 0.000164186290156 0.00179867073667)
(5.55413151327e-05 0.000172719630946 0.00182072774759)
(3.76428034953e-05 0.000178901432316 0.00183648894653)
(1.90382742976e-05 0.000182651904672 0.00184594960767)
(7.20657692134e-08 0.000183908566023 0.00184910811155)
(-1.88961897525e-05 0.000182650328286 0.00184595120174)
(-3.75068785475e-05 0.00017889770329 0.00183649249064)
(-5.54158069048e-05 0.000172712389283 0.00182073164945)
(-7.23252176962e-05 0.00016417402978 0.00179867120414)
(-8.77784911544e-05 0.000153497053367 0.00177026620454)
(-0.000101934473845 0.000140476355565 0.00173529286854)
(-0.000112477651913 0.000126841813962 0.00169293952812)
(0.000123118589272 0.000138617423836 0.00188130555448)
(0.000111115366545 0.000152443347822 0.00192122236609)
(9.53979744855e-05 0.000165645342632 0.00195318086804)
(7.83778563181e-05 0.000176375920562 0.00197861726849)
(5.99439780709e-05 0.000184909893138 0.00199809913179)
(4.05480446639e-05 0.000191066066304 0.00201188565431)
(2.04832468296e-05 0.000194790423781 0.0020201075332)
(7.69433891718e-08 0.000196036278626 0.00202284132887)
(-2.033147776e-05 0.000194788170334 0.00202010672308)
(-4.04026722583e-05 0.000191061053171 0.00201188421561)
(-5.98093523359e-05 0.000184900959731 0.00199809481009)
(-7.82581208482e-05 0.000176361786688 0.00197860480743)
(-9.52972042409e-05 0.000165624674953 0.00195315194439)
(-0.000111033740921 0.000152419801272 0.00192118240726)
(-0.000123064461515 0.00013859189716 0.00188133684331)
(0.000130027976843 0.000146183251066 0.00202966318438)
(0.000116818634536 0.000159593675449 0.00206560386356)
(9.99383152646e-05 0.00017241612687 0.00209335334135)
(8.18264625628e-05 0.000182744397584 0.00211486999262)
(6.2418796451e-05 0.000190908870379 0.00213104705931)
(4.21397147154e-05 0.000196773214586 0.00214235029354)
(2.12621088071e-05 0.000200310837887 0.00214903498685)
(7.98015925461e-08 0.000201492428164 0.00215124633284)
(-2.11046454653e-05 0.000200308382568 0.00214903140198)
(-4.19887073154e-05 0.000196767864196 0.00214234299766)
(-6.22785514093e-05 0.000190899681336 0.00213103294422)
(-8.17009204304e-05 0.000182730297905 0.00211484200657)
(-9.98309350545e-05 0.000172396065474 0.00209329970257)
(-0.000116729206319 0.000159571238774 0.00206552636966)
(-0.000129965265727 0.000146158807015 0.00202964294637)
(0.000133809031494 0.000150191763786 0.00214570460899)
(0.000119659940951 0.000162725704074 0.0021768726939)
(0.000101990157398 0.000174739107344 0.00219981844928)
(8.32154451849e-05 0.000184324525641 0.00221697366242)
(6.33124460735e-05 0.00019185366912 0.00222953509413)
(4.26602951685e-05 0.000197239320814 0.00223815367188)
(2.14999033246e-05 0.000200479332924 0.00224319027047)
(8.13107865122e-08 0.000201560128089 0.00224484448419)
(-2.13394072403e-05 0.000200477206995 0.00224318381162)
(-4.25061825055e-05 0.000197234704562 0.00223814020291)
(-6.31688851344e-05 0.000191845796734 0.0022295104765)
(-8.30861110482e-05 0.000184312504661 0.00221692880504)
(-0.000101877861477 0.000174722065822 0.00219973809137)
(-0.000119564172867 0.000162707013494 0.0021767565106)
(-0.000133738849582 0.000150170967245 0.00214563456122)
(0.000134972868395 0.000151221589692 0.00223587080633)
(0.000120133181832 0.000162543419565 0.00226196571472)
(0.000102006043805 0.000173430231186 0.00227995295279)
(8.29376635778e-05 0.000182032559257 0.00229268014175)
(6.29385156555e-05 0.000188746674065 0.00230161447962)
(4.23286660121e-05 0.000193532160819 0.00230756406497)
(2.13093071712e-05 0.0001964045738 0.00231097277156)
(8.20508090781e-08 0.000197361923195 0.00231207895059)
(-2.11472836804e-05 0.000196403329309 0.00231096352779)
(-4.21728591974e-05 0.000193529378223 0.00230754452666)
(-6.27928911635e-05 0.000188741717825 0.00230157937425)
(-8.28056130667e-05 0.000182024647105 0.00229261825647)
(-0.000101889797182 0.000173418568798 0.00227984587254)
(-0.000120032085017 0.000162530952194 0.00226181303952)
(-0.000134896278283 0.000151206902235 0.0022357569371)
(0.000133969444647 0.000149783262324 0.00230553729116)
(0.000118669032687 0.000159655429021 0.00232661993575)
(0.000100380177973 0.000169185335535 0.00233980655088)
(8.13360660039e-05 0.00017664209848 0.00234830284827)
(6.15706598932e-05 0.000182429221396 0.00235380709231)
(4.13354705076e-05 0.000186544251884 0.00235725259063)
(2.07882708203e-05 0.000189010844817 0.00235914264073)
(8.25266849148e-08 0.000189832805275 0.00235973935803)
(-2.06252198409e-05 0.000189010983901 0.00235913088054)
(-4.11783887244e-05 0.000186544291654 0.0023572275242)
(-6.14232869766e-05 0.00018242862329 0.00235376234915)
(-8.12015184668e-05 0.000176640111777 0.00234822523276)
(-0.000100260235754 0.000169181132861 0.00233967511838)
(-0.000118563092371 0.00015965136468 0.0023264365523)
(-0.000133887237423 0.000149776878285 0.00230538961482)
(0.000131189238695 0.000146322353443 0.00235915766419)
(0.000115637747623 0.000154576273969 0.00237552759739)
(9.74530169158e-05 0.000162583157006 0.00238428087894)
(7.87087310533e-05 0.000168791449173 0.0023889255641)
(5.94466730599e-05 0.000173592671106 0.00239134299946)
(3.98457219007e-05 0.000177006228346 0.00239255388067)
(2.00212830228e-05 0.000179052540382 0.00239309629747)
(8.31745707472e-08 0.000179735053722 0.00239324244773)
(-1.9856833565e-05 0.000179054456094 0.00239308257647)
(-3.96869226471e-05 0.000177009874599 0.00239252452848)
(-5.9297029554e-05 0.000173597574738 0.00239129080984)
(-7.85711480428e-05 0.000168796843039 0.00238883577176)
(-9.73290001265e-05 0.000162588063404 0.00238413082491)
(-0.000115526958708 0.000154582349994 0.00237532380099)
(-0.00013110180145 0.000146325970854 0.00235899123888)
(0.000126965004357 0.000141223262368 0.00240030503993)
(0.000111356549459 0.000147727890366 0.00241237949587)
(9.35222700378e-05 0.000154092397027 0.00241720027342)
(7.5317907327e-05 0.000158998481466 0.00241851107397)
(5.67739643476e-05 0.000162797432811 0.00241830508377)
(3.80015670573e-05 0.0001655073727 0.00241763888214)
(1.90804918974e-05 0.00016713511758 0.0024170569729)
(8.43554957604e-08 0.000167679182864 0.00241682871069)
(-1.89135451352e-05 0.000167139045295 0.00241704238016)
(-3.78398803269e-05 0.000165515072953 0.00241760774997)
(-5.66208261203e-05 0.000162808518477 0.00241824998504)
(-7.51760977622e-05 0.000159012147043 0.00241841644985)
(-9.33932470644e-05 0.000154107460275 0.00241704253201)
(-0.000111240471779 0.000147745231859 0.00241217164446)
(-0.000126872243218 0.000141238135467 0.00240014191515)
(0.000121571508679 0.00013478928322 0.00243159365963)
(0.000106111931457 0.000139433047102 0.00243978970348)
(8.88646022524e-05 0.000144090194742 0.00244128462725)
(7.14006243055e-05 0.000147689866972 0.00243992961008)
(5.37323326475e-05 0.000150504170686 0.0024377038671)
(3.59221727299e-05 0.000152525408305 0.00243562329265)
(1.80252021458e-05 0.000153743383802 0.002434203505)
(8.63474518601e-08 0.000154151900342 0.00243369803755)
(-1.78541273859e-05 0.000153749312001 0.00243418999908)
(-3.57559002829e-05 0.000152537161235 0.00243559490847)
(-5.35739377352e-05 0.000150521460611 0.00243765413076)
(-7.12528951029e-05 0.000147711917921 0.00243984359317)
(-8.87291979209e-05 0.00014411562035 0.00244113833209)
(-0.00010598972817 0.000139461948039 0.00243960210614)
(-0.000121473001836 0.000134815741419 0.00243146251013)
(0.000115293180909 0.000127228042607 0.00245442465035)
(0.000100238508299 0.000129987984937 0.00245909173073)
(8.37619835723e-05 0.000132918824686 0.00245804821778)
(6.71619824201e-05 0.00013526238168 0.00245493410785)
(5.04613865367e-05 0.000137123996895 0.00245150195507)
(3.36940227461e-05 0.000138469397138 0.00244862315616)
(1.68971403842e-05 0.000139281578451 0.00244674383964)
(8.92851075558e-08 0.000139555193802 0.00244608908133)
(-1.67200097716e-05 0.000139289203817 0.00244673444435)
(-3.35211813836e-05 0.000138484609975 0.0024486045144)
(-5.02956989313e-05 0.000137146619402 0.00245147054058)
(-6.70063550404e-05 0.000135291802417 0.00245487856744)
(-8.36185696026e-05 0.000132953709775 0.00245794543073)
(-0.000100109130521 0.000130027627102 0.00245896045137)
(-0.000115188039988 0.000127265339126 0.00245435830752)
(0.000108555999475 0.000119164168974 0.00246841230548)
(9.41539852057e-05 0.0001192647884 0.0024700906577)
(7.83777782334e-05 0.00012072280885 0.00246774101739)
(6.26926789458e-05 0.00012190172478 0.00246416356208)
(4.70100758208e-05 0.000122847495227 0.00246063577072)
(3.13457240958e-05 0.000123527492561 0.00245778285019)
(1.57102333064e-05 0.000123936671497 0.00245594583181)
(9.31584600248e-08 0.00012407571757 0.00245531049415)
(-1.55251827359e-05 0.000123945264761 0.00245594350533)
(-3.11644449574e-05 0.000123544700037 0.00245778088692)
(-4.6835174489e-05 0.000122873263205 0.00246063597569)
(-6.25271128101e-05 0.00012193576011 0.00246416328818)
(-7.82244864602e-05 0.000120764058235 0.00246772185745)
(-9.4016704752e-05 0.000119312734066 0.00247008564366)
(-0.000108442599247 0.000119210180873 0.00246840735763)
(4.10048977467e-07 7.87633182307e-07 0.000185517283479)
(1.35238687302e-07 1.06889381403e-06 0.000193837154724)
(-9.14675627378e-09 1.20968168166e-06 0.000200905807212)
(-1.09420412401e-07 1.28734935428e-06 0.000206804769181)
(-1.49817646311e-07 1.31717134064e-06 0.000211507724801)
(-1.3593076649e-07 1.32095343618e-06 0.000214940337799)
(-8.08597339003e-08 1.31576717206e-06 0.00021703519964)
(-2.87954737569e-09 1.31266470646e-06 0.000217745482518)
(7.57852162761e-08 1.31534834941e-06 0.000217035356238)
(1.32903262054e-07 1.32029625179e-06 0.000214940838001)
(1.49766564351e-07 1.31644267476e-06 0.000211508787656)
(1.11817156529e-07 1.28655380206e-06 0.000206806638569)
(1.25732988472e-08 1.20917226362e-06 0.00020090947263)
(-1.31807701127e-07 1.06840025699e-06 0.00019384929794)
(-4.0883044689e-07 7.87763262222e-07 0.000185565686552)
(4.34125290417e-06 5.56002917351e-06 0.00054283338193)
(3.48284497564e-06 6.89220156072e-06 0.000566244548401)
(2.80105227026e-06 7.91777223455e-06 0.000586019509941)
(2.1443684626e-06 8.72261668249e-06 0.000602431894771)
(1.53727988621e-06 9.31109635389e-06 0.000615464987749)
(9.85667003112e-07 9.70934828999e-06 0.000624955704512)
(4.78444592498e-07 9.93893435805e-06 0.000630738001172)
(-2.72055319904e-09 1.00137264469e-05 0.000632691372855)
(-4.82435691772e-07 9.93792729382e-06 0.000630738642728)
(-9.85409047189e-07 9.70758687165e-06 0.00062495746045)
(-1.53096795584e-06 9.30879532252e-06 0.000615468390493)
(-2.13301279281e-06 8.7198107509e-06 0.000602437476568)
(-2.78814970699e-06 7.91520757896e-06 0.000586029977249)
(-3.47109332885e-06 6.88991166052e-06 0.000566279136283)
(-4.33640150718e-06 5.55937336336e-06 0.000542957935541)
(1.0464678623e-05 1.25447420695e-05 0.000886351301021)
(8.94503841873e-06 1.51776344431e-05 0.000923339864942)
(7.53731459082e-06 1.73754761416e-05 0.000954364122735)
(6.05466711156e-06 1.91793402003e-05 0.000979956049585)
(4.53960738139e-06 2.05642898035e-05 0.00100017965122)
(3.02164572617e-06 2.15409533698e-05 0.00101485719659)
(1.50831562827e-06 2.21216995452e-05 0.00102377826)
(1.17569420975e-09 2.2314300848e-05 0.00102678340015)
(-1.50422128758e-06 2.21204349411e-05 0.0010237786479)
(-3.01249347376e-06 2.15385494155e-05 0.00101485852972)
(-4.52331199479e-06 2.05607179291e-05 0.00100018244955)
(-6.03232505426e-06 1.9174444641e-05 0.000979960730703)
(-7.51345595386e-06 1.73701001455e-05 0.000954374190476)
(-8.92383597963e-06 1.5173025777e-05 0.000923382593042)
(-1.04545311634e-05 1.25429644571e-05 0.000886521117902)
(1.78024193223e-05 2.06772522173e-05 0.00121199840534)
(1.55466134464e-05 2.46491115266e-05 0.00126031014374)
(1.32981157984e-05 2.80499521801e-05 0.00130041430488)
(1.08309137176e-05 3.08890319738e-05 0.00133320531421)
(8.21954991989e-06 3.31044567479e-05 0.00135893288571)
(5.52362690586e-06 3.46863116181e-05 0.0013775091419)
(2.77674917626e-06 3.56352534264e-05 0.00138875990392)
(7.80463776813e-09 3.59514702301e-05 0.00139253871727)
(-2.75946758043e-06 3.56338875345e-05 0.00138875869188)
(-5.50154828116e-06 3.4683590838e-05 0.00137750707007)
(-8.1908161688e-06 3.31001849132e-05 0.00135893000952)
(-1.07966975665e-05 3.08829860782e-05 0.00133320132825)
(-1.32632048506e-05 2.80428403433e-05 0.00130041225854)
(-1.55160166206e-05 2.46432427243e-05 0.00126034059939)
(-1.77859889574e-05 2.06751569237e-05 0.00121217261715)
(2.55168653816e-05 2.90510149156e-05 0.0015152487527)
(2.24801642044e-05 3.42477774446e-05 0.0015720372275)
(1.93486513414e-05 3.87109994237e-05 0.00161851022262)
(1.58399051029e-05 4.24634481543e-05 0.00165605295118)
(1.20732863384e-05 4.5408603983e-05 0.00168522226673)
(8.14068508531e-06 4.75202171538e-05 0.00170613423508)
(4.10295666006e-06 4.87905655202e-05 0.00171873895338)
(1.57345706316e-08 4.9214530497e-05 0.00172295857028)
(-4.07009548544e-06 4.87892944014e-05 0.00171873460569)
(-8.10388949983e-06 4.75176111712e-05 0.00170612542908)
(-1.2031189282e-05 4.5404384039e-05 0.00168520814279)
(-1.57937921437e-05 4.24573515921e-05 0.00165603181187)
(-1.93031312676e-05 3.8703528578e-05 0.00161848336209)
(-2.24403212297e-05 3.42417180709e-05 0.0015720355102)
(-2.54933852092e-05 2.90494164958e-05 0.00151539310767)
(3.30376777126e-05 3.70720706637e-05 0.0017923599425)
(2.92067371848e-05 4.32872406365e-05 0.00185450153976)
(2.52010586138e-05 4.85774141975e-05 0.00190442112411)
(2.06656868137e-05 5.30342001576e-05 0.00194411814403)
(1.57728496204e-05 5.65348311234e-05 0.0019745700301)
(1.06460049456e-05 5.90456694381e-05 0.00199619795625)
(5.37057098881e-06 6.05565800008e-05 0.00200915292831)
(2.39584962095e-08 6.10609424189e-05 0.00201347287138)
(-5.32163893553e-06 6.05556134329e-05 0.0020091440095)
(-1.05942624637e-05 5.90436202946e-05 0.00199617940958)
(-1.57175110151e-05 5.65313735773e-05 0.00197453971842)
(-2.06081213704e-05 5.3029012819e-05 0.00194407235909)
(-2.51455141043e-05 4.85707951387e-05 0.00190435832729)
(-2.91578303043e-05 4.32821030742e-05 0.00185445157055)
(-3.30065391278e-05 3.70716636755e-05 0.00179245103162)
(3.99485541514e-05 4.43230679551e-05 0.00204098629506)
(3.53411694744e-05 5.12924975291e-05 0.00210540904173)
(3.05101909828e-05 5.7125439435e-05 0.00215596987605)
(2.50184157002e-05 6.20335365599e-05 0.00219537438601)
(1.90929216919e-05 6.58797420456e-05 0.00222510758284)
(1.28855304578e-05 6.86333754722e-05 0.00224596858241)
(6.50114067891e-06 7.0288393519e-05 0.00225836273392)
(3.18423811015e-08 7.08406201609e-05 0.00226247554968)
(-6.43683099176e-06 7.02879421034e-05 0.00225834805291)
(-1.28195536868e-05 6.86323241989e-05 0.00224593801591)
(-1.90250519899e-05 6.5877728048e-05 0.00222505749135)
(-2.49500768155e-05 6.20301739249e-05 0.00219529857246)
(-3.04451625464e-05 5.71207606439e-05 0.00215586327235)
(-3.52834893618e-05 5.12894337342e-05 0.00210530040103)
(-3.99092946549e-05 4.43245185207e-05 0.00204101067229)
(4.59534304707e-05 5.05172177625e-05 0.00226027626365)
(4.0617302607e-05 5.79474195529e-05 0.00232422435339)
(3.50422726372e-05 6.40251211968e-05 0.00237298276439)
(2.87069044587e-05 6.91204345135e-05 0.002410018363)
(2.18885589085e-05 7.30953707227e-05 0.00243737040363)
(1.47622159578e-05 7.59316499031e-05 0.00245625209755)
(7.44595367835e-06 7.76327152863e-05 0.00246734834465)
(3.90811660228e-08 7.81998766049e-05 0.00247100692711)
(-7.36752215775e-06 7.76329837577e-05 0.00246732768895)
(-1.46831512281e-05 7.59320173863e-05 0.00245620900244)
(-2.18091133786e-05 7.30954387355e-05 0.00243729953164)
(-2.86285387349e-05 6.91197434719e-05 0.00240991072162)
(-3.49682434748e-05 6.40234221863e-05 0.00237282945274)
(-4.05511348295e-05 5.7947486096e-05 0.00232405379439)
(-4.59059642883e-05 5.05214201073e-05 0.0022602300977)
(5.0862613212e-05 5.54800871794e-05 0.0024507009292)
(4.48715264983e-05 6.30708078725e-05 0.00251189835077)
(3.86589222382e-05 6.91077695246e-05 0.00255691975078)
(3.16234358009e-05 7.41394102032e-05 0.00259000619879)
(2.40821241837e-05 7.80401624014e-05 0.00261375358163)
(1.62263767553e-05 8.08111505218e-05 0.00262978644363)
(8.18085392608e-06 8.24685408047e-05 0.00263906557464)
(4.55797364479e-08 8.30206557059e-05 0.0026420978662)
(-8.08971789966e-06 8.24696881333e-05 0.00263903954222)
(-1.61354503157e-05 8.0813268759e-05 0.00262973196224)
(-2.39920356728e-05 7.80428410472e-05 0.00261366363187)
(-3.15356758627e-05 7.41421078063e-05 0.00258986895166)
(-3.85762975507e-05 6.91099875096e-05 0.00255672257587)
(-4.47971242507e-05 6.307498457e-05 0.00251167069206)
(-5.08070766433e-05 5.54879751854e-05 0.00245059013417)
(5.45766395033e-05 5.91302235508e-05 0.00261374019809)
(4.80252223297e-05 6.65915307609e-05 0.00267045751919)
(4.12997076389e-05 7.23318953904e-05 0.00271037590733)
(3.37271229389e-05 7.70778350214e-05 0.00273847915986)
(2.56490443609e-05 8.07286514177e-05 0.00275787520482)
(1.72651778512e-05 8.33085269322e-05 0.00277055768215)
(8.70061110443e-06 8.48469284004e-05 0.00277773204678)
(5.13824013063e-08 8.53589866399e-05 0.00278004522119)
(-8.59809092966e-06 8.48490526103e-05 0.0027777021969)
(-1.71634982967e-05 8.33126044117e-05 0.00277049501623)
(-2.55491157758e-05 8.07342837529e-05 0.00275777125834)
(-3.363046866e-05 7.70844192023e-05 0.0027383195194)
(-4.12087969231e-05 7.23387250653e-05 0.0027101446295)
(-4.79428742451e-05 6.66006309477e-05 0.00267018672177)
(-5.45132659571e-05 5.91426282231e-05 0.00261358124173)
(5.70685672807e-05 6.14598406675e-05 0.00275149952754)
(5.00666271879e-05 6.85235719834e-05 0.00280253563365)
(4.29643494471e-05 7.37495954165e-05 0.00283654726195)
(3.50274205504e-05 7.80248813906e-05 0.00285917901353)
(2.66037920942e-05 8.12839832766e-05 0.00287395339745)
(1.78923125168e-05 8.35739795655e-05 0.00288314984685)
(9.01340120079e-06 8.49353303051e-05 0.00288816086053)
(5.65860066179e-08 8.53882088595e-05 0.00288974024612)
(-8.90062656864e-06 8.49384246973e-05 0.00288812994624)
(-1.77808094777e-05 8.35800250166e-05 0.00288308479732)
(-2.6494664695e-05 8.129262179e-05 0.00287384485227)
(-3.49222485694e-05 7.80355053162e-05 0.00285901053608)
(-4.28654067212e-05 7.37613541905e-05 0.00283630010477)
(-4.99766380952e-05 6.85380985386e-05 0.00280224615722)
(-5.69977030992e-05 6.14773340331e-05 0.00275132091087)
(5.83643955815e-05 6.25144857534e-05 0.00286627873123)
(5.10318434715e-05 6.89402828302e-05 0.00291088056574)
(4.36958481187e-05 7.34744814692e-05 0.00293870740078)
(3.55692971067e-05 7.71348898588e-05 0.00295590678686)
(2.6987402904e-05 7.98974108474e-05 0.00296625249871)
(1.81387987653e-05 8.18275355421e-05 0.00297218243332)
(9.13587368786e-06 8.2971722285e-05 0.00297519307261)
(6.12804025109e-08 8.33523016694e-05 0.00297609950032)
(-9.01380611422e-06 8.29756637144e-05 0.00297516534574)
(-1.80182781384e-05 8.18353026388e-05 0.00297212406597)
(-2.68696645201e-05 7.99087436305e-05 0.00296615422861)
(-3.54559857488e-05 7.71492261559e-05 0.00295575109886)
(-4.35891642516e-05 7.34909463435e-05 0.00293847298019)
(-5.09345919479e-05 6.8960165527e-05 0.00291060858665)
(-5.82864034966e-05 6.25371974333e-05 0.0028661224654)
(5.85199528045e-05 6.23634952045e-05 0.00296007543166)
(5.09892710302e-05 6.79450259392e-05 0.00299784884423)
(4.35703687692e-05 7.16550545995e-05 0.00301972526029)
(3.54241847474e-05 7.45993246469e-05 0.00303205560254)
(2.68589017725e-05 7.67989692945e-05 0.00303862256276)
(1.80461974151e-05 7.83279543892e-05 0.00304185243054)
(9.08938457253e-06 7.92320703442e-05 0.00304324068665)
(6.55113903589e-08 7.95329051971e-05 0.0030436080823)
(-8.9589324677e-06 7.92366012595e-05 0.00304322207696)
(-1.79174719874e-05 7.83369572308e-05 0.00304181349969)
(-2.67332270397e-05 7.68122888245e-05 0.00303855581199)
(-3.53032899028e-05 7.46165546185e-05 0.00303194415179)
(-4.34564579777e-05 7.16753933383e-05 0.00301954494907)
(-5.08853389955e-05 6.7969579809e-05 0.00299764272116)
(-5.84354206606e-05 6.23909059763e-05 0.00295999380811)
(5.76340383299e-05 6.10958756454e-05 0.00303397351567)
(5.00590371418e-05 6.57437756056e-05 0.00306494558327)
(4.27105271604e-05 6.8508243796e-05 0.00308169297685)
(3.46905325288e-05 7.0667100549e-05 0.00309026542487)
(2.62913199062e-05 7.22636286844e-05 0.00309415866409)
(1.76620208265e-05 7.33672740476e-05 0.00309559067614)
(8.89721464457e-06 7.4017700378e-05 0.00309593952039)
(6.92530955186e-08 7.42342074337e-05 0.0030959709667)
(-8.75933587977e-06 7.4022465805e-05 0.00309593727226)
(-1.75260415715e-05 7.33767969511e-05 0.00309558688535)
(-2.61586279458e-05 7.22778771387e-05 0.00309415021183)
(-3.45629384455e-05 7.0685883808e-05 0.00309023978086)
(-4.25902669718e-05 6.85310620665e-05 0.00308162404465)
(-4.99492872667e-05 6.57716672508e-05 0.00306486774844)
(-5.75435364943e-05 6.11270314086e-05 0.0030340215117)
(5.57737978056e-05 5.96368256548e-05 0.003087400409)
(4.83952291102e-05 6.2709937099e-05 0.00311273353644)
(4.12219332623e-05 6.4358742443e-05 0.00312582445913)
(3.34426163151e-05 6.56398882801e-05 0.00313228984948)
(2.53357222296e-05 6.65622252981e-05 0.00313502864141)
(1.7017512807e-05 6.71896038253e-05 0.00313585528428)
(8.57406531848e-06 6.75550540245e-05 0.0031359200752)
(7.24353919905e-08 6.76764752187e-05 0.00313587544955)
(-8.42990886068e-06 6.75594915311e-05 0.00313594036316)
(-1.68754652202e-05 6.71985242466e-05 0.00313590004321)
(-2.51972529907e-05 6.65757287899e-05 0.00313510202596)
(-3.33095517104e-05 6.56580573303e-05 0.00313239030003)
(-4.10964870945e-05 6.43814510518e-05 0.0031259290699)
(-4.82812625292e-05 6.27387407965e-05 0.00311288555515)
(-5.5677638656e-05 5.96689626221e-05 0.00308757967258)
(-8.46347647416e-08 -1.37424935652e-07 0.000122600749843)
(-5.62146811917e-08 -1.86580666006e-07 0.000127772875208)
(-3.79231229304e-08 -2.20953018999e-07 0.000131864966408)
(-2.21943030694e-08 -2.47136737077e-07 0.000135106815789)
(-1.11969644273e-08 -2.64564534308e-07 0.000137592860095)
(-3.23994036292e-09 -2.75927115249e-07 0.000139361062027)
(1.40460333854e-09 -2.82242893545e-07 0.000140424561372)
(3.62338393184e-09 -2.84170714222e-07 0.000140784719738)
(5.57379073307e-09 -2.81983055992e-07 0.000140426300318)
(9.49138690301e-09 -2.75345769446e-07 0.000139364345165)
(1.67159097116e-08 -2.63452371552e-07 0.000137597420961)
(2.80983175345e-08 -2.45081096174e-07 0.000135112867472)
(4.42225166749e-08 -2.18584961328e-07 0.00013187430456)
(6.2060811645e-08 -1.83451271941e-07 0.000127792229513)
(8.91702205741e-08 -1.34504882724e-07 0.000122653665261)
(3.83048759234e-07 3.4032062211e-07 0.000380982518931)
(4.11171962396e-07 3.673912029e-07 0.000397508461082)
(3.94832330027e-07 4.18566348083e-07 0.00041076398228)
(3.52784837036e-07 4.76438518653e-07 0.00042132611839)
(2.87557812769e-07 5.34484038559e-07 0.000429455379446)
(2.05979004818e-07 5.81879064004e-07 0.000435251578496)
(1.11757226886e-07 6.12805034228e-07 0.000438740377976)
(9.8497640871e-09 6.23757254545e-07 0.000439915746435)
(-9.25442240177e-08 6.13363456083e-07 0.00043874456332)
(-1.88058146554e-07 5.83203765667e-07 0.000435259443758)
(-2.70858976764e-07 5.37083883835e-07 0.000429466281738)
(-3.35495054818e-07 4.81127747101e-07 0.000421340847135)
(-3.76765901084e-07 4.24275009455e-07 0.000410787948923)
(-3.94391227512e-07 3.75078031851e-07 0.000397561659805)
(-3.70304472626e-07 3.47911045709e-07 0.000381121470025)
(1.54934344771e-06 1.62690910315e-06 0.000648721801172)
(1.52445771795e-06 1.90422625279e-06 0.000677285295746)
(1.39926705631e-06 2.2006287448e-06 0.000700343686695)
(1.20559437161e-06 2.48417238566e-06 0.000718765740541)
(9.55660440467e-07 2.73301197961e-06 0.000732960682741)
(6.65643667748e-07 2.9244964236e-06 0.00074308681657)
(3.4786163557e-07 3.04481069165e-06 0.000749180164745)
(1.48814204219e-08 3.08603496349e-06 0.000751226867033)
(-3.18578600192e-07 3.04526737257e-06 0.000749185128459)
(-6.37598464994e-07 2.92581068055e-06 0.00074309605683)
(-9.28684500274e-07 2.73605788768e-06 0.000732973330238)
(-1.17786494509e-06 2.49002109856e-06 0.000718783068944)
(-1.370664885e-06 2.20835643329e-06 0.000700373779226)
(-1.49749300226e-06 1.91476922026e-06 0.000677358102094)
(-1.52881242886e-06 1.63838766106e-06 0.000648919347828)
(3.4854777648e-06 3.7863822734e-06 0.000922022134431)
(3.35925151405e-06 4.48273040415e-06 0.000962698111131)
(3.05087825203e-06 5.18427485272e-06 0.00099559705608)
(2.606565796e-06 5.83443528026e-06 0.00102187014825)
(2.0524118097e-06 6.38943454931e-06 0.00104208667499)
(1.41910007688e-06 6.81059614323e-06 0.00105648716669)
(7.33016501827e-07 7.07297467729e-06 0.0010651396726)
(1.95276909107e-08 7.16228287249e-06 0.00106803826772)
(-6.94345119426e-07 7.07343672354e-06 0.0010651430627)
(-1.38138801032e-06 6.81202148807e-06 0.00105649320168)
(-2.01546501214e-06 6.39285052871e-06 0.00104209437003)
(-2.56893238793e-06 5.84102859192e-06 0.00102188100072)
(-3.01275684912e-06 5.19356009269e-06 0.000995620541156)
(-3.32318543509e-06 4.49569041091e-06 0.000962770428754)
(-3.45769587179e-06 3.80156180629e-06 0.000922242324212)
(6.06148459014e-06 6.65214677554e-06 0.00119644228536)
(5.79033605963e-06 7.87635095244e-06 0.00124859439074)
(5.23581688143e-06 9.0833785311e-06 0.0012906689378)
(4.4579528564e-06 1.01854331092e-05 0.00132414240565)
(3.50056765709e-06 1.11142982298e-05 0.00134979233661)
(2.41317041389e-06 1.18140789285e-05 0.00136799667583)
(1.24034727813e-06 1.22481259635e-05 0.0013789031572)
(2.41901236496e-08 1.23954629429e-05 0.001382546442)
(-1.19225860419e-06 1.22487470749e-05 0.00137890269452)
(-2.36579660204e-06 1.181583999e-05 0.00136799500351)
(-3.45376612835e-06 1.11182313788e-05 0.00134978832153)
(-4.41074861279e-06 1.01927668782e-05 0.00132413733228)
(-5.18880671815e-06 9.09407542287e-06 0.00129067234012)
(-5.74607570333e-06 7.89166648254e-06 0.00124864618523)
(-6.02680162528e-06 6.67066015222e-06 0.00119665402923)
(9.11348261783e-06 1.00241747469e-05 0.00146718367117)
(8.65917354716e-06 1.18211062543e-05 0.00152945883986)
(7.80863353407e-06 1.35676088048e-05 0.00157935559037)
(6.63423801513e-06 1.51458203083e-05 0.00161876315992)