/*--------------------------------*- C++ -*----------------------------------*\
  =========                 |
  \\      /  F ield         | OpenFOAM: The Open Source CFD Toolbox
   \\    /   O peration     | Website:  https://openfoam.org
    \\  /    A nd           | Version:  7
     \\/     M anipulation  |
\*---------------------------------------------------------------------------*/
FoamFile
{
    version     2.0;
    format      ascii;
    class       volScalarField;
    location    "1.32";
    object      p;
}
// * * * * * * * * * * * * * * * * * * * * * * * * * * * * * * * * * * * * * //

dimensions      [0 2 -2 0 0 0 0];

internalField   nonuniform List<scalar> 
22500
(
-9.20852687685e-06
-9.2085389824e-06
-9.20925645762e-06
-9.20958429685e-06
-9.20992241379e-06
-9.21015232223e-06
-9.21027953653e-06
-9.21028721144e-06
-9.21018622499e-06
-9.20996900048e-06
-9.2096568408e-06
-9.20924929865e-06
-9.20886997482e-06
-9.20812449943e-06
-9.20809473374e-06
-9.20710797574e-06
-9.20693142396e-06
-9.20762345547e-06
-9.20793942402e-06
-9.20827824563e-06
-9.20851420925e-06
-9.20864808006e-06
-9.20865996916e-06
-9.20855564267e-06
-9.20833250331e-06
-9.20801457105e-06
-9.20760585422e-06
-9.20723671942e-06
-9.20651423404e-06
-9.2066702345e-06
-9.20477120588e-06
-9.20433888651e-06
-9.20487380322e-06
-9.20506570014e-06
-9.20532065061e-06
-9.20549791618e-06
-9.20559836171e-06
-9.2056002991e-06
-9.20550662535e-06
-9.20531744702e-06
-9.20505836467e-06
-9.20473313473e-06
-9.20448673158e-06
-9.20391945624e-06
-9.20432858641e-06
-9.20121923474e-06
-9.20043171567e-06
-9.20062031522e-06
-9.20054211356e-06
-9.20058710367e-06
-9.20061190997e-06
-9.20062014399e-06
-9.20059208054e-06
-9.2005296901e-06
-9.20043384947e-06
-9.20032790381e-06
-9.20021259789e-06
-9.20023535128e-06
-9.20001253927e-06
-9.2007748525e-06
-9.1961912477e-06
-9.19488352985e-06
-9.19451992102e-06
-9.19400477047e-06
-9.1936928364e-06
-9.19345470732e-06
-9.19330116433e-06
-9.19321950537e-06
-9.19321249594e-06
-9.19328004356e-06
-9.19343826285e-06
-9.19368039935e-06
-9.19413966709e-06
-9.19446708561e-06
-9.19574752058e-06
-9.18951281356e-06
-9.18746575133e-06
-9.18634134779e-06
-9.18520801267e-06
-9.18437976852e-06
-9.18375755231e-06
-9.18336593617e-06
-9.18320462814e-06
-9.18327921986e-06
-9.18358664415e-06
-9.18413037796e-06
-9.18488958007e-06
-9.18596682264e-06
-9.18705329672e-06
-9.1890716779e-06
-9.1810698123e-06
-9.17802436645e-06
-9.17593385234e-06
-9.17399687404e-06
-9.17248999848e-06
-9.17135963166e-06
-9.17065183294e-06
-9.17038418377e-06
-9.17056712324e-06
-9.17119261608e-06
-9.17224610345e-06
-9.17368494952e-06
-9.1755660035e-06
-9.17761691345e-06
-9.18063248157e-06
-9.17078802003e-06
-9.16646728298e-06
-9.16321694496e-06
-9.160299431e-06
-9.15796026586e-06
-9.1562041789e-06
-9.15510642406e-06
-9.15470720278e-06
-9.15502357042e-06
-9.15604078826e-06
-9.15772154725e-06
-9.15999371659e-06
-9.16285563396e-06
-9.16606500327e-06
-9.1703551407e-06
-9.15863461084e-06
-9.15277218825e-06
-9.1481909292e-06
-9.14414024202e-06
-9.14083750591e-06
-9.13835549229e-06
-9.13680535817e-06
-9.13625326341e-06
-9.1367241627e-06
-9.13819535741e-06
-9.14060347503e-06
-9.14384024917e-06
-9.14783573336e-06
-9.15237490344e-06
-9.15820569566e-06
-9.14463013825e-06
-9.13700220002e-06
-9.1309555468e-06
-9.12565868355e-06
-9.12129617981e-06
-9.11801537229e-06
-9.11596818459e-06
-9.11524799886e-06
-9.11588835285e-06
-9.11785793352e-06
-9.12106602843e-06
-9.12536345733e-06
-9.13060549927e-06
-9.1366091405e-06
-9.14420456168e-06
-9.12886055269e-06
-9.1193131496e-06
-9.11172044824e-06
-9.10511713186e-06
-9.09964368956e-06
-9.09552623387e-06
-9.09295981226e-06
-9.09206420896e-06
-9.09288105514e-06
-9.09537089182e-06
-9.09941658673e-06
-9.1048255983e-06
-9.11137434169e-06
-9.11892317631e-06
-9.1284365958e-06
-9.11142306468e-06
-9.09993793151e-06
-9.0908110268e-06
-9.08290534551e-06
-9.07632055171e-06
-9.0713678405e-06
-9.06828565421e-06
-9.06721611878e-06
-9.06820767869e-06
-9.07121403707e-06
-9.07609558445e-06
-9.08261636361e-06
-9.09046749771e-06
-9.09954971255e-06
-9.11099905164e-06
-9.09231568361e-06
-9.07921045005e-06
-9.06869337067e-06
-9.05954578617e-06
-9.05189740814e-06
-9.04615391477e-06
-9.04258851955e-06
-9.04135712059e-06
-9.04251110702e-06
-9.04600116241e-06
-9.05167391136e-06
-9.05925836447e-06
-9.06835111662e-06
-9.07882265093e-06
-9.09189024786e-06
-9.07220531979e-06
-9.0578734931e-06
-9.04599324343e-06
-9.03562445704e-06
-9.02697978505e-06
-9.02052935999e-06
-9.01654496427e-06
-9.01517490879e-06
-9.01646807029e-06
-9.02037760097e-06
-9.02675750268e-06
-9.03533816528e-06
-9.04565154648e-06
-9.05748467049e-06
-9.07177830186e-06
-9.05539101407e-06
-9.03699241927e-06
-9.02337393525e-06
-9.01158659485e-06
-9.00195926323e-06
-8.99487192311e-06
-8.99052753174e-06
-8.98904134637e-06
-8.99045124556e-06
-8.9947213228e-06
-9.00173844062e-06
-9.01130149869e-06
-9.02303190653e-06
-9.03660061015e-06
-9.0549620987e-06
-1.16848694884e-05
-1.16841637956e-05
-1.16832301773e-05
-1.1682386738e-05
-1.16816457048e-05
-1.16810873946e-05
-1.16807478584e-05
-1.1680652067e-05
-1.16808072131e-05
-1.16812031558e-05
-1.16818111086e-05
-1.16825909725e-05
-1.16834583458e-05
-1.16843984818e-05
-1.16850971883e-05
-1.16817613941e-05
-1.16810876595e-05
-1.16801673196e-05
-1.16793419065e-05
-1.16786144484e-05
-1.16780656203e-05
-1.16777313938e-05
-1.16776365989e-05
-1.16777886314e-05
-1.1678177143e-05
-1.16787736697e-05
-1.16795386018e-05
-1.16803879295e-05
-1.16813164314e-05
-1.16819857728e-05
-1.16803783379e-05
-1.16799265981e-05
-1.16791843147e-05
-1.16785310576e-05
-1.16779447023e-05
-1.16775016793e-05
-1.16772324418e-05
-1.16771591735e-05
-1.16772886163e-05
-1.16776113367e-05
-1.16781017746e-05
-1.16787258338e-05
-1.16794036182e-05
-1.16801546963e-05
-1.16806023126e-05
-1.1681010929e-05
-1.16808903432e-05
-1.16804139881e-05
-1.16800062678e-05
-1.16796187219e-05
-1.16793220405e-05
-1.16791417954e-05
-1.16790978492e-05
-1.16791964777e-05
-1.16794289692e-05
-1.16797723272e-05
-1.16801973939e-05
-1.16806299349e-05
-1.16811157409e-05
-1.16812330242e-05
-1.16827338577e-05
-1.16829075291e-05
-1.16826574405e-05
-1.16824471149e-05
-1.16822132429e-05
-1.16820251864e-05
-1.16819090049e-05
-1.16818855295e-05
-1.16819616591e-05
-1.16821283149e-05
-1.16823618011e-05
-1.16826326004e-05
-1.16828678287e-05
-1.16831279523e-05
-1.16829520329e-05
-1.16847876926e-05
-1.16851183579e-05
-1.16849765111e-05
-1.16848450671e-05
-1.16846632659e-05
-1.16845052973e-05
-1.16844037429e-05
-1.1684383671e-05
-1.16844538776e-05
-1.1684603648e-05
-1.16848052302e-05
-1.16850228264e-05
-1.16851789119e-05
-1.16853314179e-05
-1.16850000736e-05
-1.16866414122e-05
-1.16869454601e-05
-1.16867686433e-05
-1.16865808332e-05
-1.16863399834e-05
-1.16861292064e-05
-1.16859912538e-05
-1.16859573142e-05
-1.16860386917e-05
-1.16862223715e-05
-1.16864747074e-05
-1.16867499771e-05
-1.16869619287e-05
-1.16871500067e-05
-1.1686846504e-05
-1.16879427834e-05
-1.1688037159e-05
-1.16876946017e-05
-1.16873332283e-05
-1.16869405077e-05
-1.168660986e-05
-1.16863951076e-05
-1.16863338144e-05
-1.16864396731e-05
-1.16866974448e-05
-1.16870673406e-05
-1.16874928325e-05
-1.16878776905e-05
-1.16882320417e-05
-1.16881397144e-05
-1.16885021209e-05
-1.16882334661e-05
-1.16876250584e-05
-1.16870058744e-05
-1.168639731e-05
-1.16859022773e-05
-1.16855846194e-05
-1.16854873986e-05
-1.16856262775e-05
-1.16859842022e-05
-1.16865160991e-05
-1.16871556967e-05
-1.16877975841e-05
-1.16884182424e-05
-1.168869009e-05
-1.16882598116e-05
-1.16875189044e-05
-1.16865789291e-05
-1.16856515507e-05
-1.1684791024e-05
-1.16841079516e-05
-1.16836741841e-05
-1.16835367899e-05
-1.16837129167e-05
-1.16841841705e-05
-1.16849016565e-05
-1.16857914274e-05
-1.16867406942e-05
-1.16876933786e-05
-1.1688438602e-05
-1.16872435111e-05
-1.16859672919e-05
-1.16846601127e-05
-1.16834023278e-05
-1.16822764345e-05
-1.16813985943e-05
-1.16808458104e-05
-1.16806675636e-05
-1.16808816996e-05
-1.168146924e-05
-1.16823791128e-05
-1.16835324338e-05
-1.16848112591e-05
-1.16861315653e-05
-1.16874128536e-05
-1.16855373993e-05
-1.16837028583e-05
-1.16820146436e-05
-1.16804245915e-05
-1.16790371855e-05
-1.16779706863e-05
-1.16773041138e-05
-1.16770869619e-05
-1.16773372839e-05
-1.16780359903e-05
-1.16791321626e-05
-1.16805452529e-05
-1.16821555039e-05
-1.16838572083e-05
-1.168569775e-05
-1.16832770818e-05
-1.16808732737e-05
-1.16787987672e-05
-1.16768891928e-05
-1.16752586547e-05
-1.16740213522e-05
-1.16732529224e-05
-1.16730015279e-05
-1.16732835108e-05
-1.167408157e-05
-1.16753463737e-05
-1.16770008584e-05
-1.16789297246e-05
-1.16810179528e-05
-1.16834282375e-05
-1.16805407569e-05
-1.16775518726e-05
-1.16751238315e-05
-1.16729366468e-05
-1.16711082816e-05
-1.16697365292e-05
-1.16688902976e-05
-1.16686122724e-05
-1.166891844e-05
-1.16697919475e-05
-1.16711889041e-05
-1.16730395386e-05
-1.16752453396e-05
-1.1677687272e-05
-1.16806826734e-05
-1.16767906318e-05
-1.16737742535e-05
-1.16710967382e-05
-1.16687274871e-05
-1.16667881857e-05
-1.1665347255e-05
-1.16644623974e-05
-1.16641717456e-05
-1.16644881331e-05
-1.16653980148e-05
-1.16668621403e-05
-1.16688221513e-05
-1.16712089874e-05
-1.16739013105e-05
-1.16769246431e-05
-8.78938965167e-06
-8.78979367468e-06
-8.79020677302e-06
-8.79059540836e-06
-8.79092608294e-06
-8.7911726997e-06
-8.79131889424e-06
-8.79135514367e-06
-8.79127767717e-06
-8.79109215596e-06
-8.79081111683e-06
-8.79045459416e-06
-8.79005216528e-06
-8.78964303412e-06
-8.78925983644e-06
-8.78983575448e-06
-8.79023159137e-06
-8.79064599073e-06
-8.79103810718e-06
-8.79137380084e-06
-8.79162553754e-06
-8.79177576284e-06
-8.79181403278e-06
-8.79173603457e-06
-8.7915479646e-06
-8.79126310621e-06
-8.7909024115e-06
-8.79049682092e-06
-8.79008548964e-06
-8.78970894431e-06
-8.78976239865e-06
-8.79011311978e-06
-8.79049075763e-06
-8.79085344195e-06
-8.79116709713e-06
-8.79140384648e-06
-8.791545722e-06
-8.79158178249e-06
-8.79150745406e-06
-8.79132910949e-06
-8.79106032538e-06
-8.79072235536e-06
-8.79034659576e-06
-8.78997136975e-06
-8.78963862331e-06
-8.78957390809e-06
-8.78988665772e-06
-8.79023193977e-06
-8.79056753576e-06
-8.79086101257e-06
-8.79108418356e-06
-8.79121863416e-06
-8.79125287491e-06
-8.7911821303e-06
-8.79101285853e-06
-8.79075894157e-06
-8.79044194812e-06
-8.79009358723e-06
-8.7897502534e-06
-8.78945414961e-06
-8.78940373305e-06
-8.7896907535e-06
-8.79001409982e-06
-8.79033107176e-06
-8.79061115079e-06
-8.79082571861e-06
-8.79095576404e-06
-8.79098929471e-06
-8.7909213304e-06
-8.79075843848e-06
-8.79051483203e-06
-8.79021244301e-06
-8.78988322759e-06
-8.78956128867e-06
-8.78928895659e-06
-8.78925154096e-06
-8.78952300711e-06
-8.7898321702e-06
-8.79013692706e-06
-8.79040854019e-06
-8.79061798118e-06
-8.7907457431e-06
-8.79077930801e-06
-8.79071353036e-06
-8.7905550406e-06
-8.79031837532e-06
-8.79002577086e-06
-8.78970930981e-06
-8.78940100046e-06
-8.78914253261e-06
-8.78911576315e-06
-8.78938026243e-06
-8.78968158844e-06
-8.78997978134e-06
-8.79024713178e-06
-8.79045436401e-06
-8.79058152023e-06
-8.79061568796e-06
-8.79055162422e-06
-8.79039598358e-06
-8.79016352837e-06
-8.78987668804e-06
-8.78956750116e-06
-8.78926636394e-06
-8.789012861e-06
-8.78900186707e-06
-8.78926787004e-06
-8.78956717149e-06
-8.78986358934e-06
-8.79013004867e-06
-8.79033727618e-06
-8.79046502354e-06
-8.79050016748e-06
-8.79043743764e-06
-8.79028344095e-06
-8.79005298572e-06
-8.78976851525e-06
-8.7894617881e-06
-8.78916214641e-06
-8.78890530087e-06
-8.78891351944e-06
-8.78918818611e-06
-8.78949007161e-06
-8.78978847357e-06
-8.79005653304e-06
-8.79026519659e-06
-8.7903942135e-06
-8.79043051472e-06
-8.79036890214e-06
-8.79021583873e-06
-8.78998593766e-06
-8.78970137757e-06
-8.78939333256e-06
-8.78909058312e-06
-8.78882310432e-06
-8.78885062536e-06
-8.78914009185e-06
-8.7894479489e-06
-8.78975081085e-06
-8.79002168587e-06
-8.79023217727e-06
-8.79036248168e-06
-8.79039984769e-06
-8.79033932637e-06
-8.79018706812e-06
-8.78995720514e-06
-8.78967124776e-06
-8.78935938005e-06
-8.78905015118e-06
-8.78876633185e-06
-8.78881168091e-06
-8.78911999085e-06
-8.78943594105e-06
-8.78974440957e-06
-8.79001806348e-06
-8.79022978865e-06
-8.79036068918e-06
-8.79039881011e-06
-8.79033953854e-06
-8.79018861129e-06
-8.78995926813e-06
-8.78967182882e-06
-8.78935494112e-06
-8.78903708648e-06
-8.7887329334e-06
-8.78879181914e-06
-8.78912208023e-06
-8.78944794407e-06
-8.78976225115e-06
-8.79003763286e-06
-8.7902489802e-06
-8.79037922217e-06
-8.79041751019e-06
-8.79035986592e-06
-8.79021134474e-06
-8.78998390164e-06
-8.78969592817e-06
-8.78937369603e-06
-8.78904547628e-06
-8.78871808596e-06
-8.78877707717e-06
-8.78913584787e-06
-8.78947560444e-06
-8.78979643012e-06
-8.79007224109e-06
-8.79028154996e-06
-8.79040961498e-06
-8.79044750597e-06
-8.79039181186e-06
-8.79024692209e-06
-8.790022926e-06
-8.78973549442e-06
-8.78940719525e-06
-8.7890646564e-06
-8.78870758212e-06
-8.78876417288e-06
-8.78916318545e-06
-8.78951641941e-06
-8.78984181179e-06
-8.79011496116e-06
-8.79031928528e-06
-8.79044341979e-06
-8.79048007322e-06
-8.79042686733e-06
-8.79028721148e-06
-8.7900692679e-06
-8.78978545682e-06
-8.78945296347e-06
-8.78909662199e-06
-8.78869859078e-06
-8.7889801235e-06
-8.78930728719e-06
-8.7896360384e-06
-8.78993146322e-06
-8.79017418577e-06
-8.79035396102e-06
-8.79046222468e-06
-8.79049372316e-06
-8.7904467826e-06
-8.79032402688e-06
-8.79013168831e-06
-8.78987900986e-06
-8.78957678928e-06
-8.78924449502e-06
-8.78891743074e-06
-1.01017247267e-05
-1.01014575226e-05
-1.01011770406e-05
-1.01009002547e-05
-1.01006598581e-05
-1.01004762559e-05
-1.01003630277e-05
-1.01003278866e-05
-1.01003734856e-05
-1.01004952007e-05
-1.0100683558e-05
-1.010092364e-05
-1.01011953339e-05
-1.01014675621e-05
-1.01017278608e-05
-1.01015689973e-05
-1.01013105259e-05
-1.01010325351e-05
-1.0100756315e-05
-1.01005150707e-05
-1.01003299322e-05
-1.01002152177e-05
-1.01001792067e-05
-1.01002249126e-05
-1.0100347421e-05
-1.01005368022e-05
-1.01007775429e-05
-1.01010486903e-05
-1.0101318955e-05
-1.01015709087e-05
-1.01017684335e-05
-1.01015423551e-05
-1.01012933263e-05
-1.01010406261e-05
-1.01008175002e-05
-1.01006448094e-05
-1.01005371899e-05
-1.01005031987e-05
-1.01005461281e-05
-1.01006610036e-05
-1.01008377954e-05
-1.0101060822e-05
-1.01013090869e-05
-1.0101551208e-05
-1.01017705498e-05
-1.01019924885e-05
-1.01017914567e-05
-1.01015663889e-05
-1.01013338996e-05
-1.01011262744e-05
-1.01009642379e-05
-1.01008626808e-05
-1.01008303789e-05
-1.01008707946e-05
-1.0100978978e-05
-1.01011448212e-05
-1.01013525438e-05
-1.01015812468e-05
-1.01018002073e-05
-1.01019948807e-05
-1.01021686263e-05
-1.01019832132e-05
-1.01017745713e-05
-1.01015567894e-05
-1.01013604988e-05
-1.01012062307e-05
-1.01011089413e-05
-1.01010777085e-05
-1.01011161322e-05
-1.0101219346e-05
-1.01013771748e-05
-1.01015738332e-05
-1.010178861e-05
-1.01019919536e-05
-1.01021713655e-05
-1.01023161079e-05
-1.01021408656e-05
-1.01019441654e-05
-1.01017374297e-05
-1.0101549809e-05
-1.01014015121e-05
-1.01013075349e-05
-1.01012770659e-05
-1.01013138166e-05
-1.01014129983e-05
-1.01015644623e-05
-1.01017525448e-05
-1.01019568456e-05
-1.01021492145e-05
-1.01023190581e-05
-1.010244584e-05
-1.01022763495e-05
-1.01020880375e-05
-1.01018897768e-05
-1.01017090704e-05
-1.01015656588e-05
-1.01014743992e-05
-1.01014445167e-05
-1.01014798016e-05
-1.01015755965e-05
-1.01017218755e-05
-1.0101903237e-05
-1.01020997024e-05
-1.0102284612e-05
-1.01024492467e-05
-1.0102560123e-05
-1.01023930358e-05
-1.01022100243e-05
-1.01020178828e-05
-1.0101842398e-05
-1.01017028602e-05
-1.01016138174e-05
-1.01015844196e-05
-1.01016184233e-05
-1.01017113664e-05
-1.01018534452e-05
-1.01020296656e-05
-1.01022205871e-05
-1.01024010811e-05
-1.01025641749e-05
-1.01026608692e-05
-1.01024928852e-05
-1.01023125775e-05
-1.01021246841e-05
-1.01019532852e-05
-1.0101817028e-05
-1.01017299599e-05
-1.01017010284e-05
-1.01017338868e-05
-1.01018243269e-05
-1.01019629062e-05
-1.01021351947e-05
-1.01023224255e-05
-1.01025010097e-05
-1.01026656496e-05
-1.01027502592e-05
-1.01025790907e-05
-1.0102399493e-05
-1.01022144247e-05
-1.01020463146e-05
-1.01019129729e-05
-1.01018278357e-05
-1.01017994056e-05
-1.01018311877e-05
-1.01019192635e-05
-1.01020547103e-05
-1.0102223853e-05
-1.01024087688e-05
-1.01025874333e-05
-1.01027559571e-05
-1.01028308751e-05
-1.01026544584e-05
-1.01024739185e-05
-1.01022907341e-05
-1.01021255804e-05
-1.01019952913e-05
-1.01019122902e-05
-1.01018845311e-05
-1.01019152151e-05
-1.01020008248e-05
-1.01021331234e-05
-1.01022994399e-05
-1.01024829435e-05
-1.01026631566e-05
-1.01028374522e-05
-1.01029050672e-05
-1.01027217183e-05
-1.01025388451e-05
-1.0102356834e-05
-1.01021947675e-05
-1.01020678425e-05
-1.01019874845e-05
-1.01019605774e-05
-1.01019901053e-05
-1.01020728817e-05
-1.0102201684e-05
-1.01023651239e-05
-1.01025478427e-05
-1.01027309751e-05
-1.01029126779e-05
-1.01029802229e-05
-1.0102786493e-05
-1.01025984816e-05
-1.0102416343e-05
-1.01022569101e-05
-1.01021338633e-05
-1.01020562848e-05
-1.01020305838e-05
-1.01020587479e-05
-1.01021385098e-05
-1.01022635853e-05
-1.01024244153e-05
-1.01026076538e-05
-1.01027962791e-05
-1.01029886603e-05
-1.01030604449e-05
-1.01028500514e-05
-1.01026550911e-05
-1.01024717221e-05
-1.01023153032e-05
-1.010219604e-05
-1.01021219452e-05
-1.01020973157e-05
-1.01021242667e-05
-1.01022006629e-05
-1.0102321767e-05
-1.01024799144e-05
-1.01026645864e-05
-1.01028605088e-05
-1.0103069535e-05
-1.01030211431e-05
-1.01028339653e-05
-1.01026546e-05
-1.01024912491e-05
-1.01023548632e-05
-1.01022523387e-05
-1.01021889007e-05
-1.01021681836e-05
-1.01021913064e-05
-1.01022569951e-05
-1.01023616501e-05
-1.01024998192e-05
-1.01026646623e-05
-1.01028451163e-05
-1.01030312338e-05
-8.43171459622e-06
-8.43190287313e-06
-8.43209174586e-06
-8.43227275507e-06
-8.43242758173e-06
-8.43254416745e-06
-8.43261299625e-06
-8.43262903421e-06
-8.43259034568e-06
-8.43249991911e-06
-8.43236397219e-06
-8.43219263724e-06
-8.4319994807e-06
-8.43180640665e-06
-8.43162102568e-06
-8.43180606417e-06
-8.43198791657e-06
-8.43217511121e-06
-8.43235607655e-06
-8.43251194248e-06
-8.43262987677e-06
-8.43269995284e-06
-8.43271672182e-06
-8.43267797688e-06
-8.43258693978e-06
-8.43245018314e-06
-8.43227826251e-06
-8.43208538557e-06
-8.43189365381e-06
-8.43171416019e-06
-8.43164791381e-06
-8.43180674992e-06
-8.4319743277e-06
-8.43214016021e-06
-8.43228438439e-06
-8.43239414054e-06
-8.43245958849e-06
-8.43247511245e-06
-8.43243835248e-06
-8.43235256613e-06
-8.43222443499e-06
-8.43206465977e-06
-8.43188751455e-06
-8.43171528859e-06
-8.43155845483e-06
-8.43147740499e-06
-8.43161906536e-06
-8.43177083807e-06
-8.4319237689e-06
-8.43205808794e-06
-8.43216098517e-06
-8.43222263559e-06
-8.43223722133e-06
-8.43220229524e-06
-8.43212110759e-06
-8.43200043199e-06
-8.43185105628e-06
-8.43168721783e-06
-8.43153086898e-06
-8.43139091692e-06
-8.43134279863e-06
-8.43147327625e-06
-8.43161437333e-06
-8.43175834576e-06
-8.43188576791e-06
-8.43198390092e-06
-8.43204296151e-06
-8.43205705524e-06
-8.43202364937e-06
-8.4319459981e-06
-8.43183091428e-06
-8.43168920218e-06
-8.43153496561e-06
-8.43138943094e-06
-8.43126002815e-06
-8.43122857019e-06
-8.43135165891e-06
-8.43148477861e-06
-8.43162159552e-06
-8.43174342595e-06
-8.43183766767e-06
-8.43189466456e-06
-8.43190843883e-06
-8.43187645126e-06
-8.43180191031e-06
-8.43169162399e-06
-8.43155627374e-06
-8.43140971835e-06
-8.43127223728e-06
-8.43114994546e-06
-8.43112517645e-06
-8.43124280226e-06
-8.43136968957e-06
-8.43150068811e-06
-8.43161777863e-06
-8.4317086188e-06
-8.43176377529e-06
-8.43177730179e-06
-8.43174671049e-06
-8.43167512382e-06
-8.43156925928e-06
-8.43143955325e-06
-8.43129950261e-06
-8.43116830398e-06
-8.43105095999e-06
-8.43102947417e-06
-8.43114336292e-06
-8.43126539191e-06
-8.43139132459e-06
-8.43150409106e-06
-8.43159174003e-06
-8.43164512246e-06
-8.43165841825e-06
-8.43162921639e-06
-8.43156053021e-06
-8.43145888497e-06
-8.43133435246e-06
-8.4311999544e-06
-8.43107372113e-06
-8.43095975087e-06
-8.43093911355e-06
-8.43105014012e-06
-8.43116826729e-06
-8.43128970006e-06
-8.43139841667e-06
-8.43148292556e-06
-8.43153447066e-06
-8.43154749622e-06
-8.43151970092e-06
-8.43145395696e-06
-8.43135649307e-06
-8.43123689082e-06
-8.43110758669e-06
-8.43098538081e-06
-8.4308737859e-06
-8.43085134358e-06
-8.43096044328e-06
-8.43107529192e-06
-8.43119249998e-06
-8.43129716207e-06
-8.43137835198e-06
-8.43142789996e-06
-8.43144054422e-06
-8.43141420607e-06
-8.43135151956e-06
-8.43125833712e-06
-8.43114361186e-06
-8.4310190628e-06
-8.43090025393e-06
-8.43079038003e-06
-8.43076439793e-06
-8.43087195429e-06
-8.43098395203e-06
-8.43109710754e-06
-8.4311975303e-06
-8.4312751298e-06
-8.43132236065e-06
-8.43133450361e-06
-8.43130965191e-06
-8.43125023686e-06
-8.43116156532e-06
-8.43105182422e-06
-8.43093185603e-06
-8.43081598085e-06
-8.43070744641e-06
-8.43067634209e-06
-8.4307830644e-06
-8.43089282041e-06
-8.43100201609e-06
-8.4310979894e-06
-8.4311714895e-06
-8.43121607557e-06
-8.43122747086e-06
-8.43120421917e-06
-8.43114829998e-06
-8.43106447383e-06
-8.4309599154e-06
-8.43084434866e-06
-8.43073087461e-06
-8.43062305629e-06
-8.43058299216e-06
-8.43069080734e-06
-8.43079989407e-06
-8.43090601974e-06
-8.43099749702e-06
-8.43106688514e-06
-8.4311084179e-06
-8.43111904761e-06
-8.43109725154e-06
-8.4310449975e-06
-8.43096605165e-06
-8.43086645539e-06
-8.43075446017e-06
-8.43064178583e-06
-8.43053286363e-06
-8.43048123577e-06
-8.43059427142e-06
-8.43070437694e-06
-8.43080813018e-06
-8.4308956698e-06
-8.43096066265e-06
-8.43099934035e-06
-8.43100885579e-06
-8.43098861545e-06
-8.43093982491e-06
-8.4308656282e-06
-8.43077064314e-06
-8.43066124306e-06
-8.4305478044e-06
-8.4304337588e-06
-8.43045357702e-06
-8.43054956749e-06
-8.43064558312e-06
-8.43073305547e-06
-8.43080481476e-06
-8.43085746966e-06
-8.430888047e-06
-8.43089498405e-06
-8.43087769069e-06
-8.4308372726e-06
-8.43077594615e-06
-8.43069694076e-06
-8.43060426129e-06
-8.43050486719e-06
-8.43040781617e-06
-8.84797587653e-06
-8.8478403619e-06
-8.84769859716e-06
-8.84755966025e-06
-8.84743951891e-06
-8.84734802308e-06
-8.84729196464e-06
-8.84727462964e-06
-8.84729687648e-06
-8.84735608884e-06
-8.84744759273e-06
-8.84756408809e-06
-8.84769602509e-06
-8.8478281488e-06
-8.84795528785e-06
-8.84790913731e-06
-8.84777779045e-06
-8.8476373848e-06
-8.84749873219e-06
-8.84737822959e-06
-8.84728615162e-06
-8.84722946368e-06
-8.84721174988e-06
-8.8472340366e-06
-8.84729361741e-06
-8.84738558967e-06
-8.84750238952e-06
-8.84763403236e-06
-8.84776515902e-06
-8.84788819259e-06
-8.84801506758e-06
-8.84789950367e-06
-8.84777360217e-06
-8.84764661945e-06
-8.84753501963e-06
-8.84744894283e-06
-8.8473955426e-06
-8.84737862631e-06
-8.84739941196e-06
-8.84745519092e-06
-8.84754100397e-06
-8.84764919545e-06
-8.84776974668e-06
-8.84788719297e-06
-8.84799440862e-06
-8.84812890195e-06
-8.84802569216e-06
-8.84791160082e-06
-8.84779442267e-06
-8.84769025708e-06
-8.84760922007e-06
-8.84755857389e-06
-8.8475422932e-06
-8.84756171746e-06
-8.84761419088e-06
-8.84769470475e-06
-8.84779556176e-06
-8.84790677029e-06
-8.84801313411e-06
-8.84810861069e-06
-8.84821692119e-06
-8.84812149973e-06
-8.84801571618e-06
-8.84790592662e-06
-8.8478073949e-06
-8.84773010838e-06
-8.84768138938e-06
-8.84766542596e-06
-8.84768368866e-06
-8.84773358964e-06
-8.84781010979e-06
-8.84790555316e-06
-8.84801002541e-06
-8.84810887004e-06
-8.84819703495e-06
-8.84829054749e-06
-8.84820077384e-06
-8.8481014231e-06
-8.84799745275e-06
-8.84790347665e-06
-8.84782930678e-06
-8.84778224738e-06
-8.8477665574e-06
-8.84778379037e-06
-8.8478314374e-06
-8.84790452394e-06
-8.84799545425e-06
-8.84809451493e-06
-8.84818776091e-06
-8.84827095139e-06
-8.84835659736e-06
-8.84827095317e-06
-8.84817680333e-06
-8.84807802022e-06
-8.84798826238e-06
-8.84791705717e-06
-8.84787158867e-06
-8.84785615236e-06
-8.84787237085e-06
-8.8479178556e-06
-8.84798773146e-06
-8.84807460394e-06
-8.84816901869e-06
-8.84825784849e-06
-8.84833750806e-06
-8.84841759208e-06
-8.84833534495e-06
-8.84824546948e-06
-8.84815120052e-06
-8.84806526805e-06
-8.84799688757e-06
-8.84795302932e-06
-8.8479379107e-06
-8.84795316559e-06
-8.84799653867e-06
-8.848063333e-06
-8.84814643827e-06
-8.84823675238e-06
-8.84832203846e-06
-8.84839916024e-06
-8.84847556653e-06
-8.84839579125e-06
-8.84830951522e-06
-8.8482194299e-06
-8.84813726663e-06
-8.8480718089e-06
-8.84802966809e-06
-8.84801495169e-06
-8.84802925309e-06
-8.84807048818e-06
-8.8481342132e-06
-8.84821368883e-06
-8.84830025114e-06
-8.84838260422e-06
-8.84845784946e-06
-8.84853217845e-06
-8.84845459575e-06
-8.84837145167e-06
-8.84828528359e-06
-8.84820685064e-06
-8.84814437152e-06
-8.84810410974e-06
-8.84808988391e-06
-8.84810323912e-06
-8.84814227157e-06
-8.84820285953e-06
-8.8482787344e-06
-8.84836176423e-06
-8.84844160854e-06
-8.8485153882e-06
-8.8485891317e-06
-8.8485132188e-06
-8.84843273487e-06
-8.84835035582e-06
-8.84827570243e-06
-8.84821647064e-06
-8.84817827606e-06
-8.84816468281e-06
-8.84817706817e-06
-8.84821378082e-06
-8.84827108278e-06
-8.84834328948e-06
-8.84842291253e-06
-8.848500575e-06
-8.84857322469e-06
-8.84864743799e-06
-8.84857266126e-06
-8.84849445119e-06
-8.84841563379e-06
-8.84834498422e-06
-8.8482891018e-06
-8.84825327606e-06
-8.84824037904e-06
-8.84825179585e-06
-8.84828600604e-06
-8.84833982297e-06
-8.84840825637e-06
-8.84848462672e-06
-8.84856051435e-06
-8.84863253384e-06
-8.84871023343e-06
-8.84863505762e-06
-8.84855782511e-06
-8.84848206092e-06
-8.84841489344e-06
-8.84836268794e-06
-8.84832907629e-06
-8.84831710207e-06
-8.84832744201e-06
-8.84835915134e-06
-8.84840949442e-06
-8.84847437021e-06
-8.84854812532e-06
-8.84862339608e-06
-8.84869622534e-06
-8.84877886239e-06
-8.84870020908e-06
-8.84862316292e-06
-8.84854944866e-06
-8.8484860068e-06
-8.84843684386e-06
-8.8484058152e-06
-8.84839451157e-06
-8.848403968e-06
-8.84843320428e-06
-8.84848021329e-06
-8.84854180174e-06
-8.84861358776e-06
-8.8486891676e-06
-8.84876564086e-06
-8.84879228545e-06
-8.84872762598e-06
-8.84866158207e-06
-8.84860057185e-06
-8.84854860813e-06
-8.8485089486e-06
-8.84848372402e-06
-8.84847455996e-06
-8.84848189407e-06
-8.84850517548e-06
-8.84854296414e-06
-8.84859301019e-06
-8.84865247823e-06
-8.84871710081e-06
-8.84878009231e-06
-7.80817025901e-06
-7.80826157068e-06
-7.80835299364e-06
-7.80843904751e-06
-7.80851137872e-06
-7.80856540123e-06
-7.80859747376e-06
-7.80860509892e-06
-7.80858700227e-06
-7.80854433772e-06
-7.80847982888e-06
-7.80839817972e-06
-7.80830562593e-06
-7.80821253466e-06
-7.80812192801e-06
-7.80821032881e-06
-7.80829839722e-06
-7.80838874636e-06
-7.80847476729e-06
-7.80854762281e-06
-7.80860229066e-06
-7.80863491066e-06
-7.8086428144e-06
-7.80862466188e-06
-7.80858170773e-06
-7.80851686012e-06
-7.80843500297e-06
-7.80834268839e-06
-7.80825035934e-06
-7.80816271478e-06
-7.80812835546e-06
-7.80820508854e-06
-7.80828551666e-06
-7.80836399341e-06
-7.80843129227e-06
-7.80848222777e-06
-7.8085127224e-06
-7.80852005615e-06
-7.8085028752e-06
-7.80846249771e-06
-7.80840189313e-06
-7.80832601611e-06
-7.80824143924e-06
-7.80815872137e-06
-7.80808222331e-06
-7.80804143374e-06
-7.80810945449e-06
-7.80818186024e-06
-7.80825406213e-06
-7.80831679378e-06
-7.80836467097e-06
-7.80839345441e-06
-7.80840037192e-06
-7.80838408213e-06
-7.80834593456e-06
-7.80828896297e-06
-7.80821816277e-06
-7.80814009169e-06
-7.80806517791e-06
-7.80799696639e-06
-7.80797257936e-06
-7.80803488204e-06
-7.80810184765e-06
-7.80816963406e-06
-7.80822922066e-06
-7.8082750491e-06
-7.80830276165e-06
-7.80830951562e-06
-7.80829398873e-06
-7.80825755851e-06
-7.80820330412e-06
-7.80813623699e-06
-7.80806285152e-06
-7.80799328583e-06
-7.80793029555e-06
-7.80791413475e-06
-7.80797253242e-06
-7.80803529772e-06
-7.80809965391e-06
-7.80815673803e-06
-7.8082009168e-06
-7.80822776644e-06
-7.80823443169e-06
-7.80821961167e-06
-7.80818469628e-06
-7.80813277705e-06
-7.8080688174e-06
-7.80799919752e-06
-7.80793364847e-06
-7.80787427739e-06
-7.80786128834e-06
-7.80791664844e-06
-7.80797609919e-06
-7.80803756003e-06
-7.80809243169e-06
-7.80813511538e-06
-7.80816118813e-06
-7.80816780692e-06
-7.80815370119e-06
-7.80812024678e-06
-7.80807050936e-06
-7.80800933921e-06
-7.80794295492e-06
-7.80788062692e-06
-7.80782386368e-06
-7.80781236983e-06
-7.80786540333e-06
-7.8079221273e-06
-7.80798101888e-06
-7.80803384563e-06
-7.80807507115e-06
-7.80810035247e-06
-7.80810690697e-06
-7.80809351301e-06
-7.80806151154e-06
-7.80801388745e-06
-7.80795532361e-06
-7.80789182025e-06
-7.80783212762e-06
-7.80777734954e-06
-7.80776605584e-06
-7.80781717234e-06
-7.80787160397e-06
-7.8079281097e-06
-7.80797889061e-06
-7.80801856989e-06
-7.80804297797e-06
-7.808049422e-06
-7.80803675243e-06
-7.80800624157e-06
-7.80796074241e-06
-7.80790470881e-06
-7.80784387103e-06
-7.8077864398e-06
-7.80773323064e-06
-7.80772093457e-06
-7.80777046462e-06
-7.80782282843e-06
-7.80787701719e-06
-7.80792567829e-06
-7.80796368958e-06
-7.80798708511e-06
-7.80799335393e-06
-7.80798141986e-06
-7.8079524656e-06
-7.80790916383e-06
-7.80785566901e-06
-7.80779738568e-06
-7.80774196237e-06
-7.80769016399e-06
-7.80767594069e-06
-7.80772404906e-06
-7.80777459997e-06
-7.80782650246e-06
-7.80787291348e-06
-7.80790902005e-06
-7.80793122527e-06
-7.80793720925e-06
-7.807926022e-06
-7.80789872029e-06
-7.80785773171e-06
-7.80780683983e-06
-7.80775104939e-06
-7.80769745568e-06
-7.8076469355e-06
-7.80763003877e-06
-7.80767711332e-06
-7.80772614097e-06
-7.80777581931e-06
-7.80781979251e-06
-7.80785379998e-06
-7.80787456339e-06
-7.80788016315e-06
-7.80786971993e-06
-7.80784417928e-06
-7.80780565641e-06
-7.80775745322e-06
-7.80770406846e-06
-7.80765205026e-06
-7.80760262252e-06
-7.80758105988e-06
-7.80762813091e-06
-7.80767651475e-06
-7.80772437947e-06
-7.80776604618e-06
-7.80779773507e-06
-7.80781701048e-06
-7.80782206639e-06
-7.80781236705e-06
-7.80778861254e-06
-7.80775254165e-06
-7.80770688978e-06
-7.80765546783e-06
-7.80760422648e-06
-7.80755501015e-06
-7.8075272557e-06
-7.80757628542e-06
-7.80762507593e-06
-7.80767177054e-06
-7.8077112591e-06
-7.80774088401e-06
-7.80775850954e-06