/*--------------------------------*- C++ -*----------------------------------*\
  =========                 |
  \\      /  F ield         | OpenFOAM: The Open Source CFD Toolbox
   \\    /   O peration     | Website:  https://openfoam.org
    \\  /    A nd           | Version:  7
     \\/     M anipulation  |
\*---------------------------------------------------------------------------*/
FoamFile
{
    version     2.0;
    format      ascii;
    class       surfaceScalarField;
    location    "0.78";
    object      phi;
}
// * * * * * * * * * * * * * * * * * * * * * * * * * * * * * * * * * * * * * //

dimensions      [0 3 -1 0 0 0 0];

internalField   nonuniform List<scalar> 
65775
(
2.46729926955e-11
1.55487124222e-09
2.93322554457e-10
-1.48032257436e-13
4.16837539095e-11
1.62590978497e-09
3.26671915502e-10
5.03457242426e-11
1.68849707206e-09
3.59624349407e-10
5.00224219758e-11
1.74227412463e-09
3.89975463376e-10
4.17693766297e-11
1.78507855281e-09
4.15763902288e-10
2.73124389226e-11
1.81626926983e-09
4.35416490527e-10
8.91817886152e-12
1.83583791612e-09
4.47873082852e-10
-1.08308132273e-11
1.8432617899e-09
4.52324858871e-10
-2.91712625079e-11
1.83587785016e-09
4.47842898557e-10
-4.3528647626e-11
1.81635088102e-09
4.35357195573e-10
-5.16418956776e-11
1.78520554983e-09
4.1567674536e-10
-5.1798115306e-11
1.74244576022e-09
3.89861702003e-10
-4.29514985417e-11
1.68871208248e-09
3.59483845949e-10
-2.57773637069e-11
1.62614668572e-09
3.26495294257e-10
1.55490876807e-09
2.93067207917e-10
-9.06797586771e-13
6.22858184434e-11
2.54569368654e-09
7.31175057405e-10
-3.18852073156e-13
1.09220806076e-10
2.64823902597e-09
8.11181544375e-10
1.33309923695e-10
2.74122513868e-09
8.9026806516e-10
1.33562188041e-10
2.82053634738e-09
9.6310126679e-10
1.12078198337e-10
2.8833422903e-09
1.02494139332e-09
7.34593083719e-11
2.92876334646e-09
1.07203064801e-09
2.39103161186e-11
2.95718506712e-09
1.10185443392e-09
-2.93618919182e-11
2.96803564834e-09
1.11249364125e-09
-7.87633338251e-11
2.9572674693e-09
1.1017608825e-09
-1.17104760067e-10
2.92893725876e-09
1.07184812428e-09
-1.38199557246e-10
2.88361976812e-09
1.02467473913e-09
-1.3747211299e-10
2.820925953e-09
9.6275571756e-10
-1.12858194766e-10
2.74173173346e-09
8.89845106814e-10
-6.53577323118e-11
2.64879105094e-09
8.10657341901e-10
2.54584002232e-09
7.30462388326e-10
-2.54572042014e-12
9.01203952861e-11
3.1059354956e-09
1.04542848658e-09
-3.99757265943e-13
1.59431939963e-10
3.21270472758e-09
1.15774618561e-09
1.95561239832e-10
3.31393319631e-09
1.26878840174e-09
1.96683443025e-10
3.39987177359e-09
1.37107172745e-09
1.65434657492e-10
3.46773010333e-09
1.45790974924e-09
1.08500250764e-10
3.51643071277e-09
1.52401745645e-09
3.5134769285e-11
3.54682116381e-09
1.56585858872e-09
-4.38176330711e-11
3.55850607033e-09
1.5807515309e-09
-1.16954298222e-10
3.54691794242e-09
1.56570274816e-09
-1.73455319846e-10
3.51664403033e-09
1.52371435016e-09
-2.04094468777e-10
3.46808481316e-09
1.45746892394e-09
-2.02221321723e-10
3.40039225824e-09
1.37050408805e-09
-1.65250795107e-10
3.31463840951e-09
1.26810052771e-09
-9.49929685116e-11
3.2134679741e-09
1.15691071281e-09
3.1061642514e-09
1.04433565254e-09
-4.03771290481e-12
1.10605309409e-10
3.33764743922e-09
1.26493191478e-09
-4.37865631022e-13
1.95839150581e-10
3.43087168298e-09
1.39920373755e-09
2.41007920312e-10
3.52503737727e-09
1.53189490885e-09
2.42993311894e-10
3.60520137193e-09
1.6541337568e-09
2.0471221134e-10
3.66847333854e-09
1.75791553197e-09
1.34267622569e-10
3.71356013684e-09
1.83691108657e-09
4.31920779607e-11
3.74162509632e-09
1.88687725403e-09
-5.48944714772e-11
3.75251436357e-09
1.90462059953e-09
-1.45666806785e-10
3.74171057716e-09
1.88666161511e-09
-2.1553441316e-10
3.7137636899e-09
1.83649308939e-09
-2.53000667437e-10
3.66883374242e-09
1.7573106079e-09
-2.50006944606e-10
3.60576013436e-09
1.65336035112e-09
-2.03694797662e-10
3.52583308129e-09
1.53096832227e-09
-1.17173597239e-10
3.43173215009e-09
1.39810268939e-09
3.33791981473e-09
1.26354587783e-09
-5.44909084162e-12
1.24717251958e-10
3.32604935808e-09
1.40556874856e-09
-4.48279523121e-13
2.20651647598e-10
3.39509544417e-09
1.55352721384e-09
2.72143110888e-10
3.47261917939e-09
1.69963495983e-09
2.74867202625e-10
3.53959756082e-09
1.8342456528e-09
2.31811450179e-10
3.59269133792e-09
1.94854345943e-09
1.51972901482e-10
3.6303010738e-09
2.0355394324e-09
4.84779939027e-11
3.65367132146e-09
2.09053095092e-09
-6.3052243372e-11
3.66285184044e-09
2.11000920941e-09
-1.66174377131e-10
3.65372317465e-09
2.09025818493e-09
-2.45301067096e-10
3.63044918519e-09
2.03501254305e-09
-2.87347831359e-10
3.59298844785e-09
1.94778501388e-09
-2.83371574819e-10
3.54010157466e-09
1.8332836153e-09
-2.30452100549e-10
3.47339049337e-09
1.69849661038e-09
-1.32922736383e-10
3.39593057587e-09
1.55220258119e-09
3.32629165935e-09
1.40395700844e-09
-6.81884792383e-12
1.33408549776e-10
3.14209208863e-09
1.48065747796e-09
-4.41703070523e-13
2.35627517585e-10
3.18191234272e-09
1.63572520691e-09
2.90940885762e-10
3.23784365382e-09
1.78871043512e-09
2.94142405914e-10
3.28800472738e-09
1.929671129e-09
2.48180227266e-10
3.32830073487e-09
2.04938464585e-09
1.62526519584e-10
3.35673364057e-09
2.1405063543e-09
5.12867068845e-11
3.37439953558e-09
2.19806821968e-09
-6.86385456836e-11
3.38146544609e-09
2.21839934083e-09
-1.7944009139e-10
3.37439615681e-09
2.19774116142e-09
-2.64254036567e-10
3.35678150294e-09
2.13987672774e-09
-3.09022545595e-10
3.32846381634e-09
2.04848328617e-09
-3.04336651088e-10
3.28835674197e-09
1.92853728211e-09
-2.4732792411e-10
3.23846576055e-09
1.78738572767e-09
-1.43230314306e-10
3.18259170324e-09
1.63421275393e-09
3.14220331522e-09
1.47886741803e-09
-8.169010705e-12
1.37496458114e-10
2.84445632941e-09
1.50165796301e-09
-4.25082638004e-13
2.42191966812e-10
2.85438340243e-09
1.65867128866e-09
2.99020449211e-10
2.8873851968e-09
1.81341283642e-09
3.02336079162e-10
2.9198746108e-09
1.95600588879e-09
2.55020066564e-10
2.94683570117e-09
2.07713721072e-09
1.66686437655e-10
2.96584838655e-09
2.16934656008e-09
5.18645594467e-11
2.977697793e-09
2.22755427149e-09
-7.19398758152e-11
2.9825812696e-09
2.24804792505e-09
-1.86261909451e-10
2.97761967578e-09
2.22717601155e-09
-2.73635000805e-10
2.96575356989e-09
2.16862060737e-09
-3.19582060648e-10
2.94679559823e-09
2.07610350707e-09
-3.14561528348e-10
2.91997629837e-09
1.954716263e-09
-2.55784018343e-10
2.88773039303e-09
1.81192460831e-09
-1.4894105107e-10
2.85476094968e-09
1.65700019488e-09
2.8443055502e-09
1.49972412458e-09
-9.51994317969e-12
1.37587328139e-10
2.48118922473e-09
1.47860013793e-09
-4.01489926847e-13
2.41420425923e-10
2.46385749286e-09
1.63360132072e-09
2.97647605701e-10
2.47529036326e-09
1.78617989995e-09
3.00665042053e-10
2.4911740335e-09
1.92678143714e-09
2.53315159753e-10
2.5056163758e-09
2.04624574637e-09
1.65082816998e-10
2.51585820686e-09
2.13718991059e-09
5.04197355401e-11
2.522312561e-09
2.19455034186e-09
-7.31916858043e-11
2.52514984728e-09
2.21467185238e-09
-1.87297916692e-10
2.52214221918e-09
2.19412433206e-09
-2.74457266186e-10
2.51558116061e-09
2.13637442673e-09
-3.20273681224e-10
2.50530676208e-09
2.04509022259e-09
-3.15342803129e-10
2.49092740325e-09
1.92535096547e-09
-2.56924634125e-10
2.47522669089e-09
1.78454788939e-09
-1.50681155963e-10
2.46377555625e-09
1.63179442398e-09
2.48061605345e-09
1.47654799539e-09
-1.08860750687e-11
1.34108528264e-10
2.09101017463e-09
1.42038582958e-09
-3.73358894024e-13
2.34080363803e-10
2.05139389761e-09
1.57046634715e-09
2.87764411445e-10
2.04445398949e-09
1.71798978227e-09
2.90072666671e-10
2.04597693108e-09
1.85389010682e-09
2.43855971726e-10
2.04947910282e-09
1.96934884776e-09
1.58234861372e-10
2.05205961505e-09
2.05722473155e-09
4.71284855098e-11
2.0538046903e-09
2.11258680693e-09
-7.25850056803e-11
2.05483692597e-09
2.13192480169e-09
-1.83083112854e-10
2.05352718997e-09
2.11211701028e-09
-2.67528594363e-10
2.05156553896e-09
2.05632709966e-09
-3.12060223061e-10
2.04883841773e-09
1.96808210458e-09
-3.076428676e-10
2.04528762508e-09
1.85233257694e-09
-2.51535962198e-10
2.04384778631e-09
1.71623057176e-09
-1.48892007522e-10
2.05068348248e-09
1.56854076235e-09
2.08982893045e-09
1.41823400794e-09
-1.22785671215e-11
1.27335476834e-10
1.70435607669e-09
1.33502187256e-09
-3.4156037859e-13
2.2067038167e-10
1.64888492181e-09
1.47821012619e-09
2.70036297788e-10
1.62777352335e-09
1.61867130121e-09
2.71280488702e-10
1.61771461758e-09
1.74791816475e-09
2.27284388795e-10
1.61215480812e-09
1.85762943058e-09
1.46582287296e-10
1.60834041657e-09
1.94106149633e-09
4.21463847588e-11
1.60614559334e-09
1.993535893e-09
-7.02768005504e-11
1.60565333331e-09
2.01177343779e-09
-1.74059299487e-10
1.60574877684e-09
1.99302703264e-09
-2.53494461555e-10
1.60759974834e-09
1.94008999397e-09
-2.9566829985e-10
1.61112863269e-09
1.85626244048e-09
-2.92133877959e-10
1.61649350544e-09
1.74624646042e-09
-2.40123176586e-10
1.62649246478e-09
1.61679872345e-09
-1.43855337772e-10
1.64736969134e-09
1.47617824264e-09
1.70236068235e-09
1.3327836074e-09
-1.37045101335e-11
1.17391130637e-10
1.34423331608e-09
1.22981664623e-09
-3.07028474798e-13
2.01464219605e-10
1.27989967854e-09
1.36500665428e-09
2.44942962504e-10
1.24900182408e-09
1.49716523572e-09
2.44894433506e-10
1.23013660882e-09
1.61842177583e-09
2.04187006326e-10
1.21737936948e-09
1.7211038792e-09
1.30546343147e-10
1.20841891382e-09
1.79903482294e-09
3.56302948852e-11
1.20304666998e-09
1.8479234817e-09
-6.64098539827e-11
1.20131386144e-09
1.86481310911e-09
-1.60633624224e-10
1.20251983631e-09
1.84738143284e-09
-2.32927381694e-10
1.20740568424e-09
1.79799908476e-09
-2.71690494191e-10
1.21591896233e-09
1.71964851908e-09
-2.69282910627e-10
1.2283012352e-09
1.6166484517e-09
-2.22949140809e-10
1.24691718266e-09
1.49519132174e-09
-1.35688130662e-10
1.27740295531e-09
1.36287793393e-09
1.34121085315e-09
1.22750128033e-09
-1.5166768033e-11
1.0423273952e-10
1.02690899294e-09
1.11155715154e-09
-2.67966244803e-13
1.76636135141e-10
9.60176517266e-10
1.23846945114e-09
2.13004197329e-10
9.23279272702e-10
1.36173916117e-09
2.11644227275e-10
8.98040035588e-10
1.47414387614e-09
1.75287472536e-10
8.79817631103e-10
1.56884839911e-09
1.10652167781e-10
8.66915451857e-10
1.64044412163e-09
2.77796388242e-11
8.59110832127e-10
1.68518272608e-09
-6.11516441192e-11
8.56421131814e-10
1.70052630565e-09
-1.4329768627e-10
8.58441568249e-10
1.68461428533e-09
-2.0651495965e-10
8.65603092968e-10
1.63935575326e-09
-2.40818146306e-10
8.7787628179e-10
1.56731822061e-09
-2.39570743682e-10
8.95512413638e-10
1.47228196297e-09
-2.00150385242e-10
9.20266932077e-10
1.35967553454e-09
-1.24316429061e-10
9.5652701658e-10
1.23625383555e-09
1.02265711565e-09
1.10917359003e-09
-1.66572639289e-11
8.77126240783e-11
7.6236023134e-10
9.86671066819e-10
-2.20397941721e-13
1.46657979366e-10
6.97614800512e-10
1.10581873987e-09
1.75295065423e-10
6.57408337821e-10
1.22012765374e-09
1.72841027054e-10
6.27925611274e-10
1.32314575953e-09
1.41784342151e-10
6.05966631321e-10
1.40914530529e-09
8.77286480046e-11
5.90381269201e-10
1.4737234251e-09
1.89054084052e-11
5.80933600821e-10
1.51384271477e-09
-5.47615848653e-11
5.77575824931e-10
1.52747913871e-09
-1.22824393329e-10
5.80102313492e-10
1.51325707473e-09
-1.75393822004e-10
5.88730650874e-10
1.47259831992e-09
-2.04293766835e-10
6.03487712878e-10
1.407558131e-09
-2.03999987739e-10
6.24624597948e-10
1.321211114e-09
-1.72127031378e-10
6.53346832525e-10
1.21798791089e-09
-1.09521638801e-10
6.92639916772e-10
1.10353275561e-09
7.56663358038e-10
9.84240379519e-10
-1.80826857757e-11
6.83496624311e-11
5.53831156276e-10
8.61359243756e-10
-1.53300618728e-13
1.13653444868e-10
4.91643090228e-10
9.739207892e-10
1.34593463252e-10
4.50381647457e-10
1.07948779066e-09
1.31177569053e-10
4.19041999855e-10
1.17276184383e-09
1.05860300913e-10
3.95342745834e-10
1.24948192387e-09
6.31952127018e-11
3.78518837126e-10
1.30649082558e-09
9.51627512328e-12
3.68304517934e-10
1.34161145137e-09
-4.76778386953e-11
3.64591505481e-10
1.35341427711e-09
-1.00557204899e-10
3.67275843082e-10
1.34101918536e-09
-1.41659070416e-10
3.76465524147e-10
1.30534820825e-09
-1.64710530995e-10
3.92243494691e-10
1.24786111299e-09
-1.65241391207e-10
4.14874097832e-10
1.17077485249e-09
-1.40907554204e-10
4.45161962761e-10
1.07728675146e-09
-9.17464498401e-11
4.85180619676e-10
9.71589091682e-10
5.46550131623e-10
8.58928208093e-10
-1.94699919113e-11
5.44639877569e-11
7.41887519082e-10
-1.00949406741e-13
3.90017870652e-10
8.65116653878e-11
8.4916420135e-10
3.34728451372e-10
9.84184171312e-11
9.46129388346e-10
2.96246671174e-10
9.25500947002e-11
1.02935934326e-09
2.65896569725e-10
7.17420097816e-11
1.09636689925e-09
2.42625746265e-10
3.95977028093e-11
1.14540651155e-09
2.26042822904e-10
4.89617089298e-13
1.17525914516e-09
2.15921315814e-10
-4.06964808191e-11
1.18514494374e-09
2.12130929092e-10
-7.89516442612e-11
1.17467597432e-09
2.14632096617e-10
-1.09429713054e-10
1.14427567118e-09
2.23469134806e-10
-1.27830935505e-10
1.09475117603e-09
2.38755091272e-10
-1.30653146033e-10
1.02735877035e-09
2.60706268103e-10
-1.15171750352e-10
9.43898647126e-10
2.89711434548e-10
-7.91230813976e-11
8.46785156804e-10
3.26673611672e-10
7.39590578499e-10
-2.06816931132e-11
3.81011352668e-10
9.6376854962e-13
5.10813104713e-11
2.41176058782e-10
-4.95992902196e-14
2.75657014748e-12
5.67104293039e-11
2.67925985987e-10
3.97299531101e-12
6.32850752994e-11
2.94875752351e-10
4.27815282814e-12
6.93596164847e-11
3.20086032023e-10
3.68741915203e-12
7.44402045021e-11
3.41742376969e-10
2.37878030106e-12
7.82243049526e-11
3.58366740326e-10
6.17458954194e-13
8.05738924141e-11
3.68941601949e-10
-1.29650121487e-12
8.14104201276e-11
3.72714387957e-10
-3.05703031661e-12
8.06001092341e-11
3.68892723597e-10
-4.36014176269e-12
7.82818653085e-11
3.58270920674e-10
-4.93031190196e-12
7.45402046904e-11
3.41602938737e-10
-4.5785764673e-12
6.95021184311e-11
3.19906770869e-10
-3.29215407243e-12
6.34405715843e-11
2.94658774715e-10
-1.41844349918e-12
5.68627961683e-11
2.67664085482e-10
5.11202359355e-11
2.40832589898e-10
-3.93968038685e-13
4.30853582101e-12
1.23387923968e-10
6.5440232836e-10
-1.21716345935e-13
9.91773913507e-12
1.35390555134e-10
7.26512916278e-10
1.38955297666e-11
1.49882228583e-10
7.992996011e-10
1.50127478128e-11
1.63473329779e-10
8.67526967033e-10
1.3069133344e-11
1.74819795066e-10
9.26237577234e-10
8.51686424127e-12
1.83225547386e-10
9.7136404613e-10
2.2464787855e-12
1.88424498763e-10
1.00007834257e-09
-4.61206975057e-12
1.90277537751e-10
1.01029804042e-09
-1.08587171562e-11
1.88493623034e-10
9.99933228198e-10
-1.53548216737e-11
1.83371801742e-10
9.71079737583e-10
-1.71913165557e-11
1.75058414215e-10
9.25824488081e-10
-1.58957555207e-11
1.63801993004e-10
8.66997217026e-10
-1.16766634588e-11
1.50248119855e-10
7.98660952796e-10
-5.78475040236e-12
1.35730989835e-10
7.25747407103e-10
1.2350024816e-10
6.53435425152e-10
-1.27713774576e-12
8.20229165583e-12
1.83509026215e-10
9.77004482944e-10
-1.64620629738e-13
1.75401042456e-11
1.99250502311e-10
1.08420570586e-09
2.42532183617e-11
2.19105500346e-10
1.19249317634e-09
2.62345914841e-11
2.38139640872e-10
1.29411463597e-09
2.29324359389e-11
2.54132990014e-10
1.38165317974e-09
1.49892344541e-11
2.6599486801e-10
1.44898808434e-09
3.92709805744e-12
2.73327830868e-10
1.49183329766e-09
-8.20888217514e-12
2.7593986724e-10
1.50704959301e-09
-1.92074524326e-11
2.73429074843e-10
1.4915964645e-09
-2.70138437526e-11
2.66204291218e-10
1.44852477057e-09
-3.0088185272e-11
2.54462437808e-10
1.38098153855e-09
-2.77703553976e-11
2.38579363957e-10
1.29325636449e-09
-2.06260535524e-11
2.19592614804e-10
1.19146486707e-09
-1.07910734126e-11
1.99678984983e-10
1.08298846723e-09
1.83639698585e-10
9.75505117111e-10
-2.22870215796e-12
1.1972515902e-11
2.22880897499e-10
1.21352795345e-09
-1.93074271884e-13
2.45873443144e-11
2.39439944023e-10
1.34608540216e-09
3.36675329589e-11
2.61583863565e-10
1.48001351428e-09
3.6398702827e-11
2.83449681283e-10
1.60581468989e-09
3.18604539927e-11
3.02078458604e-10
1.71428172069e-09
2.08125603925e-11
3.15993002423e-10
1.79776884946e-09
5.33492194418e-12
3.24622083674e-10
1.85088550677e-09
-1.16715544894e-11
3.27692629198e-10
1.86970793355e-09
-2.70357037256e-11
3.24732159447e-10
1.85056283173e-09
-3.78486516401e-11
3.16217705719e-10
1.79713874832e-09
-4.20189019604e-11
3.02423971854e-10
1.7133708622e-09
-3.87780267762e-11
2.83899631833e-10
1.60465586994e-09
-2.90679385693e-11
2.62077644131e-10
1.47863556972e-09
-1.57406155976e-11
2.39847757489e-10
1.34447747953e-09
2.22966040089e-10
1.21159649641e-09
-3.23562406101e-12
1.50987033514e-11
2.38914052447e-10
1.37441619016e-09
-2.11648851171e-13
3.01499905559e-11
2.53742545215e-10
1.52388977963e-09
4.09475366247e-11
2.75283307794e-10
1.67485379757e-09
4.41903887675e-11
2.97457691407e-10
1.81674675557e-09
3.86575325191e-11
3.16771320764e-10
1.9391775729e-09
2.51629598368e-11
3.31388266305e-10
2.03346082493e-09
6.20555681764e-12
3.40515226807e-10
2.09343199341e-09
-1.46376194176e-11
3.43756561886e-10
2.11463325263e-09
-3.34278360526e-11
3.40601897068e-10
2.09302988359e-09
-4.6583183864e-11
3.31565160151e-10
2.03267719812e-09
-5.1602158015e-11
3.17041458125e-10
1.93804844271e-09
-4.7673645327e-11
2.9780404419e-10
1.81531760465e-09
-3.6050371252e-11
2.75655085597e-10
1.6731687539e-09
-2.0079528695e-11
2.54009158761e-10
1.52195116075e-09
2.38866115149e-10
1.37213906382e-09
-4.27158876104e-12
1.71724599812e-11
2.33044231494e-10
1.46935942149e-09
-2.23999414519e-13
3.3561268859e-11
2.44300683937e-10
1.6285272111e-09
4.52307750261e-11
2.6293653791e-10
1.78913499955e-09
4.86690096574e-11
2.83331167311e-10
1.94013560758e-09
4.24723740859e-11
3.0167248082e-10
2.07048986943e-09
2.7458216989e-11
3.15831831361e-10
2.17090950484e-09
6.36071546875e-12
3.247674448e-10
2.23475899311e-09
-1.6832911874e-11
3.27930345404e-10
2.25727271287e-09
-3.77111853321e-11
3.24796907354e-10
2.23428421062e-09
-5.22855936474e-11
3.15895451038e-10
2.16998620827e-09
-5.78289269014e-11
3.01774066628e-10
2.06916413576e-09
-5.35391867429e-11
2.83459598893e-10
1.93846697201e-09
-4.08612335117e-11
2.63058899235e-10
1.78718507127e-09
-2.33638128403e-11
2.44300835097e-10
1.62631344087e-09
2.32767801984e-10
1.46680703618e-09
-5.30742843586e-12
1.79547265328e-11
2.09226295411e-10
1.50755143819e-09
-2.32364749808e-13
3.4459246057e-11
2.15875465247e-10
1.67037221554e-09
4.60695409125e-11
2.30092231267e-10
1.83442352279e-09
4.9356903574e-11
2.4720778858e-10
1.98864257973e-09
4.28780857352e-11
2.63314085176e-10
2.12180122046e-09
2.74127610112e-11
2.76095966054e-10
2.22439303349e-09
5.72637861966e-12
2.842796957e-10
2.28958457296e-09
-1.80951291539e-11
2.87159231593e-10
2.31250397218e-09
-3.95164196501e-11
2.8421942125e-10
2.28904415898e-09
-5.44536126259e-11
2.75983449944e-10
2.22334427408e-09
-6.01567710762e-11
2.63159048493e-10
2.12030070289e-09
-5.58731933115e-11
2.47011367599e-10
1.98676481092e-09
-4.30949792554e-11
2.29846801013e-10
1.83224877373e-09
-2.53171396147e-11
2.15488459567e-10
1.66793286602e-09
2.08615559066e-10
1.50478263439e-09
-6.31704953183e-12
1.73741821651e-11
1.72712877026e-10
1.49779595166e-09
-2.38039540467e-13
3.27831891162e-11
1.74494896793e-10
1.65937964389e-09
4.34297483946e-11
1.8358870717e-10
1.82184104152e-09
4.62410478444e-11
1.96537203135e-10
1.97446221782e-09
3.98755477778e-11
2.09559114061e-10
2.10620740663e-09
2.50404564378e-11
2.20290831982e-10
2.20768592701e-09
4.33232645512e-12
2.27292087302e-10
2.27211126786e-09
-1.83779534951e-11
2.29729174691e-10
2.29468411636e-09
-3.87847080373e-11
2.27115703674e-10
2.27151245742e-09
-5.30215550199e-11
2.19951121992e-10
2.20652600697e-09
-5.85143322179e-11
2.09075187492e-10
2.10455351131e-09
-5.45916820084e-11
1.95926967426e-10
1.972404164e-09
-4.26500109039e-11
1.82872815319e-10
1.81947800349e-09
-2.58328256921e-11
1.73614415409e-10
1.6567574341e-09
1.71656591655e-10
1.49485996773e-09
-7.27354429081e-12
1.55062636804e-11
1.29115738586e-10
1.44855516099e-09
-2.43023689769e-13
2.8736842985e-11
1.26428030001e-10
1.6051346915e-09
3.76408707629e-11
1.30402026316e-10
1.76210218597e-09
3.97195316639e-11
1.38851874954e-10
1.90933849449e-09
3.38453580732e-11
1.48328822665e-10
2.03630982825e-09
2.0621262787e-11
1.56576010658e-10
2.13403107948e-09
2.29945370068e-12
1.62091267516e-10
2.19598459639e-09
-1.7741084268e-11
1.63971994153e-10
2.21760355856e-09
-3.57369290046e-11
1.61779983722e-10
2.19533474976e-09
-4.83149902672e-11
1.55972585632e-10
2.13277417932e-09
-5.32500843247e-11
1.47463844864e-10
2.03452308608e-09
-4.99806779967e-11
1.37762780752e-10
1.90712674378e-09
-3.96919915564e-11
1.29137674677e-10
1.75958299598e-09
-2.49551617503e-11
1.24966495407e-10
1.60236517528e-09
1.27515151198e-10
1.44549269454e-09
-8.15204161828e-12
1.25475392843e-11
8.37152466076e-11
1.36797468604e-09
-2.47387360432e-13
2.273859189e-11
7.74225153472e-11
1.5168801899e-09
2.93277501e-11
7.68089316356e-11
1.66552791603e-09
3.05225181153e-11
8.08808516197e-11
1.8045547909e-09
2.54730739914e-11
8.66963471648e-11
1.92418147305e-09
1.46472395856e-11
9.22550333107e-11
2.01608668447e-09
-1.80952430145e-13
9.61114532354e-11
2.0742282025e-09
-1.63330162794e-11
9.73699814022e-11
2.09441723031e-09
-3.08229780686e-11
9.56562920581e-11
2.07353477881e-09
-4.09787879636e-11
9.13699755542e-11
2.01474676028e-09
-4.50554696535e-11
8.54236363068e-11
1.92228127564e-09
-4.26291822316e-11
7.92764267251e-11
1.80221325679e-09
-3.46069535589e-11
7.49472930567e-11
1.66288002411e-09
-2.28517151307e-11
7.53181826144e-11
1.51399207012e-09
8.14849955524e-11
1.36481864039e-09
-8.93064884906e-12
8.781264434e-12
4.09651781792e-11
1.2639037067e-09
-2.52481672922e-13
1.53677772903e-11
3.21776416073e-11
1.40354137106e-09
1.93354840099e-11
2.78261033457e-11
1.54205322677e-09
1.96223453826e-11
2.79773117688e-11
1.67091586463e-09
1.5661950432e-11
3.0318247083e-11
1.78132621197e-09
7.75795727687e-12
3.32125867815e-11
1.86587024924e-09
-2.87179778374e-12
3.53790441163e-11
1.91917972534e-09
-1.43696837358e-11
3.60009687568e-11
1.93757791602e-09
-2.46605526256e-11
3.47808432496e-11
1.91845029488e-09
-3.18932753201e-11
3.20461443711e-11
1.86446116558e-09
-3.48789360802e-11
2.8636427789e-11
1.77933089682e-09
-3.33574199935e-11
2.5851772085e-11
1.66846583609e-09
-2.79493712315e-11
2.53513025696e-11
1.53929982046e-09
-1.97830646156e-11
2.93992666714e-11
1.40055789453e-09
3.80469838771e-11
1.26068037017e-09
-9.59068663991e-12
4.54053949148e-12
4.19876029137e-12
1.14392043867e-09
-2.57381035464e-13
7.31535199503e-12
-5.98573686985e-12
1.27375182049e-09
8.66028496077e-12
-1.31123655171e-11
1.4012237362e-09
8.145158424e-12
-1.61837813442e-11
1.51871305669e-09
5.44064278678e-12
-1.68562680333e-11
1.61862426249e-09
6.71050839309e-13
-1.63680485773e-11
1.69469544768e-09
-5.51784886396e-12
-1.57706654579e-11
1.74242501398e-09
-1.21107630694e-11
-1.57416294178e-11
1.75877010108e-09
-1.79701424999e-11
-1.65028320142e-11
1.74166770906e-09
-2.20864525839e-11
-1.77985218325e-11
1.693231646e-09
-2.38415868011e-11
-1.892534732e-11
1.61655192641e-09
-2.31520032693e-11
-1.88082827331e-11
1.51617398897e-09
-2.03969381291e-11
-1.61855866461e-11
1.39838508934e-09
-1.60660420579e-11
-9.4376329209e-12
1.2706943051e-09
5.60319493726e-13
1.14065320987e-09
-1.01196645604e-11
1.78097972921e-13
-2.45189116763e-11
1.0153649492e-09
-2.61864391082e-13
-6.37383729623e-13
-3.53001120832e-11
1.13585728075e-09
-1.59869425482e-12
-4.42564481956e-11
1.2521390377e-09
-2.7115235427e-12
-4.96479025167e-11
1.35763073517e-09
-4.12913455054e-12
-5.26139259874e-11
1.44622992514e-09
-5.89162998038e-12
-5.40466589e-11
1.51307558961e-09
-7.87301869494e-12
-5.4740674011e-11
1.5547093706e-09
-9.83682139862e-12
-5.52067837569e-11
1.56882419393e-09
-1.15050892728e-11
-5.55894763917e-11
1.55393323564e-09
-1.26472730003e-11
-5.57102014759e-11
1.51157313214e-09
-1.31611012835e-11
-5.50288279455e-11
1.4441000246e-09
-1.31244052958e-11
-5.27270882827e-11
1.35502170078e-09
-1.27342384343e-11
-4.78875066227e-11
1.24923400204e-09
-1.20494095065e-11
-3.94001955566e-11
1.13275064594e-09
-2.88839619368e-11
1.01208710991e-09
-1.05056628845e-11
-3.87169939576e-12
-4.44821815525e-11
8.85358652797e-10
-2.65181240276e-13
-7.52120486522e-12
-5.56131054792e-11
9.97804307919e-10
-1.02212434476e-11
-6.53831188303e-11
1.10323472203e-09
-1.17403175472e-11
-7.19594547216e-11
1.19651070455e-09
-1.20435187722e-11
-7.62726622807e-11
1.27336362466e-09
-1.12741021903e-11
-7.89543784456e-11
1.3305511956e-09
-9.73096532972e-12
-8.05403530338e-11
1.36579054503e-09
-7.82043836028e-12
-8.1354712721e-11
1.37757870286e-09
-5.98615488711e-12
-8.14841846672e-11
1.36500658649e-09
-4.63856825385e-12
-8.08091328221e-11
1.32902999853e-09
-4.09724469991e-12
-7.89782892303e-11
1.27120027065e-09
-4.53609708303e-12
-7.54314484392e-11
1.19385322764e-09
-5.96122221101e-12
-6.95155103992e-11
1.10028015802e-09
-8.18423705578e-12
-6.03194981622e-11
9.94678247191e-10
-4.95557563278e-11
8.82127552998e-10
-1.07600986586e-11
-6.61646925441e-12
7.60564521912e-10
-2.68857015302e-13
-5.63677942957e-11
-1.17783505048e-11
8.66479567902e-10
-6.78375887586e-11
-1.57737427533e-11
9.61576979519e-10
-7.69079202198e-11
-1.77659724743e-11
1.04278499426e-09
-8.34640257222e-11
-1.74264286435e-11
1.10790302304e-09
-8.82205217406e-11
-1.49452055971e-11
1.15540643426e-09
-9.15068124638e-11
-1.09394571645e-11
1.18423199e-09
-9.35868851606e-11
-6.30877389409e-12
1.19369967946e-09
-9.46067620817e-11
-2.03317490108e-12
1.18345704901e-09
-9.46037039661e-11
9.83536008516e-13
1.15389865478e-09
-9.35130082009e-11
2.10904869899e-12
1.10574920597e-09
-9.11641704045e-11
1.12730409292e-12
1.04012233022e-09
-8.72728017384e-11
-1.66403734039e-12
9.58607942714e-10
-8.14884489892e-11
-5.47635243215e-12
8.63333754441e-10
-7.3106667094e-11
7.57527514833e-10
-1.08625676792e-11
-6.21534647299e-11
1.61605016901e-12
-2.19950284474e-11
2.61453294102e-10
-3.06255403669e-14
2.48853083838e-12
-2.46775542866e-11
2.91578493042e-10
2.86982761933e-12
-2.7585636522e-11
3.21904675401e-10
2.81439553144e-12
-3.02902369838e-11
3.5028886409e-10
2.33475594857e-12
-3.26246196091e-11
3.74699358072e-10
1.50869441552e-12
-3.44124939484e-11
3.93460738548e-10
4.55448042289e-13
-3.55399470575e-11
4.05405214681e-10
-6.77893132284e-13
-3.59299195561e-11
4.09666677076e-10
-1.72690674484e-12
-3.5510923683e-11
4.05355895726e-10
-2.54551160884e-12
-3.43613505857e-11
3.9336386524e-10
-3.01831320476e-12
-3.2562225139e-11
3.74557947177e-10
-3.07025587879e-12
-3.02230821475e-11
3.50106339056e-10
-2.6668888832e-12
-2.749908006e-11
3.21682829398e-10
-1.77199126718e-12
-2.46086059597e-11
2.91309639124e-10
-2.19474706907e-11
2.61100040273e-10
-1.56252762529e-13
3.77775886133e-12
-4.86924441547e-11
6.77185692778e-10
-7.90015578777e-14
6.06193663058e-12
-5.41470152846e-11
7.53444554376e-10
7.12734952804e-12
-6.00660976797e-11
8.30452367714e-10
7.04509917512e-12
-6.56303358139e-11
9.02710693629e-10
5.86522427417e-12
-7.04125173131e-11
9.6496814026e-10
3.77885042952e-12
-7.40664558517e-11
1.01287763428e-09
1.0940332661e-12
-7.63688386497e-11
1.04338961132e-09
-1.80110365073e-12
-7.71651828375e-11
1.05425244098e-09
-4.47279241386e-12
-7.63040105452e-11
1.04324294001e-09
-6.53505616448e-12
-7.3949192704e-11
1.01258991898e-09
-7.68715919082e-12
-7.02638792219e-11
9.64548935483e-10
-7.73891900623e-12
-6.54667190021e-11
9.02171085495e-10
-6.61129468228e-12
-5.9879861725e-11
8.2979905407e-10
-4.25093901978e-12
-5.3987933288e-11
7.52658385639e-10
-4.85879935009e-11
6.76190233094e-10
-4.64709850533e-13
5.09964340717e-12
-6.86646729599e-11
9.91796547708e-10
-1.14270064054e-13
8.38413327469e-12
-7.58338312926e-11
1.10237599793e-09
9.99080903777e-12
-8.36359270228e-11
1.21422310207e-09
9.9393269628e-12
-9.10401484858e-11
1.31935646303e-09
8.29690590132e-12
-9.74058111719e-11
1.41007213837e-09
5.32574679955e-12
-1.02268268715e-10
1.47995355785e-09
1.47041384809e-12
-1.05331371127e-10
1.5244647979e-09
-2.6950569243e-12
-1.06391035097e-10
1.54027757346e-09
-6.52735072432e-12
-1.0524620602e-10
1.5242261073e-09
-9.45514112412e-12
-1.02113808319e-10
1.47948590074e-09
-1.10415263305e-11
-9.72096372915e-11
1.40939216398e-09
-1.10236610255e-11
-9.08266366249e-11
1.31848412118e-09
-9.31112699394e-12
-8.34085773784e-11
1.21317308881e-09
-5.89611535508e-12
-7.56430183444e-11
1.10112759062e-09
-6.85546675505e-11
9.90253707876e-10
-7.70849471288e-13
5.86299971556e-12
-8.25167410307e-11
1.22147673398e-09
-1.40698149589e-13
9.82719446584e-12
-9.06361001165e-11
1.35672067366e-09
1.18587484756e-11
-9.94666972653e-11
1.49360453569e-09
1.18815057507e-11
-1.0788657462e-10
1.62243676256e-09
9.94844230324e-12
-1.15123130886e-10
1.73373545075e-09
6.36124152835e-12
-1.20645500135e-10
1.81954738159e-09
1.66352281215e-12
-1.24123555745e-10
1.87420714975e-09
-3.42316343021e-12
-1.25329543428e-10
1.89358333947e-09
-8.08683221426e-12
-1.2403723874e-10
1.87388317676e-09
-1.16089763719e-11
-1.20489175222e-10
1.8189135092e-09
-1.34529568942e-11
-1.14925064715e-10
1.73281601812e-09
-1.33174241379e-11
-1.07675916686e-10
1.62126197132e-09
-1.11336411199e-11
-9.92587685187e-11
1.49220045564e-09
-6.98928441402e-12
-9.04779944534e-11
1.3550739765e-09
-8.24457318506e-11
1.21949028632e-09
-1.07705756705e-12
6.22669608572e-12
-9.09496515702e-11
1.37661829875e-09
-1.60203066335e-13
1.06011688466e-11
-9.94948380887e-11
1.52820213863e-09
1.29296610899e-11
-1.08740538845e-10
1.68161620744e-09
1.30365725694e-11
-1.17558631152e-10
1.82613431536e-09
1.09415886884e-11
-1.25128502008e-10
1.95110390945e-09
6.96177729722e-12
-1.30894635612e-10
2.04752398608e-09
1.70678219371e-12
-1.34522896429e-10
2.10893449679e-09
-3.99413218796e-12
-1.35786333642e-10
2.13065393554e-09
-9.20364135654e-12
-1.34454281259e-10
2.10853227539e-09
-1.30957672163e-11
-1.307723989e-10
2.04673823158e-09
-1.50677663177e-11
-1.24978755509e-10
1.94996733227e-09
-1.48052937477e-11
-1.17410337351e-10
1.82468885479e-09
-1.22795339977e-11
-1.08612791241e-10
1.67990235199e-09
-7.68000294429e-12
-9.94330443102e-11
1.52621911829e-09
-9.0966970196e-11
1.37427704457e-09
-1.37714406943e-12
6.30760808841e-12
-9.48113030493e-11