/*--------------------------------*- C++ -*----------------------------------*\
  =========                 |
  \\      /  F ield         | OpenFOAM: The Open Source CFD Toolbox
   \\    /   O peration     | Website:  https://openfoam.org
    \\  /    A nd           | Version:  7
     \\/     M anipulation  |
\*---------------------------------------------------------------------------*/
FoamFile
{
    version     2.0;
    format      ascii;
    class       surfaceScalarField;
    location    "0.08";
    object      phi;
}
// * * * * * * * * * * * * * * * * * * * * * * * * * * * * * * * * * * * * * //

dimensions      [0 3 -1 0 0 0 0];

internalField   nonuniform List<scalar> 
65775
(
-2.2756368154e-11
-7.67719471044e-10
-1.80611318896e-10
1.11619142316e-13
-3.96320791697e-11
-8.01580132549e-10
-2.02708794901e-10
-4.8448350488e-11
-8.31892470176e-10
-2.25649581411e-10
-4.8617124226e-11
-8.57676066516e-10
-2.47488873293e-10
-4.08978406925e-11
-8.7805953157e-10
-2.66464146651e-10
-2.6910065747e-11
-8.92816905631e-10
-2.81139759317e-10
-8.8884315103e-12
-9.02058317692e-10
-2.90512485708e-10
1.05338823383e-11
-9.05583172499e-10
-2.93858674657e-10
2.85281891259e-11
-9.02099220341e-10
-2.90504043549e-10
4.24668543571e-11
-8.92898906493e-10
-2.81122857738e-10
5.01182340708e-11
-8.78185646312e-10
-2.66438066685e-10
4.98708612135e-11
-8.57845864888e-10
-2.47451104663e-10
4.09675597769e-11
-8.32105044225e-10
-2.25593163558e-10
2.40145991553e-11
-8.01809217305e-10
-2.0261245853e-10
-7.67728674251e-10
-1.80414874509e-10
1.06262423993e-12
-5.7599289229e-11
-1.18483750714e-09
-4.50404761699e-10
2.38754358268e-13
-1.03158811284e-10
-1.22685757934e-09
-5.04020553234e-10
-1.27871701843e-10
-1.26668468728e-09
-5.60256659543e-10
-1.29573871177e-10
-1.30022319206e-09
-6.14172974951e-10
-1.09674396419e-10
-1.32633559221e-09
-6.61236501614e-10
-7.23833832855e-11
-1.34491367009e-09
-6.97744707699e-10
-2.38361335988e-11
-1.3564748554e-09
-7.21093778873e-10
2.86044805146e-11
-1.36095459763e-09
-7.29418599824e-10
7.70754586222e-11
-1.35655655173e-09
-7.21068417992e-10
1.14224735647e-10
-1.34508181431e-09
-6.97694303939e-10
1.33926312933e-10
-1.32659949215e-09
-6.61158868156e-10
1.31980583357e-10
-1.30059002494e-09
-6.14060730902e-10
1.06990264264e-10
-1.2671586744e-09
-5.60089803229e-10
6.10761132666e-11
-1.22734988534e-09
-5.03739894083e-10
-1.18486173267e-09
-4.49873481325e-10
2.97060311041e-12
-8.25384788959e-11
-1.34172059558e-09
-6.39854295889e-10
3.10414754338e-13
-1.49200880845e-10
-1.37411171244e-09
-7.14849614221e-10
-1.86316421238e-10
-1.40884837684e-09
-7.9411562281e-10
-1.89818319583e-10
-1.43790798523e-09
-8.70540195797e-10
-1.61219634161e-10
-1.4600347416e-09
-9.37511274279e-10
-1.06551088312e-10
-1.47528279713e-09
-9.89594977201e-10
-3.49465888013e-11
-1.48465388204e-09
-1.02294073721e-09
4.25158510308e-11
-1.48839909886e-09
-1.03481249878e-09
1.1400320374e-10
-1.48474208338e-09
-1.02290047029e-09
1.68450269968e-10
-1.47547093081e-09
-9.89515055856e-10
1.96734763084e-10
-1.46034109989e-09
-9.37388182694e-10
1.92834277223e-10
-1.43835171521e-09
-8.7036263341e-10
1.55245485105e-10
-1.40944415526e-09
-7.93854400061e-10
8.79477972806e-11
-1.37470304901e-09
-7.14420853503e-10
-1.34167571052e-09
-6.39071690342e-10
4.65482759359e-12
-9.96122495313e-11
-1.30996368761e-09
-7.65543683951e-10
3.56853510165e-13
-1.80738558963e-10
-1.32162500842e-09
-8.54039206654e-10
-2.26918075087e-10
-1.34150432205e-09
-9.48194707736e-10
-2.3213134092e-10
-1.35828349553e-09
-1.03944886853e-09
-1.97687509307e-10
-1.37037602261e-09
-1.11971466822e-09
-1.30770571325e-10
-1.37794843075e-09
-1.18229338667e-09
-4.26782658434e-11
-1.3824137577e-09
-1.22240024187e-09
5.27445046547e-11
-1.38440059064e-09
-1.2366600235e-09
1.40684666164e-10
-1.38247486143e-09
-1.22234823464e-09
2.07310094378e-10
-1.37809073376e-09
-1.18219030365e-09
2.41333797831e-10
-1.37062654683e-09
-1.11955585788e-09
2.35577879718e-10
-1.35867279981e-09
-1.03922049589e-09
1.88735377492e-10
-1.34206098077e-09
-9.47862863382e-10
1.06732613464e-10
-1.32214030999e-09
-8.5350816293e-10
-1.30975571947e-09
-7.64604268371e-10
6.17030596464e-12
-1.0999390931e-10
-1.15001934174e-09
-8.37463879213e-10
3.86806109979e-13
-2.00082318349e-10
-1.13517934132e-09
-9.3294854924e-10
-2.52293285113e-10
-1.13476757081e-09
-1.03518979521e-09
-2.58975799659e-10
-1.13514745548e-09
-1.13480012949e-09
-2.21046021472e-10
-1.1341653155e-09
-1.22275252553e-09
-1.46299005339e-10
-1.13198351069e-09
-1.29150118446e-09
-4.74490835803e-11
-1.13027382522e-09
-1.33561049626e-09
5.97539247981e-11
-1.13001528465e-09
-1.35127260379e-09
1.58420632675e-10
-1.13027677062e-09
-1.33554921128e-09
2.3281291978e-10
-1.13201656373e-09
-1.29137989371e-09
2.70224953547e-10
-1.13426361373e-09
-1.22256608789e-09
2.62866432879e-10
-1.13535135827e-09
-1.1345340976e-09
2.09819636675e-10
-1.13512096943e-09
-1.03480990636e-09
1.18653448862e-10
-1.13544275614e-09
-9.32355813567e-10
-1.14952648687e-09
-8.36441891969e-10
7.55537479083e-12
-1.14809034711e-10
-9.11957692176e-10
-8.64869101857e-10
4.06052781126e-13
-2.09258674364e-10
-8.69129591718e-10
-9.62099363907e-10
-2.64791131337e-10
-8.46641986913e-10
-1.06689106707e-09
-2.72584897975e-10
-8.29466634243e-10
-1.16953988824e-09
-2.33090741536e-10
-8.14732345665e-10
-1.26053773655e-09
-1.54283721693e-10
-8.02466108805e-10
-1.33185877608e-09
-4.9636748332e-11
-7.94422029762e-10
-1.37767038445e-09
6.3976613121e-11
-7.91841741134e-10
-1.39391422465e-09
1.68411713673e-10
-7.94336343658e-10
-1.37760103856e-09
2.46804839062e-10
-8.02327749193e-10
-1.33172193187e-09
2.85689918527e-10
-8.14582332055e-10
-1.26032875198e-09
2.77096544752e-10
-8.29354909893e-10
-1.16924578882e-09
2.205747022e-10
-8.46627299503e-10
-1.06648105284e-09
1.24878310186e-10
-8.68970010915e-10
-9.61475997505e-10
-9.11041895116e-10
-8.63814868649e-10
8.83286119671e-12
-1.1501471689e-10
-6.36418670964e-10
-8.56235987954e-10
4.18210087871e-13
-2.09943468072e-10
-5.67490951026e-10
-9.51118147769e-10
-2.66379570124e-10
-5.24043124509e-10
-1.05408952357e-09
-2.74846816676e-10
-4.90429478726e-10
-1.1555269742e-09
-2.35346603266e-10
-4.63016119753e-10
-1.2458239939e-09
-1.55699922793e-10
-4.41599404937e-10
-1.3167920675e-09
-4.95606992769e-11
-4.27855294368e-10
-1.362428309e-09
6.57831094583e-11
-4.23171612928e-10
-1.37858468256e-09
1.71682995794e-10
-4.27653009502e-10
-1.36235078829e-09
2.50859158196e-10
-4.41231451111e-10
-1.31663973249e-09
2.89663559406e-10
-4.62527413022e-10
-1.24559386747e-09
2.80282025536e-10
-4.89878994338e-10
-1.1552096129e-09
2.22718816626e-10
-5.23506157979e-10
-1.05366050792e-09
1.26397644805e-10
-5.66739675917e-10
-9.50483837528e-10
-6.34929679192e-10
-8.55181041625e-10
1.00261627973e-11
-1.11338129499e-10
-3.55613309007e-10
-8.19267237884e-10
4.24553262124e-13
-2.03413863743e-10
-2.64988122388e-10
-9.08738768106e-10
-2.58583664936e-10
-2.03854998294e-10
-1.00656932384e-09
-2.6723954759e-10
-1.56521463488e-10
-1.10350937962e-09
-2.2901522964e-10
-1.18676991251e-10
-1.19016461484e-09
-1.51317698543e-10
-8.98626300306e-11
-1.25845509898e-09
-4.74723015603e-11
-7.15578276784e-11
-1.30241374436e-09
6.54682760406e-11
-6.51773695136e-11
-1.31794746828e-09
1.69047550577e-10
-7.12140681638e-11
-1.30232639954e-09
2.46219734414e-10
-8.92127684911e-11
-1.25828429631e-09
2.83665170999e-10
-1.1776813489e-10
-1.18991029816e-09
2.73987480829e-10
-1.55420357035e-10
-1.10316746936e-09
2.17565206101e-10
-2.02654589652e-10
-1.00612394642e-09
1.23964727828e-10
-2.63487393124e-10
-9.0810081051e-10
-3.53395470159e-10
-8.18226737312e-10
1.11533707296e-11
-1.04305099205e-10
-9.42384265747e-11
-7.60951950965e-10
4.26694744849e-13
-1.90587035276e-10
1.19555165973e-11
-8.42872718529e-10
-2.42512096957e-10
8.60759935853e-11
-9.33177609808e-10
-2.50852804067e-10
1.43452592684e-10
-1.0231874865e-09
-2.14993052492e-10
1.88837287611e-10
-1.10396736221e-09
-1.41715419186e-10
2.228845631e-10
-1.16778615985e-09
-4.35604387334e-11
2.44365945967e-10
-1.20889771271e-09
6.32558090712e-11
2.51943897661e-10
-1.22339207652e-09
1.61118434826e-10
2.44871396711e-10
-1.20879725097e-09
2.33817216109e-10
2.2385899677e-10
-1.16759062788e-09
2.68818268564e-10
1.90234196592e-10
-1.10368064167e-09
2.59353545549e-10
1.45198387866e-10
-1.02281261853e-09
2.06058775581e-10
8.80616276359e-11
-9.32708918724e-10
1.18126129369e-10
1.43475527677e-11
-8.42225735517e-10
-9.11408023679e-11
-7.59926180279e-10
1.22293990839e-11
-9.42697867184e-11
1.29727328391e-10
-6.87653970508e-10
4.25360387565e-13
-1.72076784154e-10
2.44402172365e-10
-7.60745897614e-10
-2.18934334349e-10
3.26140830588e-10
-8.41994240015e-10
-2.26475928797e-10
3.89551395874e-10
-9.23404469534e-10
-1.93950716504e-10
4.39431120643e-10
-9.96700705892e-10
-1.27335381742e-10
4.7648534975e-10
-1.05471574532e-09
-3.7971071439e-11
4.99734741637e-10
-1.09209814319e-09
5.9318610145e-11
5.07997333552e-10
-1.10523859834e-09
1.48364711418e-10
5.0041561442e-10
-1.09197961074e-09
2.1434884793e-10
4.77814178815e-10
-1.05448587023e-09
2.45937786744e-10
4.41364743238e-10
-9.96368056429e-10
2.37173517913e-10
3.92013196309e-10
-9.22980731779e-10
1.8883283794e-10
3.29008000818e-10
-8.41485415179e-10
1.09250803155e-10
2.47804406728e-10
-7.60072359095e-10
1.33841054614e-10
-6.86629581851e-10
1.32667645438e-11
-8.14375720042e-11
3.04393881912e-10
-6.05257134042e-10
4.21554500312e-13
-1.48255283921e-10
4.20274782251e-10
-6.69053382013e-10
-1.88390692527e-10
5.04353968544e-10
-7.40476211879e-10
-1.94729963956e-10
5.70024730022e-10
-8.12270827494e-10
-1.66457784194e-10
6.21589752474e-10
-8.76998487184e-10
-1.08570384937e-10
6.59619633854e-10
-9.28256793733e-10
-3.08384463611e-11
6.83354024719e-10
-9.6126143609e-10
5.38094213051e-11
6.91831037988e-10
-9.72816420426e-10
1.3119741927e-10
6.84216324443e-10
-9.61118304354e-10
1.88401809052e-10
6.61317428813e-10
-9.27979729214e-10
2.15661376323e-10
6.24086517691e-10
-8.76601341036e-10
2.08001595509e-10
5.73245938334e-10
-8.11775048692e-10
1.66269695885e-10
5.08168976143e-10
-7.39901173665e-10
9.75521020132e-11
4.24775544727e-10
-6.68325384596e-10
3.09631014503e-10
-6.04209332538e-10
1.42753456549e-11
-6.58677931766e-11
4.23423445209e-10
-5.19259016939e-10
4.13818398572e-13
-1.19347923679e-10
5.33913532173e-10
-5.74046003866e-10
-1.51372396994e-10
6.15880947144e-10
-6.35509314811e-10
-1.56278007126e-10
6.80689042887e-10
-6.97181787651e-10
-1.33166805169e-10
7.31582011025e-10
-7.52654004641e-10
-8.58884159637e-11
7.68866649903e-10
-7.96495979075e-10
-2.2328413792e-11
7.91999274111e-10
-8.24658769816e-10
4.69029603371e-11
8.00286931463e-10
-8.34463155546e-10
1.10092950961e-10
7.9304161352e-10
-8.24483741078e-10
1.56635789984e-10
7.70931699742e-10
-7.96156874217e-10
1.78657092924e-10
7.34644074268e-10
-7.52169854778e-10
1.7233082408e-10
6.84683059271e-10
-6.96584505757e-10
1.38591689308e-10
6.20677726901e-10
-6.34834110021e-10
8.30832599883e-11
5.3956660556e-10
-5.73228481732e-10
4.29850704935e-10
-5.18155355413e-10
1.52589720556e-11
-4.74433126266e-11
4.8554883492e-10
-4.34838779349e-10
3.99156815976e-13
-8.56446206214e-11
5.85936169059e-10
-4.81595072331e-10
-1.08695409337e-10
6.62765357092e-10
-5.33445468238e-10
-1.12211321121e-10
7.24346001616e-10
-5.84848251721e-10
-9.5123561186e-11
7.72628867455e-10
-6.30666653853e-10
-6.00251115785e-11
8.07722799792e-10
-6.66656272294e-10
-1.27058654991e-11
8.29340988639e-10
-6.89659468102e-10
3.88632058578e-11
8.37107236805e-10
-6.97602190507e-10
8.57844147022e-11
8.30555558264e-10
-6.89445863665e-10
1.20092230418e-10
8.1014132577e-10
-6.66240909214e-10
1.36008837867e-10
7.76237481395e-10
-6.30072495099e-10
1.30966242717e-10
7.29097809645e-10
-5.8411702299e-10
1.0607240557e-10
6.68546882388e-10
-5.32631432612e-10
6.57005072685e-11
5.92771605955e-10
-4.80652396102e-10
4.93216038091e-10
-4.33651803236e-10
1.61628885579e-11
-2.61397724289e-11
4.94445003794e-10
-3.56951156423e-10
3.68001482608e-13
-4.84224924941e-11
5.83721469757e-10
-3.97160398741e-10
-6.24458481853e-11
6.53556404323e-10
-4.39982668583e-10
-6.47724193956e-11
7.09857615586e-10
-4.81171502727e-10
-5.42460519939e-11
7.53741985e-10
-5.17148673112e-10
-3.2257898346e-11
7.85342507837e-10
-5.45041812777e-10
-2.41776955652e-12
8.0466674658e-10
-5.62703088161e-10
3.01274410839e-11
8.11632928213e-10
-5.68724608434e-10
5.95387355886e-11
8.06044941314e-10
-5.62447312546e-10
8.06747899579e-11
7.88095676386e-10
-5.44541399875e-10
8.99415351135e-11
7.57865870049e-10
-5.16427647515e-10
8.59742239559e-11
7.15326599395e-10
-4.80277352648e-10
6.99753469798e-11
6.6028784512e-10
-4.38989547304e-10
4.53661802685e-11
5.91747906087e-10
-3.96060449476e-10
5.03340458834e-10
-3.55673364884e-10
1.70276719496e-11
-8.24773048189e-12
-2.90488919825e-10
3.42104096277e-13
4.64945110546e-10
-1.47882332972e-11
-3.25487828147e-10
5.40213965456e-10
-1.89300167208e-11
-3.5979314273e-10
6.00680304724e-10
-1.90147429009e-11
-3.9093033083e-10
6.49608827232e-10
-1.41899396806e-11
-4.17082372525e-10
6.87515502824e-10
-4.7942940946e-12
-4.36846732056e-10
7.14633801085e-10
7.79037028783e-12
-4.4913720006e-10
7.311405997e-10
2.14276447848e-11
-4.53237190055e-10
7.37144400067e-10
3.35440064438e-11
-4.48844461556e-10
7.32685635173e-10
4.20095370131e-11
-4.36268883774e-10
7.17725024564e-10
4.54643625603e-11
-4.16241358908e-10
6.92149706738e-10
4.36042638283e-11
-3.89870955501e-10
6.55772037284e-10
3.73219670224e-11
-3.58603523384e-10
6.08336108218e-10
2.82929522195e-11
-3.24175334348e-10
5.49388894184e-10
-2.89196966282e-10
1.77984941107e-11
4.75085214894e-10
4.95251120905e-13
-9.58601022091e-12
-1.71409616904e-10
3.68540312859e-14
5.80984061116e-13
-1.11504801878e-11
-1.91405753279e-10
5.38768454736e-13
-1.32111382714e-11
-2.1215223123e-10
4.51234654671e-13
-1.52773134079e-11
-2.3190164203e-10
3.60614755924e-13
-1.71427732036e-11
-2.49059248093e-10
2.84175093367e-13
-1.86025366512e-11
-2.62326868609e-10
2.21407018185e-13
-1.95332822222e-11
-2.70798241908e-10
1.60864581201e-13
-1.98643747492e-11
-2.73821234861e-10
9.5434679481e-14
-1.95507233885e-11
-2.70779323178e-10
1.09886476595e-14
-1.86442202547e-11
-2.62289030386e-10
-1.01719918094e-13
-1.72219264532e-11
-2.49002183104e-10
-2.34474029093e-13
-1.53960766771e-11
-2.31823821629e-10
-3.39652539096e-13
-1.33440253017e-11
-2.12048546485e-10
-3.22683104684e-13
-1.12784983425e-11
-1.91258881413e-10
-9.6357456199e-12
-1.71166490327e-10
1.52011479051e-13
1.26098171865e-12
-9.63805583511e-12
-4.5143793e-10
9.77923801947e-14
1.6914713877e-12
-1.19427925336e-11
-5.03285747824e-10
1.69499681157e-12
-1.5682813218e-11
-5.57399810094e-10
1.50541266651e-12
-1.97543012516e-11
-6.09165827353e-10
1.24544415194e-12
-2.35520599925e-11
-6.54300213528e-10
9.81276717123e-13
-2.65774806694e-11
-6.89288510101e-10
7.25967930225e-13
-2.85243698249e-11
-7.11652898699e-10
4.668619327e-13
-2.92199026757e-11
-7.19619387611e-10
1.97183183905e-13
-2.85749706295e-11
-7.11596921006e-10
-1.03381261389e-13
-2.66904994995e-11
-6.89176591219e-10
-4.39538675488e-13
-2.37485307147e-11
-6.54131513436e-10
-7.6318105748e-13
-2.00380518856e-11
-6.08936135241e-10
-9.41519374486e-13
-1.60070186453e-11
-5.57095103107e-10
-7.08954653587e-13
-1.22468733666e-11
-5.02858342191e-10
-9.79189884568e-12
-4.50770339098e-10
4.79464720358e-13
1.89753767747e-12
5.35957231748e-12
-6.56631669015e-10
1.42240720692e-13
2.74800099469e-12
3.8076756058e-12
-7.31112806146e-10
2.90177735651e-12
-3.57745309002e-13
-8.09239310491e-10
2.6775006977e-12
-5.479061463e-12
-8.84283512128e-10
2.26653701692e-12
-1.04928721227e-11
-9.49914389592e-10
1.78501294714e-12
-1.45900516749e-11
-1.00089799967e-09
1.27456963352e-12
-1.72579114775e-11
-1.03351383046e-09
7.4243015837e-13
-1.82128976664e-11
-1.04511387258e-09
2.01070847299e-13
-1.73443837221e-11
-1.03342306034e-09
-3.52989707945e-13
-1.47744999397e-11
-1.00071669804e-09
-8.99326957299e-13
-1.07944772599e-11
-9.49641621539e-10
-1.34160781958e-12
-5.89579159582e-12
-8.83913663848e-10
-1.47593786289e-12
-8.30612080828e-13
-8.0875325244e-10
-9.38331883477e-13
3.37509276593e-12
-7.30444766986e-10
5.12176892811e-12
-6.55624394025e-10
8.25989407442e-13
2.57629627835e-12
3.14235903588e-11
-7.94113663521e-10
1.77621577652e-13
3.98394489555e-12
3.16610099387e-11
-8.82990583044e-10
4.42919813041e-12
2.8013591004e-11
-9.76691636887e-10
4.24180593303e-12
2.26237385177e-11
-1.06708798406e-09
3.65946614338e-12
1.70050312699e-11
-1.14640428045e-09
2.85338755041e-12
1.22707304766e-11
-1.20815674501e-09
1.92083282733e-12
9.14525677971e-12
-1.24769701199e-09
9.2678117768e-13
8.02355475717e-12
-1.26173803474e-09
-5.70701486284e-14
9.02291180612e-12
-1.24757435809e-09
-9.77585313842e-13
1.20188223799e-11
-1.20791210763e-09
-1.7580281277e-12
1.66127971981e-11
-1.14603732591e-09
-2.24420387455e-12
2.21034643626e-11
-1.06659347867e-09
-2.18281426442e-12
2.74292692465e-11
-9.76049811444e-10
-1.1916986448e-12
3.11309628879e-11
-8.82129296709e-10
3.11102420315e-11
-7.92859887729e-10
1.19036305437e-12
3.36887160688e-12
6.48680860161e-11
-8.74255413765e-10
2.0640347042e-13
5.47904755086e-12
6.75501297545e-11
-9.70668115622e-10
6.34463666637e-12
6.5091942885e-11
-1.07285195122e-09
6.25408965281e-12
6.00475066269e-11
-1.17188658002e-09
5.46607652151e-12
5.43307437994e-11
-1.25908495395e-09
4.21216141502e-12
4.93357205843e-11
-1.32713509762e-09
2.67230155327e-12
4.59854704849e-11
-1.37074891046e-09
1.00872871215e-12
4.4779529931e-11
-1.38621167045e-09
-6.0518338537e-13
4.58310358463e-11
-1.37059692955e-09
-2.01872285914e-12
4.90256995872e-11
-1.32683257595e-09
-3.06903313452e-12
5.3865386577e-11
-1.25863308313e-09
-3.53666362298e-12
5.94498016162e-11
-1.17128262298e-09
-3.1427591821e-12
6.44295105896e-11
-1.07207986941e-09
-1.54402341881e-12
6.69496356383e-11
-9.69656976905e-10
6.44944315e-11
-8.72830025303e-10
1.56706608614e-12
4.32942814125e-12
1.02187723527e-10
-9.06533228165e-10
2.30617370887e-13
7.29707652508e-12
1.0760723692e-10
-1.00487631399e-09
8.70599128092e-12
1.06743776137e-10
-1.10970146836e-09
8.76070469689e-12
1.02471581996e-10
-1.21179631365e-09
7.72034135984e-12
9.70435592314e-11
-1.30202093649e-09
5.88175530847e-12
9.20901195863e-11
-1.37260823448e-09
3.53529488773e-12
8.87065788546e-11
-1.41789200129e-09
9.80433316601e-13
8.74836343906e-11
-1.43391889197e-09
-1.46411833071e-12
8.85252386e-11
-1.41771268909e-09
-3.50901449998e-12
9.17330154747e-11
-1.37225215496e-09
-4.87609120625e-12
9.65228911368e-11
-1.30149191013e-09
-5.27407504937e-12
1.01820647772e-10
-1.21109635183e-09
-4.41956511282e-12
1.06031933088e-10
-1.1088218523e-09
-2.05069366341e-12
1.06963710815e-10
-1.00375141593e-09
1.01766021222e-10
-9.04990466212e-10
1.95298566707e-12
5.48811644848e-12
1.40064392252e-10
-8.99653510796e-10
2.51339967548e-13
9.48508244411e-12
1.48181794709e-10
-9.95472693791e-10
1.1561909601e-11
1.49055786364e-10
-1.09825716891e-09
1.18042751871e-11
1.45794423026e-10
-1.1988942796e-09
1.04546267038e-11
1.4091690508e-10
-1.28817564115e-09
7.88195591483e-12
1.36228654409e-10
-1.35820446933e-09
4.51578761395e-12
1.32959192723e-10
-1.40317250021e-09
8.34133000323e-13
1.31771509885e-10
-1.41905621899e-09
-2.65456025596e-12
1.3275875663e-10
-1.40296711564e-09
-5.4802011127e-12
1.35839883691e-10
-1.35779773836e-09
-7.22001114948e-12
1.40362564991e-10
-1.28757518858e-09
-7.50316614351e-12
1.45116688319e-10
-1.19810891177e-09
-6.05950727358e-12
1.48323136313e-10
-1.09728818063e-09
-2.74409793029e-12
1.47525269585e-10
-9.94261425551e-10
1.39615624828e-10
-8.98032252308e-10
2.34882189536e-12
6.86635501616e-12
1.75473666714e-10
-8.61633502215e-10
2.6918384202e-13
1.20822979125e-11
1.8595185165e-10
-9.51534044497e-10
1.49566840999e-11
1.8847365199e-10
-1.04866781489e-09
1.54251134832e-11
1.86304536357e-10
-1.14431104493e-09
1.36991763715e-11
1.8213573878e-10
-1.22950013207e-09
1.02307385164e-11
1.77874275052e-10
-1.2964895803e-09
5.61869398407e-12
1.7483242783e-10
-1.33954184936e-09
5.61738783868e-13
1.73720456864e-10
-1.35471332587e-09
-4.19688168849e-12
1.74622008564e-10
-1.33931078933e-09
-7.96384016175e-12
1.77471273705e-10
-1.29603336583e-09
-1.01412337004e-11
1.81571947069e-10
-1.22883127469e-09
-1.0268271561e-11
1.85629298166e-10
-1.14344688524e-09
-8.10160498849e-12
1.87753859584e-10
-1.04762152749e-09
-3.64754309344e-12
1.85316132453e-10
-9.50254177431e-10
1.75032727691e-10
-8.59959541942e-10
2.75360701013e-12
8.48340466914e-12
2.05795531528e-10
-7.99881044236e-10
2.8577646518e-13
1.5123150397e-11
2.18056465244e-10
-8.81451297925e-10
1.89292335586e-11
2.21970984237e-10
-9.70312687081e-10
1.96550681221e-11
2.20872817537e-10
-1.05832496588e-09
1.74750849846e-11
2.17510126855e-10
-1.13701982818e-09
1.29384793555e-11
2.1380220948e-10
-1.1990465559e-09
6.84513984586e-12
2.11083072362e-10
-1.23893197514e-09
1.5607735026e-13
2.10081304377e-10
-1.25294685772e-09
-6.10682494831e-12
2.10874028505e-10
-1.23867460761e-09
-1.09852234828e-11
2.13406340715e-10
-1.19853994504e-09
-1.36745282724e-11
2.16966073124e-10
-1.13628224546e-09
-1.36102577727e-11
2.20234416137e-10
-1.05738366228e-09
-1.05826604452e-11
2.2130313161e-10
-9.69193988863e-10
-4.78144932906e-12
2.17484249303e-10
-8.80110551437e-10
2.05404785362e-10
-7.98168275586e-10
3.16621572481e-12
1.03576137949e-11
2.28903828783e-10
-7.21275635618e-10
3.01195367337e-13
1.86369919799e-11
2.42201650597e-10
-7.9302787881e-10
2.35028295858e-11
2.47158339992e-10
-8.71901891624e-10
2.45016198214e-11
2.47062135189e-10
-9.50454635519e-10
2.17768084052e-11
2.44579060034e-10
-1.02091662752e-09
1.59947027669e-11
2.41537625822e-10
-1.07654917362e-09
8.18745428319e-12
2.39229616188e-10
-1.11232361575e-09
-3.84612863639e-13
2.3837018871e-10
-1.12484708721e-09
-8.38284484313e-12
2.39034640482e-10
-1.11203812652e-09
-1.45467454577e-11
2.41172761085e-10
-1.07598883421e-09
-1.78342773921e-11
2.44087548896e-10
-1.02010609959e-09
-1.75580113383e-11
2.46500660463e-10
-9.49432133166e-10
-1.35366193536e-11
2.46588953076e-10
-8.70707887446e-10
-6.16843798811e-12
2.41745028893e-10
-7.91624056134e-10
2.28620911276e-10
-7.19526879942e-10
3.58483860428e-12
1.25055231621e-11
2.43208859542e-10
-6.32252045368e-10
3.1677671717e-13
2.26344512598e-11
2.56721628408e-10
-6.93580218667e-10
2.86571634948e-11
2.62356851195e-10
-7.6157194726e-10
2.99132563016e-11
2.63196218489e-10
-8.29540070543e-10
2.6539220276e-11
2.61665475815e-10
-8.90596387204e-10
1.93452747932e-11
2.59404111044e-10
-9.38820109367e-10
9.62066048137e-12
2.57596316596e-10
-9.69799458983e-10
-1.04902959149e-12
2.56913208184e-10
-9.80589602456e-10
-1.09840886152e-11
2.57429751126e-10
-9.69482870934e-10
-1.85958108548e-11
2.59097401969e-10
-9.38200211908e-10
-2.25802483382e-11
2.61263618371e-10
-8.89704535914e-10
-2.21013501926e-11
2.62756664286e-10
-8.28426237561e-10
-1.69828700243e-11
2.6193875586e-10
-7.60291978653e-10
-7.83143914667e-12
2.56441332068e-10
-6.92102350127e-10
2.43099942361e-10
-6.30460289157e-10
4.00530605272e-12
1.49344443134e-11
2.47689335748e-10
-5.38887171833e-10
3.31597974377e-13
2.7071578649e-11
2.60674994787e-10
-5.90031687702e-10
3.42709610173e-11
2.66713171768e-10
-6.46957543519e-10
3.57179051392e-11
2.6846370075e-10
-7.03790745761e-10
3.15886490431e-11
2.67964975614e-10
-7.54722715204e-10
2.28608771488e-11
2.66592065953e-10
-7.9485893328e-10
1.10923155689e-11
2.65371408955e-10
-8.20570759283e-10
-1.80265961455e-12
2.64896970813e-10
-8.29462011176e-10
-1.37989843923e-11
2.65249678307e-10
-8.20219579921e-10
-2.29764282441e-11
2.66373491009e-10
-7.94172295768e-10
-2.77575194116e-11
2.67694458445e-10
-7.53738323219e-10
-2.71350144465e-11
2.68196743378e-10
-7.02570536462e-10
-2.08916362046e-11
2.66506364398e-10
-6.45574641962e-10
-9.79047604934e-12
2.60639015265e-10
-5.8846347083e-10
2.47831328366e-10
-5.37039298653e-10
4.42112041822e-12
1.76252438913e-11
2.41973469655e-10
-4.46986962483e-10
3.44822300915e-13
3.17689361671e-11
2.53994148693e-10
-4.8896786339e-10
4.00168031935e-11
2.60304286861e-10
-5.35191829054e-10
4.15293602606e-11
2.62951108768e-10
-5.80757650874e-10
3.65735142353e-11
2.63528813369e-10
-6.21185482637e-10
2.6297595052e-11
2.63117087416e-10
-6.5281801463e-10
1.2508285624e-11
2.62545626852e-10
-6.72961202866e-10
-2.57268974625e-12
2.62309092861e-10
-6.79851103807e-10
-1.6605803851e-11
2.62486894005e-10
-6.72572844757e-10
-2.7359130058e-11
2.63021886798e-10
-6.52058688721e-10
-3.30027541386e-11
2.63436918198e-10
-6.20097664521e-10
-3.2353829002e-11
2.62914517025e-10
-5.79413933224e-10
-2.51044880407e-11
2.60374846469e-10
-5.33685241539e-10
-1.20448595126e-11
2.54278925803e-10
-4.87293656931e-10
2.42453700192e-10
-4.45076585003e-10
4.80993611624e-12
2.03422328165e-11
2.26576670482e-10
-3.62151921292e-10
3.54564884779e-13
3.61097249469e-11
2.3769357198e-10
-3.96549506233e-10
4.51055918794e-11
2.44133099469e-10
-4.32728773991e-10
4.65782888073e-11
2.47541728595e-10
-4.67154425877e-10
4.08666577549e-11
2.49126980795e-10
-4.96956369431e-10
2.92450057204e-11
2.49669228378e-10
-5.19895778016e-10
1.37211404852e-11
2.49768517617e-10
-5.34326164447e-10
-3.23487354586e-12
2.49783290961e-10
-5.39171272755e-10
-1.90172427915e-11
2.49794454851e-10
-5.3390105263e-10
-3.11422655499e-11
2.49736843015e-10
-5.19063321031e-10
-3.75729955935e-11
2.49267872161e-10
-4.95760512896e-10
-3.69972119763e-11
2.47798149016e-10
-4.65673510319e-10
-2.90294125692e-11
2.44551541565e-10
-4.31075828136e-10
-1.4379330089e-11
2.38377404119e-10
-3.94757221905e-10
2.27470090236e-10
-3.60193929922e-10
5.17187165604e-12
2.15947824941e-11
-2.89610460266e-10
3.65865692421e-13
2.03830010089e-10
3.83405686512e-11
-3.17860274576e-10
2.13390111098e-10
4.79583977688e-11
-3.44723727863e-10
2.19517224334e-10
4.95738382684e-11
-3.6838374208e-10
2.23449647451e-10
4.35150173592e-11
-3.87761447448e-10
2.25935740423e-10
3.11169301194e-11
-4.02120976793e-10
2.27411471458e-10
1.45243527386e-11
-4.10904691363e-10
2.2819517657e-10
-3.60362403937e-12
-4.13739705726e-10
2.28479012832e-10
-2.04701734905e-11
-4.10451105854e-10
2.28329150413e-10
-3.33971183688e-11
-4.01230861841e-10
2.27688469631e-10
-4.02072498229e-11
-3.8647629839e-10
2.26373816949e-10
-3.95200993138e-11
-3.66778148416e-10
2.24076278615e-10
-3.09613046877e-11
-3.42923748715e-10
2.20366575366e-10
-1.53447084549e-11
-3.15911113385e-10
2.14546164572e-10
-2.87707562307e-10
5.46751695978e-12
2.05214226141e-10
-1.26632287108e-12
1.74493467462e-11
-1.87485857187e-10
2.48919667548e-14
-2.02449181297e-12
1.93902525184e-11
-2.09883889416e-10
-2.35735684169e-12
2.13150029413e-11
-2.32956980519e-10
-2.31558490509e-12
2.30453962276e-11
-2.54843749465e-10
-1.9119778624e-12
2.45099383414e-11
-2.7382465507e-10
-1.22144631057e-12
2.5615915621e-11
-2.8848944743e-10
-3.47860696915e-13
2.63054283211e-11
-2.9784908119e-10
5.8658947688e-13
2.65404394296e-11
-3.01186718803e-10
1.44900970957e-12
2.62751066306e-11
-2.97821636219e-10
2.11905265465e-12
2.5561412956e-11
-2.88434970945e-10
2.49833237295e-12
2.44407693485e-11
-2.73743645208e-10
2.51793303638e-12
2.29665787644e-11
-2.54735927992e-10
2.14705921275e-12
2.12117036184e-11
-2.32819055933e-10
1.35697298181e-12
1.92989073477e-11
-2.09700840859e-10
1.7380724463e-11
-1.87208565999e-10
8.13651062805e-14
-2.90449584601e-12
4.31944352503e-11
-4.74122741432e-10
5.89975530109e-14
-4.77277791485e-12
4.74823162652e-11
-5.29253807601e-10
-5.64335918078e-12
5.15385839643e-11
-5.86487317541e-10
-5.56502888718e-12
5.5126273986e-11
-6.41083569478e-10
-4.59750090022e-12
5.80937602748e-11
-6.88613561968e-10
-2.91769150573e-12
6.03014144345e-11
-7.25428245634e-10
-7.8249818506e-13
6.16677869636e-11
-7.48950119838e-10
1.50346468207e-12
6.2132040871e-11
-7.57323330225e-10
3.60841225843e-12
6.1594651104e-11
-7.48868726502e-10
5.23216319338e-12
6.01655594543e-11
-7.2526687037e-10
6.12948509503e-12
5.79129796045e-11
-6.88373962872e-10
6.13130555025e-12
5.49134505404e-11
-6.40765454744e-10
5.15946102716e-12
5.12833883197e-11
-5.86081975297e-10
3.18946843021e-12
4.72370508404e-11
-5.2872050062e-10
4.30030834799e-11
-4.73353983928e-10
2.48349565266e-13
-3.80511433594e-12
6.90265053992e-11
-6.78543140011e-10
7.9211363956e-14
-6.34267717491e-12
7.53340467763e-11
-7.56192578969e-10
-7.55883672471e-12
8.10318628892e-11
-8.37279716209e-10
-7.4663660538e-12
8.59594134825e-11
-9.14986852946e-10
-6.15768534592e-12
8.99508528465e-11
-9.82862495704e-10
-3.87221742556e-12
9.28782067256e-11
-1.03555362511e-09
-9.61605058776e-13
9.46761981379e-11
-1.06924823447e-09
2.15459411936e-12
9.52847874576e-11
-1.08122150745e-09
5.0188833817e-12
9.45662389007e-11
-1.06911616235e-09
7.21778492501e-12
9.26712722604e-11
-1.03529206893e-09
8.41369803118e-12
8.96699460345e-11
-9.82474958786e-10
8.37576700339e-12
8.56243539584e-11
-9.14474264778e-10
7.0004989602e-12
8.06430192406e-11
-8.36631525848e-10
4.29678580803e-12
7.49491128558e-11
-7.55353964052e-10
6.87191804128e-11
-6.77371767492e-10
4.19186082048e-13
-4.14935915179e-12
9.4454697769e-11
-8.15302126588e-10
9.08200426014e-14
-6.98043243601e-12
1.0260283343e-10
-9.07223315646e-10
-8.36366431931e-12
1.09655689141e-10
-1.00372116184e-09
-8.26648532003e-12
1.15583698379e-10
-1.09660577777e-09
-6.79388119893e-12
1.2027753911e-10
-1.17800638763e-09
-4.21568285823e-12
1.23666178974e-10
-1.24133780582e-09
-9.29320394347e-13
1.25730707248e-10
-1.28187112398e-09
2.5877933612e-12
1.26427323685e-10
-1.29624966045e-09
5.81377651755e-12
1.25590915367e-10
-1.28169248852e-09
8.27822858995e-12
1.23400194308e-10
-1.24098454451e-09
9.5979621308e-12
1.1990976018e-10
-1.17748440475e-09
9.51342159315e-12
1.15140183321e-10
-1.09591887157e-09
7.91628211639e-12
1.09151263027e-10
-1.00286110206e-09
4.86224036752e-12
1.02098578229e-10
-9.06132235846e-10
9.40320368676e-11
-8.13825681527e-10
5.98689381457e-13
-4.05404950416e-12
1.18747075509e-10
-8.94425297476e-10
9.62237702236e-14
-6.85725696852e-12
1.2860601298e-10
-9.93693834903e-10
-8.23833346043e-12
1.36823332931e-10
-1.09845284119e-09
-8.13069331925e-12
1.4351552269e-10
-1.19974654397e-09
-6.63773877382e-12
1.48693677767e-10
-1.28881948614e-09
-4.0315531887e-12
1.52370218343e-10
-1.35828016758e-09
-7.12974982729e-13
1.54589022477e-10
-1.40277522745e-09
2.83440354198e-12