/*--------------------------------*- C++ -*----------------------------------*\
  =========                 |
  \\      /  F ield         | OpenFOAM: The Open Source CFD Toolbox
   \\    /   O peration     | Website:  https://openfoam.org
    \\  /    A nd           | Version:  7
     \\/     M anipulation  |
\*---------------------------------------------------------------------------*/
FoamFile
{
    version     2.0;
    format      ascii;
    class       surfaceScalarField;
    location    "0.9";
    object      phi;
}
// * * * * * * * * * * * * * * * * * * * * * * * * * * * * * * * * * * * * * //

dimensions      [0 3 -1 0 0 0 0];

internalField   nonuniform List<scalar> 
65775
(
-3.14076503792e-11
-9.35416511303e-09
2.80757336648e-10
-1.74597644702e-14
-5.89323470508e-11
-9.86630281001e-09
3.17484364379e-10
-6.56847644141e-11
-1.03471779191e-08
3.53504355604e-10
-5.99695233573e-11
-1.07578926397e-08
3.86611405404e-10
-4.70695470805e-11
-1.10879898585e-08
4.14860356666e-10
-3.00111106093e-11
-1.13305104887e-08
4.36494396602e-10
-1.06729070232e-11
-1.14828280435e-08
4.50236171484e-10
9.45316244243e-12
-1.15394429511e-08
4.55129455683e-10
2.88039462997e-11
-1.14827968827e-08
4.50256194338e-10
4.58935599904e-11
-1.13304440408e-08
4.36531511495e-10
5.88473909472e-11
-1.1087886293e-08
4.14909181406e-10
6.46411239996e-11
-1.07577543084e-08
3.8666243471e-10
5.79872370958e-11
-1.03470283047e-08
3.53542009903e-10
3.05855539315e-11
-9.86616824888e-09
3.17484514028e-10
-9.35418275378e-09
2.80689891846e-10
-5.90268875849e-13
-1.13084480753e-10
-1.77591377193e-08
-1.56146137932e-10
-5.81810045234e-14
-1.93302654991e-10
-1.87244359694e-08
-2.05685278856e-10
-2.19511836343e-10
-1.96296965968e-08
-2.56767466804e-10
-2.0675361699e-10
-2.03927147636e-08
-3.05532715809e-10
-1.66648402415e-10
-2.09993213599e-08
-3.48176091196e-10
-1.07940848208e-10
-2.14415671557e-08
-3.814347437e-10
-3.81973896579e-11
-2.17181226268e-08
-4.02741750431e-10
3.51696099711e-11
-2.18207998188e-08
-4.10259617073e-10
1.04943525911e-10
-2.17180759558e-08
-4.02689465381e-10
1.63724839352e-10
-2.14414663917e-08
-3.81338018747e-10
2.0395942308e-10
-2.0999155798e-08
-3.48049264202e-10
2.16910406159e-10
-2.03924815611e-08
-3.05401516592e-10
1.90953768422e-10
-1.96294258031e-08
-2.56674617177e-10
1.11086410067e-10
-1.87242223339e-08
-2.05697361402e-10
-1.77592471133e-08
-1.563420958e-10
-1.49109082965e-12
-2.08962196617e-10
-2.4552234673e-08
-1.24136616827e-09
-9.80111887289e-14
-3.39441759447e-10
-2.58401278719e-08
-1.46528137138e-09
-3.90429744259e-10
-2.70226813327e-08
-1.68627037398e-09
-3.75231551015e-10
-2.80071534793e-08
-1.89011154289e-09
-3.07673844488e-10
-2.87813521834e-08
-2.06389198429e-09
-2.01345162042e-10
-2.93415021402e-08
-2.19685226489e-09
-7.10592924634e-11
-2.96905289096e-08
-2.28110125779e-09
6.71401298993e-11
-2.98203662896e-08
-2.31086522899e-09
1.97459376345e-10
-2.9690507388e-08
-2.2810322588e-09
3.0387133777e-10
-2.9341449752e-08
-2.19672434164e-09
3.7158042594e-10
-2.87812553639e-08
-2.06372366089e-09
3.87011221148e-10
-2.8007007834e-08
-1.88993703344e-09
3.36341427742e-10
-2.70225031024e-08
-1.68614808462e-09
2.06321732365e-10
-2.58400306858e-08
-1.46530571974e-09
-2.4552515612e-08
-1.24165305321e-09
-2.04003998253e-12
-3.06451152275e-10
-2.94813472309e-08
-2.57708524593e-09
-1.52998222798e-13
-4.88461071749e-10
-3.09523296554e-08
-2.98474231141e-09
-5.66829045764e-10
-3.22623386604e-08
-3.37707238407e-09
-5.51339375839e-10
-3.33417466478e-08
-3.73208932761e-09
-4.56499688182e-10
-3.41833328437e-08
-4.03024189135e-09
-3.00422300092e-10
-3.47889694539e-08
-4.25578237087e-09
-1.05796480838e-10
-3.51656386339e-08
-4.39769995253e-09
1.01644323364e-10
-3.53062588576e-08
-4.44778711309e-09
2.96300911441e-10
-3.51656466727e-08
-4.39762881555e-09
4.52455655461e-10
-3.47889779911e-08
-4.25565024904e-09
5.47438991006e-10
-3.41833247865e-08
-4.03006731365e-09
5.63155406503e-10
-3.33417109155e-08
-3.7319075051e-09
4.85108622076e-10
-3.22622785793e-08
-3.37694542074e-09
3.0356967826e-10
-3.09523684692e-08
-2.98477557891e-09
-2.94817860355e-08
-2.57741628448e-09
-2.3288749223e-12
-3.96384459304e-10
-3.26068557935e-08
-3.8599714094e-09
-2.06892876973e-13
-6.31254171766e-10
-3.41483104361e-08
-4.41554553521e-09
-7.36884639121e-10
-3.54773504946e-08
-4.93923438349e-09
-7.21265368646e-10
-3.6564191843e-08
-5.40614855626e-09
-5.99946293765e-10
-3.74071141894e-08
-5.79389815215e-09
-3.95766901802e-10
-3.80122027786e-08
-6.08480552434e-09
-1.3911059462e-10
-3.83884693908e-08
-6.26694551665e-09
1.35029978113e-10
-3.85294469054e-08
-6.33118156623e-09
3.91715055845e-10
-3.83885154548e-08
-6.26688058237e-09
5.95965657962e-10
-3.80122878874e-08
-6.08468448524e-09
7.17415133585e-10
-3.74072222692e-08
-5.79373717424e-09
7.332403186e-10
-3.65643066429e-08
-5.40598017154e-09
6.27905000933e-10
-3.54774620224e-08
-4.93911674438e-09
3.93469797214e-10
-3.41485195404e-08
-4.41558252978e-09
-3.2607429998e-08
-3.86030792799e-09
-2.46390576755e-12
-4.74424132614e-10
-3.41652487709e-08
-4.91828490706e-09
-2.46343449008e-13
-7.61747695319e-10
-3.56973528772e-08
-5.57752469146e-09
-8.92987015574e-10
-3.69811771219e-08
-6.18966260393e-09
-8.76801453257e-10
-3.802512881e-08
-6.73006077465e-09
-7.30646515352e-10
-3.88329734285e-08
-7.17567583553e-09
-4.82312427625e-10
-3.94127857675e-08
-7.50832611328e-09
-1.69268603027e-10
-3.97736318004e-08
-7.71596359396e-09
1.65329718651e-10
-3.99091493229e-08
-7.78913210844e-09
4.78402510823e-10
-3.97737127984e-08
-7.71590658866e-09
7.26804839353e-10
-3.94129406883e-08
-7.5082219038e-09
8.73080571742e-10
-3.88331840859e-08
-7.17553839642e-09
8.89452424684e-10
-3.80253740955e-08
-6.72991722682e-09
7.58480386995e-10
-3.69814348594e-08
-6.18956331333e-09
4.71548290826e-10
-3.56977100407e-08
-5.57756524632e-09
-3.41659394613e-08
-4.91860673043e-09
-2.52542544984e-12
-5.41072742096e-10
-3.44440666368e-08
-5.7004696653e-09
-2.68526892081e-13
-8.78506691e-10
-3.59114003249e-08
-6.42987906032e-09
-1.03329557337e-09
-3.71149999691e-08
-7.100928254e-09
-1.01626105919e-09
-3.80887256575e-08
-7.69005722264e-09
-8.4735655942e-10
-3.88421692236e-08
-8.17408567869e-09
-5.59334429335e-10
-3.93835736104e-08
-8.53450831095e-09
-1.96064016695e-10
-3.97208450536e-08
-8.75908705021e-09
1.92237299073e-10
-3.98475655399e-08
-8.83811704886e-09
5.5553805161e-10
-3.97209639049e-08
-8.75903980673e-09
8.4362830517e-10
-3.93838035058e-08
-8.53442246636e-09
1.01264801074e-09
-3.88424902038e-08
-8.17397285671e-09
1.02985456961e-09
-3.80891121379e-08
-7.68993975597e-09
8.75309225064e-10
-3.71154188296e-08
-7.10084834136e-09
5.38231149439e-10
-3.59119155959e-08
-6.42992221943e-09
-3.44448675622e-08
-5.70076889295e-09
-2.56254328421e-12
-5.99435552036e-10
-3.37121279726e-08
-6.22213471133e-09
-2.72047559098e-13
-9.83517069689e-10
-3.50748237827e-08
-7.00134979548e-09
-1.16003101633e-09
-3.61782509775e-08
-7.71462143487e-09
-1.14208009754e-09
-3.70660348293e-08
-8.33909920494e-09
-9.52366879469e-10
-3.77539795222e-08
-8.85129862373e-09
-6.284710076e-10
-3.82492225115e-08
-9.23223704171e-09
-2.20098206557e-10
-3.85579119219e-08
-9.46929539047e-09
2.16325315454e-10
-3.86737006179e-08
-9.55252621197e-09
6.24730086598e-10
-3.85580663671e-08
-9.46925742241e-09
9.4869514213e-10
-3.82495227691e-08
-9.23216868182e-09
1.13852052487e-09
-3.77544039091e-08
-8.85120934206e-09
1.15663464202e-09
-3.70665521463e-08
-8.33900688771e-09
9.80348364056e-10
-3.61788218786e-08
-7.71456067112e-09
5.96599552248e-10
-3.50754951864e-08
-7.00139666708e-09
-3.37130530965e-08
-6.22241181907e-09
-2.59848092422e-12
-6.5296790908e-10
-3.21965272283e-08
-6.52156472948e-09
-2.63105055186e-13
-1.08009497534e-09
-3.34250623005e-08
-7.33897687959e-09
-1.2769736946e-09
-3.44154238129e-08
-8.08517128118e-09
-1.25806186008e-09
-3.5207755358e-08
-8.73747529883e-09
-1.04894508001e-09
-3.5823566059e-08
-9.27193739942e-09
-6.91921998948e-10
-3.62678676543e-08
-9.66907805514e-09
-2.42145835384e-10
-3.65447563726e-08
-9.91587507995e-09
2.3836773859e-10
-3.66482117522e-08
-1.00022422665e-08
6.88177486705e-10
-3.65449466404e-08
-9.91584617184e-09
1.04527147626e-09
-3.62682386095e-08
-9.66902681674e-09
1.25449996717e-09
-3.58240952274e-08
-9.27187129852e-09
1.27357029057e-09
-3.52084069814e-08
-8.73740812061e-09
1.07691020371e-09
-3.44161517214e-08
-8.08513074905e-09
6.50100793575e-10
-3.34258988146e-08
-7.33903095576e-09
-3.21975816248e-08
-6.52182496521e-09
-2.64247384047e-12
-7.0434823199e-10
-3.00837759997e-08
-6.63663318745e-09
-2.42177854408e-13
-1.17159477248e-09
-3.1156758948e-08
-7.48489583495e-09
-1.38798874297e-09
-3.20253089897e-08
-8.2577918731e-09
-1.36788531784e-09
-3.2717459343e-08
-8.93252360669e-09
-1.14005167093e-09
-3.32581137513e-08
-9.48471555539e-09
-7.51591648221e-10
-3.36491658242e-08
-9.89457731952e-09
-2.62862074708e-10
-3.3892559751e-08
-1.01488298911e-08
2.59022999702e-10
-3.39829033335e-08
-1.02374367403e-08
7.4778801994e-10
-3.38927830853e-08
-1.01488103132e-08
1.1363213421e-09
-3.36496033103e-08
-9.89454382643e-09
1.36426910925e-09
-3.32587409957e-08
-9.48467376398e-09
1.38453152812e-09
-3.27182395092e-08
-8.93248350053e-09
1.16835361689e-09
-3.20261915882e-08
-8.25777488695e-09
7.01418927534e-10
-3.11577643788e-08
-7.48496293125e-09
-3.00849793547e-08
-6.63688470406e-09
-2.69976787931e-12
-7.55287317218e-10
-2.75287704108e-08
-6.59726814019e-09
-2.15809453222e-13
-1.26110857251e-09
-2.84316248321e-08
-7.47065293846e-09
-1.49662781179e-09
-2.91736944176e-08
-8.2650164576e-09
-1.47465971706e-09
-2.9766079093e-08
-8.95731413399e-09
-1.22797343663e-09
-3.0232293134e-08
-9.52295693151e-09
-8.08864717737e-10
-3.05702412797e-08
-9.9421672146e-09
-2.82708219203e-10
-3.07799312755e-08
-1.02016462116e-08
2.78755595167e-10
-3.08569879808e-08
-1.0291628243e-08
8.04949447497e-10
-3.0780185066e-08
-1.02016366285e-08
1.22413578025e-09
-3.05707394494e-08
-9.94215293167e-09
1.47094118758e-09
-3.02330136373e-08
-9.52294196233e-09
1.49307456598e-09
-2.97669820996e-08
-8.95730495034e-09
1.25777561194e-09
-2.91747282893e-08
-8.26502850083e-09
7.52266253561e-10
-2.84327969809e-08
-7.47074064712e-09
-2.75301215465e-08
-6.59752078045e-09
-2.7738555235e-12
-8.06794709368e-10
-2.46635547671e-08
-6.42528800387e-09
-1.83876831944e-13
-1.35193124849e-09
-2.53866485085e-08
-7.31868158881e-09
-1.60624139824e-09
-2.60034753608e-08
-8.12968448804e-09
-1.58077512103e-09
-2.65024927179e-08
-8.8348631942e-09
-1.31417432923e-09
-2.68986273061e-08
-9.40974334329e-09
-8.64523441051e-10
-2.71857734127e-08
-9.83496383002e-09
-3.01932613906e-10
-2.73628706252e-08
-1.00974729047e-08
2.97815202652e-10
-2.74269919294e-08
-1.01879910271e-08
8.60446062206e-10
-2.73631515215e-08
-1.00974741692e-08
1.31017965882e-09
-2.71863273915e-08
-9.83497069494e-09
1.57690936849e-09
-2.68994307201e-08
-9.40975860609e-09
1.60255308942e-09
-2.65035102546e-08
-8.83489023245e-09
1.34847662157e-09
-2.60046549124e-08
-8.1297327169e-09
8.03660976619e-10
-2.53879848309e-08
-7.31879822943e-09
-2.46650523426e-08
-6.42555151842e-09
-2.86373569771e-12
-8.61582913715e-10
-2.16017014282e-08
-6.13647119309e-09
-1.51535595715e-13
-1.44968729996e-09
-2.2139463934e-08
-7.04543095902e-09
-1.7202221791e-09
-2.26428300663e-08
-7.86874719064e-09
-1.68744477047e-09
-2.30605791185e-08
-8.5823497803e-09
-1.39886110959e-09
-2.33933037068e-08
-9.16240498798e-09
-9.18513163359e-10
-2.36332612612e-08
-9.59043234053e-09
-3.20490327607e-10
-2.37797820893e-08
-9.8538828241e-09
3.1615842297e-10
-2.38317503213e-08
-9.94414865766e-09
9.14224077366e-10
-2.37800861078e-08
-9.8538956717e-09
1.3946637983e-09
-2.36338605198e-08
-9.59046215706e-09
1.68338800754e-09
-2.33941821748e-08
-9.16245396974e-09
1.71636197666e-09
-2.30617003575e-08
-8.5824189276e-09
1.44608391114e-09
-2.26441448196e-08
-7.86883975599e-09
8.58321279741e-10
-2.21409594767e-08
-7.04558432469e-09
-2.16033394985e-08
-6.13675137341e-09
-2.94976082011e-12
-9.34555569109e-10
-1.8430076698e-08
-5.74259916008e-09
-1.11116185803e-13
-1.56675547537e-09
-1.87968690076e-08
-6.66425494952e-09
-1.84285725146e-09
-1.92140745864e-08
-7.49614866235e-09
-1.79540776228e-09
-1.95636226442e-08
-8.21392042299e-09
-1.48192016604e-09
-1.98390203241e-08
-8.79530909219e-09
-9.70677167303e-10
-2.00356177559e-08
-9.22317169148e-09
-3.38338586895e-10
-2.0154214485e-08
-9.48565336397e-09
3.3374559974e-10
-2.01951367493e-08
-9.57495310261e-09
9.66132525945e-10
-2.01545353848e-08
-9.48567791895e-09
1.47747477033e-09
-2.00362542213e-08
-9.22322513966e-09
1.79112110377e-09
-1.98399554245e-08
-8.79539379037e-09
1.8387913507e-09
-1.95648300667e-08
-8.2140364074e-09
1.56297469831e-09
-1.92155138107e-08
-7.49629368734e-09
9.31148563057e-10
-1.87985212908e-08
-6.66445252524e-09
-1.84318528802e-08
-5.74289521036e-09
-3.05621168221e-12
-1.07374949251e-09
-5.25119917737e-09
-7.2882931279e-14
-1.51799925873e-08
-1.725837772e-09
-6.18638022593e-09
-1.54797729271e-08
-1.99041072378e-09
-7.02301588594e-09
-1.58348540168e-08
-1.92048976045e-09
-7.74116575135e-09
-1.61237443671e-08
-1.57749366782e-09
-8.32081482732e-09
-1.63477710317e-08
-1.03078597929e-09
-8.74627975406e-09
-1.65070681485e-08
-3.58935295616e-10
-9.00639600911e-09
-1.66023750334e-08
3.54041030007e-10
-9.09420544563e-09
-1.66341814108e-08
1.02594577188e-09
-9.00643062994e-09
-1.66027078311e-08
1.57276600313e-09
-8.74635387614e-09
-1.65077310917e-08
1.91593815133e-09
-8.32093153786e-09
-1.63487530713e-08
1.98610453504e-09
-7.74132607133e-09
-1.61250264906e-08
1.72185613727e-09
-7.02321445835e-09
-1.58364018165e-08
1.07018085551e-09
-6.18663583517e-09
-1.54815708112e-08
-5.25148874602e-09
-3.186424944e-12
-1.51819140676e-08
-2.71551733793e-11
1.10464730583e-09
-7.9682002288e-10
-1.45422306216e-13
-4.35157972288e-11
1.21891011071e-09
-8.85448096495e-10
-5.01649876763e-11
1.32887321144e-09
-9.69144170684e-10
-4.92515242641e-11
1.4296075051e-09
-1.04429252189e-09
-4.115165743e-11
1.51362732123e-09
-1.10714623493e-09
-2.72206623551e-11
1.5769782016e-09
-1.15459759403e-09
-9.42366404781e-12
1.61689534281e-09
-1.18457202706e-09
9.74160337136e-12
1.63122737625e-09
-1.19534554525e-09
2.75329850101e-11
1.61696644145e-09
-1.18456736616e-09
4.14629861299e-11
1.5771316948e-09
-1.15458893567e-09
4.95807651724e-11
1.51387155063e-09
-1.10713439796e-09
5.05395584737e-11
1.4299298735e-09
-1.04427948419e-09
4.39426139945e-11
1.32922185122e-09
-9.69134258998e-10
2.7603406251e-11
1.21922479403e-09
-8.85451500623e-10
1.10487178692e-09
-7.96862333642e-10
2.36609153829e-13
-4.37940146426e-11
3.01480604591e-09
-2.02248516578e-09
-4.26043912967e-13
-6.98200318523e-11
3.27910294159e-09
-2.2404893019e-09
-8.10906290291e-11
3.52776579337e-09
-2.44509448437e-09
-7.94484074561e-11
3.74958740955e-09
-2.6277727994e-09
-6.62529182108e-11
3.93171158976e-09
-2.77990345739e-09
-4.37327346551e-11
4.06712795724e-09
-2.8943979003e-09
-1.50837643859e-11
4.15189543127e-09
-2.96658134498e-09
1.57688307105e-11
4.18246757967e-09
-2.99249135832e-09
4.44199940926e-11
4.15208040851e-09
-2.96656635638e-09
6.69650030179e-11
4.06751947845e-09
-2.89437046731e-09
8.02359033472e-11
3.93232481309e-09
-2.77986599275e-09
8.2014148848e-11
3.75039187976e-09
-2.62773101734e-09
7.08915654665e-11
3.52864419057e-09
-2.44506056846e-09
4.49250219324e-11
3.27990363133e-09
-2.24049155169e-09
3.01539274856e-09
-2.02258310721e-09
5.67682472555e-13
-3.79120782865e-11
4.83208019495e-09
-3.02052444447e-09
-5.81743123543e-13
-5.8758865983e-11
5.18013277531e-09
-3.3459872157e-09
-6.8310345611e-11
5.50088906988e-09
-3.65040408343e-09
-6.68674204862e-11
5.77897019653e-09
-3.92142426187e-09
-5.57504185495e-11
6.00296333759e-09
-4.14662346265e-09
-3.67781576737e-11
6.16687839727e-09
-4.31582179564e-09
-1.26029138322e-11
6.26875777409e-09
-4.42230413835e-09
1.35135392421e-11
6.3057826504e-09
-4.46041597463e-09
3.77041687189e-11
6.26904370524e-09
-4.42228124178e-09
5.67285565829e-11
6.16746593205e-09
-4.31577927204e-09
6.79627322451e-11
6.00385337191e-09
-4.14656486808e-09
6.9591835199e-11
5.78010778801e-09
-3.9213581171e-09
6.02343331416e-11
5.50212853363e-09
-3.65034823291e-09
3.94573373141e-11
5.18128652521e-09
-3.34598200678e-09
4.83299387118e-09
-3.02065169915e-09
7.91553292291e-13
-2.03100073377e-11
6.13969256292e-09
-3.8640379745e-09
-6.97031287045e-13
-2.95492162087e-11
6.4886283195e-09
-4.28449258627e-09
-3.47766934111e-11
6.80508423437e-09
-4.67657161127e-09
-3.45809781392e-11
7.07103362434e-09
-5.02480656571e-09
-2.92321276915e-11
7.28066039768e-09
-5.31362916465e-09
-1.94494418765e-11
7.43139785006e-09
-5.53031736758e-09
-6.57158638803e-12
7.52448251978e-09
-5.66646251108e-09
7.57669952344e-12
7.55877746941e-09
-5.71504656851e-09
2.04864462573e-11
7.52484428294e-09
-5.666433786e-09
3.0351023601e-11
7.43213200092e-09
-5.53026343231e-09
3.5854346348e-11
7.28175932113e-09
-5.31355419e-09
3.62736971368e-11
7.07242728422e-09
-5.02472066492e-09
3.12702161966e-11
6.80661058639e-09
-4.67649564264e-09
2.21145223397e-11
6.49007310823e-09
-4.28447270014e-09
6.14087137634e-09
-3.86416615926e-09
9.23869230564e-13
1.73357588008e-12
6.83626556048e-09
-4.55782033837e-09
-7.73947887e-13
4.58778710659e-12
7.13141136754e-09
-5.06158389231e-09
3.70060459124e-12
7.3964042378e-09
-5.5300768042e-09
1.94465774549e-12
7.61163705419e-09
-5.94535025301e-09
4.65650955035e-13
7.77722950504e-09
-6.289256e-09
-1.77788353319e-13
7.89401211236e-09
-6.54696902505e-09
9.44481087914e-14
7.96577677184e-09
-6.70864638903e-09
9.32740399743e-13
7.99282147745e-09
-6.76616415831e-09
1.25226650035e-12
7.96617852013e-09
-6.70861398713e-09
7.16446884193e-13
7.89482100463e-09
-6.54690809013e-09
-5.81320839945e-13
7.77842541504e-09
-6.28917113129e-09
-2.09244534021e-12
7.61314610574e-09
-5.9452512784e-09
-2.74280564753e-12
7.39806871044e-09
-5.52998487682e-09
2.05313845862e-13
7.13303155413e-09
-5.06154656622e-09
6.83765611006e-09
-4.55793042192e-09
9.93360449837e-13
2.38919118653e-11
7.00396790514e-09
-5.1093474717e-09
-8.15438363482e-13
3.70237335708e-11
7.2265395915e-09
-5.68614570235e-09
3.97235249201e-11
7.42499014491e-09
-6.22132436517e-09
3.58557064141e-11
7.58004211256e-09
-6.69492257874e-09
2.78913711266e-11
7.69592833997e-09
-7.08665983845e-09
1.75587721825e-11
7.77578301908e-09
-7.37994378699e-09
6.21126040863e-12
7.82471647831e-09
-7.56368469821e-09
-5.1971660395e-12
7.84384251577e-09
-7.6288420212e-09
-1.6485456157e-11
7.82513369007e-09
-7.56365158457e-09
-2.66938332895e-11
7.7766176574e-09
-7.37987911348e-09
-3.44620401562e-11
7.69715852154e-09
-7.08656755695e-09
-3.80784159919e-11
7.58159600453e-09
-6.69481242242e-09
-3.51392775878e-11
7.42672377638e-09
-6.22121626876e-09
-2.1905174063e-11
7.22826532767e-09
-5.68608609677e-09
7.00549909397e-09
-5.10942814328e-09
1.01997600629e-12
4.38073245097e-11
6.78771269426e-09
-5.52744856112e-09
-8.28380464402e-13
6.52160846639e-11
6.94329484699e-09
-6.16833328297e-09
7.08086844795e-11
7.07990420797e-09
-6.76172592837e-09
6.50484892876e-11
7.18152748704e-09
-7.28603158325e-09
5.14766918654e-11
7.25443968411e-09
-7.71922211384e-09
3.28039664854e-11
7.30304454477e-09
-8.04324428303e-09
1.14666413844e-11
7.33280293715e-09
-8.24594679967e-09
-1.04729441935e-11
7.34515555774e-09
-8.31757471327e-09
-3.17442818675e-11
7.33320901835e-09
-8.24591290017e-09
-5.02845238522e-11
7.30385308276e-09
-8.04317774623e-09
-6.36572294516e-11
7.25562794504e-09
-7.71912608907e-09
-6.91721062024e-11
7.183031447e-09
-7.28591418703e-09
-6.33489685777e-11
7.08160634762e-09
-6.76160434751e-09
-4.18363065663e-11
6.945034169e-09
-6.16825157962e-09
6.78932983045e-09
-5.52749615003e-09
1.01986449377e-12
6.04345531445e-11
6.32605113907e-09
-5.82030741832e-09
-8.1618579652e-13
8.86245864078e-11
6.43056898825e-09
-6.51706269547e-09
9.66322769848e-11
6.51781559675e-09
-7.16079168263e-09
8.93427960554e-11
6.57813469377e-09
-7.72863765411e-09
7.11263546246e-11
6.61839488405e-09
-8.19721303101e-09
4.5514781104e-11
6.64361827709e-09
-8.54733362342e-09
1.5852612659e-11
6.65907112161e-09
-8.76600379941e-09
-1.48721038366e-11
6.66624996902e-09
-8.84297543829e-09
-4.44664546174e-11
6.65945134955e-09
-8.7659706822e-09
-6.99455600654e-11
6.64437439353e-09
-8.54726818152e-09
-8.79700405926e-11
6.61950647084e-09
-8.19711726409e-09
-9.50287522262e-11
6.57954962187e-09
-7.72851742714e-09
-8.6807378445e-11
6.51943678199e-09
-7.16066065197e-09
-5.85149880917e-11
6.4322646913e-09
-6.51696216104e-09
6.32767872831e-09
-5.82032350795e-09
1.00324310788e-12
7.35332439798e-11
5.72609146719e-09
-5.99454526088e-09
-7.87670018893e-13
1.07482420501e-10
5.79664425738e-09
-6.73920135783e-09
1.17596692719e-10
5.84788031968e-09
-7.425546032e-09
1.09162541877e-10
5.87877834568e-09
-8.02985538017e-09
8.71914112562e-11
5.8960708139e-09
-8.52778192389e-09
5.5918963519e-11
5.90506451208e-09
-8.89936341292e-09
1.9449057294e-11
5.91058164149e-09
-9.13100343349e-09
-1.84670836217e-11
5.9140481804e-09
-9.2121952515e-09
-5.48709930139e-11
5.91092372523e-09
-9.13097272552e-09
-8.60175225901e-11
5.90574424897e-09
-8.89930219693e-09
-1.07811019339e-10
5.89707110383e-09
-8.52769081635e-09
-1.1603708305e-10
5.88005937045e-09
-8.02973760126e-09
-1.05731714256e-10
5.84937011262e-09
-7.42541135457e-09
-7.16899111591e-11
5.79824019091e-09
-6.73908842259e-09
5.72768638899e-09
-5.99453596538e-09
9.80121592478e-13
8.33618802796e-11
5.06204692398e-09
-6.05536502066e-09
-7.44451937654e-13
1.22301246415e-10
5.11265412141e-09
-6.84000575463e-09
1.34315005651e-10
5.13923734791e-09
-7.56132210103e-09
1.2510173598e-10
5.15042382195e-09
-8.19509789459e-09
1.00161294453e-10
5.15257981112e-09
-8.71640358516e-09
6.43359031291e-11
5.1510666925e-09
-9.10485032892e-09
2.23658642236e-11
5.15013441191e-09
-9.34649123273e-09
-2.1368091997e-11
5.15107773452e-09
-9.43079525244e-09
-6.3276873141e-11
5.15043357955e-09
-9.34646469253e-09
-9.89877723165e-11
5.15166092503e-09
-9.1047968207e-09
-1.23769953957e-10
5.1534572903e-09
-8.71632226561e-09
-1.32801607603e-10
5.15155470917e-09
-8.19498919094e-09
-1.20623584267e-10
5.14056973664e-09
-7.5611918126e-09
-8.16034226712e-11
5.11411313822e-09
-6.83989013201e-09
5.06354974084e-09
-6.05534055784e-09
9.5288873876e-13
9.04248318527e-11
4.38207661068e-09
-6.00717015212e-09
-6.95390235669e-13
1.33704934455e-10
4.42259005376e-09
-6.82399897171e-09
1.47502812104e-10
4.43319913125e-09
-7.57290136545e-09
1.37868491744e-10
4.43205683057e-09
-8.22942483485e-09
1.1063602453e-10
4.42513566921e-09
-8.76837473288e-09
7.11637436635e-11
4.41756155752e-09
-9.16927094694e-09
2.47418120806e-11
4.41290571152e-09
-9.41806201171e-09
-2.37169796471e-11
4.41226953145e-09
-9.50441724902e-09
-7.00846490984e-11
4.41315897105e-09
-9.4180415531e-09
-1.09456598813e-10
4.41806565704e-09
-9.16922905265e-09
-1.3655395155e-10
4.42588156997e-09
-8.76830921358e-09
-1.46035753717e-10
4.433026948e-09
-8.22933339597e-09
-1.32102314289e-10
4.43435920038e-09
-7.57278585333e-09
-8.8758079918e-11
4.42388855998e-09
-6.823893394e-09
4.383462138e-09
-6.00714444194e-09
9.26168215792e-13
9.5269271527e-11
3.71621305085e-09
-5.8541679771e-09
-6.40430541006e-13
1.42401406347e-10
3.75243464659e-09
-6.69575907135e-09
1.58050352363e-10
3.75320846171e-09
-7.46543984715e-09
1.48376814538e-10
3.74529518498e-09
-8.13851587757e-09
1.19392344426e-10
3.73408821108e-09
-8.68978752354e-09
7.691991037e-11
3.7240338324e-09
-9.09902215038e-09
2.67547837307e-11
3.71785289914e-09
-9.3523089494e-09
-2.56975051981e-11
3.71641855398e-09
-9.43972885139e-09
-7.58165167482e-11
3.71806044916e-09
-9.35229660587e-09
-1.18205575504e-10
3.72444734798e-09
-9.09899615194e-09
-1.47078637687e-10
3.73470566218e-09
-8.68974470127e-09
-1.56629520443e-10
3.74610573611e-09
-8.13845151242e-09
-1.40874641017e-10
3.75419211676e-09
-7.46535173542e-09
-9.36941755939e-11
3.75356152047e-09
-6.69567849846e-09
3.71744803929e-09
-5.85415754823e-09
8.97955694974e-13
9.84685762945e-11
3.08249744927e-09
-5.60074293728e-09
-5.88965191285e-13
1.49500409404e-10
3.11641373258e-09
-6.46052491132e-09
1.67421921631e-10
3.11157835703e-09
-7.24511766224e-09
1.58066412009e-10
3.10145471683e-09
-7.92921969269e-09
1.2759790874e-10
3.09007032784e-09
-8.48797122537e-09
8.23470009463e-11
3.08058737481e-09
-8.90178699089e-09
2.86610193905e-11
3.07476900062e-09
-9.15714580455e-09
-2.7572361762e-11
3.07319758211e-09
-9.24473136766e-09
-8.1221585601e-11
3.07493327577e-09
-9.15714353127e-09
-1.26405141357e-10
3.08091709639e-09
-8.90178118105e-09
-1.56787420767e-10
3.09056390644e-09
-8.48795841688e-09
-1.66049433817e-10
3.10211267526e-09
-7.92919344595e-09
-1.48049701453e-10
3.1123964706e-09
-7.24507139936e-09
-9.69889028517e-11
3.11737485649e-09
-6.46048500546e-09
3.08358399383e-09
-5.60076344871e-09
8.65679908998e-13
1.00948598011e-10
2.4909825493e-09
-5.25158489603e-09
-5.35383634795e-13
1.57222086747e-10
2.52073618571e-09
-6.12491490236e-09
1.78290332538e-10
2.51397734884e-09
-6.91967151661e-09
1.69330003055e-10
2.50622411787e-09
-7.60978719176e-09
1.37067391008e-10
2.49852952157e-09
-8.17155582909e-09
8.85839486581e-11
2.49237706656e-09
-8.58651118791e-09
3.08366152364e-11
2.48856497724e-09
-8.84174006176e-09
-2.97239008368e-11
2.48746097111e-09
-8.92867934784e-09
-8.7442828866e-11
2.48869146695e-09
-8.84174929604e-09
-1.35876664229e-10
2.49263328701e-09
-8.58652893543e-09
-1.68073832275e-10
2.49891879895e-09
-8.17157943925e-09
-1.76964670288e-10
2.50675084677e-09
-7.60981006763e-09
-1.55845075276e-10
2.5146413626e-09
-6.91968296306e-09
-9.95596844509e-11
2.52154689056e-09
-6.12493117975e-09
2.49192842323e-09
-5.25164683252e-09
8.26858018782e-13
9.79557498216e-11
-4.81433443105e-09
-4.83555205595e-13
1.95657180338e-09
1.67075516778e-10
-5.70068911837e-09
1.96587310764e-09
1.9308035178e-10
-6.50007406228e-09
1.96497555112e-09
1.84565937251e-10
-7.19055552676e-09
1.96408799524e-09
1.49892184832e-10
-7.7505601185e-09
1.96290729517e-09
9.70570961938e-11
-8.1630860117e-09
1.96197823992e-09
3.38016933284e-11
-8.41594761835e-09
1.96134323063e-09
-3.26748818487e-11
-8.50143051715e-09
1.96113170737e-09
-9.59081412538e-11
-8.41596809704e-09
1.96144332808e-09
-1.48707418088e-10
-8.16312720552e-09
1.96217813141e-09
-1.83334453147e-10
-7.75062130013e-09
1.96321313622e-09
-1.9180342563e-10
-7.19063260495e-09
1.96450374104e-09
-1.65761052909e-10
-6.50015422286e-09
1.96551719267e-09
-9.66399536254e-11
-5.70078470172e-09
1.96655386342e-09
-4.81442563444e-09
7.93435175939e-13
1.95741315667e-09
1.89633465133e-11
-2.25269398397e-10
-5.90560946845e-10
-1.24875594197e-13
2.9963489899e-11
-2.50249265637e-10
-6.46411598561e-10
3.50263791427e-11
-2.76272889964e-10
-6.98173957413e-10
3.44876103953e-11
-2.99945315529e-10
-7.44020395833e-10
2.88352372408e-11
-3.19753337487e-10
-7.8194970885e-10
1.90532264471e-11
-3.34649084565e-10
-8.10351077327e-10
6.5546575913e-12
-3.43993525426e-10
-8.28217633842e-10
-6.91318127849e-12
-3.47301997873e-10
-8.34670468156e-10
-1.93834619343e-11
-3.43944089507e-10
-8.28218002079e-10
-2.91127533952e-11
-3.345565536e-10
-8.10351478747e-10
-3.47015174552e-11
-3.19634228987e-10
-7.81950068948e-10
-3.51818433092e-11
-2.99812550194e-10
-7.44021285533e-10
-3.00546348018e-11
-2.76115207755e-10
-6.98177961574e-10
-1.90047119691e-11
-2.50103849115e-10
-6.46427910958e-10
-2.25158819205e-10
-5.90615576066e-10
-1.21256107369e-13
4.24681410995e-11
-4.88386585231e-10
-1.80178922536e-09
-3.34209238165e-13
6.91144192912e-11
-5.35808310655e-10
-1.9819591538e-09
8.15675719227e-11
-5.84344658718e-10
-2.14989078293e-09
8.05718282895e-11
-6.27952092613e-10
-2.29914913225e-09
6.74252828066e-11
-6.63855693894e-10
-2.42300286311e-09
4.45453410486e-11
-6.90505070231e-10
-2.5159550484e-09
1.52995566392e-11
-7.07107971709e-10
-2.57443844835e-09
-1.62029577649e-11
-7.13000142449e-10
-2.59544296349e-09
-4.53817927196e-11
-7.06997846383e-10
-2.57444004101e-09
-6.81379480536e-11
-6.90293841431e-10
-2.51595673618e-09
-8.11310973105e-11
-6.63567641244e-10
-2.42300420701e-09
-8.19723640477e-11
-6.27607858595e-10
-2.29915161877e-09
-6.93580723673e-11
-5.83940573596e-10
-2.14990194702e-09
-4.25722337768e-11
-5.35425054006e-10
-1.98200479187e-09
-4.88103614019e-10
-1.80192980572e-09
-3.25020137756e-13
5.47484837413e-11
-6.81024226932e-10
-2.88243830887e-09
-4.38901294114e-13
9.02994082318e-11
-7.39380175031e-10
-3.17825214942e-09
1.07024247054e-10
-7.97979621252e-10
-3.4537903223e-09
1.05775754254e-10
-8.49968492642e-10
-3.69845332697e-09
8.84575606796e-11
-8.92113096318e-10
-3.90132640712e-09
5.83795410192e-11
-9.22986750355e-10
-4.05349955859e-09
2.00107533605e-11
-9.4207397501e-10
-4.14914812507e-09
-2.12842671022e-11
-9.48856582931e-10
-4.18339159866e-09
-5.95679585265e-11
-9.41935591402e-10
-4.14915037324e-09
-8.94884746804e-11
-9.22719756743e-10
-4.05350182334e-09
-1.06606167963e-10
-8.91743964906e-10
-3.90132778573e-09
-1.07642084273e-10
-8.49525042995e-10
-3.69845592415e-09
-9.06996675781e-11
-7.97472838043e-10
-3.45380527508e-09
-5.49507279576e-11
-7.38883501677e-10
-3.17831612586e-09
-6.8063256293e-10
-2.88263423815e-09
-4.79560852658e-13
5.94095789711e-11
-8.10352281633e-10
-3.79383902823e-09
-4.99264064899e-13
9.87840464187e-11
-8.71875400374e-10
-4.19164973093e-09
1.17460488123e-10
-9.32018891193e-10
-4.56150979487e-09
1.16139356772e-10
-9.84336328997e-10
-4.88940691592e-09
9.70624241281e-11
-1.02595324266e-09
-5.16097297657e-09
6.39941868449e-11
-1.05596468505e-09
-5.36448645796e-09
2.18897416747e-11
-1.07435040223e-09
-5.49224530568e-09
-2.33928521617e-11
-1.08089271378e-09
-5.53784576313e-09
-6.54062004178e-11
-1.07419494903e-09
-5.49224740916e-09
-9.83052053661e-11
-1.05566237212e-09
-5.36448797697e-09
-1.17161183927e-10
-1.02552497002e-09
-5.16097263783e-09
-1.18238935321e-10
-9.83810025643e-10
-4.88940720234e-09
-9.93099918814e-11
-9.31418858565e-10
-4.56152382782e-09
-5.97008565985e-11
-8.71286850256e-10
-4.1917195007e-09
-8.09881880731e-10
-3.79405766968e-09
-5.96574777104e-13
5.908239315e-11
-8.81598002648e-10
-4.5453157604e-09
-5.2399504681e-13
9.88885656693e-11
-9.40681970749e-10
-5.03277821499e-09
1.17917241171e-10
-9.96360930624e-10
-5.48497222479e-09
1.16663867956e-10
-1.0434863757e-09
-5.88515699808e-09
9.74679583884e-11
-1.08005422364e-09