/*--------------------------------*- C++ -*----------------------------------*\
  =========                 |
  \\      /  F ield         | OpenFOAM: The Open Source CFD Toolbox
   \\    /   O peration     | Website:  https://openfoam.org
    \\  /    A nd           | Version:  7
     \\/     M anipulation  |
\*---------------------------------------------------------------------------*/
FoamFile
{
    version     2.0;
    format      ascii;
    class       surfaceScalarField;
    location    "2.02";
    object      phi;
}
// * * * * * * * * * * * * * * * * * * * * * * * * * * * * * * * * * * * * * //

dimensions      [0 3 -1 0 0 0 0];

internalField   nonuniform List<scalar> 
65775
(
-8.13423118194e-12
-1.23923110982e-09
-1.03989131456e-10
1.66654030549e-14
-1.37323294665e-11
-1.30055304131e-09
-1.1514374683e-10
-1.67254249558e-11
-1.35532061656e-09
-1.25916345103e-10
-1.66394340117e-11
-1.4027786807e-09
-1.35739102128e-10
-1.39206263408e-11
-1.44085357401e-09
-1.44045777683e-10
-9.12501766763e-12
-1.46879698015e-09
-1.50361542899e-10
-3.01541525473e-12
-1.48635107987e-09
-1.54364306895e-10
3.55160631342e-12
-1.4929423611e-09
-1.55800392907e-10
9.64929204639e-12
-1.48635551796e-09
-1.54356218395e-10
1.44221214934e-11
-1.46880590397e-09
-1.50345581191e-10
1.71084935364e-11
-1.4408676884e-09
-1.4402229923e-10
1.71544684118e-11
-1.40279828207e-09
-1.35708502082e-10
1.41149445673e-11
-1.35534521571e-09
-1.25878841414e-10
8.46997845232e-12
-1.30058037517e-09
-1.15098600244e-10
-1.23922280136e-09
-1.03933247369e-10
2.71487401103e-13
-2.30120076214e-11
-2.21094119317e-09
-2.92683693083e-10
1.60108253778e-14
-4.03991035683e-11
-2.31591970119e-09
-3.24325057444e-10
-4.91329737432e-11
-2.41134155712e-09
-3.54865211592e-10
-4.91518053564e-11
-2.49343140268e-09
-3.82704215679e-10
-4.12451885236e-11
-2.5592252586e-09
-4.06243298332e-10
-2.7095180148e-11
-2.60735608129e-09
-4.2414143162e-10
-8.95961427559e-12
-2.63754281551e-09
-4.35478572801e-10
1.05316743403e-11
-2.64886480555e-09
-4.39533909368e-10
2.86334291206e-11
-2.63755069069e-09
-4.35454010977e-10
4.27180654254e-11
-2.60737249759e-09
-4.24093068826e-10
5.05312005392e-11
-2.55925234651e-09
-4.06172381401e-10
5.03955858967e-11
-2.493471481e-09
-3.82612184043e-10
4.15268459931e-11
-2.41139476594e-09
-3.54753044102e-10
2.39860433586e-11
-2.31597386475e-09
-3.24191152352e-10
-2.21091996887e-09
-2.92522003385e-10
7.83499764677e-13
-3.68159353381e-11
-2.94112351721e-09
-4.56498922298e-10
3.03228049843e-14
-6.42108238549e-11
-3.07492925188e-09
-5.0648917666e-10
-7.7862899245e-11
-3.19807434388e-09
-5.54657981906e-10
-7.78871259729e-11
-3.30323870957e-09
-5.98519123838e-10
-6.5375340785e-11
-3.38742129544e-09
-6.35579269645e-10
-4.2950076439e-11
-3.44879837188e-09
-6.63744818048e-10
-1.41857857376e-11
-3.48722162741e-09
-6.81569424694e-10
1.67223598154e-11
-3.50161661641e-09
-6.87927778528e-10
4.54323510775e-11
-3.48722715602e-09
-6.81528953978e-10
6.77521646278e-11
-3.44881116495e-09
-6.63665207185e-10
8.01124485562e-11
-3.38744544382e-09
-6.35462755521e-10
7.98968931551e-11
-3.3032789655e-09
-5.98368437346e-10
6.60219073317e-11
-3.19813299775e-09
-5.54475393579e-10
3.83684920715e-11
-3.07498263044e-09
-5.06273429539e-10
-2.94107587553e-09
-4.56242941993e-10
1.270803722e-12
-4.95959828439e-11
-3.45565855435e-09
-5.954486714e-10
3.65515010498e-14
-8.54783356161e-11
-3.60620812547e-09
-6.61547433747e-10
-1.03351196266e-10
-3.74559801336e-09
-7.2506906796e-10
-1.0323768796e-10
-3.86387013378e-09
-7.82808131187e-10
-8.66131606543e-11
-3.95833095864e-09
-8.31533551426e-10
-5.68838039434e-11
-4.02696978555e-09
-8.68531140987e-10
-1.87724013388e-11
-4.06984845464e-09
-8.91917632629e-10
2.21668279656e-11
-4.08589575415e-09
-9.00237680247e-10
6.02066209557e-11
-4.06984731343e-09
-8.91862755653e-10
8.97963583322e-11
-4.02697043552e-09
-8.68423287415e-10
1.06219272645e-10
-3.9583393103e-09
-8.31375973392e-10
1.06076667745e-10
-3.86389309818e-09
-7.82604969066e-10
8.79029512625e-11
-3.74564069725e-09
-7.24824237919e-10
5.16731137099e-11
-3.60623754556e-09
-6.61260927986e-10
-3.45557515351e-09
-5.9511400828e-10
1.71487504622e-12
-6.11500237477e-11
-3.78088925729e-09
-7.09279806996e-10
4.00458077269e-14
-1.04351614451e-10
-3.93837995579e-09
-7.89150421771e-10
-1.25804811776e-10
-4.08438954371e-09
-8.65643641595e-10
-1.25444968873e-10
-4.20752045195e-09
-9.35010907684e-10
-1.05156894808e-10
-4.30554319296e-09
-9.93449778373e-10
-6.90253967528e-11
-4.37651899658e-09
-1.0377670098e-09
-2.2762734004e-11
-4.42075270872e-09
-1.06574068772e-09
2.69119253248e-11
-4.43728897512e-09
-1.0756653953e-09
7.30882516765e-11
-4.42074158263e-09
-1.06567308844e-09
1.09050917041e-10
-4.37650057591e-09
-1.03763428425e-09
1.29094211607e-10
-4.30552484702e-09
-9.93256228745e-10
1.29142045617e-10
-4.20751081428e-09
-9.34762207749e-10
1.07320894557e-10
-4.08439673435e-09
-8.65345662566e-10
6.36978465717e-11
-3.93836527013e-09
-7.88804947818e-10
-3.78075931549e-09
-7.08881779294e-10
2.11782033292e-12
-7.14522950805e-11
-3.94290550023e-09
-7.98271283956e-10
4.21441528329e-14
-1.20998624663e-10
-4.0995793641e-09
-8.89592457111e-10
-1.45455275453e-10
-4.24454527041e-09
-9.7669847157e-10
-1.44760451456e-10
-4.3660237994e-09
-1.05546760843e-09
-1.21218808391e-10
-4.46232418917e-09
-1.12168948298e-09
-7.95139675209e-11
-4.53178858932e-09
-1.17183108282e-09
-2.62029500456e-11
-4.57496548524e-09
-1.2034293575e-09
3.10109664819e-11
-4.59108544188e-09
-1.21460733398e-09
8.42232381644e-11
-4.57494162555e-09
-1.20335074702e-09
1.2573452642e-10
-4.53174527767e-09
-1.17167691843e-09
1.48994797468e-10
-4.46226959671e-09
-1.1214651667e-09
1.49330309634e-10
-4.36596797816e-09
-1.0551804715e-09
1.24449512213e-10
-4.24449908903e-09
-9.76356573138e-10
7.44209331348e-11
-4.09950265823e-09
-8.89199612372e-10
-3.94271595849e-09
-7.97824033791e-10
2.48111630862e-12
-8.05613078536e-11
-3.96697692236e-09
-8.63185348164e-10
4.33589870631e-14
-1.35603868456e-10
-4.11694369514e-09
-9.63745838562e-10
-1.62552545306e-10
-4.25509677511e-09
-1.05923257373e-09
-1.61454997225e-10
-4.37006810127e-09
-1.14530394607e-09
-1.35033210575e-10
-4.46073739141e-09
-1.21749215817e-09
-8.85050114433e-11
-4.52587075112e-09
-1.27205290912e-09
-2.91435853115e-11
-4.5662346395e-09
-1.30637221409e-09
3.45269286754e-11
-4.58127771141e-09
-1.31847411618e-09
9.37791172005e-11
-4.56619570684e-09
-1.30628424578e-09
1.4009288769e-10
-4.52579742274e-09
-1.27188062688e-09
1.66202444396e-10
-4.46063797827e-09
-1.21724211802e-09
1.66901031855e-10
-4.36995361728e-09
-1.14498524404e-09
1.39481464556e-10
-4.25498063572e-09
-1.05885560267e-09
8.39065979123e-11
-4.11678673682e-09
-9.63316459281e-10
-3.96671115329e-09
-8.62701717933e-10
2.80853005748e-12
-8.85520289657e-11
-3.8771384167e-09
-9.0518189139e-10
4.37928376198e-14
-1.48328032862e-10
-4.01618361856e-09
-1.01295046331e-09
-1.77321080099e-10
-4.14347123552e-09
-1.11478638499e-09
-1.75777511161e-10
-4.2485783929e-09
-1.20625786143e-09
-1.46820611665e-10
-4.33096118224e-09
-1.28277085256e-09
-9.61464452981e-11
-4.38987969869e-09
-1.34048271836e-09
-3.16319741259e-11
-4.42626920427e-09
-1.37670827697e-09
3.75222223428e-11
-4.43979630038e-09
-1.38943717272e-09
1.01918470715e-10
-4.4262129488e-09
-1.37661249792e-09
1.52360403979e-10
-4.38977139206e-09
-1.34029542121e-09
1.80978882649e-10
-4.33080870228e-09
-1.28249978971e-09
1.82090084965e-10
-4.24839310299e-09
-1.20591396807e-09
1.52587049074e-10
-4.14326863956e-09
-1.11438244894e-09
9.22365824153e-11
-4.01592712168e-09
-1.01249425704e-09
-3.8767753098e-09
-9.04673243212e-10
3.10470846022e-12
-9.55001004304e-11
-3.69588734655e-09
-9.2572270933e-10
4.35898186665e-14
-1.59306554821e-10
-3.82126276834e-09
-1.03889388264e-09
-1.89954418304e-10
-3.93510468749e-09
-1.14529321938e-09
-1.87945748388e-10
-4.02828451334e-09
-1.24050054691e-09
-1.56776060792e-10
-4.10081821081e-09
-1.3199043313e-09
-1.0256938708e-10
-4.15245430767e-09
-1.37965992465e-09
-3.3709565875e-11
-4.1842257325e-09
-1.41707998172e-09
4.00534951407e-11
-4.195990335e-09
-1.43017623335e-09
1.08787241896e-10
-4.18414972385e-09
-1.41697781723e-09
1.62746186786e-10
-4.15230581334e-09
-1.37946045527e-09
1.93554867101e-10
-4.10060403803e-09
-1.31961651761e-09
1.95102495719e-10
-4.02801582421e-09
-1.24013719088e-09
1.63911191266e-10
-3.93479818428e-09
-1.14486949118e-09
9.94936374072e-11
-3.82088512191e-09
-1.0384192422e-09
-3.69540143245e-09
-9.25198814232e-10
3.37487964005e-12
-1.01471250806e-10
-3.44398382471e-09
-9.2647933777e-10
4.27494369854e-14
-1.68656139144e-10
-3.55417018438e-09
-1.04349966249e-09
-2.00627724798e-10
-3.65318237696e-09
-1.15294510897e-09
-1.98157344716e-10
-3.73344798929e-09
-1.2504777409e-09
-1.65074667437e-10
-3.7954909012e-09
-1.33155500515e-09
-1.0789016956e-10
-3.83946451556e-09
-1.39241216757e-09
-3.54128469652e-11
-3.86640772193e-09
-1.43042001771e-09
4.21707163533e-11
-3.876324701e-09
-1.44366188284e-09
1.14514909417e-10
-3.86630917648e-09
-1.43031278344e-09
1.71437855179e-10
-3.8392699948e-09
-1.39220311992e-09
2.04139528112e-10
-3.79520566776e-09
-1.33125427423e-09
2.06123617537e-10
-3.73308216675e-09
-1.25009996509e-09
1.73579065976e-10
-3.65275293954e-09
-1.15250777485e-09
1.05750139827e-10
-3.5536469693e-09
-1.04301364809e-09
-3.44334510647e-09
-9.25948362143e-10
3.62423694075e-12
-1.0650780805e-10
-3.14034498586e-09
-9.09252324178e-10
4.13389825144e-14
-1.76489621487e-10
-3.23475780425e-09
-1.02883460228e-09
-2.09527247706e-10
-3.31847346438e-09
-1.14008502482e-09
-2.0661551735e-10
-3.38571938754e-09
-1.23878353548e-09
-1.71887531883e-10
-3.43739201481e-09
-1.32052496115e-09
-1.12218248274e-10
-3.47388386404e-09
-1.38169745111e-09
-3.67760604109e-11
-3.49613768189e-09
-1.41978481888e-09
4.39187177612e-11
-3.50425135176e-09
-1.4329860733e-09
1.1922122306e-10
-3.49601320949e-09
-1.41967376035e-09
1.78616209811e-10
-3.47363639156e-09
-1.38148123532e-09
2.12944935884e-10
-3.43702492918e-09
-1.32021477445e-09
2.15347348081e-10
-3.38524102458e-09
-1.23839575121e-09
1.81709774352e-10
-3.31789983877e-09
-1.13963936508e-09
1.11053634574e-10
-3.23406176401e-09
-1.02834312083e-09
-3.13952045536e-09
-9.08720964735e-10
3.85762668488e-12
-1.10625615891e-10
-2.80200936395e-09
-8.75905127694e-10
3.90973454816e-14
-1.82975654641e-10
-2.88058246826e-09
-9.97040964444e-10
-2.16919033532e-10
-2.94923233779e-09
-1.10913042238e-09
-2.13574177742e-10
-3.00411077749e-09
-1.20806862672e-09
-1.7740526575e-10
-3.0461615466e-09
-1.28965010992e-09
-1.15667403672e-10
-3.07579036121e-09
-1.35048857989e-09
-3.78346128736e-11
-3.09375712198e-09
-1.38823359211e-09
4.53398963799e-11
-3.10020996493e-09
-1.40123939423e-09
1.23026659365e-10
-3.09360234246e-09
-1.38811995742e-09
1.84477944322e-10
-3.07548139892e-09
-1.35026755196e-09
2.20230193019e-10
-3.04569980326e-09
-1.28933370891e-09
2.23043871798e-10
-3.00350208263e-09
-1.20767475488e-09
1.88474840218e-10
-2.94849040756e-09
-1.10868100132e-09
1.15421796086e-10
-2.8796831661e-09
-9.96549217662e-10
-2.8009641585e-09
-8.75379118181e-10
4.07800969625e-12
-1.13956193837e-10
-2.44400794179e-09
-8.28312404991e-10
3.54889588802e-14
-1.8857198412e-10
-2.5066935953e-09
-9.50300030179e-10
-2.2328453206e-10
-2.56124352698e-09
-1.06252742395e-09
-2.19386829546e-10
-2.60511990149e-09
-1.16097540756e-09
-1.81851590125e-10
-2.63877726456e-09
-1.2417227541e-09
-1.18359202872e-10
-2.66245892304e-09
-1.30169009478e-09
-3.86263414675e-11
-2.67671494822e-09
-1.33874323143e-09
4.64752109795e-11
-2.68171445766e-09
-1.35142549475e-09
1.26055457781e-10
-2.6765241052e-09
-1.33862839169e-09
1.89248773086e-10
-2.66207724241e-09
-1.30146678569e-09
2.2634979787e-10
-2.63820482302e-09
-1.24140344873e-09
2.29694564688e-10
-2.60435975261e-09
-1.16057912358e-09
1.94330946889e-10
-2.56030575373e-09
-1.06207829409e-09
1.18983439504e-10
-2.50555566327e-09
-9.49813175319e-10
-2.44270007776e-09
-8.27798119476e-10
4.27652132392e-12
-1.17404156091e-10
-2.07861967136e-09
-7.68320128069e-10
2.93258627835e-14
-1.94396073419e-10
-2.12569725046e-09
-8.90842355758e-10
-2.29355663517e-10
-2.16823044645e-09
-1.00272290627e-09
-2.24453731317e-10
-2.2030014493e-09
-1.1000782013e-09
-1.854464445e-10
-2.22971575001e-09
-1.17942388647e-09
-1.20411027876e-10
-2.24849759779e-09
-1.23807230392e-09
-3.91888152001e-11
-2.25970704114e-09
-1.27414531292e-09
4.73616358804e-11
-2.26349963877e-09
-1.28639927866e-09
1.2842402075e-10
-2.25947206432e-09
-1.27403095454e-09
1.93146648937e-10
-2.24802799984e-09
-1.23784981621e-09
2.31700788485e-10
-2.22901168206e-09
-1.17910562022e-09
2.36026978252e-10
-2.20206440071e-09
-1.09968343624e-09
2.00392000176e-10
-2.16706699727e-09
-1.00227765423e-09
1.22641247814e-10
-2.12428209915e-09
-8.90365606649e-10
-2.07701165839e-09
-7.67826240123e-10
4.46387873106e-12
-1.23173234099e-10
-6.97795120676e-10
2.59867007293e-14
-1.71405880044e-09
-2.02078308639e-10
-8.21088613157e-10
-1.74835163633e-09
-2.3622123767e-10
-9.32099661098e-10
-1.78207451574e-09
-2.29694680195e-10
-1.02778483072e-09
-1.80977175407e-09
-1.88979828286e-10
-1.1052368364e-09
-1.83110043066e-09
-1.22368345849e-10
-1.16220192541e-09
-1.84619103974e-09
-3.9718451181e-11
-1.19706817994e-09
-1.85515141521e-09
4.81921224289e-11
-1.20881295441e-09
-1.85803590507e-09
1.30673334255e-10
-1.19695675677e-09
-1.85486043225e-09
1.96955076207e-10
-1.16198493323e-09
-1.84561071268e-09
2.37193230632e-10
-1.10492589759e-09
-1.8302332166e-09
2.43116306919e-10
-1.0273981429e-09
-1.80862092562e-09
2.0826688332e-10
-9.31663936572e-10
-1.78064396684e-09
1.28578588955e-10
-8.20623191118e-10
-1.74662245132e-09
-6.97340413776e-10
4.62452214251e-12
-1.71210600915e-09
2.78156174687e-13
1.08502860041e-11
-1.15096149812e-10
1.80665300465e-15
5.36607678201e-13
1.19437477842e-11
-1.27308989634e-10
7.14391289228e-13
1.29858613815e-11
-1.39041594462e-10
7.50518821324e-13
1.39506502682e-11
-1.49690694272e-10
6.42705382732e-13
1.47491773571e-11
-1.58659453034e-10
4.1430168267e-13
1.53472616639e-11
-1.65458512739e-10
1.07395726533e-13
1.57222010447e-11
-1.69760394414e-10
-2.26114360111e-13
1.58557817656e-11
-1.71304610524e-10
-5.28944228631e-13
1.57181555267e-11
-1.69754304532e-10
-7.49638629904e-13
1.53382387081e-11
-1.65446542384e-10
-8.47933262416e-13
1.47338661929e-11
-1.58641981433e-10
-8.0263693828e-13
1.39297748023e-11
-1.4966816759e-10
-6.16089498483e-13
1.29637545199e-11
-1.39014248615e-10
-3.48540162091e-13
1.19241226136e-11
-1.27275919292e-10
1.08366195598e-11
-1.15052904369e-10
-5.18954552113e-14
9.69347444405e-13
3.49214495359e-11
-3.17649727156e-10
-3.17064542682e-14
1.80237682213e-12
3.81545117728e-11
-3.51310672723e-10
2.3293580483e-12
4.12505413588e-11
-3.83595653535e-10
2.42503418428e-12
4.40631247004e-11
-4.12858118167e-10
2.06995086146e-12
4.63839424415e-11
-4.37479734642e-10
1.33245448482e-12
4.81118112016e-11
-4.56133081011e-10
3.41144162146e-13
4.91915931765e-11
-4.67925143147e-10
-7.36450826586e-13
4.95757592963e-11
-4.72146714426e-10
-1.71627056207e-12
4.91793457854e-11
-4.67907191152e-10
-2.43074784024e-12
4.80843892434e-11
-4.56097790112e-10
-2.75241279141e-12
4.63372088145e-11
-4.37428211872e-10
-2.61637523563e-12
4.39981455249e-11
-4.12791702018e-10
-2.04477261227e-12
4.11782369385e-11
-3.83515168768e-10
-1.16485422253e-12
3.80896242721e-11
-3.51213835915e-10
3.48759123313e-11
-3.17527439832e-10
-1.77603192149e-13
1.62679195921e-12
6.37261283536e-11
-4.86894833688e-10
5.03725152857e-15
3.06915846405e-12
6.9113798912e-11
-5.38838137463e-10
3.9663569053e-12
7.4298088869e-11
-5.88546898178e-10
4.13883087556e-12
7.89532937113e-11
-6.33532742494e-10
3.54994718232e-12
8.27779237634e-11
-6.71344718454e-10
2.31153081809e-12
8.56085916938e-11
-6.99970167884e-10
6.40731471168e-13
8.73708496738e-11
-7.18048304987e-10
-1.17793758271e-12
8.7998371624e-11
-7.24503959618e-10
-2.83534361948e-12
8.73541513636e-11
-7.18019921507e-10
-4.04832110468e-12
8.55718381994e-11
-6.99914408562e-10
-4.60294153121e-12
8.27166763467e-11
-6.71263385611e-10
-4.39125418997e-12
7.88693482945e-11
-6.33428014074e-10
-3.4505514035e-12
7.42047900726e-11
-5.88420279507e-10
-1.95596482185e-12
6.90296131093e-11
-5.38686843504e-10
6.36640344905e-11
-4.86707252053e-10
-2.6024742084e-13
2.28748665481e-12
9.10789156516e-11
-6.25081606115e-10
3.13642690386e-14
4.30040800834e-12
9.80394412526e-11
-6.9243762704e-10
5.53055345421e-12
1.04768395663e-10
-7.5671912223e-10
5.75652729507e-12
1.10753496224e-10
-8.14790158893e-10
4.93634026644e-12
1.15643278717e-10
-8.63542194619e-10
3.22319040445e-12
1.1923986168e-10
-9.00418231345e-10
9.15346546244e-13
1.21470110117e-10
-9.23681024542e-10
-1.59631304973e-12
1.22265224309e-10
-9.31966609827e-10
-3.88943901792e-12
1.21452310942e-10
-9.23642845982e-10
-5.57510382056e-12
1.19201334493e-10
-9.00343314816e-10
-6.3588678033e-12
1.15580424039e-10
-8.63433130502e-10
-6.09097596807e-12
1.10668597599e-10
-8.14650172595e-10
-4.81276529608e-12
1.0467420405e-10
-7.56550870847e-10
-2.73876466181e-12
9.79533252246e-11
-6.92239002422e-10
9.10119819132e-11
-6.24840824383e-10
-3.41978144082e-13
2.92580664243e-12
1.13343324929e-10
-7.34482805303e-10
4.84426174387e-14
5.43216676261e-12
1.21093455486e-10
-8.14667198831e-10
6.93244029293e-12
1.28618428716e-10
-8.90949526266e-10
7.18031129074e-12
1.35256413661e-10
-9.59722335931e-10
6.14060242556e-12
1.40645574606e-10
-1.0173792808e-09
4.00577261094e-12
1.44583946383e-10
-1.06094764229e-09
1.1428940205e-12
1.4701626092e-10
-1.08839793937e-09
-1.96935005986e-12
1.47884760043e-10
-1.09814824133e-09
-4.81605880642e-12
1.46999774509e-10
-1.08835065178e-09
-6.92058794425e-12
1.44548718964e-10
-1.06085498576e-09
-7.91950117687e-12
1.40589082395e-10
-1.01724474434e-09
-7.62329353485e-12
1.3518097872e-10
-9.59550419749e-10
-6.0659661781e-12
1.28535089965e-10
-8.90744475003e-10
-3.48696755048e-12
1.21015828332e-10
-8.14428311739e-10
1.13280514242e-10
-7.34199399469e-10
-4.21176374044e-13
3.5154953004e-12
1.28808785594e-10
-8.17278207215e-10
5.95649547524e-14
6.41754373779e-12
1.36611706934e-10
-9.0797400434e-10
8.11238948319e-12
1.44217587425e-10
-9.93952967159e-10
8.34844463238e-12
1.50878625283e-10
-1.07129041379e-09
7.10941040293e-12
1.56251206482e-10
-1.13602565524e-09
4.62387006148e-12
1.6015165464e-10
-1.18488647846e-09
1.31260654232e-12
1.62550773091e-10
-1.21562809208e-09
-2.28080026462e-12
1.63408939675e-10
-1.22651509739e-09
-5.57432188269e-12
1.62536796572e-10
-1.21557241701e-09
-8.02623034196e-12
1.60122097738e-10
-1.18477757064e-09
-9.21884413462e-12
1.56204518723e-10
-1.13586801332e-09
-8.92606859737e-12
1.50816905027e-10
-1.07109002295e-09
-7.16317443781e-12
1.44149770296e-10
-9.93715995676e-10
-4.17576347701e-12
1.36547096041e-10
-9.07701508405e-10
1.28753798774e-10
-8.1696097075e-10
-4.9656257086e-13
4.03035412637e-12
1.37122692636e-10
-8.75565639318e-10
6.69857817392e-14
7.22236705611e-12
1.44416536113e-10
-9.74708762189e-10
9.03249726666e-12
1.51546411557e-10
-1.06833670298e-09
9.22528651961e-12
1.57752593804e-10
-1.15233923541e-09
7.81404135334e-12
1.62725487086e-10
-1.22252764861e-09
5.05941468417e-12
1.66312015476e-10
-1.27543404895e-09
1.41949391785e-12
1.68509264867e-10
-1.30866807193e-09
-2.52172535914e-12
1.69296775712e-10
-1.32039934783e-09
-6.14227749421e-12
1.68498157959e-10
-1.30860475515e-09
-8.85970691088e-12
1.66288707063e-10
-1.27531042038e-09
-1.02184432972e-11
1.62689045695e-10
-1.22234931187e-09
-9.95992098618e-12
1.57704746607e-10
-1.15211382795e-09
-8.07034459696e-12
1.51493874174e-10
-1.06807253301e-09
-4.78037503157e-12
1.44364900368e-10
-9.74408721904e-10
1.37075136484e-10
-8.752220824e-10
-5.67105359442e-13
4.44967130136e-12
1.38813474815e-10
-9.11366413511e-10
7.19534263898e-14
7.82606249843e-12
1.45252725484e-10
-1.01713319674e-09
9.67477165383e-12
1.51550170637e-10
-1.11660832604e-09
9.79792336872e-12
1.57004558527e-10
-1.20560488842e-09
8.24666750196e-12
1.61345925706e-10
-1.27981491526e-09
5.30881831262e-12
1.64456526883e-10
-1.33566659148e-09
1.46324376178e-12
1.6635479136e-10
-1.37068703934e-09
-2.68958004715e-12
1.67036412645e-10
-1.38300399416e-09
-6.51416502005e-12
1.6634605984e-10
-1.37061683814e-09
-9.41125651502e-12
1.64438300979e-10
-1.33552978099e-09
-1.09039378194e-11
1.61317620571e-10
-1.27961826852e-09
-1.07062252244e-11
1.56967490495e-10
-1.20535780404e-09
-8.7669989161e-12
1.51509156556e-10
-1.11632135552e-09
-5.28095829944e-12
1.45209872327e-10
-1.01681097445e-09
1.38769702892e-10
-9.11002965529e-10
-6.32465225365e-13
4.75938368591e-12
1.34912006693e-10
-9.26630677635e-10
7.53893300607e-14
8.21968184505e-12
1.40352248353e-10
-1.0374277515e-09
1.00378461124e-11
1.45650084455e-10
-1.14118480335e-09
1.00721644735e-11
1.50218211821e-10
-1.23372371275e-09
8.41667568187e-12
1.53828176961e-10
-1.31070852041e-09
5.38042322286e-12
1.56397927584e-10
-1.36854423751e-09
1.44749608171e-12
1.57960169488e-10
-1.40473290055e-09
-2.78682839192e-12
1.58521836774e-10
-1.41740882295e-09
-6.6971962324e-12
1.57952798535e-10
-1.40465657452e-09
-9.6892766305e-12
1.5638256324e-10
-1.36839576527e-09
-1.12804557019e-11
1.53804332456e-10
-1.31049586471e-09
-1.11633641668e-11
1.50186679354e-10
-1.23345807653e-09
-9.24450747914e-12
1.45614150073e-10
-1.14087899239e-09
-5.66384022659e-12
1.40311109696e-10
-1.03708795037e-09
1.3486435254e-10
-9.2625278068e-10
-6.92406759859e-13
4.95142992847e-12
1.2666925387e-10
-9.23243042258e-10
7.78156445181e-14
8.40350653791e-12
1.31123425973e-10
-1.03770055052e-09
1.01331536848e-11
1.35402031672e-10
-1.1444037862e-09
1.0068390693e-11
1.39070754077e-10
-1.23924369964e-09
8.34696516522e-12
1.41945971123e-10
-1.31793103435e-09
5.29201795287e-12
1.43979341864e-10
-1.37691961375e-09
1.37913005488e-12
1.45210978302e-10
-1.41373990928e-09
-2.81967475722e-12
1.45653558654e-10
-1.42657769534e-09
-6.70854469942e-12
1.45203459876e-10
-1.41365821988e-09
-9.71617782788e-12
1.43963683847e-10
-1.37676097093e-09
-1.13681235577e-11
1.41921592855e-10
-1.31770455333e-09
-1.134275916e-11
1.39037975964e-10
-1.23896236252e-09
-9.5033483052e-12
1.35362815368e-10
-1.14408260144e-09
-5.92138046095e-12
1.31074584015e-10
-1.03734702022e-09
1.2660776348e-10
-9.22855204893e-10
-7.46686978582e-13
5.02307383229e-12
1.15362788154e-10
-9.03028106717e-10
7.99696356197e-14
8.38532976244e-12
1.18944111153e-10
-1.01999836757e-09
9.98306159125e-12
1.22277028204e-10
-1.12853799674e-09
9.81964016623e-12
1.25107903132e-10
-1.22463816279e-09
8.07199068753e-12
1.27304472888e-10
-1.30411769976e-09
5.06941349282e-12
1.28848530978e-10
-1.36354677314e-09
1.2677834027e-12
1.29780524355e-10
-1.40053629137e-09
-2.79734858785e-12
1.30114184682e-10
-1.41336577493e-09
-6.57365942476e-12
1.29771045468e-10
-1.40045001851e-09
-9.52615361268e-12
1.28828899704e-10
-1.36337944396e-09
-1.11998436313e-11
1.27273841448e-10
-1.30387947e-09
-1.12668436392e-11
1.25066026679e-10
-1.22434369605e-09
-9.55154833479e-12
1.22224705416e-10
-1.12820443424e-09
-6.05106180049e-12
1.18876361874e-10
-1.01963432736e-09
1.15274956171e-10
-9.02634005611e-10
-7.95087232007e-13
4.97571669802e-12
1.02173163828e-10
-8.6775515033e-10
8.24964235041e-14
8.18146056293e-12
1.05035530208e-10
-9.86321659398e-10
9.62332757719e-12
1.07535628969e-10
-1.09581397299e-09
9.37363793611e-12
1.09626166683e-10
-1.19232056342e-09
7.63890300298e-12
1.11231418115e-10
-1.27182628062e-09
4.74673086765e-12
1.12355342102e-10
-1.33108787883e-09
1.12601672346e-12
1.13032053021e-10
-1.36784949324e-09
-2.73210134957e-12
1.13271451133e-10
-1.38052440115e-09
-6.32635809354e-12
1.13018621234e-10
-1.36775948209e-09
-9.16613483534e-12
1.1232759052e-10
-1.33091342121e-09
-1.0823207421e-11
1.11188299244e-10
-1.2715783574e-09
-1.0971326411e-11
1.09566702058e-10
-1.19201532586e-09
-9.40540464086e-12
1.07459473268e-10
-1.09547067e-09
-6.05446210868e-12
1.04936228635e-10
-9.85950043403e-10
1.02045604281e-10
-8.67358010199e-10
-8.36988141663e-13
4.81624263302e-12
8.81152644281e-11
-8.19140855617e-10
8.67494897174e-14
7.82559089278e-12
9.03901613276e-11
-9.38649861062e-10
9.11376444868e-12
9.2170693057e-11
-1.04843608446e-09
8.80090160148e-12
9.36337325812e-11
-1.14465583938e-09
7.11216903755e-12
9.47514183029e-11
-1.22353997764e-09
4.36883204603e-12
9.55353578989e-11
-1.28211299285e-09
9.69793366451e-13
9.60062814e-11
-1.31830535244e-09
-2.63955974299e-12
9.61685033978e-11
-1.33070025573e-09
-6.01120590578e-12
9.59865663186e-11
-1.31821261064e-09
-8.70013036376e-12
9.54950760749e-11
-1.28193322212e-09
-1.03082724879e-11
9.46891488073e-11
-1.22328462046e-09
-1.05155364264e-11
9.35479240895e-11
-1.14434215372e-09
-9.09829937245e-12
9.2059424924e-11
-1.04808546357e-09
-5.93802411935e-12
9.02457834439e-11
-9.382738882e-10
8.79328060269e-11
-8.18744840845e-10
-8.70309883101e-13
4.56220242839e-12
7.400123526e-11
-7.58847662932e-10
9.48811987975e-14
7.38261383472e-12
7.57343379806e-11
-8.78994741321e-10
8.5489054678e-12
7.69023422017e-11
-9.88608500539e-10
8.20022497188e-12
7.78694100481e-11
-1.08395253403e-09
6.57607512496e-12
7.86156345945e-11
-1.16165151834e-09
3.99178196678e-12
7.91448160635e-11
-1.21908543692e-09
8.19166065449e-13
7.94616591312e-11
-1.25441611028e-09
-2.53942899525e-12
7.95635186609e-11
-1.26642448522e-09
-5.68363714187e-12
7.943302904e-11
-1.25432198222e-09
-8.2116526986e-12
7.90867081594e-11
-1.21890278649e-09
-9.75258264227e-12
7.8526713299e-11
-1.16139169837e-09
-9.99271778853e-12
7.77476500183e-11
-1.08363311784e-09
-8.69407969146e-12
7.67450136327e-11
-9.88252766484e-10
-5.71930548196e-12
7.55315616265e-11
-8.78618052576e-10
7.3748197297e-11
-7.58459428528e-10
-8.94144048354e-13
4.15967903092e-12
-6.88568023777e-10
1.07328776891e-13
6.05215600915e-11
6.92901138036e-12
-8.09587218171e-10
6.14745604147e-11
8.03794671108e-12
-9.18517005765e-10
6.22219779006e-11
7.68156901527e-12
-1.01240496202e-09
6.28569282013e-11
6.12425522785e-12
-1.08841209184e-09
6.33593694367e-11
3.67898515168e-12
-1.14432418212e-09
6.37233691056e-11
6.96341546862e-13
-1.17855220963e-09
6.39388031278e-11
-2.45314935108e-12
-1.19008779846e-09
6.3998118942e-11
-5.4062945787e-12
-1.17845884745e-09
6.38979023212e-11
-7.79313058133e-12
-1.14414273605e-09
6.36411888409e-11
-9.26455045865e-12
-1.08815322114e-09
6.3234995771e-11
-9.50959356661e-12
-1.0120852574e-09
6.26889083002e-11
-8.26637543296e-12
-9.18160578859e-10
6.20068333248e-11
-5.34284055012e-12
-8.09210038278e-10
6.12026404786e-11
-6.88204283261e-10
-9.06129342462e-13
6.01825268551e-11
-7.91338647321e-14
-7.19344636148e-13
-1.14289650138e-10
1.35467406629e-14
-1.16664730052e-13
-7.86725069339e-13
-1.26458701685e-10
-1.35727561928e-13
-8.3818102712e-13
-1.38154467877e-10
-1.32903938738e-13
-8.91049545957e-13
-1.48777501868e-10
-1.07884852354e-13
-9.30813349464e-13
-1.57728841365e-10
-6.52329506576e-14
-9.60248262362e-13
-1.64517361372e-10
-1.19857337602e-14
-9.79325063464e-13
-1.68813515328e-10
4.42217478939e-14
-9.87428778586e-13
-1.7035563408e-10
9.52007943443e-14
-9.82237229875e-13
-1.6880757277e-10
1.33505572535e-13
-9.65273791632e-13
-1.64505653469e-10
1.5302452242e-13
-9.37029439262e-13
-1.57711671573e-10
1.50318141724e-13
-8.9819352006e-13
-1.48755194426e-10
1.23744070412e-13
-8.49099187804e-13
-1.38127114618e-10
8.04681052646e-14
-7.9652589229e-13
-1.26425216608e-10
-7.26978563569e-13
-1.14245458644e-10
1.02784758545e-14
-2.22500269134e-13
-3.13683173027e-12
-3.15010987366e-10
3.68538479356e-14
-3.42296965045e-13
-3.445418192e-12
-3.48489021633e-10
-4.01135775841e-13
-3.71406574388e-12
-3.8061570624e-10
-3.93671907321e-13
-3.96038991716e-12
-4.09754968548e-10
-3.20567902627e-13
-4.15795333068e-12
-4.34285896259e-10
-1.93783032661e-13
-4.30503550309e-12
-4.52878046849e-10
-3.23881951778e-14
-4.3991864013e-12
-4.64634037468e-10
1.39749300077e-13
-4.43550242767e-12
-4.68842518499e-10
2.96247088559e-13
-4.4049663373e-12
-4.64616090169e-10
4.12821609964e-13
-4.31444407761e-12
-4.52842758741e-10
4.70371716813e-13
-4.16774233636e-12
-4.34234321744e-10
4.57897039411e-13
-3.96965096532e-12
-4.09688295026e-10
3.74334041362e-13
-3.72777387781e-12
-3.80534501451e-10
2.31987224554e-13
-3.4600850241e-12
-3.48390640348e-10
-3.15276467823e-12
-3.14885979548e-10
3.22289030433e-14
-3.34834757327e-13
-6.66796103342e-12
-4.83032080517e-10
3.56181414097e-14
-5.51413511574e-13
-7.30491162066e-12
-5.34722596796e-10
-6.6720379333e-13
-7.88339348113e-12
-5.84221412149e-10
-6.69566662619e-13
-8.40251931102e-12
-6.29050374983e-10
-5.57604119245e-13
-8.82589772812e-12
-6.66752351342e-10
-3.50635275518e-13
-9.14115257775e-12
-6.95307067753e-10
-8.21594036661e-14
-9.34111269278e-12
-7.13344741697e-10
2.05914052592e-13
-9.41598847432e-12
-7.19785268523e-10
4.68400919434e-13
-9.34886383169e-12
-7.13315242607e-10
6.63857146929e-13
-9.15411576888e-12
-6.9524911589e-10
7.60167910737e-13
-8.84013683813e-12
-6.66667801306e-10
7.3918940301e-13
-8.41691925619e-12
-6.28941433141e-10
6.00877820662e-13
-7.90287637695e-12
-5.84089558826e-10
3.62297105873e-13
-7.32723534154e-12
-5.34564939163e-10
-6.69175779995e-12
-4.82836828439e-10
4.57297632063e-14
-4.37742441506e-13
-1.06437287035e-11
-6.20669620439e-10
3.17858003581e-14
-7.48335928717e-13
-1.16193681761e-11
-6.8777776862e-10
-9.20462457218e-13
-1.25238070607e-11
-7.5187042584e-10
-9.33284830677e-13
-1.33291488734e-11
-8.09816018068e-10
-7.84979547767e-13
-1.399018955e-11
-8.58493194198e-10
-5.0154968124e-13
-1.44822662908e-11
-8.95330013265e-10
-1.2988192514e-13
-1.47926317861e-11
-9.18573862458e-10
2.70558696702e-13
-1.49072490976e-11
-9.26851606619e-10
6.35986365394e-13
-1.4801870542e-11
-9.18533624049e-10
9.07831483025e-13
-1.44984741314e-11
-8.95251054964e-10
1.04104094025e-12
-1.40098617793e-11
-8.58378250563e-10
1.01076067767e-12
-1.33510294582e-11
-8.09668494052e-10
8.17700314812e-13
-1.25512467899e-11
-7.51693148783e-10
4.85640225663e-13
-1.16503529822e-11
-6.87568736956e-10
-1.06758920234e-11
-6.2041703372e-10
5.96031601717e-14
-5.37097404976e-13
-1.45574742561e-11
-7.30034237035e-10
2.98093171877e-14
-9.345908081e-13
-1.58313111628e-11
-8.10028004367e-10
-1.15785791749e-12
-1.70266343744e-11
-8.86191665636e-10
-1.1787847124e-12
-1.80866438399e-11
-9.54913359012e-10
-9.95324533689e-13
-1.89580960017e-11