/*--------------------------------*- C++ -*----------------------------------*\
  =========                 |
  \\      /  F ield         | OpenFOAM: The Open Source CFD Toolbox
   \\    /   O peration     | Website:  https://openfoam.org
    \\  /    A nd           | Version:  7
     \\/     M anipulation  |
\*---------------------------------------------------------------------------*/
FoamFile
{
    version     2.0;
    format      ascii;
    class       volVectorField;
    location    "1.9";
    object      U;
}
// * * * * * * * * * * * * * * * * * * * * * * * * * * * * * * * * * * * * * //

dimensions      [0 1 -1 0 0 0 0];

internalField   nonuniform List<vector> 
22500
(
(1.24362931456e-05 1.39475545736e-05 0.000190126675102)
(1.15737978209e-05 1.57257049321e-05 0.000199563305908)
(1.01333597817e-05 1.75168339502e-05 0.000208146312207)
(8.52008739615e-06 1.90380894167e-05 0.000215551038436)
(6.62328763631e-06 2.02962242764e-05 0.000221548583393)
(4.53474264864e-06 2.12305924588e-05 0.000225959574557)
(2.30435093207e-06 2.18065111219e-05 0.000228659461634)
(3.87006039791e-10 2.20013119935e-05 0.000229573231375)
(-2.30358832346e-06 2.18065653225e-05 0.000228659453099)
(-4.53401140727e-06 2.12306969798e-05 0.000225959560539)
(-6.6226074332e-06 2.02963685239e-05 0.000221548565961)
(-8.51947447344e-06 1.90382618338e-05 0.000215551022521)
(-1.01328399326e-05 1.751701367e-05 0.000208146329652)
(-1.15733384777e-05 1.57259141688e-05 0.000199563566847)
(-1.24359814587e-05 1.39477579264e-05 0.000190128227849)
(3.62192199231e-05 4.06431177916e-05 0.000499262511158)
(3.36397509098e-05 4.57165938246e-05 0.00052048422453)
(2.95428761957e-05 5.07756871788e-05 0.000539561733292)
(2.48130619722e-05 5.51122924914e-05 0.000555863659126)
(1.92970560753e-05 5.86996625313e-05 0.000568960983671)
(1.32107799444e-05 6.13663391039e-05 0.000578534525328)
(6.71272577543e-06 6.30114529337e-05 0.000584369308023)
(9.8871962165e-10 6.35677863205e-05 0.000586337073332)
(-6.71077420081e-06 6.30115756648e-05 0.000584369283165)
(-1.32089016448e-05 6.13665752781e-05 0.000578534481827)
(-1.92952956732e-05 5.8699988191e-05 0.000568960924238)
(-2.48114582641e-05 5.51126811734e-05 0.000555863594408)
(-2.95414773776e-05 5.07760949547e-05 0.000539561752018)
(-3.36385109751e-05 4.57170699908e-05 0.000520484931343)
(-3.62183624204e-05 4.06435916496e-05 0.000499266271133)
(5.46350462217e-05 6.12026639999e-05 0.000749950992957)
(5.04907419894e-05 6.84725725153e-05 0.000778088735192)
(4.42517180201e-05 7.56625655992e-05 0.000803114220215)
(3.7055597308e-05 8.18113849446e-05 0.000824324782598)
(2.8759457177e-05 8.68776153838e-05 0.000841249110326)
(1.96571360796e-05 9.0633887189e-05 0.000853555527317)
(9.97843684096e-06 9.294722601e-05 0.000861028343711)
(1.45986564509e-09 9.37287951812e-05 0.000863541440803)
(-9.97555155113e-06 9.29473782232e-05 0.000861028284797)
(-1.96543497623e-05 9.06341791725e-05 0.00085355541688)
(-2.87568298276e-05 8.68780168718e-05 0.000841248947537)
(-3.70531803895e-05 8.18118599492e-05 0.000824324575102)
(-4.42495711693e-05 7.56630639921e-05 0.000803114077019)
(-5.04888225249e-05 6.84731590242e-05 0.000778089475264)
(-5.46336798925e-05 6.1203269441e-05 0.000749955869107)
(6.88249085747e-05 7.69516976391e-05 0.000953825325421)
(6.32952780752e-05 8.55843403342e-05 0.000985474708976)
(5.5324729682e-05 9.40782822357e-05 0.00101330764881)
(4.61834527028e-05 0.000101303866164 0.0010367003551)
(3.57624127799e-05 0.000107232290428 0.00105523616068)
(2.44011448182e-05 0.000111613715782 0.001068642823)
(1.23734151367e-05 0.000114306447632 0.00107675330287)
(1.81367699194e-09 0.000115215152023 0.00107947373082)
(-1.23698278149e-05 0.000114306619955 0.00107675318246)
(-2.43976735847e-05 0.000111614045717 0.00106864258675)
(-3.57591278116e-05 0.000107232744277 0.00105523579727)
(-4.61804116466e-05 0.000101304401373 0.00103669985369)
(-5.5321994205e-05 9.40788446196e-05 0.00101330709088)
(-6.32928092222e-05 8.55850010816e-05 0.000985474942492)
(-6.88230852782e-05 7.69523918109e-05 0.000953829951608)
(7.96401628711e-05 8.88994963884e-05 0.00111965096183)
(7.29075862847e-05 9.82655328672e-05 0.00115240620215)
(6.35410507423e-05 0.000107451433942 0.00118086101344)
(5.28796040074e-05 0.000115217675306 0.00120455967758)
(4.08544522325e-05 0.000121561584674 0.00122319832696)
(2.78273793484e-05 0.000126234496707 0.00123660259687)
(1.40959291178e-05 0.000129100086463 0.00124467924535)
(2.07936574687e-09 0.000130065987244 0.00124738135849)
(-1.40918143549e-05 0.000129100277591 0.00124467904572)
(-2.7823392651e-05 0.000126234862623 0.0012366021941)
(-4.08506705808e-05 0.000121562089411 0.00122319768924)
(-5.28760881427e-05 0.000115218272023 0.00120455875452)
(-6.35378572754e-05 0.000107452063564 0.00118085981026)
(-7.29046785417e-05 9.82662697947e-05 0.00115240548404)
(-7.96379359377e-05 8.89002782621e-05 0.00111965437082)
(8.75396238595e-05 9.75692205067e-05 0.00125424503583)
(7.97832901397e-05 0.000107152569821 0.00128641559328)
(6.9317427208e-05 0.000116534421722 0.00131398830484)
(5.7509201246e-05 0.000124414275135 0.00133672164469)
(4.43289318693e-05 0.000130820337387 0.0013544547697)
(3.01416838387e-05 0.000135522935942 0.00136712767001)
(1.52521650965e-05 0.000138400171595 0.00137473015626)
(2.28212810103e-09 0.000139368860984 0.00137726688882)
(-1.52476476681e-05 0.000138400384819 0.00137472986924)
(-3.01373032691e-05 0.000135523344743 0.00136712707887)
(-4.43247696558e-05 0.000130820904127 0.00135445381085)
(-5.75053194325e-05 0.000124414949563 0.00133672020627)
(-6.93138727685e-05 0.000116535141236 0.0013139862769)
(-7.97800254574e-05 0.000107153407576 0.00128641361485)
(-8.75370462522e-05 9.7570117042e-05 0.00125424673052)
(9.28971117365e-05 0.000103375430341 0.00136306057906)
(8.42918414017e-05 0.000112756548561 0.00139348916133)
(7.29950323447e-05 0.000121933145766 0.00141918197512)
(6.03711444678e-05 0.000129587722727 0.00144012705353)
(4.6426160588e-05 0.000135778785318 0.0014563155837)
(3.15127411232e-05 0.000140307841762 0.00146780303534)
(1.59291397384e-05 0.000143072471893 0.00147466058219)
(2.44378105965e-09 0.000144002177993 0.0014769422682)
(-1.59243014197e-05 0.000143072714698 0.00147466020632)
(-3.15080467697e-05 0.000140308308501 0.00146780224793)
(-4.6421695007e-05 0.000135779437219 0.0014563142788)
(-6.03669699299e-05 0.00012958850606 0.0014401250392)
(-7.29911849411e-05 0.00012193399504 0.00141917900254)
(-8.42882800013e-05 0.000112757530592 0.00139348575212)
(-9.28942296413e-05 0.000103376485163 0.00136306036892)
(9.60694391172e-05 0.000106717203879 0.00145055418076)
(8.67834382024e-05 0.0001155678633 0.00147849114878)
(7.48975930216e-05 0.000124224748646 0.00150169071863)
(6.17483089506e-05 0.000131394398102 0.00152036388149)
(4.73730977869e-05 0.000137161843279 0.00153464686089)
(3.20995523207e-05 0.000141366671768 0.00154470087082)
(1.62087574513e-05 0.000143927561609 0.00155066931666)
(2.58298727034e-09 0.000144787814438 0.0015526489916)
(-1.62036429004e-05 0.000143927843901 0.00155066885601)
(-3.20945879192e-05 0.000141367216785 0.00154469989165)
(-4.73683711415e-05 0.000137162611121 0.00153464520699)
(-6.17438826481e-05 0.000131395331681 0.00152036126863)
(-7.48934925297e-05 0.000124225778612 0.00150168675211)
(-8.67796212386e-05 0.000115569046251 0.00147848627716)
(-9.60662924143e-05 0.00010671847115 0.00145055209958)
(9.73831528841e-05 0.000107962566334 0.00152042469384)
(8.75753597757e-05 0.000116034146246 0.00154543520268)
(7.53173833032e-05 0.00012393107313 0.0015658220177)
(6.18954916433e-05 0.000130422749379 0.00158199693792)
(4.73736907617e-05 0.000135615661514 0.00159422274762)
(3.20446597881e-05 0.000139389673001 0.00160274936247)
(1.61643179361e-05 0.000141683412363 0.00160777865185)
(2.71614206934e-09 0.000142453185086 0.00160944095759)
(-1.61589389494e-05 0.000141683745005 0.00160777811712)
(-3.20394364635e-05 0.000139390318593 0.00160274821159)
(-4.73687134246e-05 0.000135616579343 0.00159422077096)
(-6.18908241789e-05 0.000130423878808 0.00158199375526)
(-7.53130433292e-05 0.000123932339831 0.00156581709669)
(-8.7571308758e-05 0.00011603559157 0.00154542898512)
(-9.73797729623e-05 0.000107964105446 0.0015204209673)
(9.71299030395e-05 0.000107441887851 0.00157577180841)
(8.69476674235e-05 0.000114551240421 0.00159766306066)
(7.4511295972e-05 0.000121508414372 0.00161514040312)
(6.10364775467e-05 0.000127182879598 0.00162878327829)
(4.66067329288e-05 0.000131697372984 0.00163895497199)
(3.14726820268e-05 0.000134969768687 0.00164597281221)
(1.58597633344e-05 0.000136955305176 0.00165008109172)
(2.8576853534e-09 0.000137621151546 0.00165143345796)
(-1.58541026851e-05 0.000136955697815 0.00165008050448)
(-3.14671814682e-05 0.000134970534802 0.00164597153491)
(-4.66014859418e-05 0.000131698471995 0.00163895274522)
(-6.10315510587e-05 0.000127184247604 0.00162877963193)
(-7.45067046468e-05 0.000121509970856 0.00161513468727)
(-8.69433835568e-05 0.000114553007242 0.00159765578818)
(-9.71263079723e-05 0.000107443757267 0.00157576686361)
(9.55691837655e-05 0.000105452147615 0.0016192026158)
(8.51462741635e-05 0.000111465834457 0.00163796491696)
(7.2704555082e-05 0.000117350436858 0.00165260198646)
(5.9367710442e-05 0.000122111630669 0.00166381923779)
(4.52287246858e-05 0.000125882231969 0.00167205014131)
(3.04921413292e-05 0.000128611047747 0.0016776566906)
(1.53505540937e-05 0.000130265010907 0.00168090928845)
(3.01987743219e-09 0.00013081941437 0.0016819747978)
(-1.53445697574e-05 0.00013026546951 0.00168090868888)
(-3.04863197754e-05 0.000128611947415 0.00167765537462)
(-4.52231628976e-05 0.000125883533776 0.00167204781291)
(-5.93624812446e-05 0.000122113268977 0.00166381535387)
(-7.26996768862e-05 0.000117352324298 0.00165259580577)
(-8.51417379494e-05 0.000111467970903 0.00163795710214)
(-9.55653735169e-05 0.000105454395565 0.00161919713295)
(9.29293197557e-05 0.000102260227575 0.00165290302071)
(8.23868579451e-05 0.00010707561218 0.00166866309152)
(7.0096870134e-05 0.000111790418751 0.00168065064701)
(5.7063456798e-05 0.000115578950049 0.00168964692979)
(4.33770401046e-05 0.000118572431806 0.00169612457936)
(2.91970854902e-05 0.000120738606489 0.00170046887581)
(1.46843375725e-05 0.000122050979791 0.00170296137472)
(3.21217412623e-09 0.00012249078539 0.00170377304462)
(-1.46779682493e-05 0.000122051504142 0.00170296083225)
(-2.91908790493e-05 0.000120739640127 0.00170046767506)
(-4.33710974139e-05 0.000118573940346 0.00169612241482)
(-5.70578598753e-05 0.000115580869228 0.00168964321611)
(-7.00916494769e-05 0.000111792655938 0.00168064457422)
(-8.23820315803e-05 0.000107078143701 0.00166865552642)
(-9.29252722762e-05 0.000102262883188 0.00165289800607)
(8.94045630045e-05 9.80873283027e-05 0.00167868317923)
(7.88665248929e-05 0.000101619746379 0.00169167472077)
(6.68747408757e-05 0.000105106165576 0.00170129324624)
(5.42820609518e-05 0.000107899368306 0.00170833739706)
(4.11718284646e-05 0.000110110291117 0.00171329405457)
(2.76673259201e-05 0.000111711407817 0.00171655480599)
(1.3900861718e-05 0.000112680779855 0.00171839971327)
(3.44028883013e-09 0.00011300549022 0.00171899603563)
(-1.3894034954e-05 0.000112681360321 0.00171839933655)
(-2.76606590992e-05 0.000111712557699 0.00171655396341)
(-4.11654257936e-05 0.000110111983579 0.00171329247995)
(-5.42760173726e-05 0.000107901546483 0.0017083345191)
(-6.68691086284e-05 0.000105108736408 0.00170128819758)
(-7.88613581368e-05 0.000101622664737 0.00169166852859)
(-8.94002459998e-05 9.80903798725e-05 0.00167867991808)
(8.51958245078e-05 9.30934302148e-05 0.0016979998169)
(7.48134011921e-05 9.53185827044e-05 0.00170857311961)
(6.32289637935e-05 9.75455104154e-05 0.00171616823205)
(5.11634083393e-05 9.93610682939e-05 0.00172156050013)
(3.87100878083e-05 0.000100801425789 0.00172524771252)
(2.596405877e-05 0.000101841801997 0.0017276158435)
(1.30299336833e-05 0.000102469276338 0.0017289323948)
(3.7042086837e-09 0.000102679068282 0.00172935398087)
(-1.30225766925e-05 0.000102469892374 0.00172893233082)
(-2.59568560571e-05 0.000101843028009 0.00172761569066)
(-3.87031457025e-05 0.000100803244975 0.00172524732446)
(-5.11568367692e-05 9.93634392879e-05 0.00172155943799)
(-6.32228462175e-05 9.75483538027e-05 0.00171616561643)
(-7.48078390344e-05 9.53218366486e-05 0.00170856986606)
(-8.51911853364e-05 9.3096840117e-05 0.00169799971965)
(8.05896931461e-05 8.77397306721e-05 0.00171198743187)
(7.05116838112e-05 8.80839360718e-05 0.00172072487255)
(5.9276965702e-05 8.91888016718e-05 0.00172662046723)
(4.77806693476e-05 9.00777849226e-05 0.00173064852902)
(3.6038129176e-05 9.0774054546e-05 0.00173331338796)
(2.41171876025e-05 9.12675103625e-05 0.00173497815404)
(1.20867523362e-05 9.15611361312e-05 0.00173588465598)
(3.99759440501e-09 9.16587755699e-05 0.00173617174278)
(-1.20788060215e-05 9.15617484081e-05 0.00173588503211)
(-2.41093886557e-05 9.12687335791e-05 0.00173497898339)
(-3.60305831392e-05 9.07758828179e-05 0.00173331473764)
(-4.77734969702e-05 9.00801991159e-05 0.00173065029989)
(-5.92702870653e-05 8.91917491637e-05 0.0017266219249)
(-7.05056907409e-05 8.80873871475e-05 0.00172072742404)
(-8.05846337498e-05 8.7743369587e-05 0.00171199031564)
(2.81670151995e-07 4.48239407075e-07 0.000132744033304)
(1.79657152246e-07 5.81536511553e-07 0.000139290560623)
(1.36198194857e-07 6.58912534343e-07 0.000145205293516)
(9.52324023511e-08 7.18465811367e-07 0.000150303150618)
(6.18675006406e-08 7.60872219065e-07 0.000154432826618)
(3.60733816109e-08 7.88720826621e-07 0.000157470782421)
(1.63102546382e-08 8.04340005746e-07 0.000159331352044)
(1.5728863326e-10 8.09394344194e-07 0.000159962170855)
(-1.59907494254e-08 8.04368524985e-07 0.000159331353717)
(-3.57394982947e-08 7.88777019099e-07 0.000157470789337)
(-6.15190999935e-08 7.60951000839e-07 0.000154432845418)
(-9.48915622659e-08 7.18557968665e-07 0.00015030319869)
(-1.35901652944e-07 6.59010382434e-07 0.000145205434531)
(-1.79415869822e-07 5.81633336233e-07 0.000139291071994)
(-2.8153957341e-07 4.48330988733e-07 0.00013274594414)
(2.49356936663e-06 3.0502194345e-06 0.000381971990346)
(2.16281868912e-06 3.7209667469e-06 0.000399818542602)
(1.89926003317e-06 4.28224771371e-06 0.000415901204865)
(1.58932022158e-06 4.77105159619e-06 0.000429728602451)
(1.2344834858e-06 5.16705237005e-06 0.000440906536173)
(8.44048550118e-07 5.4584616591e-06 0.00044911801506)
(4.28487870544e-07 5.63683730074e-06 0.000454141275141)
(5.15262865767e-10 5.69703443582e-06 0.000455839644118)
(-4.27449204527e-07 5.6369161658e-06 0.00045414126901)
(-8.42987901177e-07 5.45861433011e-06 0.000449118012656)
(-1.23340688407e-06 5.16726366852e-06 0.00044090655717)
(-1.58827816754e-06 4.77129929879e-06 0.000429728699085)
(-1.89834294923e-06 4.28251295665e-06 0.00041590156632)
(-2.16206899864e-06 3.72124291862e-06 0.000399819983014)
(-2.4931387961e-06 3.05049645133e-06 0.000381976966629)
(5.93670112499e-06 6.91358250497e-06 0.000615285511886)
(5.32671362907e-06 8.2823919058e-06 0.000642862266394)
(4.73325923716e-06 9.50735839195e-06 0.000667621340653)
(4.00274173701e-06 1.05919483754e-05 0.00068884546483)
(3.13635935487e-06 1.14841088481e-05 0.000705959597884)
(2.15835258281e-06 1.21478530709e-05 0.00071850852022)
(1.100198525e-06 1.25571743742e-05 0.000726173969684)
(8.93002278637e-10 1.2695736244e-05 0.000728760423391)
(-1.09840635746e-06 1.2557295621e-05 0.000726173921863)
(-2.15654591221e-06 1.21480847682e-05 0.000718508438576)
(-3.13455397518e-06 1.14844249051e-05 0.000705959510675)
(-4.00100443997e-06 1.05923147439e-05 0.000688845450375)
(-4.73171364963e-06 9.50774912475e-06 0.000667621678905)
(-5.32543865523e-06 8.28281928908e-06 0.000642864149808)
(-5.93592980906e-06 6.91404141102e-06 0.000615292475651)
(1.00656475372e-05 1.14439573036e-05 0.000832654693276)
(9.12513484821e-06 1.35518460299e-05 0.000868279971058)
(8.12898157435e-06 1.54750656068e-05 0.000900092373819)
(6.88505551481e-06 1.71871558809e-05 0.000927248921793)
(5.40139527515e-06 1.86008470734e-05 0.000949069031623)
(3.72026838524e-06 1.96549166095e-05 0.000965025245869)
(1.89741123179e-06 2.03058353737e-05 0.000974752382894)
(1.26688038993e-09 2.05262366397e-05 0.000978028280056)
(-1.89487678417e-06 2.03059950085e-05 0.00097475224048)
(-3.7177369953e-06 1.96552212511e-05 0.000965024975303)
(-5.39889555423e-06 1.86012642224e-05 0.000949068661356)
(-6.88266529186e-06 1.71876450187e-05 0.000927248538791)
(-8.1268408455e-06 1.5475593238e-05 0.000900092299056)
(-9.12335018943e-06 1.35524418712e-05 0.000868281601714)
(-1.00645078659e-05 1.14446195816e-05 0.000832662217841)
(1.44450753412e-05 1.61696081221e-05 0.001033326752)
(1.31356376665e-05 1.89763156524e-05 0.00107517756353)
(1.16987599733e-05 2.15398231477e-05 0.00111228206501)
(9.89917038932e-06 2.3824685323e-05 0.00114378220399)
(7.75935685453e-06 2.57111889044e-05 0.00116897523169)
(5.34071267773e-06 2.71170173649e-05 0.00118733202716)
(2.72276111841e-06 2.79847258304e-05 0.00119849366989)
(1.62370373308e-09 2.82783682146e-05 0.00120224543504)
(-2.71952018115e-06 2.79849219119e-05 0.00119849338697)
(-5.33749676237e-06 2.71173926757e-05 0.0011873314699)
(-7.7562078932e-06 2.57117079747e-05 0.00116897441616)
(-9.8961743143e-06 2.38253041317e-05 0.00114378120074)
(-1.16960621678e-05 2.1540501319e-05 0.00111228117976)
(-1.31333590726e-05 1.89770919165e-05 0.00107517828318)
(-1.44435444597e-05 1.61704843711e-05 0.0010333336545)
(1.87757149295e-05 2.07781146841e-05 0.00121651644951)
(1.70733856126e-05 2.41923402434e-05 0.00126270916093)
(1.51824802559e-05 2.72842086668e-05 0.00130330240487)
(1.28210689841e-05 3.00369103987e-05 0.00133753178196)
(1.00320978425e-05 3.23047970936e-05 0.00136475301462)
(6.8957890428e-06 3.39915121622e-05 0.0013845007351)
(3.51268912387e-06 3.50311045572e-05 0.00139647071049)
(1.95627524336e-09 3.53825871169e-05 0.00140048599278)
(-3.50879050339e-06 3.50313357017e-05 0.00139647025753)
(-6.89193775785e-06 3.39919565393e-05 0.0013844998254)
(-1.00283479446e-05 3.23054183447e-05 0.00136475163702)
(-1.28175115811e-05 3.0037662429e-05 0.00133752996221)
(-1.5179260042e-05 2.72850459049e-05 0.00130330038215)
(-1.70706270033e-05 2.41933041241e-05 0.00126270844756)
(-1.87737759571e-05 2.07792056034e-05 0.00121652193587)
(2.28323938547e-05 2.50417523984e-05 0.00138174086096)
(2.07281889046e-05 2.89371388397e-05 0.00143044017606)
(1.83899240945e-05 3.24134292218e-05 0.00147279294509)
(1.54891147593e-05 3.54996381277e-05 0.00150822404337)
(1.20926017977e-05 3.80330722744e-05 0.00153621550478)
(8.29798632883e-06 3.99117245799e-05 0.00155641801867)
(4.22256758172e-06 4.10672402798e-05 0.00156861950078)
(2.26223588883e-09 4.14574592882e-05 0.0015727035215)
(-4.21806387353e-06 4.10675056267e-05 0.00156861887057)
(-8.2935499382e-06 3.99122372624e-05 0.00155641673547)
(-1.20882968156e-05 3.80337962552e-05 0.00153621351546)
(-1.54850352406e-05 3.55005262131e-05 0.00150822130203)
(-1.83862100927e-05 3.24144307058e-05 0.00147278958416)
(-2.07249641942e-05 2.89382953323e-05 0.00143043771346)
(-2.28300342732e-05 2.50430537635e-05 0.00138174447835)
(2.64474530492e-05 2.87951448067e-05 0.00152894201932)
(2.39472406149e-05 3.30232444773e-05 0.001578458768)
(2.11852551163e-05 3.67251516161e-05 0.0016210151945)
(1.77903647873e-05 3.99973657647e-05 0.0016562990019)
(1.38538759336e-05 4.26704521414e-05 0.00168396667049)
(9.48832983745e-06 4.46452065974e-05 0.00170381949129)
(4.82263260921e-06 4.5856751449e-05 0.00171576092262)
(2.5431351606e-09 4.62653407255e-05 0.00171974851845)
(-4.81757276867e-06 4.5857050317e-05 0.00171576013551)
(-9.48335373478e-06 4.46457870034e-05 0.00170381787016)
(-1.38490553486e-05 4.26712791213e-05 0.00168396410835)
(-1.77857953795e-05 3.99983917415e-05 0.00165629535974)
(-2.11810697568e-05 3.67263210272e-05 0.00162101047179)
(-2.39435623134e-05 3.30245957992e-05 0.00157845449988)
(-2.64446689326e-05 2.87966538863e-05 0.00152894365782)
(2.95049024719e-05 3.19274806584e-05 0.00165849082051)
(2.66281560057e-05 3.63290490345e-05 0.00170735366288)
(2.34800922187e-05 4.00964285994e-05 0.00174880031486)
(1.96538941637e-05 4.34067215389e-05 0.00178282676588)
(1.52631867559e-05 4.60946682299e-05 0.00180928869796)
(1.04321229452e-05 4.80714772162e-05 0.00182815343127)
(5.29571755189e-06 4.92807168229e-05 0.00183944902725)
(2.80236393923e-09 4.96879235808e-05 0.00184321138941)
(-5.29014346329e-06 4.92810476537e-05 0.00183944813728)
(-1.04266447524e-05 4.80721228582e-05 0.00182815157816)
(-1.52578816794e-05 4.60955958354e-05 0.00180928571448)
(-1.9648858781e-05 4.34078837293e-05 0.0017828224067)
(-2.34754524394e-05 4.0097766111e-05 0.00174879443332)
(-2.66240345353e-05 3.63305940055e-05 0.0017073478429)
(-2.95016953581e-05 3.19291937e-05 0.00165849073836)
(3.19336881238e-05 3.43744197315e-05 0.00177112702223)
(2.87115016296e-05 3.87885488502e-05 0.00181812541643)
(2.52259761254e-05 4.24693930111e-05 0.00185743005729)
(2.10435955709e-05 4.56784259151e-05 0.00188935808697)
(1.62958822905e-05 4.82654087504e-05 0.00191396490551)
(1.11144019806e-05 5.01581214133e-05 0.00193138173448)
(5.63483860891e-06 5.13121301826e-05 0.00194175794511)
(3.04378910906e-09 5.17001230009e-05 0.00194520455915)
(-5.62878446077e-06 5.13124894827e-05 0.00194175704772)
(-1.11084517233e-05 5.01588258931e-05 0.00193137984288)
(-1.62901167445e-05 4.82664288042e-05 0.00191396179415)
(-2.10381119683e-05 4.56797157372e-05 0.0018893534007)
(-2.52208948033e-05 4.24708913498e-05 0.00185742349964)
(-2.87069474402e-05 3.87902805244e-05 0.00181811866173)
(-3.19300622254e-05 3.43763293468e-05 0.00177112589308)
(3.37002970515e-05 3.61099962116e-05 0.00186786694671)
(3.01730707437e-05 4.03807079332e-05 0.00191207054055)
(2.64068530649e-05 4.38365582833e-05 0.00194849736348)
(2.19512655552e-05 4.68191532365e-05 0.00197776039778)
(1.69495654851e-05 4.92033423816e-05 0.00200009315989)
(1.15356781695e-05 5.09376489914e-05 0.00201577559958)
(5.84093620734e-06 5.19913681837e-05 0.00202506643517)
(3.26998150916e-09 5.23450635802e-05 0.00202814325156)
(-5.83443121442e-06 5.19917491262e-05 0.00202506567616)
(-1.15292814009e-05 5.09383995005e-05 0.0020157739705)
(-1.6943359639e-05 4.92044374515e-05 0.00200009039041)
(-2.19453487487e-05 4.68205510735e-05 0.00197775603047)
(-2.64013423072e-05 4.38381983664e-05 0.00194849095067)
(-3.01680954702e-05 4.03826094462e-05 0.00191206388639)
(-3.3696259407e-05 3.61120868912e-05 0.0018678659268)
(3.47999303045e-05 3.71373441745e-05 0.00194989540285)
(3.10155828109e-05 4.11173059481e-05 0.00199066334673)
(2.70320582787e-05 4.42254465132e-05 0.0020237757338)
(2.23907401145e-05 4.68740747477e-05 0.00205006882261)
(1.72392914309e-05 4.89710856519e-05 0.00206991904211)
(1.17084320326e-05 5.04871939608e-05 0.00208373515969)
(5.92100814753e-06 5.14050191429e-05 0.00209186934423)
(3.48123039662e-09 5.17125954452e-05 0.00209455424183)
(-5.91408125013e-06 5.14054112838e-05 0.0020918689271)
(-1.17016150805e-05 5.04879698498e-05 0.00208373421918)
(-1.72326677852e-05 4.8972227007e-05 0.00206991729382)
(-2.23844085524e-05 4.68755464975e-05 0.0020500657298)
(-2.70261344522e-05 4.42271935497e-05 0.00202377068618)
(-3.1010203375e-05 4.11193445355e-05 0.00199065828079)
(-3.47954906021e-05 3.71395883499e-05 0.00194989618064)
(3.5245839164e-05 3.74733679799e-05 0.00201844697047)
(3.12623083072e-05 4.10269244478e-05 0.00205545938645)
(2.71330589885e-05 4.36841985714e-05 0.00208512072693)
(2.23953435811e-05 4.59121512675e-05 0.00210836919103)
(1.71950705904e-05 4.76583337783e-05 0.00212570236277)
(1.16550443177e-05 4.89131554246e-05 0.00213764531256)
(5.88693497805e-06 4.9670054337e-05 0.00214462768715)
(3.67527146692e-09 4.99232851933e-05 0.0021469241348)
(-5.87962064065e-06 4.96704434556e-05 0.00214462787157)
(-1.16478405505e-05 4.89139290797e-05 0.00213764561176)
(-1.71880603865e-05 4.76594813429e-05 0.00212570253625)
(-2.23886261159e-05 4.59136485816e-05 0.00210836867909)
(-2.71267494675e-05 4.36860008869e-05 0.00208511872885)
(-3.12565521703e-05 4.1029051219e-05 0.00205545783683)
(-3.52410200075e-05 3.7475718308e-05 0.00201845160274)
(3.50809867276e-05 3.71421654185e-05 0.00207467247676)
(3.09709214802e-05 4.01938875216e-05 0.00210807351087)
(2.67739023429e-05 4.22996964029e-05 0.00213442814825)
(2.2021232851e-05 4.40376154434e-05 0.0021547187394)
(1.68621131909e-05 4.53860469109e-05 0.00216961876955)
(1.14069307824e-05 4.63490744917e-05 0.00217976906469)
(5.75476065705e-06 4.69276250429e-05 0.00218565859044)
(3.84737942412e-09 4.71208137957e-05 0.00218758836775)
(-5.74710276545e-06 4.69279949804e-05 0.00218565966704)
(-1.1399385095e-05 4.63498134683e-05 0.00217977122954)
(-1.68547618822e-05 4.53871524221e-05 0.00216962192403)
(-2.20141745228e-05 4.40390771486e-05 0.00215472244288)
(-2.67672507592e-05 4.23014885677e-05 0.00213443143847)
(-3.09648289884e-05 4.01960383441e-05 0.00210807788721)
(-3.50758101482e-05 3.71445720632e-05 0.00207468304048)
(3.43467651686e-05 3.66750626816e-05 0.00211962428943)
(3.02243249927e-05 3.88313772209e-05 0.00215047542044)
(2.60175146311e-05 4.02445516831e-05 0.00217365743077)
(2.13207737753e-05 4.14019482909e-05 0.00219109147)
(1.62818821228e-05 4.22849553827e-05 0.00220368722607)
(1.0992554979e-05 4.29092179544e-05 0.00221217233658)
(5.53895888973e-06 4.32814896872e-05 0.0022170603275)
(3.9922603696e-09 4.34053410029e-05 0.00221865647341)
(-5.53101305023e-06 4.32818173233e-05 0.0022170625124)
(-1.09847251932e-05 4.29098758052e-05 0.0022121768386)
(-1.62742502316e-05 4.22859485249e-05 0.00220369420132)
(-2.131343516e-05 4.1403281318e-05 0.00219110086222)
(-2.60105776037e-05 4.02462197954e-05 0.0021736683231)
(-3.02179681526e-05 3.88334421261e-05 0.00215048963416)
(-3.43412337922e-05 3.66773987983e-05 0.00211964052672)
(-6.52813336052e-08 -1.31514119209e-07 9.50929905349e-05)
(-1.73061528236e-08 -1.86754950218e-07 9.97806952423e-05)
(1.54461144245e-08 -2.19587033141e-07 0.000103998759563)
(3.76992641609e-08 -2.37532968202e-07 0.00010764006172)
(4.5163539035e-08 -2.44126358085e-07 0.000110593634254)
(3.91441901451e-08 -2.44444866372e-07 0.000112769214821)
(2.25852836296e-08 -2.4271599649e-07 0.000114103060497)
(1.87936087168e-10 -2.41789253391e-07 0.000114555910303)
(-2.22161224784e-08 -2.42690634577e-07 0.000114103134237)
(-3.87942949574e-08 -2.44394427249e-07 0.000112769363162)
(-4.48402889168e-08 -2.44050523665e-07 0.000110593861809)
(-3.73922796818e-08 -2.37429350984e-07 0.000107640390884)
(-1.51683070974e-08 -2.19475744217e-07 0.000103999264966)
(1.75346678257e-08 -1.86633034193e-07 9.9781630835e-05)
(6.54406719381e-08 -1.31404909425e-07 9.50951975389e-05)
(4.83142699233e-08 -8.54240165491e-08 0.000284670445874)
(1.60913331201e-07 -1.66768169143e-07 0.000298449580374)
(2.3021028444e-07 -1.97177285175e-07 0.000310869595068)
(2.61890164364e-07 -1.92695844636e-07 0.000321589296162)
(2.48040148041e-07 -1.66026093041e-07 0.000330284208834)
(1.9268233203e-07 -1.33225516288e-07 0.000336689814295)
(1.05379647597e-07 -1.07550277401e-07 0.000340616390709)
(5.55100914129e-10 -9.7890498625e-08 0.000341945808876)
(-1.04285547506e-07 -1.07481574019e-07 0.000340616592908)
(-1.91634793562e-07 -1.33088676389e-07 0.000336690222538)
(-2.47059408177e-07 -1.65821335446e-07 0.000330284840241)
(-2.60970079801e-07 -1.92421803511e-07 0.000321590221516)
(-2.29379412763e-07 -1.96874526541e-07 0.000310871039703)
(-1.60222629347e-07 -1.66432066308e-07 0.000298452295359)
(-4.78286682594e-08 -8.51098985504e-08 0.000284676447331)
(4.31785107288e-07 2.91549983626e-07 0.000471691423845)
(5.79633276044e-07 2.67419657139e-07 0.00049420449925)
(6.53285914414e-07 3.11887300113e-07 0.00051448939388)
(6.5704312712e-07 4.01056537563e-07 0.000531984602038)
(5.81378930908e-07 5.10694644199e-07 0.000546167109472)
(4.34081751263e-07 6.12740940207e-07 0.000556611614652)
(2.32305857115e-07 6.84219248349e-07 0.000563010990253)
(9.0275991784e-10 7.0991155005e-07 0.000565173981737)
(-2.30522558891e-07 6.84319618926e-07 0.00056301127899)
(-4.32362921688e-07 6.12941416134e-07 0.000556612200939)
(-5.79756343405e-07 5.10996215937e-07 0.000546168025268)
(-6.55524460934e-07 4.01458370915e-07 0.000531985962987)
(-6.51915172129e-07 3.12344247973e-07 0.000514491546414)
(-5.78477425265e-07 2.67931552513e-07 0.00049420857037)
(-4.30958990235e-07 2.92055882087e-07 0.0004717003325)
(1.15649706139e-06 1.06942571863e-06 0.000655259729373)
(1.31289298444e-06 1.19190880424e-06 0.000685994386326)
(1.35574431289e-06 1.39473182529e-06 0.000713634420239)
(1.28733882322e-06 1.64134468308e-06 0.000737436818259)
(1.09797810104e-06 1.89317273682e-06 0.000756707619398)
(8.00950649669e-07 2.10811487898e-06 0.000770885658519)
(4.22944110684e-07 2.25210529523e-06 0.000779565308412)
(1.23370735762e-09 2.30281699082e-06 0.000782495026002)
(-4.20503592388e-07 2.25223737051e-06 0.000779565621608)
(-7.98588478926e-07 2.10837826542e-06 0.00077088629991)
(-1.09573744077e-06 1.89356728539e-06 0.000756708635994)
(-1.28524526604e-06 1.64186651146e-06 0.000737438360653)
(-1.35385782154e-06 1.39533811378e-06 0.000713636913881)
(-1.31128724499e-06 1.1925962529e-06 0.000685999200837)
(-1.15532520333e-06 1.07013011092e-06 0.000655270375539)
(2.18014825374e-06 2.18936748524e-06 0.000834176694474)
(2.32000016706e-06 2.52349203003e-06 0.000872413321986)
(2.29957954681e-06 2.94500843429e-06 0.000906681176602)
(2.11931817914e-06 3.40032355086e-06 0.000936116042127)
(1.7707061281e-06 3.83491965642e-06 0.000959896063184)
(1.27415147855e-06 4.19193527863e-06 0.000977362554066)
(6.67398273455e-07 4.42596346741e-06 0.00098804158539)
(1.54926045757e-09 4.50752957531e-06 0.000991641470748)
(-6.64330672349e-07 4.42612745119e-06 0.000988041866665)
(-1.27117447892e-06 4.19226145925e-06 0.00097736313682)
(-1.7678736692e-06 3.83540538821e-06 0.000959897004723)
(-2.11667318244e-06 3.40096212413e-06 0.000936117510521)
(-2.29719658954e-06 2.94576087419e-06 0.000906683628963)
(-2.31795859492e-06 2.52435657524e-06 0.00087241828025)
(-2.17862436285e-06 2.1902679959e-06 0.000834188090908)
(3.44419588212e-06 3.57641065873e-06 0.00100704270979)
(3.54400364252e-06 4.16083549224e-06 0.00105183736805)