/*--------------------------------*- C++ -*----------------------------------*\
  =========                 |
  \\      /  F ield         | OpenFOAM: The Open Source CFD Toolbox
   \\    /   O peration     | Website:  https://openfoam.org
    \\  /    A nd           | Version:  7
     \\/     M anipulation  |
\*---------------------------------------------------------------------------*/
FoamFile
{
    version     2.0;
    format      ascii;
    class       volScalarField;
    location    "2.4";
    object      p;
}
// * * * * * * * * * * * * * * * * * * * * * * * * * * * * * * * * * * * * * //

dimensions      [0 2 -2 0 0 0 0];

internalField   nonuniform List<scalar> 
22500
(
-1.41809304984e-05
-1.41803370005e-05
-1.4178857244e-05
-1.41775008296e-05
-1.41762594404e-05
-1.41753127952e-05
-1.41747219813e-05
-1.41745313718e-05
-1.41747498634e-05
-1.41753679786e-05
-1.41763418673e-05
-1.41776090049e-05
-1.41789914722e-05
-1.41804889231e-05
-1.41811191739e-05
-1.41858887843e-05
-1.41856065935e-05
-1.4184331235e-05
-1.41831288634e-05
-1.41819941248e-05
-1.41811156954e-05
-1.41805628085e-05
-1.41803844218e-05
-1.41805921677e-05
-1.4181173846e-05
-1.41820807746e-05
-1.4183242754e-05
-1.41844718166e-05
-1.4185765792e-05
-1.41860842444e-05
-1.41911418527e-05
-1.41911894457e-05
-1.41901322137e-05
-1.41891090056e-05
-1.41880988871e-05
-1.41873037822e-05
-1.41867980024e-05
-1.41866344432e-05
-1.41868267686e-05
-1.41873607707e-05
-1.4188183662e-05
-1.4189220496e-05
-1.41902698004e-05
-1.41913456442e-05
-1.41913355123e-05
-1.41961928965e-05
-1.41965519724e-05
-1.41957110825e-05
-1.41948670238e-05
-1.41939873833e-05
-1.41932817902e-05
-1.41928278788e-05
-1.41926807533e-05
-1.41928554685e-05
-1.41933364942e-05
-1.4194068653e-05
-1.41949737786e-05
-1.41958429775e-05
-1.41967018287e-05
-1.41963811927e-05
-1.42013235071e-05
-1.42019869238e-05
-1.42013686528e-05
-1.42007049624e-05
-1.41999626675e-05
-1.41993527486e-05
-1.4198955318e-05
-1.41988263783e-05
-1.41989818121e-05
-1.41994052718e-05
-1.42000406342e-05
-1.42008072165e-05
-1.42014948637e-05
-1.4202130202e-05
-1.4201505137e-05
-1.42065392631e-05
-1.42074927816e-05
-1.42070958171e-05
-1.42066057567e-05
-1.42060000662e-05
-1.42054861366e-05
-1.42051461596e-05
-1.42050358505e-05
-1.42051715626e-05
-1.42055365252e-05
-1.42060747739e-05
-1.42067036032e-05
-1.42072161257e-05
-1.42076296246e-05
-1.42067143546e-05
-1.42117566349e-05
-1.42129753468e-05
-1.4212788539e-05
-1.42124575176e-05
-1.4211980372e-05
-1.4211557556e-05
-1.42112727393e-05
-1.42111804577e-05
-1.42112971465e-05
-1.42116059761e-05
-1.42120520858e-05
-1.42125512897e-05
-1.42129033517e-05
-1.4213105976e-05
-1.42119257325e-05
-1.42169140615e-05
-1.4218364603e-05
-1.42183703972e-05
-1.42181783328e-05
-1.42178169399e-05
-1.42174771498e-05
-1.42172431739e-05
-1.42171676458e-05
-1.42172666923e-05
-1.42175238227e-05
-1.42178860502e-05
-1.42182685637e-05
-1.42184803885e-05
-1.42184899955e-05
-1.42170781841e-05
-1.42219659422e-05
-1.42236073843e-05
-1.42237825072e-05
-1.42237060974e-05
-1.42234453314e-05
-1.4223179139e-05
-1.42229909409e-05
-1.42229306405e-05
-1.42230137427e-05
-1.42232244692e-05
-1.42235124777e-05
-1.42237937558e-05
-1.42238888921e-05
-1.42237291219e-05
-1.42221266718e-05
-1.42268682377e-05
-1.42286519889e-05
-1.42289679241e-05
-1.42289831974e-05
-1.42288082785e-05
-1.4228607388e-05
-1.42284606563e-05
-1.42284143734e-05
-1.42284830479e-05
-1.42286519826e-05
-1.42288744175e-05
-1.42290695529e-05
-1.42290723776e-05
-1.42287721113e-05
-1.42270279736e-05
-1.42315739812e-05
-1.42334422729e-05
-1.42338659582e-05
-1.4233951581e-05
-1.4233852024e-05
-1.42337122116e-05
-1.42336054139e-05
-1.42335728891e-05
-1.42336278166e-05
-1.42337568589e-05
-1.42339182991e-05
-1.42340381968e-05
-1.42339705096e-05
-1.42335633177e-05
-1.42317358264e-05
-1.42360386136e-05
-1.42379128195e-05
-1.42384042873e-05
-1.42385465425e-05
-1.42385214365e-05
-1.4238446332e-05
-1.42383825545e-05
-1.42383652064e-05
-1.42384053274e-05
-1.42384918163e-05
-1.42385890792e-05
-1.42386351768e-05
-1.42385113512e-05
-1.4238037776e-05
-1.42362059521e-05
-1.42402218519e-05
-1.4241960413e-05
-1.42424729902e-05
-1.42426802119e-05
-1.4242748254e-05
-1.42427543157e-05
-1.4242744203e-05
-1.42427454016e-05
-1.42427677294e-05
-1.42428012994e-05
-1.42428184921e-05
-1.42427727573e-05
-1.42425853345e-05
-1.42420926508e-05
-1.42403983401e-05
-1.42438331123e-05
-1.42452690988e-05
-1.42458649005e-05
-1.42462164821e-05
-1.4246441967e-05
-1.42465719858e-05
-1.42466392416e-05
-1.42466673632e-05
-1.42466637648e-05
-1.42466211688e-05
-1.42465159906e-05
-1.42463150325e-05
-1.42459856854e-05
-1.42454129879e-05
-1.42440210416e-05
-1.42452270312e-05
-1.42475409607e-05
-1.42484593008e-05
-1.42491412255e-05
-1.42496353371e-05
-1.42499563666e-05
-1.42501390243e-05
-1.42502059288e-05
-1.42501651321e-05
-1.42500088242e-05
-1.42497148172e-05
-1.42492484008e-05
-1.42485937358e-05
-1.42477036705e-05
-1.42454266982e-05
-1.37453368099e-05
-1.37450280542e-05
-1.37446390306e-05
-1.37442558071e-05
-1.37439200238e-05
-1.3743662676e-05
-1.37435009571e-05
-1.3743445558e-05
-1.37434999244e-05
-1.37436616114e-05
-1.37439215407e-05
-1.37442629887e-05
-1.37446517385e-05
-1.37450457614e-05
-1.37453585005e-05
-1.37442076303e-05
-1.37438822225e-05
-1.37434813975e-05
-1.37430892803e-05
-1.37427430032e-05
-1.37424758393e-05
-1.3742307239e-05
-1.37422494774e-05
-1.37423066385e-05
-1.37424757044e-05
-1.37427459584e-05
-1.3743098589e-05
-1.37434974693e-05
-1.37439026754e-05
-1.37442321652e-05
-1.37430053528e-05
-1.37426564971e-05
-1.37422404147e-05
-1.37418380622e-05
-1.37414810531e-05
-1.3741205082e-05
-1.37410306945e-05
-1.37409710181e-05
-1.37410304415e-05
-1.3741205491e-05
-1.374148433e-05
-1.37418470056e-05
-1.37422560259e-05
-1.37426756547e-05
-1.37430297911e-05
-1.37419398054e-05
-1.37415557413e-05
-1.37411192838e-05
-1.37407049622e-05
-1.37403380842e-05
-1.37400553083e-05
-1.37398769315e-05
-1.37398160269e-05
-1.37398769614e-05
-1.37400561008e-05
-1.37403413751e-05
-1.37407130125e-05
-1.37411334741e-05
-1.37415731698e-05
-1.37419637939e-05
-1.37408746387e-05
-1.37404303324e-05
-1.37399582747e-05
-1.37395210416e-05
-1.37391376614e-05
-1.37388442506e-05
-1.37386599971e-05
-1.37385972677e-05
-1.37386602197e-05
-1.37388453139e-05
-1.37391409589e-05
-1.37395284759e-05
-1.37399712066e-05
-1.37404463185e-05
-1.37408981791e-05
-1.37397114185e-05
-1.37391737323e-05
-1.37386436592e-05
-1.37381662544e-05
-1.37377539924e-05
-1.37374418508e-05
-1.37372472022e-05
-1.37371812161e-05
-1.37372476303e-05
-1.37374432333e-05
-1.3737757445e-05
-1.373817335e-05
-1.37386557234e-05
-1.37391883246e-05
-1.37397351041e-05
-1.37383969577e-05
-1.37377268278e-05
-1.37371128057e-05
-1.37365742397e-05
-1.37361174442e-05
-1.37357759153e-05
-1.37355647308e-05
-1.37354934668e-05
-1.37355653389e-05
-1.37357775852e-05
-1.37361211144e-05
-1.37365812079e-05
-1.37371243798e-05
-1.37377404215e-05
-1.37384209564e-05
-1.37368937878e-05
-1.37360503286e-05
-1.37353252218e-05
-1.37347031269e-05
-1.37341849766e-05
-1.37338023937e-05
-1.37335678971e-05
-1.37334891395e-05
-1.37335687135e-05
-1.37338044294e-05
-1.373418901e-05
-1.37347102408e-05
-1.37353365436e-05
-1.37360634941e-05
-1.37369180951e-05
-1.37351755036e-05
-1.37341202916e-05
-1.37332582057e-05
-1.37325319983e-05
-1.37319368928e-05
-1.3731502314e-05
-1.37312380669e-05
-1.37311496951e-05
-1.37312390926e-05
-1.37315047315e-05
-1.37319413679e-05
-1.37325394938e-05
-1.37332696257e-05
-1.37341334767e-05
-1.37352007595e-05
-1.37332279796e-05
-1.3731928096e-05
-1.37309077202e-05
-1.37300614362e-05
-1.37293772666e-05
-1.3728882195e-05
-1.37285831578e-05
-1.3728483519e-05
-1.37285844131e-05
-1.37288850151e-05
-1.37293822374e-05
-1.37300694154e-05
-1.37309194534e-05
-1.37319416682e-05
-1.37332544678e-05
-1.37310476271e-05
-1.37294795987e-05
-1.37282878644e-05
-1.37273128998e-05
-1.37265332927e-05
-1.3725973052e-05
-1.37256364036e-05
-1.37255245041e-05
-1.37256378221e-05
-1.3725976142e-05
-1.37265386192e-05
-1.37273213263e-05
-1.3728300019e-05
-1.37294938432e-05
-1.37310759022e-05
-1.37286454495e-05
-1.37267977139e-05
-1.37254319922e-05
-1.37243284787e-05
-1.37234536992e-05
-1.37228281294e-05
-1.37224534524e-05
-1.37223291282e-05
-1.37224548464e-05
-1.37228311938e-05
-1.3723458985e-05
-1.3724336981e-05
-1.37254443311e-05
-1.37268127027e-05
-1.37286754913e-05
-1.37260449797e-05
-1.37239139636e-05
-1.37223842088e-05
-1.3721164183e-05
-1.37202029601e-05
-1.37195172438e-05
-1.37191072036e-05
-1.37189710078e-05
-1.37191083482e-05
-1.37195197267e-05
-1.37202075614e-05
-1.37211719979e-05
-1.37223961321e-05
-1.37239292185e-05
-1.37260762839e-05
-1.37231628287e-05
-1.37207701193e-05
-1.37191493014e-05
-1.37178594221e-05
-1.37168447367e-05
-1.37161198184e-05
-1.37156855979e-05
-1.37155412485e-05
-1.37156861671e-05
-1.37161212532e-05
-1.37168478361e-05
-1.37178657366e-05
-1.37191598737e-05
-1.37207853839e-05
-1.37231941943e-05
-1.37194505691e-05
-1.37173466079e-05
-1.37157961345e-05
-1.37145242169e-05
-1.37135176398e-05
-1.3712794025e-05
-1.37123587956e-05
-1.37122135305e-05
-1.37123588196e-05
-1.37127942631e-05
-1.3713519059e-05
-1.3714528522e-05
-1.37158054723e-05
-1.37173625258e-05
-1.37194807605e-05
-1.30473368726e-05
-1.30472918946e-05
-1.30472048888e-05
-1.30471226286e-05
-1.30470422236e-05
-1.30469806886e-05
-1.30469430873e-05
-1.30469317384e-05
-1.30469468489e-05
-1.3046987685e-05
-1.30470512796e-05
-1.30471326943e-05
-1.30472204833e-05
-1.30473085391e-05
-1.30473582143e-05
-1.30470154333e-05
-1.30469615716e-05
-1.30468702804e-05
-1.30467839269e-05
-1.30467009333e-05
-1.30466372667e-05
-1.30465983129e-05
-1.30465866345e-05
-1.3046602619e-05
-1.30466453808e-05
-1.30467116359e-05
-1.30467961884e-05
-1.30468874566e-05
-1.30469807379e-05
-1.3047038748e-05
-1.30466888891e-05
-1.30466289725e-05
-1.30465330312e-05
-1.30464439012e-05
-1.30463591892e-05
-1.3046294031e-05
-1.30462538801e-05
-1.3046241696e-05
-1.3046258078e-05
-1.30463020231e-05
-1.30463699771e-05
-1.3046456612e-05
-1.30465500321e-05
-1.30466482277e-05
-1.3046712489e-05
-1.30464329468e-05
-1.30463735969e-05
-1.30462752602e-05
-1.30461864997e-05
-1.30461026094e-05
-1.30460379791e-05
-1.30459978623e-05
-1.30459855301e-05
-1.30460017822e-05
-1.30460455426e-05
-1.30461131384e-05
-1.3046199263e-05
-1.30462918332e-05
-1.3046392103e-05
-1.30464569853e-05
-1.30462361906e-05
-1.30461821617e-05
-1.30460839735e-05
-1.30459984657e-05
-1.30459175241e-05
-1.30458550417e-05
-1.30458161149e-05
-1.30458040847e-05
-1.30458198307e-05
-1.3045862264e-05
-1.30459277373e-05
-1.30460110889e-05
-1.30461002297e-05
-1.30461999827e-05
-1.3046260612e-05
-1.30460894358e-05
-1.3046043476e-05
-1.30459478746e-05
-1.30458675061e-05
-1.30457912384e-05
-1.30457323087e-05
-1.30456955055e-05
-1.30456841091e-05
-1.30456990213e-05
-1.30457392004e-05
-1.30458011393e-05
-1.30458799452e-05
-1.30459637186e-05
-1.30460610055e-05
-1.30461139278e-05
-1.30459875071e-05
-1.3045951424e-05
-1.30458593033e-05
-1.30457849996e-05
-1.3045714298e-05
-1.30456596633e-05
-1.30456255422e-05
-1.30456149897e-05
-1.30456288852e-05
-1.30456662451e-05
-1.30457238497e-05
-1.30457971655e-05
-1.30458746928e-05
-1.30459685993e-05
-1.30460122667e-05
-1.30459227169e-05
-1.30458954618e-05
-1.30458060743e-05
-1.30457373485e-05
-1.30456720856e-05
-1.30456217832e-05
-1.30455904361e-05
-1.30455807806e-05
-1.30455936321e-05
-1.30456281023e-05
-1.30456813544e-05
-1.3045749325e-05
-1.30458211645e-05
-1.30459123781e-05
-1.30459479769e-05
-1.30458837426e-05
-1.30458607399e-05
-1.30457716982e-05
-1.30457066808e-05
-1.30456456568e-05
-1.30455989475e-05
-1.30455700154e-05
-1.30455611667e-05
-1.30455730994e-05
-1.30456050616e-05
-1.30456546829e-05
-1.30457185005e-05
-1.30457866168e-05
-1.30458775499e-05
-1.30459095274e-05
-1.30458560939e-05
-1.30458295289e-05
-1.3045737097e-05
-1.30456729738e-05
-1.30456144038e-05
-1.30455701806e-05
-1.30455430564e-05
-1.30455348518e-05
-1.30455460825e-05
-1.30455761699e-05
-1.30456232989e-05
-1.30456847506e-05
-1.30457519919e-05
-1.30458464681e-05
-1.30458825006e-05
-1.30458235676e-05
-1.30457829869e-05
-1.30456828972e-05
-1.30456168953e-05
-1.30455590521e-05
-1.30455161407e-05
-1.3045490185e-05
-1.30454823883e-05
-1.30454931431e-05
-1.30455219936e-05
-1.30455677942e-05
-1.30456286309e-05
-1.30456977932e-05
-1.30458001295e-05
-1.30458506592e-05
-1.30457705819e-05
-1.30457031881e-05
-1.30455915507e-05
-1.30455218657e-05
-1.30454635764e-05
-1.30454211626e-05
-1.30453957433e-05
-1.30453881906e-05
-1.30453985996e-05
-1.30454268471e-05
-1.30454721406e-05
-1.30455335002e-05
-1.30456064323e-05
-1.30457204534e-05
-1.30457980869e-05
-1.30456790346e-05
-1.30455706824e-05
-1.30454466281e-05
-1.30453743141e-05
-1.30453158811e-05
-1.30452735407e-05
-1.30452483869e-05
-1.30452407699e-05
-1.30452511137e-05
-1.30452789724e-05
-1.30453241079e-05
-1.30453856985e-05
-1.3045461313e-05
-1.30455879576e-05
-1.30457067173e-05
-1.30454781409e-05
-1.30453262784e-05
-1.30452147264e-05
-1.30451542261e-05
-1.30451034651e-05
-1.30450657405e-05
-1.30450428386e-05
-1.30450360424e-05
-1.30450454032e-05
-1.30450707783e-05
-1.30451112415e-05
-1.3045165099e-05
-1.30452289716e-05
-1.30453434859e-05
-1.30455052803e-05
-1.30449056837e-05
-1.30449019153e-05
-1.30448764499e-05
-1.30448658953e-05
-1.30448459396e-05
-1.30448273809e-05
-1.30448153278e-05
-1.3044811887e-05
-1.30448177532e-05
-1.30448322071e-05
-1.30448533151e-05
-1.3044876411e-05
-1.30448906542e-05
-1.3044919903e-05
-1.30449319854e-05
-1.24568057102e-05
-1.24567704268e-05
-1.24567258192e-05
-1.24566792455e-05
-1.2456636022e-05
-1.24566001378e-05
-1.24565760982e-05
-1.24565664596e-05
-1.24565723297e-05
-1.24565930757e-05
-1.24566270033e-05
-1.24566713099e-05
-1.24567203897e-05
-1.24567702785e-05
-1.24568053204e-05
-1.24566475029e-05
-1.24566111985e-05
-1.24565648534e-05
-1.24565184471e-05
-1.24564746907e-05
-1.24564382732e-05
-1.24564137269e-05
-1.24564037955e-05
-1.24564096432e-05
-1.24564306434e-05
-1.24564650226e-05
-1.24565099574e-05
-1.24565598122e-05
-1.24566112872e-05
-1.24566491546e-05
-1.24564877563e-05
-1.24564503548e-05
-1.24564012336e-05
-1.2456354414e-05
-1.24563099895e-05
-1.2456273541e-05
-1.24562491423e-05
-1.24562394565e-05
-1.24562455419e-05
-1.24562668094e-05
-1.24563014591e-05
-1.24563467465e-05
-1.24563969587e-05
-1.24564499872e-05
-1.24564900198e-05
-1.24563547143e-05
-1.24563165575e-05
-1.24562654877e-05
-1.24562184952e-05
-1.24561741363e-05
-1.24561382585e-05
-1.24561144568e-05
-1.24561052225e-05
-1.2456111493e-05
-1.24561327307e-05
-1.24561671713e-05
-1.24562122255e-05
-1.24562621487e-05
-1.24563164025e-05
-1.24563574146e-05
-1.24562421092e-05
-1.24562043338e-05
-1.24561521367e-05
-1.24561055682e-05
-1.24560620041e-05
-1.24560270761e-05
-1.2456004124e-05
-1.24559953522e-05
-1.24560016584e-05
-1.24560225033e-05
-1.24560562394e-05
-1.24561004531e-05
-1.2456149444e-05
-1.24562044931e-05
-1.24562452281e-05
-1.2456147108e-05
-1.24561116058e-05
-1.24560582464e-05
-1.24560129815e-05
-1.24559708274e-05
-1.24559374246e-05
-1.2455915632e-05
-1.24559074544e-05
-1.24559136615e-05
-1.24559337901e-05
-1.24559663215e-05
-1.24560090928e-05
-1.24560565227e-05
-1.24561118986e-05
-1.245615125e-05
-1.24560699058e-05
-1.24560371202e-05
-1.24559830381e-05
-1.24559395684e-05
-1.2455899263e-05
-1.24558677041e-05
-1.24558472746e-05
-1.24558397416e-05
-1.24558457378e-05
-1.24558648767e-05
-1.24558958263e-05
-1.24559367142e-05
-1.24559821773e-05
-1.24560376075e-05
-1.24560748558e-05
-1.24560090149e-05
-1.24559784122e-05
-1.24559237525e-05
-1.2455881961e-05
-1.24558437186e-05
-1.24558141628e-05
-1.24557952539e-05
-1.24557883992e-05
-1.24557941304e-05
-1.24558121182e-05
-1.24558412946e-05
-1.24558801162e-05
-1.24559235823e-05
-1.24559792152e-05
-1.24560144163e-05
-1.24559609019e-05
-1.24559315525e-05
-1.24558757e-05
-1.24558352484e-05
-1.24557989536e-05
-1.24557713314e-05
-1.24557539014e-05
-1.24557476936e-05
-1.24557531166e-05
-1.24557699225e-05
-1.24557973451e-05
-1.24558342177e-05
-1.2455876073e-05
-1.24559325849e-05
-1.24559668792e-05
-1.24559213253e-05
-1.24558906984e-05
-1.24558324874e-05
-1.24557927173e-05
-1.24557580212e-05
-1.24557321462e-05
-1.24557160579e-05
-1.24557104519e-05
-1.24557155626e-05
-1.24557312671e-05
-1.24557571072e-05
-1.24557923425e-05
-1.24558332708e-05
-1.24558918327e-05
-1.24559277408e-05
-1.24558839189e-05
-1.24558480512e-05
-1.24557862478e-05
-1.24557465598e-05
-1.24557132152e-05
-1.24556888189e-05
-1.24556739197e-05
-1.2455668803e-05
-1.24556736307e-05
-1.24556883322e-05
-1.24557127963e-05
-1.24557467027e-05
-1.2455787359e-05
-1.24558493752e-05
-1.24558908966e-05
-1.24558418288e-05
-1.24557952194e-05
-1.245572875e-05
-1.24556889405e-05
-1.24556567506e-05
-1.24556336733e-05
-1.24556197e-05
-1.24556150084e-05
-1.24556195402e-05
-1.24556334235e-05
-1.2455656673e-05
-1.24556894006e-05
-1.24557300987e-05
-1.24557967817e-05
-1.2455849447e-05
-1.24557858589e-05
-1.24557219389e-05
-1.2455651119e-05
-1.24556120986e-05
-1.24555814051e-05
-1.24555593342e-05
-1.24555461594e-05
-1.24555416466e-05
-1.24555460515e-05
-1.24555592164e-05
-1.24555814271e-05
-1.24556127359e-05
-1.24556525795e-05
-1.24557237547e-05
-1.24557940365e-05
-1.24556771588e-05
-1.245559499e-05
-1.24555334224e-05
-1.24555030169e-05
-1.2455477781e-05
-1.24554592033e-05
-1.24554477737e-05
-1.24554439785e-05
-1.24554476953e-05
-1.24554590165e-05
-1.24554778132e-05
-1.24555035813e-05
-1.24555348743e-05
-1.24555971071e-05
-1.24556859302e-05
-1.24553686847e-05
-1.2455362461e-05
-1.24553531118e-05
-1.24553544877e-05
-1.24553496769e-05
-1.24553443536e-05
-1.24553407128e-05
-1.24553393772e-05
-1.24553406163e-05
-1.24553442185e-05
-1.24553496445e-05
-1.24553550515e-05
-1.24553547121e-05
-1.24553651994e-05
-1.24553770149e-05
-1.17271981064e-05
-1.17271894815e-05
-1.17271635129e-05
-1.17271405859e-05
-1.17271160002e-05
-1.17270958062e-05
-1.17270837952e-05
-1.17270801847e-05
-1.17270845367e-05
-1.1727096461e-05
-1.17271149385e-05
-1.17271384023e-05
-1.1727163326e-05
-1.17271877634e-05
-1.17272004084e-05
-1.17271009883e-05
-1.17270892928e-05
-1.17270630543e-05
-1.17270392674e-05
-1.1727014199e-05
-1.17269939229e-05
-1.17269818396e-05
-1.17269782423e-05
-1.17269827727e-05
-1.172699499e-05
-1.17270138412e-05
-1.17270377757e-05
-1.17270633436e-05
-1.17270891335e-05
-1.172710439e-05
-1.17270013948e-05
-1.17269869452e-05
-1.17269597384e-05
-1.17269351263e-05
-1.17269102009e-05
-1.17268903541e-05
-1.17268784264e-05
-1.1726874812e-05
-1.17268792856e-05
-1.17268914337e-05
-1.17269102174e-05
-1.17269341845e-05
-1.17269599481e-05
-1.17269870386e-05
-1.17270045055e-05
-1.17269208259e-05
-1.17269057462e-05
-1.17268775844e-05
-1.17268529623e-05
-1.17268287682e-05
-1.17268099084e-05
-1.17267984547e-05
-1.17267949109e-05
-1.17267991911e-05
-1.17268109231e-05
-1.17268291291e-05
-1.1726852504e-05
-1.17268777514e-05
-1.17269055076e-05
-1.17269237789e-05
-1.1726854768e-05
-1.1726840285e-05
-1.17268114318e-05
-1.17267875116e-05
-1.17267644351e-05
-1.17267466986e-05
-1.17267359021e-05
-1.17267325336e-05
-1.17267365704e-05
-1.17267476753e-05
-1.17267649751e-05
-1.17267873387e-05
-1.17268116013e-05
-1.17268395958e-05
-1.17268576265e-05
-1.17268001565e-05
-1.17267861864e-05
-1.17267574064e-05
-1.17267345235e-05
-1.17267128457e-05
-1.17266964544e-05
-1.17266864659e-05
-1.17266833404e-05
-1.17266870731e-05
-1.17266973856e-05
-1.17267135286e-05
-1.17267345768e-05
-1.17267575396e-05
-1.17267855062e-05
-1.17268026146e-05
-1.17267554537e-05
-1.17267427539e-05
-1.17267141957e-05
-1.17266925508e-05
-1.17266724692e-05
-1.17266575058e-05
-1.17266484303e-05
-1.17266455995e-05
-1.17266489916e-05
-1.17266583843e-05
-1.17266731939e-05
-1.1726692718e-05
-1.17267141961e-05
-1.17267419886e-05
-1.17267577608e-05
-1.17267195531e-05
-1.17267083408e-05
-1.17266798797e-05
-1.17266596246e-05
-1.17266412743e-05
-1.17266278298e-05
-1.17266197407e-05
-1.17266172332e-05
-1.17266202536e-05
-1.17266286454e-05
-1.17266420205e-05
-1.17266599238e-05
-1.1726679906e-05
-1.1726707571e-05
-1.17267220506e-05
-1.17266909927e-05
-1.17266806571e-05
-1.17266520296e-05
-1.17266331184e-05
-1.17266164727e-05
-1.17266045266e-05
-1.17265974494e-05
-1.17265952736e-05
-1.17265979111e-05
-1.1726605271e-05
-1.17266171862e-05
-1.17266334804e-05
-1.17266521141e-05
-1.17266799354e-05
-1.17266937098e-05
-1.17266673275e-05
-1.17266564328e-05
-1.17266272676e-05
-1.17266095419e-05
-1.17265945771e-05
-1.17265841434e-05
-1.17265780676e-05
-1.17265762404e-05
-1.17265784842e-05
-1.17265848142e-05
-1.17265952771e-05
-1.17266100063e-05
-1.17266275163e-05
-1.17266559591e-05
-1.172667035e-05
-1.17266454355e-05
-1.17266319548e-05
-1.17266017739e-05
-1.17265851073e-05
-1.172657186e-05
-1.17265629037e-05
-1.17265578556e-05
-1.1726556348e-05
-1.17265582201e-05
-1.1726563504e-05
-1.17265725058e-05
-1.17265856523e-05
-1.1726602159e-05
-1.17266317561e-05
-1.17266488089e-05
-1.17266220716e-05
-1.17266030279e-05
-1.17265713535e-05
-1.17265559169e-05
-1.17265444313e-05
-1.17265370533e-05
-1.17265329429e-05
-1.17265317988e-05
-1.17265332558e-05
-1.17265375647e-05
-1.17265450647e-05
-1.17265564996e-05
-1.1726571881e-05
-1.17266029926e-05
-1.17266256293e-05
-1.17265917704e-05
-1.17265637889e-05
-1.17265312335e-05
-1.17265177992e-05
-1.17265085758e-05
-1.17265026026e-05
-1.17264995298e-05
-1.17264985519e-05
-1.17264997789e-05
-1.17265030833e-05
-1.17265090867e-05
-1.17265184524e-05
-1.17265318169e-05
-1.17265639022e-05
-1.17265954315e-05
-1.17265307324e-05
-1.17264940423e-05
-1.1726469174e-05
-1.17264629548e-05
-1.17264583579e-05
-1.1726455605e-05
-1.1726454053e-05
-1.17264537577e-05
-1.17264542965e-05
-1.17264559269e-05
-1.1726458873e-05
-1.17264634785e-05
-1.17264698049e-05
-1.17264942204e-05
-1.17265342456e-05
-1.17263544607e-05
-1.17263641596e-05
-1.17263728226e-05
-1.17263870837e-05
-1.17263959528e-05
-1.17264018243e-05
-1.17264054623e-05
-1.17264067243e-05
-1.17264056665e-05
-1.17264022128e-05
-1.17263964008e-05
-1.1726387747e-05
-1.17263735993e-05
-1.17263648334e-05
-1.17263575289e-05
-1.10582000079e-05
-1.10581868082e-05
-1.10581716236e-05
-1.10581539028e-05
-1.10581368338e-05
-1.10581221025e-05
-1.10581115433e-05
-1.10581064983e-05
-1.10581076757e-05
-1.10581148299e-05
-1.10581272765e-05
-1.10581438738e-05
-1.10581623409e-05
-1.10581810903e-05
-1.1058193421e-05
-1.10581358107e-05
-1.10581231846e-05
-1.10581074738e-05
-1.1058090275e-05
-1.10580733487e-05
-1.10580585712e-05
-1.10580478457e-05
-1.10580426289e-05
-1.10580436552e-05
-1.1058050706e-05
-1.10580630831e-05
-1.10580796492e-05
-1.10580981446e-05
-1.10581172806e-05
-1.10581306273e-05
-1.1058066562e-05
-1.1058053526e-05
-1.10580358709e-05
-1.10580183444e-05
-1.10580010429e-05
-1.10579863095e-05
-1.10579757792e-05
-1.10579708014e-05
-1.10579720094e-05
-1.10579792198e-05
-1.10579917464e-05
-1.10580085181e-05
-1.105802727e-05
-1.10580472207e-05
-1.10580617464e-05
-1.1058007969e-05
-1.10579940137e-05
-1.10579750243e-05
-1.10579571181e-05
-1.10579397645e-05
-1.10579253099e-05
-1.10579151614e-05
-1.10579105285e-05
-1.10579119282e-05
-1.10579192146e-05
-1.10579317441e-05
-1.10579485401e-05
-1.10579673528e-05
-1.10579880392e-05
-1.10580032784e-05
-1.10579580038e-05
-1.10579436505e-05
-1.10579238406e-05
-1.1057905733e-05
-1.10578885863e-05
-1.10578745306e-05
-1.10578648479e-05
-1.10578605349e-05
-1.10578620558e-05
-1.10578692657e-05
-1.10578815981e-05
-1.10578981768e-05
-1.10579167939e-05
-1.10579380279e-05
-1.10579534779e-05
-1.10579149606e-05
-1.10579013642e-05
-1.10578805206e-05
-1.10578627418e-05
-1.10578461007e-05
-1.10578326833e-05
-1.10578235629e-05
-1.10578196006e-05
-1.10578211663e-05
-1.10578281583e-05
-1.10578400843e-05
-1.10578561982e-05
-1.10578743604e-05
-1.1057895932e-05
-1.10579111459e-05
-1.1057879182e-05
-1.10578664432e-05
-1.10578448816e-05
-1.10578276452e-05
-1.10578116561e-05
-1.10577989956e-05
-1.10577905079e-05
-1.1057786906e-05
-1.10577884628e-05
-1.10577951168e-05
-1.10578064726e-05
-1.10578219249e-05
-1.1057839447e-05
-1.10578612038e-05
-1.10578758929e-05
-1.10578501773e-05
-1.10578379312e-05
-1.10578159448e-05
-1.10577992931e-05
-1.10577841337e-05
-1.10577723426e-05
-1.10577645652e-05
-1.10577613247e-05
-1.10577628279e-05
-1.10577690407e-05
-1.10577796944e-05
-1.10577943402e-05
-1.10578111221e-05
-1.10578330182e-05
-1.10578471217e-05
-1.10578264828e-05
-1.10578147113e-05
-1.10577922781e-05
-1.10577762167e-05
-1.10577619558e-05
-1.10577510788e-05
-1.10577440404e-05
-1.10577411502e-05
-1.10577425562e-05
-1.1057748252e-05
-1.10577581078e-05
-1.10577718558e-05
-1.10577878894e-05
-1.1057810001e-05
-1.10578238227e-05
-1.10578069023e-05
-1.10577948698e-05
-1.10577718007e-05
-1.10577563313e-05
-1.10577430295e-05
-1.10577331635e-05
-1.10577268786e-05
-1.10577243478e-05
-1.10577256104e-05
-1.10577307233e-05
-1.10577396923e-05
-1.10577524558e-05
-1.10577677605e-05
-1.10577902815e-05
-1.10578045355e-05
-1.10577891891e-05
-1.1057775779e-05
-1.10577520146e-05
-1.10577372157e-05
-1.10577250756e-05
-1.10577162755e-05
-1.10577108081e-05
-1.10577086058e-05
-1.10577096954e-05
-1.10577141358e-05
-1.10577220976e-05
-1.10577337274e-05
-1.10577482424e-05
-1.10577713658e-05
-1.10577872759e-05
-1.10577711093e-05
-1.1057754621e-05
-1.10577301504e-05
-1.10577163643e-05
-1.10577055524e-05
-1.10576980403e-05
-1.10576933675e-05
-1.10576915359e-05
-1.10576923756e-05
-1.10576960909e-05
-1.10577028908e-05
-1.10577131427e-05
-1.10577266216e-05
-1.10577504466e-05
-1.10577697631e-05
-1.10577494084e-05
-1.10577276157e-05
-1.10577030307e-05
-1.1057690927e-05
-1.10576820589e-05
-1.10576757739e-05
-1.10576720925e-05
-1.10576704841e-05
-1.10576711535e-05
-1.10576740385e-05
-1.1057679524e-05
-1.10576879976e-05
-1.10576997036e-05
-1.10577237498e-05
-1.10577486553e-05
-1.10577084544e-05
-1.10576815414e-05
-1.10576625843e-05
-1.10576558523e-05
-1.10576505215e-05
-1.10576469014e-05
-1.10576445001e-05
-1.10576435032e-05
-1.10576436587e-05
-1.10576451648e-05
-1.10576482048e-05
-1.10576529821e-05
-1.10576594941e-05
-1.10576780345e-05
-1.10577085679e-05
-1.105759048e-05
-1.10575960555e-05
-1.10576000061e-05
-1.10576076797e-05
-1.10576121763e-05
-1.10576149148e-05
-1.10576164272e-05
-1.10576166181e-05
-1.10576155659e-05
-1.1057613289e-05
-1.10576098283e-05
-1.10576049394e-05
-1.1057597007e-05
-1.10575929205e-05
-1.10575904228e-05
-1.03639339696e-05
-1.03639249255e-05
-1.03639037958e-05
-1.03638845898e-05
-1.03638680925e-05
-1.03638559745e-05
-1.03638482892e-05
-1.03638455865e-05
-1.03638480562e-05
-1.03638555586e-05
-1.03638675664e-05
-1.03638831885e-05
-1.03639005833e-05
-1.0363918425e-05
-1.03639312327e-05
-1.03638806442e-05
-1.03638698919e-05
-1.03638485608e-05
-1.03638288758e-05
-1.03638120804e-05
-1.03637997566e-05
-1.03637920042e-05
-1.03637893164e-05
-1.03637918892e-05
-1.03637995764e-05
-1.03638118175e-05
-1.03638277392e-05
-1.03638455086e-05
-1.0363864058e-05
-1.03638780909e-05
-1.03638371111e-05
-1.03638254719e-05
-1.03638049815e-05
-1.03637858787e-05
-1.03637695822e-05
-1.03637575519e-05
-1.03637499871e-05
-1.03637473623e-05
-1.03637498606e-05
-1.03637573159e-05
-1.03637691754e-05
-1.03637846176e-05
-1.03638018417e-05
-1.03638202288e-05
-1.03638344369e-05
-1.0363803928e-05
-1.03637926533e-05
-1.0363772676e-05
-1.03637545868e-05
-1.03637389387e-05
-1.03637273213e-05
-1.03637200345e-05
-1.03637174987e-05
-1.03637198654e-05
-1.03637269488e-05
-1.03637382278e-05
-1.03637529535e-05
-1.03637693739e-05
-1.0363787417e-05
-1.03638013577e-05
-1.03637765562e-05
-1.03637659821e-05
-1.03637462905e-05
-1.03637292403e-05
-1.03637143078e-05
-1.0363703222e-05
-1.03636962842e-05
-1.03636938634e-05
-1.03636960723e-05
-1.03637027329e-05
-1.0363713363e-05
-1.03637273059e-05
-1.03637428745e-05
-1.03637605902e-05
-1.03637739641e-05
-1.03637540896e-05
-1.03637437526e-05
-1.03637246939e-05
-1.03637086588e-05
-1.03636944909e-05
-1.03636839828e-05
-1.03636774291e-05
-1.03636751317e-05
-1.03636771627e-05
-1.03636833564e-05
-1.0363693281e-05
-1.03637063863e-05
-1.03637210757e-05
-1.03637384946e-05
-1.03637511546e-05
-1.03637358516e-05
-1.03637261031e-05
-1.03637075933e-05
-1.03636924692e-05
-1.03636791375e-05
-1.03636692858e-05
-1.03636631694e-05
-1.03636610071e-05
-1.03636628487e-05
-1.03636685325e-05
-1.03636777155e-05
-1.03636899539e-05
-1.0363703767e-05
-1.03637209245e-05
-1.03637327801e-05
-1.03637213375e-05
-1.03637123576e-05
-1.03636941815e-05
-1.03636799881e-05
-1.03636675405e-05
-1.03636583807e-05
-1.03636527175e-05
-1.03636506956e-05
-1.03636523346e-05
-1.03636574916e-05
-1.03636659195e-05
-1.03636772982e-05
-1.03636903015e-05
-1.03637073032e-05
-1.03637184648e-05
-1.03637101086e-05
-1.03637015293e-05
-1.03636834682e-05
-1.036367011e-05
-1.03636585326e-05
-1.03636500975e-05
-1.03636449113e-05
-1.03636430473e-05
-1.03636444752e-05
-1.03636491055e-05
-1.03636567841e-05
-1.03636673412e-05
-1.03636796495e-05
-1.03636966755e-05
-1.03637074609e-05
-1.03637010729e-05
-1.03636922051e-05
-1.03636740783e-05
-1.03636614625e-05
-1.03636507919e-05
-1.03636431054e-05
-1.03636384241e-05
-1.03636367186e-05
-1.03636379439e-05
-1.03636420381e-05
-1.03636489686e-05
-1.03636587254e-05
-1.03636704565e-05
-1.03636877337e-05
-1.03636987833e-05
-1.03636929806e-05
-1.0363682908e-05
-1.03636644643e-05
-1.0363652534e-05
-1.0363642808e-05
-1.03636359399e-05
-1.03636318008e-05
-1.03636302797e-05
-1.03636313029e-05
-1.03636348386e-05
-1.03636409931e-05
-1.03636499126e-05
-1.03636610977e-05
-1.0363678859e-05
-1.03636910948e-05
-1.03636845365e-05
-1.03636718718e-05
-1.03636528725e-05
-1.03636417282e-05
-1.03636330922e-05
-1.03636271108e-05
-1.03636235751e-05
-1.03636222551e-05
-1.03636230726e-05
-1.03636260476e-05
-1.03636313412e-05
-1.03636393027e-05
-1.03636498383e-05
-1.03636681945e-05
-1.0363682969e-05
-1.03636735036e-05
-1.03636565663e-05
-1.03636372869e-05
-1.03636273885e-05
-1.03636200512e-05
-1.03636151082e-05
-1.0363612167e-05
-1.03636110755e-05
-1.03636117092e-05
-1.03636140806e-05
-1.036361845e-05
-1.03636251932e-05
-1.03636345805e-05
-1.03636532735e-05
-1.03636722171e-05
-1.03636486855e-05
-1.03636275329e-05
-1.03636121575e-05
-1.03636059755e-05
-1.03636013554e-05
-1.03635981524e-05
-1.03635962828e-05