/*--------------------------------*- C++ -*----------------------------------*\
  =========                 |
  \\      /  F ield         | OpenFOAM: The Open Source CFD Toolbox
   \\    /   O peration     | Website:  https://openfoam.org
    \\  /    A nd           | Version:  7
     \\/     M anipulation  |
\*---------------------------------------------------------------------------*/
FoamFile
{
    version     2.0;
    format      ascii;
    class       volScalarField;
    location    "0.66";
    object      p;
}
// * * * * * * * * * * * * * * * * * * * * * * * * * * * * * * * * * * * * * //

dimensions      [0 2 -2 0 0 0 0];

internalField   nonuniform List<scalar> 
22500
(
-1.6766162687e-06
-1.67651473252e-06
-1.67629407548e-06
-1.676094429e-06
-1.67591481984e-06
-1.67577929527e-06
-1.67569531734e-06
-1.67566804291e-06
-1.67569836631e-06
-1.67578537411e-06
-1.67592394307e-06
-1.67610655835e-06
-1.67630943645e-06
-1.67653288374e-06
-1.67664126281e-06
-1.67696108329e-06
-1.67688950769e-06
-1.6766851585e-06
-1.67649591419e-06
-1.67632151681e-06
-1.67618800273e-06
-1.67610453212e-06
-1.67607729238e-06
-1.67610771818e-06
-1.67619435709e-06
-1.67633104699e-06
-1.6765085951e-06
-1.67670119284e-06
-1.67690844534e-06
-1.67698672275e-06
-1.67735772476e-06
-1.67731963368e-06
-1.67713543025e-06
-1.67696181312e-06
-1.67679665387e-06
-1.67666842714e-06
-1.67658751122e-06
-1.676561005e-06
-1.67659076033e-06
-1.67667490918e-06
-1.67680637166e-06
-1.67697474318e-06
-1.6771517744e-06
-1.67733883831e-06
-1.67738361001e-06
-1.67778225554e-06
-1.67777746899e-06
-1.67761609131e-06
-1.6774606446e-06
-1.67730770928e-06
-1.67718726027e-06
-1.67711058902e-06
-1.67708541176e-06
-1.67711387616e-06
-1.67719382006e-06
-1.67731753697e-06
-1.67747370428e-06
-1.67763256996e-06
-1.67779670333e-06
-1.67780814185e-06
-1.67825256588e-06
-1.67828186864e-06
-1.67814637804e-06
-1.67801115872e-06
-1.67787294766e-06
-1.67776229044e-06
-1.67769122825e-06
-1.67766786475e-06
-1.67769455746e-06
-1.67776893282e-06
-1.67788288935e-06
-1.67802434541e-06
-1.67816295333e-06
-1.67830109886e-06
-1.67827842651e-06
-1.67876605966e-06
-1.67882973041e-06
-1.67872241435e-06
-1.67860871099e-06
-1.67848695346e-06
-1.67838752868e-06
-1.67832307625e-06
-1.67830188581e-06
-1.67832645258e-06
-1.67839426494e-06
-1.67849702248e-06
-1.6786220403e-06
-1.67873907849e-06
-1.67884898414e-06
-1.67879197123e-06
-1.67931455896e-06
-1.67941190634e-06
-1.67933407755e-06
-1.67924242902e-06
-1.67913818454e-06
-1.67905098939e-06
-1.67899387615e-06
-1.6789751299e-06
-1.67899730909e-06
-1.67905783786e-06
-1.67914840877e-06
-1.67925593649e-06
-1.67935086576e-06
-1.67943124011e-06
-1.67934062578e-06
-1.67989094973e-06
-1.68002021957e-06
-1.67997225767e-06
-1.67990255307e-06
-1.67981636866e-06
-1.67974209511e-06
-1.67969287177e-06
-1.67967678544e-06
-1.67969637762e-06
-1.67974908812e-06
-1.67982679897e-06
-1.67991630634e-06
-1.67998924817e-06
-1.68003975422e-06
-1.67991731458e-06
-1.68048818257e-06
-1.68064632337e-06
-1.68062759459e-06
-1.68057920846e-06
-1.68051130844e-06
-1.68045050968e-06
-1.68040966533e-06
-1.68039643955e-06
-1.68041327008e-06
-1.68045769908e-06
-1.68052202187e-06
-1.68059331377e-06
-1.68064491782e-06
-1.6806662425e-06
-1.68051505529e-06
-1.68109783966e-06
-1.68128015868e-06
-1.68128899894e-06
-1.68126107561e-06
-1.68121168676e-06
-1.68116504654e-06
-1.68113317295e-06
-1.68112304838e-06
-1.68113690833e-06
-1.68117249532e-06
-1.68122278247e-06
-1.68127567115e-06
-1.6813068416e-06
-1.68130071548e-06
-1.68112551744e-06
-1.68170932637e-06
-1.68190906548e-06
-1.68194285886e-06
-1.68193479402e-06
-1.68190466344e-06
-1.6818733582e-06
-1.6818513658e-06
-1.68184468721e-06
-1.68185526539e-06
-1.68188113712e-06
-1.6819162582e-06
-1.68195005479e-06
-1.6819614646e-06
-1.68193058757e-06
-1.68173822727e-06
-1.68231127298e-06
-1.68251762777e-06
-1.68257238947e-06
-1.68258444921e-06
-1.68257545898e-06
-1.68256152841e-06
-1.68255081561e-06
-1.68254809068e-06
-1.68255491129e-06
-1.68256971068e-06
-1.68258767983e-06
-1.68260057354e-06
-1.68259204844e-06
-1.68254049668e-06
-1.68234188046e-06
-1.68289136243e-06
-1.68308289204e-06
-1.68315371744e-06
-1.68318933238e-06
-1.68320583375e-06
-1.68321274061e-06
-1.68321543175e-06
-1.68321736231e-06
-1.68321974736e-06
-1.68322137617e-06
-1.68321878388e-06
-1.68320650757e-06
-1.68317473915e-06
-1.68310749629e-06
-1.68292404269e-06
-1.68338023934e-06
-1.68353595018e-06
-1.68364152946e-06
-1.6837175552e-06
-1.68377193886e-06
-1.68380764279e-06
-1.68382816558e-06
-1.68383621075e-06
-1.68383270627e-06
-1.6838167545e-06
-1.68378567531e-06
-1.68373593065e-06
-1.68366424108e-06
-1.68356285731e-06
-1.68341501951e-06
-1.68342984371e-06
-1.6837997746e-06
-1.68400103704e-06
-1.68415752861e-06
-1.68427443279e-06
-1.68435425025e-06
-1.68440129554e-06
-1.68441829379e-06
-1.6844061591e-06
-1.68436402901e-06
-1.68428924552e-06
-1.68417755133e-06
-1.68402628674e-06
-1.68383029894e-06
-1.68346686254e-06
-1.56993344645e-06
-1.56991898136e-06
-1.56989610315e-06
-1.56987342183e-06
-1.56985275798e-06
-1.56983672356e-06
-1.569826547e-06
-1.5698230342e-06
-1.56982641847e-06
-1.5698365121e-06
-1.56985257694e-06
-1.56987337077e-06
-1.56989616765e-06
-1.56991893569e-06
-1.56993344423e-06
-1.56985051065e-06
-1.56983421283e-06
-1.56981015201e-06
-1.56978669534e-06
-1.56976529899e-06
-1.56974864253e-06
-1.56973805369e-06
-1.5697344142e-06
-1.56973798743e-06
-1.56974855653e-06
-1.56976530189e-06
-1.56978688977e-06
-1.56981053081e-06
-1.56983446138e-06
-1.56985082447e-06
-1.56975730365e-06
-1.56973894978e-06
-1.56971323821e-06
-1.56968880619e-06
-1.56966652589e-06
-1.56964919912e-06
-1.5696381885e-06
-1.56963441963e-06
-1.56963817095e-06
-1.56964920143e-06
-1.56966663436e-06
-1.56968910099e-06
-1.56971373288e-06
-1.56973928368e-06
-1.56975781824e-06
-1.56967933437e-06
-1.5696596457e-06
-1.56963271969e-06
-1.56960784028e-06
-1.56958519254e-06
-1.56956763579e-06
-1.56955649973e-06
-1.56955270286e-06
-1.56955652143e-06
-1.56956770655e-06
-1.5695853756e-06
-1.56960819168e-06
-1.56963326952e-06
-1.56966002535e-06
-1.56968004258e-06
-1.56961213453e-06
-1.5695913029e-06
-1.56956327696e-06
-1.56953815076e-06
-1.56951538824e-06
-1.56949782812e-06
-1.56948672694e-06
-1.56948295665e-06
-1.56948678037e-06
-1.56949795545e-06
-1.56951563535e-06
-1.56953855729e-06
-1.56956387351e-06
-1.56959172489e-06
-1.56961303713e-06
-1.56955079427e-06
-1.5695284812e-06
-1.56949906952e-06
-1.56947352843e-06
-1.56945058297e-06
-1.56943300501e-06
-1.56942194824e-06
-1.56941820992e-06
-1.56942202903e-06
-1.5694331816e-06
-1.5694508874e-06
-1.56947398736e-06
-1.56949971112e-06
-1.56952893392e-06
-1.56955191036e-06
-1.5694925038e-06
-1.56946785382e-06
-1.56943645417e-06
-1.56941001396e-06
-1.56938655444e-06
-1.56936874445e-06
-1.5693576161e-06
-1.56935387072e-06
-1.5693577175e-06
-1.56936895756e-06
-1.56938690272e-06
-1.56941051464e-06
-1.56943713362e-06
-1.56946832905e-06
-1.56949382798e-06
-1.56943473004e-06
-1.56940641354e-06
-1.56937214713e-06
-1.56934405501e-06
-1.56931954012e-06
-1.56930112458e-06
-1.56928971025e-06
-1.56928588641e-06
-1.56928982756e-06
-1.56930136579e-06
-1.56931992174e-06
-1.56934458887e-06
-1.56937285108e-06
-1.56940691385e-06
-1.56943624549e-06
-1.56937485497e-06
-1.56934115983e-06
-1.56930293481e-06
-1.56927228557e-06
-1.56924605278e-06
-1.56922656439e-06
-1.5692145876e-06
-1.56921059168e-06
-1.56921471302e-06
-1.56922681971e-06
-1.56924645113e-06
-1.56927284004e-06
-1.56930365335e-06
-1.5693416843e-06
-1.56937656997e-06
-1.56931031733e-06
-1.56926922909e-06
-1.56922588736e-06
-1.56919178112e-06
-1.56916317361e-06
-1.56914214649e-06
-1.56912932489e-06
-1.56912506025e-06
-1.56912945045e-06
-1.56914240171e-06
-1.56916357276e-06
-1.56919234105e-06
-1.5692266096e-06
-1.56926977941e-06
-1.56931222908e-06
-1.56923865178e-06
-1.56918802162e-06
-1.56913855576e-06
-1.56910029851e-06
-1.56906882308e-06
-1.56904589232e-06
-1.56903199782e-06
-1.56902738119e-06
-1.56903211313e-06
-1.5690461288e-06
-1.56906920096e-06
-1.56910084646e-06
-1.56913927153e-06
-1.56918860167e-06
-1.56924077581e-06
-1.56915790851e-06
-1.56909555261e-06
-1.56903928422e-06
-1.56899654727e-06
-1.56896197105e-06
-1.56893693623e-06
-1.56892181902e-06
-1.56891679619e-06
-1.56892191061e-06
-1.56893713154e-06
-1.56896229797e-06
-1.56899705415e-06
-1.56903997277e-06
-1.56909616095e-06
-1.56916023187e-06
-1.56906610559e-06
-1.56898972306e-06
-1.5689267099e-06
-1.56887991899e-06
-1.56884246108e-06
-1.56881537202e-06
-1.5687990215e-06
-1.56879356537e-06
-1.56879907469e-06
-1.56881549073e-06
-1.56884269331e-06
-1.56888033405e-06
-1.56892733223e-06
-1.56899033377e-06
-1.5690685849e-06
-1.56895028209e-06
-1.56885978238e-06
-1.56879555657e-06
-1.56874808509e-06
-1.56870985214e-06
-1.5686819941e-06
-1.56866508877e-06
-1.5686594277e-06
-1.56866508503e-06
-1.56868200674e-06
-1.56870993869e-06
-1.56874835176e-06
-1.56879605471e-06
-1.5688603904e-06
-1.56895281778e-06
-1.5687573532e-06
-1.56869527146e-06
-1.568644631e-06
-1.56860433389e-06
-1.56857042418e-06
-1.56854518947e-06
-1.56852971578e-06
-1.56852448965e-06
-1.56852967536e-06
-1.56854512506e-06
-1.56857040386e-06
-1.56860448423e-06
-1.56864509515e-06
-1.5686960105e-06
-1.56875971583e-06
-1.50380902719e-06
-1.50380534168e-06
-1.50380059188e-06
-1.50379623278e-06
-1.50379212499e-06
-1.50378895163e-06
-1.50378694138e-06
-1.5037862175e-06
-1.50378680832e-06
-1.50378866447e-06
-1.50379163837e-06
-1.50379549703e-06
-1.50379978983e-06
-1.50380421153e-06
-1.50380766389e-06
-1.50379729997e-06
-1.50379332672e-06
-1.50378834487e-06
-1.50378374272e-06
-1.50377947349e-06
-1.50377617746e-06
-1.50377409591e-06
-1.50377335929e-06
-1.50377400478e-06
-1.50377597613e-06
-1.50377911476e-06
-1.50378317857e-06
-1.50378770289e-06
-1.50379240904e-06
-1.50379614118e-06
-1.50379107702e-06
-1.50378734882e-06
-1.50378256982e-06
-1.50377815471e-06
-1.50377406625e-06
-1.50377090138e-06
-1.50376889506e-06
-1.50376818404e-06
-1.50376881108e-06
-1.50377071725e-06
-1.5037737418e-06
-1.50377764712e-06
-1.50378196522e-06
-1.50378649361e-06
-1.50379002256e-06
-1.50378769889e-06
-1.5037844219e-06
-1.5037799423e-06
-1.50377585885e-06
-1.50377207151e-06
-1.50376913245e-06
-1.50376725797e-06
-1.50376658844e-06
-1.5037671711e-06
-1.50376894665e-06
-1.50377175825e-06
-1.50377538055e-06
-1.50377935326e-06
-1.5037835805e-06
-1.50378674763e-06
-1.50378568923e-06
-1.50378294914e-06
-1.50377881119e-06
-1.50377513599e-06
-1.50377170764e-06
-1.50376904012e-06
-1.50376733205e-06
-1.50376671803e-06
-1.50376724517e-06
-1.50376885595e-06
-1.50377140302e-06
-1.5037746789e-06
-1.50377824227e-06
-1.50378212109e-06
-1.50378483478e-06
-1.50378501123e-06
-1.50378288371e-06
-1.50377917172e-06
-1.50377597633e-06
-1.50377297651e-06
-1.50377063776e-06
-1.50376913405e-06
-1.50376858928e-06
-1.50376904763e-06
-1.50377045622e-06
-1.50377268129e-06
-1.50377553975e-06
-1.50377862022e-06
-1.503782086e-06
-1.50378424286e-06
-1.50378578419e-06
-1.50378438842e-06
-1.50378117171e-06
-1.50377853026e-06
-1.5037760256e-06
-1.50377406861e-06
-1.50377280583e-06
-1.50377234356e-06
-1.50377272097e-06
-1.50377389033e-06
-1.50377573795e-06
-1.50377810975e-06
-1.50378063506e-06
-1.50378361501e-06
-1.50378511214e-06
-1.5037880124e-06
-1.50378743034e-06
-1.50378476408e-06
-1.50378273419e-06
-1.50378078151e-06
-1.50377925282e-06
-1.5037782619e-06
-1.50377789341e-06
-1.50377817947e-06
-1.50377907945e-06
-1.50378050396e-06
-1.50378233306e-06
-1.50378424822e-06
-1.50378668512e-06
-1.50378744819e-06
-1.50379161526e-06
-1.50379186827e-06
-1.50378978662e-06
-1.50378840294e-06
-1.50378703909e-06
-1.50378596906e-06
-1.50378527149e-06
-1.50378500473e-06
-1.50378519175e-06
-1.50378580154e-06
-1.50378677172e-06
-1.5037880214e-06
-1.50378929538e-06
-1.50379115638e-06
-1.50379116312e-06
-1.50379642438e-06
-1.50379746437e-06
-1.50379597354e-06
-1.50379524672e-06
-1.50379449132e-06
-1.50379389875e-06
-1.50379350626e-06
-1.50379334619e-06
-1.50379343034e-06
-1.50379373883e-06
-1.50379423781e-06
-1.50379488916e-06
-1.50379551336e-06
-1.50379679594e-06
-1.50379609136e-06
-1.50380220109e-06
-1.50380390017e-06
-1.50380297813e-06
-1.50380290267e-06
-1.50380276152e-06
-1.50380264892e-06
-1.50380256499e-06
-1.50380251108e-06
-1.50380249284e-06
-1.50380249682e-06
-1.50380252143e-06
-1.50380257001e-06
-1.50380255005e-06
-1.50380327836e-06
-1.50380199285e-06
-1.50380868806e-06
-1.50381079892e-06
-1.50381039519e-06
-1.50381095733e-06
-1.50381141783e-06
-1.50381177578e-06
-1.50381198647e-06
-1.50381203748e-06
-1.50381191721e-06
-1.50381163112e-06
-1.5038111914e-06
-1.50381064755e-06
-1.50380999886e-06
-1.50381022046e-06
-1.50380859228e-06
-1.50381549828e-06
-1.50381767659e-06
-1.50381776221e-06
-1.5038189629e-06
-1.5038199979e-06
-1.50382077816e-06
-1.50382125853e-06
-1.50382139399e-06
-1.50382119199e-06
-1.50382063823e-06
-1.50381977903e-06
-1.5038186706e-06
-1.50381738981e-06
-1.50381713906e-06
-1.50381551706e-06
-1.50382069165e-06
-1.50382283823e-06
-1.50382400977e-06
-1.50382615449e-06
-1.50382787974e-06
-1.50382913876e-06
-1.50382989029e-06
-1.50383012731e-06
-1.50382982546e-06
-1.50382899802e-06
-1.50382766491e-06
-1.50382586734e-06
-1.50382364587e-06
-1.50382232714e-06
-1.50382081894e-06
-1.50381570214e-06
-1.5038226006e-06
-1.50382718718e-06
-1.50383160007e-06
-1.50383484425e-06
-1.50383711718e-06
-1.50383847186e-06
-1.50383890132e-06
-1.50383840732e-06
-1.5038369791e-06
-1.50383462615e-06
-1.50383130974e-06
-1.50382682649e-06
-1.50382208569e-06
-1.50381575335e-06
-1.40473384503e-06
-1.40473528793e-06
-1.40473696896e-06
-1.40473842191e-06
-1.40473959886e-06
-1.40474035637e-06
-1.40474073851e-06
-1.40474076934e-06
-1.40474046895e-06
-1.40473984905e-06
-1.40473893787e-06
-1.40473776728e-06
-1.40473640141e-06
-1.4047349025e-06
-1.40473330068e-06
-1.40473613758e-06
-1.40473769955e-06
-1.40473945864e-06
-1.40474102787e-06
-1.40474227142e-06
-1.40474307106e-06
-1.40474347316e-06
-1.40474350856e-06
-1.40474319738e-06
-1.40474255497e-06
-1.40474160717e-06
-1.40474038578e-06
-1.40473895384e-06
-1.40473737317e-06
-1.40473573676e-06
-1.40473444451e-06
-1.4047357854e-06
-1.4047372433e-06
-1.40473857778e-06
-1.40473961038e-06
-1.40474027033e-06
-1.40474059536e-06
-1.40474061489e-06
-1.40474034365e-06
-1.40473979771e-06
-1.40473899762e-06
-1.40473796822e-06
-1.40473676357e-06
-1.40473543046e-06
-1.40473407571e-06
-1.40473201477e-06
-1.40473308394e-06
-1.40473425082e-06
-1.40473531375e-06
-1.40473612672e-06
-1.40473664171e-06
-1.40473688843e-06
-1.4047368935e-06
-1.40473666678e-06
-1.40473622415e-06
-1.4047355814e-06
-1.40473475739e-06
-1.40473379653e-06
-1.40473272387e-06
-1.40473166215e-06
-1.40472971188e-06
-1.40473054766e-06
-1.40473148581e-06
-1.40473230986e-06
-1.40473293771e-06
-1.40473332432e-06
-1.40473350296e-06
-1.40473349354e-06
-1.40473330571e-06
-1.40473295201e-06
-1.4047324456e-06
-1.4047317987e-06
-1.40473104678e-06
-1.40473018834e-06
-1.40472937033e-06
-1.40472744925e-06
-1.40472811366e-06
-1.40472882944e-06
-1.40472945058e-06
-1.40472991457e-06
-1.40473019208e-06
-1.40473031108e-06
-1.40473029108e-06
-1.40473013801e-06
-1.40472986447e-06
-1.40472947927e-06
-1.40472898997e-06
-1.40472842278e-06
-1.40472774885e-06
-1.40472714843e-06
-1.40472518049e-06
-1.40472567962e-06
-1.40472619939e-06
-1.40472664119e-06
-1.40472695652e-06
-1.40472713442e-06
-1.4047271985e-06
-1.40472716822e-06
-1.40472704635e-06
-1.40472684471e-06
-1.40472656877e-06
-1.40472622171e-06
-1.40472582045e-06
-1.40472530986e-06
-1.40472490946e-06
-1.40472289235e-06
-1.40472321747e-06
-1.40472357307e-06
-1.40472384787e-06
-1.40472403279e-06
-1.40472412295e-06
-1.40472414079e-06
-1.40472410188e-06
-1.40472400841e-06
-1.40472386993e-06
-1.40472369036e-06
-1.40472346925e-06
-1.40472321524e-06
-1.40472285008e-06
-1.40472263561e-06
-1.4047205526e-06
-1.40472072822e-06
-1.40472093844e-06
-1.40472106801e-06
-1.40472114046e-06
-1.40472115482e-06
-1.40472113284e-06
-1.40472108639e-06
-1.40472101687e-06
-1.40472093212e-06
-1.40472083484e-06
-1.40472072251e-06
-1.40472059643e-06
-1.40472036034e-06
-1.40472031916e-06
-1.40471815811e-06
-1.40471819425e-06
-1.4047182735e-06
-1.40471828014e-06
-1.40471825776e-06
-1.40471821224e-06
-1.40471815833e-06
-1.40471810737e-06
-1.40471805727e-06
-1.40471801628e-06
-1.40471798562e-06
-1.40471796289e-06
-1.40471794442e-06
-1.40471782245e-06
-1.40471794665e-06
-1.40471567119e-06
-1.40471557813e-06
-1.40471554813e-06
-1.40471545775e-06
-1.40471536603e-06
-1.40471527543e-06
-1.4047152006e-06
-1.40471514591e-06
-1.40471511148e-06
-1.40471510162e-06
-1.40471512045e-06
-1.40471516595e-06
-1.40471523195e-06
-1.40471520991e-06
-1.40471549364e-06
-1.40471305016e-06
-1.40471283343e-06
-1.40471272213e-06
-1.40471256999e-06
-1.4047124349e-06
-1.40471232456e-06
-1.40471223779e-06
-1.40471218558e-06
-1.40471215833e-06
-1.40471216835e-06
-1.40471221301e-06
-1.404712299e-06
-1.40471242024e-06
-1.40471247584e-06
-1.40471291515e-06
-1.40471019455e-06
-1.40470987151e-06
-1.40470972879e-06
-1.40470956499e-06
-1.4047094359e-06
-1.40470932875e-06
-1.40470925721e-06
-1.40470920512e-06
-1.40470918608e-06
-1.40470918935e-06
-1.4047092317e-06
-1.4047093159e-06
-1.4047094432e-06
-1.40470953463e-06
-1.40471011572e-06
-1.40470704593e-06
-1.40470666963e-06
-1.40470653935e-06
-1.40470641783e-06
-1.40470633066e-06
-1.4047062726e-06
-1.404706221e-06
-1.40470618941e-06
-1.40470615924e-06
-1.40470614431e-06
-1.40470614759e-06
-1.40470618712e-06
-1.40470627165e-06
-1.40470635795e-06
-1.40470705592e-06
-1.4047048425e-06
-1.40470406538e-06
-1.4047037153e-06
-1.40470343611e-06
-1.40470324896e-06
-1.40470311958e-06
-1.40470303938e-06
-1.40470299256e-06
-1.40470298073e-06
-1.404703001e-06
-1.40470307053e-06
-1.40470321061e-06
-1.40470345021e-06
-1.40470374588e-06
-1.40470482819e-06
-1.32885497441e-06
-1.32885430591e-06
-1.32885360697e-06
-1.32885315785e-06
-1.32885263132e-06
-1.32885216906e-06
-1.3288519114e-06
-1.32885183905e-06
-1.3288519277e-06
-1.32885216274e-06
-1.32885252886e-06
-1.32885300443e-06
-1.32885357616e-06
-1.3288542039e-06
-1.32885498943e-06
-1.32885468206e-06
-1.32885398677e-06
-1.32885330206e-06
-1.32885280391e-06
-1.32885225008e-06
-1.32885178386e-06
-1.32885152411e-06
-1.32885145351e-06
-1.32885155243e-06
-1.32885180414e-06
-1.32885219355e-06
-1.32885270119e-06
-1.32885331265e-06
-1.32885398397e-06
-1.32885477219e-06
-1.3288576769e-06
-1.32885718504e-06
-1.32885672005e-06
-1.32885635544e-06
-1.32885595014e-06
-1.32885560818e-06
-1.32885541949e-06
-1.3288553681e-06
-1.32885544021e-06
-1.32885562131e-06
-1.32885590011e-06
-1.32885626245e-06
-1.32885670135e-06
-1.32885717213e-06
-1.32885773497e-06
-1.32886091086e-06
-1.32886064179e-06
-1.32886036628e-06
-1.32886014209e-06
-1.32885988407e-06
-1.32885966859e-06
-1.32885954905e-06
-1.32885951463e-06
-1.32885955822e-06
-1.32885966763e-06
-1.32885983484e-06
-1.32886005042e-06
-1.32886031492e-06
-1.32886058415e-06
-1.32886093842e-06
-1.32886378387e-06
-1.32886369377e-06
-1.32886355858e-06
-1.32886345452e-06
-1.32886331532e-06
-1.32886319606e-06
-1.32886313096e-06
-1.32886311055e-06
-1.32886313157e-06
-1.32886318299e-06
-1.3288632597e-06
-1.328863356e-06
-1.32886347983e-06
-1.32886358685e-06
-1.32886378007e-06
-1.32886641185e-06
-1.32886642442e-06
-1.3288664265e-06
-1.32886641992e-06
-1.32886637909e-06
-1.32886634012e-06
-1.32886631932e-06
-1.32886631038e-06
-1.3288663121e-06
-1.3288663154e-06
-1.32886631646e-06
-1.32886631333e-06
-1.32886632078e-06
-1.32886629369e-06
-1.32886636104e-06
-1.3288688499e-06
-1.32886895858e-06
-1.32886907616e-06
-1.32886914989e-06
-1.32886919045e-06
-1.32886921449e-06
-1.32886922906e-06
-1.32886922939e-06
-1.32886921524e-06
-1.3288691785e-06
-1.32886911667e-06
-1.32886903042e-06
-1.32886894006e-06
-1.32886879866e-06
-1.32886876339e-06
-1.32887112701e-06
-1.3288713251e-06
-1.32887153686e-06
-1.32887168091e-06
-1.3288717892e-06
-1.32887186375e-06
-1.32887190587e-06
-1.32887191311e-06
-1.32887188616e-06
-1.32887181757e-06
-1.32887170538e-06
-1.32887155173e-06
-1.32887138073e-06
-1.3288711418e-06
-1.32887102198e-06
-1.3288732864e-06
-1.32887356388e-06
-1.32887385495e-06
-1.32887405779e-06
-1.32887421671e-06
-1.32887432644e-06
-1.32887438788e-06
-1.32887439937e-06
-1.32887436302e-06
-1.32887427139e-06
-1.32887412216e-06
-1.32887391775e-06
-1.32887368262e-06
-1.32887336078e-06
-1.32887316498e-06
-1.32887536729e-06
-1.32887571703e-06
-1.3288760779e-06
-1.32887632517e-06
-1.32887651736e-06
-1.32887664921e-06
-1.32887672018e-06
-1.32887673421e-06
-1.32887669167e-06
-1.32887658708e-06
-1.32887641568e-06
-1.32887617868e-06
-1.32887589729e-06
-1.32887550513e-06
-1.32887523515e-06
-1.32887742473e-06
-1.3288778587e-06
-1.32887827536e-06
-1.32887854433e-06
-1.32887874876e-06
-1.32887888255e-06
-1.32887895421e-06
-1.32887896592e-06
-1.32887892272e-06
-1.32887881548e-06
-1.3288786401e-06
-1.32887839302e-06
-1.32887808714e-06
-1.32887764e-06
-1.32887728483e-06
-1.32887954291e-06
-1.32888007271e-06
-1.32888051679e-06
-1.32888077834e-06
-1.32888096168e-06
-1.32888108161e-06
-1.3288811377e-06
-1.32888114729e-06
-1.32888110446e-06
-1.32888101087e-06
-1.32888085155e-06
-1.32888062286e-06
-1.32888032404e-06
-1.32887984246e-06
-1.32887938671e-06
-1.3288818258e-06
-1.32888247665e-06
-1.32888290456e-06
-1.32888309861e-06
-1.32888322856e-06
-1.32888329474e-06
-1.32888333068e-06
-1.32888332348e-06
-1.32888329683e-06
-1.32888322682e-06
-1.32888311519e-06
-1.32888294647e-06
-1.32888270724e-06
-1.32888223819e-06
-1.32888165785e-06
-1.32888460219e-06
-1.32888536027e-06
-1.32888561065e-06
-1.32888563816e-06
-1.32888562284e-06
-1.32888560624e-06
-1.3288855758e-06
-1.32888556118e-06
-1.32888554644e-06
-1.32888553766e-06
-1.32888551986e-06
-1.32888548577e-06
-1.32888541488e-06
-1.32888510979e-06
-1.32888443097e-06
-1.32888839749e-06
-1.32888854704e-06
-1.32888843685e-06
-1.32888822287e-06
-1.32888805557e-06
-1.32888792217e-06
-1.32888783724e-06
-1.32888779607e-06
-1.32888780753e-06
-1.32888786033e-06
-1.32888795075e-06
-1.3288880757e-06
-1.32888823249e-06
-1.32888827551e-06
-1.32888819341e-06
-1.23647452041e-06
-1.23647542962e-06
-1.2364765711e-06
-1.23647752613e-06
-1.23647828815e-06
-1.23647878091e-06
-1.2364790289e-06
-1.23647905706e-06
-1.23647888768e-06
-1.23647852896e-06
-1.23647799933e-06
-1.23647732278e-06
-1.2364765391e-06
-1.23647570053e-06
-1.23647480047e-06
-1.23647558227e-06
-1.23647659843e-06
-1.23647778254e-06
-1.23647881074e-06
-1.23647961528e-06
-1.23648013035e-06
-1.23648038458e-06
-1.2364804092e-06
-1.2364802271e-06
-1.23647984939e-06
-1.2364792938e-06
-1.23647858374e-06
-1.23647775852e-06
-1.2364768702e-06
-1.23647594718e-06
-1.236474219e-06
-1.23647511057e-06
-1.23647607786e-06
-1.23647695491e-06
-1.23647762635e-06
-1.2364780579e-06
-1.23647826952e-06
-1.23647828886e-06
-1.23647813354e-06
-1.23647781584e-06
-1.23647735086e-06
-1.23647675843e-06
-1.23647607201e-06
-1.23647533703e-06
-1.23647458266e-06
-1.23647250624e-06
-1.23647322047e-06
-1.23647399444e-06
-1.23647469831e-06
-1.23647523692e-06
-1.23647558424e-06
-1.23647575428e-06
-1.23647577076e-06
-1.23647564598e-06
-1.23647539261e-06
-1.23647502348e-06
-1.23647455507e-06
-1.2364740148e-06
-1.23647343829e-06
-1.23647285129e-06
-1.23647094605e-06
-1.23647151355e-06
-1.23647214139e-06
-1.2364726922e-06
-1.23647311843e-06
-1.23647339105e-06
-1.23647352547e-06
-1.23647353827e-06
-1.23647344025e-06
-1.23647324202e-06
-1.23647295513e-06
-1.23647259219e-06
-1.23647217474e-06
-1.23647172633e-06
-1.23647127232e-06
-1.23646946279e-06
-1.23646994115e-06
-1.23647042184e-06
-1.23647085182e-06
-1.23647118276e-06
-1.23647139323e-06
-1.23647149615e-06
-1.23647150643e-06
-1.23647143148e-06
-1.23647128197e-06
-1.23647106678e-06
-1.23647079558e-06
-1.23647048379e-06
-1.23647014242e-06
-1.23646979929e-06
-1.23646803784e-06
-1.23646843027e-06
-1.23646878719e-06
-1.23646911182e-06
-1.23646935571e-06
-1.23646950951e-06
-1.23646958346e-06
-1.23646959115e-06
-1.23646953681e-06
-1.23646943053e-06
-1.23646927898e-06
-1.23646908869e-06
-1.23646886943e-06
-1.23646861959e-06
-1.23646837261e-06
-1.23646665916e-06
-1.23646695407e-06
-1.23646721483e-06
-1.23646744502e-06
-1.23646761554e-06
-1.23646772087e-06
-1.23646777076e-06
-1.23646777592e-06
-1.23646773953e-06
-1.23646767008e-06
-1.23646757295e-06
-1.23646745191e-06
-1.23646731166e-06
-1.23646713951e-06
-1.23646697508e-06
-1.23646529211e-06
-1.23646551494e-06
-1.23646569584e-06
-1.23646584574e-06
-1.23646595438e-06
-1.23646601825e-06
-1.23646604809e-06
-1.23646605077e-06
-1.23646602905e-06
-1.23646598972e-06
-1.23646593699e-06
-1.23646587283e-06
-1.23646579794e-06
-1.23646568982e-06
-1.23646559743e-06
-1.23646393753e-06
-1.23646409581e-06
-1.23646420935e-06
-1.23646429558e-06
-1.23646435473e-06
-1.23646438916e-06
-1.23646440346e-06
-1.23646440555e-06
-1.23646439469e-06
-1.23646437813e-06
-1.23646435858e-06
-1.23646433742e-06
-1.23646431306e-06
-1.23646425646e-06
-1.23646422675e-06
-1.23646256256e-06
-1.23646266865e-06
-1.23646273528e-06
-1.23646277544e-06
-1.23646280426e-06
-1.23646281812e-06
-1.23646282492e-06
-1.23646282604e-06
-1.23646282325e-06
-1.23646282027e-06
-1.23646282137e-06
-1.23646282764e-06
-1.23646283742e-06
-1.23646281865e-06
-1.23646284538e-06
-1.23646114173e-06
-1.23646120395e-06
-1.23646124397e-06
-1.23646126437e-06
-1.23646127771e-06
-1.23646129158e-06
-1.23646129511e-06
-1.23646130067e-06
-1.23646129916e-06
-1.23646130182e-06
-1.23646130762e-06
-1.23646132199e-06
-1.23646134541e-06
-1.23646134816e-06
-1.23646142482e-06
-1.23645962125e-06
-1.23645964564e-06
-1.23645969292e-06
-1.23645972141e-06
-1.23645976094e-06
-1.2364597828e-06
-1.23645980698e-06
-1.23645981174e-06
-1.23645981407e-06
-1.23645980485e-06
-1.23645979556e-06
-1.23645979008e-06
-1.23645979516e-06
-1.23645979148e-06
-1.23645991169e-06
-1.23645793971e-06
-1.2364579574e-06
-1.23645804509e-06
-1.23645813399e-06
-1.23645821286e-06
-1.23645828792e-06
-1.23645832798e-06
-1.23645835156e-06
-1.23645834217e-06
-1.23645831182e-06
-1.2364582626e-06
-1.23645820592e-06
-1.23645815589e-06
-1.23645811081e-06
-1.23645826364e-06
-1.23645664351e-06
-1.23645660082e-06
-1.23645662972e-06
-1.23645666927e-06
-1.23645673368e-06
-1.2364567869e-06
-1.23645682871e-06
-1.23645684578e-06
-1.23645684221e-06
-1.23645681799e-06
-1.23645678119e-06
-1.2364567463e-06
-1.23645673677e-06
-1.23645675511e-06
-1.23645695507e-06
-1.15776157613e-06
-1.15776096953e-06
-1.15776010378e-06
-1.15775940678e-06
-1.15775886162e-06
-1.15775848106e-06
-1.15775824255e-06
-1.15775816301e-06
-1.1577582534e-06
-1.15775850871e-06
-1.15775891618e-06
-1.15775945267e-06
-1.15776009384e-06
-1.15776080331e-06
-1.15776159716e-06
-1.1577606546e-06
-1.15776000077e-06
-1.1577591238e-06
-1.1577583861e-06
-1.15775781381e-06
-1.15775741525e-06
-1.15775716972e-06
-1.15775709004e-06
-1.15775718746e-06
-1.15775745695e-06
-1.15775788497e-06
-1.1577584505e-06
-1.15775912756e-06
-1.15775987934e-06
-1.15776069303e-06
-1.15776218836e-06
-1.15776165957e-06
-1.15776096489e-06
-1.15776035018e-06
-1.15775987984e-06
-1.15775955227e-06
-1.15775935114e-06
-1.15775928559e-06
-1.15775936534e-06
-1.15775958483e-06
-1.1577599331e-06
-1.15776039323e-06
-1.15776094401e-06
-1.15776155192e-06
-1.15776220459e-06
-1.15776402487e-06
-1.15776365768e-06
-1.15776311992e-06
-1.15776264194e-06
-1.15776227188e-06
-1.15776201317e-06
-1.15776185495e-06
-1.15776180249e-06
-1.15776186331e-06
-1.15776203084e-06
-1.15776229655e-06
-1.15776264744e-06
-1.15776306754e-06
-1.15776352926e-06
-1.15776403023e-06
-1.15776567984e-06
-1.15776544403e-06
-1.15776502246e-06
-1.15776465862e-06
-1.15776437185e-06
-1.15776417204e-06
-1.15776404976e-06
-1.15776400805e-06
-1.1577640523e-06
-1.15776417614e-06
-1.15776437257e-06
-1.15776463236e-06
-1.15776494471e-06
-1.15776528833e-06
-1.15776566577e-06
-1.15776722784e-06
-1.15776706446e-06
-1.15776676006e-06
-1.15776649125e-06
-1.15776627493e-06
-1.1577661242e-06
-1.1577660318e-06
-1.15776599868e-06
-1.15776602826e-06
-1.15776611444e-06
-1.15776625111e-06
-1.15776643271e-06
-1.15776665385e-06
-1.15776689982e-06
-1.15776717699e-06
-1.15776869659e-06
-1.1577686042e-06
-1.15776839852e-06
-1.15776820686e-06
-1.15776805275e-06
-1.15776794568e-06
-1.15776787953e-06
-1.15776785344e-06
-1.15776787035e-06
-1.15776792348e-06
-1.15776800873e-06
-1.15776812306e-06
-1.15776826587e-06
-1.15776842842e-06
-1.15776862002e-06
-1.15777009688e-06
-1.15777007644e-06
-1.15776995007e-06
-1.15776982758e-06
-1.15776972769e-06
-1.15776965732e-06
-1.15776961235e-06
-1.15776959171e-06
-1.15776959771e-06
-1.15776962333e-06
-1.15776966565e-06
-1.15776972379e-06
-1.15776980109e-06
-1.15776989351e-06
-1.15777001322e-06
-1.15777145684e-06
-1.15777149532e-06
-1.15777143328e-06
-1.157771368e-06
-1.15777131183e-06
-1.15777127126e-06
-1.15777124295e-06
-1.15777122687e-06
-1.15777122384e-06
-1.15777122828e-06
-1.15777123701e-06
-1.15777125108e-06
-1.15777127582e-06
-1.1577713103e-06
-1.15777136704e-06
-1.15777278868e-06
-1.15777287556e-06
-1.1577728685e-06
-1.15777284814e-06
-1.15777282579e-06
-1.15777280614e-06
-1.15777278931e-06
-1.15777277569e-06
-1.15777276667e-06
-1.1577727564e-06
-1.15777274196e-06
-1.15777272483e-06
-1.15777271073e-06
-1.1577726984e-06
-1.15777269985e-06
-1.15777412102e-06
-1.15777425447e-06
-1.15777428735e-06
-1.15777429472e-06
-1.15777429099e-06
-1.15777428223e-06
-1.15777427059e-06
-1.157774258e-06
-1.15777424614e-06
-1.15777422844e-06
-1.15777420321e-06
-1.15777417008e-06
-1.15777413248e-06
-1.15777408647e-06
-1.15777403382e-06
-1.15777549869e-06
-1.15777567188e-06
-1.15777572172e-06
-1.15777573533e-06
-1.15777573261e-06
-1.15777572098e-06
-1.15777570768e-06
-1.15777569424e-06
-1.15777568226e-06
-1.15777566755e-06
-1.15777564426e-06
-1.15777561371e-06
-1.15777557363e-06
-1.15777550872e-06
-1.15777540533e-06
-1.15777697839e-06
-1.15777718721e-06
-1.15777722347e-06
-1.15777720915e-06
-1.15777717857e-06
-1.15777714842e-06
-1.15777712169e-06
-1.15777710461e-06
-1.15777709854e-06
-1.15777709554e-06
-1.15777709516e-06
-1.15777709319e-06
-1.15777708178e-06
-1.15777702899e-06
-1.15777687723e-06
-1.15777865535e-06
-1.1577788867e-06
-1.15777884964e-06
-1.15777875959e-06
-1.15777866906e-06
-1.15777859279e-06