/*--------------------------------*- C++ -*----------------------------------*\
  =========                 |
  \\      /  F ield         | OpenFOAM: The Open Source CFD Toolbox
   \\    /   O peration     | Website:  https://openfoam.org
    \\  /    A nd           | Version:  7
     \\/     M anipulation  |
\*---------------------------------------------------------------------------*/
FoamFile
{
    version     2.0;
    format      ascii;
    class       volVectorField;
    location    "0.66";
    object      U;
}
// * * * * * * * * * * * * * * * * * * * * * * * * * * * * * * * * * * * * * //

dimensions      [0 1 -1 0 0 0 0];

internalField   nonuniform List<vector> 
22500
(
(7.31487656141e-07 8.83522460241e-07 2.89796715368e-06)
(6.21732055276e-07 1.03605516199e-06 2.92779930636e-06)
(4.98855296966e-07 1.16128415638e-06 2.88561524606e-06)
(3.8777988207e-07 1.25154804202e-06 2.81349944764e-06)
(2.8210271021e-07 1.31561221728e-06 2.73737813476e-06)
(1.84462204943e-07 1.35750495527e-06 2.67340321772e-06)
(9.23855483677e-08 1.38118334653e-06 2.6315169231e-06)
(3.29738688305e-09 1.38903932753e-06 2.61717436382e-06)
(-8.58592244654e-08 1.38182087905e-06 2.63184450113e-06)
(-1.7813191903e-07 1.35875500634e-06 2.67407433683e-06)
(-2.76088904273e-07 1.31742212891e-06 2.73843560461e-06)
(-3.82167512018e-07 1.25385267132e-06 2.81504987616e-06)
(-4.93769778483e-07 1.16398346739e-06 2.8879426542e-06)
(-6.16964895605e-07 1.03921585124e-06 2.93185573258e-06)
(-7.27852905586e-07 8.86667531843e-07 2.90690628047e-06)
(2.28780196752e-06 2.71835327016e-06 9.87477571218e-06)
(1.97290160327e-06 3.16508056039e-06 1.00743108856e-05)
(1.61121368903e-06 3.53919674419e-06 1.00484904337e-05)
(1.26610129717e-06 3.81801437628e-06 9.91621439763e-06)
(9.31253913245e-07 4.02024130778e-06 9.75354851434e-06)
(6.13313102802e-07 4.15520455034e-06 9.60863799406e-06)
(3.08036640519e-07 4.23262732232e-06 9.51116129275e-06)
(9.66282338678e-09 4.25840124079e-06 9.47742523293e-06)
(-2.88905029678e-07 4.23444907409e-06 9.51217828729e-06)
(-5.94744782326e-07 4.15877255438e-06 9.61071697533e-06)
(-9.13592391437e-07 4.02539925255e-06 9.75681864871e-06)
(-1.24961566352e-06 3.82455835292e-06 9.92099691782e-06)
(-1.59621840383e-06 3.54681747516e-06 1.0055633475e-05)
(-1.95919829037e-06 3.17383224519e-06 1.0086597657e-05)
(-2.27734374565e-06 2.72719793137e-06 9.89971473188e-06)
(3.84043024791e-06 4.50872794273e-06 1.78883215656e-05)
(3.33563403548e-06 5.22337033106e-06 1.83528369575e-05)
(2.75062451717e-06 5.82771564222e-06 1.84322669451e-05)
(2.17589486299e-06 6.28712077875e-06 1.83154940511e-05)
(1.61045907632e-06 6.62517084708e-06 1.8125912304e-05)
(1.06518727715e-06 6.8539891376e-06 1.7942831285e-05)
(5.35946170437e-07 6.98657711848e-06 1.78154205737e-05)
(1.55867077799e-08 7.03085820432e-06 1.77707828863e-05)
(-5.05073646471e-07 6.98942172211e-06 1.78171252386e-05)
(-1.03519411184e-06 6.85955809572e-06 1.79463096158e-05)
(-1.58188475079e-06 6.63321798183e-06 1.81313697684e-05)
(-2.14918031949e-06 6.29730849633e-06 1.83234336433e-05)
(-2.72626066101e-06 5.83955365648e-06 1.84439721626e-05)
(-3.31357922071e-06 5.23683200096e-06 1.83724132012e-05)
(-3.82346480741e-06 4.52253257196e-06 1.79265021819e-05)
(5.35239056621e-06 6.22394890279e-06 2.67239685687e-05)
(4.67466532362e-06 7.17489956341e-06 2.75245410037e-05)
(3.88307238068e-06 7.98464864857e-06 2.7778390813e-05)
(3.08793391874e-06 8.60876760328e-06 2.7737037769e-05)
(2.29645341892e-06 9.07318304874e-06 2.75680718047e-05)
(1.52397055431e-06 9.39088864304e-06 2.73809610519e-05)
(7.6788475528e-07 9.57638669393e-06 2.72440953956e-05)
(2.10952591927e-08 9.63850737607e-06 2.71953351477e-05)
(-7.26089852235e-07 9.58013768317e-06 2.72464462701e-05)
(-1.4833378098e-06 9.39822927095e-06 2.7385747377e-05)
(-2.25770278486e-06 9.0837856616e-06 2.75755545637e-05)
(-3.0516724943e-06 8.6221694198e-06 2.77478400488e-05)
(-3.84995194244e-06 8.00019121466e-06 2.77940473804e-05)
(-4.64483831083e-06 7.19247283214e-06 2.75499159099e-05)
(-5.32914260071e-06 6.24213057014e-06 2.67716948025e-05)
(6.79890122188e-06 7.84364613131e-06 3.62158234756e-05)
(5.96536098232e-06 8.99662608279e-06 3.74052727497e-05)
(4.98448206351e-06 9.9831614062e-06 3.788694956e-05)
(3.98146450345e-06 1.07514665453e-05 3.79684109728e-05)
(2.97275821381e-06 1.13281949641e-05 3.7858224595e-05)
(1.97829664232e-06 1.17260835635e-05 3.7694736184e-05)
(9.98074873559e-07 1.19598116709e-05 3.75650938879e-05)
(2.62339507426e-08 1.20382731872e-05 3.75177625745e-05)
(-9.46087597012e-07 1.19643692672e-05 3.75680754504e-05)
(-1.92772697316e-06 1.1735001568e-05 3.77007867922e-05)
(-2.92449321285e-06 1.13410742927e-05 3.78676247801e-05)
(-3.93627168867e-06 1.07677333987e-05 3.79818149198e-05)
(-4.94315144492e-06 1.00020094924e-05 3.79059376099e-05)
(-5.92822656781e-06 9.01787410173e-06 3.74350753555e-05)
(-6.76952795567e-06 7.865777145e-06 3.62701695984e-05)
(8.15314188005e-06 9.34243153079e-06 4.62248026451e-05)
(7.18029015983e-06 1.06593412236e-05 4.78398054445e-05)
(6.02840127775e-06 1.1789492915e-05 4.85883323848e-05)
(4.83350420028e-06 1.26766095449e-05 4.88286468175e-05)
(3.62113550004e-06 1.33470956828e-05 4.88071006628e-05)
(2.41559566316e-06 1.38128845608e-05 4.86893014372e-05)
(1.22013420293e-06 1.40878762324e-05 4.85803716552e-05)
(3.10574015959e-08 1.41803995426e-05 4.8539008207e-05)
(-1.15857596704e-06 1.4093150151e-05 4.85840124352e-05)
(-2.35568535327e-06 1.38232065358e-05 4.86966587336e-05)
(-3.56391400383e-06 1.3362008041e-05 4.88184271937e-05)
(-4.77989015021e-06 1.26954438877e-05 4.88445241941e-05)
(-5.97929732706e-06 1.18113226579e-05 4.86101931705e-05)
(-7.13618097376e-06 1.06839183585e-05 4.78730228233e-05)
(-8.11775649493e-06 9.36816700141e-06 4.6283939267e-05)
(9.39160649111e-06 1.06970836004e-05 5.66311807342e-05)
(8.29511980733e-06 1.21363712772e-05 5.86935347279e-05)
(6.99145842179e-06 1.33730607838e-05 5.97345965028e-05)
(5.62368070806e-06 1.43496181318e-05 6.01594530637e-05)
(4.22542583438e-06 1.50917372009e-05 6.0249114724e-05)
(2.82474049071e-06 1.5610331837e-05 6.01943785143e-05)
(1.42841833253e-06 1.59178337573e-05 6.01170737879e-05)
(3.56179109909e-08 1.60215307337e-05 6.00854204965e-05)
(-1.35780626906e-06 1.59237415501e-05 6.01214572683e-05)
(-2.75598184768e-06 1.56219015074e-05 6.02031982933e-05)
(-4.15970142354e-06 1.51084679377e-05 6.02625423434e-05)
(-5.56204760838e-06 1.43707649759e-05 6.01778918863e-05)
(-6.93490933656e-06 1.33976028488e-05 5.97591663932e-05)
(-8.24426453564e-06 1.21639947683e-05 5.8729664795e-05)
(-9.35027427358e-06 1.07261290086e-05 5.66941737491e-05)
(1.04943402641e-05 1.18874549899e-05 6.73287021069e-05)
(9.28914426613e-06 1.34046270072e-05 6.98459044205e-05)
(7.85387451653e-06 1.47076297867e-05 7.11925574657e-05)
(6.33477643474e-06 1.57412169187e-05 7.18183098902e-05)
(4.77199108417e-06 1.65302518383e-05 7.20356046859e-05)
(3.19634536027e-06 1.70845382192e-05 7.20576641632e-05)
(1.61816782879e-06 1.74145168716e-05 7.20210445659e-05)
(3.99633694428e-08 1.75260600545e-05 7.20023047755e-05)
(-1.53892268912e-06 1.74209776747e-05 7.20263251604e-05)
(-3.119132405e-06 1.70972049575e-05 7.20682523963e-05)
(-4.6981155073e-06 1.65485972192e-05 7.20515384689e-05)
(-6.26542050946e-06 1.57644414601e-05 7.18397180462e-05)
(-7.79010395689e-06 1.47346442444e-05 7.12201311173e-05)
(-9.23168589531e-06 1.34350547578e-05 6.98851271703e-05)
(-1.04470913509e-05 1.1919556468e-05 6.7395537761e-05)
(1.1444170721e-05 1.28958155493e-05 7.82175439661e-05)
(1.01447331106e-05 1.44438233458e-05 8.1182270966e-05)
(8.5990548088e-06 1.57704722099e-05 8.28353498839e-05)
(6.95248069467e-06 1.68265775785e-05 8.36703086269e-05)
(5.2495379344e-06 1.7636165476e-05 8.40271678751e-05)
(3.52263892155e-06 1.8207761842e-05 8.41375986937e-05)
(1.78543827865e-06 1.85493686702e-05 8.41498697232e-05)
(4.41357531426e-08 1.86651458024e-05 8.41470735032e-05)
(-1.69789631694e-06 1.85562974517e-05 8.41563241621e-05)
(-3.43727848263e-06 1.82213679787e-05 8.4150506468e-05)
(-5.16777150939e-06 1.76559168966e-05 8.40464003784e-05)
(-6.87560214495e-06 1.68516442818e-05 8.36956190571e-05)
(-8.52819240502e-06 1.57997212201e-05 8.28668782841e-05)
(-1.00807364243e-05 1.44768217346e-05 8.12256153923e-05)
(-1.13909945042e-05 1.29307385694e-05 7.82892002642e-05)
(1.22264157185e-05 1.37066427529e-05 8.91947923033e-05)
(1.08472367433e-05 1.52362904633e-05 9.25830319818e-05)
(9.2136319068e-06 1.65423034024e-05 9.45317071897e-05)
(7.46547026673e-06 1.75853692787e-05 9.55782345295e-05)
(5.64915583095e-06 1.83884797937e-05 9.60846076821e-05)
(3.79745868604e-06 1.89584576911e-05 9.62950304793e-05)
(1.92708376815e-06 1.93004529746e-05 9.63650255041e-05)
(4.81675268738e-08 1.94167028452e-05 9.63815637159e-05)
(-1.83151498492e-06 1.93077525189e-05 9.63730998782e-05)
(-3.7041870911e-06 1.89728205009e-05 9.63111270246e-05)
(-5.55968061305e-06 1.84093916356e-05 9.61083786111e-05)
(-7.38118272228e-06 1.76120012577e-05 9.56089825622e-05)
(-9.13572172092e-06 1.6573510134e-05 9.45689338562e-05)
(-1.07766941677e-05 1.52715983582e-05 9.26325520528e-05)
(-1.21672505927e-05 1.37441455829e-05 8.92734223423e-05)
(1.28289356883e-05 1.43068193096e-05 0.000100140409904)
(1.13852195482e-05 1.57672064167e-05 0.000103908189429)
(9.68776028926e-06 1.70078088924e-05 0.000106131698175)
(7.86559759652e-06 1.80025308666e-05 0.000107390213502)
(5.96435181196e-06 1.87724870331e-05 0.000108058217415)
(4.01619836765e-06 1.93220062026e-05 0.00010838358635)
(2.04070335101e-06 1.96530790789e-05 0.000108522814628)
(5.20783017964e-08 1.97659849701e-05 0.000108563129356)
(-1.93733669843e-06 1.96606268478e-05 0.000108533106055)
(-3.91520454397e-06 1.93368936049e-05 0.000108404052552)
(-5.86729436401e-06 1.87942456325e-05 0.000108088281648)
(-7.77395261125e-06 1.80303719794e-05 0.000107428679044)
(-9.60278431709e-06 1.70406129746e-05 0.000106177338768)
(-1.13080638591e-05 1.58044869488e-05 0.000103967142985)
(-1.2763655279e-05 1.43466042282e-05 0.000100229585348)
(1.32420080766e-05 1.46852543278e-05 0.000110895214041)
(1.17507857918e-05 1.60245790576e-05 0.000114975332721)
(1.0015443387e-05 1.71564911987e-05 0.000117448481244)
(8.14787788819e-06 1.80696010772e-05 0.000118924965509)
(6.19077921281e-06 1.8781093761e-05 0.000119775350881)
(4.17549769697e-06 1.92918457282e-05 0.000120238574665)
(2.12445037381e-06 1.96007696389e-05 0.00012046393091)
(5.58716308442e-08 1.97064889953e-05 0.000120534390796)
(-2.013506154e-06 1.96084094033e-05 0.000120477180704)
(-4.06695867232e-06 1.93069577081e-05 0.000120264921496)
(-6.08624929587e-06 1.88032860577e-05 0.00011981403978)
(-8.04890529865e-06 1.80981729348e-05 0.000118974305787)
(-9.9233633084e-06 1.71904000891e-05 0.000117506392052)
(-1.1666929872e-05 1.60633587849e-05 0.000115048261209)
(-1.31704310704e-05 1.47268962467e-05 0.000111000069816)
(1.34585245912e-05 1.48300820207e-05 0.000121224908381)
(1.19410883185e-05 1.59990674122e-05 0.000125530484227)
(1.01952420141e-05 1.69851343974e-05 0.000128238239168)
(8.31009365016e-06 1.77874716677e-05 0.000129956829725)
(6.32541342602e-06 1.84172018443e-05 0.000131027778441)
(4.27253007595e-06 1.88714229755e-05 0.000131665286115)
(2.17664644727e-06 1.91469488202e-05 0.000132002084487)
(5.95322018582e-08 1.92415708752e-05 0.000132111935064)
(-2.05837740905e-06 1.9154486305e-05 0.00013201914135)
(-4.15665810672e-06 1.88863816216e-05 0.000131699293943)
(-6.21355674644e-06 1.84392938663e-05 0.00013107796396)
(-8.20385900982e-06 1.78161404857e-05 0.000130021150771)
(-1.00960613971e-05 1.70194834459e-05 0.000128313587643)
(-1.1850499182e-05 1.60387063087e-05 0.000125623109899)
(-1.33805602413e-05 1.48729030078e-05 0.000121351454889)
(1.34845151048e-05 1.47294938084e-05 0.00013076065618)
(1.19650506153e-05 1.57012855468e-05 0.000135220495469)
(1.02310850671e-05 1.65090252081e-05 0.000138187679589)
(8.35064610359e-06 1.71746984318e-05 0.000140206455697)
(6.36436956732e-06 1.76990910661e-05 0.000141562278723)
(4.30350454405e-06 1.8077750426e-05 0.000142428645218)
(2.19505607481e-06 1.83075810235e-05 0.000142912838408)
(6.30237734525e-08 1.83868003556e-05 0.000143074820191)
(-2.06979051616e-06 1.83147949218e-05 0.000142934535345)
(-4.18059833213e-06 1.80921172646e-05 0.000142472121361)
(-6.2454309958e-06 1.77204442374e-05 0.00014162707159)
(-8.23732144038e-06 1.72026798591e-05 0.000140290663563)
(-1.0124911596e-05 1.65429867405e-05 0.000138287235604)
(-1.18677924191e-05 1.57409803219e-05 0.000135339848822)
(-1.33999849606e-05 1.47728621179e-05 0.000130914452926)
(1.33397496649e-05 1.45218800041e-05 0.000138918545575)
(1.18314339728e-05 1.51758587575e-05 0.000143624552567)
(1.01104111827e-05 1.57732016025e-05 0.000146932344726)
(8.25488146837e-06 1.62645060915e-05 0.000149348690368)
(6.29492508131e-06 1.66488739541e-05 0.00015108088999)
(4.25946542503e-06 1.692475756e-05 0.000152248176712)
(2.17508987547e-06 1.70917405391e-05 0.000152925479322)
(6.62946825287e-08 1.71496154269e-05 0.000153155343255)
(-2.04326352238e-06 1.70982981943e-05 0.000152952221678)
(-4.12994152585e-06 1.69378630291e-05 0.000152302067868)
(-6.16927934962e-06 1.66684801101e-05 0.000151162196438)
(-8.13476454803e-06 1.62904766631e-05 0.000149456640842)
(-9.99744838923e-06 1.58051842181e-05 0.000147062680253)
(-1.17279265522e-05 1.52141164102e-05 0.000143782951976)
(-1.32481030846e-05 1.45641786884e-05 0.000139095596581)
(-1.29346488273e-09 4.70269353158e-09 -9.61638576133e-08)
(-7.5624441434e-09 8.79228693804e-09 -2.29635967504e-07)
(-1.25796244358e-08 1.01734944314e-08 -4.3377731556e-07)
(-1.47479825074e-08 9.22761238426e-09 -6.56160954926e-07)
(-1.41513319885e-08 7.04555100108e-09 -8.60575364992e-07)
(-1.08306910796e-08 4.61816837183e-09 -1.02239240701e-06)
(-5.47431872999e-09 2.82183752156e-09 -1.12540001541e-06)
(9.80373851992e-10 2.22349532985e-09 -1.16032612213e-06)
(7.42205244717e-09 3.01478828158e-09 -1.12414017127e-06)
(1.27398430898e-08 4.99316269027e-09 -1.01986296367e-06)
(1.59832522428e-08 7.57569653927e-09 -8.56747309106e-07)
(1.64345483583e-08 9.87067988163e-09 -6.50947046514e-07)
(1.40236025948e-08 1.0877183117e-08 -4.26920502019e-07)
(8.74338312297e-09 9.50917636865e-09 -2.20248396832e-07)
(2.0845098768e-09 5.36157344861e-09 -8.13870625499e-08)
(5.2984372859e-08 7.42439817351e-08 1.98734505772e-06)
(3.43039281167e-08 9.56420073167e-08 1.81224648215e-06)
(1.59221995366e-08 1.09420776229e-07 1.40796246528e-06)
(2.79048030105e-09 1.16084255113e-07 9.19345698693e-07)
(-4.57794675014e-09 1.17934388154e-07 4.49204135049e-07)
(-5.93767526783e-09 1.1721912859e-07 6.8115902016e-08)
(-2.66502295898e-09 1.16004621849e-07 -1.77448533617e-07)
(3.12455465999e-09 1.1563663624e-07 -2.60873303496e-07)
(8.86566451467e-09 1.16563571855e-07 -1.73512999399e-07)
(1.1991203762e-08 1.1830127049e-07 7.60105375171e-08)
(1.03577647808e-08 1.19461126009e-07 4.61137823711e-07)
(2.52956203006e-09 1.17941146964e-07 9.35567884757e-07)
(-1.13166766552e-08 1.11466929095e-07 1.42921916957e-06)
(-3.05078873777e-08 9.77591153459e-08 1.84111143239e-06)
(-5.03369963994e-08 7.62440130597e-08 2.03057903221e-06)
(1.63090485149e-07 2.02976424338e-07 6.28255390172e-06)
(1.31705712805e-07 2.49988005598e-07 6.27705807175e-06)
(9.67187470293e-08 2.84709109947e-07 5.87016663788e-06)
(6.63409284367e-08 3.07303395617e-07 5.28705518725e-06)
(4.21402478125e-08 3.20617615245e-07 4.68994087739e-06)
(2.5056614329e-08 3.27497345619e-07 4.19121912942e-06)
(1.3654706063e-08 3.30630761247e-07 3.86505752249e-06)
(5.37252808865e-09 3.31776529613e-07 3.75398284138e-06)
(-3.00000728139e-09 3.31514299205e-07 3.87177676417e-06)
(-1.46763406679e-08 3.29204710257e-07 4.20468583238e-06)
(-3.22513980973e-08 3.23024816675e-07 4.71026539822e-06)
(-5.72256017263e-08 3.10236422857e-07 5.31459983128e-06)
(-8.87493229061e-08 2.87959683647e-07 5.90602045199e-06)
(-1.25063979171e-07 2.53410319528e-07 6.32499058466e-06)
(-1.58301999175e-07 2.06286246132e-07 6.35220797659e-06)
(3.24826211304e-07 3.86397813762e-07 1.25749403686e-05)
(2.80221352782e-07 4.65879775246e-07 1.29218966144e-05)
(2.25662907665e-07 5.28658687276e-07 1.26859618511e-05)
(1.72387099445e-07 5.74066997815e-07 1.21606973113e-05)
(1.23257403539e-07 6.05028496845e-07 1.15604294002e-05)
(8.02718449155e-08 6.24409874427e-07 1.10350917316e-05)
(4.25238604396e-08 6.35040429913e-07 1.06839212347e-05)
(7.71037640457e-09 6.38773942791e-07 1.05638963454e-05)
(-2.72400796016e-08 6.36214518385e-07 1.0693490118e-05)
(-6.54034287261e-08 6.26680625751e-07 1.10542483316e-05)
(-1.09115260868e-07 6.08239234322e-07 1.15892806562e-05)
(-1.5934085421e-07 5.78000657248e-07 1.21996375267e-05)
(-2.14173664174e-07 5.33049570179e-07 1.27362212121e-05)
(-2.70547945682e-07 4.70565358131e-07 1.29878982944e-05)
(-3.17645135321e-07 3.90997345079e-07 1.26680351915e-05)
(5.26107487291e-07 6.1085044774e-07 2.06754980967e-05)
(4.6781013218e-07 7.26557160786e-07 2.1532330673e-05)
(3.9157157296e-07 8.21391487387e-07 2.16180047186e-05)
(3.1125666293e-07 8.93581733577e-07 2.12841607559e-05)
(2.31084002606e-07 9.45847061067e-07 2.07902042005e-05)
(1.54366858897e-07 9.8069252446e-07 2.03191830086e-05)
(8.11970875627e-08 1.00074404215e-06 1.99926157841e-05)
(1.01170508009e-08 1.00772122475e-06 1.98803637258e-05)
(-6.11486742066e-08 1.00217618107e-06 2.0005117228e-05)
(-1.3488022981e-07 9.83467614525e-07 2.03441757507e-05)
(-2.12563635894e-07 9.49787021862e-07 2.08277409514e-05)
(-2.94153851809e-07 8.98438952907e-07 2.13345577283e-05)
(-3.76416435293e-07 8.26853791909e-07 2.16824071428e-05)
(-4.54919848367e-07 7.32444234054e-07 2.161543096e-05)
(-5.16292181038e-07 6.16688962373e-07 2.07896543388e-05)
(7.56222832111e-07 8.64269730212e-07 3.04046415053e-05)
(6.83814904704e-07 1.01721608118e-06 3.19030392811e-05)
(5.84522017097e-07 1.14532864372e-06 3.24371036165e-05)
(4.74336877871e-07 1.24571365733e-06 3.24085811223e-05)
(3.58763838646e-07 1.32074571959e-06 3.21154081769e-05)
(2.42577007694e-07 1.37233870137e-06 3.17691933999e-05)
(1.27223341556e-07 1.40268041801e-06 3.15107088262e-05)
(1.25689445135e-08 1.41319696073e-06 3.14209428644e-05)
(-1.02319464562e-07 1.40433573481e-06 3.15262590402e-05)
(-2.18379133204e-07 1.37555323619e-06 3.18002324479e-05)
(-3.35765817871e-07 1.32532928514e-06 3.21618706237e-05)
(-4.53064613651e-07 1.25139836597e-06 3.24705779581e-05)
(-5.65562008911e-07 1.15176879692e-06 3.2515477211e-05)
(-6.67526922072e-07 1.02421640941e-06 3.20025236026e-05)
(-7.43542505775e-07 8.7126371212e-07 3.05383872676e-05)
(1.00496886169e-06 1.13528657748e-06 4.15861336897e-05)
(9.18095619012e-07 1.32393136492e-06 4.38309597607e-05)
(7.95068441763e-07 1.48398198614e-06 4.49152032943e-05)
(6.53407160564e-07 1.61165677756e-06 4.52853895535e-05)
(4.99741642691e-07 1.70895487616e-06 4.52720046332e-05)
(3.40339540769e-07 1.77708277318e-06 4.51104485398e-05)
(1.78251326643e-07 1.81764632783e-06 4.49573429938e-05)
(1.50387575521e-08 1.83167726881e-06 4.49027671534e-05)
(-1.48453327647e-07 1.81948573562e-06 4.49761054497e-05)
(-3.11382336214e-07 1.78066341378e-06 4.51478357979e-05)
(-4.72200837353e-07 1.71408280122e-06 4.53277648433e-05)
(-6.27875590368e-07 1.61805418622e-06 4.53592962377e-05)
(-7.72178512757e-07 1.49128107838e-06 4.50076024271e-05)
(-8.98244261223e-07 1.33193149883e-06 4.39465281917e-05)
(-9.89203952241e-07 1.14332544192e-06 4.1738749751e-05)
(1.26226174096e-06 1.41271183666e-06 5.40422322361e-05)
(1.16067072894e-06 1.63309267761e-06 5.7109797669e-05)
(1.0139177076e-06 1.82136075105e-06 5.88197856208e-05)
(8.40367483947e-07 1.97331877017e-06 5.96610195854e-05)
(6.47540947047e-07 2.09062042874e-06 5.99909211509e-05)
(4.43133916183e-07 2.17373373309e-06 6.00634284552e-05)
(2.31945927941e-07 2.22361269748e-06 6.00470219567e-05)
(1.7496170979e-08 2.24084612341e-06 6.00384236248e-05)
(-1.97273508275e-07 2.22559185432e-06 6.00692318017e-05)
(-4.09421474634e-07 2.17759680615e-06 6.01076081302e-05)
(-6.15435199999e-07 2.0961779879e-06 6.00565639323e-05)
(-8.1051983697e-07 1.98029398065e-06 5.97474351312e-05)
(-9.86996709826e-07 1.82937690004e-06 5.89266586029e-05)
(-1.13711096125e-06 1.64195238313e-06 5.72417404359e-05)
(-1.24321617426e-06 1.42166769182e-06 5.42137866955e-05)
(1.51827928436e-06 1.68569046678e-06 6.75869992628e-05)
(1.40186530107e-06 1.93160847141e-06 7.15223621815e-05)
(1.23207276739e-06 2.14226545408e-06 7.39063029654e-05)
(1.02735693857e-06 2.31368214459e-06 7.52700536808e-05)
(7.95844739515e-07 2.44721300689e-06 7.59920310337e-05)
(5.46528591832e-07 2.54261323846e-06 7.63384387288e-05)
(2.86008223348e-07 2.60017753965e-06 7.64847162934e-05)
(1.99068962838e-08 2.62005227646e-06 7.65312055879e-05)
(-2.46547505102e-07 2.60224585971e-06 7.6510713425e-05)
(-5.08125454486e-07 2.54666273616e-06 7.63900656538e-05)
(-7.59203623046e-07 2.453068033e-06 7.6068455779e-05)
(-9.93177808741e-07 2.3210781833e-06 7.53700031725e-05)
(-1.20105324638e-06 2.15083244272e-06 7.40286618628e-05)
(-1.3744787583e-06 1.94116145927e-06 7.16717440205e-05)
(-1.49578196037e-06 1.69541532736e-06 6.77784789755e-05)
(1.76365522197e-06 1.94391751166e-06 8.20161706676e-05)
(1.63251159255e-06 2.20720489428e-06 8.68292010266e-05)
(1.44101347384e-06 2.43268583716e-06 8.99075303659e-05)
(1.20688612962e-06 2.61726942217e-06 9.18260666202e-05)
(9.38581152516e-07 2.7620309641e-06 9.29764218236e-05)
(6.46229205738e-07 2.86607435244e-06 9.36289228962e-05)
(3.38196845066e-07 2.92909167652e-06 9.39597855572e-05)
(2.22333109917e-08 2.95083740555e-06 9.40692305549e-05)
(-2.9410754483e-07 2.93119263964e-06 9.39900238885e-05)
(-6.03268690887e-07 2.87020216769e-06 9.36888883924e-05)
(-8.97496120326e-07 2.76803294514e-06 9.30649092476e-05)
(-1.16841336786e-06 2.62490608641e-06 9.19411225684e-05)
(-1.40587257172e-06 2.44161039601e-06 9.00471193444e-05)
(-1.60121855972e-06 2.21725794392e-06 8.69980574807e-05)
(-1.73756338729e-06 1.95424159666e-06 8.22296934007e-05)
(1.98964554862e-06 2.17781398447e-06 9.70909997023e-05)
(1.84412444363e-06 2.44868850095e-06 0.000102751494545)
(1.63282300627e-06 2.68016466996e-06 0.000106518763176)
(1.37190409758e-06 2.87055932797e-06 0.000109009641661)
(1.06994861866e-06 3.02062290386e-06 0.000110616604951)
(7.38083872977e-07 3.12891578774e-06 0.000111603099856)
(3.86327839718e-07 3.1946629614e-06 0.000112138395189)
(2.44345127839e-08 3.21733771175e-06 0.000112318099885)
(-3.37850458387e-07 3.19673441828e-06 0.00011217345366)
(-6.9077711604e-07 3.13300193584e-06 0.000111672565381)
(-1.02458372971e-06 3.02660238737e-06 0.00011071889398)
(-1.32924132064e-06 2.87823138865e-06 0.000109142057957)
(-1.59359655135e-06 2.68922377668e-06 0.000106678229178)
(-1.80889552215e-06 2.45901840781e-06 0.000102943004481)
(-1.95985445703e-06 2.18854082625e-06 9.73300787279e-05)
(2.18823612541e-06 2.37851874782e-06 0.000112511570092)
(2.02900280518e-06 2.64610824762e-06 0.000118946060506)
(1.80020929504e-06 2.87411636121e-06 0.000123378846103)
(1.51575495784e-06 3.06235169223e-06 0.0001264541375)
(1.18435824963e-06 3.21113872034e-06 0.000128545130137)
(8.18040766992e-07 3.31871321605e-06 0.000129894138008)
(4.28254765614e-07 3.38407946966e-06 0.000130654450184)
(2.64674161202e-08 3.40660313898e-06 0.000130912047104)
(-3.7571590658e-07 3.38605617132e-06 0.00013069501661)
(-7.66684948703e-07 3.32262911313e-06 0.000129974527272)
(-1.13496303337e-06 3.21691138281e-06 0.000128663451487)
(-1.46908830674e-06 3.06983119069e-06 0.00012660695977)
(-1.75701084002e-06 2.88305806527e-06 0.00012356188547)
(-1.98987981557e-06 2.65645720302e-06 0.00011916457768)
(-2.15469319316e-06 2.38942083315e-06 0.000112781221097)
(2.35234555178e-06 2.53760100224e-06 0.000127871781202)
(2.18037495455e-06 2.79097690617e-06 0.000134973060614)
(1.93645730705e-06 3.00634237144e-06 0.000140050835007)
(1.63204515925e-06 3.18420495924e-06 0.000143732283512)
(1.27632354439e-06 3.3246951951e-06 0.000146343495038)
(8.82091548203e-07 3.42615645777e-06 0.000148089907128)
(4.61849231084e-07 3.48774129855e-06 0.000149099608464)
(2.8289234044e-08 3.5089358468e-06 0.000149443993233)
(-4.0566313971e-07 3.48955908791e-06 0.000149146416641)
(-8.27075168451e-07 3.42977503433e-06 0.000148182800301)
(-1.22324326966e-06 3.33007340624e-06 0.000146480484681)
(-1.58166076119e-06 3.19125439045e-06 0.000143909387646)
(-1.8895020331e-06 3.01489558016e-06 0.000140262347726)
(-2.13749696739e-06 2.80106248002e-06 0.0001352239126)
(-2.31509467911e-06 2.54840299177e-06 0.000128177558335)
(2.47775852437e-06 2.64812054507e-06 0.000142583594793)
(2.29299907088e-06 2.88039790636e-06 0.000150271770254)
(2.03535025879e-06 3.07356299672e-06 0.000156015599956)
(1.71438489716e-06 3.23208501972e-06 0.000160350833653)
(1.34031849109e-06 3.35641767876e-06 0.000163535311529)
(9.26223293654e-07 3.44573273929e-06 0.000165724538514)
(4.84996341748e-07 3.49975821656e-06 0.00016701372919)
(2.98609628558e-08 3.51832254106e-06 0.000167455574215)
(-4.25656492301e-07 3.50136315378e-06 0.000167067394675)
(-8.68021674329e-07 3.44894410209e-06 0.000165831351328)
(-1.28399700949e-06 3.3612334876e-06 0.000163693609526)
(-1.66068098885e-06 3.23848118877e-06 0.000160556711813)
(-1.98497621129e-06 3.08146578343e-06 0.000156262025846)
(-2.24662314036e-06 2.88993388575e-06 0.000150561376971)
(-2.43689491316e-06 2.6585701629e-06 0.000142929811415)
(2.56050320664e-06 2.7358987724e-06 0.000155789839686)
(2.35865292339e-06 2.92434630713e-06 0.000164237894817)
(2.08686141568e-06 3.08048283852e-06 0.000170707863431)
(1.75402125745e-06 3.20613965885e-06 0.000175765798061)
(1.36956558436e-06 3.30319548479e-06 0.000179590200601)
(9.45847962007e-07 3.37215613367e-06 0.000182275594104)
(4.9536875559e-07 3.4135961183e-06 0.000183878364409)
(3.11538032817e-08 3.42781923081e-06 0.000184429353936)
(-4.33429223325e-07 3.41492544894e-06 0.000183938863854)
(-8.85002891786e-07 3.37483111899e-06 0.000182396459341)
(-1.31052469624e-06 3.30724598803e-06 0.000179770640829)
(-1.69748775613e-06 3.2115984596e-06 0.000176003247972)
(-2.03351632721e-06 3.08735286171e-06 0.000170994955702)
(-2.30924372314e-06 2.93291470631e-06 0.00016457876597)
(-2.516117176e-06 2.74552864229e-06 0.000156168110076)
(1.74903333873e-09 3.20242301499e-09 -3.41178864782e-07)
(8.68627434687e-10 4.32432142019e-09 -4.73688237376e-07)
(2.44505062313e-10 5.01290987933e-09 -6.70579375199e-07)
(-1.42332294277e-10 5.38496981093e-09 -8.83467766732e-07)
(-3.27462805097e-10 5.58879455718e-09 -1.07891701356e-06)
(-2.70600225213e-10 5.6642691353e-09 -1.23358883806e-06)
(-5.87633000854e-11 5.68336333403e-09 -1.33197168339e-06)
(2.29040637116e-10 5.69215520444e-09 -1.36511885113e-06)
(5.053027412e-10 5.70615196308e-09 -1.33009119799e-06)
(6.83233793763e-10 5.70834211119e-09 -1.22983549645e-06)
(6.90446735926e-10 5.65189108735e-09 -1.07329775076e-06)
(4.68529286009e-10 5.46667254706e-09 -8.75955687345e-07)
(2.25017757754e-11 5.0756610252e-09 -6.61019753633e-07)
(-6.88105278902e-10 4.37190600861e-09 -4.61413602e-07)
(-1.6617423829e-09 3.21254602562e-09 -3.23889940243e-07)
(1.12790827071e-08 1.55830982861e-08 1.18761420497e-06)
(8.8568456044e-09 1.96416005963e-08 1.01089519025e-06)
(6.70345777319e-09 2.26540403658e-08 6.26156402397e-07)
(4.91312741508e-09 2.47850094793e-08 1.65207686317e-07)
(3.42684900032e-09 2.62995963646e-08 -2.77825752723e-07)
(2.32763593348e-09 2.72589139496e-08 -6.36890300944e-07)
(1.48327963635e-09 2.77905783903e-08 -8.68036064338e-07)
(7.60056222621e-10 2.79770849735e-08 -9.4589516971e-07)
(6.14180066897e-12 2.78465788638e-08 -8.62215091971e-07)
(-9.28405728842e-10 2.73678428123e-08 -6.2527884253e-07)
(-2.16205113051e-09 2.64552215661e-08 -2.60457385154e-07)
(-3.78099684448e-09 2.49799995698e-08 1.88392809591e-07)
(-5.74945363904e-09 2.28108092673e-08 6.55588043791e-07)
(-8.1438245966e-09 1.97659356597e-08 1.04848446027e-06)
(-1.08505124881e-08 1.56166643236e-08 1.23870823405e-06)
(2.73736362814e-08 3.45552455029e-08 4.86350262907e-06)
(2.35669819378e-08 4.23213899569e-08 4.84980360673e-06)
(1.95746479489e-08 4.86083555598e-08 4.47246638167e-06)
(1.57048973823e-08 5.34921290029e-08 3.93422968596e-06)
(1.18876492134e-08 5.72084866844e-08 3.38240969332e-06)
(8.27257264577e-09 5.97725034912e-08 2.92107697581e-06)
(4.78354268775e-09 6.12813537159e-08 2.61961810006e-06)
(1.3440820526e-09 6.18007972565e-08 2.51810159745e-06)
(-2.14078991253e-09 6.13518118983e-08 2.62950525835e-06)
(-5.76314215298e-09 5.99099841908e-08 2.94078723564e-06)
(-9.58182877664e-09 5.74065223711e-08 3.41185804891e-06)
(-1.36261101266e-08 5.37369603329e-08 3.97345662305e-06)
(-1.77895050616e-08 4.88129102694e-08 4.52204037716e-06)
(-2.21480677588e-08 4.248299093e-08 4.91245648292e-06)
(-2.64202634365e-08 3.46117608947e-08 4.9467638081e-06)
(4.78914346062e-08 5.78698566389e-08 1.05163499376e-05)
(4.27989516178e-08 6.96347788345e-08 1.08492805803e-05)
(3.6782996323e-08 7.95925491518e-08 1.06542759846e-05)
(3.03928514243e-08 8.76526216277e-08 1.01931366507e-05)
(2.35547355815e-08 9.39687547899e-08 9.65877450352e-06)
(1.65088108506e-08 9.84686586716e-08 9.18843252219e-06)
(9.29923130434e-09 1.01175747483e-07 8.87381681193e-06)
(1.98377206821e-09 1.02105971284e-07 8.76791166309e-06)
(-5.39037312969e-09 1.01261346626e-07 8.88785590886e-06)
(-1.27720645322e-08 9.86351313079e-08 9.21639800083e-06)
(-2.00861732561e-08 9.4206918328e-08 9.7004941645e-06)
(-2.7246770478e-08 8.79429594705e-08 1.02485527468e-05)
(-3.40474455486e-08 7.9851120351e-08 1.07239127763e-05)
(-4.05424668858e-08 6.98529236213e-08 1.09362283098e-05)
(-4.62594055834e-08 5.79770757021e-08 1.06293418572e-05)
(7.20809643174e-08 8.47801277661e-08 1.79908076531e-05)
(6.57767316153e-08 1.00715412012e-07 1.88321233211e-05)
(5.76019781455e-08 1.14584662533e-07 1.89742600825e-05)
(4.83327788127e-08 1.26065840317e-07 1.87280428779e-05)
(3.79029698764e-08 1.35219154921e-07 1.83247002009e-05)
(2.66677060394e-08 1.41855003334e-07 1.79297052304e-05)
(1.48405508331e-08 1.45895302048e-07 1.76538176391e-05)
(2.67784104464e-09 1.47284582771e-07 1.75610461732e-05)
(-9.55632697383e-09 1.45997873431e-07 1.7672102462e-05)
(-2.15930503667e-08 1.42053282487e-07 1.79660929582e-05)
(-3.31589677142e-08 1.35499699862e-07 1.83788818815e-05)