/*--------------------------------*- C++ -*----------------------------------*\
  =========                 |
  \\      /  F ield         | OpenFOAM: The Open Source CFD Toolbox
   \\    /   O peration     | Website:  https://openfoam.org
    \\  /    A nd           | Version:  7
     \\/     M anipulation  |
\*---------------------------------------------------------------------------*/
FoamFile
{
    version     2.0;
    format      ascii;
    class       volScalarField;
    location    "0.44";
    object      p;
}
// * * * * * * * * * * * * * * * * * * * * * * * * * * * * * * * * * * * * * //

dimensions      [0 2 -2 0 0 0 0];

internalField   nonuniform List<scalar> 
22500
(
-1.8588381224e-05
-1.85894226979e-05
-1.85900217513e-05
-1.8590603267e-05
-1.8591345786e-05
-1.85920532083e-05
-1.85925713883e-05
-1.85928066183e-05
-1.85927475919e-05
-1.85923924241e-05
-1.85918194241e-05
-1.85911595284e-05
-1.85905890618e-05
-1.85899110734e-05
-1.85886743384e-05
-1.86094091549e-05
-1.86113966972e-05
-1.86131116295e-05
-1.86146749917e-05
-1.86162194879e-05
-1.86175238409e-05
-1.86184106973e-05
-1.86187699227e-05
-1.86185756693e-05
-1.86178410178e-05
-1.8616661169e-05
-1.86151923097e-05
-1.86136348624e-05
-1.8611840285e-05
-1.8609662374e-05
-1.86281402098e-05
-1.8631027007e-05
-1.86335479609e-05
-1.86359310968e-05
-1.8638159343e-05
-1.86399772383e-05
-1.86411823182e-05
-1.86416476886e-05
-1.8641335463e-05
-1.86402711407e-05
-1.86385674504e-05
-1.86364073607e-05
-1.86340253648e-05
-1.86314242095e-05
-1.86283527836e-05
-1.86425471656e-05
-1.86460160092e-05
-1.86488248575e-05
-1.86516231737e-05
-1.86541928992e-05
-1.86562620277e-05
-1.86576185339e-05
-1.86581314888e-05
-1.86577574256e-05
-1.86565279572e-05
-1.86545606332e-05
-1.86520496621e-05
-1.864924745e-05
-1.86463583508e-05
-1.86427157798e-05
-1.86528819571e-05
-1.86562719802e-05
-1.86587182376e-05
-1.86613113804e-05
-1.86636781643e-05
-1.86655718021e-05
-1.86668065612e-05
-1.86672721797e-05
-1.86669293767e-05
-1.86658061958e-05
-1.86640005478e-05
-1.86616819993e-05
-1.86590796791e-05
-1.86565529902e-05
-1.86530016243e-05
-1.86581376839e-05
-1.86603476948e-05
-1.86615611244e-05
-1.86630657031e-05
-1.86644627044e-05
-1.86655847119e-05
-1.86663197947e-05
-1.86666077992e-05
-1.86664249855e-05
-1.86657844816e-05
-1.86647351755e-05
-1.86633746565e-05
-1.86618547566e-05
-1.86605613248e-05
-1.86582035956e-05
-1.86568401371e-05
-1.86564143203e-05
-1.86553469209e-05
-1.86547093471e-05
-1.86542369163e-05
-1.86538974587e-05
-1.86536998896e-05
-1.86536621904e-05
-1.86537863284e-05
-1.86540603929e-05
-1.86544564785e-05
-1.86549530835e-05
-1.86555690234e-05
-1.86565566002e-05
-1.86568472422e-05
-1.86476228551e-05
-1.8642939463e-05
-1.86384721059e-05
-1.86346100845e-05
-1.86313576061e-05
-1.86288684481e-05
-1.86273102801e-05
-1.86268012942e-05
-1.86273771148e-05
-1.862899302e-05
-1.86315222261e-05
-1.86347861703e-05
-1.86386199713e-05
-1.86430080139e-05
-1.864756779e-05
-1.86294591707e-05
-1.86189461526e-05
-1.86100099735e-05
-1.86019527364e-05
-1.8595114756e-05
-1.85898773553e-05
-1.85865906555e-05
-1.85854861708e-05
-1.8586637651e-05
-1.85899632268e-05
-1.85952241145e-05
-1.86020610116e-05
-1.86100834068e-05
-1.86189409415e-05
-1.86293389232e-05
-1.86017959947e-05
-1.85841267487e-05
-1.85698173045e-05
-1.85568154731e-05
-1.85457801681e-05
-1.85373507471e-05
-1.85320677551e-05
-1.85302782997e-05
-1.85320951059e-05
-1.8537398413e-05
-1.85458350739e-05
-1.85568570792e-05
-1.85698176397e-05
-1.85840491069e-05
-1.8601610773e-05
-1.85646121554e-05
-1.85388483326e-05
-1.85185242225e-05
-1.85001191631e-05
-1.84845214186e-05
-1.84726476611e-05
-1.84652225994e-05
-1.84627010309e-05
-1.84652310723e-05
-1.84726586051e-05
-1.84845241593e-05
-1.85000968814e-05
-1.85184544549e-05
-1.85387010438e-05
-1.85643619808e-05
-1.85182493705e-05
-1.84840669388e-05
-1.84574795421e-05
-1.84335358587e-05
-1.84132719256e-05
-1.83978998336e-05
-1.83883133448e-05
-1.83850559252e-05
-1.83883041825e-05
-1.839787657e-05
-1.84132258799e-05
-1.84334538432e-05
-1.84573440281e-05
-1.84838540788e-05
-1.8517936636e-05
-1.84630053119e-05
-1.84212231631e-05
-1.83886313987e-05
-1.83593132852e-05
-1.8334537209e-05
-1.83158232329e-05
-1.83041934543e-05
-1.83002448522e-05
-1.83041685655e-05
-1.83157692769e-05
-1.83344473472e-05
-1.83591772198e-05
-1.83884359704e-05
-1.84209504173e-05
-1.84626351931e-05
-1.84006186276e-05
-1.83524609851e-05
-1.83141686063e-05
-1.82797719642e-05
-1.82509173496e-05
-1.82292963756e-05
-1.82159334233e-05
-1.82114055583e-05
-1.82158954885e-05
-1.82292168429e-05
-1.8250790652e-05
-1.82795900316e-05
-1.83139219791e-05
-1.83521358621e-05
-1.84002009327e-05
-1.83409644856e-05
-1.82818558e-05
-1.82371734242e-05
-1.81975692067e-05
-1.81650668417e-05
-1.81410285179e-05
-1.81262814188e-05
-1.81212998077e-05
-1.81262327623e-05
-1.81409282066e-05
-1.81649102168e-05
-1.81973501423e-05
-1.82368845805e-05
-1.8281487709e-05
-1.83405140304e-05
-3.00619262835e-05
-3.00591137216e-05
-3.00551193638e-05
-3.00512005065e-05
-3.00475914738e-05
-3.00447278261e-05
-3.00428678187e-05
-3.00421797016e-05
-3.00427221215e-05
-3.00444434874e-05
-3.00471874454e-05
-3.00507204632e-05
-3.00546292187e-05
-3.00587015904e-05
-3.00616791385e-05
-3.00531559027e-05
-3.00508597844e-05
-3.00473132746e-05
-3.00438354095e-05
-3.00405997862e-05
-3.00380216251e-05
-3.00363406916e-05
-3.00357147029e-05
-3.00361994385e-05
-3.0037745958e-05
-3.00402079429e-05
-3.00433680052e-05
-3.00468353848e-05
-3.00504570925e-05
-3.00529143512e-05
-3.00532605739e-05
-3.00523239963e-05
-3.00499541188e-05
-3.00475631089e-05
-3.00452214574e-05
-3.00433121204e-05
-3.00420440316e-05
-3.00415594296e-05
-3.00419098234e-05
-3.00430507365e-05
-3.00448509021e-05
-3.00471212904e-05
-3.00495025132e-05
-3.00519429435e-05
-3.00530320337e-05
-3.00617010431e-05
-3.00622157421e-05
-3.00610306007e-05
-3.00596711612e-05
-3.00581441391e-05
-3.00568222621e-05
-3.00559081831e-05
-3.00555438811e-05
-3.00557822905e-05
-3.00565775031e-05
-3.00577977938e-05
-3.00592580415e-05
-3.00606073141e-05
-3.00618571025e-05
-3.00614846546e-05
-3.0072478176e-05
-3.00736874686e-05
-3.00729878218e-05
-3.00719827221e-05
-3.00706934192e-05
-3.00695165187e-05
-3.00686792959e-05
-3.00683411274e-05
-3.00685620588e-05
-3.006928896e-05
-3.00703719317e-05
-3.00715991422e-05
-3.00725935817e-05
-3.00733511049e-05
-3.0072272313e-05
-3.00814068795e-05
-3.00823151256e-05
-3.00813081828e-05
-3.00799468878e-05
-3.00783261771e-05
-3.0076878508e-05
-3.00758660599e-05
-3.00754694909e-05
-3.00757573632e-05
-3.00766680444e-05
-3.00780293285e-05
-3.00795925346e-05
-3.00809427699e-05
-3.0082000607e-05
-3.0081210687e-05
-3.00866864061e-05
-3.00864843964e-05
-3.00846239595e-05
-3.00824477841e-05
-3.00801493206e-05
-3.00781887688e-05
-3.00768584356e-05
-3.00763565018e-05
-3.00767587953e-05
-3.00779963165e-05
-3.00798783583e-05
-3.0082124371e-05
-3.00842894193e-05
-3.00861942472e-05
-3.00865003537e-05
-3.00879566725e-05
-3.00861227816e-05
-3.00831121982e-05
-3.00798878066e-05
-3.00767428785e-05
-3.0074155594e-05
-3.00724419086e-05
-3.00718134723e-05
-3.00723512771e-05
-3.00739808593e-05
-3.00764973377e-05
-3.00795949282e-05
-3.00828085355e-05
-3.00858573024e-05
-3.00877814279e-05
-3.00855087452e-05
-3.00817477381e-05
-3.00774366794e-05
-3.00730553063e-05
-3.00689853289e-05
-3.00657188847e-05
-3.00635919166e-05
-3.00628272855e-05
-3.00635100221e-05
-3.00655613109e-05
-3.00687644255e-05
-3.00727921266e-05
-3.00771633063e-05
-3.00815067059e-05
-3.00853438348e-05
-3.00798332431e-05
-3.00740002246e-05
-3.00683089997e-05
-3.0062722854e-05
-3.00576927103e-05
-3.00537246511e-05
-3.00511722546e-05
-3.00502674162e-05
-3.00510984463e-05
-3.00535829572e-05
-3.00574945523e-05
-3.00624872035e-05
-3.00680638478e-05
-3.00737821276e-05
-3.00796777657e-05
-3.00714233622e-05
-3.00634755864e-05
-3.00563658866e-05
-3.00495662229e-05
-3.00435729854e-05
-3.00389064081e-05
-3.00359326971e-05
-3.00348894163e-05
-3.00358662159e-05
-3.00387790381e-05
-3.00433953904e-05
-3.00493553273e-05
-3.00561461289e-05
-3.00632781171e-05
-3.00712755349e-05
-3.00607381463e-05
-3.00507115157e-05
-3.00421795087e-05
-3.0034191316e-05
-3.00272664858e-05
-3.0021933481e-05
-3.00185625222e-05
-3.0017389108e-05
-3.00185024012e-05
-3.0021818503e-05
-3.00271065324e-05
-3.00340017319e-05
-3.00419815786e-05
-3.00505316437e-05
-3.0060597145e-05
-3.00482579555e-05
-3.00362122691e-05
-3.00262734101e-05
-3.00171560272e-05
-3.00093735308e-05
-3.00034446322e-05
-2.99997242268e-05
-2.99984384985e-05
-2.99996692339e-05
-3.00033396969e-05
-3.00092281019e-05
-3.00169838281e-05
-3.00260930721e-05
-3.0036046052e-05
-3.00481204347e-05
-3.00342507879e-05
-3.00202085246e-05
-3.00089866312e-05
-2.99988936393e-05
-2.99904251623e-05
-2.99840448035e-05
-2.99800718085e-05
-2.99787048688e-05
-2.99800206252e-05
-2.99839474162e-05
-2.99902901514e-05
-2.99987340608e-05
-3.00088195439e-05
-3.00200521832e-05
-3.00341132594e-05
-3.00172466582e-05
-3.000264007e-05
-2.99905200089e-05
-2.99798011029e-05
-2.99709940396e-05
-2.99644342144e-05
-2.99603756747e-05
-2.9958986102e-05
-2.99603270918e-05
-2.9964342198e-05
-2.99708669823e-05
-2.99796511668e-05
-2.99903619082e-05
-3.0002491611e-05
-3.00171096324e-05
-1.96594236831e-05
-1.9660987968e-05
-1.96628105704e-05
-1.96647146392e-05
-1.96664513027e-05
-1.96678376878e-05
-1.96687439244e-05
-1.96690916724e-05
-1.96688500217e-05
-1.96680480999e-05
-1.96667594544e-05
-1.96651029861e-05
-1.96632460759e-05
-1.96614272817e-05
-1.96598104283e-05
-1.96607133901e-05
-1.96622470445e-05
-1.96640669601e-05
-1.96659748977e-05
-1.96677217285e-05
-1.96691195331e-05
-1.96700346453e-05
-1.96703850186e-05
-1.96701371455e-05
-1.96693227238e-05
-1.96680193088e-05
-1.96663505425e-05
-1.96644893915e-05
-1.96626743012e-05
-1.96610925444e-05
-1.96601087188e-05
-1.96614937932e-05
-1.96631848206e-05
-1.96649913176e-05
-1.9666662452e-05
-1.9668008655e-05
-1.96688938894e-05
-1.96692336638e-05
-1.96689931155e-05
-1.9668205259e-05
-1.96669502558e-05
-1.96653549986e-05
-1.96635952667e-05
-1.96619101913e-05
-1.96604805656e-05
-1.96593263527e-05
-1.96606254295e-05
-1.96622330429e-05
-1.96639735541e-05
-1.96655973537e-05
-1.96669125619e-05
-1.96677801944e-05
-1.96681130532e-05
-1.96678752843e-05
-1.96671008164e-05
-1.96658726572e-05
-1.96643216234e-05
-1.96626270477e-05
-1.9661027285e-05
-1.96596883089e-05
-1.9658856895e-05
-1.96601441078e-05
-1.96617276808e-05
-1.96634509873e-05
-1.96650661574e-05
-1.96663783678e-05
-1.96672451403e-05
-1.96675764899e-05
-1.96673356257e-05
-1.96665573755e-05
-1.96653278296e-05
-1.96637820873e-05
-1.96621035627e-05
-1.96605296067e-05
-1.96592067062e-05
-1.96586704495e-05
-1.96600046444e-05
-1.96616075078e-05
-1.96633494307e-05
-1.96649835536e-05
-1.96663121728e-05
-1.9667189636e-05
-1.96675232031e-05
-1.96672752401e-05
-1.96664812788e-05
-1.96652304068e-05
-1.96636617971e-05
-1.96619629114e-05
-1.96603711343e-05
-1.9659006743e-05
-1.96587457933e-05
-1.9660177166e-05
-1.96618347084e-05
-1.96636244015e-05
-1.96652990241e-05
-1.9666658776e-05
-1.96675554004e-05
-1.9667893901e-05
-1.96676359306e-05
-1.96668176332e-05
-1.96655306624e-05
-1.96639174944e-05
-1.96621689821e-05
-1.96605235041e-05
-1.96590670568e-05
-1.96590909835e-05
-1.96606642938e-05
-1.9662406044e-05
-1.96642652323e-05
-1.96659949527e-05
-1.96673947267e-05
-1.96683150758e-05
-1.96686598199e-05
-1.96683904184e-05
-1.96675431569e-05
-1.96662110632e-05
-1.9664538466e-05
-1.9662718245e-05
-1.96609896705e-05
-1.96593967391e-05
-1.96597027094e-05
-1.96614519137e-05
-1.96632978131e-05
-1.96652384133e-05
-1.96670291386e-05
-1.96684707861e-05
-1.96694148149e-05
-1.96697655936e-05
-1.96694850593e-05
-1.96686089939e-05
-1.96672300837e-05
-1.96654922888e-05
-1.96635883367e-05
-1.96617565845e-05
-1.96599927356e-05
-1.96605587338e-05
-1.9662505553e-05
-1.96644648284e-05
-1.9666487634e-05
-1.96683351723e-05
-1.96698125351e-05
-1.96707751558e-05
-1.96711299979e-05
-1.96708404336e-05
-1.96699408257e-05
-1.96685213782e-05
-1.96667226919e-05
-1.9664734288e-05
-1.96627900281e-05
-1.9660834132e-05
-1.96616266878e-05
-1.96637778147e-05
-1.96658490033e-05
-1.96679442924e-05
-1.9669835027e-05
-1.96713346144e-05
-1.96723058986e-05
-1.96726613024e-05
-1.96723664653e-05
-1.96714534809e-05
-1.96700073502e-05
-1.96681616273e-05
-1.96660986754e-05
-1.96640432001e-05
-1.96618880162e-05
-1.96628633271e-05
-1.96652134692e-05
-1.96673879811e-05
-1.96695385348e-05
-1.96714516487e-05
-1.96729537077e-05
-1.96739199666e-05
-1.96742709965e-05
-1.96739761384e-05
-1.96730638683e-05
-1.96716110332e-05
-1.96697395229e-05
-1.9667619374e-05
-1.96654613168e-05
-1.96631116982e-05
-1.9664199118e-05
-1.96667438747e-05
-1.96690158957e-05
-1.96712042422e-05
-1.96731160306e-05
-1.96745985031e-05
-1.96755440303e-05
-1.96758853383e-05
-1.96755962512e-05
-1.96747006703e-05
-1.96732638041e-05
-1.96713903592e-05
-1.9669230779e-05
-1.9666975794e-05
-1.96644353695e-05
-1.96655939869e-05
-1.96683459385e-05
-1.96707008965e-05
-1.96729018033e-05
-1.96747802868e-05
-1.96762144565e-05
-1.96771205245e-05
-1.96774454979e-05
-1.96771691149e-05
-1.96763095704e-05
-1.96749174498e-05
-1.96730746844e-05
-1.96709009265e-05
-1.96685636084e-05
-1.96658198697e-05
-1.96677155207e-05
-1.96703794544e-05
-1.96726802159e-05
-1.9674760488e-05
-1.96764861458e-05
-1.96777829701e-05
-1.96785946823e-05
-1.96788850072e-05
-1.96786399239e-05
-1.96778712492e-05
-1.96766134637e-05
-1.9674920808e-05
-1.96728664296e-05
-1.9670583635e-05
-1.96679312023e-05
-2.50054360887e-05
-2.50044303746e-05
-2.50032996099e-05
-2.50021267992e-05
-2.50010692243e-05
-2.50002304797e-05
-2.49996896307e-05
-2.49994966805e-05
-2.49996727258e-05
-2.5000199721e-05
-2.50010307257e-05
-2.50020887395e-05
-2.50032694047e-05
-2.50044143815e-05
-2.5005443147e-05
-2.50050920072e-05
-2.50041236898e-05
-2.50030112135e-05
-2.50018492739e-05
-2.50007960765e-05
-2.49999584739e-05
-2.49994174015e-05
-2.49992245411e-05
-2.49994020725e-05
-2.49999303505e-05
-2.50007603073e-05
-2.50018126205e-05
-2.50029804387e-05
-2.50041057501e-05
-2.50050955238e-05
-2.50059290456e-05
-2.50050691373e-05
-2.50040566181e-05
-2.50029747907e-05
-2.50019830797e-05
-2.50011882635e-05
-2.50006724068e-05
-2.50004880802e-05
-2.50006581358e-05
-2.50011621453e-05
-2.50019499538e-05
-2.5002941027e-05
-2.50040283957e-05
-2.50050534833e-05
-2.50059323734e-05
-2.50067339916e-05
-2.50059404125e-05
-2.50049962566e-05
-2.50039702639e-05
-2.50030207778e-05
-2.50022551274e-05
-2.50017565563e-05
-2.50015783775e-05
-2.50017436976e-05
-2.5002231571e-05
-2.50029907214e-05
-2.50039393455e-05
-2.50049702529e-05
-2.50059260226e-05
-2.50067368574e-05
-2.5007273752e-05
-2.50065026033e-05
-2.5005590864e-05
-2.50045931981e-05
-2.50036648421e-05
-2.5002913625e-05
-2.50024234659e-05
-2.50022485593e-05
-2.50024120991e-05
-2.50028927952e-05
-2.50036382856e-05
-2.50045657605e-05
-2.50055677942e-05
-2.50064896922e-05
-2.50072757441e-05
-2.5007630597e-05
-2.50068545318e-05
-2.50059530693e-05
-2.5004966435e-05
-2.50040465633e-05
-2.50033012662e-05
-2.50028148101e-05
-2.50026416744e-05
-2.50028049925e-05
-2.50032832104e-05
-2.50040232817e-05
-2.50049419442e-05
-2.50059318678e-05
-2.50068421486e-05
-2.5007630657e-05
-2.50078514762e-05
-2.50070500512e-05
-2.50061427591e-05
-2.50051559614e-05
-2.50042370417e-05
-2.50034930681e-05
-2.50030078417e-05
-2.50028356831e-05
-2.50029994668e-05
-2.50034776564e-05
-2.50042170604e-05
-2.50051347151e-05
-2.50061238943e-05
-2.50070384492e-05
-2.50078494374e-05
-2.50079538334e-05
-2.50071127158e-05
-2.50061878884e-05
-2.50051934875e-05
-2.50042709041e-05
-2.50035259398e-05
-2.50030409844e-05
-2.50028695706e-05
-2.50030339216e-05
-2.50035128651e-05
-2.50042537346e-05
-2.50051747808e-05
-2.50061706238e-05
-2.50071010183e-05
-2.50079493888e-05
-2.5007955426e-05
-2.50070642181e-05
-2.50061147751e-05
-2.5005109648e-05
-2.50041827991e-05
-2.50034375801e-05
-2.50029538315e-05
-2.50027835354e-05
-2.50029479413e-05
-2.50034266098e-05
-2.50041682635e-05
-2.50050934471e-05
-2.50060991515e-05
-2.50070523727e-05
-2.50079480827e-05
-2.50078758676e-05
-2.50069298611e-05
-2.5005953264e-05
-2.5004938215e-05
-2.50040098053e-05
-2.50032675054e-05
-2.50027875614e-05
-2.50026192706e-05
-2.50027826356e-05
-2.50032582838e-05
-2.50039973352e-05
-2.50049239132e-05
-2.50059387025e-05
-2.50069175105e-05
-2.50078655093e-05
-2.50077347172e-05
-2.50067325039e-05
-2.50057296221e-05
-2.50047089159e-05
-2.50037847527e-05
-2.50030513054e-05
-2.50025793412e-05
-2.50024146112e-05
-2.50025752652e-05
-2.50030435772e-05
-2.50037741466e-05
-2.50046962351e-05
-2.50057159347e-05
-2.50067193808e-05
-2.5007721088e-05
-2.50075490958e-05
-2.50064920066e-05
-2.50054661244e-05
-2.50044460361e-05
-2.50035344432e-05
-2.50028173498e-05
-2.50023590378e-05
-2.5002199703e-05
-2.500235566e-05
-2.50028109299e-05
-2.50035252127e-05
-2.5004434667e-05
-2.50054530138e-05
-2.50064782179e-05
-2.50075327183e-05
-2.50073468621e-05
-2.50062331313e-05
-2.5005184331e-05
-2.50041697105e-05
-2.50032779391e-05
-2.50025856301e-05
-2.50021461099e-05
-2.50019945819e-05
-2.50021433546e-05
-2.50025800089e-05
-2.50032700307e-05
-2.50041591589e-05
-2.50051716212e-05
-2.50062185344e-05
-2.5007327934e-05
-2.50071386313e-05
-2.50059571004e-05
-2.50048889268e-05
-2.50038864049e-05
-2.50030255678e-05
-2.50023666895e-05
-2.50019534435e-05
-2.50018112838e-05
-2.50019509355e-05
-2.50023619658e-05
-2.50030181192e-05
-2.50038766005e-05
-2.50048764398e-05
-2.50059422226e-05
-2.50071177396e-05
-2.50065092765e-05
-2.50053828143e-05
-2.50043849346e-05
-2.50034777992e-05
-2.50027181343e-05
-2.50021462301e-05
-2.5001790354e-05
-2.50016689078e-05
-2.50017881532e-05
-2.5002141694e-05
-2.50027113797e-05
-2.50034684449e-05
-2.50043729511e-05
-2.50053683042e-05
-2.50064890317e-05
-2.01410327484e-05
-2.0141671356e-05
-2.01424098338e-05
-2.01431871385e-05
-2.01438953986e-05
-2.0144461923e-05
-2.01448326189e-05
-2.0144976521e-05
-2.01448813392e-05
-2.01445593147e-05
-2.01440406829e-05
-2.01433752203e-05
-2.0142629705e-05
-2.01419083256e-05
-2.014126134e-05
-2.0141165422e-05
-2.01417800647e-05
-2.0142505712e-05
-2.01432747413e-05
-2.01439792451e-05
-2.01445446334e-05
-2.01449153283e-05
-2.0145058975e-05
-2.01449623938e-05
-2.01446388083e-05
-2.01441198633e-05
-2.01434569672e-05
-2.01427187655e-05
-2.01420096805e-05
-2.0141388325e-05
-2.0140538561e-05
-2.01410829852e-05
-2.01417445032e-05
-2.01424629331e-05
-2.01431281992e-05
-2.01436659645e-05
-2.01440203834e-05
-2.01441583533e-05
-2.01440661899e-05
-2.01437575077e-05
-2.01432646914e-05
-2.01426400653e-05
-2.01419524922e-05
-2.01413073998e-05
-2.01407576879e-05
-2.01399530684e-05
-2.01404543172e-05
-2.01410707943e-05
-2.01417520253e-05
-2.01423883942e-05
-2.01429059386e-05
-2.01432484603e-05
-2.01433820397e-05
-2.01432926993e-05
-2.01429942639e-05
-2.0142519807e-05
-2.01419224499e-05
-2.01412711826e-05
-2.01406712651e-05
-2.01401664231e-05
-2.01395457682e-05
-2.01400286833e-05
-2.01406205246e-05
-2.0141280053e-05
-2.01418991909e-05
-2.01424044969e-05
-2.01427396549e-05
-2.01428702724e-05
-2.01427821242e-05
-2.01424891881e-05
-2.01420250333e-05
-2.01414432773e-05
-2.0140812834e-05
-2.01402375954e-05
-2.01397521676e-05
-2.0139254498e-05
-2.01397342395e-05
-2.01403123892e-05
-2.01409575817e-05
-2.01415645664e-05
-2.01420607899e-05
-2.01423903142e-05
-2.01425184244e-05
-2.01424308637e-05
-2.01421415604e-05
-2.01416843109e-05
-2.01411126694e-05
-2.01404950917e-05
-2.01399331545e-05
-2.01394528503e-05
-2.01390414946e-05
-2.01395261371e-05
-2.01400971965e-05
-2.01407323174e-05
-2.01413295117e-05
-2.01418176865e-05
-2.01421418501e-05
-2.01422674542e-05
-2.01421804119e-05
-2.01418944023e-05
-2.01414430201e-05
-2.01408791581e-05
-2.01402703136e-05
-2.01397148475e-05
-2.0139230939e-05
-2.01388891636e-05
-2.01393840727e-05
-2.01399520232e-05
-2.01405783794e-05
-2.01411657941e-05
-2.01416452805e-05
-2.01419633656e-05
-2.01420861569e-05
-2.01419999075e-05
-2.01417178629e-05
-2.01412729042e-05
-2.01407165907e-05
-2.01401148544e-05
-2.01395619069e-05
-2.0139069141e-05
-2.01387816425e-05
-2.01392884018e-05
-2.01398546431e-05
-2.0140471638e-05
-2.01410477055e-05
-2.01415165748e-05
-2.01418269918e-05
-2.01419463778e-05
-2.01418615179e-05
-2.01415850264e-05
-2.01411484982e-05
-2.0140601408e-05
-2.01400074102e-05
-2.01394555717e-05
-2.01389518922e-05
-2.01387026875e-05
-2.01392214917e-05
-2.01397854067e-05
-2.0140390658e-05
-2.01409522092e-05
-2.01414072691e-05
-2.01417077664e-05
-2.01418228742e-05
-2.01417403114e-05
-2.01414717026e-05
-2.01410467964e-05
-2.0140512142e-05
-2.01399282388e-05
-2.01393780911e-05
-2.01388636463e-05
-2.01386396432e-05
-2.01391686367e-05
-2.01397283502e-05
-2.01403185024e-05
-2.01408612469e-05
-2.01412985564e-05
-2.01415861787e-05
-2.01416960475e-05
-2.01416168408e-05
-2.01413591335e-05
-2.01409500076e-05
-2.01404321728e-05
-2.01398619134e-05
-2.01393152606e-05
-2.01387915843e-05
-2.01385815686e-05
-2.01391192843e-05
-2.01396729315e-05
-2.01402440748e-05
-2.01407632641e-05
-2.01411779545e-05
-2.01414495252e-05
-2.01415528701e-05
-2.01414784577e-05
-2.01412350519e-05
-2.01408465883e-05
-2.01403506731e-05
-2.01397979952e-05
-2.01392568968e-05
-2.01387252657e-05
-2.01385139086e-05
-2.01390617396e-05
-2.01396100704e-05
-2.01401605966e-05
-2.01406519105e-05
-2.01410402181e-05
-2.01412923308e-05
-2.01413884409e-05
-2.01413197959e-05
-2.01410941353e-05
-2.01407306892e-05
-2.01402608104e-05
-2.01397277369e-05
-2.01391913626e-05
-2.01386501985e-05
-2.01384238918e-05
-2.01389902563e-05
-2.01395369124e-05
-2.01400658389e-05
-2.01405267133e-05
-2.01408843932e-05
-2.01411151332e-05
-2.0141202637e-05
-2.01411412936e-05
-2.01409359693e-05
-2.01406014114e-05
-2.01401610652e-05
-2.01396481894e-05
-2.01391132323e-05
-2.01385539638e-05
-2.01385221206e-05
-2.01390707698e-05
-2.01395735959e-05
-2.01400393752e-05
-2.0140432755e-05
-2.0140733908e-05
-2.01409266086e-05
-2.01410007517e-05
-2.01409518953e-05
-2.0140783363e-05
-2.01405045256e-05
-2.01401301522e-05
-2.01396799583e-05
-2.01391882217e-05
-2.01386470898e-05
-2.17721939341e-05
-2.17717922551e-05
-2.17713447067e-05
-2.17708848799e-05
-2.17704726065e-05
-2.17701477444e-05
-2.17699401191e-05
-2.17698688377e-05
-2.17699428069e-05
-2.17701559799e-05
-2.17704908898e-05
-2.17709176053e-05
-2.17713949714e-05
-2.1771859783e-05
-2.17722792908e-05
-2.1772051088e-05
-2.17716618486e-05
-2.17712190736e-05
-2.17707609946e-05
-2.17703485137e-05
-2.17700228896e-05
-2.17698147895e-05
-2.17697438366e-05
-2.17698190917e-05
-2.17700337949e-05
-2.17703695907e-05
-2.17707955892e-05
-2.17712695154e-05
-2.17717282398e-05
-2.17721337921e-05
-2.17723839799e-05
-2.17720367173e-05
-2.17716329826e-05
-2.1771205823e-05
-2.17708168673e-05
-2.17705073494e-05
-2.1770308672e-05
-2.17702409111e-05
-2.17703133421e-05
-2.1770518822e-05
-2.17708385034e-05
-2.17712409549e-05
-2.17716837558e-05
-2.17721035686e-05
-2.17724657177e-05
-2.17726992006e-05
-2.17723785487e-05
-2.17720013689e-05
-2.17715957747e-05
-2.17712230077e-05
-2.17709246589e-05
-2.17707326422e-05
-2.17706673336e-05
-2.17707379936e-05
-2.17709372166e-05
-2.1771245649e-05
-2.17716314005e-05
-2.17720519288e-05
-2.17724446184e-05
-2.17727797389e-05
-2.17729093948e-05
-2.17725992835e-05
-2.17722358076e-05
-2.17718426348e-05
-2.17714792213e-05
-2.17711872894e-05
-2.17709990476e-05
-2.17709352204e-05
-2.17710050271e-05
-2.17712008426e-05
-2.17715029116e-05
-2.17718790448e-05
-2.17722867145e-05
-2.17726649121e-05
-2.17729882883e-05
-2.17730554669e-05
-2.17727479182e-05
-2.17723914811e-05
-2.17720056261e-05
-2.17716481196e-05
-2.17713605715e-05
-2.1771175166e-05
-2.17711126027e-05
-2.17711819347e-05
-2.17713753793e-05
-2.17716729745e-05
-2.1772042566e-05
-2.17724418899e-05
-2.17728122605e-05
-2.17731318657e-05
-2.17731618062e-05
-2.17728519062e-05
-2.17724985493e-05
-2.17721181673e-05
-2.17717657062e-05
-2.17714822367e-05
-2.17712995416e-05
-2.17712381451e-05
-2.17713068887e-05
-2.1771497986e-05
-2.17717914978e-05
-2.17721556768e-05
-2.17725488166e-05
-2.17729151604e-05
-2.1773235596e-05
-2.17732393006e-05
-2.1772924899e-05
-2.17725723009e-05
-2.17721963452e-05
-2.17718486777e-05
-2.17715695446e-05
-2.17713899416e-05
-2.17713298659e-05
-2.17713978153e-05
-2.17715861034e-05
-2.17718751333e-05
-2.1772233932e-05
-2.17726217383e-05
-2.17729862864e-05
-2.17733102633e-05
-2.17732971203e-05
-2.17729764444e-05
-2.17726237217e-05
-2.17722526605e-05
-2.17719109307e-05
-2.17716374143e-05
-2.17714617823e-05
-2.17714033191e-05
-2.17714700413e-05
-2.17716545434e-05
-2.17719379059e-05
-2.17722903413e-05
-2.17726724786e-05
-2.17730360809e-05
-2.17733648149e-05
-2.17733428741e-05
-2.17730160991e-05
-2.17726635297e-05
-2.17722985988e-05
-2.17719645723e-05
-2.17716983095e-05
-2.17715279478e-05
-2.17714714993e-05
-2.17715364672e-05
-2.17717158354e-05
-2.17719917225e-05
-2.17723360002e-05
-2.17727112174e-05
-2.17730736474e-05
-2.17734073526e-05
-2.17733832084e-05
-2.17730502337e-05
-2.1772698604e-05
-2.17723418505e-05
-2.17720179497e-05
-2.17717614523e-05
-2.17715979825e-05
-2.17715441931e-05
-2.17716067412e-05
-2.17717792877e-05
-2.17720453417e-05
-2.17723789829e-05
-2.17727453204e-05
-2.17731056213e-05
-2.17734441219e-05
-2.1773422356e-05
-2.17730830371e-05
-2.17727336738e-05
-2.17723872086e-05
-2.17720765734e-05
-2.17718322591e-05
-2.17716777871e-05
-2.17716272197e-05
-2.1771686726e-05
-2.1771850465e-05
-2.17721039741e-05
-2.17724241217e-05
-2.17727793783e-05
-2.17731364202e-05
-2.17734799514e-05
-2.17734682872e-05
-2.17731202675e-05
-2.17727724736e-05
-2.1772437741e-05
-2.17721418313e-05
-2.17719126838e-05
-2.17717683842e-05
-2.17717220315e-05
-2.17717776451e-05
-2.17719309813e-05
-2.17721696767e-05
-2.17724742104e-05
-2.17728173344e-05
-2.17731716891e-05
-2.17735226247e-05
-2.17735173321e-05
-2.17731542132e-05
-2.17728105971e-05
-2.17724892582e-05
-2.17722123226e-05
-2.1772000107e-05
-2.17718688489e-05
-2.17718268614e-05
-2.17718782111e-05
-2.17720190682e-05
-2.17722400801e-05
-2.17725259118e-05
-2.17728545596e-05
-2.17732041904e-05
-2.17735687257e-05
-2.1773369358e-05
-2.17730520932e-05
-2.17727555157e-05
-2.17724858555e-05
-2.17722573643e-05
-2.17720856328e-05
-2.17719802771e-05
-2.17719477405e-05
-2.17719900343e-05
-2.17721048113e-05
-2.17722857361e-05
-2.17725223272e-05
-2.17727991676e-05
-2.17731007326e-05
-2.17734194665e-05
-1.92606632631e-05
-1.92609152985e-05
-1.9261208206e-05
-1.92615181173e-05
-1.92618004278e-05
-1.92620261818e-05
-1.92621743403e-05
-1.92622324509e-05
-1.92621957261e-05
-1.92620693598e-05
-1.92618656587e-05
-1.92616049527e-05
-1.92613138094e-05
-1.92610349753e-05
-1.92607860185e-05
-1.92606730832e-05
-1.9260914785e-05
-1.92612013647e-05
-1.92615064931e-05
-1.92617854981e-05
-1.92620092311e-05
-1.92621563104e-05
-1.92622138288e-05
-1.92621766549e-05
-1.92620502204e-05
-1.92618473104e-05
-1.92615887949e-05
-1.92613019118e-05
-1.92610294543e-05
-1.92607920746e-05
-1.92603741274e-05
-1.92605868249e-05
-1.92608459148e-05
-1.92611291191e-05
-1.92613910392e-05
-1.92616028196e-05
-1.92617427119e-05
-1.92617976403e-05
-1.9261762336e-05
-1.92616423732e-05
-1.92614507574e-05
-1.92612086741e-05
-1.92609433096e-05
-1.92606980286e-05
-1.92604906258e-05
-1.92601026476e-05
-1.92602974503e-05
-1.92605372746e-05
-1.92608046006e-05
-1.9261054093e-05
-1.92612570816e-05
-1.92613916016e-05
-1.92614444135e-05
-1.92614101854e-05
-1.9261294539e-05
-1.92611107091e-05
-1.92608801418e-05
-1.92606299748e-05
-1.92604037613e-05
-1.92602148312e-05
-1.92599100455e-05
-1.92600973815e-05
-1.92603264381e-05
-1.92605841137e-05
-1.92608258607e-05
-1.92610232696e-05
-1.9261154323e-05
-1.9261205615e-05
-1.92611717783e-05
-1.9261058456e-05
-1.92608790412e-05
-1.92606551308e-05
-1.92604137208e-05
-1.92601981632e-05
-1.92600172471e-05
-1.92597680864e-05
-1.92599540127e-05
-1.92601763725e-05
-1.92604274745e-05
-1.92606634849e-05
-1.92608564946e-05
-1.92609846421e-05
-1.92610345309e-05
-1.92610008028e-05
-1.92608890641e-05
-1.92607127432e-05
-1.92604933481e-05
-1.92602575748e-05
-1.92600481729e-05
-1.92598697273e-05
-1.92596593129e-05
-1.92598465209e-05
-1.92600646613e-05
-1.92603105667e-05
-1.92605415099e-05
-1.92607303647e-05
-1.92608556687e-05
-1.92609041687e-05
-1.92608705778e-05
-1.92607603892e-05
-1.92605869075e-05
-1.92603712866e-05
-1.92601397334e-05
-1.92599340509e-05
-1.92597548936e-05
-1.92595749396e-05
-1.92597648112e-05
-1.92599799104e-05
-1.92602209398e-05
-1.92604467498e-05
-1.92606311052e-05
-1.92607532269e-05
-1.92608002041e-05
-1.92607669106e-05
-1.92606586589e-05
-1.92604884194e-05
-1.92602767243e-05
-1.92600490465e-05
-1.92598458153e-05
-1.92596644883e-05
-1.92595070517e-05
-1.92596995152e-05
-1.92599118219e-05
-1.92601474837e-05
-1.92603673185e-05
-1.92605462636e-05
-1.9260664552e-05
-1.92607097963e-05
-1.92606771311e-05
-1.92605715889e-05
-1.92604055849e-05
-1.9260198722e-05
-1.92599754708e-05
-1.92597745064e-05
-1.925959075e-05
-1.925944799e-05
-1.92596421732e-05
-1.92598510365e-05
-1.92600802088e-05
-1.92602927447e-05
-1.92604650482e-05
-1.92605786027e-05
-1.92606218501e-05
-1.92605902584e-05
-1.92604884893e-05
-1.92603281726e-05
-1.92601276312e-05
-1.92599100155e-05
-1.92597118461e-05
-1.92595265155e-05
-1.92593915702e-05
-1.92595858816e-05
-1.92597904563e-05
-1.9260011726e-05
-1.92602152905e-05
-1.92603793236e-05
-1.92604870594e-05
-1.92605279622e-05
-1.92604979768e-05
-1.92604012879e-05
-1.92602484355e-05
-1.92600560868e-05
-1.92598456697e-05
-1.92596512367e-05
-1.92594655307e-05
-1.92593330206e-05
-1.92595261904e-05
-1.92597255984e-05
-1.92599374749e-05
-1.92601301424e-05
-1.92602842022e-05
-1.92603848238e-05
-1.92604230427e-05
-1.92603952656e-05
-1.92603051261e-05
-1.92601617871e-05
-1.925997973e-05
-1.92597781291e-05
-1.92595883128e-05
-1.9259403434e-05
-1.92592664863e-05
-1.92594585025e-05
-1.9259653163e-05
-1.9259855043e-05
-1.92600354402e-05
-1.92601777219e-05
-1.92602702683e-05
-1.92603053861e-05
-1.92602804661e-05
-1.92601983295e-05
-1.92600663297e-05
-1.92598962668e-05
-1.92597042111e-05
-1.92595186035e-05
-1.92593343451e-05
-1.92591820355e-05
-1.92593754774e-05
-1.92595692159e-05
-1.9259762359e-05
-1.92599299759e-05
-1.92600601281e-05