/*--------------------------------*- C++ -*----------------------------------*\
  =========                 |
  \\      /  F ield         | OpenFOAM: The Open Source CFD Toolbox
   \\    /   O peration     | Website:  https://openfoam.org
    \\  /    A nd           | Version:  7
     \\/     M anipulation  |
\*---------------------------------------------------------------------------*/
FoamFile
{
    version     2.0;
    format      ascii;
    class       surfaceScalarField;
    location    "0.74";
    object      phi;
}
// * * * * * * * * * * * * * * * * * * * * * * * * * * * * * * * * * * * * * //

dimensions      [0 3 -1 0 0 0 0];

internalField   nonuniform List<scalar> 
65775
(
-3.74029280798e-11
-9.81630437382e-09
2.77777185518e-10
4.87835406321e-15
-6.8577403881e-11
-1.03536529416e-08
3.13057138502e-10
-7.60936527559e-11
-1.08568483681e-08
3.46581292103e-10
-6.91747666872e-11
-1.12854367952e-08
3.76691039503e-10
-5.37318465761e-11
-1.1629221506e-08
4.01989870589e-10
-3.31815968871e-11
-1.18815067942e-08
4.21173550362e-10
-9.77314692003e-12
-1.20398886157e-08
4.33301784281e-10
1.45840053325e-11
-1.20987718289e-08
4.37638912361e-10
3.78537556095e-11
-1.20398055824e-08
4.33377333757e-10
5.81366849352e-11
-1.18813507972e-08
4.21322967795e-10
7.32094413624e-11
-1.16290130937e-08
4.02207802564e-10
7.96857059675e-11
-1.12852012202e-08
3.76968793717e-10
7.16909386327e-11
-1.08566122044e-08
3.46905378634e-10
4.00180696403e-11
-1.0353432658e-08
3.13405948543e-10
-9.81617599138e-09
2.7811454273e-10
2.19490270507e-12
-1.30503705731e-10
-1.85850978078e-08
-2.23833740685e-10
1.47590218519e-13
-2.21946510634e-10
-1.95921432153e-08
-2.87024913112e-10
-2.52211320103e-10
-2.05322245457e-08
-3.5454640228e-10
-2.37339638305e-10
-2.13209919948e-08
-4.20378600414e-10
-1.90112580021e-10
-2.19458398446e-08
-4.78657185736e-10
-1.20438656107e-10
-2.2400381987e-08
-5.24406515936e-10
-3.7292798928e-11
-2.26843859208e-08
-5.53793608873e-10
5.02138013503e-11
-2.27898806327e-08
-5.64128207774e-10
1.33015733405e-10
-2.2684134626e-08
-5.53589499147e-10
2.02020788399e-10
-2.23999066434e-08
-5.24001761192e-10
2.48300626341e-10
-2.19451951595e-08
-4.78065485268e-10
2.62013600113e-10
-2.13202502397e-08
-4.19622668933e-10
2.30463138035e-10
-2.05314690421e-08
-3.53662243198e-10
1.37677598042e-10
-1.95914268924e-08
-2.86070888288e-10
-1.85846344581e-08
-2.2290363981e-10
6.12954657621e-12
-2.3551491459e-10
-2.56143376732e-08
-1.40530542658e-09
7.48314713359e-14
-3.83565105208e-10
-2.69487342488e-08
-1.65743588468e-09
-4.42408876325e-10
-2.81661212997e-08
-1.90977864142e-09
-4.25390731514e-10
-2.91736070967e-08
-2.14463283372e-09
-3.47473170822e-10
-2.99620575457e-08
-2.34594919125e-09
-2.24011167627e-10
-3.05307665173e-08
-2.50045964374e-09
-7.22452070636e-11
-3.0884728983e-08
-2.59849218711e-09
8.8821490085e-11
-3.10165314557e-08
-2.63306561101e-09
2.40216537607e-10
-3.08843577267e-08
-2.5982165715e-09
3.62953117241e-10
-3.0530064236e-08
-2.49991320835e-09
4.39828596436e-10
-2.99611027829e-08
-2.34514741202e-09
4.55544166228e-10
-2.91725033404e-08
-2.1436025508e-09
3.95206376366e-10
-2.81649844746e-08
-1.90856456567e-09
2.4554088003e-10
-2.69476310676e-08
-1.65611399117e-09
-2.56135580498e-08
-1.40400218456e-09
8.54703822931e-12
-3.3929581444e-10
-3.06595204668e-08
-2.83254310645e-09
3.14311180152e-14
-5.43682677576e-10
-3.21730420287e-08
-3.27850245001e-09
-6.33114321732e-10
-3.35101248126e-08
-3.71141754836e-09
-6.16483034256e-10
-3.46042673281e-08
-4.10536911844e-09
-5.09256357523e-10
-3.5452363981e-08
-4.43737215735e-09
-3.31759863741e-10
-3.60603918087e-08
-4.6890293058e-09
-1.09901212562e-10
-3.6438063047e-08
-4.84751967604e-09
1.26682068621e-10
-3.65792932314e-08
-4.9033922344e-09
3.48236333243e-10
-3.64376603074e-08
-4.84722597876e-09
5.25129145667e-10
-3.60596281797e-08
-4.6884462217e-09
6.31469330853e-10
-3.54513223161e-08
-4.43651344935e-09
6.46959409319e-10
-3.46030572045e-08
-4.10425885457e-09
5.56168656161e-10
-3.35088626288e-08
-3.71009819828e-09
3.50261140263e-10
-3.21717903071e-08
-3.27705066584e-09
-3.06585463916e-08
-2.83109368865e-09
9.41393223592e-12
-4.32891117197e-10
-3.38089238902e-08
-4.18169659778e-09
-2.90956939717e-15
-6.93650087575e-10
-3.53846955258e-08
-4.77990649724e-09
-8.12709091212e-10
-3.67307912844e-08
-5.34746337558e-09
-7.96624915504e-10
-3.78231944398e-08
-5.85572603157e-09
-6.61768928887e-10
-3.86648607233e-08
-6.27901574988e-09
-4.33514164609e-10
-3.92664433531e-08
-6.59713867412e-09
-1.46004025933e-10
-3.96400182118e-08
-6.79647714518e-09
1.6125224974e-10
-3.97803176418e-08
-6.86672430825e-09
4.48538882838e-10
-3.96396486304e-08
-6.7962028009e-09
6.76341136832e-10
-3.92657476356e-08
-6.59658370128e-09
8.10517062823e-10
-3.86639137578e-08
-6.2781908288e-09
8.25699972298e-10
-3.78220941552e-08
-5.85465143881e-09
7.05529477999e-10
-3.67296325073e-08
-5.34617626357e-09
4.43493636301e-10
-3.53835290853e-08
-4.77847703569e-09
-3.38079167474e-08
-4.18025407087e-09
9.17773149762e-12
-5.12759126236e-10
-3.53293688598e-08
-5.27776351428e-09
-3.12827991192e-14
-8.28478935442e-10
-3.68861077783e-08
-5.98031128652e-09
-9.74789458413e-10
-3.8177657224e-08
-6.63634985216e-09
-9.58704918399e-10
-3.92191784558e-08
-7.21784250806e-09
-7.98408839723e-10
-4.00193541765e-08
-7.69866531805e-09
-5.24434381343e-10
-4.05908941893e-08
-8.05823807472e-09
-1.78355164833e-10
-4.09460639915e-08
-8.28288410495e-09
1.9176415159e-10
-4.10798497818e-08
-8.36200280203e-09
5.37673215224e-10
-4.09457690648e-08
-8.28262465732e-09
8.11297302365e-10
-4.05903435084e-08
-8.05771385975e-09
9.71058290962e-10
-4.00186090807e-08
-7.69788669564e-09
9.86420359112e-10
-3.92183171649e-08
-7.21682844026e-09
8.39200007673e-10
-3.81767451696e-08
-6.63513413204e-09
5.22424762833e-10
-3.68851823584e-08
-5.97895806344e-09
-3.5328468817e-08
-5.27639359059e-09
8.41891709782e-12
-5.80220078151e-10
-3.553214457e-08
-6.07495566713e-09
-5.31933460358e-14
-9.47760502001e-10
-3.70142431527e-08
-6.8468925852e-09
-1.11872880274e-09
-3.82177486087e-08
-7.56080665932e-09
-1.10223364475e-09
-3.91825769397e-08
-8.19001327418e-09
-9.18888299207e-10
-3.99233734026e-08
-8.70839636823e-09
-6.04304909958e-10
-4.04528584527e-08
-9.09511358022e-09
-2.06672256092e-10
-4.07821614796e-08
-9.33631507072e-09
2.18620989851e-10
-4.09063246037e-08
-9.42115768863e-09
6.16105843011e-10
-4.07819536249e-08
-9.3360680639e-09
9.30382784001e-10
-4.04524752934e-08
-9.09461574888e-09
1.1132587034e-09
-3.99228617347e-08
-8.70765909024e-09
1.12911835948e-09
-3.9181994002e-08
-8.18905615144e-09
9.57349705571e-10
-3.82171316647e-08
-7.55966256402e-09
5.88887280677e-10
-3.70136194959e-08
-6.8456222482e-09
-3.55314385344e-08
-6.07367252177e-09
7.56651279521e-12
-6.38908158307e-10
-3.47022057624e-08
-6.59597342928e-09
-6.83934025922e-14
-1.05411733719e-09
-3.60701628591e-08
-7.4165666701e-09
-1.24748801872e-09
-3.71671488875e-08
-8.17143730252e-09
-1.23037502818e-09
-3.80409855982e-08
-8.83479727859e-09
-1.02609144457e-09
-3.87125937636e-08
-9.3803425191e-09
-6.7512401124e-10
-3.91932843938e-08
-9.78681706806e-09
-2.31623119708e-10
-3.94923548825e-08
-1.00400176893e-08
2.42646718092e-10
-3.96049764179e-08
-1.01288817404e-08
6.86001227777e-10
-3.94922287541e-08
-1.00397796431e-08
1.03666599637e-09
-3.9193057464e-08
-9.78633875639e-09
1.24048902107e-09
-3.87122990968e-08
-9.3796368696e-09
1.25698379329e-09
-3.80406611934e-08
-8.83388545451e-09
1.06284509309e-09
-3.71668091005e-08
-8.17035273243e-09
6.46763724268e-10
-3.60698268119e-08
-7.41536874946e-09
-3.47017217981e-08
-6.59477005743e-09
6.8420433604e-12
-6.92473552422e-10
-3.30772718703e-08
-6.88440113792e-09
-7.78088912194e-14
-1.15110086011e-09
-3.43024152234e-08
-7.74194469939e-09
-1.36511230502e-09
-3.52813494743e-08
-8.52833969673e-09
-1.34718408896e-09
-3.60560459371e-08
-9.21813863417e-09
-1.1234888879e-09
-3.66530653228e-08
-9.78471288571e-09
-7.39231455026e-10
-3.70811783477e-08
-1.02064210544e-08
-2.54055318759e-10
-3.73474440774e-08
-1.0468727959e-08
2.64611985635e-10
-3.74473430019e-08
-1.05604892282e-08
7.496322145e-10
-3.73473849095e-08
-1.04684970387e-08
1.13356966944e-09
-3.70810783133e-08
-1.02059584693e-08
1.35678239671e-09
-3.66529453798e-08
-9.78403311218e-09
1.37407036721e-09
-3.60559270676e-08
-9.21726452514e-09
1.15927605904e-09
-3.5281229115e-08
-8.52730569388e-09
6.99770356392e-10
-3.43023044878e-08
-7.74080983555e-09
-3.3076985223e-08
-6.88326864102e-09
6.31552485276e-12
-7.43572788327e-10
-3.08511945512e-08
-6.98144905474e-09
-8.2681277334e-14
-1.24204329091e-09
-3.19134150548e-08
-7.86848428689e-09
-1.47543681447e-09
-3.27668786487e-08
-8.67997427261e-09
-1.45630245792e-09
-3.34391022534e-08
-9.39052788908e-09
-1.21400814615e-09
-3.39597719646e-08
-9.97328813786e-09
-7.98526198082e-10
-3.43340256618e-08
-1.04064750366e-08
-2.74665253907e-10
-3.45664611371e-08
-1.06754164461e-08
2.85080014251e-10
-3.46530936485e-08
-1.07691083795e-08
8.08770928605e-10
-3.45664491462e-08
-1.06751927361e-08
1.22390672466e-09
-3.43340137255e-08
-1.04060281655e-08
1.46568365872e-09
-3.39597707826e-08
-9.97263391044e-09
1.48413851954e-09
-3.34391185847e-08
-9.38969060054e-09
1.24992468477e-09
-3.27668975061e-08
-8.67898923048e-09
7.50540014787e-10
-3.19134387606e-08
-7.86741025337e-09
-3.08510381627e-08
-6.98038441459e-09
5.97818841708e-12
-7.93780269067e-10
-2.81842234984e-08
-6.91914322577e-09
-8.44561807949e-14
-1.32990401194e-09
-2.90705601714e-08
-7.82981697043e-09
-1.58186781757e-09
-2.97952159462e-08
-8.66094226837e-09
-1.56069512177e-09
-3.03668118706e-08
-9.38709311264e-09
-1.29981754404e-09
-3.08131093699e-08
-9.98145257948e-09
-8.5432958259e-10
-3.11346552627e-08
-1.0422482417e-08
-2.9393181067e-10
-3.13337109894e-08
-1.06956523506e-08
3.04411204603e-10
-3.14071292574e-08
-1.07903468907e-08
8.64623407712e-10
-3.13337231527e-08
-1.06954373744e-08
1.30973644833e-09
-3.11346866379e-08
-1.0422054144e-08
1.5700581103e-09
-3.08131626834e-08
-9.98082788931e-09
1.59050748358e-09
-3.03668826601e-08
-9.38629737758e-09
1.33767856656e-09
-2.97952802994e-08
-8.66001122955e-09
8.00593539011e-10
-2.90706103014e-08
-7.82880865395e-09
-2.8184097713e-08
-6.91815041268e-09
5.79221790834e-12
-8.43927332764e-10
-2.52124487385e-08
-6.72080925036e-09
-8.40076076057e-14
-1.41784369174e-09
-2.59149125406e-08
-7.64994927004e-09
-1.68761729079e-09
-2.65133123593e-08
-8.4957206441e-09
-1.66261591554e-09
-2.69920717258e-08
-9.23255260683e-09
-1.3822674438e-09
-2.73695283374e-08
-9.83405470967e-09
-9.07363291177e-10
-2.76415843648e-08
-1.027938279e-08
-3.12109558849e-10
-2.78089537066e-08
-1.05544478255e-08
3.22771997591e-10
-2.78697178989e-08
-1.06492577091e-08
9.17824465159e-10
-2.78089643079e-08
-1.05542440106e-08
1.39232492383e-09
-2.76416089545e-08
-1.02789778515e-08
1.67207938899e-09
-2.7369564816e-08
-9.83346636606e-09
1.69631497235e-09
-2.69921083195e-08
-9.231806947e-09
1.4256327449e-09
-2.6513319252e-08
-8.49485326437e-09
8.50707789807e-10
-2.59148701081e-08
-7.6490165632e-09
-2.52122302466e-08
-6.71989745362e-09
5.71419827849e-12
-8.96614418297e-10
-2.20523010865e-08
-6.40350587527e-09
-8.28142640128e-14
-1.51149558792e-09
-2.25666470266e-08
-7.34673519319e-09
-1.79605675152e-09
-2.30519261345e-08
-8.20276388077e-09
-1.76323138397e-09
-2.34512114632e-08
-8.94567835917e-09
-1.46152411648e-09
-2.37674713228e-08
-9.55010263659e-09
-9.57548231362e-10
-2.39943623878e-08
-9.99639042121e-09
-3.29169286162e-10
-2.41325284806e-08
-1.02711728975e-08
3.4007092597e-10
-2.41815697837e-08
-1.03652794861e-08
9.68233305018e-10
-2.41325088532e-08
-1.02709831438e-08
1.47177737755e-09
-2.39943249558e-08
-9.99601453223e-09
1.77285411566e-09
-2.37674123864e-08
-9.54955897276e-09
1.80487458861e-09
-2.34511174573e-08
-8.94499340456e-09
1.51936727865e-09
-2.30517656666e-08
-8.20197243636e-09
9.03438026913e-10
-2.25663878872e-08
-7.34589059882e-09
-2.20518476181e-08
-6.40268648976e-09
5.70609343788e-12
-9.67443861874e-10
-1.87916306085e-08
-5.98021149952e-09
-8.1803646493e-14
-1.62396308914e-09
-1.91337578779e-08
-6.93485419281e-09
-1.91195849683e-09
-1.95347991767e-08
-7.79741901047e-09
-1.86360138106e-09
-1.98686424681e-08
-8.54210173761e-09
-1.53767811111e-09
-2.01304136091e-08
-9.14553360347e-09
-1.00486272655e-09
-2.0316407127e-08
-9.5897476665e-09
-3.45119478698e-10
-2.04282758851e-08
-9.86229809669e-09
3.56272609653e-10
-2.046680251e-08
-9.95497579316e-09
1.01578455677e-09
-2.0428194991e-08
-9.86212536648e-09
1.54814129028e-09
-2.03162471601e-08
-9.58940669296e-09
1.87339900937e-09
-2.01301728699e-08
-9.14504319348e-09
1.92091483614e-09
-1.98683118507e-08
-8.54148859344e-09
1.63194216264e-09
-1.95343543212e-08
-7.79671664006e-09
9.74350572843e-10
-1.91331590077e-08
-6.93411102826e-09
-1.87907965316e-08
-5.97949543247e-09
5.74674470964e-12
-1.10777869802e-09
-5.45951550141e-09
-8.00858286605e-14
-1.54583337292e-08
-1.78022357382e-09
-6.42664056169e-09
-1.57382911062e-08
-2.05339498406e-09
-7.29195783425e-09
-1.60803073762e-08
-1.9810616479e-09
-8.03465431695e-09
-1.63566800916e-08
-1.62605298983e-09
-8.63405867065e-09
-1.65701307811e-08
-1.0598195382e-09
-9.07400028017e-09
-1.67214032767e-08
-3.6369550618e-10
-9.34294759112e-09
-1.68116872218e-08
3.75085516048e-10
-9.43368415041e-09
-1.68416426055e-08
1.07096471874e-09
-9.34279410201e-09
-1.68115124747e-08
1.63671409142e-09
-9.07369863293e-09
-1.67210567942e-08
1.99102261836e-09
-8.63362788312e-09
-1.65696153379e-08
2.06247617556e-09
-8.03412130128e-09
-1.63559963953e-08
1.78829425883e-09
-7.29135482057e-09
-1.60794472905e-08
1.11476389468e-09
-6.42601281196e-09
-1.57372263149e-08
-5.45890683234e-09
5.78859757609e-12
-1.54569756568e-08
-2.61223215041e-11
1.16241979147e-09
-8.58536602008e-10
-3.70266052897e-14
-4.1171458319e-11
1.28226528042e-09
-9.5424510521e-10
-4.7034522616e-11
1.39736899965e-09
-1.04501430337e-09
-4.60543874021e-11
1.50238952533e-09
-1.12676048256e-09
-3.85361834297e-11
1.58968961635e-09
-1.19528159092e-09
-2.56745139619e-11
1.65535053826e-09
-1.24708802604e-09
-9.24372398283e-12
1.69666437282e-09
-1.2798363234e-09
8.46287396089e-12
1.71149303429e-09
-1.29160104766e-09
2.49101820103e-11
1.69671346584e-09
-1.27982200008e-09
3.78074921017e-11
1.65544803213e-09
-1.24705951942e-09
4.53841773915e-11
1.58983550625e-09
-1.19524004779e-09
4.64481499215e-11
1.50257813236e-09
-1.12670793421e-09
4.06889116117e-11
1.39758536915e-09
-1.04495430586e-09
2.57461187462e-11
1.28250129222e-09
-9.54184929402e-10
1.1626429264e-09
-8.58493300601e-10
-3.19716027265e-13
-3.97661705624e-11
3.15918737531e-09
-2.18090871368e-09
-2.39737880164e-14
-6.14840659599e-11
3.43341496433e-09
-2.41659047826e-09
-7.02657374972e-11
3.69030644849e-09
-2.63884294906e-09
-6.8409381444e-11
3.917998239e-09
-2.83796762949e-09
-5.71189716492e-11
4.10385728423e-09
-3.004212688e-09
-3.81459615249e-11
4.24143689223e-09
-3.12954434097e-09
-1.4065326629e-11
4.32734452549e-09
-3.20862369515e-09
1.18900011557e-11
4.35833898146e-09
-3.23699443182e-09
3.6022583592e-11
4.32751545856e-09
-3.20858606117e-09
5.51003358391e-11
4.24177719066e-09
-3.12946804323e-09
6.65475961409e-11
4.10436637282e-09
-3.00410068037e-09
6.86100691655e-11
3.91866314418e-09
-2.83782525693e-09
6.00720056156e-11
3.69108769265e-09
-2.6386797173e-09
3.86099649061e-11
3.43426780293e-09
-2.41642601819e-09
3.16003022e-09
-2.18078292966e-09
-9.45204224247e-13
-3.08565233394e-11
5.03651164408e-09
-3.25176302106e-09
-1.01393594147e-13
-4.49002884467e-11
5.39264032963e-09
-3.60273694345e-09
-5.06680854517e-11
5.71877416866e-09
-3.93260493854e-09
-4.90271066734e-11
5.99895491708e-09
-4.22734054408e-09
-4.10377467354e-11
6.22272292045e-09
-4.47289174791e-09
-2.77816131748e-11
6.38536509473e-09
-4.65771563656e-09
-1.09389566045e-11
6.48608116698e-09
-4.77413512893e-09
7.31831402634e-12
6.52274141544e-09
-4.81578495015e-09
2.42459290607e-11
6.48638990585e-09
-4.77407547862e-09
3.76758694589e-11
6.38597431363e-09
-4.65759473864e-09
4.59293411323e-11
6.22362728317e-09
-4.47271414887e-09
4.79213797492e-11
6.00013258349e-09
-4.22711461434e-09
4.25701287169e-11
5.72017097557e-09
-3.93234535602e-09
2.89686238014e-11
5.39418169462e-09
-3.60247270704e-09
5.03809201155e-09
-3.25155052545e-09
-1.58776226577e-12
-1.10148395144e-11
6.36438112962e-09
-4.14933352293e-09
-1.50092989693e-13
-1.18219668435e-11
6.71587421472e-09
-4.60103699112e-09
-1.24763613706e-11
7.03214272616e-09
-5.02424362218e-09
-1.21704650429e-11
7.2946540835e-09
-5.40147121093e-09
-1.08227035123e-11
7.49909841171e-09
-5.7151743914e-09
-8.2406280236e-12
7.64465415504e-09
-5.95096653267e-09
-4.5616050962e-12
7.73407909291e-09
-6.09925581806e-09
-2.66980299638e-13
7.76715280705e-09
-6.15215360967e-09
3.52227101224e-12
7.73449791541e-09
-6.09917585092e-09
6.33063188477e-12
7.64547531264e-09
-5.95080591556e-09
8.02176069376e-12
7.50031295402e-09
-5.71493866769e-09
8.78296496091e-12
7.29623722367e-09
-5.4011714358e-09
8.67040301456e-12
7.03403883366e-09
-5.02389845106e-09
8.44598242631e-12
6.71799443189e-09
-4.6006812901e-09
6.36661842782e-09
-4.14903327942e-09
-2.17962601338e-12
1.22950751952e-11
7.05117688787e-09
-4.88068262605e-09
-1.83079536962e-13
2.42585380924e-11
7.34358288545e-09
-5.41967491602e-09
2.8234484054e-11
7.60381744e-09
-5.92321171611e-09
2.64821635178e-11
7.81171957947e-09
-6.37112476995e-09
2.05421902152e-11
7.96900967375e-09
-6.74305779688e-09
1.19613937955e-11
8.07834431895e-09
-7.02230830731e-09
2.12523652006e-12
8.14506791149e-09
-7.19768415342e-09
-7.8590405623e-12
8.17041672902e-09
-7.26005486186e-09
-1.75726246801e-11
8.14553504249e-09
-7.19757467239e-09
-2.5896542112e-11
8.07926965358e-09
-7.02210038274e-09
-3.14460188638e-11
7.97038677436e-09
-6.74275964702e-09
-3.26803217054e-11
7.81352751535e-09
-6.37075030373e-09
-2.80841468075e-11
7.60600823243e-09
-5.92278289015e-09
-1.54447118357e-11
7.34606934689e-09
-5.41922999944e-09
7.05386745356e-09
-4.88029496165e-09
-2.68862655535e-12
3.48405395266e-11
7.1943031182e-09
-5.45559832879e-09
-2.0521285182e-13
5.70177317989e-11
7.41123146549e-09
-6.07022173728e-09
6.45040401929e-11
7.60286780481e-09
-6.64297236505e-09
6.05525066507e-11
7.7493113732e-09
-7.15155893747e-09
4.80247205721e-11
7.85615723194e-09
-7.57334944965e-09
2.9629039068e-11
7.92818069507e-09
-7.88973466693e-09
8.02992292831e-12
7.97189445199e-09
-8.08816231852e-09
-1.43545182058e-11
7.98925885764e-09
-8.15850801989e-09
-3.5826760564e-11
7.97237306147e-09
-8.08803554085e-09
-5.39545559811e-11
7.92913355361e-09
-7.88949305276e-09
-6.60739397202e-11
7.85758088351e-09
-7.57300289421e-09
-6.94821338123e-11
7.75119100668e-09
-7.15112366969e-09
-6.13400661352e-11
7.60516685048e-09
-6.64247288335e-09
-3.84389361206e-11
7.41387358761e-09
-6.06969886443e-09
7.19722074134e-09
-5.45512917804e-09
-3.08963384456e-12
5.44653179006e-11
6.95003690979e-09
-5.88500293976e-09
-2.19002864337e-13
8.43795387308e-11
7.09950784488e-09
-6.56515699092e-09
9.44355101798e-11
7.22940690332e-09
-7.197477109e-09
8.85206486784e-11
7.32315301197e-09
-7.75800738777e-09
7.05343026739e-11
7.38799550351e-09
-8.22230635685e-09
4.41073642234e-11
7.42968014859e-09
-8.57023728797e-09
1.29221041377e-11
7.45484518736e-09
-8.78812745102e-09
-1.9562401689e-11
7.46564563379e-09
-8.86510398948e-09
-5.06225099745e-11
7.45530876279e-09
-8.78798543751e-09
-7.67843122536e-11
7.43060544438e-09
-8.56996580567e-09
-9.43653755679e-11
7.38938126469e-09
-8.22191685511e-09
-9.97391094071e-11
7.32498980755e-09
-7.75751813693e-09
-8.90245689086e-11
7.23166945094e-09
-7.19691468408e-09
-5.83743082741e-11
7.10213285357e-09
-6.56456437485e-09
6.95298086104e-09
-5.88445963073e-09
-3.37744505196e-12
7.032657179e-11
6.462766006e-09
-6.17886331978e-09
-2.26106021317e-13
1.06208490806e-10
6.56234178416e-09
-6.91534713972e-09
1.18198803478e-10
6.64425455618e-09
-7.59834094465e-09
1.10685674386e-10
6.69847554897e-09
-8.20266642506e-09
8.83601063532e-11
6.73246323623e-09
-8.70253741729e-09
5.55875981777e-11
6.75227959443e-09
-9.07669131284e-09
1.68467917184e-11
6.76413252507e-09
-9.31060789705e-09
-2.35964911992e-11
6.7700954407e-09
-9.39292934994e-09
-6.22173229574e-11
6.76456416801e-09
-9.3104531982e-09
-9.47350795535e-11
6.75314192951e-09
-9.07639480792e-09
-1.16670491825e-10
6.73375579482e-09
-8.70211190717e-09
-1.23661002052e-10
6.7001923045e-09
-8.20213186856e-09
-1.11030104218e-10
6.64637889015e-09
-7.59772557188e-09
-7.44237680086e-11
6.56482363168e-09
-6.9146958476e-09
6.46557864904e-09
-6.17825691155e-09
-3.5628215938e-12
8.2370151755e-11
5.8415137826e-09
-6.34534550093e-09
-2.28237033384e-13
1.23045738097e-10
5.90902135944e-09
-7.12935593576e-09
1.36562343611e-10
5.95677617115e-09
-7.85443480908e-09
1.27825034521e-10
5.98365560959e-09
-8.49463408902e-09
1.02138755491e-10
5.99667963513e-09
-9.02329037327e-09
6.44705003314e-11
6.00191738182e-09
-9.41843384421e-09
1.99180071561e-11
6.00490931944e-09
-9.66499254525e-09
-2.66434095302e-11
6.00752654423e-09
-9.75139696314e-09
-7.10822129963e-11
6.00529795779e-09
-9.6648282253e-09
-1.08508870662e-10
6.00269365761e-09
-9.41811824944e-09
-1.33824939021e-10
5.99784278774e-09
-9.02283742748e-09
-1.42065282128e-10
5.98520130981e-09
-8.49406508319e-09
-1.27936122486e-10
5.95869338732e-09
-7.85377925626e-09
-8.65607494951e-11
5.91127115558e-09
-7.12866041777e-09
5.84408059968e-09
-6.34469100124e-09
-3.66593321746e-12
9.09976818342e-11
5.16033711259e-09
-6.39109284621e-09
-2.26455120853e-13
1.35622681695e-10
5.20991788625e-09
-7.21405405334e-09
1.50403375702e-10
5.23485570844e-09
-7.97288358379e-09
1.40797380583e-10
5.24396739614e-09
-8.64127993167e-09
1.12578437945e-10
5.24370450538e-09
-9.19213669889e-09
7.12105274616e-11
5.23995647009e-09
-9.60318572656e-09
2.2273417929e-11
5.23749273159e-09
-9.859099962e-09
-2.89021285908e-11
5.23792460716e-09
-9.94836611609e-09
-7.77314731701e-11
5.23783043759e-09
-9.85892952111e-09
-1.18870666002e-10
5.24063037782e-09
-9.60285790963e-09
-1.46739420396e-10
5.24471292256e-09
-9.19166635063e-09
-1.55875096701e-10
5.24530615729e-09
-8.64068936545e-09
-1.40512352305e-10
5.23651700815e-09
-7.97220325029e-09
-9.52165638155e-11
5.21187164661e-09
-7.2133319108e-09
5.16257435169e-09
-6.39040877035e-09
-3.70976881766e-12
9.68195101021e-11
4.46649235923e-09
-6.32194072545e-09
-2.22206620174e-13
1.44720594394e-10
4.50775803069e-09
-7.17559952958e-09
1.60633026554e-10
4.51826304612e-09
-7.96030432441e-09
1.50513053844e-10
4.51663312196e-09
-8.64967935182e-09
1.20450903306e-10
4.50881526887e-09
-9.21653921412e-09
7.63158848971e-11
4.50027665141e-09
-9.63870354656e-09
2.40767476835e-11
4.49492291373e-09
-9.90087742935e-09
-3.05806396942e-11
4.49405982755e-09
-9.99185731141e-09
-8.27169238387e-11
4.49520307045e-09
-9.90070471039e-09
-1.26634372171e-10
4.50083482013e-09
-9.63837110984e-09
-1.56364169158e-10
4.50964877994e-09
-9.21606266464e-09
-1.66038090344e-10
4.51773719125e-09
-8.64908176232e-09
-1.49572140424e-10
4.51963118821e-09
-7.95961673453e-09
-1.01028314985e-10
4.50936665206e-09
-7.1748708096e-09
4.46833785019e-09
-6.32124831918e-09
-3.71542753221e-12
1.00449678342e-10
3.78896827629e-09
-6.14355905298e-09
-2.16137519237e-13
1.51163872395e-10
3.82731485807e-09
-7.02025585644e-09
1.68302218467e-10
3.82910929441e-09
-7.82374147797e-09
1.58062082233e-10
3.82185753249e-09
-8.52757217999e-09
1.26689862441e-10
3.81088820955e-09
-9.10478915141e-09
8.04061174948e-11
3.80083283855e-09
-9.53368729456e-09
2.55359033626e-11
3.7946015303e-09
-9.79928720146e-09
-3.19145649448e-11
3.79315433767e-09
-9.8909311024e-09
-8.66857001694e-11
3.79481795223e-09
-9.79911632346e-09
-1.32760779886e-10
3.80126337916e-09
-9.53335842356e-09
-1.63815414924e-10
3.81152908969e-09
-9.10431853679e-09
-1.736301262e-10
3.82270331868e-09
-8.52698341336e-09
-1.55963076092e-10
3.83015343057e-09
-7.82306574092e-09
-1.04630427849e-10
3.82853844015e-09
-7.01954216871e-09
3.79037185399e-09
-6.14288121992e-09
-3.70035969416e-12
1.02514331033e-10
3.14494713217e-09
-5.86182595306e-09
-2.09362881177e-13
1.5617904974e-10
3.18186602089e-09
-6.75498171281e-09
1.75050227287e-10
3.17871702016e-09
-7.57127405456e-09
1.65080358543e-10
3.16996518019e-09
-8.28384651343e-09
1.32632712113e-10
3.15957099163e-09
-8.86636744552e-09
8.43429698848e-11
3.15076010638e-09
-9.29805680734e-09
2.69436575295e-11
3.1453351737e-09
-9.56453458396e-09
-3.32106709685e-11
3.14390264606e-09
-9.65590039181e-09
-9.05132855083e-11
3.14548204854e-09
-9.56436985675e-09
-1.38601017914e-10
3.15105140964e-09
-9.29774008901e-09
-1.70742398925e-10
3.16000290529e-09
-8.86591554886e-09
-1.80303612311e-10
3.17053151406e-09
-8.2832833495e-09
-1.60924651634e-10
3.17941116647e-09
-7.57063032543e-09
-1.06662475276e-10
3.1826714253e-09
-6.75430520083e-09
3.14586821952e-09
-5.86118555687e-09
-3.67739481814e-12
1.04002799593e-10
2.5438378671e-09
-5.48293615937e-09
-2.0302988883e-13
1.62159123998e-10
2.57693002219e-09
-6.38810109828e-09
1.83800350385e-10
2.57209805883e-09
-7.212467925e-09
1.74226925981e-10
2.56608774883e-09
-7.92867787966e-09
1.40327822525e-10
2.55982296027e-09
-8.51191276572e-09
8.94095970046e-11
2.55474093558e-09
-8.94283565039e-09
2.87350888053e-11
2.55159796751e-09
-9.20791142934e-09
-3.49075504867e-11
2.55070739113e-09
-9.29816144137e-09
-9.54863625359e-11
2.55166922717e-09
-9.20775718488e-09
-1.46206131067e-10
2.55488181429e-09
-8.94253970496e-09
-1.79806355764e-10
2.56003020624e-09
-8.5114924689e-09
-1.88983066472e-10
2.56635609097e-09
-7.92815741259e-09
-1.66851743943e-10
2.57242070488e-09
-7.21187691541e-09
-1.08117793479e-10
2.57729270236e-09
-6.38748368045e-09
2.54424754514e-09
-5.48235412492e-09
-3.65435922687e-12
9.99051613373e-11
-5.01607556209e-09
-1.96487134631e-13
2.00065750273e-09
1.70727204477e-10
-5.93300744311e-09
2.01245109615e-09
1.97251773298e-10
-6.75994764275e-09
2.01353921186e-09
1.88203293572e-10
-7.47410230157e-09
2.01456070092e-09
1.52124438698e-10
-8.05320654154e-09
2.01502603199e-09
9.72225160271e-11
-8.47973879839e-09
2.01535815467e-09
3.14882315677e-11
-8.74114045411e-09
2.01550305058e-09
-3.75803386263e-11
-8.82945517765e-09
2.01552544223e-09
-1.03217319078e-10
-8.74100058787e-09
2.01549235798e-09
-1.57919903654e-10
-8.47947128012e-09
2.01533634653e-09
-1.93700721462e-10
-8.05282916809e-09
2.0149921493e-09
-2.02357574587e-10
-7.47363973417e-09
2.01451207531e-09
-1.75354163884e-10
-6.75942830123e-09
2.01347287918e-09
-1.03974573773e-10
-5.93247266418e-09
2.01235632434e-09
-5.01556537335e-09
-3.61811340637e-12
2.00053418e-09
1.95061076093e-11
-2.29703178431e-10
-6.4835243709e-10
-3.50493031754e-14
3.09173749539e-11
-2.55092784237e-10
-7.10621368372e-10
3.62369835007e-11
-2.81589356184e-10
-7.68811106563e-10
3.57561008819e-11
-3.05686504922e-10
-8.20648206617e-10
2.99551553809e-11
-3.25823437377e-10
-8.63712236055e-10
1.98287020319e-11
-3.40963645243e-10
-8.96050332051e-10
6.83959048048e-12
-3.50473584118e-10
-9.16419864685e-10
-7.17681626745e-12
-3.53857860576e-10
-9.23766086207e-10
-2.01512393955e-11
-3.50472576546e-10
-9.16409124766e-10
-3.02503031802e-11
-3.40962252392e-10
-8.96028801382e-10
-3.60159608609e-11
-3.25822167343e-10
-8.63680311678e-10
-3.64593131029e-11
-3.05684152752e-10
-8.20606882272e-10
-3.1096768571e-11
-2.8157921089e-10
-7.68762743481e-10
-1.96462734027e-11
-2.55087078208e-10
-7.1057220638e-10
-2.29699898674e-10
-6.48318792952e-10
-1.43375474635e-13
4.3400153658e-11
-4.97068296691e-10
-1.956961003e-09
-6.11321212359e-14
7.08438118184e-11
-5.45059345705e-10
-2.15416263387e-09
8.3777518807e-11
-5.94296494783e-10
-2.33916886636e-09
8.29021207815e-11
-6.38507715708e-10
-2.50436130402e-09
6.95044864942e-11
-6.74838861819e-10
-2.64188696585e-09
4.60207043149e-11
-7.01776404146e-10
-2.74532923301e-09
1.59031880873e-11
-7.18568996377e-10
-2.81048245562e-09
-1.65840965438e-11
-7.24564460733e-10
-2.83386239524e-09
-4.66775211717e-11
-7.18566841177e-10
-2.81045262679e-09
-7.01163553335e-11
-7.01771437612e-10
-2.74526884722e-09
-8.34542472995e-11
-6.74833126842e-10
-2.64179687554e-09
-8.42613977068e-11
-6.38500443934e-10
-2.50424411693e-09
-7.12517553958e-11
-5.94277302683e-10
-2.33903130941e-09
-4.37362463123e-11
-5.45043850665e-10
-2.15402234414e-09
-4.97059256441e-10
-1.95685730375e-09
-3.37148280524e-13
5.56360269782e-11
-6.91003367762e-10
-3.1134304235e-09
-1.04496142824e-13
9.19539668402e-11
-7.497636188e-10
-3.43443733855e-09
1.09112278584e-10
-8.08922478856e-10
-3.7352256158e-09
1.07969063873e-10
-8.61326598894e-10
-4.0034608946e-09
9.04214281711e-11
-9.03692926054e-10
-4.22656928417e-09
5.97961016329e-11
-9.34666966004e-10
-4.3942737397e-09
2.063654693e-11
-9.53814894445e-10
-4.4997951743e-09
-2.15568686473e-11
-9.60665901864e-10
-4.53754704077e-09
-6.06830977832e-11
-9.53821054577e-10
-4.49974529533e-09
-9.12461628015e-11
-9.34674911558e-10
-4.39417362304e-09
-1.08711427265e-10
-9.03703087503e-10
-4.22642091005e-09
-1.09760278062e-10
-8.6133651994e-10
-4.00326916096e-09
-9.24974935539e-11
-8.08921134525e-10
-3.73500160748e-09
-5.60772523211e-11
-7.49764285088e-10
-3.43420741707e-09
-6.91011911344e-10
-3.11325016493e-09
-4.57073057959e-13
6.00131239397e-11
-8.19593255144e-10
-4.08069349837e-09
-1.29107358756e-13
9.99361877891e-11
-8.81147338339e-10
-4.50965195832e-09
1.18896248503e-10
-9.41498409672e-10
-4.91070591423e-09
1.17647375406e-10
-9.93892320566e-10
-5.26773130716e-09
9.84380686615e-11
-1.03541537777e-09
-5.56431371055e-09
6.5037034633e-11
-1.06526319709e-09
-5.78703502185e-09
2.24383130537e-11
-1.08352996309e-09
-5.92700072088e-09
-2.3418578189e-11
-1.09008501218e-09
-5.97692943498e-09
-6.59827384816e-11
-1.08354700796e-09
-5.92693199413e-09
-9.93199013839e-11
-1.06528801793e-09
-5.78689779023e-09
-1.18444262247e-10
-1.03544543217e-09
-5.56411113554e-09
-1.19594852086e-10
-9.93923781665e-10
-5.26747048852e-09
-1.00525416369e-10
-9.41522308894e-10
-4.91040154718e-09
-6.04936469193e-11
-8.81173448258e-10
-4.50933623743e-09
-8.19625442393e-10
-4.08043123737e-09
-5.11418241746e-13
5.93427664657e-11
-8.88773270996e-10
-4.8707629133e-09
-1.42157102401e-13
9.94377263963e-11
-9.47499573495e-10
-5.39348206083e-09
1.18584946571e-10
-1.00298819148e-09
-5.88093767297e-09
1.173760064e-10
-1.04982571325e-09
-6.31404794474e-09