/*--------------------------------*- C++ -*----------------------------------*\
  =========                 |
  \\      /  F ield         | OpenFOAM: The Open Source CFD Toolbox
   \\    /   O peration     | Website:  https://openfoam.org
    \\  /    A nd           | Version:  7
     \\/     M anipulation  |
\*---------------------------------------------------------------------------*/
FoamFile
{
    version     2.0;
    format      ascii;
    class       surfaceScalarField;
    location    "0.18";
    object      phi;
}
// * * * * * * * * * * * * * * * * * * * * * * * * * * * * * * * * * * * * * //

dimensions      [0 3 -1 0 0 0 0];

internalField   nonuniform List<scalar> 
65775
(
-2.29414774203e-11
-4.59810416954e-09
-1.36026990697e-10
-2.01317524264e-13
-4.05886526656e-11
-4.83678353231e-09
-1.49351251919e-10
-4.9120820659e-11
-5.05447103376e-09
-1.62434385394e-10
-4.81848598135e-11
-5.24247868373e-09
-1.74655922624e-10
-3.97615776033e-11
-5.39335730446e-09
-1.85192352132e-10
-2.56600203855e-11
-5.50407672033e-09
-1.93306797185e-10
-8.0527478263e-12
-5.57353861193e-09
-1.98487569451e-10
1.07671431323e-11
-5.59944135564e-09
-2.00346072954e-10
2.83276103717e-11
-5.57339757284e-09
-1.98442558931e-10
4.23412562094e-11
-5.50380052753e-09
-1.93217899631e-10
5.06498909614e-11
-5.39296242085e-09
-1.85061749698e-10
5.14416489658e-11
-5.24202267498e-09
-1.74486836735e-10
4.27460761512e-11
-5.05399662375e-09
-1.62230781692e-10
2.48905750319e-11
-4.83638448789e-09
-1.49117574189e-10
-4.5977992223e-09
-1.3577019987e-10
1.4126272441e-12
-7.10078454558e-11
-8.48448620797e-09
-5.74493940581e-10
-5.42284727985e-13
-1.25885749866e-10
-8.9170516346e-09
-6.42918108823e-10
-1.51582538718e-10
-9.31666852232e-09
-7.10463479946e-10
-1.498752124e-10
-9.6582997134e-09
-7.73424098307e-10
-1.24407593707e-10
-9.93112999797e-09
-8.27629304462e-10
-8.07428307843e-11
-1.01302012853e-08
-8.69377605643e-10
-2.56345289167e-11
-1.02546649707e-08
-8.95991376086e-10
3.33224268816e-11
-1.03009475425e-08
-9.05471968346e-10
8.83056481648e-11
-1.02543271496e-08
-8.9586186955e-10
1.3173345072e-10
-1.01295434698e-08
-8.6912110231e-10
1.56876307506e-10
-9.93019748623e-09
-8.27251833359e-10
1.58175239606e-10
-9.65720096033e-09
-7.72934836972e-10
1.31990868281e-10
-9.31552668731e-09
-7.09874277959e-10
7.64706168696e-11
-8.91602513662e-09
-6.42242139437e-10
-8.48364092987e-09
-5.7375163426e-10
4.04293950939e-12
-1.2085864297e-10
-1.15729483699e-08
-1.09726400931e-09
-7.72872707421e-13
-2.08786162454e-10
-1.21455686844e-08
-1.23558184135e-09
-2.5040962342e-10
-1.2674389149e-08
-1.37157059018e-09
-2.48010075766e-10
-1.31216043049e-08
-1.49761800835e-09
-2.06419800289e-10
-1.34765439978e-08
-1.60562784577e-09
-1.34408143865e-10
-1.37338534276e-08
-1.68853036542e-09
-4.31426082868e-11
-1.38941446204e-08
-1.74122977277e-09
5.45721776402e-11
-1.39536896435e-08
-1.75994423468e-09
1.45669111171e-10
-1.3893658195e-08
-1.74103548336e-09
2.17357170603e-10
-1.37329112343e-08
-1.68814473888e-09
2.58490789786e-10
-1.34752145462e-08
-1.60505945133e-09
2.6030450671e-10
-1.31200254165e-08
-1.49687951146e-09
2.17956412434e-10
-1.26727392284e-08
-1.37067836879e-09
1.29065330483e-10
-1.21440171513e-08
-1.23455424184e-09
-1.15716112094e-08
-1.09613029663e-09
6.17587064153e-12
-1.69806049206e-10
-1.38464726234e-08
-1.63807408099e-09
-8.96276963853e-13
-2.87425231454e-10
-1.45052137415e-08
-1.84871628149e-09
-3.43571442749e-10
-1.51075238387e-08
-2.0541835429e-09
-3.40243265e-10
-1.5611241227e-08
-2.24318630582e-09
-2.83583957162e-10
-1.60080492047e-08
-2.40411987615e-09
-1.85108584495e-10
-1.62937818541e-08
-2.52705145459e-09
-6.0075796783e-11
-1.64711360134e-08
-2.60492183372e-09
7.38550623881e-11
-1.65370420602e-08
-2.63250402386e-09
1.98707719182e-10
-1.64705593716e-08
-2.60468639184e-09
2.96832474524e-10
-1.62926679946e-08
-2.52658340025e-09
3.52983783899e-10
-1.60064816868e-08
-2.40342802439e-09
3.55643246193e-10
-1.56093680503e-08
-2.24228396348e-09
2.98645717523e-10
-1.5105542796e-08
-2.05308855072e-09
1.79888265719e-10
-1.45032819394e-08
-1.84744866585e-09
-1.38447248883e-08
-1.63666662593e-09
7.71563779477e-12
-2.15537560445e-10
-1.53415426269e-08
-2.14569267747e-09
-9.31469950118e-13
-3.6042089721e-10
-1.60381154135e-08
-2.42215521309e-09
-4.29687169065e-10
-1.66651132129e-08
-2.68916883417e-09
-4.2523749829e-10
-1.71834661342e-08
-2.93270491698e-09
-3.546471847e-10
-1.75884893933e-08
-3.13864148008e-09
-2.31920325447e-10
-1.78782219256e-08
-3.29512988771e-09
-7.60272771835e-11
-1.80574550377e-08
-3.39389192527e-09
9.09852082626e-11
-1.81241402577e-08
-3.42879214882e-09
2.46705307169e-10
-1.80568412384e-08
-3.39363561692e-09
3.69090394021e-10
-1.78770380641e-08
-3.29461966635e-09
4.39173872931e-10
-1.75868230923e-08
-3.13788549459e-09
4.42940037063e-10
-1.71814623002e-08
-2.93171571293e-09
3.72783674557e-10
-1.66629630279e-08
-2.68796380878e-09
2.2670843186e-10
-1.6035958803e-08
-2.42075362798e-09
-1.53395050495e-08
-2.14412668352e-09
8.69206988633e-12
-2.56844182527e-10
-1.61338966151e-08
-2.58206235476e-09
-9.04253604831e-13
-4.26992568307e-10
-1.68289630664e-08
-2.91291169838e-09
-5.08124039555e-10
-1.74434037602e-08
-3.22916126825e-09
-5.02468946167e-10
-1.794538879e-08
-3.51520649791e-09
-4.19128862719e-10
-1.83343598665e-08
-3.75549518662e-09
-2.74443335335e-10
-1.86109038147e-08
-3.93719316915e-09
-9.0725655016e-11
-1.87814650599e-08
-4.05146930192e-09
1.06080132098e-10
-1.8845023307e-08
-4.09175820811e-09
2.89636571361e-10
-1.87808565045e-08
-4.05120544903e-09
4.33999411091e-10
-1.86097300066e-08
-3.93666768106e-09
5.16851990327e-10
-1.83327050455e-08
-3.75471584397e-09
5.21838676168e-10
-1.79433852985e-08
-3.51418534639e-09
4.39823367944e-10
-1.74412242374e-08
-3.22791523387e-09
2.68499395284e-10
-1.68267166784e-08
-2.91145862856e-09
-1.61316781055e-08
-2.58043163528e-09
9.21628813311e-12
-2.93477255261e-10
-1.63211960181e-08
-2.92548185113e-09
-8.40860087603e-13
-4.86969718589e-10
-1.69851921692e-08
-3.29815428193e-09
-5.78854327216e-10
-1.75617508535e-08
-3.65092670454e-09
-5.72015703483e-10
-1.80270864174e-08
-3.96762107499e-09
-4.77102831139e-10
-1.83847186637e-08
-4.23212320873e-09
-3.1267192907e-10
-1.86375883586e-08
-4.43128741261e-09
-1.04045795006e-10
-1.87931343443e-08
-4.55616436503e-09
1.19392942473e-10
-1.88511734272e-08
-4.60008099545e-09
3.27864918838e-10
-1.87925585203e-08
-4.55589976666e-09
4.91984661771e-10
-1.86364764597e-08
-4.43076080735e-09
5.86422750813e-10
-1.83831460939e-08
-4.23134298124e-09
5.92606294557e-10
-1.80251677438e-08
-3.96660004775e-09
4.99854347543e-10
-1.75596326814e-08
-3.64968256747e-09
3.05223668331e-10
-1.69829572071e-08
-3.29670419639e-09
-1.63188881816e-08
-2.92385216056e-09
9.42739942001e-12
-3.25812627258e-10
-1.60081984266e-08
-3.16846482106e-09
-7.60503213927e-13
-5.40646912893e-10
-1.6620551232e-08
-3.57166284985e-09
-6.42268633916e-10
-1.71438085557e-08
-3.95006609003e-09
-6.34331941883e-10
-1.75609186219e-08
-4.28760316168e-09
-5.28969247834e-10
-1.78790458486e-08
-4.5681591853e-09
-3.46838409005e-10
-1.81029445653e-08
-4.77867571293e-09
-1.15978809259e-10
-1.82403416956e-08
-4.91031168044e-09
1.31196000817e-10
-1.82916290555e-08
-4.95647314908e-09
3.61900080307e-10
-1.82398119829e-08
-4.91004882178e-09
5.43716069247e-10
-1.81019195129e-08
-4.7781535135e-09
6.48598139489e-10
-1.78775886502e-08
-4.56738768182e-09
6.5587474216e-10
-1.7559124148e-08
-4.28659742208e-09
5.5338863196e-10
-1.7141795201e-08
-3.94884617045e-09
3.37443858723e-10
-1.66183774205e-08
-3.57024648373e-09
-1.60058495134e-08
-3.16687631617e-09
9.45801337562e-12
-3.5450717123e-10
-1.52966684055e-08
-3.31332799849e-09
-6.77094697164e-13
-5.88609458752e-10
-1.58443174199e-08
-3.73797940736e-09
-6.99032182358e-10
-1.63061182665e-08
-4.1336126886e-09
-6.90094430583e-10
-1.66697530217e-08
-4.48463187512e-09
-5.75297222791e-10
-1.69452992924e-08
-4.7752297249e-09
-3.77295025282e-10
-1.71385677584e-08
-4.99264555912e-09
-1.26592560703e-10
-1.72569060467e-08
-5.12825225291e-09
1.41727702681e-10
-1.73010202975e-08
-5.17564534278e-09
3.92264682194e-10
-1.72564240242e-08
-5.12799156236e-09
5.89932639256e-10
-1.71376315235e-08
-4.99212900016e-09
7.04222599067e-10
-1.69439586403e-08
-4.77446974117e-09
7.12472268492e-10
-1.66680818758e-08
-4.48364690527e-09
6.01165307289e-10
-1.63042080783e-08
-4.13242647845e-09
3.65957319794e-10
-1.58422039435e-08
-3.73661138759e-09
-1.52942948119e-08
-3.31180200878e-09
9.41048024101e-12
-3.80226941984e-10
-1.42799483754e-08
-3.36782975897e-09
-5.99219048761e-13
-6.31588570833e-10
-1.47556929304e-08
-3.80711242417e-09
-7.49987493851e-10
-1.5152818194e-08
-4.21385808294e-09
-7.40109340569e-10
-1.54621176665e-08
-4.57308203824e-09
-6.16726666435e-10
-1.56955027702e-08
-4.86943645472e-09
-4.04434360242e-10
-1.58589185471e-08
-5.09057985181e-09
-1.35994390073e-10
-1.59587567018e-08
-5.22816273355e-09
1.51177175567e-10
-1.59958204458e-08
-5.27605275625e-09
4.19434813366e-10
-1.59583144129e-08
-5.22790415285e-09
6.31360610989e-10
-1.58580548542e-08
-5.09006896469e-09
7.54192122994e-10
-1.56942537827e-08
-4.86868844518e-09
7.63333435845e-10
-1.54605371732e-08
-4.57211930589e-09
6.44008069013e-10
-1.51509721578e-08
-4.21270884888e-09
3.91517546017e-10
-1.47535978902e-08
-3.80579849464e-09
-1.42775166676e-08
-3.36637597865e-09
9.35593981326e-12
-4.03474447411e-10
-1.30409047587e-08
-3.34192968366e-09
-5.30554623611e-13
-6.70404115873e-10
-1.34417244756e-08
-3.79089489281e-09
-7.9613763658e-10
-1.37742458736e-08
-4.20441544535e-09
-7.85275231955e-10
-1.40315065037e-08
-4.56809008408e-09
-6.53910880204e-10
-1.42255892465e-08
-4.86711279478e-09
-4.28637531693e-10
-1.43615391366e-08
-5.08966811711e-09
-1.44301802154e-10
-1.44443745008e-08
-5.227753518e-09
1.59684971208e-10
-1.4474865999e-08
-5.27558982621e-09
4.43816712883e-10
-1.44439564027e-08
-5.22749735802e-09
6.68682280591e-10
-1.43607175373e-08
-5.08916344941e-09
7.99439140059e-10
-1.4224387481e-08
-4.866377463e-09
8.09500754642e-10
-1.40299595849e-08
-4.56715051257e-09
6.82780253088e-10
-1.37723972646e-08
-4.20330463016e-09
4.14676216714e-10
-1.34395734969e-08
-3.78963728638e-09
-1.30383542071e-08
-3.3405520188e-09
9.33618057385e-12
-4.2454630435e-10
-1.16519104492e-08
-3.24581654997e-09
-4.70517337256e-13
-7.06124702763e-10
-1.19770392832e-08
-3.70097396792e-09
-8.38753079317e-10
-1.22475802608e-08
-4.1182396622e-09
-8.26566356188e-10
-1.24577240638e-08
-4.48364019905e-09
-6.87453378887e-10
-1.2617117117e-08
-4.78300366802e-09
-4.50219044298e-10
-1.27289855686e-08
-5.00518244024e-09
-1.51615159191e-10
-1.27968644991e-08
-5.14261503856e-09
1.67340474749e-10
-1.28214750471e-08
-5.189961666e-09
4.657154997e-10
-1.27964494694e-08
-5.14236235525e-09
7.02495152691e-10
-1.27281643153e-08
-5.00468583547e-09
8.40936411304e-10
-1.26159021358e-08
-4.78228319088e-09
8.52248305387e-10
-1.24561351584e-08
-4.48272588987e-09
7.1855958918e-10
-1.22456412057e-08
-4.11716928854e-09
4.35743438398e-10
-1.19747366964e-08
-3.69977494557e-09
-1.16491581316e-08
-3.24451754393e-09
9.36922946991e-12
-4.44229842288e-10
-1.01751246693e-08
-3.08892467489e-09
-4.20474408498e-13
-7.40952485691e-10
-1.04241992397e-08
-3.54799883511e-09
-8.79605026093e-10
-1.06388172962e-08
-3.9669436048e-09
-8.64900606892e-10
-1.08091674266e-08
-4.33199187873e-09
-7.17727127846e-10
-1.09394782286e-08
-4.62981682633e-09
-4.69310494068e-10
-1.10310420648e-08
-4.8501421675e-09
-1.57972500282e-10
-1.10862071648e-08
-4.98595999238e-09
1.74152561389e-10
-1.1105735194e-08
-5.03245363328e-09
4.85235160874e-10
-1.1085768104e-08
-4.98571273753e-09
7.33146965618e-10
-1.10301684505e-08
-4.84965710061e-09
8.79579226058e-10
-1.09381772969e-08
-4.62911539843e-09
8.93328874875e-10
-1.0807445773e-08
-4.33110681428e-09
7.53534157522e-10
-1.06366836217e-08
-3.965917204e-09
4.55497860295e-10
-1.04216264653e-08
-3.54686272276e-09
-1.01720539205e-08
-3.08770986654e-09
9.43880134566e-12
-4.67438357491e-10
-8.65947826974e-09
-2.87956915446e-09
-3.82095961049e-13
-7.80008207622e-10
-8.83592920744e-09
-3.34159855681e-09
-9.21059318079e-10
-9.00644253135e-09
-3.76079147962e-09
-9.00996339825e-10
-9.14531155097e-09
-4.12371386876e-09
-7.44873107544e-10
-9.25184512428e-09
-4.41835621797e-09
-4.85920300474e-10
-9.32661532703e-09
-4.63554489051e-09
-1.63386509093e-10
-9.37126145131e-09
-4.76891967354e-09
1.80096897082e-10
-9.38652327592e-09
-4.8142504069e-09
5.02348298427e-10
-9.37076554019e-09
-4.76868080531e-09
7.607429161e-10
-9.3256277983e-09
-4.63507674076e-09
9.16053599781e-10
-9.2503691486e-09
-4.41768053766e-09
9.35077620767e-10
-9.14335144447e-09
-4.12286440432e-09
7.92800879502e-10
-9.00399873044e-09
-3.75981404582e-09
4.78838688194e-10
-8.83295759968e-09
-3.34053154385e-09
-8.65596161238e-09
-2.87844976307e-09
9.56404785661e-12
-5.10918177146e-10
-2.6245835224e-09
-3.40347448751e-13
-7.13033198939e-09
-8.33173652735e-10
-3.09056583772e-09
-7.26302782349e-09
-9.69749469515e-10
-3.50841842807e-09
-7.40355633709e-09
-9.40675763923e-10
-3.86754171703e-09
-7.51770666099e-09
-7.73904518689e-10
-4.15763127118e-09
-7.60517820657e-09
-5.03493125751e-10
-4.37069009344e-09
-7.66689680967e-09
-1.69086699581e-10
-4.50100379221e-09
-7.70357214852e-09
1.8636617551e-10
-4.54494253789e-09
-7.71556578441e-09
5.20461393011e-10
-4.50077753834e-09
-7.70298052135e-09
7.90260509017e-10
-4.37024684667e-09
-7.66571920058e-09
9.56141233205e-10
-4.15699205907e-09
-7.60342212929e-09
9.84084388714e-10
-3.8667390688e-09
-7.51537986946e-09
8.46187076906e-10
-3.50749932624e-09
-7.40065992322e-09
5.22462916891e-10
-3.08956892312e-09
-7.25952547611e-09
-2.6235869258e-09
9.70496317827e-12
-7.12621802303e-09
-3.87061550063e-12
2.81920053976e-10
-4.13978251173e-10
1.74464269911e-13
-5.33594306325e-12
3.11564568681e-10
-4.58963158257e-10
-5.24465877168e-12
3.39997208845e-10
-5.01887829912e-10
-4.62207817872e-12
3.66032375554e-10
-5.40686439212e-10
-3.62383416873e-12
3.87650624209e-10
-5.73282220444e-10
-2.39172806664e-12
4.03845294223e-10
-5.97959295173e-10
-1.00135752765e-12
4.13991975388e-10
-6.13565507566e-10
4.47491792626e-13
4.17591837779e-10
-6.19171019544e-10
1.83925951608e-12
4.13879220758e-10
-6.13556368519e-10
3.06541389511e-12
4.03617726211e-10
-5.97941073227e-10
4.03530454149e-12
3.87319782731e-10
-5.73255010263e-10
4.6214795221e-12
3.65659360072e-10
-5.40650052909e-10
4.67537572232e-12
3.3962861926e-10
-5.01841778433e-10
3.22575084369e-12
3.11301997742e-10
-4.5890551904e-10
2.81785089008e-10
-4.13903233305e-10
-3.6856289081e-13
-4.18330153241e-12
8.11560634644e-10
-1.09990788298e-09
4.46512650608e-13
-4.28110829556e-12
8.86916019434e-10
-1.21736545464e-09
-2.75888027215e-12
9.58038395801e-10
-1.32902861478e-09
-1.26102355249e-12
1.0217150583e-09
-1.42961900636e-09
-3.95540683031e-13
1.0739078167e-09
-1.51390661105e-09
-2.39017176206e-13
1.11255019265e-09
-1.57759529876e-09
-5.71865291308e-13
1.13661247984e-09
-1.61781244839e-09
-1.06346166153e-12
1.14517470806e-09
-1.63222727857e-09
-1.39432527468e-12
1.1363803626e-09
-1.61778422195e-09
-1.2517006034e-12
1.11208454673e-09
-1.57753954642e-09
-4.40322186394e-13
1.07323494363e-09
-1.51382413466e-09
9.82206529013e-13
1.02094238521e-09
-1.4295098261e-09
2.44902432409e-12
9.57293027835e-10
-1.32889161639e-09
2.42478949788e-12
8.86380367304e-10
-1.21719590314e-09
8.11298300347e-10
-1.09969430055e-09
-1.05928625741e-12
1.96060020959e-13
1.37950973635e-09
-1.66558772085e-09
6.3942203778e-13
4.34586371901e-12
1.49188424679e-09
-1.84395915443e-09
8.30974624616e-12
1.59646714364e-09
-2.01306145972e-09
1.03171337441e-11
1.68805127079e-09
-2.16507420066e-09
9.58055625958e-12
1.76201907383e-09
-2.29225179191e-09
6.33878933915e-12
1.81607430209e-09
-2.38823921765e-09
1.41584295004e-12
1.84949837727e-09
-2.44877500075e-09
-4.06847759194e-12
1.86143380295e-09
-2.47041580793e-09
-8.98883848792e-12
1.84921833544e-09
-2.44872765345e-09
-1.22452862286e-11
1.81551740261e-09
-2.38814623094e-09
-1.30378295998e-11
1.76122455294e-09
-2.29211443938e-09
-1.11079035133e-11
1.68714721622e-09
-2.16489332858e-09
-7.17797372392e-12
1.59562706901e-09
-2.0128368862e-09
-2.88490511328e-12
1.49131160656e-09
-1.84368573956e-09
1.37929638925e-09
-1.66525248978e-09
-1.67890719901e-12
7.33484486973e-12
1.86686212304e-09
-2.13308541048e-09
7.6984029044e-13
1.70873770888e-11
1.99781592747e-09
-2.36372390195e-09
2.38411473184e-11
2.11807791154e-09
-2.58173605458e-09
2.59147395346e-11
2.22087927617e-09
-2.77730584558e-09
2.26970287357e-11
2.30244618018e-09
-2.9406751382e-09
1.4910376897e-11
2.3611516222e-09
-3.06383962282e-09
4.11325581524e-12
2.39715871429e-09
-3.14141290273e-09
-7.69216870755e-12
2.41007915104e-09
-3.1690693177e-09
-1.84853944171e-11
2.39687940223e-09
-3.14134687944e-09
-2.62811410941e-11
2.3606020112e-09
-3.06371016111e-09
-2.95407162817e-11
2.30167376163e-09
-2.9404847639e-09
-2.75203766825e-11
2.2200130699e-09
-2.7770571371e-09
-2.07575130742e-11
2.11730493464e-09
-2.58143077591e-09
-1.07905345495e-11
1.99733950636e-09
-2.36335841496e-09
1.86678278324e-09
-2.13264809974e-09
-2.22406271889e-12
1.57490658052e-11
2.21342711582e-09
-2.5084412581e-09
8.50914813355e-13
3.11239993875e-11
2.34434203924e-09
-2.78345285789e-09
4.03598308219e-11
2.46298008352e-09
-3.04259183187e-09
4.20477599957e-11
2.56171141986e-09
-3.27454888726e-09
3.60048805774e-11
2.63842357972e-09
-3.46801240433e-09
2.35153149415e-11
2.69264192132e-09
-3.61369683586e-09
6.84316071885e-12
2.7255905794e-09
-3.70532717535e-09
-1.12261531318e-11
2.73750071426e-09
-3.73790169911e-09
-2.78923681832e-11
2.72533776034e-09
-3.7052427436e-09
-4.03818576846e-11
2.69215021114e-09
-3.61353162786e-09
-4.64446166207e-11
2.63774295798e-09
-3.46777075021e-09
-4.47729047577e-11
2.56096549886e-09
-3.27423597678e-09
-3.54761151849e-11
2.4623473579e-09
-3.0422125979e-09
-1.98237143046e-11
2.34401847961e-09
-2.78300660424e-09
2.21351393382e-09
-2.50791941922e-09
-2.69315224745e-12
2.42839489816e-11
2.40427793508e-09
-2.79770246613e-09
8.92828115276e-13
4.45185906378e-11
2.52170815428e-09
-3.10996845839e-09
5.5603453967e-11
2.62659918783e-09
-3.40324660999e-09
5.65487410784e-11
2.71131375885e-09
-3.66517273523e-09
4.77379483911e-11
2.77550763714e-09
-3.88328552285e-09
3.10104145436e-11
2.81989122731e-09
-4.04733823392e-09
9.2166741345e-12
2.84657267346e-09
-4.15037103006e-09
-1.42616134716e-11
2.85632536671e-09
-4.18688611311e-09
-3.60470013076e-11
2.84635561629e-09
-4.15026854772e-09
-5.2764421165e-11
2.81947414736e-09
-4.0471381972e-09
-6.15701312754e-11
2.77494096519e-09
-3.88299459624e-09
-6.06012000687e-11
2.71070841016e-09
-3.66479952176e-09
-4.94025111419e-11
2.62611838957e-09
-3.40280022985e-09
-2.88408259181e-11
2.52152276952e-09
-3.10945206962e-09
2.40450184111e-09
-2.79711102175e-09
-3.08711005332e-12
3.21207129853e-11
2.45305178051e-09
-3.00692263548e-09
9.05429549795e-13
5.61264684345e-11
2.55011625069e-09
-3.35009686245e-09
6.83589446524e-11
2.6352887095e-09
-3.67132030866e-09
6.8345972854e-11
2.70174078869e-09
-3.95754309459e-09
5.70824376012e-11
2.75055718529e-09
-4.19550047298e-09
3.68943619694e-11
2.78337354572e-09
-4.37426017398e-09
1.10660787933e-11
2.80283864273e-09
-4.48635384289e-09
-1.66276654839e-11
2.81007591167e-09
-4.52594608118e-09
-4.24449441196e-11
2.80265830004e-09
-4.48623392215e-09
-6.26126509089e-11
2.78303066553e-09
-4.37402669421e-09
-7.38468354705e-11
2.75009898619e-09
-4.19516285356e-09
-7.37976073151e-11
2.70126297748e-09
-3.95711396212e-09
-6.14050007767e-11
2.63493474878e-09
-3.67081368582e-09
-3.70336500146e-11
2.55003426694e-09
-3.34952021007e-09
2.45335538932e-09
-3.00627454316e-09
-3.40492997842e-12
3.87669007365e-11
2.3873025805e-09
-3.14204190816e-09
8.94408200357e-13
6.54443809997e-11
2.46268558493e-09
-3.51049904873e-09
7.82015201315e-11
2.52711935014e-09
-3.85420578933e-09
7.71543832784e-11
2.57532820654e-09
-4.15973030492e-09
6.38808010333e-11
2.60931647971e-09
-4.41329852617e-09
4.1096567801e-11
2.63129257457e-09
-4.6035337731e-09
1.23688008511e-11
2.64409013104e-09
-4.72261787515e-09
-1.83134225555e-11
2.64897886674e-09
-4.76452244824e-09
-4.70271636809e-11
2.643942042e-09
-4.72248152673e-09
-6.9780802051e-11
2.6310133375e-09
-4.60326895485e-09
-8.300240173e-11
2.60894770706e-09
-4.41291766164e-09
-8.39519560139e-11
2.57494990056e-09
-4.1592503971e-09
-7.09950611716e-11
2.52685084186e-09
-3.85364613948e-09
-4.39249266034e-11
2.46265193567e-09
-3.50987148963e-09
2.38760938091e-09
-3.14134874712e-09
-3.65198011092e-12
4.39860902905e-11
2.2381894428e-09
-3.20875818662e-09
8.66448503582e-13
7.23800019842e-11
2.2941809476e-09
-3.59751420914e-09
8.51880347757e-11
2.33996111712e-09
-3.95888779539e-09
8.31487763181e-11
2.37238775749e-09
-4.27930781314e-09
6.83455755661e-11
2.39391952301e-09
-4.54473963721e-09
4.3782140886e-11
2.40702439183e-09
-4.74357885594e-09
1.31801716629e-11
2.41443505524e-09
-4.86780754563e-09
-1.93958551818e-11
2.4174015393e-09
-4.91134141598e-09
-4.99799895961e-11
2.41431338804e-09
-4.86765623866e-09
-7.45021900597e-11
2.40679525131e-09
-4.74328562526e-09
-8.92319381599e-11
2.39361673379e-09
-4.54431996417e-09
-9.11421878686e-11
2.37207409107e-09
-4.27878316256e-09
-7.81006868278e-11
2.33973273976e-09
-3.95828280175e-09
-4.9296349565e-11
2.2941383649e-09
-3.59684484588e-09
2.23842911275e-09
-3.20803061898e-09
-3.83519086085e-12
4.77271630687e-11
2.0345553758e-09
-3.21245660385e-09
8.26797745271e-13
7.70720226452e-11
2.07512581674e-09
-3.61709551263e-09
8.9624142043e-11
2.1057590322e-09
-3.9918950589e-09
8.67256317637e-11
2.12581160972e-09
-4.32332219032e-09
7.08593303558e-11
2.1378818823e-09
-4.59728965752e-09
4.52204867295e-11
2.14444948307e-09
-4.80216634812e-09
1.35895169603e-11
2.14794873706e-09
-4.92988269929e-09
-1.99891462002e-11
2.14949177902e-09
-4.9744318949e-09
-5.1597560556e-11
2.14784609594e-09
-4.92971834931e-09
-7.71837213272e-11
2.14425460223e-09
-4.80184842034e-09
-9.295609099e-11
2.13761933763e-09
-4.59683654451e-09
-9.56969009374e-11
2.12552742421e-09
-4.32275965531e-09
-8.28827967031e-11
2.10552509778e-09
-3.99125287155e-09
-5.31142042239e-11
2.07501901409e-09
-3.61639334052e-09
2.03465518022e-09
-3.21170465532e-09
-3.96427950816e-12
5.0066601875e-11
1.8002650553e-09
-3.15820884116e-09
7.803128798e-13
7.97870203125e-11
1.8296150488e-09
-3.57484429649e-09
9.19425815226e-11
1.84882312379e-09
-3.95937560466e-09
8.83882628679e-11
1.85991112076e-09
-4.29840021096e-09
7.18793168119e-11
1.86543115766e-09
-4.57795136881e-09
4.5723939347e-11
1.86767393563e-09
-4.78656798262e-09
1.37001082399e-11
1.86863958421e-09
-4.91628094729e-09
-2.02200730997e-11
1.86923097582e-09
-4.9612924715e-09
-5.22155973173e-11
1.86854769921e-09
-4.9161058701e-09
-7.83059134523e-11
1.86749644773e-09
-4.78622976407e-09
-9.47007978425e-11
1.86518266708e-09
-4.57747096468e-09
-9.80714616638e-11
1.85962089899e-09
-4.29780729767e-09
-8.56293180231e-11
1.84854047147e-09
-3.95870473474e-09
-5.54747835943e-11
1.82939439333e-09
-3.57411830332e-09
1.80016421091e-09
-3.15744203392e-09
-4.04899566265e-12
5.11583920678e-11
1.55362975453e-09
-3.0508181732e-09
7.27455776988e-13
8.08970459419e-11
1.57523890495e-09
-3.47611672778e-09
9.2698056889e-11
1.58624713575e-09
-3.86725128419e-09
8.87402442355e-11
1.59134385769e-09
-4.21092248187e-09
7.192926395e-11
1.59285238506e-09
-4.49344709364e-09
4.56398625858e-11
1.5926666375e-09
-4.70374685788e-09
1.36280574791e-11
1.59227040524e-09
-4.83411471275e-09
-2.02236406428e-11
1.59230945712e-09
-4.87909106397e-09
-5.22002619069e-11
1.59218055168e-09
-4.83393159869e-09
-7.84114321759e-11
1.59248804175e-09
-4.70339338648e-09
-9.50885769733e-11
1.59259056274e-09
-4.49294621284e-09
-9.88388749883e-11
1.59101272501e-09
-4.21030716733e-09
-8.67298066168e-11
1.58587495426e-09
-3.86656049413e-09
-5.65485146175e-11
1.57486050848e-09
-3.47537617042e-09
1.55328337557e-09
-3.0500459281e-09
-4.09894763914e-12
5.12614078038e-11
1.30787060532e-09
-2.89487669927e-09
6.72101638385e-13
8.10187049516e-11
1.32386112717e-09
-3.32619496668e-09
9.27097194171e-11
1.32920568681e-09
-3.72141854473e-09
8.858434019e-11
1.33083376665e-09
-4.06720051847e-09
7.16547881511e-11
1.33047735741e-09
-4.35037751946e-09
4.53824628845e-11
1.32942767045e-09
-4.56051113944e-09
1.3509165609e-11
1.32860447779e-09
-4.69032559271e-09
-2.01482402059e-11
1.32842180763e-09
-4.73482014326e-09
-5.19790992202e-11
1.32850556745e-09
-4.69013755617e-09
-7.81589397492e-11
1.329227569e-09
-4.56014817522e-09
-9.49349410478e-11
1.33017446818e-09
-4.34986372584e-09
-9.88308145834e-11
1.3304277249e-09
-4.06657121189e-09
-8.68125877516e-11
1.32870462664e-09
-3.72071673563e-09
-5.66042320393e-11
1.32328126327e-09
-3.32544991566e-09
1.30723554503e-09
-2.89411018345e-09
-4.11890408484e-12
5.09480685569e-11
1.07174524347e-09
-2.69480719935e-09
6.1707757348e-13
8.13033990299e-11
1.08264797615e-09
-3.13059005162e-09
9.32393451758e-11
1.08458613095e-09
-3.52796735703e-09
8.90078250709e-11
1.08506988795e-09
-3.87358887369e-09
7.18742657659e-11
1.08466689543e-09
-4.1552967688e-09
4.54506244435e-11
1.08398627253e-09
-4.36358492024e-09
1.35159860805e-11
1.08346693131e-09
-4.49175866815e-09
-2.01738833242e-11
1.08330350981e-09
-4.53537291939e-09
-5.20579088336e-11
1.08334671271e-09
-4.49156939476e-09
-7.83732243129e-11
1.08374099228e-09
-4.36321931524e-09
-9.53341071376e-11
1.08428878975e-09
-4.15477890661e-09
-9.93165445842e-11
1.08455006721e-09
-3.87295478556e-09
-8.70377785145e-11
1.08391875722e-09
-3.52726323171e-09
-5.6223785928e-11
1.08182485196e-09
-3.12985122128e-09
1.07077379697e-09
-2.69406142569e-09
-4.11645478227e-12
5.01244103586e-11
-2.45568798576e-09
5.55271778818e-13
8.52349184742e-10
8.31822757389e-11
-2.89633290208e-09
8.55485023823e-10
9.56727975769e-11
-3.293605985e-09
8.57403822899e-10
9.1171275684e-11
-3.63661269862e-09
8.58748296226e-10
7.34970365005e-11
-3.91472116653e-09
8.59527257819e-10
4.64461701863e-11
-4.11955226029e-09
8.5998675197e-10
1.38484629286e-11
-4.24506862584e-09
8.6020133972e-10
-2.05039526228e-11
-4.28743666886e-09
8.60216745973e-10
-5.30420461766e-11
-4.24488292586e-09
8.60043253269e-10
-7.99675981244e-11
-4.11919317846e-09
8.59667161286e-10
-9.74470524349e-11
-3.91421157516e-09
8.59036063665e-10
-1.01677678119e-10
-3.63598696501e-09
8.58073175507e-10
-8.88327415904e-11
-3.29291142503e-09
8.56525844987e-10
-5.53168965754e-11
-2.89560575273e-09
8.54382556364e-10
-2.4549929892e-09
-4.08983541129e-12
8.50986802521e-10
3.76393994723e-12
-5.85474923179e-11
-3.59194004809e-10
-5.06129575105e-14
5.76141919007e-12
-6.52746796226e-11
-3.95799189084e-10
6.57590408346e-12
-7.22766878371e-11
-4.30562254717e-10
6.38048167802e-12
-7.87368971021e-11
-4.61880990286e-10
5.28303199869e-12
-8.4178758742e-11
-4.88115924636e-10
3.46505795412e-12
-8.82865448813e-11
-5.07931116907e-10
1.17136066419e-12
-9.0869703771e-11
-5.20447515698e-10
-1.2930189946e-12
-9.17816345918e-11
-5.24948884964e-10
-3.5811216588e-12
-9.08449510368e-11
-5.20433791569e-10
-5.38565381557e-12
-8.82355317627e-11
-5.07904064343e-10
-6.45912312862e-12
-8.41039590271e-11
-4.88076301714e-10
-6.62423848544e-12
-7.86519639501e-11
-4.61829744287e-10
-5.77193539962e-12
-7.21893247126e-11
-4.30500073668e-10
-3.73944915637e-12
-6.52073761263e-11
-3.95725246335e-10
-5.85169055977e-11
-3.59102667459e-10
-1.69896295456e-14
8.37426240899e-12
-1.34969710568e-10
-1.03183148393e-09
-1.22811313606e-13
1.32368527644e-11
-1.48773937848e-10
-1.13891182946e-09
1.52830129515e-11
-1.62957826774e-10
-1.24060415636e-09
1.48760534303e-11
-1.75958946654e-10
-1.33218660246e-09
1.23278803266e-11
-1.86798190725e-10
-1.40889943739e-09
8.08843829119e-12
-1.94909311052e-10
-1.46684417946e-09
2.74422212316e-12
-1.999825406e-10
-1.50342228473e-09
-2.9935043046e-12
-2.0177545744e-10
-1.51653131964e-09
-8.32426611367e-12
-1.9993173295e-10
-1.50338219323e-09
-1.25325322411e-11
-1.94805651199e-10
-1.46676516619e-09
-1.50274041908e-11
-1.86646923661e-10
-1.40878380091e-09
-1.53637860483e-11
-1.75782337449e-10
-1.33203720694e-09
-1.32335113104e-11
-1.62780025917e-10
-1.24042327584e-09
-8.29681664419e-12
-1.48633199054e-10
-1.13869756843e-09
-1.34900415361e-10
-1.03157283591e-09
-2.41420095632e-14
1.07366711945e-11
-1.99850280058e-10
-1.61136702195e-09
-1.67043438072e-13
1.72219915255e-11
-2.18362686292e-10
-1.7810220188e-09
1.99876166513e-11
-2.37135250478e-10
-1.94183958283e-09
1.94671345826e-11
-2.54232602712e-10
-2.08645274847e-09
1.61233555666e-11
-2.68382065057e-10
-2.20746237215e-09
1.0577104959e-11
-2.78896723827e-10
-2.29880028344e-09
3.60551469004e-12
-2.85444331747e-10
-2.35639832656e-09
-3.87156498038e-12
-2.87760474246e-10
-2.37698339309e-09
-1.08259916118e-11
-2.8538383912e-10
-2.35633356526e-09
-1.6333337303e-11
-2.78774184405e-10
-2.29867280785e-09
-1.96113795838e-11
-2.68204148287e-10
-2.20727611182e-09
-2.00433413753e-11
-2.54025105707e-10
-2.08621269228e-09
-1.71733904411e-11
-2.36929015256e-10
-1.9415501602e-09
-1.05994391092e-11
-2.18202100533e-10
-1.78068201032e-09
-1.99774651024e-10
-1.6109634425e-09
-5.03218277847e-15
1.15472900116e-11
-2.51991968745e-10
-2.09239126388e-09
-1.90071101648e-13
1.868896043e-11
-2.73392906894e-10
-2.31598620533e-09
2.17779987703e-11
-2.94725959954e-10
-2.52740296916e-09
2.12244837979e-11
-3.13957603712e-10
-2.7171768839e-09
1.75736222952e-11
-3.29744117618e-10
-2.87577856279e-09
1.15333833699e-11
-3.41393475629e-10
-2.99538228337e-09
3.95966503357e-12
-3.4861679578e-10
-3.07071533504e-09
-4.15656647111e-12
-3.51174894154e-10
-3.09756443653e-09
-1.17129799371e-11
-3.48557650398e-10
-3.07062764999e-09
-1.77146024791e-11
-3.41274681942e-10
-2.99520992876e-09
-2.13004132807e-11
-3.29572798715e-10
-2.87552725351e-09
-2.17648627613e-11
-3.13757872216e-10
-2.71685406592e-09
-1.8571313853e-11
-2.94529900997e-10
-2.52701594885e-09
-1.13431934575e-11
-2.73243779517e-10
-2.31553615937e-09
-2.51925693549e-10
-2.09186656734e-09
3.61651239258e-14
1.12885367966e-11
-2.90625290505e-10
-2.4809839478e-09
-1.97259278684e-13
1.83948531975e-11
-3.13434240041e-10
-2.75065441833e-09
2.15048886829e-11
-3.35677647607e-10
-3.00489689058e-09
2.09732700044e-11
-3.55447292641e-10
-3.23265424051e-09
1.73667178628e-11