/*--------------------------------*- C++ -*----------------------------------*\
  =========                 |
  \\      /  F ield         | OpenFOAM: The Open Source CFD Toolbox
   \\    /   O peration     | Website:  https://openfoam.org
    \\  /    A nd           | Version:  7
     \\/     M anipulation  |
\*---------------------------------------------------------------------------*/
FoamFile
{
    version     2.0;
    format      ascii;
    class       surfaceScalarField;
    location    "0.2";
    object      phi;
}
// * * * * * * * * * * * * * * * * * * * * * * * * * * * * * * * * * * * * * //

dimensions      [0 3 -1 0 0 0 0];

internalField   nonuniform List<scalar> 
65775
(
4.99302175575e-11
7.75398942628e-09
1.56882047928e-09
5.54084698878e-14
7.03543504065e-11
8.10266012891e-09
1.73504232401e-09
8.19937300766e-11
8.39035651322e-09
1.89268340257e-09
7.97069038513e-11
8.63882948618e-09
2.03403076567e-09
6.62119665381e-11
8.83538089558e-09
2.15207150929e-09
4.3618912912e-11
8.97866694819e-09
2.2410389839e-09
1.52671082604e-11
9.06865045416e-09
2.29716582146e-09
-1.51303552654e-11
9.10298674421e-09
2.31733385674e-09
-4.34875242568e-11
9.06863344488e-09
2.29716574023e-09
-6.60905050073e-11
8.9786340011e-09
2.24103890535e-09
-7.96001917966e-11
8.83533220304e-09
2.15207151124e-09
-8.19054239168e-11
8.63876757772e-09
2.03403080973e-09
-7.028707148e-11
8.39028375709e-09
1.89268360888e-09
-4.98752888038e-11
8.10258768555e-09
1.73504558765e-09
7.75393968135e-09
1.56884424941e-09
8.89816576809e-14
1.25269885504e-10
1.28063925652e-08
3.75167814016e-09
1.2134978515e-13
2.00859475005e-10
1.33149120274e-08
4.12513214685e-09
2.35177048318e-10
1.37274155987e-08
4.47542509679e-09
2.30799523353e-10
1.40760384137e-08
4.78676245404e-09
1.92125255321e-10
1.43492479962e-08
5.04487156465e-09
1.26696676392e-10
1.45465724024e-08
5.23835866096e-09
4.42666370315e-11
1.46703932183e-08
5.36005467128e-09
-4.39525661483e-11
1.47182597324e-08
5.40378080497e-09
-1.26394364236e-10
1.46703555133e-08
5.36005469651e-09
-1.91845308498e-10
1.45464987161e-08
5.23835884803e-09
-2.30552128825e-10
1.43491394043e-08
5.044872006e-09
-2.34970606001e-10
1.40758987951e-08
4.78676290564e-09
-2.00696699762e-10
1.37272503599e-08
4.47542573178e-09
-1.25139454373e-10
1.33147390099e-08
4.12514083351e-09
1.28062524673e-08
3.75173154355e-09
2.03080179099e-13
1.8264278995e-10
1.58502915483e-08
5.25938289223e-09
1.59965158336e-13
3.0171049725e-10
1.63959398309e-08
5.7676472732e-09
3.52982444704e-10
1.68346991363e-08
6.24028749719e-09
3.45997549515e-10
1.71939883596e-08
6.65757368494e-09
2.87470659579e-10
1.74722846981e-08
7.00159568067e-09
1.89289099081e-10
1.76708545951e-08
7.25840104519e-09
6.60562122635e-11
1.7795382531e-08
7.41946604565e-09
-6.56286473286e-11
1.7844394878e-08
7.47725565152e-09
-1.88877209252e-10
1.77953317808e-08
7.41946573881e-09
-2.87088905467e-10
1.76707550969e-08
7.25840061896e-09
-3.45659233602e-10
1.74721381487e-08
7.00159512974e-09
-3.5269836395e-10
1.71937986617e-08
6.65757246764e-09
-3.01482727168e-10
1.68344727042e-08
6.24028535555e-09
-1.824607967e-10
1.63956954301e-08
5.76765366504e-09
1.58500745331e-08
5.25944571872e-09
2.77402278492e-13
2.27597482803e-10
1.73855573777e-08
6.27965580391e-09
1.8057336122e-13
3.78550596027e-10
1.7893042239e-08
6.87445621446e-09
4.42688079725e-10
1.82987054139e-08
7.42274103467e-09
4.3285523737e-10
1.86177934592e-08
7.90351054296e-09
3.58838314952e-10
1.88608230108e-08
8.29762587084e-09
2.35874956438e-10
1.903143413e-08
8.59055224622e-09
8.22223590308e-11
1.91383976005e-08
8.77371588021e-09
-8.17248065049e-11
1.91816060656e-08
8.8393144108e-09
-2.353954383e-10
1.91383408023e-08
8.77371482488e-09
-3.58393577074e-10
1.9031322371e-08
8.59055006115e-09
-4.32460287129e-10
1.88606584485e-08
8.29762234175e-09
-4.42354297485e-10
1.86175797668e-08
7.90350473268e-09
-3.78279663216e-10
1.82984477497e-08
7.42273173668e-09
-2.27378908351e-10
1.78927583104e-08
6.87445164649e-09
1.73852877398e-08
6.27970592654e-09
3.27034448942e-13
2.61337041665e-10
1.78099594448e-08
6.91338420106e-09
1.8938070343e-13
4.35484330171e-10
1.82372379887e-08
7.55893899091e-09
5.09213636725e-10
1.85792405267e-08
8.14866416935e-09
4.96901175255e-10
1.88344509094e-08
8.66208385124e-09
4.11177061891e-10
1.90242247424e-08
9.08051271488e-09
2.69881572786e-10
1.91544378476e-08
9.39012769476e-09
9.39889713957e-11
1.92361131501e-08
9.5831120829e-09
-9.34501862592e-11
1.92704183601e-08
9.6520780229e-09
-2.69362222079e-10
1.92360558032e-08
9.58311016616e-09
-4.10695150373e-10
1.91543249698e-08
9.39012349387e-09
-4.96472501354e-10
1.90240585399e-08
9.08050559846e-09
-5.08849275833e-10
1.88342349158e-08
8.66207210863e-09
-4.35185135103e-10
1.85789779451e-08
8.14864515946e-09
-2.6109209013e-10
1.82369457209e-08
7.55891846501e-09
1.78096706237e-08
6.91340966198e-09
3.6122593888e-13
2.86201157549e-10
1.7440587732e-08
7.23890636074e-09
1.90582487408e-13
4.76356382668e-10
1.77697664113e-08
7.90937069881e-09
5.56759234658e-10
1.8037452809e-08
8.51635757612e-09
5.42331393895e-10
1.82232532135e-08
9.04100174256e-09
4.48068166074e-10
1.83566157556e-08
9.46610639508e-09
2.93728285252e-10
1.84450038528e-08
9.77927831862e-09
1.02214701319e-10
1.85005762695e-08
9.97384304884e-09
-1.01652760256e-10
1.85254211885e-08
1.00431896398e-08
-2.9318652319e-10
1.85005234781e-08
9.97384021587e-09
-4.47565274497e-10
1.84448998316e-08
9.77927202e-09
-5.41883258246e-10
1.8356462794e-08
9.46609547641e-09
-5.56376183988e-10
1.82230543687e-08
9.04098358054e-09
-4.76037603222e-10
1.8037210007e-08
8.51632783843e-09
-2.85935059709e-10
1.77694936906e-08
7.90933263787e-09
1.744031161e-08
7.23890469657e-09
3.85746209284e-13
3.04508611412e-10
1.65272238916e-08
7.32120882974e-09
1.87122104139e-13
5.04799211048e-10
1.67573263814e-08
7.99897621041e-09
5.89314870095e-10
1.69526634122e-08
8.60729299719e-09
5.73021460356e-10
1.70744319202e-08
9.12943947888e-09
4.72751894851e-10
1.71569566741e-08
9.55020770268e-09
3.09573816094e-10
1.72084493798e-08
9.85890618772e-09
1.07659480639e-10
1.72410718681e-08
1.00500693236e-08
-1.07084438796e-10
1.72573829308e-08
1.0117981229e-08
-3.09019328522e-10
1.72410276303e-08
1.00500657884e-08
-4.72236860794e-10
1.72083622694e-08
9.85889818514e-09
-5.72561455247e-10
1.71568289725e-08
9.55019346779e-09
-5.88918979765e-10
1.70742661145e-08
9.12941535784e-09
-5.04464809356e-10
1.69524602027e-08
8.60725298531e-09
-3.04222928912e-10
1.67570976214e-08
7.99892179065e-09
1.6526988071e-08
7.32118279904e-09
4.05232168829e-13
3.17866580775e-10
1.52632596613e-08
7.21507269891e-09
1.8058386955e-13
5.23751623865e-10
1.54038962587e-08
7.88914641659e-09
6.10326093555e-10
1.55357998958e-08
8.48935654145e-09
5.92385368032e-10
1.56043890779e-08
9.00125840944e-09
4.88094541308e-10
1.56458303094e-08
9.41174237845e-09
3.1932386032e-10
1.56682753256e-08
9.71178841699e-09
1.10991902217e-10
1.56829061593e-08
9.89700713539e-09
-1.10408077762e-10
1.56923133927e-08
9.96254323968e-09
-3.18760685296e-10
1.56828737366e-08
9.8970031016e-09
-4.8757075168e-10
1.56682117589e-08
9.71177912031e-09
-5.91915949634e-10
1.56457375969e-08
9.41172543089e-09
-6.09918625948e-10
1.56042692247e-08
9.00122914855e-09
-5.23401538199e-10
1.55356523121e-08
8.48930757807e-09
-3.1756053212e-10
1.54037304457e-08
7.88907855343e-09
1.5263086478e-08
7.21502761297e-09
4.22274081667e-13
3.27383085215e-10
1.379528409e-08
6.96619158421e-09
1.72288091602e-13
5.35570189955e-10
1.38615217072e-08
7.63056504821e-09
6.22728658502e-10
1.39417599199e-08
8.21799875504e-09
6.03392597206e-10
1.3969762498e-08
8.71618900289e-09
4.96597648273e-10
1.39810064327e-08
9.11399089681e-09
3.24636278695e-10
1.39828939286e-08
9.40385729059e-09
1.12791810812e-10
1.39848703562e-08
9.5822490105e-09
-1.12199280602e-10
1.39891904846e-08
9.64506258273e-09
-3.24064188758e-10
1.39848522507e-08
9.58224461815e-09
-4.96064330745e-10
1.39828588782e-08
9.40384701885e-09
-6.02912117909e-10
1.39809561858e-08
9.11397180558e-09
-6.22307165937e-10
1.3969698146e-08
8.7161555875e-09
-5.35201366496e-10
1.3941679847e-08
8.21794272697e-09
-3.27054009153e-10
1.38614326612e-08
7.63048768958e-09
1.37951897169e-08
6.9661337924e-09
4.38978489216e-13
3.33858131224e-10
1.22318208844e-08
6.61183051284e-09
1.62982314221e-13
5.42175796969e-10
1.22403698246e-08
7.26398960615e-09
6.29061897637e-10
1.22808555725e-08
7.83718719867e-09
6.08661017558e-10
1.22803589253e-08
8.32098362294e-09
5.0046583743e-10
1.22716757744e-08
8.70594612427e-09
3.26961858322e-10
1.22608468691e-08
8.98573718676e-09
1.13564127461e-10
1.22550718511e-08
9.15742492735e-09
-1.12959648278e-10
1.22560081957e-08
9.21752989633e-09
-3.26377275e-10
1.2255069754e-08
9.15742027203e-09
-4.99918767507e-10
1.22608437155e-08
8.98572620873e-09
-6.0816452128e-10
1.22716729801e-08
8.70592548764e-09
-6.28620797899e-10
1.22803567066e-08
8.32094727066e-09
-5.41782789469e-10
1.22808509148e-08
7.83712652493e-09
-3.33501816032e-10
1.22403665755e-08
7.26390740002e-09
1.22318157743e-08
6.61176672158e-09
4.57015741687e-13
3.37824112865e-10
1.06512918567e-08
6.18155822236e-09
1.53375011605e-13
5.45164077266e-10
1.06177515685e-08
6.82121249057e-09
6.31601700926e-10
1.06289895776e-08
7.38065028813e-09
6.10555391843e-10
1.0610570582e-08
7.85096781767e-09
5.01662560466e-10
1.05908778144e-08
8.22415999557e-09
3.27571115666e-10
1.05739593202e-08
8.49483764217e-09
1.13746613743e-10
1.05645248964e-08
8.6604603448e-09
-1.13124172029e-10
1.0563521238e-08
8.71805728264e-09
-3.26967609392e-10
1.05645395906e-08
8.66045556e-09
-5.01094580758e-10
1.05739897431e-08
8.49482634728e-09
-6.10034941603e-10
1.05909250111e-08
8.22413870245e-09
-6.31132826766e-10
1.06106338292e-08
7.85093029288e-09
-5.44739442325e-10
1.06290644697e-08
7.38058816481e-09
-3.37434986223e-10
1.06178386109e-08
6.82113080144e-09
1.06513803605e-08
6.18149543695e-09
4.77892497783e-13
3.39583224757e-10
9.10903719547e-09
5.6981519075e-09
1.43341944061e-13
5.4612245639e-10
9.04568143991e-09
6.32624502388e-09
6.32665608792e-10
9.0363376931e-09
6.87338460238e-09
6.11341001769e-10
9.009100511e-09
7.33188280223e-09
5.0195740649e-10
8.98588481155e-09
7.6948957018e-09
3.27560307858e-10
8.96813143046e-09
7.95775605417e-09
1.13709161265e-10
8.95818257083e-09
8.11814311869e-09
-1.13060320529e-10
8.9563613469e-09
8.17350396617e-09
-3.26928903562e-10
8.95821388486e-09
8.11813850295e-09
-5.01358777563e-10
8.96819484746e-09
7.95774521647e-09
-6.10786185728e-10
8.9859814355e-09
7.6948753377e-09
-6.32158631851e-10
9.00922893597e-09
7.33184692915e-09
-5.45657271181e-10
9.03649219973e-09
6.87332546486e-09
-3.39154989399e-10
9.0458585632e-09
6.32617009769e-09
9.1092187653e-09
5.69809760338e-09
5.03367782718e-13
3.39745842323e-10
7.64278823957e-09
5.17861170623e-09
1.33101748563e-13
5.47545971929e-10
7.55676412325e-09
5.7966120192e-09
6.35024845607e-10
7.53493287403e-09
6.33325678825e-09
6.13162367866e-10
7.50721548168e-09
6.78179127936e-09
5.02767088357e-10
7.48654494243e-09
7.13630452242e-09
3.27723854749e-10
7.47171173837e-09
7.39266776606e-09
1.13707641042e-10
7.46335769197e-09
7.54865079997e-09
-1.13021877345e-10
7.46148949599e-09
7.60205228753e-09
-3.27053671738e-10
7.46340393221e-09
7.54864694665e-09
-5.02126040547e-10
7.47180518837e-09
7.39265880957e-09
-6.12560966869e-10
7.48668666629e-09
7.1362877845e-09
-6.34468100489e-10
7.50740427381e-09
6.78176152092e-09
-5.47030818301e-10
7.53516224761e-09
6.33320691188e-09
-3.39272295787e-10
7.55702659112e-09
5.79655104114e-09
7.64305657683e-09
5.17857306943e-09
5.32511586642e-13
3.41809850735e-10
6.2745305941e-09
4.63518707867e-09
1.2247759053e-13
5.5433172237e-10
6.16987838256e-09
5.24464012232e-09
6.41522915882e-10
6.14657795642e-09
5.77255018256e-09
6.17067460763e-10
6.12580906864e-09
6.21286283375e-09
5.04336237417e-10
6.11148156145e-09
6.56041560181e-09
3.28067542705e-10
6.10138707668e-09
6.81147147574e-09
1.13728076616e-10
6.09557472498e-09
6.96379416923e-09
-1.1299376645e-10
6.09405127799e-09
7.01548582865e-09
-3.27346535357e-10
6.09563285906e-09
6.96379199306e-09
-5.03640358429e-10
6.10150423769e-09
6.81146650755e-09
-6.16406829658e-10
6.11165902893e-09
6.56040634561e-09
-6.40904817277e-10
6.12604660839e-09
6.21284552594e-09
-5.53757568945e-10
6.14687065808e-09
5.77251836803e-09
-3.41286226364e-10
6.17021627099e-09
5.24460153581e-09
6.27487285906e-09
4.63516963535e-09
5.65057985671e-13
3.70206089036e-10
4.07729776692e-09
1.11186811242e-13
4.99239697474e-09
5.79877115593e-10
4.67952933845e-09
4.90573735774e-09
6.57214312954e-10
5.19999427221e-09
4.89269050635e-09
6.2442858786e-10
5.63332502616e-09
4.881228359e-09
5.06797086721e-10
5.97498789401e-09
4.87279840727e-09
3.28435793072e-10
6.22154906844e-09
4.86675272189e-09
1.1368502481e-10
6.37071389609e-09
4.86314433698e-09
-1.12890880674e-10
6.42086435149e-09
4.86196537671e-09
-3.27652916234e-10
6.37071415451e-09
4.8632101923e-09
-5.06035752247e-10
6.22154981067e-09
4.86688526634e-09
-6.23698729367e-10
5.97498927401e-09
4.87299892515e-09
-6.56525709308e-10
5.63332582148e-09
4.88149803322e-09
-5.79237959908e-10
5.19998908997e-09
4.89302773833e-09
-3.69632574365e-10
4.67952710465e-09
4.9061324277e-09
4.07729641197e-09
6.03195850934e-13
4.9928006288e-09
-2.01202926156e-11
7.13524080484e-10
8.7545579472e-10
3.36357800017e-14
-2.68867923463e-11
7.78866893984e-10
9.63057745458e-10
-2.9687974395e-11
8.50376523651e-10
1.04522948358e-09
-2.87853870246e-11
9.14660571187e-10
1.118578745e-09
-2.39566631991e-11
9.67704394872e-10
1.17962616094e-09
-1.58629484863e-11
1.00748311522e-09
1.22553123539e-09
-5.54309311423e-12
1.03243930187e-09
1.25446690977e-09
5.56657712411e-12
1.04138735078e-09
1.26489309906e-09
1.58884884598e-11
1.03242950666e-09
1.25446784075e-09
2.39849914638e-11
1.00746073256e-09
1.22553302606e-09
2.88130550188e-11
9.67664040665e-10
1.17962860153e-09
2.97081648913e-11
9.14601841442e-10
1.1185815524e-09
2.68958787894e-11
8.50309200037e-10
1.04523289441e-09
2.0120038281e-11
7.78800532006e-10
9.63065474793e-10
7.13499692439e-10
8.75485947166e-10
2.10197656883e-14
-3.09433536721e-11
1.97469241056e-09
2.52150035606e-09
8.49884244443e-14
-4.21668294784e-11
2.13529920677e-09
2.78010323224e-09
-4.60228236851e-11
2.30688310545e-09
3.02296449373e-09
-4.40259473422e-11
2.45980196771e-09
3.23979264159e-09
-3.63208290874e-11
2.58470174937e-09
3.42030340654e-09
-2.38997990427e-11
2.67745307775e-09
3.55607705302e-09
-8.3161136529e-12
2.73539997205e-09
3.64160706785e-09
8.41692858126e-12
2.75621967832e-09
3.67230571805e-09
2.40026950806e-11
2.73537509235e-09
3.64160913661e-09
3.64248827594e-11
2.6773983361e-09
3.55608096264e-09
4.41226824629e-11
2.58460822486e-09
3.42030859817e-09
4.6097325106e-11
2.45966753559e-09
3.2397983529e-09
4.2210032392e-11
2.30672402004e-09
3.02297136489e-09
3.09564192729e-11
2.13514292886e-09
2.78012171861e-09
1.97461715659e-09
2.52157064515e-09
6.47458418456e-14
-2.38474916549e-11
3.31945684287e-09
3.93846470839e-09
1.24928286451e-13
-3.17933013942e-11
3.56373357969e-09
4.34731984797e-09
-3.36109507818e-11
3.81904156044e-09
4.73011767844e-09
-3.12622806962e-11
4.04431496972e-09
5.07086222895e-09
-2.53174408398e-11
4.22665175613e-09
5.3538219679e-09
-1.64604098669e-11
4.36085805041e-09
5.56623920248e-09
-5.67228053381e-12
4.44435908182e-09
5.69980787632e-09
5.86477129966e-12
4.4744102148e-09
5.74761119881e-09
1.66523522931e-11
4.44432226176e-09
5.69980991535e-09
2.55046692424e-11
4.3607791178e-09
5.56624291163e-09
3.14325143615e-11
4.22652136313e-09
5.35382647292e-09
3.37453436927e-11
4.04413067419e-09
5.07086629687e-09
3.18794419468e-11
3.8188207172e-09
4.73012180744e-09
2.38854006623e-11
3.56351665129e-09
4.34733788174e-09
3.31934204743e-09
3.93855104657e-09
1.14443455879e-13
-6.03494355134e-12
4.51616335841e-09
5.08894653177e-09
1.54110864248e-13
-5.51641556379e-12
4.8182322544e-09
5.61958440866e-09
-3.51651566698e-12
5.12623278416e-09
6.11370145041e-09
-1.65847030869e-12
5.39468689866e-09
6.55141321256e-09
-5.02676369505e-13
5.60981639757e-09
6.91341470756e-09
7.82564316504e-15
5.76669079744e-09
7.1843012204e-09
1.08396989811e-13
5.86385901675e-09
7.35419807336e-09
1.69995983783e-13
5.89890181075e-09
7.41483836149e-09
2.66688392097e-13
5.86381489307e-09
7.35419857787e-09
7.65829561105e-13
5.76659784251e-09
7.18430193953e-09
1.8956275611e-12
5.60966645424e-09
6.91341442221e-09
3.70769655864e-12
5.39447783634e-09
6.55141008101e-09
5.64797926957e-12
5.12597901359e-09
6.11369525229e-09
6.10618660204e-12
4.817979138e-09
5.61958940633e-09
4.51601601416e-09
5.08902312426e-09
1.68605062002e-13
1.77570416914e-11
5.44228449607e-09
5.96943778945e-09
1.74402769501e-13
2.93522412628e-11
5.77386550998e-09
6.59184037549e-09
3.59816335052e-11
6.10114622245e-09
7.16725383189e-09
3.66013054625e-11
6.38245048049e-09
7.67381768289e-09
3.11978368454e-11
6.60525258809e-09
8.09057793912e-09
2.08746204818e-11
6.76606071124e-09
8.40116503233e-09
7.39566561585e-12
6.86517952471e-09
8.59534642211e-09
-7.04456392931e-12
6.90102883976e-09
8.6644621602e-09
-2.05304748802e-11
6.8651336479e-09
8.59534449481e-09
-3.08707628713e-11
6.76596495789e-09
8.40116081813e-09
-3.63069902157e-11
6.60510003694e-09
8.09056983283e-09
-3.57396605166e-11
6.38223874815e-09
7.67380319338e-09
-2.91757729789e-11
6.10088557363e-09
7.16723150821e-09
-1.76472012561e-11
5.77359906558e-09
6.5918233958e-09
5.44211669812e-09
5.96948822389e-09
2.2312291409e-13
4.37559541002e-11
6.05042117017e-09
6.58692542408e-09
1.87413905687e-13
6.74598956255e-11
6.38714064796e-09
7.27250577455e-09
7.8860922918e-11
6.70518012695e-09
7.9010389005e-09
7.76957650743e-11
6.97430171559e-09
8.45041973104e-09
6.49445624918e-11
7.18447259606e-09
8.89972639388e-09
4.2946144301e-11
7.3343962994e-09
9.23301877404e-09
1.50745864472e-11
7.42630291321e-09
9.44066186858e-09
-1.46653174722e-11
7.4596733934e-09
9.5143510369e-09
-4.2546242406e-11
7.42625994993e-09
9.44065741455e-09
-6.45658953388e-11
7.33430704219e-09
9.23300926392e-09
-7.73540379819e-11
7.18433136562e-09
8.8997096635e-09
-7.85742097613e-11
6.97410535689e-09
8.45039235027e-09
-6.72401871686e-11
6.70493415282e-09
7.90099786162e-09
-4.36043575475e-11
6.38688208502e-09
7.27246280677e-09
6.05024526524e-09
6.58694313261e-09
2.74283028523e-13
6.91705439165e-11
6.34308759462e-09
6.95926810951e-09
1.94472442968e-13
1.05017230288e-10
6.66710670369e-09
7.6832629251e-09
1.20917501024e-10
6.95562623346e-09
8.34104862888e-09
1.17655412362e-10
7.19547032456e-09
8.91162490202e-09
9.75038768322e-11
7.37956224441e-09
9.37534958809e-09
6.41194668005e-11
7.50908873199e-09
9.71766912222e-09
2.24170789226e-11
7.58799876333e-09
9.93014099263e-09
-2.19624296657e-11
7.61679945986e-09
1.00052957932e-08
-6.36757509327e-11
7.58796276791e-09
9.93013421568e-09
-9.70837735564e-11
7.50901394872e-09
9.7176546462e-09
-1.17273945309e-10
7.37944360604e-09
9.37532458094e-09
-1.2059061552e-10
7.1953035596e-09
8.9115848675e-09
-1.04755739115e-10
6.95541165757e-09
8.34098897129e-09
-6.89759869045e-11
6.66687492327e-09
7.68319429001e-09
6.34291913818e-09
6.95925329479e-09
3.21383792094e-13
9.21624227093e-11
6.35329254123e-09
7.11259021257e-09
1.96631665506e-13
1.39553100929e-10
6.65357746791e-09
7.85537200329e-09
1.59476985849e-10
6.90107650997e-09
8.52407125381e-09
1.54044926724e-10
7.10256796319e-09
9.0996743105e-09
1.26957810997e-10
7.25388267065e-09
9.56458157891e-09
8.31788784755e-11
7.35858839968e-09
9.90613308464e-09
2.90085500634e-11
7.42191388113e-09
1.01173228729e-08
-2.8517838165e-11
7.44518494218e-09
1.01917411086e-08
-8.26998265995e-11
7.42188763539e-09
1.0117314235e-08
-1.26503161433e-10
7.35853352998e-09
9.90611454104e-09
-1.53628511877e-10
7.25379445105e-09
9.5645496112e-09
-1.5911259588e-10
7.10244099484e-09
9.09962338231e-09
-1.3925040782e-10
6.90090654335e-09
8.52399542461e-09
-9.19248064907e-11
6.65338778187e-09
7.85528156447e-09
6.35314922313e-09
7.11254769299e-09
3.63904522198e-13
1.11695523948e-10
6.12992568926e-09
7.07774146821e-09
1.95316511403e-13
1.69635700879e-10
6.40117764801e-09
7.82510029622e-09
1.93065931411e-10
6.60371637057e-09
8.49200573716e-09
1.85621421326e-10
6.76441342675e-09
9.06185998488e-09
1.5240192926e-10
6.8817244227e-09
9.51943377367e-09
9.95867303336e-11
6.96122639509e-09
9.85409428656e-09
3.46726687571e-11
7.00888790181e-09
1.00602448895e-08
-3.41514013791e-11
7.02655950146e-09
1.01325648726e-08
-9.90770979832e-11
7.00887318648e-09
1.00602349784e-08
-1.51916161486e-10
6.96119481891e-09
9.8540728947e-09
-1.85171911695e-10
6.88167143857e-09
9.51939680068e-09
-1.92664683083e-10
6.76433242981e-09
9.06180105574e-09
-1.69291858588e-10
6.6035998051e-09
8.49191801403e-09
-1.11414877613e-10
6.40104225735e-09
7.82499452754e-09
6.12982238451e-09
7.07767905651e-09
4.02157069318e-13
1.27373620883e-10
5.72733205823e-09
6.8869258934e-09
1.91266709457e-13
1.94632339087e-10
5.96837662947e-09
7.6295971147e-09
2.21123871591e-10
6.12750943555e-09
8.28696924083e-09
2.12038586176e-10
6.24962644314e-09
8.84491911881e-09
1.73685204531e-10
6.33549684953e-09
9.29058575162e-09
1.1330387141e-10
6.39216060627e-09
9.6152389614e-09
3.94070071969e-11
6.42576597145e-09
9.81449534434e-09
-3.88571559061e-11
6.43837019809e-09
9.88403229601e-09
-1.12765068736e-10
6.42576328992e-09
9.81448483398e-09
-1.73168773529e-10
6.39215327755e-09
9.6152161872e-09
-2.11555592454e-10
6.33548056052e-09
9.29054626483e-09
-2.20684996708e-10
6.24959405916e-09
8.8448560549e-09
-1.94246979078e-10
6.12745121302e-09
8.28687539876e-09
-1.27050428857e-10
5.96830388275e-09
7.62948438221e-09
5.72728146132e-09
6.8868533212e-09
4.36846982219e-13
1.39273992254e-10
5.1984663313e-09
6.57102517812e-09
1.85707980457e-13
2.14512947293e-10
5.41061479373e-09
7.30379140982e-09
2.43790887357e-10
5.53113234931e-09
7.94780702335e-09
2.33636719062e-10
5.61958157693e-09
8.49122234307e-09
1.91222326319e-10
5.67879143771e-09
8.92333224275e-09
1.24657640963e-10
5.71657112047e-09
9.23704165413e-09
4.33351445237e-11
5.73868808934e-09
9.4289080421e-09
-4.27559556299e-11
5.74710380387e-09
9.49546015538e-09
-1.24088579774e-10
5.73869689342e-09
9.42889774695e-09
-1.9067364218e-10
5.71658708884e-09
9.23701931513e-09
-2.33118392272e-10
5.6788105288e-09
8.92329340844e-09
-2.43313033628e-10
5.61959677813e-09
8.49116009125e-09
-2.14085878752e-10
5.53113319153e-09
7.94771424917e-09
-1.38909017078e-10
5.41060865404e-09
7.30368151016e-09
5.19847568858e-09
6.57095348497e-09
4.68586958312e-13
1.47763950111e-10
4.59094698015e-09
6.15778315182e-09
1.7894450368e-13
2.29714656242e-10
4.77652020636e-09
6.87843728325e-09
2.61825798632e-10
4.86439546728e-09
7.50805987899e-09
2.51361869807e-10
4.92525965546e-09
8.03671719266e-09
2.05900671921e-10
4.96364900375e-09
8.45554599797e-09
1.34264932023e-10
4.98723808079e-09
8.75876943563e-09
4.66771879206e-11
5.00085777762e-09
8.94360438418e-09
-4.60661895013e-11
5.00611840814e-09
9.00727378432e-09
-1.33663033688e-10
5.00087680148e-09
8.94359536921e-09
-2.05317284459e-10
4.98727451762e-09
8.75874990909e-09
-2.50806203832e-10
4.96369980391e-09
8.45551193788e-09
-2.61308091539e-10
4.9253184211e-09
8.03666206239e-09
-2.29246521138e-10
4.86445248023e-09
7.50797685369e-09
-1.47359145706e-10
4.77657978789e-09
6.87834102525e-09
4.59101926158e-09
6.15772413982e-09
4.98091680458e-13
1.53380990837e-10
3.94525255422e-09
5.67080284455e-09
1.71567935e-13
2.4130068272e-10
4.10606498846e-09
6.37918933638e-09
2.7686327786e-10
4.16696919106e-09
6.99516334618e-09
2.66929011793e-10
4.20675045986e-09
7.51027670889e-09
2.19131285661e-10
4.23060438944e-09
7.91718809485e-09
1.43030823733e-10
4.24490846444e-09
8.21113811879e-09
4.97430328415e-11
4.253083573e-09
8.38975115005e-09
-4.90970333809e-11
4.25624685824e-09
8.45080166805e-09
-1.42393377288e-10
4.25311074365e-09
8.38974480851e-09
-2.18510966449e-10
4.24496181787e-09
8.21112447465e-09
-2.66335089769e-10
4.23068144808e-09
7.9171640568e-09
-2.76306347676e-10
4.20684668392e-09
7.51023658647e-09
-2.40793949498e-10
4.16707618832e-09
6.9951003574e-09
-1.52939792082e-10
4.10618583965e-09
6.37911789483e-09
3.9453860529e-09
5.67076729697e-09
5.23737273483e-13
1.56142088628e-10
3.29497338956e-09
5.12920648515e-09
1.64155368525e-13
2.50872688664e-10
3.42949076361e-09
5.82652009817e-09
2.9149783074e-10
3.46836699647e-09
6.43056396334e-09
2.82804760281e-10
3.49432508994e-09
6.93401865004e-09
2.32785584559e-10
3.51024289993e-09
7.33083292587e-09
1.52100986899e-10
3.52008940013e-09
7.61701070877e-09
5.29181722218e-11
3.52572147031e-09
7.79037424856e-09
-5.22344229549e-11
3.52778818108e-09
7.84913027082e-09
-1.51425776145e-10
3.52575484505e-09
7.79037219026e-09
-2.3212770995e-10
3.52015532129e-09
7.61700643554e-09
-2.82173604365e-10
3.5103399873e-09
7.33082483328e-09
-2.90905049752e-10
3.49445039692e-09
6.93400259759e-09
-2.50331832073e-10
3.4685155028e-09
6.43053297165e-09
-1.55669847459e-10
3.42966502696e-09
5.82648469671e-09
3.29515967963e-09
5.12920169223e-09
5.46685505733e-13
1.43545190178e-10
4.54717528793e-09
1.57053289955e-13
2.68143691646e-09
2.5707125425e-10
5.23580972078e-09
2.75971693466e-09
3.06853409906e-10
5.82996290796e-09
2.78864942652e-09
3.00533837082e-10
6.32390787382e-09
2.8100945593e-09
2.48330991366e-10
6.7126361313e-09
2.82483056133e-09
1.62534973409e-10
6.99266055669e-09
2.83480649705e-09
5.6588071397e-11
7.16181160865e-09
2.84060173066e-09
-5.58649426259e-11
7.21862288028e-09
2.84251300099e-09
-1.61821729703e-10
7.16181492785e-09
2.840639589e-09
-2.47637344158e-10
6.99266794761e-09
2.83488190575e-09
-2.99870228119e-10
6.71264785648e-09
2.82494265374e-09
-3.06231520711e-10
6.32392243993e-09
2.81024217143e-09
-2.56505600315e-10
5.82997364153e-09
2.78883010668e-09
-1.43050795774e-10
5.23582608122e-09
2.75993451259e-09
4.54719450342e-09
5.61372199322e-13
2.6816709969e-09
7.26607555441e-12
3.95074350121e-11
8.28738749482e-10
1.22325195781e-14
1.40464622229e-11
4.05723731729e-11
9.15789713922e-10
1.7834130567e-11
4.37447734199e-11
9.97794036171e-10
1.83812381012e-11
4.68552577961e-11
1.07125778136e-09
1.5751989573e-11
4.97662447498e-11
1.13256855759e-09
1.05770388232e-11
5.20080553187e-11
1.17877253192e-09
3.73446238937e-12
5.34451657813e-11
1.20792985174e-09
-3.70456073017e-12
5.39645303576e-11
1.21842361964e-09
-1.05495951122e-11
5.34309871969e-11
1.20793083575e-09
-1.57285836105e-11
5.19817057395e-11
1.178774412e-09
-1.83613316307e-11
4.97308256017e-11
1.13257114381e-09
-1.78154450786e-11
4.68130630554e-11
1.0712609297e-09
-1.4035500441e-11
4.36911885169e-11
9.97798189747e-10
-7.26106683504e-12
4.05269752351e-11
9.15798723162e-10
3.94795190659e-11
8.28769182599e-10
8.87922072537e-15
1.6972291585e-11
2.5422235848e-10
2.28989407475e-09
3.22706248798e-14
3.21090618528e-11
2.75418543159e-10
2.53025890227e-09
4.07500477206e-11
3.02025471869e-10
2.75618822682e-09
4.18264629073e-11
3.27628436176e-10
2.95807518615e-09
3.57523957259e-11
3.50029587462e-10
3.12623974694e-09
2.39530049822e-11
3.67207816676e-10
3.25279242189e-09
8.44959106557e-12
3.78111629624e-10
3.3325458054e-09
-8.3622417591e-12
3.82001768867e-10
3.3611685237e-09
-2.38713868437e-11
3.7807903056e-10
3.33254804785e-09
-3.56806004326e-11
3.67145576534e-10
3.25279663051e-09
-4.17646417959e-11
3.49943161005e-10
3.12624538069e-09
-4.06968923337e-11
3.27523050648e-10
2.95808184539e-09
-3.20741828042e-11
3.01900642659e-10
2.75619724411e-09
-1.69569772826e-11
2.75304931969e-10
2.53028110936e-09
2.54151221396e-10
2.28996619976e-09
2.60855872866e-14
2.36805690402e-11
6.28538784085e-10
3.54051980668e-09
5.05756305256e-14
4.37860241779e-11
6.86657146553e-10
3.91610209575e-09
5.51269543442e-11
7.52607036572e-10
4.26832468458e-09
5.62400987561e-11
8.15107956981e-10
4.58238998217e-09
4.78848083848e-11
8.68766005669e-10
4.843554739e-09
3.19966266644e-11
9.0959945869e-10
5.03984088486e-09
1.12760165104e-11
9.35373324844e-10
5.16335972116e-09
-1.11321237069e-11
9.44542451437e-10
5.20755976536e-09
-3.18608489328e-11
9.3532764693e-10
5.16336195687e-09
-4.77633586315e-11
9.09511340048e-10
5.03984493296e-09
-5.61350598191e-11
8.6864209084e-10
4.84355975342e-09
-5.50395633132e-11
8.14955579674e-10
4.5823952722e-09
-4.37259415469e-11
7.52430841077e-10
4.26833193593e-09
-2.36516334425e-11
6.86492954947e-10
3.91612610281e-09
6.28438217942e-10
3.54061057865e-09
4.84000641186e-14
2.97880626775e-11
1.09532437689e-09
4.59240079923e-09
6.72989865302e-14
5.35629300383e-11
1.19712775682e-09
5.08544911661e-09
6.65937665589e-11
1.30710052326e-09
5.54629138052e-09
6.74462188607e-11
1.40978292206e-09
5.95599428802e-09
5.71797554646e-11
1.49668774026e-09
6.29586132987e-09
3.81106837838e-11
1.56225505615e-09
6.55080809008e-09
1.34180091479e-11
1.60340880697e-09
6.71093847713e-09
-1.3219368646e-11
1.61802083328e-09
6.76807103321e-09
-3.7921944768e-11
1.60335568426e-09
6.71093912754e-09
-5.70088947998e-11
1.56215174467e-09
6.55080883932e-09
-6.72976681712e-11
1.49654046706e-09
6.29586106451e-09
-6.64710687318e-11
1.40960019156e-09
5.95599196558e-09
-5.34752563156e-11
1.30689200352e-09
5.54628848651e-09
-2.97393950674e-11
1.19693137783e-09
5.08546181874e-09
1.09520112005e-09
4.59248559129e-09
7.75531155103e-14
3.69196739707e-11
1.58461656799e-09
5.44322988836e-09
8.2221726298e-14
6.43283836115e-11
1.72742938686e-09
6.03422420308e-09
7.88041983236e-11
1.87595790889e-09
6.58402065733e-09
7.91818839173e-11
2.01251115794e-09
7.07080684061e-09
6.68364055273e-11
2.1264629257e-09
7.47323792785e-09
4.44413475539e-11
2.21160449471e-09
7.77429345453e-09
1.56315267151e-11
2.2647125044e-09
7.96292716156e-09
-1.53807396721e-11
2.28353765688e-09
8.03002445925e-09
-4.42018256632e-11
2.26465665336e-09
7.9629250728e-09
-6.66175770911e-11
2.21149539762e-09
7.77428857652e-09
-7.89901737267e-11
2.12630612131e-09
7.47322883616e-09
-7.86448031679e-11
2.01231520168e-09
7.07079200189e-09
-6.42100568503e-11
1.87573428193e-09
6.58400087096e-09
-3.68458709384e-11
1.72721793443e-09
6.03421572566e-09
1.58447898373e-09
5.44329244465e-09
1.11735487383e-13
4.57535358374e-11
2.03395730746e-09
6.09181145985e-09
9.45985047803e-14
7.74907145137e-11
2.20826409727e-09
6.76001600991e-09
9.3604437358e-11
2.3830891317e-09
7.37787962156e-09
9.33424213473e-11
2.54120603739e-09
7.92206980036e-09
7.84599927726e-11
2.67116550109e-09