/*--------------------------------*- C++ -*----------------------------------*\
  =========                 |
  \\      /  F ield         | OpenFOAM: The Open Source CFD Toolbox
   \\    /   O peration     | Website:  https://openfoam.org
    \\  /    A nd           | Version:  7
     \\/     M anipulation  |
\*---------------------------------------------------------------------------*/
FoamFile
{
    version     2.0;
    format      ascii;
    class       volVectorField;
    location    "1.24";
    object      U;
}
// * * * * * * * * * * * * * * * * * * * * * * * * * * * * * * * * * * * * * //

dimensions      [0 1 -1 0 0 0 0];

internalField   nonuniform List<vector> 
22500
(
(-7.68646364441e-07 -1.45970175236e-06 4.6271479304e-05)
(-1.50351266404e-07 -2.01094843516e-06 4.95179411804e-05)
(3.18993483004e-07 -2.29928506773e-06 5.31458207354e-05)
(5.73793265095e-07 -2.38357142857e-06 5.66913229103e-05)
(6.28174217155e-07 -2.35093996288e-06 5.97940231777e-05)
(5.04664392386e-07 -2.2729245912e-06 6.21872388463e-05)
(2.54695936967e-07 -2.2057262312e-06 6.36884120339e-05)
(-6.10917824897e-08 -2.1838010808e-06 6.41902440079e-05)
(-3.75219354241e-07 -2.21842849747e-06 6.36529675177e-05)
(-6.20607399716e-07 -2.29761687257e-06 6.21171823059e-05)
(-7.37135048035e-07 -2.38627807129e-06 5.96904385832e-05)
(-6.7397950428e-07 -2.4276363442e-06 5.65552981938e-05)
(-4.07940612714e-07 -2.34950503229e-06 5.29779482567e-05)
(7.06596180471e-08 -2.06646030412e-06 4.93161803881e-05)
(7.08488057253e-07 -1.51286975072e-06 4.60269011909e-05)
(-3.65312980974e-06 -5.5744923905e-06 0.000111998372261)
(-1.94298305101e-06 -7.23122045803e-06 0.000118986612197)
(-5.05304755278e-07 -8.20550702573e-06 0.000127322974351)
(4.21331853109e-07 -8.62047402828e-06 0.00013575008759)
(8.31466371537e-07 -8.68732042233e-06 0.000143268068912)
(7.73735781762e-07 -8.59017039469e-06 0.000149132193328)
(3.76395067594e-07 -8.47770148232e-06 0.000152831088248)
(-1.98282786281e-07 -8.44237422821e-06 0.000154063240435)
(-7.67339639441e-07 -8.51476710863e-06 0.000152722693743)
(-1.14874004539e-06 -8.66189045268e-06 0.000148918228612)
(-1.18144149701e-06 -8.78928947848e-06 0.000142952066837)
(-7.38744361246e-07 -8.74664060278e-06 0.00013533549798)
(2.28120399094e-07 -8.34754647285e-06 0.000126811644646)
(1.70525063236e-06 -7.3848589838e-06 0.000118372687499)
(3.47759866332e-06 -5.72230984872e-06 0.000111263027401)
(-8.78255195644e-06 -1.18697166444e-05 0.000150598721354)
(-6.08098160947e-06 -1.48435235683e-05 0.000158704216675)
(-3.60736489404e-06 -1.68115703168e-05 0.000169304903525)
(-1.77226523169e-06 -1.79120703152e-05 0.000180475524549)
(-6.28602707528e-07 -1.84244360076e-05 0.000190663631276)
(-1.26920998131e-07 -1.85957604235e-05 0.00019870857592)
(-9.71619916022e-08 -1.86270138179e-05 0.000203812840264)
(-3.14597461112e-07 -1.86436226656e-05 0.000205505954991)
(-5.23627495474e-07 -1.86868636126e-05 0.000203627393316)
(-4.69968688448e-07 -1.87114631842e-05 0.000198343309714)
(6.93335432443e-08 -1.85889230536e-05 0.000190125515623)
(1.26205133823e-06 -1.81155884574e-05 0.000179771692198)
(3.15753666055e-06 -1.70412545365e-05 0.000168440281852)
(5.6934905217e-06 -1.50916276592e-05 0.000157672070709)
(8.49076740275e-06 -1.21127537381e-05 0.000149373757193)
(-1.5459469038e-05 -1.96557520077e-05 0.000162981128809)
(-1.18636386952e-05 -2.40189361236e-05 0.000169800254413)
(-8.34222747063e-06 -2.7123214747e-05 0.000180431068578)
(-5.45678282305e-06 -2.90982092134e-05 0.000192386868426)
(-3.32210787258e-06 -3.02553961406e-05 0.000203641710414)
(-1.90609698053e-06 -3.08681022137e-05 0.000212678931139)
(-1.02511798716e-06 -3.11593096425e-05 0.000218457881564)
(-4.24997405629e-07 -3.12677798195e-05 0.000220365352925)
(1.86089476929e-07 -3.12387818506e-05 0.000218196141454)
(1.09839197676e-06 -3.10216250665e-05 0.000212164428442)
(2.56400988475e-06 -3.04735690321e-05 0.000202885237992)
(4.76372768188e-06 -2.93681222566e-05 0.000191399737578)
(7.72896958303e-06 -2.74280533385e-05 0.000179222205308)
(1.13351946784e-05 -2.43481319579e-05 0.00016836376106)
(1.50555045892e-05 -1.99817427918e-05 0.000161287310393)
(-2.31154896816e-05 -2.8325226454e-05 0.000150708612183)
(-1.87155873961e-05 -3.40456332082e-05 0.000154165726804)
(-1.41706240268e-05 -3.83084023479e-05 0.00016291232576)
(-1.01637342795e-05 -4.12258763134e-05 0.000173974654958)
(-6.8754117105e-06 -4.31183092647e-05 0.000184917730736)
(-4.3028797064e-06 -4.42598146271e-05 0.000193922087691)
(-2.27099136642e-06 -4.48727875161e-05 0.0001997442591)
(-5.23463042044e-07 -4.50943722483e-05 0.000201653711242)
(1.23711825429e-06 -4.4968730748e-05 0.000199409308994)
(3.30644524596e-06 -4.44451349899e-05 0.000193264825715)
(5.93860487436e-06 -4.33817683861e-05 0.000183952888807)
(9.30552924647e-06 -4.15520826449e-05 0.000172717989926)
(1.34086186274e-05 -3.86774058092e-05 0.00016137748726)
(1.80575825388e-05 -3.44447120411e-05 0.000152348314074)
(2.26045882362e-05 -2.87240213404e-05 0.000148573887064)
(-3.13018488076e-05 -3.74103663746e-05 0.000115953300601)
(-2.61769756025e-05 -4.43763749038e-05 0.000114406830586)
(-2.06554744055e-05 -4.97295544837e-05 0.000119772822389)
(-1.55098827756e-05 -5.356809348e-05 0.000128627164316)
(-1.09817586816e-05 -5.62060505405e-05 0.000138173123125)
(-7.10323627316e-06 -5.79008128674e-05 0.000146333035754)
(-3.72389897535e-06 -5.88571859813e-05 0.000151696809777)
(-6.07544142308e-07 -5.91992043154e-05 0.000153440399957)
(2.52333252039e-06 -5.89660218365e-05 0.000151294627546)
(5.94452129742e-06 -5.81111786572e-05 0.000145544776939)
(9.89008910297e-06 -5.65055218156e-05 0.000137017087845)
(1.45070825203e-05 -5.39396078961e-05 0.000127123340678)
(1.97613098943e-05 -5.01510334426e-05 0.000117939789702)
(2.54016231917e-05 -4.48335725756e-05 0.000112241278796)
(3.06902685264e-05 -3.78712631814e-05 0.000113412581877)
(-3.96187751601e-05 -4.64969944942e-05 6.14980104445e-05)
(-3.38360668495e-05 -5.45279713089e-05 5.38305585548e-05)
(-2.74017472286e-05 -6.08275719484e-05 5.48100215416e-05)
(-2.11453497969e-05 -6.54917965195e-05 6.05613248451e-05)
(-1.5358873218e-05 -6.8819646789e-05 6.79580663863e-05)
(-1.01093077085e-05 -7.10401360621e-05 7.47026447383e-05)
(-5.28159889042e-06 -7.23282240848e-05 7.92519357311e-05)
(-6.76365367665e-07 -7.2786459353e-05 8.07114460453e-05)
(3.94418473256e-06 -7.24461798862e-05 7.879144971e-05)
(8.81630420696e-06 -7.12684774678e-05 7.38002995129e-05)
(1.41374915843e-05 -6.91454867488e-05 6.66347689905e-05)
(2.00194827677e-05 -6.5897256686e-05 5.88404896412e-05)
(2.63926728592e-05 -6.12894737632e-05 5.27147392667e-05)
(3.29560187359e-05 -5.50311353795e-05 5.13572677952e-05)
(3.89135421194e-05 -4.70087804677e-05 5.85930510674e-05)
(-4.77053930821e-05 -5.52093967785e-05 -9.34531976094e-06)
(-4.13223636541e-05 -6.40657221453e-05 -2.36702497718e-05)
(-3.40532783444e-05 -7.11055992371e-05 -2.75605833851e-05)
(-2.67530615772e-05 -7.64409502777e-05 -2.53743493404e-05)
(-1.97495084922e-05 -8.03508138368e-05 -2.0543415e-05)
(-1.31400560956e-05 -8.30280469205e-05 -1.55469310029e-05)
(-6.85069613524e-06 -8.46093939607e-05 -1.20258177168e-05)
(-7.30173918688e-07 -8.51703700247e-05 -1.09203369008e-05)
(5.40578584231e-06 -8.47327373543e-05 -1.2532957958e-05)
(1.17402899445e-05 -8.32674053654e-05 -1.65420915888e-05)
(1.84231392053e-05 -8.06935456242e-05 -2.20046414811e-05)
(2.55252796215e-05 -7.68692102285e-05 -2.72762012151e-05)
(3.29462600613e-05 -7.15960774262e-05 -2.9876492338e-05)
(4.03502709102e-05 -6.46028866445e-05 -2.64062042978e-05)
(4.6914117201e-05 -5.57609344182e-05 -1.25682886501e-05)
(-5.52490518154e-05 -6.32252204839e-05 -9.28583592825e-05)
(-4.83170835253e-05 -7.26193689786e-05 -0.000113779538109)
(-4.03047754962e-05 -8.01465078958e-05 -0.000122515285291)
(-3.2061151689e-05 -8.59556613677e-05 -0.000123956072258)
(-2.39323859196e-05 -9.03022460775e-05 -0.000121809649966)
(-1.6039280654e-05 -9.33370991847e-05 -0.000118688605007)
(-8.35077906762e-06 -9.51534844231e-05 -0.000116288879195)
(-7.70096697295e-07 -9.5796856253e-05 -0.000115566648471)
(6.82551505481e-06 -9.52786447382e-05 -0.000116828522409)
(1.45582539732e-05 -9.35808868199e-05 -0.000119752013012)
(2.25239488441e-05 -9.06528440845e-05 -0.000123375967258)
(3.07510727009e-05 -8.6396058073e-05 -0.000125999665155)
(3.91156040842e-05 -8.06541954053e-05 -0.000125007604313)
(4.72648880415e-05 -7.31790724222e-05 -0.000116731986254)
(5.43793989498e-05 -6.38059365961e-05 -9.63517941418e-05)
(-6.19713154166e-05 -7.02561140694e-05 -0.000185049635205)
(-5.45380551111e-05 -7.98413287158e-05 -0.000211931245566)
(-4.58872523183e-05 -8.7556996277e-05 -0.000225044588107)
(-3.68306775381e-05 -9.36065258411e-05 -0.000229854870022)
(-2.77128244269e-05 -9.82156246432e-05 -0.000230291003198)
(-1.86693220466e-05 -0.000101486690893 -0.000229028458467)
(-9.71114628998e-06 -0.000103465444057 -0.000227760245477)
(-7.97952828042e-07 -0.000104165737681 -0.000227422717053)
(8.1292064162e-06 -0.000103588613086 -0.000228316958364)
(1.71293187775e-05 -0.000101727773613 -0.000230133029439)
(2.62423029687e-05 -9.85643107803e-05 -0.000231927465931)
(3.54551930466e-05 -9.40473739277e-05 -0.000231999693376)
(4.46292318152e-05 -8.80692250765e-05 -0.000227669057681)
(5.34154606552e-05 -8.04107860729e-05 -0.000215056438779)
(6.10289901182e-05 -7.08540963939e-05 -0.000188767186546)
(-6.764032423e-05 -7.60557294586e-05 -0.00028200123377)
(-5.97801984929e-05 -8.54620805913e-05 -0.000313885984698)
(-5.062087493e-05 -9.30551379923e-05 -0.000330710947809)
(-4.0905757829e-05 -9.90978939334e-05 -0.000338511172526)
(-3.09625306249e-05 -0.000103776500017 -0.00034134245516)
(-2.09380200289e-05 -0.00010714149854 -0.000341856485153)
(-1.08846676979e-05 -0.000109193658858 -0.000341685900204)
(-8.17093240357e-07 -0.00010991964733 -0.000341720831976)
(9.26328352578e-06 -0.000109312099487 -0.000342250525943)
(1.93554301071e-05 -0.00010737449748 -0.00034298561281)
(2.94448746927e-05 -0.000104115695964 -0.000343028821819)
(3.94778853735e-05 -9.95300894462e-05 -0.000340736424307)
(4.93049314741e-05 -9.35620969981e-05 -0.000333448619958)
(5.85960422323e-05 -8.60314402085e-05 -0.000317169703253)
(6.66319164172e-05 -7.66616403164e-05 -0.00028592925653)
(-7.20995152444e-05 -8.04390243716e-05 -0.000380093812692)
(-6.39069239242e-05 -8.92741198824e-05 -0.000415750193962)
(-5.43925494621e-05 -9.64350001264e-05 -0.000435586500605)
(-4.41918340641e-05 -0.000102229507586 -0.000446086735792)
(-3.36053336526e-05 -0.000106785562153 -0.000451247865124)
(-2.27920532302e-05 -0.000110099109927 -0.000453562837364)
(-1.18454688198e-05 -0.000112132413823 -0.000454527398375)
(-8.3141037577e-07 -0.000112851636951 -0.000454949971526)
(1.01942513931e-05 -0.000112243750562 -0.000455099247306)
(2.11763463885e-05 -0.000110319410353 -0.000454717293211)
(3.20495584475e-05 -0.000107108618416 -0.000452987105812)
(4.27196637266e-05 -0.000102644625117 -0.000448396353974)
(5.30254712492e-05 -9.69269744377e-05 -0.000438439910938)
(6.2666317556e-05 -8.98330617837e-05 -0.00041919363702)
(7.10282737723e-05 -8.10426128281e-05 -0.000384237999028)
(-7.52254989623e-05 -8.32123651661e-05 -0.000475446266301)
(-6.68369720531e-05 -9.11118307627e-05 -0.000513507115859)
(-5.71398923107e-05 -9.75734575589e-05 -0.000535850768167)
(-4.66294896377e-05 -0.000102898858161 -0.000549032308769)
(-3.55870373071e-05 -0.00010714195632 -0.000556700977929)
(-2.41907153403e-05 -0.000110251475336 -0.000561022859438)
(-1.25729722677e-05 -0.000112166403791 -0.000563271302329)
(-8.43737179746e-07 -0.000112843756739 -0.00056413547232)
(1.08960284593e-05 -0.000112268725289 -0.00056385392373)
(2.25462210962e-05 -0.000110455020686 -0.000562208075075)
(3.39973767402e-05 -0.000107442479082 -0.000558498666266)
(4.5116870268e-05 -0.000103288609826 -0.000551433793797)
(5.57250418254e-05 -9.80409500939e-05 -0.000538828915794)
(6.55426502579e-05 -9.16505427572e-05 -0.00051711674862)
(7.40936598834e-05 -8.38026642005e-05 -0.000479813143495)
(-7.70142256664e-05 -8.42557012039e-05 -0.000563373284742)
(-6.85816833157e-05 -9.10067789025e-05 -0.000602750158523)
(-5.88428831428e-05 -9.65345974976e-05 -0.000627626448566)
(-4.81717535928e-05 -0.0001011753755 -0.00064392000411)
(-3.68571775114e-05 -0.000104897144371 -0.000654609070614)
(-2.50949118907e-05 -0.000107629878625 -0.000661369534615)
(-1.30471144847e-05 -0.000109313283626 -0.000665180233096)
(-8.55922697901e-07 -0.00010990909749 -0.000666582722441)
(1.13449273739e-05 -0.000109404976151 -0.000665775250339)
(2.34224719508e-05 -0.000107813064084 -0.000662586352615)
(3.52349017607e-05 -0.000105169394716 -0.000656467105112)
(4.6620282081e-05 -0.000101532008828 -0.00064642136781)
(5.73819963026e-05 -9.69685140492e-05 -0.000630745833052)
(6.7235323072e-05 -9.15156456002e-05 -0.000606537172147)
(7.58209437013e-05 -8.48247273266e-05 -0.000567951131019)
(-7.75634328471e-05 -8.44472913181e-05 -0.000637442676428)
(-6.91365550635e-05 -8.93377776837e-05 -0.000678715490596)
(-5.93904179344e-05 -9.36610956223e-05 -0.000706927423384)
(-4.87097950131e-05 -9.73004355887e-05 -0.000727303380371)
(-3.73313776701e-05 -0.000100203757664 -0.000741884315224)
(-2.54499901192e-05 -0.000102324513409 -0.000751738821363)
(-1.3241737862e-05 -0.000103627156408 -0.000757511871164)
(-8.68858564016e-07 -0.000104089776323 -0.000759585527931)
(1.15130746899e-05 -0.000103705929415 -0.000758115058259)
(2.37490369227e-05 -0.000102482466174 -0.000752977451314)
(3.56769044903e-05 -0.00010043994326 -0.000743789471284)
(4.71208755719e-05 -9.76129282537e-05 -0.000729896498238)
(5.78855897346e-05 -9.40467248835e-05 -0.00071019379646)
(6.77438801898e-05 -8.98011007955e-05 -0.000682737647804)
(7.63047700595e-05 -8.49762553875e-05 -0.000642100825365)
(1.09692198713e-07 2.237166543e-07 5.60606928047e-05)
(-2.3195109344e-09 3.31910040811e-07 5.97853998827e-05)
(-9.03455231184e-08 3.93217577044e-07 6.37888956105e-05)
(-1.40835957696e-07 4.16320988063e-07 6.76088709667e-05)
(-1.52720377614e-07 4.150799435e-07 7.09030097101e-05)
(-1.27117700607e-07 4.02275265966e-07 7.34229395278e-05)
(-7.35073368175e-08 3.89353953415e-07 7.49993865989e-05)
(-4.93114125056e-09 3.84213896841e-07 7.5532467492e-05)
(6.32703071769e-08 3.89652551483e-07 7.4982972852e-05)
(1.16007421485e-07 4.02930826012e-07 7.33902951258e-05)
(1.41234650185e-07 4.16376529237e-07 7.08544329323e-05)
(1.30809221727e-07 4.18599679635e-07 6.75444333289e-05)
(8.39580795243e-08 3.96966457023e-07 6.37075419261e-05)
(9.82474971075e-10 3.37429559956e-07 5.96817712679e-05)
(-1.07811105757e-07 2.28928399516e-07 5.59167264486e-05)
(6.93354570723e-07 1.02768024191e-06 0.000145763899737)
(4.00292261861e-07 1.356622792e-06 0.00015458973053)
(1.43698145273e-07 1.56808625382e-06 0.000164427449263)
(-3.31245349031e-08 1.67821825458e-06 0.00017400558609)
(-1.25960801362e-07 1.71886967866e-06 0.000182365206438)
(-1.37567293457e-07 1.71976150003e-06 0.000188807054218)
(-8.81393494469e-08 1.70795492735e-06 0.00019285275198)
(-6.02727490256e-09 1.70200684777e-06 0.000194218941992)
(7.5147837534e-08 1.70850365773e-06 0.00019280104565)
(1.22173670167e-07 1.72093134384e-06 0.000188704331121)
(1.08287234426e-07 1.72108208646e-06 0.000182212592214)
(1.57533732641e-08 1.68189982231e-06 0.000173803621387)
(-1.56915595811e-07 1.57349495886e-06 0.000164173473134)
(-4.0682176553e-07 1.36365402319e-06 0.000154268669166)
(-6.9524872753e-07 1.0325997521e-06 0.000145333784161)
(1.60011228049e-06 2.12301535228e-06 0.000212640423625)
(1.14981706498e-06 2.6731935078e-06 0.000224317553902)
(7.20372037393e-07 3.05160554532e-06 0.000237868294665)
(3.87292702189e-07 3.27635567411e-06 0.000251338972628)
(1.59969563317e-07 3.39108272033e-06 0.000263237753024)
(3.59773602795e-08 3.43573456978e-06 0.00027247212816)
(-1.01691027709e-08 3.4463672229e-06 0.000278293102004)
(-1.45879997291e-08 3.44756252974e-06 0.000280256913972)
(-1.9856320347e-08 3.44812479488e-06 0.000278205358866)
(-6.78766881888e-08 3.43960515546e-06 0.000272297965607)
(-1.92595245471e-07 3.39790259044e-06 0.000262979295509)
(-4.16426832745e-07 3.28675685222e-06 0.000250997459113)
(-7.40270102429e-07 3.06552859406e-06 0.000237440216739)
(-1.15712626465e-06 2.68946492585e-06 0.00022378112051)
(-1.59842368341e-06 2.13709088317e-06 0.00021193611269)
(2.67574190422e-06 3.37351503237e-06 0.000258027444572)
(2.08715135132e-06 4.11782897909e-06 0.000270500163103)
(1.48903936454e-06 4.64720997216e-06 0.000285794617778)
(9.88009579658e-07 4.97886851967e-06 0.000301404939472)
(5.9933874942e-07 5.16676785122e-06 0.000315395219933)
(3.22373965519e-07 5.25803896488e-06 0.000326343250456)
(1.2989755385e-07 5.29447184923e-06 0.00033327374275)
(-1.72253808515e-08 5.30405552777e-06 0.000335609778782)
(-1.64976512369e-07 5.29676394326e-06 0.000333150317263)
(-3.58580074782e-07 5.26308120527e-06 0.00032609840812)
(-6.34959743741e-07 5.1754928905e-06 0.000315032164233)
(-1.01835038775e-06 4.99194319066e-06 0.000300925908228)
(-1.50791821223e-06 4.66437216311e-06 0.000285196304261)
(-2.09108626887e-06 4.13739174e-06 0.000269757382293)
(-2.66936046703e-06 3.39124497182e-06 0.000257070460029)
(3.81039004884e-06 4.66108917455e-06 0.000283254423654)
(3.09527244206e-06 5.55755377926e-06 0.00029467298913)
(2.33459537056e-06 6.2050819142e-06 0.000309927396603)
(1.66324880449e-06 6.61829384508e-06 0.000326075924691)
(1.10344369983e-06 6.86160130087e-06 0.000340825067131)
(6.57477911056e-07 6.98832264228e-06 0.000352487776289)
(2.98251561292e-07 7.04458362679e-06 0.000359909119807)
(-1.42988604279e-08 7.06061005049e-06 0.000362408075767)
(-3.27241066351e-07 7.04709934429e-06 0.000359751083551)
(-6.86904016215e-07 6.9938242268e-06 0.000352174387344)
(-1.13135067403e-06 6.87096234288e-06 0.000340360621677)
(-1.68509965363e-06 6.63212172412e-06 0.000325463990489)
(-2.34461756114e-06 6.22297957969e-06 0.000309165955305)
(-3.09028211178e-06 5.57777307858e-06 0.000293735620932)
(-3.79575657563e-06 4.67991846255e-06 0.00028206523416)
(4.91785586209e-06 5.89284217076e-06 0.000289711627195)
(4.08385835172e-06 6.88851601801e-06 0.000298456932728)
(3.17039245981e-06 7.60840971117e-06 0.000312111935843)
(2.33539645374e-06 8.06526677604e-06 0.000327392008024)
(1.60879860785e-06 8.33457197916e-06 0.000341723499852)
(9.96299052792e-07 8.47601292587e-06 0.000353215304452)
(4.71676548977e-07 8.53980967032e-06 0.000360577584673)
(-5.48888809987e-09 8.55815908445e-06 0.000363053309882)
(-4.82887110412e-07 8.54239825377e-06 0.0003603859314)
(-1.00755081343e-06 8.48165207423e-06 0.000352835336884)
(-1.61823315345e-06 8.34403401952e-06 0.000341160649246)
(-2.33909807193e-06 8.07906156923e-06 0.000326651633597)
(-3.16347228104e-06 7.62599092575e-06 0.000311194419182)
(-4.06369978941e-06 6.9083249167e-06 0.000297335805881)
(-4.89025086078e-06 5.91161651738e-06 0.0002883057322)
(5.92149006543e-06 6.98271385505e-06 0.000278821731457)
(4.97579624742e-06 8.01701904713e-06 0.000283512141876)
(3.9255677963e-06 8.75387368407e-06 0.000294248452744)
(2.94375619322e-06 9.20824202312e-06 0.000307468060261)
(2.06765957826e-06 9.46701772531e-06 0.000320381482627)
(1.30592372963e-06 9.59692325368e-06 0.000330946987762)
(6.3324988291e-07 9.65242317995e-06 0.000337780043192)
(8.82564798603e-09 9.66780004294e-06 0.000340072995795)
(-6.15784867576e-07 9.65503439156e-06 0.000337554744008)
(-1.28848668468e-06 9.60260827325e-06 0.000330500426144)
(-2.0488028571e-06 9.47645113407e-06 0.000319720422528)
(-2.92050711513e-06 9.22182670852e-06 0.000306600384956)
(-3.89418405496e-06 8.77093230033e-06 0.000293178175681)
(-4.93430920568e-06 8.03617897474e-06 0.000282213319233)
(-5.87603383846e-06 7.00110257158e-06 0.00027720805784)
(6.75916376521e-06 7.8588330834e-06 0.000251965379179)
(5.71082246892e-06 8.87007415087e-06 0.000251438635079)
(4.54713560886e-06 9.56560809127e-06 0.000258162419276)
(3.44508352081e-06 9.96995369253e-06 0.000268331322151)
(2.44749483786e-06 1.01811787229e-05 0.000278991499559)
(1.56455908138e-06 1.02732724541e-05 0.000287997394899)
(7.71518796902e-07 1.0304757978e-05 0.000293905793397)
(2.72289462109e-08 1.03119214022e-05 0.000295881033454)
(-7.17278441372e-07 1.03073613995e-05 0.000293644865824)
(-1.51060353205e-06 1.02789783011e-05 0.0002874804431)
(-2.39301346738e-06 1.01906043184e-05 0.000278227079031)
(-3.38822048154e-06 9.9834103004e-06 0.000267330955961)
(-4.4854423311e-06 9.58231133799e-06 0.00025693522258)
(-5.64297823297e-06 8.88882175792e-06 0.000249959446049)
(-6.69150533037e-06 7.87688724779e-06 0.000250143287956)
(7.38970456799e-06 8.47935526485e-06 0.000210411775004)
(6.24935484852e-06 9.41394522021e-06 0.000203689305282)
(5.00109481844e-06 1.00160838548e-05 0.000205491105266)
(3.81254089088e-06 1.03299548589e-05 0.000211776758971)
(2.72880946679e-06 1.04635745916e-05 0.000219472688094)
(1.75929625543e-06 1.04972779027e-05 0.000226375298406)
(8.79163770865e-07 1.04927450846e-05 0.000231017876872)
(4.73797631076e-08 1.04877257317e-05 0.000232557860259)
(-7.84655378471e-07 1.04952985837e-05 0.000230716622175)
(-1.66536910054e-06 1.05029516475e-05 0.000225778911578)
(-2.63536637195e-06 1.04729610242e-05 0.000218592356154)
(-3.71885555209e-06 1.0343345625e-05 0.000210629083426)
(-4.90596407056e-06 1.0032651979e-05 0.000204092048647)
(-6.1522053023e-06 9.43273401976e-06 0.000202014492593)
(-7.2968790265e-06 8.49763365714e-06 0.000208367286933)
(7.77423877687e-06 8.81284023205e-06 0.000155299130723)
(6.54766712825e-06 9.60532892218e-06 0.000141548009375)
(5.24339015226e-06 1.00587461681e-05 0.000137644951806)
(4.00752780509e-06 1.02452146022e-05 0.000139306486138)
(2.88123515917e-06 1.02787306091e-05 0.000143390201042)
(1.86887447147e-06 1.02419909316e-05 0.000147688318431)
(9.44087278361e-07 1.01958330153e-05 0.000150748893426)
(6.62794093365e-08 1.01767702997e-05 0.000151743331781)
(-8.11699730308e-07 1.01974433691e-05 0.000150399157027)
(-1.73703539812e-06 1.02459331172e-05 0.000146996614882)
(-2.75034090096e-06 1.02858293642e-05 0.000142371861131)
(-3.87771332888e-06 1.02559555159e-05 0.000137984773559)
(-5.11445799685e-06 1.0072600308e-05 0.000136044852968)
(-6.41980237472e-06 9.62185923406e-06 0.000139645855026)
(-7.65361349919e-06 8.82959503857e-06 0.000152999419021)
(7.88135194222e-06 8.8384053996e-06 8.80979609681e-05)
(6.59826184071e-06 9.44727125632e-06 6.69806682211e-05)
(5.27552784296e-06 9.7189070776e-06 5.68946967575e-05)
(4.03250980976e-06 9.75452419529e-06 5.33227560715e-05)
(2.90470166619e-06 9.67097452214e-06 5.31675460306e-05)
(1.89090635483e-06 9.55175386531e-06 5.43290611131e-05)
(9.63437156492e-07 9.45652082406e-06 5.54544068159e-05)
(8.21125190604e-08 9.42091553529e-06 5.57797862597e-05)
(-7.99218081076e-07 9.45733587707e-06 5.5055438139e-05)
(-1.72693244272e-06 9.55419582497e-06 5.35400427238e-05)
(-2.74162363751e-06 9.6760434296e-06 5.20074115461e-05)
(-3.87108868166e-06 9.76289511016e-06 5.18214962017e-05)
(-5.11643442886e-06 9.73037649881e-06 5.50866843857e-05)
(-6.44259036804e-06 9.46191774379e-06 6.4841324696e-05)
(-7.73520641641e-06 8.8543822626e-06 8.55304256986e-05)
(7.74133690786e-06 8.59383245951e-06 1.14905477043e-05)
(6.43068708576e-06 8.98659903268e-06 -1.68619245467e-05)
(5.12901928853e-06 9.06020739046e-06 -3.33215515388e-05)
(3.91926274211e-06 8.94307022413e-06 -4.2547702861e-05)
(2.82745695527e-06 8.74810356793e-06 -4.74315472656e-05)
(1.84657756967e-06 8.5538700172e-06 -4.98396004166e-05)
(9.48512095737e-07 8.41522475007e-06 -5.09416344166e-05)
(9.46819884795e-08 8.36510289311e-06 -5.13886143486e-05)
(-7.58914870973e-07 8.41492543731e-06 -5.13922768506e-05)
(-1.65666606621e-06 8.55417435384e-06 -5.07315957336e-05)
(-2.63788292072e-06 8.75016056039e-06 -4.87433875319e-05)
(-3.73113308043e-06 8.94785441821e-06 -4.4242951016e-05)
(-4.94363306169e-06 9.06797170418e-06 -3.53552587061e-05)
(-6.24995161059e-06 8.99807413052e-06 -1.92594885011e-05)
(-7.57142451004e-06 8.60799912418e-06 8.63091465243e-06)
(7.37631070727e-06 8.09952976784e-06 -7.10135617233e-05)
(6.07386675827e-06 8.26102145851e-06 -0.000106054046164)
(4.83495180916e-06 8.14174571808e-06 -0.000128941303958)
(3.69521915549e-06 7.88856957517e-06 -0.000144183786023)
(2.67052839354e-06 7.60173945746e-06 -0.000154243079937)
(1.74976610349e-06 7.34903536318e-06 -0.000160616850891)
(9.06126130487e-07 7.17777528711e-06 -0.00016421248117)
(1.03816391393e-07 7.11671798395e-06 -0.000165526101421)
(-6.9799229257e-07 7.17613439067e-06 -0.000164718504895)
(-1.54066627382e-06 7.34665521459e-06 -0.000161620100455)
(-2.46089845924e-06 7.59990682116e-06 -0.000155721036658)
(-3.48618826234e-06 7.8886325911e-06 -0.000146095093601)
(-4.62818439126e-06 8.14465025707e-06 -0.000131228943657)
(-5.87193772788e-06 8.26826640611e-06 -0.000108739701329)
(-7.18536654122e-06 8.11080987416e-06 -7.41950313068e-05)
(6.81650773453e-06 7.38998362121e-06 -0.000154521998528)
(5.56858539814e-06 7.32928816684e-06 -0.000195660539579)
(4.43102918781e-06 7.04179860872e-06 -0.000225191540648)
(3.38882958232e-06 6.6872778498e-06 -0.00024691460234)
(2.45359157229e-06 6.34014975481e-06 -0.000262648093424)
(1.6128096473e-06 6.05310269104e-06 -0.000273402638468)
(8.42166109568e-07 5.86419950235e-06 -0.000279761552267)
(1.09430834194e-07 5.79732094991e-06 -0.00028203567958)
(-6.22619735554e-07 5.86107635573e-06 -0.000280325740334)
(-1.39173995565e-06 6.0477079292e-06 -0.000274524077719)
(-2.2310685526e-06 6.33385259273e-06 -0.000264306587312)
(-3.16567356686e-06 6.68179815577e-06 -0.000249068887582)
(-4.20889831889e-06 7.03881315852e-06 -0.000227773492677)
(-5.3505324842e-06 7.33136471293e-06 -0.000198673071228)
(-6.60822334324e-06 7.39789079386e-06 -0.000158046129065)
(6.09070476413e-06 6.53611977708e-06 -0.000232045069178)
(4.96553511698e-06 6.21175619769e-06 -0.000280119814482)
(3.94846505018e-06 5.81616438674e-06 -0.000316808917577)
(3.01926994285e-06 5.41332422622e-06 -0.000345626004259)
(2.18850523162e-06 5.04828601429e-06 -0.000367602715669)
(1.44263129263e-06 4.75860064045e-06 -0.000383177108277)
(7.59938090406e-07 4.57188580208e-06 -0.000392572940712)
(1.11490686353e-07 4.50600209173e-06 -0.000395899563942)
(-5.36188662998e-07 4.56737523716e-06 -0.000393192790055)
(-1.21709368293e-06 4.75027437512e-06 -0.000384413038102)
(-1.96091709982e-06 5.03747169427e-06 -0.000369441332605)
(-2.78998381485e-06 5.401874786e-06 -0.00034803630203)
(-3.71851371235e-06 5.80640989e-06 -0.000319719849917)
(-4.73832699925e-06 6.20755673829e-06 -0.000283545065602)
(-5.86927673941e-06 6.53892301414e-06 -0.000235834109857)
(-9.53898054482e-08 -1.56040946923e-07 3.3128764544e-05)
(-4.6341122257e-08 -2.15817831996e-07 3.58410907063e-05)
(-1.30378418435e-08 -2.53444785543e-07 3.8999192079e-05)
(9.76965146012e-09 -2.76766789878e-07 4.2119632084e-05)
(2.14805888756e-08 -2.90261131105e-07 4.48603869739e-05)
(2.28664541605e-08 -2.96970438914e-07 4.69785142183e-05)
(1.70173884897e-08 -2.99614521858e-07 4.83107561638e-05)
(7.45487155133e-09 -3.00089675886e-07 4.87616002064e-05)
(-2.15402548211e-09 -2.99131116863e-07 4.82956898257e-05)
(-8.26419622566e-09 -2.96236875109e-07 4.69485140412e-05)
(-7.97539603866e-09 -2.89770272138e-07 4.48156399674e-05)
(8.94241164005e-10 -2.7711875083e-07 4.2059950781e-05)
(1.96576064663e-08 -2.54864778619e-07 3.89230348052e-05)
(4.85416047079e-08 -2.18886813491e-07 3.57417878073e-05)
(9.42357732467e-08 -1.59685396986e-07 3.29831713489e-05)
(-3.32943949956e-07 -5.21002254039e-07 8.01385816776e-05)
(-2.09062685417e-07 -6.77941071768e-07 8.62799791395e-05)
(-1.19554099801e-07 -7.82818090168e-07 9.38998113554e-05)
(-5.55565387467e-08 -8.50666574939e-07 0.000101661116116)
(-1.57173683542e-08 -8.92158132036e-07 0.000108593528643)
(3.05353770392e-09 -9.14594800694e-07 0.000114004065132)
(7.18367399653e-09 -9.24538370716e-07 0.000117425185207)
(3.88256501369e-09 -9.26517149321e-07 0.00011858244236)
(8.72837710796e-10 -9.22263532583e-07 0.000117378334031)
(5.80613891174e-09 -9.10452379182e-07 0.000113910744909)
(2.52149246381e-08 -8.86949607268e-07 0.000108454327108)
(6.43428119226e-08 -8.45233404061e-07 0.000101475667321)
(1.2671079782e-07 -7.76847521683e-07 9.36639547192e-05)
(2.14623371121e-07 -6.72199424991e-07 8.5974784483e-05)
(3.37273293831e-07 -5.1406036395e-07 7.97101692584e-05)
(-6.32277488832e-07 -8.94535615126e-07 0.000108010270751)
(-4.39783061519e-07 -1.136215651e-06 0.000115700031725)
(-2.87624372133e-07 -1.30606297208e-06 0.000126002033012)
(-1.71567974147e-07 -1.42059257058e-06 0.000136843339093)
(-8.98144310688e-08 -1.49361731784e-06 0.00014669617735)
(-3.75609612655e-08 -1.53585634008e-06 0.000154462568218)
(-5.91362299706e-09 -1.55641648012e-06 0.000159399144512)
(1.51006028156e-08 -1.56166092437e-06 0.000161068939703)
(3.60594075097e-08 -1.55405607219e-06 0.00015932011794)
(6.73258973168e-08 -1.53183847295e-06 0.000154305190149)
(1.1784725471e-07 -1.48923021563e-06 0.000146461549256)
(1.95021171137e-07 -1.41699349647e-06 0.000136531278907)
(3.04055758436e-07 -1.30320982624e-06 0.000125606939537)
(4.48588238782e-07 -1.13462393194e-06 0.000115194729403)
(6.35341511421e-07 -8.92595775457e-07 0.000107318630452)
(-9.03927086408e-07 -1.22652091538e-06 0.000118249151825)
(-6.56255152121e-07 -1.52495885887e-06 0.000125804883442)
(-4.50512721762e-07 -1.73744888986e-06 0.000137164606413)
(-2.88729534191e-07 -1.88091015321e-06 0.000149641361575)
(-1.68857067095e-07 -1.97193653058e-06 0.000161226403297)
(-8.47823152064e-08 -2.02448742004e-06 0.000170467004941)
(-2.58491223815e-08 -2.05014274935e-06 0.00017637687125)
(1.99797859076e-08 -2.05685569996e-06 0.000178375891529)
(6.55563885446e-08 -2.04764846305e-06 0.000176265233677)
(1.23492644196e-07 -2.02023850026e-06 0.000170244792318)
(2.04826073778e-07 -1.9672369737e-06 0.000160895492832)
(3.1878484876e-07 -1.87688895536e-06 0.000149202463591)
(4.7174430438e-07 -1.73421611345e-06 0.000136612484621)
(6.67615758666e-07 -1.5228991747e-06 0.000125108782591)
(9.07736087453e-07 -1.22467991417e-06 0.000117320613974)
(-1.1433563011e-06 -1.51047326159e-06 0.000112214183344)
(-8.51226750254e-07 -1.84415994413e-06 0.000118135632794)
(-5.99717060593e-07 -2.08213559665e-06 0.000129084250073)