/*--------------------------------*- C++ -*----------------------------------*\
  =========                 |
  \\      /  F ield         | OpenFOAM: The Open Source CFD Toolbox
   \\    /   O peration     | Website:  https://openfoam.org
    \\  /    A nd           | Version:  7
     \\/     M anipulation  |
\*---------------------------------------------------------------------------*/
FoamFile
{
    version     2.0;
    format      ascii;
    class       volScalarField;
    location    "2.26";
    object      p;
}
// * * * * * * * * * * * * * * * * * * * * * * * * * * * * * * * * * * * * * //

dimensions      [0 2 -2 0 0 0 0];

internalField   nonuniform List<scalar> 
22500
(
-3.20979709013e-05
-3.20955897215e-05
-3.2093928141e-05
-3.20919853349e-05
-3.20904908179e-05
-3.20894243425e-05
-3.20888564689e-05
-3.20887971916e-05
-3.20892668172e-05
-3.20902331891e-05
-3.20916712272e-05
-3.20934921232e-05
-3.20956959151e-05
-3.20975267029e-05
-3.21000357493e-05
-3.20844296969e-05
-3.20813057568e-05
-3.20789598034e-05
-3.20762990774e-05
-3.20741360082e-05
-3.20725306223e-05
-3.20716150611e-05
-3.20714374487e-05
-3.20720264e-05
-3.20733412041e-05
-3.20753189673e-05
-3.20778101545e-05
-3.20807368537e-05
-3.20832599806e-05
-3.20865228471e-05
-3.20712755671e-05
-3.2067433707e-05
-3.20644092941e-05
-3.20610343369e-05
-3.20582157829e-05
-3.2056077943e-05
-3.20548174695e-05
-3.20545218532e-05
-3.20552309086e-05
-3.20568927627e-05
-3.20594054635e-05
-3.20625552232e-05
-3.20662017277e-05
-3.20694097559e-05
-3.20733994933e-05
-3.20589602153e-05
-3.2054388863e-05
-3.20506177934e-05
-3.20464981061e-05
-3.20429978727e-05
-3.20403095997e-05
-3.20386917316e-05
-3.20382728442e-05
-3.203910495e-05
-3.20411240201e-05
-3.20441876885e-05
-3.2048021184e-05
-3.20524170603e-05
-3.2056379194e-05
-3.20611066632e-05
-3.20463629028e-05
-3.20409684387e-05
-3.2036335278e-05
-3.20313965858e-05
-3.20271509542e-05
-3.20238682339e-05
-3.20218658522e-05
-3.20213137426e-05
-3.20222764332e-05
-3.20246776375e-05
-3.20283341373e-05
-3.20329134251e-05
-3.20381319327e-05
-3.20429649882e-05
-3.20485253664e-05
-3.20331358174e-05
-3.20268172011e-05
-3.20212365028e-05
-3.20154306401e-05
-3.2010403455e-05
-3.20065057318e-05
-3.20041077773e-05
-3.20034186417e-05
-3.2004514451e-05
-3.20073076094e-05
-3.20115764888e-05
-3.20169369772e-05
-3.20230260338e-05
-3.20288152989e-05
-3.20353086487e-05
-3.20192945349e-05
-3.20119771863e-05
-3.20054138897e-05
-3.19987378453e-05
-3.1992937408e-05
-3.19884401457e-05
-3.19856596868e-05
-3.19848382033e-05
-3.19860615605e-05
-3.1989232794e-05
-3.19940977603e-05
-3.20002303789e-05
-3.20071920416e-05
-3.20139728343e-05
-3.20214734259e-05
-3.20049404771e-05
-3.19965895782e-05
-3.1989059544e-05
-3.19815613787e-05
-3.19750446199e-05
-3.19700020429e-05
-3.19668776097e-05
-3.19659374659e-05
-3.19672742707e-05
-3.19707846817e-05
-3.1976191171e-05
-3.19830386837e-05
-3.19908243207e-05
-3.19985799607e-05
-3.20071214021e-05
-3.1990218093e-05
-3.19808489887e-05
-3.19724192411e-05
-3.19641984177e-05
-3.19570701222e-05
-3.1951574136e-05
-3.19481686227e-05
-3.19471319295e-05
-3.19485597273e-05
-3.19523461101e-05
-3.19582019615e-05
-3.19656591763e-05
-3.19741687579e-05
-3.1982831241e-05
-3.19923990625e-05
-3.19752978168e-05
-3.19649726567e-05
-3.19557573977e-05
-3.19469614395e-05
-3.19393705458e-05
-3.19335470336e-05
-3.19299448256e-05
-3.19288411787e-05
-3.19303301015e-05
-3.19343078433e-05
-3.1940487069e-05
-3.19484048586e-05
-3.19574903122e-05
-3.19669444656e-05
-3.19774756518e-05
-3.19603380032e-05
-3.19491588251e-05
-3.19393161508e-05
-3.1930135342e-05
-3.19222677902e-05
-3.19162698759e-05
-3.19125723236e-05
-3.19114368008e-05
-3.19129513026e-05
-3.19170187493e-05
-3.19233679422e-05
-3.19315602471e-05
-3.19410309362e-05
-3.19511178016e-05
-3.19625116884e-05
-3.19454234863e-05
-3.193354164e-05
-3.19232834201e-05
-3.1913946443e-05
-3.1906015869e-05
-3.19000157188e-05
-3.18963347167e-05
-3.18952060228e-05
-3.18967067159e-05
-3.19007513356e-05
-3.19070981209e-05
-3.19153510321e-05
-3.19249780282e-05
-3.19354849391e-05
-3.19475908764e-05
-3.19304250027e-05
-3.19181431533e-05
-3.1907771884e-05
-3.18985446489e-05
-3.18907852535e-05
-3.18849671824e-05
-3.18814212758e-05
-3.18803396794e-05
-3.18817850888e-05
-3.18856873831e-05
-3.18918466695e-05
-3.18999256976e-05
-3.19094430385e-05
-3.19200664829e-05
-3.19325808545e-05
-3.19151067935e-05
-3.19028561343e-05
-3.18927247536e-05
-3.18839055277e-05
-3.18765792189e-05
-3.1871151643e-05
-3.18678732061e-05
-3.18668835015e-05
-3.18682270283e-05
-3.18718530145e-05
-3.18776150917e-05
-3.18852576841e-05
-3.18943671309e-05
-3.19047559674e-05
-3.19172410059e-05
-3.19009621772e-05
-3.1887538758e-05
-3.18779451677e-05
-3.18697367125e-05
-3.18630786031e-05
-3.18582374003e-05
-3.18553506116e-05
-3.1854494642e-05
-3.18556942151e-05
-3.18589192304e-05
-3.18640880089e-05
-3.18710589144e-05
-3.18795602352e-05
-3.18894198308e-05
-3.19030675459e-05
-3.109229693e-05
-3.10925688144e-05
-3.10930227423e-05
-3.10935743562e-05
-3.10940725757e-05
-3.10944411994e-05
-3.10946276823e-05
-3.10946070947e-05
-3.10943729903e-05
-3.10939401621e-05
-3.10933436804e-05
-3.10926459479e-05
-3.1091934958e-05
-3.10913689108e-05
-3.10910171298e-05
-3.10909391726e-05
-3.10912373701e-05
-3.1091722971e-05
-3.10923253682e-05
-3.10928825263e-05
-3.10933052307e-05
-3.10935296933e-05
-3.10935238226e-05
-3.10932789221e-05
-3.10928124546e-05
-3.10921665273e-05
-3.10914138186e-05
-3.10906528621e-05
-3.10900514054e-05
-3.10896659039e-05
-3.10904192616e-05
-3.10908154955e-05
-3.10913851451e-05
-3.10920722839e-05
-3.10927055237e-05
-3.10931891986e-05
-3.10934534232e-05
-3.1093461565e-05
-3.10932031225e-05
-3.10926968506e-05
-3.10919888932e-05
-3.10911586077e-05
-3.10903111333e-05
-3.10896250417e-05
-3.10891418941e-05
-3.10907572315e-05
-3.10912479693e-05
-3.10918851691e-05
-3.10926259419e-05
-3.10932969836e-05
-3.10938055435e-05
-3.10940841801e-05
-3.10940978229e-05
-3.10938362895e-05
-3.10933173796e-05
-3.10925851014e-05
-3.10917165426e-05
-3.1090814266e-05
-3.1090059008e-05
-3.10894803326e-05
-3.10913295183e-05
-3.10918306304e-05
-3.10924506087e-05
-3.10931524305e-05
-3.10937751689e-05
-3.10942387427e-05
-3.10944868456e-05
-3.109449117e-05
-3.10942440349e-05
-3.10937600317e-05
-3.10930755587e-05
-3.10922561903e-05
-3.10913918534e-05
-3.10906514192e-05
-3.10900599709e-05
-3.10916921953e-05
-3.10920875416e-05
-3.10925868566e-05
-3.1093146642e-05
-3.10936312224e-05
-3.109398014e-05
-3.10941539422e-05
-3.10941348025e-05
-3.10939185195e-05
-3.10935154512e-05
-3.10929505954e-05
-3.1092271993e-05
-3.10915492152e-05
-3.10909266927e-05
-3.10904370913e-05
-3.10916237401e-05
-3.10918066279e-05
-3.1092097563e-05
-3.10924335296e-05
-3.10927116019e-05
-3.10928949229e-05
-3.10929633339e-05
-3.10929107934e-05
-3.10927368285e-05
-3.10924472373e-05
-3.10920542175e-05
-3.1091585668e-05
-3.10910868798e-05
-3.10906695e-05
-3.10903895328e-05
-3.1091043269e-05
-3.10909335159e-05
-3.10909588924e-05
-3.10910220667e-05
-3.10910556947e-05
-3.10910469461e-05
-3.10909947446e-05
-3.10909041954e-05
-3.10907785453e-05
-3.10906190149e-05
-3.10904256001e-05
-3.1090206127e-05
-3.10899809772e-05
-3.10898262373e-05
-3.10898355277e-05
-3.10899608141e-05
-3.10895157277e-05
-3.10892507854e-05
-3.10890245745e-05
-3.10888038911e-05
-3.10885983185e-05
-3.10884238736e-05
-3.10882952738e-05
-3.10882188945e-05
-3.10881919525e-05
-3.10882037929e-05
-3.1088244107e-05
-3.10883099289e-05
-3.10884431811e-05
-3.10887853046e-05
-3.10884443159e-05
-3.10876574926e-05
-3.10871048858e-05
-3.10865989147e-05
-3.1086136082e-05
-3.10857458497e-05
-3.1085458004e-05
-3.10852949555e-05
-3.10852651091e-05
-3.10853627683e-05
-3.1085568633e-05
-3.10858573861e-05
-3.10862053586e-05
-3.10866245525e-05
-3.10873065376e-05
-3.10865932864e-05
-3.10854902956e-05
-3.10846733548e-05
-3.10839149745e-05
-3.10832369876e-05
-3.10826851692e-05
-3.10822997884e-05
-3.10821079822e-05
-3.10821195767e-05
-3.10823266589e-05
-3.10827041348e-05
-3.10832152815e-05
-3.10838190073e-05
-3.10845017142e-05
-3.10854992847e-05
-3.10845240479e-05
-3.10831519102e-05
-3.10821052233e-05
-3.10811305279e-05
-3.10802721329e-05
-3.10795885705e-05
-3.1079125266e-05
-3.10789120772e-05
-3.10789582516e-05
-3.10792557729e-05
-3.10797758741e-05
-3.1080475462e-05
-3.10812999016e-05
-3.10822126764e-05
-3.10834786e-05
-3.10823593641e-05
-3.108077288e-05
-3.10795297834e-05
-3.10783757068e-05
-3.10773748817e-05
-3.10765915258e-05
-3.10760733605e-05
-3.10758458092e-05
-3.10759201369e-05
-3.10762856153e-05
-3.10769168937e-05
-3.10777680249e-05
-3.10787776371e-05
-3.1079888798e-05
-3.10813700607e-05
-3.10802105516e-05
-3.1078442674e-05
-3.10770292122e-05
-3.10757326638e-05
-3.10746331396e-05
-3.10737899728e-05
-3.10732407281e-05
-3.10730097718e-05
-3.10731016426e-05
-3.1073511675e-05
-3.10742155083e-05
-3.10751754362e-05
-3.10763340114e-05
-3.10776191358e-05
-3.10792852848e-05
-3.10780226011e-05
-3.10761973016e-05
-3.10746417311e-05
-3.10732552319e-05
-3.10721149008e-05
-3.10712577039e-05
-3.10707097926e-05
-3.10704834337e-05
-3.10705838809e-05
-3.10710051108e-05
-3.1071734511e-05
-3.1072745455e-05
-3.10740028072e-05
-3.10754331051e-05
-3.10771621898e-05
-2.89502311122e-05
-2.89502305156e-05
-2.89502762389e-05
-2.89503624325e-05
-2.89504681024e-05
-2.89505782539e-05
-2.89506783265e-05
-2.89507558978e-05
-2.8950805272e-05
-2.8950827074e-05
-2.89508261753e-05
-2.89508092086e-05
-2.8950784206e-05
-2.89507552404e-05
-2.8950728681e-05
-2.89503704317e-05
-2.8950374306e-05
-2.89504236615e-05
-2.89505100975e-05
-2.89506153433e-05
-2.8950724262e-05
-2.89508228631e-05
-2.89508992913e-05
-2.89509478167e-05
-2.89509689528e-05
-2.89509672619e-05
-2.89509491588e-05
-2.89509224015e-05
-2.89508908788e-05
-2.89508634642e-05
-2.89503627214e-05
-2.89503602003e-05
-2.89504025848e-05
-2.8950480116e-05
-2.89505777133e-05
-2.89506801964e-05
-2.89507740239e-05
-2.89508479779e-05
-2.89508964758e-05
-2.89509199821e-05
-2.89509227776e-05
-2.89509109001e-05
-2.89508917333e-05
-2.89508684149e-05
-2.89508507756e-05
-2.89503203304e-05
-2.89503137644e-05
-2.89503504998e-05
-2.8950420837e-05
-2.89505116822e-05
-2.89506081227e-05
-2.89506970378e-05
-2.89507679236e-05
-2.8950815439e-05
-2.89508400713e-05
-2.8950845945e-05
-2.8950838896e-05
-2.89508260386e-05
-2.8950809714e-05
-2.89508001893e-05
-2.89502915591e-05
-2.89502880376e-05
-2.89503241947e-05
-2.89503911071e-05
-2.89504774473e-05
-2.89505690392e-05
-2.89506535047e-05
-2.89507209173e-05
-2.89507662284e-05
-2.89507899368e-05
-2.89507961086e-05
-2.89507904633e-05
-2.89507799278e-05
-2.89507662479e-05
-2.89507597291e-05
-2.89502849122e-05
-2.8950288447e-05
-2.89503281634e-05
-2.8950395208e-05
-2.89504794598e-05
-2.89505677207e-05
-2.89506482942e-05
-2.89507120544e-05
-2.89507542576e-05
-2.89507755073e-05
-2.89507798012e-05
-2.89507727879e-05
-2.89507612142e-05
-2.89507465276e-05
-2.89507382774e-05
-2.8950299945e-05
-2.89503146822e-05
-2.89503608666e-05
-2.89504299916e-05
-2.89505134068e-05
-2.89505989225e-05
-2.89506757792e-05
-2.8950735643e-05
-2.89507741375e-05
-2.89507919667e-05
-2.89507930401e-05
-2.89507828968e-05
-2.89507680599e-05
-2.89507499547e-05
-2.89507365416e-05
-2.89503345733e-05
-2.89503620659e-05
-2.89504155014e-05
-2.89504879127e-05
-2.89505712912e-05
-2.89506544337e-05
-2.89507276405e-05
-2.89507834491e-05
-2.89508179403e-05
-2.89508319203e-05
-2.89508291691e-05
-2.89508150597e-05
-2.89507958564e-05
-2.89507731881e-05
-2.8950752477e-05
-2.89503840673e-05
-2.89504247751e-05
-2.89504853436e-05
-2.89505610977e-05
-2.89506442336e-05
-2.89507247625e-05
-2.8950794112e-05
-2.89508456763e-05
-2.89508760816e-05
-2.89508861869e-05
-2.89508796042e-05
-2.89508614787e-05
-2.89508377756e-05
-2.89508104889e-05
-2.89507821074e-05
-2.89504433242e-05
-2.89504948578e-05
-2.89505614355e-05
-2.89506398078e-05
-2.89507222397e-05
-2.89507998453e-05
-2.8950865063e-05
-2.89509123199e-05
-2.89509387027e-05
-2.89509451982e-05
-2.89509351451e-05
-2.89509134327e-05
-2.89508857485e-05
-2.89508546182e-05
-2.89508194487e-05
-2.89505049835e-05
-2.89505646305e-05
-2.89506357212e-05
-2.89507156766e-05
-2.89507967436e-05
-2.89508708674e-05
-2.89509317565e-05
-2.89509745978e-05
-2.89509971806e-05
-2.89510004015e-05
-2.89509874009e-05
-2.89509627134e-05
-2.89509317918e-05
-2.89508979175e-05
-2.89508581924e-05
-2.89505626123e-05
-2.89506269367e-05
-2.89507008616e-05
-2.89507815914e-05
-2.89508606271e-05
-2.89509310798e-05
-2.89509873784e-05
-2.89510259401e-05
-2.89510448671e-05
-2.89510452374e-05
-2.89510297155e-05
-2.89510025166e-05
-2.89509688503e-05
-2.89509330946e-05
-2.89508913068e-05
-2.89506077827e-05
-2.89506742871e-05
-2.89507507758e-05
-2.89508321229e-05
-2.89509092281e-05
-2.89509757085e-05
-2.89510276903e-05
-2.8951061989e-05
-2.89510776381e-05
-2.89510753488e-05
-2.89510575102e-05
-2.89510277547e-05
-2.89509909241e-05
-2.8950952688e-05
-2.89509105327e-05
-2.89506348454e-05
-2.89507029835e-05
-2.89507826339e-05
-2.89508648953e-05
-2.89509396275e-05
-2.89510024564e-05
-2.89510500014e-05
-2.89510805575e-05
-2.89510932023e-05
-2.89510886718e-05
-2.89510688141e-05
-2.89510364699e-05
-2.89509955845e-05
-2.89509529728e-05
-2.89509088968e-05
-2.8950677909e-05
-2.89507360851e-05
-2.89508131081e-05
-2.89508886885e-05
-2.89509552981e-05
-2.89510100754e-05
-2.89510513302e-05
-2.89510777809e-05
-2.89510890198e-05
-2.89510855702e-05
-2.89510685236e-05
-2.89510398795e-05
-2.89510018413e-05
-2.89509595938e-05
-2.89509243658e-05
-2.7700978458e-05
-2.77009744715e-05
-2.77009686972e-05
-2.77009492173e-05
-2.77009159263e-05
-2.7700872914e-05
-2.77008284626e-05
-2.77007902626e-05
-2.77007638958e-05
-2.77007515338e-05
-2.77007527625e-05
-2.77007648722e-05
-2.77007835195e-05
-2.77008019972e-05
-2.77008147244e-05
-2.77009377747e-05
-2.77009324828e-05
-2.7700924226e-05
-2.77009042525e-05
-2.77008712546e-05
-2.77008294616e-05
-2.77007864032e-05
-2.77007494575e-05
-2.77007242312e-05
-2.77007128179e-05
-2.77007148342e-05
-2.77007276474e-05
-2.77007469009e-05
-2.77007660458e-05
-2.77007787917e-05
-2.77009919999e-05
-2.77009940934e-05
-2.77009891083e-05
-2.77009719717e-05
-2.77009413749e-05
-2.77009023075e-05
-2.77008617032e-05
-2.77008264092e-05
-2.77008015332e-05
-2.77007890635e-05
-2.77007886144e-05
-2.77007976982e-05
-2.77008121269e-05
-2.77008256112e-05
-2.77008323275e-05
-2.77010541791e-05
-2.77010606332e-05
-2.77010578136e-05
-2.77010424032e-05
-2.77010139386e-05
-2.77009774636e-05
-2.77009393161e-05
-2.77009058788e-05
-2.77008817909e-05
-2.77008688655e-05
-2.77008666645e-05
-2.77008727951e-05
-2.77008832205e-05
-2.77008920127e-05
-2.77008941598e-05
-2.77011044147e-05
-2.77011129398e-05
-2.7701110216e-05
-2.77010944157e-05
-2.77010665678e-05
-2.77010316443e-05
-2.77009956939e-05
-2.77009642718e-05
-2.77009415823e-05
-2.77009290942e-05
-2.77009263417e-05
-2.7700930956e-05
-2.77009390622e-05
-2.77009450898e-05
-2.77009446514e-05
-2.77011446524e-05
-2.77011530034e-05
-2.77011483587e-05
-2.7701131464e-05
-2.77011037827e-05
-2.77010702333e-05
-2.77010362695e-05
-2.77010069548e-05
-2.77009859616e-05
-2.77009745305e-05
-2.77009720512e-05
-2.77009762003e-05
-2.77009832323e-05
-2.77009879377e-05
-2.77009865548e-05
-2.7701178257e-05
-2.77011854314e-05
-2.77011778708e-05
-2.77011589078e-05
-2.77011304798e-05
-2.77010976201e-05
-2.77010652961e-05
-2.77010380454e-05
-2.77010189442e-05
-2.7701008983e-05
-2.77010073883e-05
-2.77010118598e-05
-2.77010187681e-05
-2.7701023228e-05
-2.77010220235e-05
-2.77012061903e-05
-2.77012101729e-05
-2.77011991486e-05
-2.77011776626e-05
-2.77011483728e-05
-2.77011160331e-05
-2.77010852274e-05
-2.77010599289e-05
-2.77010427957e-05
-2.77010345082e-05
-2.77010341914e-05
-2.77010395473e-05
-2.77010470506e-05
-2.77010521104e-05
-2.770105218e-05
-2.77012287212e-05
-2.77012295042e-05
-2.77012148048e-05
-2.77011905656e-05
-2.77011600696e-05
-2.77011279074e-05
-2.77010983667e-05
-2.77010748557e-05
-2.77010596309e-05
-2.77010530905e-05
-2.77010542518e-05
-2.77010608396e-05
-2.77010694287e-05
-2.77010757201e-05
-2.77010776294e-05
-2.77012473821e-05
-2.77012443767e-05
-2.77012258182e-05
-2.77011989051e-05
-2.77011672647e-05
-2.77011353996e-05
-2.77011070215e-05
-2.77010852298e-05
-2.77010717814e-05
-2.77010669326e-05
-2.77010695955e-05
-2.77010775537e-05
-2.77010874976e-05
-2.77010953732e-05
-2.77010997363e-05
-2.77012627031e-05
-2.77012563399e-05
-2.77012342845e-05
-2.77012049244e-05
-2.77011723999e-05
-2.77011407486e-05
-2.77011135343e-05
-2.77010932611e-05
-2.77010814507e-05
-2.77010781091e-05
-2.7701082181e-05
-2.77010915129e-05
-2.77011029287e-05
-2.77011126897e-05
-2.77011195311e-05
-2.77012770379e-05
-2.77012669562e-05
-2.77012414984e-05
-2.77012100475e-05
-2.77011767185e-05
-2.7701145783e-05
-2.77011195732e-05
-2.77011008879e-05
-2.77010903836e-05
-2.7701088455e-05
-2.77010936893e-05
-2.77011042926e-05
-2.7701117259e-05
-2.77011290131e-05
-2.7701138683e-05
-2.77012912738e-05
-2.7701277635e-05
-2.77012489407e-05
-2.7701215375e-05
-2.77011819398e-05
-2.7701151072e-05
-2.77011266389e-05
-2.77011089065e-05
-2.77011000811e-05
-2.77010990191e-05
-2.77011054413e-05
-2.77011172944e-05
-2.7701131992e-05
-2.77011462791e-05
-2.77011589527e-05
-2.77013066817e-05
-2.77012896065e-05
-2.77012573e-05
-2.77012219846e-05
-2.77011877659e-05
-2.77011584904e-05
-2.77011345817e-05
-2.77011188336e-05
-2.7701110688e-05
-2.77011108625e-05
-2.77011180233e-05
-2.77011310456e-05
-2.77011476107e-05
-2.77011648263e-05
-2.77011812652e-05
-2.77013069064e-05
-2.77012874565e-05
-2.77012560787e-05
-2.77012234136e-05
-2.77011927413e-05
-2.77011660725e-05
-2.77011453456e-05
-2.77011307613e-05
-2.77011232969e-05
-2.77011223541e-05
-2.77011276941e-05
-2.77011382256e-05
-2.7701152391e-05
-2.77011682305e-05
-2.77011856342e-05
-2.59068966702e-05
-2.59069029708e-05
-2.59069355096e-05
-2.59069922876e-05
-2.59070556097e-05
-2.59071180279e-05
-2.5907176432e-05
-2.59072258215e-05
-2.59072631473e-05
-2.59072876774e-05
-2.59073005394e-05
-2.5907303817e-05
-2.59073007284e-05
-2.59072951406e-05
-2.59072897269e-05
-2.59069195615e-05
-2.59069272278e-05
-2.59069608834e-05
-2.59070170021e-05
-2.59070796401e-05
-2.59071416509e-05
-2.59071994564e-05
-2.59072482422e-05
-2.59072849976e-05
-2.59073089914e-05
-2.59073212603e-05
-2.59073239694e-05
-2.5907320291e-05
-2.59073141475e-05
-2.59073088307e-05
-2.5906891643e-05
-2.59068965601e-05
-2.59069270885e-05
-2.5906978395e-05
-2.59070375254e-05
-2.59070972377e-05
-2.59071531829e-05
-2.59072007233e-05
-2.59072370334e-05
-2.59072614743e-05
-2.59072750184e-05
-2.59072797906e-05
-2.5907278856e-05
-2.5907276059e-05
-2.5907274581e-05
-2.59068609641e-05
-2.59068640013e-05
-2.59068913482e-05
-2.59069385908e-05
-2.59069942687e-05
-2.59070512816e-05
-2.59071048252e-05
-2.59071506283e-05
-2.59071860665e-05
-2.5907210581e-05
-2.5907225077e-05
-2.59072316367e-05
-2.59072331885e-05
-2.59072334303e-05
-2.59072352954e-05
-2.59068388405e-05
-2.59068422328e-05
-2.5906867294e-05
-2.5906910662e-05
-2.59069625821e-05
-2.59070163754e-05
-2.59070671317e-05
-2.59071107439e-05
-2.59071448581e-05
-2.59071689249e-05
-2.59071838396e-05
-2.59071915801e-05
-2.59071949322e-05
-2.59071973776e-05
-2.59072016663e-05
-2.59068223619e-05
-2.59068256123e-05
-2.59068493564e-05
-2.59068896468e-05
-2.59069380182e-05
-2.59069884146e-05
-2.59070359999e-05
-2.5907077095e-05
-2.59071095303e-05
-2.5907132835e-05
-2.59071478334e-05
-2.59071564159e-05
-2.59071611879e-05
-2.59071653683e-05
-2.5907171594e-05
-2.59068087844e-05
-2.59068129827e-05
-2.59068359326e-05
-2.5906873067e-05
-2.59069176859e-05
-2.59069643304e-05
-2.59070084525e-05
-2.59070467623e-05
-2.59070772601e-05
-2.59070995601e-05
-2.59071144265e-05
-2.59071236295e-05
-2.59071295795e-05
-2.59071352188e-05
-2.59071430455e-05
-2.59067969614e-05
-2.59068019034e-05
-2.59068241182e-05
-2.59068586155e-05
-2.59068997313e-05
-2.59069425671e-05
-2.59069830831e-05
-2.59070184219e-05
-2.59070468194e-05
-2.59070679478e-05
-2.59070825289e-05
-2.59070921926e-05
-2.59070991482e-05
-2.59071060381e-05
-2.59071152992e-05
-2.59067859073e-05
-2.59067920389e-05
-2.59068135861e-05
-2.59068455998e-05
-2.59068831735e-05
-2.59069221066e-05
-2.5906958964e-05
-2.59069912276e-05
-2.590701743e-05
-2.59070372693e-05
-2.59070514391e-05
-2.59070614239e-05
-2.59070692144e-05
-2.59070771952e-05
-2.59070876844e-05
-2.59067756085e-05
-2.59067819986e-05
-2.59068029489e-05
-2.59068327045e-05
-2.59068669145e-05
-2.59069021128e-05
-2.59069352943e-05
-2.59069645239e-05
-2.59069884502e-05
-2.59070069484e-05
-2.59070206005e-05
-2.59070307588e-05
-2.5907039219e-05
-2.59070481044e-05
-2.59070597639e-05
-2.59067647354e-05
-2.59067713854e-05
-2.59067917942e-05
-2.59068193281e-05
-2.59068503833e-05
-2.59068818728e-05
-2.5906911581e-05
-2.59069377573e-05
-2.59069594901e-05
-2.59069765615e-05
-2.59069895986e-05
-2.59069997621e-05
-2.59070086608e-05
-2.5907018256e-05
-2.59070308724e-05
-2.59067531559e-05
-2.59067597062e-05
-2.59067793659e-05
-2.59068049479e-05
-2.59068328743e-05
-2.59068611133e-05
-2.59068873618e-05
-2.59069107819e-05
-2.59069302192e-05
-2.59069459487e-05
-2.59069582172e-05
-2.59069681491e-05
-2.5906977181e-05
-2.59069871155e-05
-2.59070005329e-05
-2.59067395576e-05
-2.59067459576e-05
-2.59067651128e-05
-2.59067887605e-05
-2.59068144206e-05
-2.59068392508e-05
-2.59068628023e-05
-2.59068832587e-05
-2.59069008856e-05
-2.59069150135e-05
-2.59069263739e-05
-2.59069357243e-05
-2.59069443608e-05
-2.59069540423e-05
-2.59069676541e-05
-2.59067234556e-05
-2.59067295752e-05
-2.59067482664e-05
-2.59067709943e-05
-2.59067939382e-05
-2.59068166964e-05
-2.59068372029e-05
-2.5906855723e-05
-2.59068711567e-05
-2.59068839218e-05
-2.59068941057e-05
-2.59069024993e-05
-2.59069101624e-05
-2.59069186839e-05
-2.59069316883e-05
-2.59067133877e-05
-2.59067189046e-05
-2.59067355449e-05
-2.59067543403e-05
-2.59067741572e-05
-2.59067931526e-05
-2.59068111339e-05
-2.59068272524e-05
-2.59068415391e-05
-2.59068537537e-05
-2.59068641257e-05
-2.59068733241e-05
-2.59068820743e-05
-2.59068912819e-05
-2.59069038133e-05
-2.44349136877e-05
-2.44349316994e-05
-2.44349577588e-05
-2.44349768691e-05
-2.44349866251e-05
-2.44349864412e-05
-2.44349782616e-05
-2.44349667772e-05
-2.44349564395e-05
-2.44349500442e-05
-2.44349482395e-05
-2.44349504874e-05
-2.4434954928e-05
-2.44349589457e-05
-2.44349597683e-05
-2.44348992764e-05
-2.44349172073e-05
-2.44349413514e-05
-2.44349599417e-05
-2.443496938e-05
-2.44349690788e-05
-2.44349613193e-05
-2.44349504247e-05
-2.44349407598e-05
-2.4434934897e-05
-2.44349335697e-05
-2.4434936196e-05
-2.44349410073e-05
-2.44349453826e-05
-2.44349463537e-05
-2.44349203236e-05
-2.44349407541e-05
-2.44349639207e-05
-2.44349819893e-05
-2.44349913688e-05
-2.44349919959e-05
-2.44349857106e-05
-2.4434976229e-05
-2.4434967416e-05
-2.44349617014e-05
-2.44349598523e-05
-2.44349613733e-05
-2.44349646197e-05
-2.44349670992e-05
-2.44349660759e-05
-2.44349454125e-05
-2.44349660188e-05
-2.44349881309e-05
-2.44350054876e-05
-2.4435015055e-05
-2.44350167272e-05
-2.44350120026e-05
-2.44350040792e-05
-2.44349963537e-05
-2.44349910249e-05
-2.4434988883e-05
-2.44349894849e-05
-2.44349913425e-05
-2.44349921388e-05
-2.44349894579e-05
-2.44349674256e-05
-2.44349878772e-05
-2.44350081843e-05
-2.44350237136e-05
-2.44350326349e-05
-2.44350348859e-05
-2.44350316938e-05
-2.44350255032e-05
-2.44350191813e-05
-2.44350146243e-05
-2.44350125923e-05
-2.44350127234e-05
-2.44350136772e-05
-2.44350133681e-05
-2.4435009619e-05
-2.44349870585e-05
-2.44350066183e-05
-2.44350245436e-05
-2.4435038668e-05
-2.44350471832e-05
-2.44350500659e-05
-2.44350482088e-05
-2.44350436222e-05
-2.44350386672e-05
-2.44350349741e-05
-2.44350332122e-05
-2.44350330833e-05
-2.44350333933e-05
-2.44350323029e-05
-2.44350278631e-05
-2.44350063964e-05
-2.44350251029e-05
-2.44350406791e-05
-2.44350529358e-05
-2.4435060553e-05
-2.4435063665e-05
-2.4435062908e-05
-2.44350598296e-05
-2.44350562527e-05
-2.44350535005e-05
-2.44350521455e-05
-2.44350519167e-05
-2.443505178e-05
-2.44350501386e-05
-2.44350452083e-05
-2.443502589e-05
-2.4435042837e-05
-2.44350562666e-05
-2.44350669477e-05
-2.44350738983e-05
-2.44350772079e-05
-2.44350773329e-05
-2.44350754955e-05
-2.44350731109e-05
-2.44350712199e-05
-2.44350702701e-05
-2.44350700153e-05
-2.4435069546e-05
-2.44350675044e-05
-2.44350622644e-05
-2.44350453713e-05
-2.44350613356e-05
-2.44350728542e-05
-2.44350819514e-05
-2.44350879984e-05
-2.44350911493e-05
-2.4435091866e-05
-2.44350909895e-05
-2.44350896139e-05
-2.44350884945e-05
-2.44350879354e-05
-2.44350877084e-05
-2.44350870147e-05
-2.44350846955e-05
-2.44350792272e-05
-2.4435065699e-05
-2.44350803237e-05
-2.4435090087e-05
-2.44350977953e-05
-2.4435102993e-05
-2.44351060323e-05
-2.4435107081e-05
-2.44351069467e-05
-2.44351063394e-05
-2.44351058375e-05
-2.44351056076e-05
-2.44351054189e-05
-2.44351045666e-05
-2.44351020741e-05
-2.44350964994e-05
-2.44350863744e-05
-2.44351001737e-05
-2.44351086327e-05
-2.44351150173e-05
-2.44351194917e-05
-2.44351221184e-05
-2.44351233529e-05
-2.44351236367e-05
-2.44351235974e-05
-2.44351235321e-05
-2.44351235563e-05
-2.44351234065e-05
-2.44351224712e-05
-2.44351198977e-05
-2.44351142594e-05
-2.44351083286e-05
-2.44351211974e-05
-2.44351282485e-05
-2.44351335411e-05
-2.44351370078e-05
-2.44351395745e-05
-2.44351406349e-05
-2.44351413155e-05
-2.44351415124e-05
-2.44351418019e-05
-2.44351419815e-05
-2.44351418684e-05
-2.44351409311e-05
-2.44351384142e-05
-2.44351328799e-05
-2.44351314176e-05
-2.44351433388e-05
-2.44351491729e-05
-2.44351529371e-05
-2.44351562713e-05
-2.44351578015e-05
-2.44351593458e-05
-2.44351597433e-05
-2.4435160392e-05
-2.44351607187e-05
-2.44351610364e-05
-2.44351610002e-05
-2.44351602049e-05
-2.44351579753e-05
-2.44351527371e-05
-2.4435155723e-05
-2.44351670645e-05
-2.44351710799e-05
-2.44351742083e-05
-2.44351759295e-05
-2.44351779713e-05
-2.44351786389e-05
-2.44351795244e-05
-2.44351798998e-05
-2.44351803836e-05
-2.44351807e-05
-2.44351807515e-05
-2.44351801939e-05
-2.4435178458e-05
-2.44351738624e-05
-2.4435175541e-05
-2.4435186011e-05
-2.44351908163e-05
-2.44351939151e-05
-2.44351966146e-05
-2.44351983037e-05
-2.44351996175e-05
-2.44352001111e-05
-2.44352002945e-05
-2.44352000717e-05
-2.44351994635e-05
-2.44351983858e-05
-2.44351965768e-05
-2.44351937442e-05
-2.44351887634e-05
-2.27750557442e-05
-2.27750347704e-05
-2.27750351109e-05
-2.27750623435e-05
-2.27751035308e-05
-2.2775147465e-05
-2.27751876182e-05
-2.27752214804e-05
-2.27752488146e-05
-2.27752702104e-05
-2.277528699e-05
-2.27753005074e-05
-2.27753127997e-05
-2.27753259742e-05
-2.27753421268e-05
-2.27750660504e-05
-2.27750467804e-05
-2.27750486215e-05
-2.27750748353e-05
-2.27751145419e-05
-2.277515735e-05
-2.27751967597e-05
-2.27752302104e-05
-2.27752572259e-05
-2.27752783975e-05
-2.27752949124e-05
-2.27753082075e-05
-2.27753202083e-05
-2.27753331078e-05
-2.27753491724e-05
-2.27750600758e-05
-2.27750408081e-05
-2.27750429291e-05
-2.27750673649e-05
-2.27751046471e-05
-2.2775145136e-05
-2.27751828802e-05
-2.27752153416e-05
-2.27752419292e-05
-2.27752631146e-05
-2.27752799875e-05
-2.27752939358e-05
-2.27753068063e-05
-2.27753207195e-05
-2.27753378236e-05
-2.27750537172e-05
-2.27750357362e-05
-2.27750380088e-05
-2.27750606309e-05
-2.27750950416e-05
-2.27751327619e-05
-2.27751684195e-05
-2.2775199547e-05
-2.27752254404e-05
-2.27752464559e-05
-2.27752635502e-05
-2.27752780634e-05
-2.27752917197e-05
-2.27753065477e-05
-2.27753245407e-05
-2.27750515889e-05
-2.27750359179e-05
-2.2775038461e-05
-2.27750593387e-05
-2.27750906714e-05
-2.27751252911e-05
-2.27751584368e-05
-2.27751878331e-05
-2.27752126832e-05
-2.27752332164e-05
-2.27752502616e-05
-2.27752650537e-05
-2.27752792037e-05
-2.27752945592e-05
-2.27753130105e-05
-2.27750521356e-05
-2.27750385111e-05
-2.27750419011e-05
-2.27750610314e-05
-2.27750892828e-05
-2.27751206928e-05
-2.27751511809e-05
-2.27751786398e-05
-2.27752022406e-05
-2.27752220934e-05
-2.27752389002e-05
-2.27752537867e-05
-2.27752682326e-05
-2.27752839171e-05
-2.27753025197e-05
-2.27750539306e-05
-2.27750429557e-05
-2.27750471756e-05
-2.27750646488e-05
-2.27750899801e-05
-2.27751182032e-05
-2.27751459198e-05
-2.27751712531e-05
-2.27751934013e-05
-2.27752123834e-05
-2.27752287783e-05
-2.27752436023e-05
-2.27752581791e-05
-2.27752739848e-05
-2.27752926356e-05
-2.27750561966e-05
-2.27750478579e-05
-2.27750528972e-05
-2.2775068958e-05
-2.27750915618e-05
-2.27751167437e-05
-2.27751417353e-05
-2.27751649094e-05
-2.27751855159e-05
-2.27752035046e-05
-2.27752193627e-05
-2.27752339819e-05
-2.27752485441e-05
-2.27752643592e-05
-2.27752828434e-05
-2.27750584327e-05
-2.27750526556e-05
-2.27750583841e-05
-2.27750732214e-05
-2.27750934224e-05
-2.2775115861e-05
-2.27751382734e-05
-2.27751593354e-05
-2.2775178355e-05
-2.27751952666e-05
-2.277521048e-05
-2.27752247733e-05
-2.27752391879e-05
-2.27752548608e-05
-2.27752731594e-05
-2.27750604208e-05
-2.2775056677e-05
-2.27750631255e-05
-2.2775076942e-05
-2.27750950689e-05
-2.27751150101e-05
-2.27751350719e-05
-2.2775154112e-05
-2.27751715734e-05
-2.27751873733e-05
-2.2775201851e-05
-2.27752156962e-05
-2.27752298193e-05
-2.27752452375e-05
-2.27752631745e-05
-2.27750616803e-05
-2.27750597044e-05
-2.27750666268e-05
-2.27750795618e-05
-2.27750958925e-05
-2.27751137483e-05
-2.27751317069e-05
-2.27751489283e-05
-2.27751649111e-05
-2.27751795957e-05
-2.27751932841e-05
-2.27752065772e-05
-2.27752202671e-05
-2.27752352843e-05
-2.2775252836e-05
-2.27750621409e-05
-2.27750613868e-05
-2.27750686455e-05
-2.27750808403e-05
-2.27750957658e-05
-2.2775111737e-05
-2.27751279738e-05
-2.27751435275e-05
-2.27751581829e-05
-2.27751717954e-05
-2.27751846311e-05
-2.27751972651e-05
-2.27752103628e-05
-2.27752247877e-05
-2.27752417328e-05
-2.27750613069e-05
-2.27750613238e-05
-2.27750688298e-05
-2.27750805451e-05
-2.27750942105e-05
-2.27751089836e-05
-2.27751235359e-05
-2.27751378233e-05
-2.27751512082e-05
-2.27751637841e-05
-2.27751757621e-05
-2.277518761e-05
-2.27751999041e-05
-2.27752134626e-05
-2.2775229612e-05
-2.2775057876e-05
-2.27750587048e-05
-2.277506678e-05
-2.27750782893e-05
-2.27750913861e-05
-2.27751048278e-05
-2.27751184838e-05
-2.27751315029e-05