/*--------------------------------*- C++ -*----------------------------------*\
  =========                 |
  \\      /  F ield         | OpenFOAM: The Open Source CFD Toolbox
   \\    /   O peration     | Website:  https://openfoam.org
    \\  /    A nd           | Version:  7
     \\/     M anipulation  |
\*---------------------------------------------------------------------------*/
FoamFile
{
    version     2.0;
    format      ascii;
    class       surfaceScalarField;
    location    "0.76";
    object      phi;
}
// * * * * * * * * * * * * * * * * * * * * * * * * * * * * * * * * * * * * * //

dimensions      [0 3 -1 0 0 0 0];

internalField   nonuniform List<scalar> 
65775
(
-1.78216987269e-11
-5.15363582618e-09
-5.11269958561e-11
-1.49559061384e-14
-3.22802580588e-11
-5.42492399214e-09
-5.36546207519e-11
-3.87090083403e-11
-5.6744013401e-09
-5.54578101132e-11
-3.75642077184e-11
-5.89007020076e-09
-5.68152806424e-11
-3.09263439999e-11
-6.06361603265e-09
-5.78011713451e-11
-2.03187910808e-11
-6.19125883654e-09
-5.84631766239e-11
-7.32507771234e-12
-6.27143881983e-09
-5.88659886114e-11
6.5091157333e-12
-6.30133795695e-09
-5.90339398946e-11
1.95195302176e-11
-6.27143301344e-09
-5.88697062965e-11
3.01611369754e-11
-6.19124546913e-09
-5.84709752939e-11
3.68494849249e-11
-6.063593407e-09
-5.78137027994e-11
3.80590981661e-11
-5.89003778319e-09
-5.68337085983e-11
3.17049905982e-11
-5.67436537498e-09
-5.54840762804e-11
1.73280883451e-11
-5.42489169916e-09
-5.36920105071e-11
-5.1536492814e-09
-5.1180109478e-11
-3.92725436743e-13
-6.09460049654e-11
-9.64116257536e-09
-4.27085745776e-10
-2.8546814884e-14
-1.07318278966e-10
-1.0143830016e-08
-4.79738517386e-10
-1.27241062594e-10
-1.06111510921e-08
-5.30083872326e-10
-1.2447058044e-10
-1.1011314078e-08
-5.76000242694e-10
-1.03091494967e-10
-1.13319191737e-08
-6.14958155481e-10
-6.79659917474e-11
-1.15665752302e-08
-6.4468993347e-10
-2.43510904818e-11
-1.1713546664e-08
-6.63566012435e-10
2.21164852384e-11
-1.17682118678e-08
-6.70323660297e-10
6.57762061206e-11
-1.17135444787e-08
-6.63577195169e-10
1.00992406847e-10
-1.15665667388e-08
-6.44713395744e-10
1.22506629119e-10
-1.13318975259e-08
-6.14995737095e-10
1.25452143516e-10
-1.10112746034e-08
-5.76055229293e-10
1.05734709832e-10
-1.06111007534e-08
-5.30161736104e-10
5.96002617836e-11
-1.01437980828e-08
-4.79848405082e-10
-9.64122825887e-09
-4.2723896958e-10
-1.08312940799e-12
-1.11131363077e-10
-1.32916812838e-08
-9.66833006007e-10
-3.93108427007e-14
-1.87995158804e-10
-1.39681167891e-08
-1.09576021793e-09
-2.21860541208e-10
-1.45944392669e-08
-1.21997243028e-09
-2.17657687864e-10
-1.51252714857e-08
-1.33336737214e-09
-1.80903873207e-10
-1.55480732229e-08
-1.42951998735e-09
-1.19471197809e-10
-1.58557760774e-08
-1.50283170827e-09
-4.26084062783e-11
-1.60478994808e-08
-1.54928179631e-09
3.94040523503e-11
-1.61193039048e-08
-1.5658172054e-09
1.16326896626e-10
-1.60479160777e-08
-1.54929895197e-09
1.77881478766e-10
-1.58558027894e-08
-1.50286764724e-09
2.14818626071e-10
-1.55480993668e-08
-1.42957749567e-09
2.19261781398e-10
-1.51252892365e-08
-1.33345138388e-09
1.85684010356e-10
-1.45944500069e-08
-1.22009108763e-09
1.09160762681e-10
-1.39681594088e-08
-1.09592718219e-09
-1.32918414417e-08
-9.67065059873e-10
-1.60823692848e-12
-1.64152615885e-10
-1.60347876688e-08
-1.5741551935e-09
-4.85894353813e-14
-2.71061070341e-10
-1.68227018628e-08
-1.7873369477e-09
-3.19158343555e-10
-1.75421361009e-08
-1.99173336997e-09
-3.1349497902e-10
-1.8145504349e-08
-2.17722591266e-09
-2.61076252146e-10
-1.86228150414e-08
-2.3336509872e-09
-1.72553159352e-10
-1.89682447822e-08
-2.45238456504e-09
-6.12884595563e-11
-1.91833128493e-08
-2.52734594538e-09
5.75665021917e-11
-1.92632897971e-08
-2.55393970581e-09
1.68894700411e-10
-1.91833488713e-08
-2.52736700577e-09
2.57547325995e-10
-1.89683098467e-08
-2.45242865689e-09
3.1016316991e-10
-1.86228952851e-08
-2.33372151264e-09
3.16089262466e-10
-1.81455878297e-08
-2.17732881679e-09
2.68313439131e-10
-1.75422194053e-08
-1.99187837949e-09
1.61790322976e-10
-1.68228310217e-08
-1.78754063086e-09
-1.60350485433e-08
-1.57443845895e-09
-1.95805290102e-12
-2.16197228688e-10
-1.78813312157e-08
-2.17160127996e-09
-5.74834977213e-14
-3.53068388909e-10
-1.87232313346e-08
-2.46333000364e-09
-4.15310110729e-10
-1.94773175385e-08
-2.7404811915e-09
-4.08137961832e-10
-2.01031736555e-08
-2.98995241501e-09
-3.40192712213e-10
-2.05948935029e-08
-3.19888146666e-09
-2.24866898725e-10
-2.09490052144e-08
-3.35661706874e-09
-7.95879001657e-11
-2.11689854107e-08
-3.45581516774e-09
7.56931058734e-11
-2.12508986123e-08
-3.49091126413e-09
2.21032009918e-10
-2.1169040582e-08
-3.45583796291e-09
3.36481071927e-10
-2.09491078641e-08
-3.356665493e-09
4.04615895052e-10
-2.05950294677e-08
-3.19895909261e-09
4.12044459193e-10
-2.01033290007e-08
-2.99006539938e-09
3.50122195653e-10
-1.94774849766e-08
-2.74063960937e-09
2.13637684377e-10
-1.87234530099e-08
-2.46355171606e-09
-1.7881685199e-08
-2.1719098496e-09
-2.15580035941e-12
-2.64718863846e-10
-1.89037359418e-08
-2.70015030149e-09
-6.46697644919e-14
-4.31146888487e-10
-1.97523359106e-08
-3.05711444956e-09
-5.07133710195e-10
-2.04968198042e-08
-3.3928145926e-09
-4.98458876515e-10
-2.11084507738e-08
-3.69251841283e-09
-4.15562819943e-10
-2.1585994035e-08
-3.9418635443e-09
-2.74604376587e-10
-2.19285708414e-08
-4.12917455748e-09
-9.69118994193e-11
-2.21410540416e-08
-4.24655480566e-09
9.30458156571e-11
-2.22202871017e-08
-4.28798195707e-09
2.70792802992e-10
-2.21411225069e-08
-4.24657940648e-09
4.11863669373e-10
-2.19287006994e-08
-4.12922647643e-09
4.94933918267e-10
-2.15861713923e-08
-3.94194604421e-09
5.03846559095e-10
-2.11086610709e-08
-3.69263707307e-09
4.28160317981e-10
-2.0497052942e-08
-3.39297866949e-09
2.62098290438e-10
-1.97526313034e-08
-3.05734156748e-09
-1.89041677893e-08
-2.70046521486e-09
-2.24129985558e-12
-3.0865525971e-10
-1.92096882531e-08
-3.12560105156e-09
-6.9763463226e-14
-5.03614109208e-10
-2.00291499206e-08
-3.53278228225e-09
-5.92718048051e-10
-2.07342480483e-08
-3.912157623e-09
-5.82637908158e-10
-2.13078478372e-08
-4.24846501824e-09
-4.85688411603e-10
-2.17533206912e-08
-4.52673671962e-09
-3.2079474752e-10
-2.20720354797e-08
-4.73493539026e-09
-1.12959251649e-10
-2.22695196076e-08
-4.86501832817e-09
1.09204098679e-10
-2.23432191946e-08
-4.91081388968e-09
3.1708971912e-10
-2.2269598773e-08
-4.86504469037e-09
4.82086628491e-10
-2.20721875853e-08
-4.73499050003e-09
5.79196046767e-10
-2.17535331095e-08
-4.52682316226e-09
5.89494931071e-10
-2.13081064604e-08
-4.24858720096e-09
5.00668866223e-10
-2.07345409271e-08
-3.91232313209e-09
3.06049404261e-10
-2.00295095553e-08
-3.53300744723e-09
-1.92101832725e-08
-3.12591055643e-09
-2.25805351092e-12
-3.4811817648e-10
-1.89193626641e-08
-3.43535217527e-09
-7.15177729112e-14
-5.70027133221e-10
-1.96841473288e-08
-3.87956463288e-09
-6.71516533096e-10
-2.03315712368e-08
-4.29027425282e-09
-6.60202827923e-10
-2.08532746314e-08
-4.65233956035e-09
-5.5023345999e-10
-2.12567734095e-08
-4.95068317295e-09
-3.6325088761e-10
-2.15450290557e-08
-5.17322528644e-09
-1.27693097835e-10
-2.1723517068e-08
-5.31192990265e-09
1.24053424292e-10
-2.17900985383e-08
-5.36062289057e-09
3.59659032756e-10
-2.17236043435e-08
-5.3119582414e-09
5.4673955036e-10
-2.15451983811e-08
-5.17328388741e-09
6.56859497735e-10
-2.12570136982e-08
-4.95077372042e-09
6.68378251951e-10
-2.08535722374e-08
-4.65246493079e-09
5.67148656875e-10
-2.03319138913e-08
-4.29043987506e-09
3.45556916331e-10
-1.96845616911e-08
-3.87978496762e-09
-1.89199144278e-08
-3.43565072779e-09
-2.24219860037e-12
-3.83868168162e-10
-1.81504190584e-08
-3.63116399859e-09
-7.08397999651e-14
-6.30873759902e-10
-1.88432828982e-08
-4.10224337857e-09
-7.44047253127e-10
-1.94226728219e-08
-4.53520549892e-09
-7.31695808875e-10
-1.98854475233e-08
-4.9152982236e-09
-6.09686659018e-10
-2.02424596212e-08
-5.22753964064e-09
-4.02315834033e-10
-2.04974399859e-08
-5.45992418171e-09
-1.41248010727e-10
-2.06552208264e-08
-5.60445285334e-09
1.37688905185e-10
-2.07139425731e-08
-5.65502048285e-09
3.98804238707e-10
-2.06553161349e-08
-5.60448344529e-09
6.06271642669e-10
-2.04976261971e-08
-5.45998677281e-09
7.28427704825e-10
-2.02427274595e-08
-5.22763492084e-09
7.40977162611e-10
-1.98857839098e-08
-4.91542738757e-09
6.28052675098e-10
-1.94230648949e-08
-4.53537162952e-09
3.81349523062e-10
-1.88437520557e-08
-4.10245888356e-09
-1.81510229761e-08
-3.63145031961e-09
-2.21885955028e-12
-4.16845237403e-10
-1.70104203533e-08
-3.72218450702e-09
-6.69742476193e-14
-6.87191672904e-10
-1.76204638352e-08
-4.2127735379e-09
-8.11504604392e-10
-1.81266012893e-08
-4.66163664429e-09
-7.98266196128e-10
-1.85280359989e-08
-5.05444082186e-09
-6.64980167808e-10
-1.88376585485e-08
-5.37635759463e-09
-4.38591758589e-10
-1.90590183666e-08
-5.61550382594e-09
-1.53836124671e-10
-1.91958593201e-08
-5.76392734758e-09
1.50307918718e-10
-1.92465364181e-08
-5.81564996495e-09
4.3511233651e-10
-1.91959629433e-08
-5.76396043509e-09
6.61598974509e-10
-1.90592223337e-08
-5.61557089707e-09
7.95033120272e-10
-1.88379544948e-08
-5.37645835338e-09
8.0846883296e-10
-1.8528412478e-08
-5.05457477671e-09
6.84401361384e-10
-1.81270451168e-08
-4.66180452578e-09
4.14351340646e-10
-1.76209923243e-08
-4.21298574959e-09
-1.70110829323e-08
-3.72245980639e-09
-2.20353201601e-12
-4.4787567334e-10
-1.5594471783e-08
-3.72005316927e-09
-6.14450623149e-14
-7.40315116708e-10
-1.61153522285e-08
-4.22489088707e-09
-8.75478322815e-10
-1.65465086354e-08
-4.68520543031e-09
-8.61344628385e-10
-1.68876609532e-08
-5.08697147582e-09
-7.17181687775e-10
-1.71516151492e-08
-5.41552968781e-09
-4.72726509703e-10
-1.73407154742e-08
-5.65918260379e-09
-1.65673696375e-10
-1.74573778179e-08
-5.81006475086e-09
1.6212597418e-10
-1.75002127275e-08
-5.8623962921e-09
4.69229764589e-10
-1.74574911426e-08
-5.81010050002e-09
7.13787315623e-10
-1.73409393526e-08
-5.65925453904e-09
8.58102947957e-10
-1.71519433141e-08
-5.41563661953e-09
8.72438469565e-10
-1.68880821848e-08
-5.08711131527e-09
7.37523339031e-10
-1.65470105433e-08
-4.68537661191e-09
4.45380992026e-10
-1.61159478462e-08
-4.2251019049e-09
-1.55951989868e-08
-3.72031980589e-09
-2.20421734373e-12
-4.77576853041e-10
-1.39856517062e-08
-3.63617222473e-09
-5.38608245112e-14
-7.91921835951e-10
-1.44137086748e-08
-4.1514351969e-09
-9.37851230857e-10
-1.47712633084e-08
-4.61999140459e-09
-9.22381400376e-10
-1.50563705904e-08
-5.02789543683e-09
-7.67224794908e-10
-1.5278443127e-08
-5.36070720329e-09
-5.05228386847e-10
-1.54378258736e-08
-5.60703846891e-09
-1.76920930438e-10
-1.55357433538e-08
-5.7591938052e-09
1.73308556656e-10
-1.557120627e-08
-5.81167914136e-09
5.0167001881e-10
-1.55358682598e-08
-5.75923226958e-09
7.63774195575e-10
-1.54380737893e-08
-5.60711547195e-09
9.19091324136e-10
-1.52788077497e-08
-5.36082083418e-09
9.3477135289e-10
-1.50568433907e-08
-5.02804218628e-09
7.89098283054e-10
-1.47718321977e-08
-4.62016742974e-09
4.75057170027e-10
-1.44143831493e-08
-4.15164694506e-09
-1.39864546984e-08
-3.63643254927e-09
-2.22285942017e-12
-5.07231274943e-10
-1.22557666952e-08
-3.48053712269e-09
-4.55957041286e-14
-8.44957351377e-10
-1.25885406885e-08
-4.00349890083e-09
-1.00082680255e-09
-1.28785380904e-08
-4.47793264975e-09
-9.82453375195e-10
-1.31148931017e-08
-4.88966022817e-09
-8.15519747311e-10
-1.3300155085e-08
-5.22465312151e-09
-5.36228676909e-10
-1.34329648857e-08
-5.47203821343e-09
-1.87602082317e-10
-1.35139344241e-08
-5.62440501802e-09
1.83887550763e-10
-1.35426768001e-08
-5.67663741504e-09
5.32571562306e-10
-1.3514073346e-08
-5.62444606652e-09
8.11977913533e-10
-1.3433240405e-08
-5.47212016224e-09
9.79081387999e-10
-1.33005635498e-08
-5.22477361191e-09
9.97677098678e-10
-1.31154256282e-08
-4.88981465458e-09
8.42076794879e-10
-1.2879184256e-08
-4.47811488622e-09
5.046670802e-10
-1.25893081385e-08
-4.00371255503e-09
-1.22566601601e-08
-3.48079181303e-09
-2.25059275531e-12
-5.43090941164e-10
-1.04620581867e-08
-3.26145486234e-09
-3.4136867823e-14
-9.0536153679e-10
-1.07035832453e-08
-3.79066412624e-09
-1.06668528838e-09
-1.09395312179e-08
-4.26916079545e-09
-1.04190638071e-09
-1.11355788938e-08
-4.68257846249e-09
-8.61873533382e-10
-1.12888816091e-08
-5.01779755673e-09
-5.65525738598e-10
-1.13982154321e-08
-5.26471189925e-09
-1.97645442592e-10
-1.14642087152e-08
-5.41630219701e-09
1.93799523181e-10
-1.14870024842e-08
-5.46790741517e-09
5.6174189519e-10
-1.14643641454e-08
-5.41634537715e-09
8.58212527154e-10
-1.13985246582e-08
-5.26479806201e-09
1.03842790357e-09
-1.12893398654e-08
-5.01792426322e-09
1.06344383918e-09
-1.11361800643e-08
-4.68274063832e-09
9.02404646996e-10
-1.09402669413e-08
-4.26935033584e-09
5.40466761377e-10
-1.07044607548e-08
-3.79088026494e-09
-1.04630588611e-08
-3.26170174152e-09
-2.29489384066e-12
-6.04695084903e-10
-2.98515048653e-09
-2.44979062207e-14
-8.63600431983e-09
-9.8322261098e-10
-3.5214323213e-09
-8.82352243855e-09
-1.1420101148e-09
-4.00194950878e-09
-9.02067736059e-09
-1.10690968486e-09
-4.41495625069e-09
-9.18288379424e-09
-9.11874782138e-10
-4.74866839643e-09
-9.30879577109e-09
-5.9704530509e-10
-4.99383995874e-09
-9.3985565698e-09
-2.08451449482e-10
-5.14385290764e-09
-9.45236641328e-09
2.04453437328e-10
-5.19452929947e-09
-9.47034366968e-09
5.93114400689e-10
-5.14389710856e-09
-9.45254212881e-09
9.08077122469e-10
-4.9939282474e-09
-9.39890662644e-09
1.10330837949e-09
-4.7487985704e-09
-9.30931593932e-09
1.13866322177e-09
-4.41512365791e-09
-9.18356817365e-09
9.80182005688e-10
-4.00214503928e-09
-9.02151789301e-09
6.02005619338e-10
-3.52165412242e-09
-8.82452505101e-09
-2.9853788767e-09
-2.34789107901e-12
-8.63713576449e-09
-8.7994927616e-12
3.91257863278e-10
-4.33612266292e-10
-4.49382853571e-14
-1.40989872412e-11
4.32352582735e-10
-4.80826271126e-10
-1.60064448911e-11
4.71776279226e-10
-5.25457984216e-10
-1.55248032789e-11
5.08133490264e-10
-5.6554910376e-10
-1.28514460111e-11
5.38528032647e-10
-5.99089746176e-10
-8.44175854286e-12
5.61483294542e-10
-6.24413816725e-10
-2.89000591352e-12
5.75955458294e-10
-6.4041034276e-10
3.06260687605e-12
5.81148763387e-10
-6.46162065766e-10
8.61038125719e-12
5.75972129795e-10
-6.40411051341e-10
1.30151131335e-11
5.61520505854e-10
-6.24415299587e-10
1.56870163156e-11
5.38589047578e-10
-5.99092103643e-10
1.61736914194e-11
5.08215303507e-10
-5.65552672896e-10
1.42725923732e-11
4.71864463166e-10
-5.25463653962e-10
8.97164678474e-12
4.32429578619e-10
-4.80836470153e-10
3.91309793297e-10
-4.33633798098e-10
1.00808508373e-13
-1.44832303978e-11
1.11796083647e-09
-1.13932265922e-09
-1.08454522663e-13
-2.29831882531e-11
1.22158402474e-09
-1.26066828957e-09
-2.61719965389e-11
1.31942374471e-09
-1.37476177785e-09
-2.51701507154e-11
1.40768290023e-09
-1.47674405444e-09
-2.06862781234e-11
1.48067743834e-09
-1.56173179636e-09
-1.34931228072e-11
1.53522338146e-09
-1.62571617822e-09
-4.5482722537e-12
1.56943579643e-09
-1.66605257172e-09
5.02155955824e-12
1.58173931851e-09
-1.68052928529e-09
1.39579680944e-11
1.56947642035e-09
-1.66605437769e-09
2.11403265713e-11
1.53531250085e-09
-1.62572011689e-09
2.56201823017e-11
1.48082180476e-09
-1.56173821166e-09
2.6629775417e-11
1.40787588875e-09
-1.4767539629e-09
2.34496947963e-11
1.31963314702e-09
-1.3747777015e-09
1.49351461377e-11
1.22176692643e-09
-1.2606970173e-09
1.11808344989e-09
-1.13937964183e-09
2.77967057381e-13
-1.22262145251e-11
1.88913314906e-09
-1.72573734821e-09
-1.6095774582e-13
-1.85295522706e-11
2.04218166178e-09
-1.9102192332e-09
-2.07198142801e-11
2.18460531201e-09
-2.0831412134e-09
-1.95308107505e-11
2.31028971256e-09
-2.23731762869e-09
-1.58026610872e-11
2.41286475474e-09
-2.36555125592e-09
-1.01646445058e-11
2.48862643012e-09
-2.46195243723e-09
-3.30259377228e-12
2.53586876282e-09
-2.52263093973e-09
4.02019256382e-12
2.55290802889e-09
-2.5443482728e-09
1.08735333316e-11
2.53592622732e-09
-2.52263381697e-09
1.65007587022e-11
2.48874837531e-09
-2.46195868339e-09
2.02257426808e-11
2.41305491961e-09
-2.36556141148e-09
2.14227613449e-11
2.31053594939e-09
-2.2373332283e-09
1.92378377394e-11
2.18486928165e-09
-2.08316591171e-09
1.2904134912e-11
2.04241358255e-09
-1.91026261399e-09
1.88929841457e-09
-1.72582034302e-09
4.2435208398e-13
-4.97663169689e-12
2.54017894587e-09
-2.22013856081e-09
-1.9642642072e-13
-6.02030333834e-12
2.71607506861e-09
-2.4603432983e-09
-5.94999337842e-12
2.8774950749e-09
-2.68486218626e-09
-4.99149504198e-12
3.01656572106e-09
-2.88460632816e-09
-3.6639698769e-12
3.12823904043e-09
-3.05046223064e-09
-2.12814622056e-12
3.20961783393e-09
-3.1749872477e-09
-4.40615480192e-13
3.2600343859e-09
-3.2532516757e-09
1.35859125526e-12
3.2783127876e-09
-3.28118235967e-09
3.03852853442e-12
3.26010345421e-09
-3.25325576595e-09
4.56489347201e-12
3.20976189962e-09
-3.17499600037e-09
5.88940551757e-12
3.12845951257e-09
-3.05047624642e-09
6.8530435408e-12
3.0168465214e-09
-2.8846273524e-09
6.92093860204e-12
2.87779411344e-09
-2.68489434339e-09
5.83222034195e-12
2.71633772685e-09
-2.46039736614e-09
2.54036449315e-09
-2.22023772618e-09
5.45327974326e-13
4.97909421478e-12
2.99005149449e-09
-2.62633394614e-09
-2.2011449425e-13
1.01913347137e-11
3.16270169139e-09
-2.91529720249e-09
1.27756221459e-11
3.31893152237e-09
-3.18463357374e-09
1.30753074582e-11
3.44995152701e-09
-3.42375226886e-09
1.11856133022e-11
3.5531533206e-09
-3.62199311082e-09
7.59091710541e-12
3.62718811503e-09
-3.77065590314e-09
2.97843556459e-12
3.67274142016e-09
-3.86395443931e-09
-1.90253949691e-12
3.68939951362e-09
-3.89715080853e-09
-6.52056348409e-12
3.67281722962e-09
-3.8639607015e-09
-1.01223922199e-11
3.62734267713e-09
-3.77066822134e-09
-1.20152074835e-11
3.55338323268e-09
-3.62201195515e-09
-1.17147898702e-11
3.45023894156e-09
-3.42377922129e-09
-9.14252063884e-12
3.3192350141e-09
-3.18467255688e-09
-3.98826060043e-12
3.16297223713e-09
-2.9153591107e-09
2.99024864694e-09
-2.62644192658e-09
6.43629509875e-13
1.58637796624e-11
3.22266849739e-09
-2.9484882126e-09
-2.34132856596e-13
2.70773122903e-11
3.37405981534e-09
-3.27980196701e-09
3.18913420368e-11
3.508945849e-09
-3.58776389626e-09
3.12266548365e-11
3.6186256349e-09
-3.8606326144e-09
2.59242928324e-11
3.70303657292e-09
-4.08652548429e-09
1.71552183075e-11
3.76246019249e-09
-4.25573641371e-09
6.31881154188e-12
3.79875461063e-09
-4.36177443016e-09
-5.12432600072e-12
3.81221079755e-09
-4.39938279379e-09
-1.59641698361e-11
3.79883374673e-09
-4.3617824608e-09
-2.47382973676e-11
3.76261923849e-09
-4.25575211488e-09
-3.0043913515e-11
3.70327033801e-09
-4.08654902e-09
-3.0712585882e-11
3.61891515863e-09
-3.86066505806e-09
-2.59190416646e-11
3.5092519394e-09
-3.58780841452e-09
-1.47730013798e-11
3.37433626106e-09
-3.27986887486e-09
3.22287225817e-09
-2.9486001112e-09
7.21135745072e-13
2.64054652922e-11
3.26191292837e-09
-3.19109248726e-09
-2.40731838767e-13
4.27990165485e-11
3.38374466885e-09
-3.55895437417e-09
4.93778768124e-11
3.49009117016e-09
-3.89997623446e-09
4.76171721241e-11
3.57340462442e-09
-4.20156461023e-09
3.9106185341e-11
3.63563701159e-09
-4.45089079398e-09
2.56528897683e-11
3.67838539694e-09
-4.63745604529e-09
9.27143652544e-12
3.7042725349e-09
-4.75419183591e-09
-7.99241570382e-12
3.71408306297e-09
-4.79545080166e-09
-2.43754774917e-11
3.7043505591e-09
-4.75420191781e-09
-3.78319662988e-11
3.67854048624e-09
-4.63747562705e-09
-4.63467913729e-11
3.63586255575e-09
-4.45091955931e-09
-4.81162293338e-11
3.57368228969e-09
-4.20160282672e-09
-4.15655433456e-11
3.49038743599e-09
-3.90002590165e-09
-2.52467023459e-11
3.38401928453e-09
-3.55902488145e-09
3.26212751511e-09
-3.19120556374e-09
7.7997272387e-13
3.58151881045e-11
3.14962761338e-09
-3.35871134385e-09
-2.40705638385e-13
5.64449513407e-11
3.24134015271e-09
-3.75787044582e-09
6.43429848676e-11
3.31877732705e-09
-4.12694004691e-09
6.15090658954e-11
3.37655398209e-09
-4.45272697222e-09
5.02011143873e-11
3.41789819057e-09
-4.72169406999e-09
3.27716876244e-11
3.44528364144e-09
-4.9227385836e-09
1.17356975909e-11
3.46167487531e-09
-5.04833053942e-09
-1.03999784422e-11
3.46812046811e-09
-5.09255145236e-09
-3.14363609301e-11
3.46174952828e-09
-5.0483429603e-09
-4.88679445237e-11
3.44543139393e-09
-4.92276256434e-09
-6.0180965519e-11
3.41811245727e-09
-4.72172867629e-09
-6.3027886994e-11
3.37681872331e-09
-4.45277144282e-09
-5.51645873052e-11
3.31906337351e-09
-4.12699495783e-09
-3.4613693119e-11
3.24161367279e-09
-3.75794414532e-09
3.14985108927e-09
-3.35882442124e-09
8.22066208958e-13
4.36700189447e-11
2.93068158268e-09
-3.45571480609e-09
-2.36388093413e-13
6.768555526e-11
2.99637704688e-09
-3.88136092854e-09
7.65649059062e-11
3.04852892861e-09
-4.27390051544e-09
7.27965050869e-11
3.08472254231e-09
-4.61975453817e-09
5.91835241885e-11
3.10881052277e-09
-4.90488518787e-09
3.85212512156e-11
3.1237462792e-09
-5.11776178082e-09
1.37212775894e-11
3.1325011187e-09
-5.25050858444e-09
-1.23495381231e-11
3.13620096298e-09
-5.29705419434e-09
-3.71493302518e-11
3.13256982471e-09
-5.25052363345e-09
-5.78137094583e-11
3.12388209099e-09
-5.11779070161e-09
-7.1433684216e-11
3.10900758008e-09
-4.90492633629e-09
-7.52197379767e-11
3.08496812486e-09
-4.61980598093e-09
-6.63807752885e-11
3.0488002341e-09
-4.2739612715e-09
-4.24476229031e-11
2.99664693293e-09
-3.88143832797e-09
2.93091972052e-09
-3.45582798222e-09
8.5066675914e-13
4.98187154709e-11
2.64497943502e-09
-3.48612524743e-09
-2.27880412632e-13
7.65189356882e-11
2.69063336928e-09
-3.93378271981e-09
8.61684440206e-11
2.72274711721e-09
-4.34555679042e-09
8.16815557996e-11
2.74237321542e-09
-4.70765144639e-09
6.6263713119e-11
2.7535387427e-09
-5.00570769291e-09
4.3056972383e-11
2.75935443379e-09
-5.22793733299e-09
1.52864866191e-11
2.76255751834e-09
-5.36623979584e-09
-1.38933534915e-11
2.76422047075e-09
-5.41451086276e-09
-4.1663804663e-11
2.76261949971e-09
-5.36625777131e-09
-6.48737460173e-11
2.75947698656e-09
-5.22797178186e-09
-8.03012726336e-11
2.75371805004e-09
-5.0057562251e-09
-8.4810496943e-11
2.74259948849e-09
-4.70771088997e-09
-7.52066178347e-11
2.72300350024e-09
-4.34562455147e-09
-4.85907546206e-11
2.69089942625e-09
-3.93386518403e-09
2.64522953055e-09
-3.48623970882e-09
8.67716776725e-13
5.4300406068e-11
2.32439513335e-09
-3.45359858405e-09
-2.17592008444e-13
8.312959944e-11
2.35594146372e-09
-3.91907101174e-09
9.34639217544e-11
2.37332850012e-09
-4.34616251033e-09
8.85240524491e-11
2.38125621159e-09
-4.72095192876e-09
7.17672703116e-11
2.38364258136e-09
-5.02890818446e-09
4.66017779955e-11
2.38346756757e-09
-5.25815760119e-09
1.65119200114e-11
2.38306510413e-09
-5.40050479363e-09
-1.51069754675e-11
2.38335938306e-09
-5.44993536877e-09
-4.51977461991e-11
2.38311986067e-09
-5.4005260005e-09
-7.03683314411e-11
2.38357660124e-09
-5.25819821713e-09
-8.71385984444e-11
2.38380327883e-09
-5.02896510542e-09
-9.21057416401e-11
2.38146345156e-09
-4.72102074709e-09
-8.18220166031e-11
2.37357084628e-09
-4.34623898954e-09
-5.30793661206e-11
2.35620482213e-09
-3.91916063159e-09
2.32466172881e-09
-3.45371643863e-09
8.76432577103e-13
5.7268412791e-11
1.99261156259e-09
-3.36148983018e-09
-2.05199786569e-13
8.78465576528e-11
2.01478646017e-09
-3.84089170612e-09
9.89279441397e-11
2.02198135294e-09
-4.27975805857e-09
9.38250285584e-11
2.02243096924e-09
-4.66399651939e-09
7.61154444628e-11
2.01965770877e-09
-4.97903851621e-09
4.94325993667e-11
2.01620901756e-09
-5.21311678696e-09
1.74938939895e-11
2.01387644386e-09
-5.35808496252e-09
-1.60836377944e-11
2.01338624948e-09
-5.40814239292e-09
-4.80246958618e-11
2.01392457818e-09
-5.35810968301e-09
-7.47157819163e-11
2.01630533754e-09
-5.21316421245e-09
-9.24428830052e-11
2.01980272861e-09
-4.97910494989e-09
-9.75783886166e-11
2.0226220936e-09
-4.66407640418e-09
-8.65524137311e-11
2.02221269614e-09
-4.27984544522e-09
-5.60621342877e-11
2.01504995214e-09
-3.84099099979e-09
1.99289371031e-09
-3.36161373679e-09
8.78158802683e-13
5.89989544573e-11
1.66617442909e-09
-3.21294104512e-09
-1.93417740789e-13
9.13029766488e-11
1.68184271967e-09
-3.70288682121e-09
1.03368395348e-10
1.68243510183e-09
-4.15047809481e-09
9.83368911547e-11
1.67900661036e-09
-4.54122681523e-09
7.98900390162e-11
1.67416782788e-09
-4.86073416231e-09
5.19085268067e-11
1.66971780498e-09
-5.09758343101e-09
1.8355481052e-11
1.66684780117e-09
-5.24383459538e-09
-1.6944854943e-11
1.6660561713e-09
-5.29402000276e-09
-5.05023751485e-11
1.66689074929e-09
-5.24386300511e-09
-7.84952376293e-11
1.66980501952e-09
-5.09763815408e-09
-9.69647829887e-11
1.67430026751e-09
-4.86081115513e-09
-1.02034045389e-10
1.67918652153e-09
-4.54131961161e-09
-9.00283731826e-11
1.68266205399e-09
-4.15057890211e-09
-5.78142849311e-11
1.68211302406e-09
-3.70299821325e-09
1.66647986697e-09
-3.21307299788e-09
8.73938954056e-13
6.01334005998e-11
1.35568900073e-09
-3.01095147408e-09
-1.80430759155e-13
9.47835541658e-11
1.36561978914e-09
-3.50911263314e-09
1.08138722627e-10
1.36282145318e-09
-3.9629212613e-09
1.03165832162e-10
1.35881031363e-09
-4.35742858595e-09
8.3880672458e-11
1.35453998854e-09
-4.67890181418e-09
5.45070243528e-11
1.35093849092e-09
-4.91657034769e-09
1.92528884286e-11
1.34863261582e-09
-5.0628461595e-09
-1.78466027042e-11
1.34793426918e-09
-5.11269405558e-09
-5.31072290596e-11
1.34867310755e-09
-5.06287816138e-09
-8.24966241585e-11
1.35102146691e-09
-4.91663235799e-09
-1.018086078e-10
1.35466852387e-09
-4.6789898457e-09
-1.068236591e-10
1.3589880984e-09
-4.35753584098e-09
-9.35323040177e-11
1.3630505626e-09
-3.96303821516e-09
-5.8973203316e-11
1.36590513169e-09
-3.50923822505e-09
1.35602499939e-09
-3.01109137763e-09
8.6480065391e-13
6.0255717369e-11
-2.75954610989e-09
-1.6793933303e-13
1.06997220745e-09
9.98668543879e-11
-3.26591158374e-09
1.07047024454e-09
1.14690917129e-10
-3.72295023083e-09
1.06897966655e-09
1.09473029579e-10
-4.11810329239e-09
1.06716126034e-09
8.89923925657e-11
-4.43887761795e-09
1.06521583399e-09
5.78135826644e-11
-4.67536008895e-09
1.0636236554e-09
2.0394978149e-11
-4.82039597496e-09
1.06258445543e-09
-1.89974885594e-11
-4.86944675838e-09
1.06223354544e-09
-5.6424484162e-11
-4.82043077333e-09
1.06262735334e-09
-8.76228485158e-11
-4.67542795565e-09
1.06371026175e-09
-1.08135248862e-10
-4.43897505926e-09
1.0653499444e-09
-1.13400738976e-10
-4.11822417632e-09
1.06734669283e-09
-9.86419464326e-11
-3.72308406918e-09
1.06922384745e-09
-5.91210544384e-11
-3.26605612295e-09
1.07077963534e-09
-2.75968546562e-09
8.51803255808e-13
1.07035282596e-09
6.06531539001e-12
-8.7289080423e-11
-3.52410711033e-10
-2.86074749026e-14
9.45272807332e-12
-9.7262733509e-11
-3.87011936451e-10
1.09122986691e-11
-1.07674300151e-10
-4.19311303656e-10
1.06597192082e-11
-1.17289117489e-10
-4.48066714697e-10
8.86995778908e-12
-1.254089633e-10
-4.71950060306e-10
5.85001578846e-12
-1.31561705795e-10
-4.89884982422e-10
2.02420516e-12
-1.35440169806e-10
-5.01184215487e-10
-2.08957967059e-12
-1.36815725992e-10
-5.05260331584e-10
-5.90965552202e-12
-1.35424374786e-10
-5.01185993783e-10
-8.91874220675e-12
-1.3153242794e-10
-4.89888484279e-10
-1.06959014472e-11
-1.25371577389e-10
-4.71955254574e-10
-1.09378477855e-11
-1.17247730904e-10
-4.48073719931e-10
-9.46521830785e-12
-1.07625362491e-10
-4.19320714432e-10
-6.06782213846e-12
-9.72171828797e-11
-3.87026043551e-10
-8.72530287199e-11
-3.52436395792e-10
-2.09653140331e-14
1.36783512729e-11
-1.97812342931e-10
-1.0424977825e-09
-6.53072592745e-14
2.20570637008e-11
-2.17879842981e-10
-1.14854052397e-09
2.58015806795e-11
-2.38516181347e-10
-1.2477829461e-09
2.53297443707e-11
-2.57425908731e-10
-1.33624296913e-09
2.11169356749e-11
-2.73227417785e-10
-1.40979989484e-09
1.393296012e-11
-2.85090875856e-10
-1.46508739656e-09
4.81429277333e-12
-2.92530870651e-10
-1.49990637964e-09
-4.99174810141e-12
-2.95173140227e-10
-1.51241067497e-09
-1.40969548951e-11
-2.92493767092e-10
-1.49991161044e-09
-2.12556991969e-11
-2.8502045806e-10
-1.46509763818e-09
-2.54380216884e-11
-2.73132486738e-10
-1.40981500758e-09
-2.58803222731e-11
-2.57313951951e-10
-1.33626324383e-09
-2.21031681674e-11
-2.38386492947e-10
-1.24781008522e-09
-1.36955942345e-11
-2.17755995139e-10
-1.14858089242e-09
-1.97717239652e-10
-1.04256697864e-09
-5.7834706072e-14
1.78271508945e-11
-2.89179374443e-10
-1.6521747231e-09
-9.43231222652e-14
2.92234209129e-11
-3.15651643663e-10
-1.82392592565e-09
3.44237938312e-11
-3.42442892552e-10
-1.98449908957e-09
3.38694713212e-11
-3.66807770572e-10
-2.12746483205e-09
2.82479964081e-11
-3.8699056924e-10
-2.24624633748e-09
1.86310711347e-11
-4.02024901913e-10
-2.33547028498e-09
6.42735104086e-12
-4.1140865978e-10
-2.39160181798e-09
-6.69173286811e-12
-4.14742877101e-10
-2.41169721621e-09
-1.88770208866e-11
-4.11359446856e-10
-2.3916102186e-09
-2.84595658461e-11
-4.01931067936e-10
-2.33548671639e-09
-3.40380511386e-11
-3.86862562297e-10
-2.24627050742e-09
-3.45477640088e-11
-3.66656228533e-10
-2.12749707905e-09
-2.93006989551e-11
-3.4227223076e-10
-1.9845417955e-09
-1.78611100428e-11
-3.15483776491e-10
-1.82398794837e-09
-2.89042076249e-10
-1.65227713542e-09
-9.18627695951e-14
1.95303625853e-11
-3.60569558253e-10
-2.1682323449e-09
-1.1135941775e-13
3.236620535e-11
-3.90717980725e-10
-2.39819334355e-09
3.83466985616e-11
-4.20591210053e-10
-2.61278077564e-09
3.78104563775e-11
-4.47420400173e-10
-2.80354045816e-09
3.15507286155e-11
-4.69421000636e-10
-2.96184737816e-09
2.08031094878e-11
-4.85671449822e-10
-3.08065573692e-09
7.1636768373e-12
-4.95763568581e-10
-3.15530548904e-09
-7.4962345044e-12
-4.9935044915e-10
-3.18195001859e-09
-2.11147487514e-11
-4.95706207228e-10
-3.1553166535e-09
-3.18232586396e-11
-4.85561362643e-10
-3.08067756041e-09
-3.80325171882e-11
-4.69267428113e-10
-2.96187939429e-09
-3.85139398132e-11
-4.47234674755e-10
-2.80358292031e-09
-3.24760534403e-11
-4.2038240258e-10
-2.61283624944e-09
-1.95863929283e-11
-3.9051194615e-10
-2.39827167342e-09
-3.60398533354e-10
-2.16835683519e-09
-1.22338563116e-13
1.95182635574e-11
-4.11496419883e-10
-2.59485936015e-09
-1.20131683145e-13
3.26310569299e-11
-4.43120706789e-10
-2.87606313857e-09
3.88518129751e-11
-4.73636984848e-10
-3.13786816797e-09
3.83892334237e-11
-5.00573515988e-10
-3.37019682577e-09
3.20541280696e-11