/*--------------------------------*- C++ -*----------------------------------*\
  =========                 |
  \\      /  F ield         | OpenFOAM: The Open Source CFD Toolbox
   \\    /   O peration     | Website:  https://openfoam.org
    \\  /    A nd           | Version:  7
     \\/     M anipulation  |
\*---------------------------------------------------------------------------*/
FoamFile
{
    version     2.0;
    format      ascii;
    class       surfaceScalarField;
    location    "0.98";
    object      phi;
}
// * * * * * * * * * * * * * * * * * * * * * * * * * * * * * * * * * * * * * //

dimensions      [0 3 -1 0 0 0 0];

internalField   nonuniform List<scalar> 
65775
(
-2.09263140026e-11
-3.50134705152e-09
-1.7474690712e-10
-1.13161351896e-13
-3.64326730728e-11
-3.68007851721e-09
-1.93076307157e-10
-4.43781590266e-11
-3.84189222097e-09
-2.11066710014e-10
-4.39047459303e-11
-3.98188189182e-09
-2.27761045953e-10
-3.64531951573e-11
-4.09419058919e-09
-2.42076885282e-10
-2.35813330297e-11
-4.17658768028e-09
-2.53066558289e-10
-7.31589325513e-12
-4.22828856825e-09
-2.60067698838e-10
1.01213134124e-11
-4.24760504574e-09
-2.62574979802e-10
2.63318151948e-11
-4.22820106848e-09
-2.60025391727e-10
3.91003112497e-11
-4.17641796596e-09
-2.52982855038e-10
4.64125016671e-11
-4.09395222173e-09
-2.41953527088e-10
4.67130592109e-11
-3.98161472605e-09
-2.2760047249e-10
3.8569602843e-11
-3.84162213163e-09
-2.10871692302e-10
2.28338804384e-11
-3.67986006337e-09
-1.9284914908e-10
-3.50113097557e-09
-1.74490417128e-10
1.43379103957e-12
-6.17295503932e-11
-6.37820928038e-09
-5.83444280429e-10
-2.8454269203e-13
-1.09436392797e-10
-6.69555035061e-09
-6.49980315647e-10
-1.32826287558e-10
-6.98739709539e-09
-7.15444984519e-10
-1.32257368296e-10
-7.23761468933e-09
-7.76216258844e-10
-1.10280770912e-10
-7.43765689547e-09
-8.2835949372e-10
-7.16136676874e-11
-7.58368436064e-09
-8.68423330169e-10
-2.235642249e-11
-7.67503279518e-09
-8.93934735874e-10
3.04718576544e-11
-7.70906884887e-09
-9.0302969353e-10
7.95732548075e-11
-7.67480526768e-09
-8.93811091408e-10
1.1794342638e-10
-7.58324653735e-09
-8.68178535227e-10
1.39506417998e-10
-7.43704799469e-09
-8.27998777397e-10
1.39557590801e-10
-7.23691510965e-09
-7.7574686499e-10
1.15561076921e-10
-6.9866902994e-09
-7.14875395401e-10
6.71165513927e-11
-6.69491977144e-09
-6.49317880328e-10
-6.37758327066e-09
-5.8269948181e-10
4.14592531715e-12
-1.01496877216e-10
-8.61901913293e-09
-1.0047004895e-09
-4.11329171345e-13
-1.76909230293e-10
-9.03371392381e-09
-1.12394025274e-09
-2.13910400582e-10
-9.41704341002e-09
-1.24096264855e-09
-2.13123479897e-10
-9.74255788194e-09
-1.34926953499e-09
-1.77957841801e-10
-1.00015982369e-08
-1.44197429333e-09
-1.15779271616e-10
-1.01896129824e-08
-1.51307790446e-09
-3.63974834088e-11
-1.03068334285e-08
-1.55827455367e-09
4.87605442197e-11
-1.03504436074e-08
-1.57433995129e-09
1.27918835667e-10
-1.03064807504e-08
-1.55808248286e-09
1.89667175443e-10
-1.01889384194e-08
-1.51269756181e-09
2.24221623789e-10
-1.00006644116e-08
-1.44141352654e-09
2.24232200013e-10
-9.74147363667e-09
-1.34853931156e-09
1.86301718211e-10
-9.41593793764e-09
-1.24007618982e-09
1.09746059651e-10
-9.03266637942e-09
-1.12290933346e-09
-8.61797225553e-09
-1.00354208733e-09
6.43944831257e-12
-1.39104588153e-10
-1.02447446076e-08
-1.40721111013e-09
-4.79548191777e-13
-2.38384967153e-10
-1.07183938014e-08
-1.57790237582e-09
-2.8719070871e-10
-1.11545708233e-08
-1.74453557804e-09
-2.85838958685e-10
-1.15213573773e-08
-1.89800989323e-09
-2.38769976756e-10
-1.18114596678e-08
-2.02885204549e-09
-1.55558000616e-10
-1.20207223352e-08
-2.12890259157e-09
-4.92916844102e-11
-1.21507208065e-08
-2.19234254416e-09
6.47104329792e-11
-1.21990598409e-08
-2.21483412012e-09
1.70717203175e-10
-1.21502740541e-08
-2.19209954454e-09
2.53424507987e-10
-1.20198701487e-08
-2.12842116917e-09
2.99763899193e-10
-1.18102816752e-08
-2.02814150839e-09
3.00173526781e-10
-1.15199776483e-08
-1.8970834473e-09
2.50219395896e-10
-1.11531418388e-08
-1.74340967565e-09
1.49524490819e-10
-1.07169795511e-08
-1.57659192621e-09
-1.02433082129e-08
-1.40573725063e-09
8.24874440353e-12
-1.7340514931e-10
-1.1300644471e-08
-1.76780945978e-09
-5.02652708502e-13
-2.9366277924e-10
-1.1799685368e-08
-1.98466616557e-09
-3.52622095172e-10
-1.22548735131e-08
-2.19487493295e-09
-3.50449435479e-10
-1.26337003934e-08
-2.38732971169e-09
-2.92712072737e-10
-1.29311343972e-08
-2.55061057419e-09
-1.90910828635e-10
-1.31442920699e-08
-2.67500772508e-09
-6.09866142459e-11
-1.32762169099e-08
-2.75366351641e-09
7.8374147855e-11
-1.33252800266e-08
-2.78148000085e-09
2.08026227586e-10
-1.32757114754e-08
-2.75338606914e-09
3.09293110194e-10
-1.31433285373e-08
-2.67445792552e-09
3.66246496092e-10
-1.29297994099e-08
-2.54979858599e-09
3.67391884367e-10
-1.26321215715e-08
-2.38627017569e-09
3.07162803038e-10
-1.22532077831e-08
-2.19358663645e-09
1.85343638859e-10
-1.17979834924e-08
-1.98316610801e-09
-1.12988864784e-08
-1.76612076191e-09
9.57866947568e-12
-2.03970831522e-10
-1.18492155611e-08
-2.06967862356e-09
-4.93074883736e-13
-3.42893789221e-10
-1.23462152508e-08
-2.32511532322e-09
-4.10615544663e-10
-1.27937888609e-08
-2.57076207789e-09
-4.07477457253e-10
-1.3162155318e-08
-2.79422679059e-09
-3.40224123363e-10
-1.34489878863e-08
-2.98285345128e-09
-2.22087680815e-10
-1.36531714445e-08
-3.12601190258e-09
-7.14825637909e-11
-1.37790626271e-08
-3.21626817844e-09
9.0016338594e-11
-1.38259055102e-08
-3.24810547274e-09
2.40348702461e-10
-1.3778532454e-08
-3.21596919648e-09
3.57945314405e-10
-1.36521593087e-08
-3.12541962522e-09
4.24397587395e-10
-1.34475792806e-08
-2.98197900821e-09
4.26475044169e-10
-1.31604718193e-08
-2.79308638194e-09
3.57429478708e-10
-1.27919802718e-08
-2.56937685262e-09
2.16885607759e-10
-1.23443133683e-08
-2.32350396659e-09
-1.18472046803e-08
-2.06786464495e-09
1.0493351023e-11
-2.30871057758e-10
-1.19623754161e-08
-2.30331726465e-09
-4.62139705594e-13
-3.86470873528e-10
-1.24364275723e-08
-2.58911052436e-09
-4.6180425595e-10
-1.28573964262e-08
-2.86173192937e-09
-4.57655075383e-10
-1.31997284076e-08
-3.10817219044e-09
-3.81939271127e-10
-1.34639017628e-08
-3.31516796783e-09
-2.49470726026e-10
-1.36506854803e-08
-3.47169176768e-09
-8.08174183724e-11
-1.37654058756e-08
-3.57009409694e-09
9.99714020763e-11
-1.38081101492e-08
-3.60470884861e-09
2.68353821118e-10
-1.37648762315e-08
-3.5697824008e-09
4.00283254943e-10
-1.36496713108e-08
-3.47107494871e-09
4.75193610293e-10
-1.34624808218e-08
-3.31425872098e-09
4.78270676319e-10
-1.31980094536e-08
-3.10698907121e-09
4.01594814793e-10
-1.28555136266e-08
-2.86029918049e-09
2.44361447535e-10
-1.24343975581e-08
-2.58744870129e-09
-1.1960171435e-08
-2.30144964641e-09
1.10874814999e-11
-2.5443118306e-10
-1.17147311835e-08
-2.46570514984e-09
-4.19064080585e-13
-4.2487108864e-10
-1.21511124001e-08
-2.77415736833e-09
-5.06836719073e-10
-1.25332764099e-08
-3.06610554414e-09
-5.01695961935e-10
-1.28400770693e-08
-3.32844607238e-09
-4.18473420338e-10
-1.30746208902e-08
-3.54778689561e-09
-2.7343746058e-10
-1.3239363326e-08
-3.71308168199e-09
-8.90415837975e-11
-1.33401524072e-08
-3.8167111559e-09
1.08543275824e-10
-1.33776630357e-08
-3.8530511703e-09
2.92666799966e-10
-1.33396382093e-08
-3.81639221309e-09
4.37159297425e-10
-1.32383742083e-08
-3.7124516059e-09
5.19568226805e-10
-1.30732225693e-08
-3.54686068851e-09
5.23625989202e-10
-1.28383615966e-08
-3.32724566499e-09
4.40307710324e-10
-1.25313576789e-08
-3.06465927841e-09
2.682361432e-10
-1.21489930357e-08
-2.77248812366e-09
-1.171236124e-08
-2.46383630827e-09
1.14611550842e-11
-2.7506538763e-10
-1.11786853211e-08
-2.55861989665e-09
-3.7135781727e-13
-4.58576276643e-10
-1.15680875812e-08
-2.88316231993e-09
-5.4630888062e-10
-1.19046689645e-08
-3.18811220427e-09
-5.402223612e-10
-1.21712601752e-08
-3.46062249355e-09
-4.50351107829e-10
-1.23731991705e-08
-3.68749899812e-09
-2.94308427562e-10
-1.2514188409e-08
-3.85793087088e-09
-9.62075958359e-11
-1.26001071407e-08
-3.96448760409e-09
1.15967402895e-10
-1.26320323087e-08
-4.00171994985e-09
3.13788637875e-10
-1.25996124346e-08
-3.96416470568e-09
4.69273455747e-10
-1.25132307745e-08
-3.85729438434e-09
5.5831098469e-10
-1.2371830059e-08
-3.68656683115e-09
5.63292556243e-10
-1.21695526235e-08
-3.45942081893e-09
4.74189448282e-10
-1.1902715017e-08
-3.18667435311e-09
2.89043794936e-10
-1.15658763865e-08
-2.88151391092e-09
-1.1176149825e-08
-2.55678539716e-09
1.17017200233e-11
-2.93152952739e-10
-1.04214691833e-08
-2.58685638191e-09
-3.25109980796e-13
-4.88039628119e-10
-1.07589927402e-08
-2.92222787644e-09
-5.80773458088e-10
-1.10472136511e-08
-3.23525119771e-09
-5.7378166333e-10
-1.12725139021e-08
-3.51352735907e-09
-4.78011035044e-10
-1.14418355331e-08
-3.74426722936e-09
-3.12345326431e-10
-1.15594917068e-08
-3.91706876533e-09
-1.02367583528e-10
-1.16309084664e-08
-4.02479966436e-09
1.22410074335e-10
-1.16573358837e-08
-4.06228476232e-09
3.32094981744e-10
-1.16304277088e-08
-4.02447500628e-09
4.97177597232e-10
-1.15585537805e-08
-3.91643035734e-09
5.92080491545e-10
-1.14404770509e-08
-3.74333617374e-09
5.97930044478e-10
-1.12707881838e-08
-3.51233457357e-09
5.03793120266e-10
-1.10451904819e-08
-3.23383557061e-09
3.07251651122e-10
-1.07566492041e-08
-2.92061795454e-09
-1.04187248841e-08
-2.58507889066e-09
1.18787794817e-11
-3.0895064469e-10
-9.50369955533e-09
-2.55676062779e-09
-2.83187131425e-13
-5.13706003332e-10
-9.78768115553e-09
-2.89894958129e-09
-6.10813987871e-10
-1.00275577426e-08
-3.21637432971e-09
-6.02913767655e-10
-1.02131403826e-08
-3.49713773057e-09
-5.01847176252e-10
-1.03519768456e-08
-3.72898921075e-09
-3.27769648189e-10
-1.04481979386e-08
-3.90207336049e-09
-1.07574511008e-10
-1.05063624089e-08
-4.00964825166e-09
1.27983324546e-10
-1.05277051581e-08
-4.04689655558e-09
3.4786727655e-10
-1.05058815598e-08
-4.00932373714e-09
5.2132699218e-10
-1.04472521448e-08
-3.9014367286e-09
6.21479310247e-10
-1.03505884276e-08
-3.72806466457e-09
6.28185206859e-10
-1.02113438565e-08
-3.49596099152e-09
5.29625155051e-10
-1.00254014514e-08
-3.21499009261e-09
3.23176964808e-10
-9.7851311434e-09
-2.89738933189e-09
-9.50067676904e-09
-2.55505414595e-09
1.20417348076e-11
-3.22574321888e-10
-8.47900195603e-09
-2.47520444178e-09
-2.46706181299e-13
-5.36180759473e-10
-8.7095290548e-09
-2.82131487609e-09
-6.37217080925e-10
-8.90312340323e-09
-3.14052433371e-09
-6.28243443345e-10
-9.05268410829e-09
-3.42137222415e-09
-5.22247850766e-10
-9.16470575007e-09
-3.6522645049e-09
-3.40777465583e-10
-9.24233285565e-09
-3.82403548437e-09
-1.11881151843e-10
-9.28902346838e-09
-3.9304277157e-09
1.32759417043e-10
-9.30589321115e-09
-3.96705855768e-09
3.6132206622e-10
-9.28852137047e-09
-3.93010550231e-09
5.42132491226e-10
-9.24133793705e-09
-3.8234046156e-09
6.47156952386e-10
-9.16322825609e-09
-3.65135176842e-09
6.54871695038e-10
-9.05074191211e-09
-3.42021771053e-09
5.52319435294e-10
-8.90074469086e-09
-3.13917861089e-09
3.36963905499e-10
-8.70667182236e-09
-2.81981271115e-09
-8.4756060721e-09
-2.47357862322e-09
1.22192035789e-11
-3.34471280899e-10
-7.39378302583e-09
-2.34896054033e-09
-2.17865801285e-13
-5.56924893945e-10
-7.57109379988e-09
-2.6971279158e-09
-6.61270829731e-10
-7.72284122948e-09
-3.01636465619e-09
-6.50510380309e-10
-7.84195050495e-09
-3.29551760636e-09
-5.39557453781e-10
-7.93174970566e-09
-3.52384251356e-09
-3.5150806845e-10
-7.99404373064e-09
-3.69303987926e-09
-1.15325920531e-10
-8.03124973618e-09
-3.79743386975e-09
1.3676909566e-10
-8.04435073772e-09
-3.83314425676e-09
3.72591901244e-10
-8.03069809085e-09
-3.79711677498e-09
5.59933216766e-10
-7.99294494572e-09
-3.69241986876e-09
6.69849605031e-10
-7.93010712974e-09
-3.52294797806e-09
6.79276569277e-10
-7.83976813078e-09
-3.29439190671e-09
5.73338488856e-10
-7.72012980834e-09
-3.01506412278e-09
3.49063389025e-10
-7.56780048515e-09
-2.695692429e-09
-7.38988131311e-09
-2.34742643771e-09
1.23988838263e-11
-3.47883795348e-10
-6.28486252746e-09
-2.18437157788e-09
-2.00582459721e-13
-5.79601033368e-10
-6.41104223576e-09
-2.53385897185e-09
-6.84922366991e-10
-6.52928154809e-09
-2.85197141139e-09
-6.70493756603e-10
-6.62448818006e-09
-3.1279971115e-09
-5.54067314617e-10
-6.69662065559e-09
-3.35242881139e-09
-3.60077740468e-10
-6.74671263872e-09
-3.51802216099e-09
-1.17951350949e-10
-6.776386511e-09
-3.61975766405e-09
1.40029830684e-10
-6.78643290407e-09
-3.65430409594e-09
3.81768686866e-10
-6.77574925396e-09
-3.61944955706e-09
5.74995879663e-10
-6.74544218067e-09
-3.51742005088e-09
6.90313226255e-10
-6.69471744205e-09
-3.35156126076e-09
7.03324418583e-10
-6.62195200794e-09
-3.12690859348e-09
5.96329336989e-10
-6.52611174998e-09
-2.85072288269e-09
3.62712463255e-10
-6.40716896565e-09
-2.53249945409e-09
-6.28031376063e-09
-2.18294608473e-09
1.2612664105e-11
-3.7387946015e-10
-1.98710423037e-09
-1.81014011994e-13
-5.17233690279e-09
-6.11400955007e-10
-2.33871522795e-09
-5.26471028983e-09
-7.1304776559e-10
-2.65447328966e-09
-5.36020041852e-09
-6.92328268336e-10
-2.92606112045e-09
-5.43733807676e-09
-5.69251750532e-10
-3.14552913291e-09
-5.49597997922e-09
-3.68846527867e-10
-3.30674925951e-09
-5.53707466299e-09
-1.20601107387e-10
-3.40535302374e-09
-5.56133419833e-09
1.43351329889e-10
-3.43856335032e-09
-5.56912925217e-09
3.91176886234e-10
-3.40505949834e-09
-5.56056615694e-09
5.90758826479e-10
-3.30617562456e-09
-5.53554471533e-09
7.12640760326e-10
-3.14470273335e-09
-5.49369449133e-09
7.31843920407e-10
-2.92502445493e-09
-5.43430190231e-09
6.28419876836e-10
-2.65328887247e-09
-5.3564113906e-09
3.88921030827e-10
-2.33743244762e-09
-5.26010999013e-09
-1.98582651801e-09
1.28099818979e-11
-5.1669667929e-09
-8.5003860902e-13
1.51333932707e-10
-3.25140431362e-10
1.62565922892e-13
-5.18613684946e-13
1.67277242388e-10
-3.60247817653e-10
2.23958446599e-13
1.8263466231e-10
-3.9389991655e-10
6.89417612067e-13
1.96707476732e-10
-4.24405391682e-10
7.75606562737e-13
2.08380744881e-10
-4.50081057418e-10
4.93542578275e-13
2.17109836946e-10
-4.69540642804e-10
-3.04487318572e-14
2.22570729743e-10
-4.8185268933e-10
-6.3641595563e-13
2.24500019335e-10
-4.86272775384e-10
-1.1534546172e-12
2.22484714934e-10
-4.81840327299e-10
-1.42924010155e-12
2.16934427876e-10
-4.69516254348e-10
-1.35159553403e-12
2.08120051476e-10
-4.50045062555e-10
-9.03159992756e-13
1.96404018256e-10
-4.24358017205e-10
-1.77358533555e-13
1.82329162193e-10
-3.93840841672e-10
1.78474028845e-13
1.67048727126e-10
-3.60174308434e-10
1.51205221455e-10
-3.25042963577e-10
-4.01472003746e-13
8.6170392681e-13
4.42138577836e-10
-8.75040962662e-10
3.86605027459e-13
3.65664917599e-12
4.83603946394e-10
-9.68384216784e-10
6.2788653248e-12
5.23041435938e-10
-1.05761368242e-09
7.45035306679e-12
5.58454899337e-10
-1.13830171648e-09
6.76990262421e-12
5.87495991155e-10
-1.20608848405e-09
4.4094957979e-12
6.08985026615e-10
-1.25739503894e-09
9.19839990723e-13
6.22350597354e-10
-1.28981745118e-09
-2.95466529831e-12
6.27085126827e-10
-1.30143023927e-09
-6.42297152326e-12
6.22165761482e-10
-1.28977989057e-09
-8.75650742105e-12
6.08610943485e-10
-1.25732117573e-09
-9.42883455308e-12
5.86944704394e-10
-1.20597980958e-09
-8.26175772368e-12
5.57801447425e-10
-1.13815943218e-09
-5.62515266748e-12
5.22392238094e-10
-1.05743749341e-09
-2.71052341678e-12
4.83108368257e-10
-9.68167352701e-10
4.4185492732e-10
-8.74764226534e-10
-1.18445140445e-12
4.59400916104e-12
7.61740773818e-10
-1.32902453619e-09
5.58262402503e-13
1.0965384967e-11
8.25244659285e-10
-1.47129596824e-09
1.57559104939e-11
8.85020641447e-10
-1.60695518558e-09
1.74070166279e-11
9.37688657563e-10
-1.72940422477e-09
1.53555319598e-11
9.80343505582e-10
-1.83214008698e-09
1.00284639501e-11
1.01154733291e-09
-1.90982518487e-09
2.50429647772e-12
1.03082983861e-09
-1.95886109814e-09
-5.76947122294e-12
1.03768063513e-09
-1.97637927813e-09
-1.3262458543e-11
1.03059925733e-09
-1.95879944344e-09
-1.85455944767e-11
1.0110851467e-09
-1.90970407192e-09
-2.05657712812e-11
9.79672074403e-10
-1.83196233387e-09
-1.88899650704e-11
9.36899882995e-10
-1.72917258213e-09
-1.40338538001e-11
8.84257899164e-10
-1.60667052468e-09
-7.44708137943e-12
8.24678044949e-10
-1.47095034247e-09
7.61447840881e-10
-1.32859420994e-09
-1.88431276469e-12
9.47923771928e-12
1.04553519771e-09
-1.70074332998e-09
6.73338919246e-13
1.98380325341e-11
1.12202961694e-09
-1.88444403346e-09
2.67785844716e-11
1.19335008615e-09
-2.05910276534e-09
2.86247151129e-11
1.2549444255e-09
-2.21644558063e-09
2.48499025405e-11
1.30409833853e-09
-2.34827575332e-09
1.62013579468e-11
1.33958841492e-09
-2.44786081265e-09
4.30778444866e-12
1.3613581022e-09
-2.5106436223e-09
-8.69142703417e-12
1.36911858685e-09
-2.53301359185e-09
-2.05453634989e-11
1.36112001694e-09
-2.51055859992e-09
-2.913126492e-11
1.3391163104e-09
-2.44769406792e-09
-3.28424771792e-11
1.30342263117e-09
-2.34803187501e-09
-3.09243416494e-11
1.25416041773e-09
-2.21612969179e-09
-2.38503711262e-11
1.19261218631e-09
-2.05871833114e-09
-1.31817306339e-11
1.12150885173e-09
-1.88398477424e-09
1.04531648909e-09
-1.70018601481e-09
-2.50874077206e-12
1.48339223613e-11
1.25846825084e-09
-1.99593890183e-09
7.48795416707e-13
2.89667671747e-11
1.33805731569e-09
-2.21428956582e-09
3.77232036847e-11
1.41156278702e-09
-2.42122628889e-09
3.94639961553e-11
1.47370084157e-09
-2.60724856609e-09
3.38560247618e-11
1.5224539512e-09
-2.76287516971e-09
2.19973925464e-11
1.55712664606e-09
-2.88030772567e-09
6.01396880729e-12
1.57821717139e-09
-2.9542444879e-09
-1.13702336214e-11
1.58576983419e-09
-2.98051499224e-09
-2.73071192487e-11
1.57799511432e-09
-2.95413695486e-09
-3.908545505e-11
1.5566911853e-09
-2.88009725847e-09
-4.45961238212e-11
1.5218398044e-09
-2.76256862796e-09
-4.27311311466e-11
1.47300142688e-09
-2.60685430061e-09
-3.37709836127e-11
1.41092684275e-09
-2.42075170731e-09
-1.92451006779e-11
1.33764688859e-09
-2.21373194472e-09
1.25837106315e-09
-1.99527828813e-09
-3.05450414851e-12
2.0103682502e-11
1.38845408698e-09
-2.22020270281e-09
7.94944935244e-13
3.74196761107e-11
1.46323198549e-09
-2.46712224924e-09
4.74933113967e-11
1.53158805826e-09
-2.70032211718e-09
4.88649928131e-11
1.58807293424e-09
-2.90946785084e-09
4.15028483067e-11
1.6315401802e-09
-3.08415724142e-09
2.68494184907e-11
1.66192093996e-09
-3.21581766964e-09
7.43040365258e-12
1.6802256006e-09
-3.29859294631e-09
-1.36000770499e-11
1.68682147206e-09
-3.32791492195e-09
-3.29672086937e-11
1.68003017187e-09
-3.29846390822e-09
-4.75252977912e-11
1.66154193294e-09
-3.21556568564e-09
-5.47587472596e-11
1.63101444026e-09
-3.08379192233e-09
-5.32136810065e-11
1.58748630025e-09
-2.90900155481e-09
-4.28711114508e-11
1.53107766753e-09
-2.69976727864e-09
-2.50945704053e-11
1.46293793072e-09
-2.46648076466e-09
1.38847443896e-09
-2.21945872318e-09
-3.52309687253e-12
2.48723556856e-11
1.43877159755e-09
-2.37899221397e-09
8.18594730319e-13
4.4608314142e-11
1.50387923651e-09
-2.64907431181e-09
5.54601061572e-11
1.56267817523e-09
-2.90321178981e-09
5.62668746916e-11
1.61009110026e-09
-3.13056881049e-09
4.73603825304e-11
1.64577602101e-09
-3.32013761109e-09
3.04896627917e-11
1.67021648149e-09
-3.46282658721e-09
8.46486355014e-12
1.68478198894e-09
-3.5523930224e-09
-1.52939616837e-11
1.69007523806e-09
-3.58401533313e-09
-3.72626023795e-11
1.68461656497e-09
-3.5522437003e-09
-5.40251011942e-11
1.66989877505e-09
-3.46253568718e-09
-6.27752958849e-11
1.6453417513e-09
-3.31971788745e-09
-6.17510780164e-11
1.60961598079e-09
-3.13003723272e-09
-5.05748233442e-11
1.5622832915e-09
-2.90258655887e-09
-3.03242277468e-11
1.50368467881e-09
-2.64836236279e-09
1.43887357978e-09
-2.37818203514e-09
-3.91560216492e-12
2.88731135171e-11
1.42128259216e-09
-2.47760364242e-09
8.22348310199e-13
5.02484705836e-11
1.47479404231e-09
-2.76608114133e-09
6.13796074276e-11
1.52232004647e-09
-3.03648378838e-09
6.15047733318e-11
1.55963164683e-09
-3.27774740352e-09
5.13370250567e-11
1.5869934477e-09
-3.47852702546e-09
3.28759407637e-11
1.60528468563e-09
-3.62943494545e-09
9.10086163866e-12
1.61604511097e-09
-3.72399202215e-09
-1.64514594839e-11
1.6200004315e-09
-3.75725334542e-09
-4.01665353023e-11
1.61590670827e-09
-3.72382390957e-09
-5.85079187368e-11
1.60502078986e-09
-3.62910820737e-09
-6.8495070089e-11
1.58663635611e-09
-3.47805780477e-09
-6.81138599671e-11
1.55924591229e-09
-3.27715765032e-09
-5.66113021807e-11
1.52200778178e-09
-3.03579785187e-09
-3.46805368826e-11
1.4746546154e-09
-2.76531095424e-09
1.42140717678e-09
-2.476742208e-09
-4.23823552014e-12
3.1966717535e-11
1.35130833474e-09
-2.52113960796e-09
8.1051188888e-13
5.42709028533e-11
1.39348609414e-09
-2.82384235403e-09
6.52724629105e-11
1.42998469135e-09
-3.10644640431e-09
6.46775463607e-11
1.45778390051e-09
-3.35787327711e-09
5.35611958014e-11
1.47753817328e-09
-3.56666488964e-09
3.41098810575e-11
1.49035783479e-09
-3.72333369522e-09
9.37039569448e-12
1.49778038051e-09
-3.82130187145e-09
-1.71259890303e-11
1.50055015728e-09
-3.85562116049e-09
-4.18014010848e-11
1.49766352315e-09
-3.82111674325e-09
-6.11219709109e-11
1.4901351053e-09
-3.72297469641e-09
-7.20356372768e-11
1.4772363287e-09
-3.56615160238e-09
-7.23409619261e-11
1.4574545312e-09
-3.35723274648e-09
-6.0928491781e-11
1.42971128108e-09
-3.10570918575e-09
-3.80381853115e-11
1.39334688304e-09
-2.82302501809e-09
1.35138652921e-09
-2.52023999502e-09
-4.4979671342e-12
3.41108045853e-11
1.24431131148e-09
-2.51449216147e-09
7.86172378105e-13
5.67432045372e-11
1.27670845771e-09
-2.82780972362e-09
6.73191617268e-11
1.30355848601e-09
-3.11912173919e-09
6.60367923647e-11
1.3232827287e-09
-3.37748678544e-09
5.42854048065e-11
1.33676306234e-09
-3.59151733364e-09
3.43727061914e-11
1.34519405378e-09
-3.75180312885e-09
9.33272163965e-12
1.34997965245e-09
-3.85179888127e-09
-1.73986438277e-11
1.35179869867e-09
-3.88666634822e-09
-4.2369982441e-11
1.34987614854e-09
-3.85159880342e-09
-6.21407162113e-11
1.34499511576e-09
-3.7514159108e-09
-7.36690895943e-11
1.33648823336e-09
-3.59096586347e-09
-7.46321245499e-11
1.32297080414e-09
-3.37680305718e-09
-6.36121134506e-11
1.30327332467e-09
-3.11834232527e-09
-4.03694696079e-11
1.27650812545e-09
-2.8269552725e-09
1.24426675552e-09
-2.5135658174e-09
-4.70287008501e-12
3.53348579252e-11
1.11405666954e-09
-2.4623467311e-09
7.53624493202e-13
5.7820945329e-11
1.13871388614e-09
-2.78320927983e-09
6.77996682412e-11
1.15772330424e-09
-3.08028490701e-09
6.59269833538e-11
1.17107831941e-09
-3.34284633449e-09
5.38333952731e-11
1.17978360399e-09
-3.55972802292e-09
3.38901344916e-11
1.18499326614e-09
-3.72176633003e-09
9.06226351136e-12
1.18787810616e-09
-3.82257948425e-09
-1.73637955207e-11
1.18899768361e-09
-3.85754855148e-09
-4.21177530331e-11
1.1877783492e-09
-3.8223668168e-09
-6.19075188213e-11
1.18479845846e-09
-3.72135532893e-09
-7.37587860977e-11
1.17950529533e-09
-3.5591445583e-09
-7.52860277842e-11
1.17074167354e-09
-3.34212700491e-09
-6.48353221511e-11
1.15737348387e-09
-3.07947197935e-09
-4.17193621968e-11
1.13839015429e-09
-2.78232685994e-09
1.11381325846e-09
-2.46140369471e-09
-4.86130111129e-12
3.57174064991e-11
9.7184383328e-10
-2.36920114348e-09
7.133420369e-13
5.77407622967e-11
9.90667766577e-10
-2.69509619325e-09
6.70943420124e-11
1.00357861096e-09
-2.99554034816e-09
6.47817779995e-11
1.012201932e-09
-3.26000556712e-09
5.25940134032e-11
1.01755660934e-09
-3.47769182297e-09
3.29250677938e-11
1.0206244513e-09
-3.63986193302e-09
8.64755722251e-12
1.02228277371e-09
-3.74043395679e-09
-1.71261025286e-11
1.02292936427e-09
-3.77511385573e-09
-4.13236364326e-11
1.02217640859e-09
-3.740211458e-09
-6.08272429167e-11
1.02041192384e-09
-3.63943226486e-09
-7.27545212035e-11
1.01724192542e-09
-3.47708317142e-09
-7.46985600245e-11
1.01179723042e-09
-3.25925845945e-09
-6.48493629302e-11
1.00311093898e-09
-2.99470245635e-09
-4.21804247315e-11
9.90159232616e-10
-2.69419493654e-09
9.71335613821e-10
-2.36825077412e-09
-4.98056099206e-12
3.54132763545e-11
8.26386795934e-10
-2.23938849921e-09
6.6965883461e-13
5.69108920242e-11
8.4065701076e-10
-2.56845048702e-09
6.57726134886e-11
8.48937806245e-10
-2.8704260578e-09
6.31831425734e-11
8.54310913504e-10
-3.13489181264e-09
5.10509532228e-11
8.57591907446e-10
-3.3516161957e-09
3.17954320756e-11
8.59459259976e-10
-3.512500754e-09
8.1931235672e-12
8.60453048207e-10
-3.61190357212e-09
-1.6801302643e-11
8.60825841016e-10
-3.64595271836e-09
-4.03173924114e-11
8.60327297115e-10
-3.61167451982e-09
-5.93949804565e-11
8.59205253716e-10
-3.51205838769e-09
-7.12491813559e-11
8.57207171392e-10
-3.35098996353e-09
-7.34496089672e-11
8.53795098512e-10
-3.13412505943e-09
-6.40723887286e-11
8.48298817321e-10
-2.86957164142e-09
-4.19150884062e-11
8.39900797348e-10
-2.56754038601e-09
8.25544226682e-10
-2.2384423739e-09
-5.06260879168e-12
3.47953237011e-11
6.83864260567e-10
-2.07709037315e-09
6.25620548856e-13
5.60935739682e-11
6.93995596199e-10
-2.40835980097e-09
6.46993826915e-11
6.99010768894e-10
-2.71052104416e-09
6.1908481283e-11
7.02561777646e-10
-2.97333430536e-09
4.98104282452e-11
7.04900251633e-10
-3.1875270642e-09
3.08780576883e-11
7.06339513286e-10
-3.34587427196e-09
7.83119924981e-12
7.07129547636e-10
-3.44329557112e-09
-1.65288396837e-11
7.07374575535e-10
-3.47641764538e-09
-3.94820618603e-11
7.06970256529e-10
-3.44306399835e-09
-5.82224341291e-11
7.06015954552e-10
-3.34542656406e-09
-7.00251940608e-11
7.04404845183e-10
-3.18689248803e-09
-7.2409359623e-11
7.01885816912e-10
-2.97255699855e-09
-6.32723836829e-11
6.98149218298e-10
-2.70965814567e-09
-4.13043309569e-11
6.92930570449e-10
-2.40745176033e-09
6.826145337e-10
-2.07616552174e-09
-5.11415336289e-12
3.39022070519e-11
-1.88681132047e-09
5.77423457127e-13
5.49252479716e-10
5.62407723287e-11
-2.22078981952e-09
5.53848192374e-10
6.48455814257e-11
-2.5216022904e-09
5.57647796635e-10
6.18077302721e-11
-2.7810464931e-09
5.60686306887e-10
4.95507371514e-11
-2.99120680417e-09
5.62930023504e-10
3.06254275923e-11
-3.14587897511e-09
5.64483210686e-10
7.71059776429e-12
-3.24060101532e-09
5.65368064848e-10
-1.64609656185e-11
-3.2725390032e-09
5.65593638592e-10
-3.92734299837e-11
-3.24037267977e-09
5.65155651544e-10
-5.79898984073e-11
-3.14543678942e-09
5.6405525605e-10
-6.99302088719e-11
-2.99057831847e-09
5.62276993277e-10
-7.25395828366e-11
-2.78027352127e-09
5.59796861655e-10
-6.33911850362e-11
-2.52074362403e-09
5.56503211869e-10
-4.03832743129e-11
-2.21988728704e-09
5.52421426036e-10
-1.88594634702e-09
-5.13015920062e-12
5.47521811106e-10
1.61124065757e-12
-2.9500666036e-11
-2.9721591535e-10
-1.29447014379e-14
2.41683287326e-12
-3.2902964383e-11
-3.28159271484e-10
2.71214354619e-12
-3.64387762318e-11
-3.57771400467e-10
2.60083092965e-12
-3.97255728611e-11
-3.84589109364e-10
2.14062330244e-12
-4.24930729226e-11
-4.07137653363e-10
1.40453477214e-12
-4.45839916844e-11
-4.24211800162e-10
4.84418751868e-13
-4.59019185479e-11
-4.35009219762e-10
-5.03225078916e-13
-4.63703819163e-11
-4.3888731831e-10
-1.42342501995e-12
-4.58972260048e-11
-4.34992720069e-10
-2.15763992705e-12
-4.45716644619e-11
-4.24179307004e-10
-2.61013980699e-12
-4.24714629893e-11
-4.07090078038e-10
-2.70839440081e-12
-3.97016887388e-11
-3.84527533021e-10
-2.40008717879e-12
-3.64227528707e-11
-3.57696461722e-10
-1.58072071862e-12
-3.28954959756e-11
-3.28069113729e-10
-2.95084766265e-11
-2.97101222883e-10
1.40580324281e-14
3.50966722687e-12
-7.00289627997e-11
-8.37978094544e-10
-1.53637438574e-14
5.44463780526e-12
-7.72614270735e-11
-9.25970922069e-10
6.17967265061e-12
-8.47023140993e-11
-1.01010808271e-09
5.94199542776e-12
-9.15748825834e-11
-1.0862387144e-09
4.89559399607e-12
-9.73189476418e-11
-1.1502208429e-09
3.22247336203e-12
-1.01628691832e-10
-1.19865741212e-09
1.13843398114e-12
-1.04332724809e-10
-1.22926607678e-09
-1.09582133819e-12
-1.05294945825e-10
-1.24022614753e-09
-3.18191607209e-12
-1.04323938718e-10
-1.22921769644e-09
-4.85510065617e-12
-1.01606793481e-10
-1.19856221976e-09
-5.89248907412e-12
-9.72816650022e-11
-1.15008165043e-09
-6.11217808223e-12
-9.15328763664e-11
-1.08605887874e-09
-5.35861873242e-12
-8.46755774025e-11
-1.00988978825e-09
-3.40963169268e-12
-7.72557773756e-11
-9.25709549922e-10
-7.00519440212e-11
-8.37654616962e-10
6.83239211705e-14
4.40528741319e-12
-1.06256509205e-10
-1.29716205224e-09
-1.80087693713e-14
6.92470681855e-12
-1.16271646479e-10
-1.43481710291e-09
7.88371481375e-12
-1.26471749173e-10
-1.56617019392e-09
7.57015217574e-12
-1.35841002247e-10
-1.68484429496e-09
6.22666605463e-12
-1.43635213482e-10
-1.78448104544e-09
4.10351399391e-12
-1.49452875636e-10
-1.85985644041e-09
1.47735989349e-12
-1.53090349997e-10
-1.90744127971e-09
-1.33232983511e-12
-1.54386010868e-10
-1.92443486137e-09
-3.96256290714e-12
-1.53083348202e-10
-1.90736269326e-09
-6.08909603373e-12
-1.49434261057e-10
-1.85970198696e-09
-7.42716227846e-12
-1.43602558504e-10
-1.78425561939e-09
-7.72597345034e-12
-1.35805947574e-10
-1.68455390711e-09
-6.7508438128e-12
-1.26456269742e-10
-1.56581950397e-09
-4.22559883068e-12
-1.16286378026e-10
-1.4344015093e-09
-1.06304820112e-10
-1.29665815531e-09
1.31923708834e-13
4.61295324415e-12
-1.36836970065e-10
-1.67474452573e-09
-1.49991546264e-14
7.29923720401e-12
-1.48761940669e-10
-1.85465210749e-09
8.32223052417e-12
-1.60746763372e-10
-2.02587094362e-09
7.97783191608e-12
-1.71665816397e-10
-2.18028768866e-09
6.55307372283e-12
-1.80702534554e-10
-2.30977773415e-09
4.33040776532e-12
-1.87415066046e-10
-2.40765289262e-09
1.60157353991e-12
-1.91598413047e-10
-2.46937205652e-09
-1.31226835879e-12
-1.93089950515e-10
-2.49135460198e-09
-4.0479681215e-12
-1.91596503156e-10
-2.46926549872e-09
-6.27978994459e-12
-1.87407483503e-10
-2.40744371515e-09
-7.70824472076e-12
-1.80687774888e-10
-2.30947308015e-09
-8.04917682536e-12
-1.71653750713e-10
-2.1798966231e-09
-7.02230272941e-12
-1.60756884737e-10
-2.02540159038e-09
-4.3448667267e-12
-1.48805272737e-10
-1.85410243303e-09
-1.36914196966e-10
-1.67409189602e-09
2.0850427394e-13
4.34854217497e-12
-1.60845492308e-10
-1.97625637635e-09
-1.03557572336e-14
6.90446940496e-12
-1.73923289654e-10
-2.19170178905e-09
7.86983351691e-12
-1.86844122891e-10
-2.39611383343e-09
7.52638654539e-12
-1.98487566833e-10
-2.58009216327e-09