/*--------------------------------*- C++ -*----------------------------------*\
  =========                 |
  \\      /  F ield         | OpenFOAM: The Open Source CFD Toolbox
   \\    /   O peration     | Website:  https://openfoam.org
    \\  /    A nd           | Version:  7
     \\/     M anipulation  |
\*---------------------------------------------------------------------------*/
FoamFile
{
    version     2.0;
    format      ascii;
    class       volScalarField;
    location    "0.94";
    object      p;
}
// * * * * * * * * * * * * * * * * * * * * * * * * * * * * * * * * * * * * * //

dimensions      [0 2 -2 0 0 0 0];

internalField   nonuniform List<scalar> 
22500
(
-2.34451117216e-06
-2.34458673098e-06
-2.34411240459e-06
-2.34374219966e-06
-2.34338114065e-06
-2.34310816693e-06
-2.34293734225e-06
-2.34288320716e-06
-2.34294586515e-06
-2.34312514728e-06
-2.34340665301e-06
-2.34377603485e-06
-2.34415493154e-06
-2.34463612177e-06
-2.34457499008e-06
-2.34993772124e-06
-2.35031534969e-06
-2.35007204971e-06
-2.34989472709e-06
-2.34968372456e-06
-2.34951741553e-06
-2.34941036124e-06
-2.34937724523e-06
-2.34941926507e-06
-2.34953516257e-06
-2.34971033644e-06
-2.34993004638e-06
-2.35011626222e-06
-2.35036668537e-06
-2.35000325306e-06
-2.35528973487e-06
-2.35595510955e-06
-2.35592263513e-06
-2.35592892124e-06
-2.35585749631e-06
-2.35579090118e-06
-2.35574326275e-06
-2.35572968049e-06
-2.35575207936e-06
-2.35580848323e-06
-2.35588383263e-06
-2.35596388659e-06
-2.35596639653e-06
-2.35600592214e-06
-2.35535490235e-06
-2.36018827358e-06
-2.3611023507e-06
-2.36125466233e-06
-2.36141886864e-06
-2.36146862914e-06
-2.36148836119e-06
-2.36149225582e-06
-2.36149559422e-06
-2.36150086076e-06
-2.36150553383e-06
-2.36149432794e-06
-2.36145294835e-06
-2.36129731542e-06
-2.36115178901e-06
-2.36025212495e-06
-2.36490636596e-06
-2.36604468236e-06
-2.36636931532e-06
-2.36667445344e-06
-2.36683434766e-06
-2.36693215581e-06
-2.36698279014e-06
-2.36700149137e-06
-2.36699120406e-06
-2.36694894579e-06
-2.36685945369e-06
-2.36670769095e-06
-2.36641082517e-06
-2.36609266561e-06
-2.36496860842e-06
-2.36949261723e-06
-2.37082992903e-06
-2.37131302983e-06
-2.37174112039e-06
-2.371998637e-06
-2.37216522159e-06
-2.37225711938e-06
-2.37228938479e-06
-2.37226535369e-06
-2.37218165682e-06
-2.3720231822e-06
-2.37177356123e-06
-2.37135336449e-06
-2.37087652499e-06
-2.36955335582e-06
-2.37391321318e-06
-2.37542033517e-06
-2.37604446017e-06
-2.37657523444e-06
-2.37691555927e-06
-2.37714013532e-06
-2.37726689312e-06
-2.37731062915e-06
-2.37727498239e-06
-2.37715627498e-06
-2.376939632e-06
-2.37660698749e-06
-2.37608374214e-06
-2.37546565295e-06
-2.37397266372e-06
-2.3781457959e-06
-2.37979131037e-06
-2.38053712764e-06
-2.38114946683e-06
-2.38155693422e-06
-2.38182837831e-06
-2.38198339804e-06
-2.38203645776e-06
-2.38199138804e-06
-2.38184430814e-06
-2.38158066954e-06
-2.38118070825e-06
-2.38057556672e-06
-2.37983565604e-06
-2.37820429587e-06
-2.38217864676e-06
-2.38392951655e-06
-2.38477611185e-06
-2.38544895501e-06
-2.3859080239e-06
-2.38621566691e-06
-2.38639269999e-06
-2.38645306415e-06
-2.38640065342e-06
-2.38623151813e-06
-2.38593161596e-06
-2.38547996363e-06
-2.38481405714e-06
-2.3839733646e-06
-2.382236717e-06
-2.38600109319e-06
-2.38782255174e-06
-2.38874733437e-06
-2.38946049969e-06
-2.38995674094e-06
-2.39029122952e-06
-2.39048490744e-06
-2.3905508712e-06
-2.39049290551e-06
-2.390307168e-06
-2.38998045426e-06
-2.38949163549e-06
-2.38878527697e-06
-2.38786653554e-06
-2.38605948726e-06
-2.38960126978e-06
-2.39145614681e-06
-2.39243458066e-06
-2.3931698504e-06
-2.39369142487e-06
-2.39404579164e-06
-2.39425231115e-06
-2.39432269e-06
-2.39426044607e-06
-2.39406200955e-06
-2.393715569e-06
-2.39320157061e-06
-2.39247314246e-06
-2.3915010711e-06
-2.38966100258e-06
-2.3929726974e-06
-2.39481397094e-06
-2.39581674399e-06
-2.39655928817e-06
-2.39709890687e-06
-2.3974698885e-06
-2.3976876524e-06
-2.39776202877e-06
-2.39769601619e-06
-2.39748659775e-06
-2.39712383429e-06
-2.39659212005e-06
-2.39585667359e-06
-2.39486078586e-06
-2.39303490608e-06
-2.39612352961e-06
-2.39786510626e-06
-2.39885506545e-06
-2.39959966865e-06
-2.40015885847e-06
-2.40054878872e-06
-2.40077932623e-06
-2.4008581533e-06
-2.4007880146e-06
-2.40056616395e-06
-2.40018490566e-06
-2.3996341644e-06
-2.39889720752e-06
-2.39791484917e-06
-2.39618929957e-06
-2.39892509376e-06
-2.40046356827e-06
-2.40146262577e-06
-2.40223997274e-06
-2.40284237779e-06
-2.40326549567e-06
-2.40351617629e-06
-2.40360193055e-06
-2.40352524005e-06
-2.40328369102e-06
-2.40286982951e-06
-2.40227668435e-06
-2.40150791348e-06
-2.40051763566e-06
-2.39899490618e-06
-2.40040376573e-06
-2.40249806982e-06
-2.40362490102e-06
-2.40452498007e-06
-2.40521824581e-06
-2.40570043823e-06
-2.40598508657e-06
-2.40608206439e-06
-2.40599471409e-06
-2.40571980599e-06
-2.40524764296e-06
-2.40456476743e-06
-2.40367507003e-06
-2.40255903778e-06
-2.40047785871e-06
-2.593849146e-06
-2.59368734519e-06
-2.5935133747e-06
-2.5933524895e-06
-2.59321550985e-06
-2.5931129179e-06
-2.59304935926e-06
-2.5930278969e-06
-2.59304945594e-06
-2.59311334615e-06
-2.59321688494e-06
-2.59335547337e-06
-2.59351792618e-06
-2.59369298853e-06
-2.59385617886e-06
-2.5931410673e-06
-2.59296273126e-06
-2.59277337886e-06
-2.592599347e-06
-2.59245050293e-06
-2.59233851666e-06
-2.59226893017e-06
-2.59224541536e-06
-2.59226917948e-06
-2.59233926327e-06
-2.59245235925e-06
-2.59260301354e-06
-2.59277891569e-06
-2.59296920419e-06
-2.59314893008e-06
-2.59242867552e-06
-2.59222973459e-06
-2.59202364229e-06
-2.59183566906e-06
-2.59167430612e-06
-2.59155268197e-06
-2.59147699699e-06
-2.5914514208e-06
-2.59147735776e-06
-2.59155361094e-06
-2.59167631222e-06
-2.5918393429e-06
-2.59202917737e-06
-2.59223599056e-06
-2.59243666854e-06
-2.59176717923e-06
-2.59153617716e-06
-2.59130577723e-06
-2.5910981297e-06
-2.59091995392e-06
-2.59078575528e-06
-2.59070227224e-06
-2.59067407501e-06
-2.59070271895e-06
-2.59078680841e-06
-2.59092200882e-06
-2.59110165225e-06
-2.59131105203e-06
-2.59154208063e-06
-2.59177523828e-06
-2.59106697322e-06
-2.59078540442e-06
-2.59051752192e-06
-2.59027932336e-06
-2.59007590053e-06
-2.58992307669e-06
-2.5898281755e-06
-2.58979614239e-06
-2.58982868242e-06
-2.58992421853e-06
-2.59007798833e-06
-2.59028273939e-06
-2.59052254917e-06
-2.59079100205e-06
-2.59107510755e-06
-2.59027946529e-06
-2.58992655022e-06
-2.58960640285e-06
-2.58932535932e-06
-2.58908705805e-06
-2.58890871951e-06
-2.58879828398e-06
-2.58876104827e-06
-2.58879884678e-06
-2.58890994777e-06
-2.58908919467e-06
-2.58932871322e-06
-2.58961124766e-06
-2.58993184084e-06
-2.59028780626e-06
-2.58938467872e-06
-2.58893948666e-06
-2.58855273607e-06
-2.58821697275e-06
-2.58793456608e-06
-2.58772415357e-06
-2.58759428661e-06
-2.5875505492e-06
-2.58759488811e-06
-2.5877254403e-06
-2.58793673729e-06
-2.58822027932e-06
-2.58855744629e-06
-2.58894452413e-06
-2.58939324653e-06
-2.58837280707e-06
-2.58781612822e-06
-2.58735003965e-06
-2.58694927489e-06
-2.58661494534e-06
-2.58636696881e-06
-2.58621444916e-06
-2.5861631457e-06
-2.58621508046e-06
-2.58636830371e-06
-2.58661714758e-06
-2.58695255637e-06
-2.58735462948e-06
-2.58782101595e-06
-2.58838157308e-06
-2.58724086221e-06
-2.58655691343e-06
-2.5860013703e-06
-2.58552805495e-06
-2.58513627042e-06
-2.58484693998e-06
-2.58466958568e-06
-2.58461000226e-06
-2.58467023187e-06
-2.58484829923e-06
-2.58513848459e-06
-2.585531324e-06
-2.58600587753e-06
-2.58656172498e-06
-2.58724993786e-06
-2.58599207966e-06
-2.58516967691e-06
-2.5845183126e-06
-2.58396852555e-06
-2.58351673256e-06
-2.5831844599e-06
-2.58298142185e-06
-2.58291329162e-06
-2.5829820638e-06
-2.58318580904e-06
-2.5835189264e-06
-2.5839717608e-06
-2.5845227438e-06
-2.58517446942e-06
-2.58600148991e-06
-2.58463453492e-06
-2.5836683509e-06
-2.58291965822e-06
-2.58229376242e-06
-2.58178288562e-06
-2.5814085712e-06
-2.58118050034e-06
-2.58110403963e-06
-2.58118110133e-06
-2.58140984314e-06
-2.58178498221e-06
-2.58229691253e-06
-2.58292400101e-06
-2.58367316636e-06
-2.5846443814e-06
-2.58318302376e-06
-2.58207388648e-06
-2.58123134534e-06
-2.58053379706e-06
-2.57996805039e-06
-2.5795549672e-06
-2.57930388809e-06
-2.5792197903e-06
-2.57930439251e-06
-2.57955606919e-06
-2.57996992437e-06
-2.58053673846e-06
-2.58123551134e-06
-2.58207871839e-06
-2.58319325822e-06
-2.58165813866e-06
-2.58040970733e-06
-2.5794815071e-06
-2.5787215076e-06
-2.57810871649e-06
-2.57766259686e-06
-2.57739200239e-06
-2.57730137008e-06
-2.57739234821e-06
-2.57766337449e-06
-2.57811018039e-06
-2.57872401733e-06
-2.57948531788e-06
-2.58041441302e-06
-2.58166856335e-06
-2.58002018991e-06
-2.57864446549e-06
-2.57766944202e-06
-2.57687355766e-06
-2.57623425415e-06
-2.57576952539e-06
-2.57548786116e-06
-2.57539354743e-06
-2.57548796745e-06
-2.57576985783e-06
-2.57623509369e-06
-2.57687541207e-06
-2.57767265244e-06
-2.57864901035e-06
-2.58003037378e-06
-2.57794385087e-06
-2.57673432234e-06
-2.57580515085e-06
-2.5750290702e-06
-2.57440551183e-06
-2.57395186574e-06
-2.57367681364e-06
-2.57358461955e-06
-2.57367674192e-06
-2.57395181741e-06
-2.57440581755e-06
-2.57503030751e-06
-2.5758080202e-06
-2.57673920488e-06
-2.57795351986e-06
-2.27286061689e-06
-2.27287273089e-06
-2.27287008876e-06
-2.27286884487e-06
-2.27286519704e-06
-2.27286252283e-06
-2.27286105748e-06
-2.27286082023e-06
-2.27286156819e-06
-2.27286341642e-06
-2.27286619141e-06
-2.27286966725e-06
-2.2728717798e-06
-2.27287405737e-06
-2.27286252269e-06
-2.27276475035e-06
-2.27277314727e-06
-2.27276881793e-06
-2.27276629911e-06
-2.27276193335e-06
-2.27275874702e-06
-2.27275699555e-06
-2.27275671322e-06
-2.27275766951e-06
-2.27275997365e-06
-2.27276341875e-06
-2.27276777477e-06
-2.27277104325e-06
-2.27277524499e-06
-2.27276733311e-06
-2.27262947978e-06
-2.27263283522e-06
-2.27262413421e-06
-2.27261865744e-06
-2.27261214012e-06
-2.27260741754e-06
-2.27260469924e-06
-2.27260408444e-06
-2.27260537679e-06
-2.27260867112e-06
-2.27261372303e-06
-2.27262033319e-06
-2.27262643162e-06
-2.27263507925e-06
-2.27263233423e-06
-2.27252176784e-06
-2.27252386097e-06
-2.272512747e-06
-2.27250632236e-06
-2.27249929094e-06
-2.27249428042e-06
-2.27249136179e-06
-2.27249065632e-06
-2.27249199827e-06
-2.27249547912e-06
-2.27250087712e-06
-2.27250809023e-06
-2.27251504239e-06
-2.27252603769e-06
-2.27252493244e-06
-2.27244555074e-06
-2.2724496038e-06
-2.27243819786e-06
-2.2724328047e-06
-2.27242680114e-06
-2.27242263569e-06
-2.27242024667e-06
-2.27241970877e-06
-2.27242085755e-06
-2.2724237963e-06
-2.27242837274e-06
-2.27243461484e-06
-2.27244051057e-06
-2.27245171864e-06
-2.27244901568e-06
-2.27239424973e-06
-2.27240222699e-06
-2.27239200881e-06
-2.27238884836e-06
-2.27238485525e-06
-2.27238225815e-06
-2.27238084841e-06
-2.27238063182e-06
-2.27238143482e-06
-2.27238338282e-06
-2.27238641241e-06
-2.27239069104e-06
-2.27239431781e-06
-2.27240437246e-06
-2.27239795138e-06
-2.27236362718e-06
-2.27237671599e-06
-2.27236838621e-06
-2.27236804551e-06
-2.27236652192e-06
-2.27236580942e-06
-2.27236558102e-06
-2.27236575591e-06
-2.27236614906e-06
-2.27236690069e-06
-2.27236805202e-06
-2.27236989465e-06
-2.27237067518e-06
-2.27237887077e-06
-2.27236761598e-06
-2.27234971687e-06
-2.27236792443e-06
-2.27236147257e-06
-2.27236390263e-06
-2.27236482047e-06
-2.27236595606e-06
-2.27236688575e-06
-2.27236744649e-06
-2.27236744094e-06
-2.27236702336e-06
-2.27236633585e-06
-2.27236577378e-06
-2.27236377129e-06
-2.27237010805e-06
-2.27235404377e-06
-2.27234759437e-06
-2.272369619e-06
-2.27236438233e-06
-2.27236897277e-06
-2.27237186049e-06
-2.27237448033e-06
-2.27237634619e-06
-2.2723772179e-06
-2.2723768866e-06
-2.27237552243e-06
-2.27237335417e-06
-2.27237085786e-06
-2.27236670554e-06
-2.27237186008e-06
-2.27235226047e-06
-2.27235147704e-06
-2.27237481603e-06
-2.27236963536e-06
-2.27237542671e-06
-2.27237957258e-06
-2.27238314546e-06
-2.27238560961e-06
-2.27238667853e-06
-2.27238613744e-06
-2.27238416646e-06
-2.27238105666e-06
-2.27237734212e-06
-2.27237201139e-06
-2.2723771693e-06
-2.2723564986e-06
-2.27235523348e-06
-2.27237640391e-06
-2.27236992528e-06
-2.27237594653e-06
-2.27238062963e-06
-2.27238458596e-06
-2.27238729079e-06
-2.27238842461e-06
-2.27238780332e-06
-2.27238558232e-06
-2.27238209583e-06
-2.27237788912e-06
-2.27237235525e-06
-2.27237888721e-06
-2.272360622e-06
-2.2723532438e-06
-2.27236793263e-06
-2.2723589271e-06
-2.27236447825e-06
-2.27236909062e-06
-2.27237291809e-06
-2.27237548462e-06
-2.27237656464e-06
-2.27237597416e-06
-2.27237388094e-06
-2.27237053045e-06
-2.27236642851e-06
-2.27236140222e-06
-2.2723705255e-06
-2.27235892216e-06
-2.27233865661e-06
-2.27234235786e-06
-2.27233070064e-06
-2.27233600311e-06
-2.27234032403e-06
-2.27234358463e-06
-2.27234571332e-06
-2.27234657703e-06
-2.27234617237e-06
-2.27234448995e-06
-2.27234169151e-06
-2.27233791615e-06
-2.27233316779e-06
-2.2723450294e-06
-2.27234455356e-06
-2.27228393422e-06
-2.2722761809e-06
-2.27227132149e-06
-2.27228165512e-06
-2.27228843956e-06
-2.27229278043e-06
-2.27229527777e-06
-2.2722962592e-06
-2.27229569885e-06
-2.27229359304e-06
-2.2722897052e-06
-2.27228345917e-06
-2.2722737124e-06
-2.27227890956e-06
-2.27228985014e-06
-2.27209197251e-06
-2.27214043021e-06
-2.27217068765e-06
-2.2722007848e-06
-2.27221931225e-06
-2.27223098899e-06
-2.27223766303e-06
-2.27223996424e-06
-2.27223807255e-06
-2.2722317937e-06
-2.27222054136e-06
-2.27220258088e-06
-2.27217317882e-06
-2.27214348418e-06
-2.27209763209e-06
-2.31967081092e-06
-2.31964321253e-06
-2.31961435496e-06
-2.31958605843e-06
-2.31956109397e-06
-2.31954130713e-06
-2.31952843179e-06
-2.3195235109e-06
-2.31952702477e-06
-2.31953862511e-06
-2.31955749362e-06
-2.31958228655e-06
-2.31961075799e-06
-2.31964033175e-06
-2.3196672348e-06
-2.31961896744e-06
-2.31959159144e-06
-2.31956220178e-06
-2.31953373419e-06
-2.31950838965e-06
-2.31948825241e-06
-2.31947510609e-06
-2.31947006484e-06
-2.31947364534e-06
-2.31948547903e-06
-2.31950470151e-06
-2.31952992356e-06
-2.31955881185e-06
-2.31958889709e-06
-2.31961602996e-06
-2.31959652193e-06
-2.31957143621e-06
-2.31954348504e-06
-2.31951660035e-06
-2.31949239671e-06
-2.31947318374e-06
-2.31946063854e-06
-2.31945584983e-06
-2.31945930975e-06
-2.3194706547e-06
-2.31948901799e-06
-2.31951302897e-06
-2.31954032675e-06
-2.31956869272e-06
-2.31959383686e-06
-2.31958239686e-06
-2.3195590702e-06
-2.31953239047e-06
-2.31950693144e-06
-2.31948389446e-06
-2.31946564969e-06
-2.31945375422e-06
-2.31944924881e-06
-2.31945259171e-06
-2.3194634327e-06
-2.31948091928e-06
-2.31950372502e-06
-2.31952948973e-06
-2.31955641943e-06
-2.31957991305e-06
-2.31956909836e-06
-2.31954707463e-06
-2.31952126829e-06
-2.31949695489e-06
-2.31947494454e-06
-2.31945754099e-06
-2.31944622733e-06
-2.31944196595e-06
-2.31944519946e-06
-2.31945557931e-06
-2.31947228801e-06
-2.31949405609e-06
-2.31951855378e-06
-2.31954453377e-06
-2.31956680708e-06
-2.3195577414e-06
-2.31953708139e-06
-2.319511807e-06
-2.3194886259e-06
-2.31946763492e-06
-2.31945110953e-06
-2.31944039404e-06
-2.31943638953e-06
-2.31943949921e-06
-2.31944939816e-06
-2.31946531083e-06
-2.31948605327e-06
-2.31950935686e-06
-2.31953460828e-06
-2.31955579303e-06
-2.3195495612e-06
-2.31953014462e-06
-2.31950529071e-06
-2.31948322352e-06
-2.31946326612e-06
-2.3194476389e-06
-2.31943753945e-06
-2.31943379352e-06
-2.31943676067e-06
-2.3194461426e-06
-2.31946122453e-06
-2.31948092561e-06
-2.31950307348e-06
-2.31952774519e-06
-2.31954790582e-06
-2.3195446468e-06
-2.31952619991e-06
-2.31950164825e-06
-2.31948057431e-06
-2.31946164198e-06
-2.31944691318e-06
-2.31943744607e-06
-2.31943395913e-06
-2.3194367762e-06
-2.31944562324e-06
-2.31945986747e-06
-2.31947854505e-06
-2.31949962381e-06
-2.31952390557e-06
-2.3195432048e-06
-2.3195425278e-06
-2.31952476403e-06
-2.31950026915e-06
-2.31948005021e-06
-2.31946207829e-06
-2.31944820555e-06
-2.31943934605e-06
-2.31943610534e-06
-2.31943876645e-06
-2.31944708605e-06
-2.31946052245e-06
-2.31947824223e-06
-2.31949840164e-06
-2.31952255555e-06
-2.3195413374e-06
-2.31954257973e-06
-2.31952488054e-06
-2.31950011198e-06
-2.31948056412e-06
-2.31946345051e-06
-2.31945037524e-06
-2.31944208106e-06
-2.31943907354e-06
-2.31944158099e-06
-2.31944940246e-06
-2.31946208763e-06
-2.31947894372e-06
-2.31949837525e-06
-2.31952273472e-06
-2.31954161892e-06
-2.31954361079e-06
-2.31952503979e-06
-2.31949968857e-06
-2.3194806635e-06
-2.31946434379e-06
-2.31945199215e-06
-2.31944422171e-06
-2.31944141843e-06
-2.31944378203e-06
-2.31945113467e-06
-2.31946312797e-06
-2.31947920211e-06
-2.31949806845e-06
-2.31952298698e-06
-2.31954292283e-06
-2.31954431427e-06
-2.31952353442e-06
-2.31949733671e-06
-2.31947877233e-06
-2.31946317644e-06
-2.31945149156e-06
-2.3194441674e-06
-2.31944155154e-06
-2.31944377105e-06
-2.3194507146e-06
-2.3194620762e-06
-2.31947742785e-06
-2.31949582023e-06
-2.31952159669e-06
-2.31954392616e-06
-2.31954300285e-06
-2.31951837666e-06
-2.31949131866e-06
-2.31947330676e-06
-2.31945838757e-06
-2.31944718866e-06
-2.3194402268e-06
-2.3194377162e-06
-2.31943985752e-06
-2.31944647185e-06
-2.31945734908e-06
-2.31947205411e-06
-2.31948988536e-06
-2.31951657384e-06
-2.31954291857e-06
-2.31952972626e-06
-2.31950078718e-06
-2.31947635757e-06
-2.31946079995e-06
-2.31944747432e-06
-2.31943735849e-06
-2.31943098327e-06
-2.31942872208e-06
-2.31943063915e-06
-2.31943665706e-06
-2.31944648628e-06
-2.31945958563e-06
-2.31947498443e-06
-2.31949913202e-06
-2.31952998564e-06
-2.31945358741e-06
-2.31944697915e-06
-2.3194392334e-06
-2.3194346752e-06
-2.3194289365e-06
-2.31942404513e-06
-2.31942083913e-06
-2.31941961678e-06
-2.31942051018e-06
-2.3194233939e-06
-2.31942798104e-06
-2.31943351588e-06
-2.31943795353e-06
-2.31944549663e-06
-2.31945371903e-06
-2.08241165698e-06
-2.08242467487e-06
-2.08243376268e-06
-2.08244300038e-06
-2.08244976328e-06
-2.08245456192e-06
-2.082457692e-06
-2.08245881592e-06
-2.08245764868e-06
-2.08245426574e-06
-2.08244880989e-06
-2.08244153904e-06
-2.08243256848e-06
-2.08242285664e-06
-2.08241050546e-06
-2.08240577906e-06
-2.08241783971e-06
-2.08242701746e-06
-2.08243623495e-06
-2.08244311013e-06
-2.08244809647e-06
-2.082451355e-06
-2.08245254028e-06
-2.08245136833e-06
-2.08244792248e-06
-2.08244236419e-06
-2.08243499366e-06
-2.08242600178e-06
-2.08241647671e-06
-2.08240497577e-06
-2.0823777214e-06
-2.08238734976e-06
-2.08239479781e-06
-2.08240255929e-06
-2.08240850541e-06
-2.0824129149e-06
-2.08241580662e-06
-2.08241685528e-06
-2.08241580471e-06
-2.08241275004e-06
-2.08240785992e-06
-2.08240146239e-06
-2.08239377222e-06
-2.08238606736e-06
-2.08237688461e-06
-2.08235106381e-06
-2.08235911105e-06
-2.08236503681e-06
-2.08237164148e-06
-2.08237686228e-06
-2.08238086445e-06
-2.08238348198e-06
-2.08238441715e-06
-2.08238344814e-06
-2.08238068063e-06
-2.08237629766e-06
-2.08237065935e-06
-2.0823639974e-06
-2.0823577528e-06
-2.08235021495e-06
-2.08232949911e-06
-2.08233671508e-06
-2.08234156942e-06
-2.08234746454e-06
-2.08235225511e-06
-2.08235602001e-06
-2.08235848798e-06
-2.08235936022e-06
-2.08235843332e-06
-2.08235582011e-06
-2.08235172637e-06
-2.08234654357e-06
-2.08234052148e-06
-2.08233524337e-06
-2.0823286452e-06
-2.08231128051e-06
-2.08231788298e-06
-2.08232206898e-06
-2.08232748878e-06
-2.08233202086e-06
-2.08233566706e-06
-2.08233805664e-06
-2.08233889305e-06
-2.08233798203e-06
-2.08233544775e-06
-2.08233151759e-06
-2.08232661386e-06
-2.08232100428e-06
-2.08231640989e-06
-2.08231034889e-06
-2.08229532384e-06
-2.08230166588e-06
-2.08230537087e-06
-2.08231047356e-06
-2.08231486428e-06
-2.08231845205e-06
-2.08232080842e-06
-2.08232162714e-06
-2.08232071756e-06
-2.08231821113e-06
-2.08231436073e-06
-2.08230961528e-06
-2.08230426352e-06
-2.08230016366e-06
-2.0822943761e-06
-2.08228121693e-06
-2.08228750566e-06
-2.08229083892e-06
-2.08229576836e-06
-2.08230011835e-06
-2.0823037093e-06
-2.08230606987e-06
-2.08230688399e-06
-2.08230596444e-06
-2.08230344849e-06
-2.08229961478e-06
-2.08229493684e-06
-2.08228973324e-06
-2.08228599815e-06
-2.08228034144e-06
-2.08226857659e-06
-2.0822748314e-06
-2.08227786311e-06
-2.08228271366e-06
-2.08228708262e-06
-2.08229071019e-06
-2.0822931007e-06
-2.08229391865e-06
-2.08229298306e-06
-2.08229043319e-06
-2.08228657259e-06
-2.08228189937e-06
-2.08227677334e-06
-2.08227333555e-06
-2.08226779004e-06
-2.08225683124e-06
-2.08226289306e-06
-2.08226566718e-06
-2.08227050424e-06
-2.08227494746e-06
-2.08227865053e-06
-2.08228108502e-06
-2.08228191731e-06
-2.08228095988e-06
-2.08227836187e-06
-2.08227444293e-06
-2.08226972438e-06
-2.08226462708e-06
-2.08226146435e-06
-2.08225616476e-06
-2.08224533385e-06
-2.08225094389e-06
-2.08225347646e-06
-2.08225835971e-06
-2.08226293468e-06
-2.08226672789e-06
-2.0822692244e-06
-2.08227006699e-06
-2.08226909313e-06
-2.08226643425e-06
-2.08226243273e-06
-2.08225761775e-06
-2.08225248705e-06
-2.08224959691e-06
-2.08224481014e-06
-2.08223344163e-06
-2.08223818493e-06
-2.0822405e-06
-2.08224554832e-06
-2.08225029551e-06
-2.08225421837e-06
-2.08225675786e-06
-2.08225762511e-06
-2.082256624e-06
-2.0822539216e-06
-2.08224981633e-06
-2.08224484314e-06
-2.08223957307e-06
-2.0822369017e-06
-2.0822330313e-06
-2.08221977405e-06
-2.08222334059e-06
-2.08222577661e-06
-2.08223125362e-06
-2.08223634201e-06
-2.08224037668e-06
-2.08224300657e-06
-2.08224385282e-06
-2.08224287108e-06
-2.08224009973e-06
-2.0822358673e-06
-2.08223060738e-06
-2.08222490332e-06
-2.08222213316e-06
-2.08221948377e-06
-2.08219981422e-06
-2.08220274499e-06
-2.08220699204e-06
-2.08221396785e-06
-2.08221986226e-06
-2.08222441638e-06
-2.08222723321e-06
-2.08222819118e-06
-2.08222711465e-06
-2.08222413233e-06
-2.08221943609e-06
-2.08221334042e-06
-2.0822061822e-06
-2.08220159703e-06
-2.08219963053e-06
-2.08216652031e-06
-2.08217561677e-06
-2.08218503749e-06
-2.08219467022e-06
-2.08220206706e-06
-2.08220745425e-06
-2.08221078105e-06
-2.08221186396e-06
-2.08221066552e-06
-2.08220721276e-06
-2.08220165604e-06
-2.08219411327e-06
-2.0821842877e-06
-2.08217456612e-06
-2.08216622879e-06
-2.04375774232e-06
-2.04374591173e-06
-2.04373485845e-06
-2.04372358039e-06
-2.04371356875e-06
-2.04370547379e-06
-2.04370002058e-06
-2.04369771119e-06
-2.04369882351e-06
-2.04370321677e-06
-2.04371057152e-06
-2.04372034771e-06
-2.04373173506e-06
-2.04374358257e-06
-2.04375499704e-06
-2.04374211245e-06
-2.04373085673e-06
-2.04371972717e-06
-2.04370853144e-06
-2.04369846506e-06
-2.04369026934e-06
-2.04368471067e-06
-2.04368233438e-06
-2.04368343723e-06
-2.04368787417e-06
-2.04369530766e-06
-2.04370517424e-06
-2.04371662314e-06
-2.04372851765e-06
-2.043739756e-06
-2.04374122109e-06
-2.04373136009e-06
-2.04372097115e-06
-2.0437106085e-06
-2.04370114963e-06
-2.0436934583e-06
-2.04368824391e-06
-2.04368602595e-06
-2.04368707784e-06
-2.04369126037e-06
-2.0436982364e-06
-2.04370744763e-06
-2.04371803666e-06
-2.04372891129e-06
-2.04373895502e-06
-2.04374283914e-06
-2.04373384376e-06
-2.0437241337e-06
-2.0437144343e-06
-2.04370554281e-06
-2.04369832621e-06
-2.04369344751e-06
-2.0436913963e-06
-2.04369241763e-06
-2.04369637947e-06
-2.04370294933e-06
-2.04371157969e-06
-2.04372141648e-06
-2.04373146335e-06
-2.04374059665e-06
-2.04374354658e-06
-2.04373508482e-06
-2.04372584057e-06
-2.04371657989e-06
-2.04370810935e-06
-2.04370124461e-06
-2.04369662977e-06
-2.04369470884e-06
-2.04369571483e-06
-2.04369951271e-06
-2.04370577955e-06
-2.04371397981e-06
-2.04372326946e-06
-2.04373277926e-06
-2.04374133507e-06
-2.04374395017e-06
-2.04373602076e-06
-2.04372698094e-06
-2.04371812221e-06
-2.04371001695e-06
-2.0437034714e-06
-2.04369908777e-06
-2.04369728608e-06
-2.04369827697e-06
-2.04370193316e-06
-2.04370793845e-06
-2.04371577864e-06
-2.04372462619e-06
-2.0437337559e-06
-2.04374190757e-06
-2.04374473718e-06
-2.04373717488e-06
-2.04372827037e-06
-2.04371974664e-06
-2.04371194869e-06
-2.04370568561e-06
-2.04370151126e-06
-2.04369981856e-06
-2.0437007946e-06
-2.043704319e-06
-2.043710088e-06
-2.04371761287e-06
-2.04372609201e-06
-2.04373494903e-06
-2.04374281804e-06
-2.0437460329e-06
-2.04373862461e-06
-2.043729823e-06
-2.04372155878e-06
-2.04371404338e-06
-2.04370804295e-06
-2.04370406879e-06
-2.04370247606e-06
-2.04370343543e-06
-2.04370683118e-06
-2.04371237965e-06
-2.04371962315e-06
-2.04372779628e-06
-2.04373647406e-06
-2.04374416767e-06
-2.04374774524e-06
-2.04374044915e-06
-2.04373168192e-06
-2.04372362332e-06
-2.04371636085e-06
-2.04371060212e-06
-2.04370681765e-06
-2.0437053166e-06
-2.04370625411e-06
-2.04370952032e-06
-2.0437148562e-06
-2.04372184261e-06
-2.04372976366e-06
-2.04373834361e-06
-2.04374597932e-06
-2.04374992218e-06
-2.04374260127e-06
-2.04373379515e-06
-2.04372591109e-06
-2.04371888791e-06
-2.04371337889e-06
-2.04370977949e-06
-2.04370837088e-06
-2.0437092774e-06
-2.04371240625e-06
-2.04371752512e-06
-2.04372426206e-06
-2.04373196847e-06
-2.04374052511e-06
-2.04374823631e-06
-2.0437523916e-06
-2.04374490051e-06
-2.04373603409e-06
-2.04372831832e-06
-2.04372156611e-06
-2.04371631224e-06
-2.04371291451e-06
-2.04371159123e-06
-2.04371245951e-06
-2.04371542923e-06
-2.04372030934e-06
-2.04372678038e-06
-2.04373428321e-06
-2.04374287142e-06
-2.04375083539e-06
-2.04375502066e-06
-2.04374712708e-06
-2.04373817614e-06
-2.04373067364e-06
-2.04372421402e-06
-2.04371927562e-06
-2.04371608147e-06
-2.04371486078e-06
-2.04371566684e-06
-2.0437184579e-06
-2.04372305929e-06
-2.04372922296e-06
-2.04373650277e-06
-2.04374516748e-06
-2.04375363099e-06
-2.04375771851e-06
-2.04374902545e-06
-2.04373998666e-06
-2.04373272853e-06
-2.0437266646e-06
-2.04372201172e-06
-2.04371908208e-06
-2.04371792824e-06
-2.04371869339e-06
-2.04372127277e-06
-2.04372557083e-06
-2.04373138428e-06
-2.04373839192e-06
-2.04374716621e-06
-2.04375652593e-06
-2.04375866698e-06
-2.04374899604e-06
-2.04374052303e-06
-2.04373397478e-06
-2.04372845726e-06
-2.04372432309e-06
-2.04372165173e-06
-2.04372064833e-06
-2.04372130461e-06
-2.04372361235e-06
-2.04372746115e-06
-2.04373268856e-06
-2.04373902928e-06
-2.04374725572e-06
-2.04375778159e-06
-2.04374522446e-06
-2.04374099544e-06
-2.04373627267e-06
-2.04373246221e-06
-2.04372906925e-06
-2.04372639472e-06
-2.04372466915e-06
-2.0437239589e-06
-2.04372432698e-06
-2.04372573269e-06
-2.04372808905e-06
-2.04373123515e-06
-2.043734816e-06
-2.0437393255e-06
-2.04374432105e-06
-1.87001858466e-06
-1.87002441427e-06
-1.8700277527e-06
-1.87003130543e-06
-1.87003444317e-06
-1.87003698547e-06
-1.8700385729e-06
-1.87003911098e-06
-1.87003854779e-06
-1.87003694416e-06
-1.87003439778e-06
-1.87003105731e-06
-1.87002706395e-06
-1.87002289164e-06
-1.87001794715e-06
-1.8700170174e-06
-1.87002237567e-06
-1.87002576357e-06
-1.8700292875e-06
-1.87003245519e-06
-1.87003503816e-06
-1.8700366732e-06
-1.87003724009e-06
-1.87003667868e-06
-1.87003505856e-06
-1.87003248101e-06
-1.8700291158e-06
-1.87002512988e-06
-1.87002104367e-06
-1.87001644848e-06
-1.87000736526e-06
-1.87001168396e-06
-1.87001456384e-06
-1.87001759629e-06
-1.87002039216e-06
-1.87002269129e-06
-1.87002415884e-06
-1.8700246691e-06
-1.87002415648e-06
-1.87002268765e-06
-1.87002036621e-06
-1.87001737227e-06
-1.87001388168e-06
-1.87001047753e-06
-1.87000674875e-06
-1.86999819432e-06
-1.87000192809e-06
-1.87000432016e-06
-1.87000701323e-06
-1.87000949995e-06
-1.87001155839e-06
-1.87001288549e-06
-1.87001334506e-06
-1.87001286508e-06
-1.87001150589e-06
-1.87000937622e-06
-1.87000666779e-06
-1.87000356307e-06
-1.87000069488e-06
-1.86999758236e-06
-1.86999087814e-06
-1.86999431269e-06
-1.86999635304e-06
-1.86999885e-06
-1.87000114376e-06
-1.87000305747e-06
-1.87000429943e-06
-1.87000472637e-06
-1.87000425931e-06
-1.87000295851e-06
-1.87000093751e-06
-1.86999840041e-06
-1.86999553563e-06
-1.86999301266e-06
-1.86999023394e-06
-1.86998477527e-06
-1.86998789732e-06
-1.86998978254e-06
-1.86999214996e-06
-1.86999431106e-06
-1.86999612059e-06
-1.86999730151e-06
-1.86999770262e-06
-1.86999723879e-06
-1.86999597045e-06
-1.86999401521e-06
-1.86999158843e-06
-1.86998888478e-06
-1.86998660578e-06
-1.86998402045e-06
-1.86997937519e-06
-1.86998234257e-06
-1.86998412465e-06
-1.86998638855e-06
-1.86998846543e-06
-1.86999020726e-06
-1.86999134783e-06
-1.86999172803e-06
-1.86999126321e-06
-1.86999000997e-06
-1.86998809593e-06
-1.86998574247e-06
-1.86998314977e-06
-1.86998104726e-06
-1.86997856248e-06
-1.86997449122e-06
-1.86997741975e-06
-1.86997911475e-06
-1.86998132874e-06
-1.86998336036e-06
-1.86998505784e-06
-1.86998616839e-06
-1.86998653121e-06
-1.86998606183e-06
-1.86998481483e-06
-1.86998292515e-06
-1.86998061988e-06
-1.869978106e-06
-1.86997613623e-06
-1.86997370784e-06
-1.86997002946e-06
-1.86997291525e-06
-1.86997453585e-06
-1.869976723e-06
-1.86997873081e-06
-1.86998040456e-06
-1.86998149625e-06
-1.86998184812e-06
-1.86998137238e-06
-1.86998012847e-06
-1.86997825362e-06
-1.86997598205e-06
-1.8699735281e-06
-1.86997166697e-06
-1.8699692862e-06
-1.86996577554e-06
-1.86996856501e-06
-1.86997013311e-06
-1.86997231205e-06
-1.86997432233e-06
-1.86997598546e-06
-1.86997706763e-06
-1.86997740993e-06
-1.86997693137e-06
-1.86997568784e-06
-1.86997382196e-06
-1.86997157203e-06
-1.86996916539e-06
-1.86996740077e-06
-1.86996511113e-06
-1.86996154782e-06
-1.86996417311e-06
-1.86996568534e-06
-1.8699678672e-06
-1.8699698929e-06
-1.86997156069e-06
-1.86997264034e-06
-1.86997297916e-06
-1.86997250103e-06
-1.86997125665e-06
-1.86996939625e-06
-1.86996715533e-06
-1.8699647773e-06
-1.86996310581e-06
-1.86996097762e-06
-1.86995718641e-06
-1.86995952342e-06
-1.86996097299e-06
-1.86996318774e-06
-1.86996525442e-06
-1.86996693424e-06
-1.86996802077e-06
-1.86996835948e-06
-1.8699678838e-06
-1.86996664615e-06
-1.86996478013e-06
-1.86996252889e-06
-1.86996014822e-06
-1.86995854292e-06
-1.86995669201e-06
-1.86995228181e-06
-1.86995423752e-06
-1.86995572922e-06
-1.86995807083e-06
-1.86996021993e-06
-1.86996195021e-06
-1.8699630453e-06
-1.86996339216e-06
-1.86996292579e-06
-1.86996168067e-06
-1.86995979548e-06
-1.86995747977e-06
-1.86995499178e-06
-1.86995335234e-06
-1.86995186514e-06
-1.86994553545e-06
-1.86994731252e-06
-1.86994935152e-06
-1.86995213008e-06
-1.86995454879e-06
-1.86995641147e-06
-1.86995758667e-06