/*--------------------------------*- C++ -*----------------------------------*\
  =========                 |
  \\      /  F ield         | OpenFOAM: The Open Source CFD Toolbox
   \\    /   O peration     | Website:  https://openfoam.org
    \\  /    A nd           | Version:  7
     \\/     M anipulation  |
\*---------------------------------------------------------------------------*/
FoamFile
{
    version     2.0;
    format      ascii;
    class       volVectorField;
    location    "0.94";
    object      U;
}
// * * * * * * * * * * * * * * * * * * * * * * * * * * * * * * * * * * * * * //

dimensions      [0 1 -1 0 0 0 0];

internalField   nonuniform List<vector> 
22500
(
(4.285782087e-06 4.94849677618e-06 4.30315304282e-05)
(3.86018982861e-06 5.66955421083e-06 4.489235198e-05)
(3.28528939352e-06 6.33229758296e-06 4.64344669868e-05)
(2.69570186698e-06 6.86154190828e-06 4.77013939528e-05)
(2.05489138571e-06 7.27681193607e-06 4.87010227625e-05)
(1.38832433733e-06 7.57317816789e-06 4.94259895966e-05)
(7.01976568809e-07 7.75125472276e-06 4.98666985473e-05)
(5.61662350895e-09 7.81102023109e-06 5.00158001893e-05)
(-6.90867853607e-07 7.75216934482e-06 4.98665603212e-05)
(-1.37756531592e-06 7.57496593277e-06 4.94257553422e-05)
(-2.04471299178e-06 7.27936483674e-06 4.87007650611e-05)
(-2.68628791547e-06 6.86474569069e-06 4.77013007302e-05)
(-3.27694958138e-06 6.33593074251e-06 4.64351504019e-05)
(-3.85253773563e-06 5.67386089235e-06 4.48963458185e-05)
(-4.28023855538e-06 4.95280327506e-06 4.30485640329e-05)
(1.28311515284e-05 1.47294391801e-05 0.000121806317048)
(1.1589725979e-05 1.68111097929e-05 0.000126601414366)
(9.9298823491e-06 1.87311588224e-05 0.000130483313415)
(8.16141126963e-06 2.02913506522e-05 0.000133612323653)
(6.23802989126e-06 2.15232998538e-05 0.000136046634651)
(4.22026319231e-06 2.24075100808e-05 0.000137795396081)
(2.13502666241e-06 2.29408445542e-05 0.000138851898587)
(1.54195807131e-08 2.31199173584e-05 0.000139207331553)
(-2.10449638747e-06 2.29432093577e-05 0.000138851428755)
(-4.19062487854e-06 2.24121340838e-05 0.00013779458382)
(-6.20985406504e-06 2.15299170183e-05 0.000136045692797)
(-8.1351947294e-06 2.02996615212e-05 0.000133611808393)
(-9.90628885338e-06 1.87406329546e-05 0.000130485041844)
(-1.1568354932e-05 1.68222326386e-05 0.000126612761678)
(-1.28155365638e-05 1.47408150963e-05 0.000121850065201)
(2.02676491824e-05 2.3147842502e-05 0.000193643143676)
(1.82714689079e-05 2.63053198485e-05 0.000200744722833)
(1.56650159735e-05 2.92070474443e-05 0.000206377652408)
(1.28608117539e-05 3.15739831855e-05 0.000210842814371)
(9.82476020387e-06 3.34421177419e-05 0.000214272160104)
(6.642874125e-06 3.47833220485e-05 0.00021671368821)
(3.3592307035e-06 3.55922840526e-05 0.000218179964817)
(2.39462507879e-08 3.58638012413e-05 0.000218670941443)
(-3.31178021601e-06 3.55956661519e-05 0.000218178952599)
(-6.5967197276e-06 3.47899375023e-05 0.0002167118793)
(-9.78073142853e-06 3.34516010554e-05 0.000214269887369)
(-1.28196447481e-05 3.15858818177e-05 0.000210840926692)
(-1.56276435229e-05 2.92206723972e-05 0.000206378820067)
(-1.82377262361e-05 2.63212550929e-05 0.000200759567463)
(-2.02426428554e-05 2.31645598587e-05 0.000193703789209)
(2.67013033539e-05 3.0360416355e-05 0.000258991553435)
(2.40228657472e-05 3.43436290113e-05 0.000267860939145)
(2.05919596725e-05 3.79927916237e-05 0.000274752632662)
(1.6883423811e-05 4.09719196538e-05 0.000280119936665)
(1.28866399858e-05 4.33212170068e-05 0.000284184492532)
(8.70633127317e-06 4.50071623432e-05 0.000287049165859)
(4.40046905408e-06 4.60236772436e-05 0.000288757999597)
(3.11812962454e-08 4.63647494128e-05 0.000289327437843)
(-4.3386521666e-06 4.60279256234e-05 0.000288756115488)
(-8.64613094786e-06 4.5015473102e-05 0.000287045687013)
(-1.28290953798e-05 4.33331493865e-05 0.000284179827678)
(-1.68294541734e-05 4.09868880822e-05 0.000280115081718)
(-2.05426726919e-05 3.8009966299e-05 0.000274750621658)
(-2.39783534921e-05 3.43636148575e-05 0.000267873921099)
(-2.66675799256e-05 3.03816579677e-05 0.000259056534869)
(3.22337496064e-05 3.65119901288e-05 0.000318340644951)
(2.89471207332e-05 4.11034832881e-05 0.000328518872842)
(2.48000524312e-05 4.5297717998e-05 0.000336258143253)
(2.03073395776e-05 4.87210151325e-05 0.000342169324288)
(1.54859623287e-05 5.141742283e-05 0.000346574431165)
(1.04542907699e-05 5.33513884587e-05 0.00034964251218)
(5.28135336047e-06 5.45169316895e-05 0.000351458103011)
(3.73835860983e-08 5.49079360444e-05 0.000352059892172)
(-5.20721786854e-06 5.45219704297e-05 0.000351455082991)
(-1.03820371853e-05 5.33612481708e-05 0.000349636804656)
(-1.54168042397e-05 5.14315996349e-05 0.000346566440309)
(-2.02423493525e-05 4.87388115487e-05 0.000342159985613)
(-2.47404287593e-05 4.53181621525e-05 0.000336250334292)
(-2.88931734647e-05 4.11271744556e-05 0.000328525139276)
(-3.21919084144e-05 3.65373611819e-05 0.000318400213079)
(3.68908527629e-05 4.16456005311e-05 0.000372157526418)
(3.30688771219e-05 4.66414694819e-05 0.000383251561177)
(2.83085937517e-05 5.11910060005e-05 0.000391492494885)
(2.31496197773e-05 5.49006137228e-05 0.000397650092036)
(1.76365722139e-05 5.78178388589e-05 0.000402153380378)
(1.18967699696e-05 5.99087378873e-05 0.000405245212042)
(6.00724978856e-06 6.11682389618e-05 0.000407057006448)
(4.27889867366e-08 6.15907445115e-05 0.000407653793365)
(-5.92237588235e-06 6.11740353328e-05 0.000407052702747)
(-1.18140025859e-05 5.99200862249e-05 0.000405236935056)
(-1.75572712697e-05 5.78341814193e-05 0.000402141423245)
(-2.30749871093e-05 5.49211535607e-05 0.000397635097121)
(-2.82398531678e-05 5.12146512536e-05 0.000391476732404)
(-3.30064877599e-05 4.66687664692e-05 0.000383247405952)
(-3.68414399908e-05 4.16749767949e-05 0.00037220566359)
(4.06951374167e-05 4.57933749099e-05 0.000420887058223)
(3.6408684389e-05 5.10022609581e-05 0.000432559935789)
(3.11349329516e-05 5.57287927008e-05 0.000441011379305)
(2.5425885032e-05 5.957638128e-05 0.000447169165409)
(1.93515198241e-05 6.25960532683e-05 0.000451572651295)
(1.30433960975e-05 6.47587250541e-05 0.000454542833565)
(6.58336301493e-06 6.60608303889e-05 0.000456261930895)
(4.76115249198e-08 6.6497691192e-05 0.000456823850708)
(-6.48890768626e-06 6.60673930461e-05 0.00045625633539)
(-1.295124204e-05 6.4771582691e-05 0.000454531918153)
(-1.92631527861e-05 6.26146046616e-05 0.000451556482557)
(-2.53426154613e-05 5.95997360642e-05 0.000447147871076)
(-3.10579749447e-05 5.57557540808e-05 0.000440986288664)
(-3.63385884895e-05 5.10332675995e-05 0.000432543126062)
(-4.06386065968e-05 4.58268123289e-05 0.000420920588008)
(4.36784890413e-05 4.89960053596e-05 0.000464952540412)
(3.89961289244e-05 5.42404929681e-05 0.000476916006856)
(3.33057271286e-05 5.89785450066e-05 0.00048533425818)
(2.71601134267e-05 6.28269475213e-05 0.000491291336389)
(2.065075516e-05 6.584046924e-05 0.000495437098163)
(1.39086830186e-05 6.79972296241e-05 0.000498171602697)
(7.01741826087e-06 6.92953226783e-05 0.000499729089093)
(5.2045033319e-08 6.97310182912e-05 0.000500233202113)
(-6.91415222987e-06 6.93026832216e-05 0.000499722370785)
(-1.38078884286e-05 6.80116673759e-05 0.000498158336372)
(-2.05540279976e-05 6.58613465891e-05 0.000495417018334)
(-2.70688609824e-05 6.28532906909e-05 0.000491263872986)
(-3.32211360397e-05 5.90090536891e-05 0.000485299593109)
(-3.89188395061e-05 5.42754594548e-05 0.00047688609944)
(-4.3615216174e-05 4.90336917057e-05 0.000464970849714)
(4.58769273118e-05 5.12975463969e-05 0.000504751117484)
(4.08650698803e-05 5.64138132304e-05 0.000516758574096)
(3.48524009607e-05 6.1010803338e-05 0.000524942116553)
(2.83809070624e-05 6.47346491487e-05 0.00053054002124)
(2.15581479834e-05 6.76441404916e-05 0.000534309018188)
(1.45099232716e-05 6.97256207557e-05 0.000536724924799)
(7.31856448794e-06 7.09783515371e-05 0.000538071925993)
(5.62668994081e-08 7.13991586542e-05 0.000538502270485)
(-7.20690281123e-06 7.09865449148e-05 0.000538064485083)
(-1.44008799595e-05 6.9741717478e-05 0.000536710071948)
(-2.14534167833e-05 6.76674788815e-05 0.000534286080619)
(-2.82819884362e-05 6.47641831943e-05 0.00053050760403)
(-3.47604641537e-05 6.10451327464e-05 0.000524899158982)
(-4.07808768989e-05 5.64530419221e-05 0.00051671728686)
(-4.58071920644e-05 5.13397426063e-05 0.000504756232278)
(4.73283175241e-05 5.27430734498e-05 0.00054064129651)
(4.20518266187e-05 5.75797510501e-05 0.00055247910457)
(3.58097130476e-05 6.18956863037e-05 0.00056026494435)
(2.91204061466e-05 6.53819010351e-05 0.000565387979568)
(2.21005784543e-05 6.81009867046e-05 0.000568702309552)
(1.48664695822e-05 7.00467279472e-05 0.00057075034908)
(7.49696655015e-06 7.12183160697e-05 0.000571859878695)
(6.04351806314e-08 7.16123859479e-05 0.000572208150222)
(-7.37700671257e-06 7.12273521144e-05 0.00057185241937)
(-1.47492474596e-05 7.00645149765e-05 0.000570735311498)
(-2.19878772257e-05 6.8126860708e-05 0.000568678590958)
(-2.90138233359e-05 6.54147655643e-05 0.00056535330065)
(-3.57104346577e-05 6.19340504596e-05 0.000560216982553)
(-4.1960794807e-05 5.76235063477e-05 0.000552430787736)
(-4.72522548306e-05 5.27900374821e-05 0.000540638255946)
(4.80722699084e-05 5.33793354981e-05 0.000572917702566)
(4.25955018024e-05 5.77956073474e-05 0.000584393416724)
(3.62164198353e-05 6.17029365514e-05 0.00059165613032)
(2.94148098169e-05 6.48517913768e-05 0.000596236491016)
(2.23080508345e-05 6.73065708591e-05 0.000599066175996)
(1.49995793468e-05 6.9065453712e-05 0.00060073666945)
(7.56364399658e-06 7.01257429315e-05 0.000601607529395)
(6.46804849129e-08 7.04830764316e-05 0.000601874449052)
(-7.43521974758e-06 7.01355753685e-05 0.000601601143789)
(-1.4873978542e-05 6.90848561648e-05 0.000600723674108)
(-2.21871364464e-05 6.73349085573e-05 0.000599045099563)
(-2.93002908373e-05 6.48879585015e-05 0.000596204191514)
(-3.6109553361e-05 6.17453755954e-05 0.000591609020636)
(-4.2497477928e-05 5.78440001446e-05 0.000584345596799)
(-4.79898198874e-05 5.34312022553e-05 0.00057291519673)
(4.81492710149e-05 5.32539926956e-05 0.000601764776129)
(4.25387455686e-05 5.71171284679e-05 0.000612693555276)
(3.61167314908e-05 6.05023108309e-05 0.0006193517088)
(2.93050029333e-05 6.32300363705e-05 0.000623382766526)
(2.2213362533e-05 6.53602730946e-05 0.000625758732389)
(1.49317292373e-05 6.68904760056e-05 0.000627091557307)
(7.52998651378e-06 6.78145050756e-05 0.00062775445819)
(6.90948545819e-08 6.81267240773e-05 0.000627951844151)
(-7.39274482507e-06 6.78250026527e-05 0.000627750697151)
(-1.4797356545e-05 6.69112478543e-05 0.000627083826075)
(-2.20837917836e-05 6.53907612807e-05 0.000625745391148)
(-2.91820729406e-05 6.32691901971e-05 0.000623359958448)
(-3.60018433613e-05 6.05485634928e-05 0.000619314499488)
(-4.24334103821e-05 5.71699701242e-05 0.000612657373356)
(-4.80601593043e-05 5.33106415543e-05 0.000601775733975)
(4.75994822794e-05 5.24055851342e-05 0.000627175171878)
(4.1933006232e-05 5.55943953478e-05 0.000637376321625)
(3.55643994968e-05 5.83679616764e-05 0.000643417582067)
(2.88369458119e-05 6.06113156373e-05 0.000646979708184)
(2.18504585531e-05 6.23709937197e-05 0.000649013688423)
(1.46847989063e-05 6.3638650524e-05 0.000650111765217)
(7.40667972598e-06 6.44052943169e-05 0.000650637051945)
(7.37199080447e-08 6.46651400157e-05 0.000650790328375)
(-7.26018849229e-06 6.44162117063e-05 0.000650637924136)
(-1.45411822196e-05 6.36603231598e-05 0.000650113547224)
(-2.17117008872e-05 6.24029891331e-05 0.000649015008302)
(-2.87050361722e-05 6.0652736427e-05 0.00064697643015)
(-3.54409712359e-05 5.84173342192e-05 0.000643403213663)
(-4.1819979707e-05 5.56510872579e-05 0.000637366647476)
(-4.75034380364e-05 5.24663623718e-05 0.000627215656636)
(4.64925898892e-05 5.08599694894e-05 0.00064881017003)
(4.08643555438e-05 5.33146553412e-05 0.000658163225104)
(3.46291438977e-05 5.54058893822e-05 0.000663704566416)
(2.80567041727e-05 5.71218538878e-05 0.000667002045505)
(2.12481238138e-05 5.84720494684e-05 0.000668908929802)
(1.42754124989e-05 5.94448414743e-05 0.00066995112088)
(7.20138238299e-06 6.00329278477e-05 0.000670455445944)
(7.85295602991e-08 6.02329574295e-05 0.000670605648825)
(-7.04526099085e-06 6.00439052682e-05 0.000670463228912)
(-1.41221416256e-05 5.94667085705e-05 0.00066996732728)
(-2.10997172012e-05 5.85045374166e-05 0.000668933251028)
(-2.7915303222e-05 5.71643340025e-05 0.000667031242848)
(-3.44966905796e-05 5.54571864494e-05 0.000663730848637)
(-4.07432793244e-05 5.33741183486e-05 0.000658199249802)
(-4.63890889751e-05 5.09240782048e-05 0.000648896889408)
(4.494884338e-05 4.90220222295e-05 0.00066579066965)
(3.94397267615e-05 5.03599709074e-05 0.000674524730606)
(3.33355507566e-05 5.17453316248e-05 0.000679866022872)
(2.6970816526e-05 5.28803761709e-05 0.000683249592456)
(2.04060916441e-05 5.37662581665e-05 0.000685355440594)
(1.3702346424e-05 5.43992971498e-05 0.00068659814184)
(6.91336085836e-06 5.47803333412e-05 0.000687244086356)
(8.34319307542e-08 5.49106634846e-05 0.000687447278162)
(-6.74742250412e-06 5.4790763463e-05 0.000687260470942)
(-1.35392216408e-05 5.44201430152e-05 0.000686632492978)
(-2.02477883892e-05 5.37974262095e-05 0.000685409469578)
(-2.68195696279e-05 5.29215862138e-05 0.000683323194143)
(-3.31936274183e-05 5.17958588553e-05 0.000679951817242)
(-3.93106663835e-05 5.04198493363e-05 0.000674638942604)
(-4.48366436109e-05 4.90870352181e-05 0.000665920887293)
(4.22686685775e-08 1.03717008655e-07 2.6589776078e-05)
(-8.08893012588e-09 1.49478064887e-07 2.75545164583e-05)
(-4.15266251243e-08 1.71131951675e-07 2.82073701431e-05)
(-5.92867545921e-08 1.77432401927e-07 2.86532264991e-05)
(-6.15176172592e-08 1.74438953642e-07 2.89553485493e-05)
(-4.92133424942e-08 1.67704567847e-07 2.91504054675e-05)
(-2.61232542083e-08 1.61825478452e-07 2.92604868169e-05)
(2.79770267457e-09 1.59728404257e-07 2.92971429372e-05)
(3.17272445306e-08 1.62389117935e-07 2.92610978593e-05)
(5.48458574041e-08 1.68810758063e-07 2.91516898635e-05)
(6.71306509807e-08 1.76018528405e-07 2.89574596879e-05)
(6.46394848056e-08 1.79361396986e-07 2.86565223603e-05)
(4.62349752694e-08 1.73285870427e-07 2.82127519659e-05)
(1.20075885385e-08 1.516992432e-07 2.75648163575e-05)
(-3.96891894833e-08 1.05834058871e-07 2.66139356543e-05)
(5.88882663422e-07 7.91643774249e-07 8.26325585257e-05)
(4.3517730837e-07 1.00088752948e-06 8.57575607229e-05)
(3.00822854074e-07 1.15033906193e-06 8.79270425316e-05)
(1.92519443164e-07 1.25137648365e-06 8.94361453522e-05)
(1.11963430827e-07 1.31437868784e-06 9.04723714782e-05)
(5.93912956027e-08 1.35005168754e-06 9.11482672685e-05)
(2.82459080905e-08 1.36777487198e-06 9.15316408745e-05)
(8.81791354578e-09 1.37356855865e-06 9.16581012823e-05)
(-1.06334672e-08 1.36938535461e-06 9.15335163608e-05)
(-4.18587591321e-08 1.35318771647e-06 9.11522042733e-05)
(-9.47222609453e-08 1.31883326013e-06 9.04788470806e-05)
(-1.76171660496e-07 1.2568317219e-06 8.94462498803e-05)
(-2.86356872106e-07 1.15646116837e-06 8.7943465731e-05)
(-4.23112779154e-07 1.00735109845e-06 8.5788614817e-05)
(-5.80703905065e-07 7.97990143067e-07 8.26997048644e-05)
(1.54886661043e-06 1.91008159283e-06 0.000141200988754)
(1.28524519459e-06 2.33955146073e-06 0.000146709447204)
(1.02041772517e-06 2.6797609698e-06 0.000150600407001)
(7.72345571841e-07 2.93665489093e-06 0.000153344254493)
(5.47706033848e-07 3.11973679297e-06 0.000155246756404)
(3.50935278569e-07 3.24013059069e-06 0.000156496523672)
(1.76664967079e-07 3.30835328839e-06 0.000157207962551)
(1.49777841148e-08 3.33122387859e-06 0.000157441706965)
(-1.46801077496e-07 3.31089059251e-06 0.000157210962362)
(-3.2136882742e-07 3.24504877159e-06 0.000156502825832)
(-5.18840582393e-07 3.12669453227e-06 0.000155257147844)
(-7.45041441762e-07 2.94516911828e-06 0.000153360484868)
(-9.96081687613e-07 2.68933755122e-06 0.000150626616553)
(-1.26480807981e-06 2.34990008563e-06 0.000146758059151)
(-1.53461088971e-06 1.92053611142e-06 0.000141303007333)
(2.82543444396e-06 3.35330402114e-06 0.00020165091819)
(2.44485082584e-06 4.03573416741e-06 0.000209677631392)
(2.02739803172e-06 4.60196600914e-06 0.000215417004271)
(1.60221147487e-06 5.04960099146e-06 0.000219501618514)
(1.18337178406e-06 5.38413213631e-06 0.000222350338852)
(7.81897682303e-07 5.61400330546e-06 0.000224228687491)
(3.96722569357e-07 5.74853723435e-06 0.000225299585345)
(2.11994212655e-08 5.79387691815e-06 0.000225650456438)
(-3.54513465558e-07 5.75189771429e-06 0.000225303430046)
(-7.40291420318e-07 5.62051976532e-06 0.000224236775342)
(-1.14299544631e-06 5.39337769613e-06 0.000222363715509)
(-1.56414598136e-06 5.06099077592e-06 0.000219522530736)
(-1.99332191868e-06 4.61486303979e-06 0.00021545054461)
(-2.41603006949e-06 4.04990852779e-06 0.000209738802011)
(-2.80474820367e-06 3.36788120643e-06 0.00020177678498)
(4.30751016054e-06 4.99781976224e-06 0.000263344604079)
(3.80512981644e-06 5.94138524102e-06 0.000273934412892)
(3.22216391047e-06 6.7421691473e-06 0.000281566331975)
(2.59647497201e-06 7.39031749288e-06 0.000287027278441)
(1.9510734243e-06 7.88598614191e-06 0.00029084604484)
(1.30518907188e-06 8.23348630231e-06 0.000293366791435)
(6.64262988459e-07 8.43972056591e-06 0.000294803738577)
(2.73825310509e-08 8.50937433921e-06 0.000295273417701)
(-6.0980150332e-07 8.44381514758e-06 0.000294808184651)
(-1.25167991468e-06 8.24144492323e-06 0.000293376146761)
(-1.89937703167e-06 7.89733728652e-06 0.000290861518465)
(-2.54787037082e-06 7.40441441773e-06 0.000287051371956)
(-3.17850413283e-06 6.75825992023e-06 0.000281604524982)
(-3.76789673155e-06 5.95925460192e-06 0.000274003217927)
(-4.28006159877e-06 5.01641788019e-06 0.000263485063556)
(5.9072000881e-06 6.74734114246e-06 0.000325634871943)
(5.28033440321e-06 7.94118101323e-06 0.00033874156328)
(4.52615789805e-06 8.96489698834e-06 0.0003482263953)
(3.68774219185e-06 9.80458862289e-06 0.00035502870514)
(2.79759653083e-06 1.04550093834e-05 0.000359786008659)
(1.88403840201e-06 1.09160411179e-05 0.000362923294534)
(9.60470062297e-07 1.11917094488e-05 0.000364709102856)
(3.34395673282e-08 1.12849221511e-05 0.000365291461523)
(-8.94012668879e-07 1.11964507224e-05 0.000364714022616)
(-1.81889143478e-06 1.09252827689e-05 0.00036293363182)
(-2.73484574723e-06 1.04682633366e-05 0.000359803007903)
(-3.62883698197e-06 9.82117220977e-06 0.00035505483204)
(-4.47306620159e-06 8.98397773144e-06 0.000348266972067)
(-5.23465331782e-06 7.96253593867e-06 0.000338814000449)
(-5.87268488546e-06 6.7697369338e-06 0.000325783524204)
(7.54697567533e-06 8.5182100347e-06 0.000387888740071)
(6.79504267941e-06 9.93514620471e-06 0.000403380061211)
(5.87014218613e-06 1.11536950819e-05 0.00041460084819)
(4.81659265608e-06 1.2160850396e-05 0.000422646269066)
(3.67607618002e-06 1.29468340716e-05 0.00042826255922)
(2.48610715279e-06 1.35075912944e-05 0.000431957125216)
(1.26881353829e-06 1.38443790782e-05 0.000434055044931)
(3.92933951303e-08 1.3958342512e-05 0.000434737605232)
(-1.19076079582e-06 1.38496741208e-05 0.000434060484846)
(-2.40970197024e-06 1.35179445671e-05 0.000431968536184)
(-3.60260801515e-06 1.29617619237e-05 0.000428281074359)
(-4.74765403771e-06 1.2179657999e-05 0.000422674010756)
(-5.80776802305e-06 1.1175491086e-05 0.000414642498511)
(-6.74090330343e-06 9.95971256873e-06 0.000403453693016)
(-7.50511540558e-06 8.54409119277e-06 0.000388041737322)
(9.15670907875e-06 1.02354046487e-05 0.000449504572139)
(8.28135278231e-06 1.18343265186e-05 0.000467171035324)
(7.19174233099e-06 1.32063477359e-05 0.000479944537772)
(5.92949190249e-06 1.4344992537e-05 0.000489083898109)
(4.54429085825e-06 1.52374137602e-05 0.000495443543785)
(3.08226723617e-06 1.5876615844e-05 0.000499612636585)
(1.57441051668e-06 1.6261567635e-05 0.00050197281554)
(4.48812624638e-08 1.63919013126e-05 0.000502738996938)
(-1.48528108392e-06 1.62673165385e-05 0.000501979089272)
(-2.99508121162e-06 1.58878931886e-05 0.000499625755648)
(-4.46051041756e-06 1.52537580279e-05 0.000495464413241)
(-5.85082648134e-06 1.43657183339e-05 0.000489114004977)
(-7.12025256297e-06 1.32305311499e-05 0.000479987551059)
(-8.21876914188e-06 1.18617552371e-05 0.000467245647068)
(-9.10730059507e-06 1.0264425295e-05 0.000449660962778)
(1.06743416407e-05 1.18331659884e-05 0.000509916038002)
(9.67948245607e-06 1.35615889646e-05 0.000529480206844)
(8.43607140489e-06 1.50358397141e-05 0.000543570353126)
(6.97929272375e-06 1.62613795771e-05 0.000553619605707)
(5.36498774664e-06 1.72240592663e-05 0.000560586603942)
(3.64677479746e-06 1.7915171917e-05 0.000565136874877)
(1.8640921507e-06 1.83320821569e-05 0.000567704826564)
(5.01480935913e-08 1.847330283e-05 0.000568536990627)
(-1.76450947001e-06 1.83381722864e-05 0.000567712840831)
(-3.54937445549e-06 1.79271576189e-05 0.000565153435028)
(-5.27136646096e-06 1.72415203295e-05 0.000560612184492)
(-6.89124856689e-06 1.62836611351e-05 0.000553654757509)
(-8.35566780389e-06 1.50620192406e-05 0.000543617369689)
(-9.60849963492e-06 1.35914612075e-05 0.000529558518073)
(-1.06172421672e-05 1.18649267784e-05 0.000510078187362)
(1.20464500342e-05 1.32554872565e-05 0.000568580347835)
(1.0938302122e-05 1.50523004208e-05 0.000589704070827)
(9.55623286465e-06 1.65710519255e-05 0.000604838060128)
(7.92556081836e-06 1.78334791022e-05 0.000615598267328)
(6.10605239625e-06 1.88259346409e-05 0.000623035350047)
(4.15732949439e-06 1.95392437536e-05 0.000627878178916)
(2.12641172102e-06 1.99699427984e-05 0.000630604602724)
(5.50414927345e-08 2.01158953572e-05 0.000631487430523)
(-2.01710079379e-06 1.997624035e-05 0.000630615794665)
(-4.05037217917e-06 1.95516796262e-05 0.000627900951928)
(-6.0031386003e-06 1.88441500871e-05 0.000623069613734)
(-7.82854728458e-06 1.78568777876e-05 0.000615643372536)
(-9.46716927991e-06 1.65987505066e-05 0.000604894594238)
(-1.08590257928e-05 1.50841195758e-05 0.000589792407157)
(-1.19815703503e-05 1.32895240468e-05 0.000568754640828)
(1.32285126441e-05 1.44563111177e-05 0.000624945057487)
(1.20156179578e-05 1.6254604135e-05 0.000647234091461)
(1.05134881189e-05 1.77569301965e-05 0.000663123369846)
(8.73457849128e-06 1.90038553517e-05 0.000674406413659)
(6.74040002696e-06 1.99837827002e-05 0.000682198276115)
(4.59493504372e-06 2.06882185262e-05 0.000687267489487)
(2.35155037596e-06 2.11136768502e-05 0.000690119241822)
(5.9504676891e-08 2.1257905627e-05 0.000691043410769)
(-2.2333476944e-06 2.11200220437e-05 0.000690135617415)
(-4.47918456049e-06 2.0700795404e-05 0.000687300458747)
(-6.62883946322e-06 2.00023141316e-05 0.0006822471321)
(-8.62909300471e-06 1.90278383923e-05 0.000674469110418)
(-1.0416102919e-05 1.77855649551e-05 0.000663198432317)
(-1.19282353834e-05 1.62877760484e-05 0.000647343014883)
(-1.31558370316e-05 1.44920700226e-05 0.000625142740815)
(1.41845959546e-05 1.53986941446e-05 0.000678383667421)
(1.28779393897e-05 1.71288193044e-05 0.000701395734872)
(1.12769728807e-05 1.85540123616e-05 0.000717770032173)
(9.37895972457e-06 1.97336226908e-05 0.000729433408088)
(7.24558682013e-06 2.06591447764e-05 0.000737514414555)
(4.94359964647e-06 2.13238743756e-05 0.000742785837375)
(2.53115754239e-06 2.17251631956e-05 0.000745757505982)
(6.347460226e-08 2.18612263523e-05 0.000746723522898)
(-2.40502637202e-06 2.17313745086e-05 0.000745781651699)
(-4.81995015603e-06 2.13362326056e-05 0.00074283425644)
(-7.12616078564e-06 2.0677476956e-05 0.000737585904196)
(-9.26563507685e-06 1.97575526262e-05 0.000729524479442)
(-1.11717376615e-05 1.85828803121e-05 0.000717876661565)
(-1.27827714595e-05 1.71626175522e-05 0.000701540318934)
(-1.41042043634e-05 1.54355059475e-05 0.000678621328527)
(1.48868336288e-05 1.60514944924e-05 0.000728082114933)
(1.35006300347e-05 1.76459051482e-05 0.000751366939706)
(1.18236974889e-05 1.8938329314e-05 0.000768037573056)
(9.83736281519e-06 2.00020483089e-05 0.000780029599291)
(7.60347482536e-06 2.08336832017e-05 0.000788413393797)
(5.19011301382e-06 2.14294999813e-05 0.000793923611602)
(2.65824703289e-06 2.17886329787e-05 0.000797047947504)
(6.68848161705e-08 2.19104044336e-05 0.0007980694538)
(-2.52529157124e-06 2.17945138703e-05 0.000797082899499)
(-5.05961256815e-06 2.14412518496e-05 0.00079399378639)
(-7.47713420905e-06 2.08512442221e-05 0.000788517536122)
(-9.71701813339e-06 2.00252088783e-05 0.000780163135731)
(-1.17112809841e-05 1.89666227426e-05 0.000768193297723)
(-1.33981966356e-05 1.7679498779e-05 0.000751566423894)
(-1.47990366721e-05 1.60885137751e-05 0.00072837960976)
(1.53253347136e-05 1.63917892174e-05 0.000772847392787)
(1.38735555425e-05 1.78094795009e-05 0.000796120782191)
(1.2140876671e-05 1.89137932833e-05 0.000813081914941)
(1.00946806182e-05 1.98145320015e-05 0.0008254823208)
(7.80015127996e-06 2.05135684859e-05 0.000834282595782)
(5.32397860038e-06 2.1011799562e-05 0.000840140135648)
(2.72718390506e-06 2.13111451485e-05 0.00084349349629)
(6.96720856242e-08 2.14126179914e-05 0.000844598753846)
(-2.58863640871e-06 2.13165093456e-05 0.000843542325448)
(-5.18782709128e-06 2.10225663241e-05 0.000840238612409)
(-7.66803320204e-06 2.05297847037e-05 0.000834430361086)
(-9.96835597886e-06 1.9836174004e-05 0.000825675124246)
(-1.20221886073e-05 1.8940664424e-05 0.000813309469416)
(-1.37646009726e-05 1.78419781664e-05 0.000796398817599)
(-1.52304982559e-05 1.64282596037e-05 0.000773223746212)
(1.54953728204e-05 1.66110091326e-05 0.000810896934145)
(1.39848450363e-05 1.76952170797e-05 0.000834644012131)
(1.22049413344e-05 1.85320758717e-05 0.000852042394666)
(1.01292286324e-05 1.92035687558e-05 0.000865041222189)
(7.81854142859e-06 1.97167161775e-05 0.000874459466083)
(5.33348516693e-06 2.00785814724e-05 0.000880835851776)
(2.73198442875e-06 2.02945657974e-05 0.000884532193251)
(7.17967202426e-08 2.03677550625e-05 0.000885761553272)
(-2.58916806102e-06 2.02991676594e-05 0.000884596711355)
(-5.19299013849e-06 2.00878622031e-05 0.000880966640482)
(-7.68192386668e-06 1.97308115373e-05 0.000874658276072)
(-9.99813474779e-06 1.92226298072e-05 0.000865307039777)
(-1.20810744065e-05 1.85561581884e-05 0.000852364094107)
(-1.38705657323e-05 1.77252033568e-05 0.000835040166664)
(-1.53936686379e-05 1.66452829218e-05 0.000811343357313)
(-1.41272544633e-08 -1.96770349161e-08 1.78083923208e-05)
(-1.26770803252e-08 -2.49741768048e-08 1.83682608749e-05)
(-1.33762942761e-08 -2.8980886827e-08 1.865744773e-05)
(-1.24984063899e-08 -3.34214602798e-08 1.87873363805e-05)
(-1.06257624777e-08 -3.739486478e-08 1.88286667849e-05)
(-7.24191344345e-09 -4.06959413731e-08 1.88286211686e-05)
(-2.921740361e-09 -4.28352956767e-08 1.8817950927e-05)
(1.83396666376e-09 -4.34940718512e-08 1.88139739868e-05)
(6.51849355924e-09 -4.25650881932e-08 1.88201783584e-05)
(1.06304553563e-08 -4.01620418744e-08 1.88331269959e-05)
(1.37156403115e-08 -3.66040002817e-08 1.88355733004e-05)
(1.53679704198e-08 -3.23709375287e-08 1.87969388533e-05)
(1.59147979118e-08 -2.78710250466e-08 1.86704855511e-05)
(1.47382665258e-08 -2.38000491915e-08 1.83869803666e-05)
(1.5548934528e-08 -1.86709239812e-08 1.78396879789e-05)
(3.37872258088e-08 2.84487704529e-08 5.85955971885e-05)
(3.56434793686e-08 3.03116797329e-08 6.07464333973e-05)
(2.88691246305e-08 3.32772256415e-08 6.20568924901e-05)
(2.24028001189e-08 3.40108730361e-08 6.28254611759e-05)
(1.61842048899e-08 3.39297600674e-08 6.32525253512e-05)
(1.17305962508e-08 3.31442931419e-08 6.34729926413e-05)
(8.46438843499e-09 3.24686086164e-08 6.35746611858e-05)
(5.72617132386e-09 3.24429927698e-08 6.36068685857e-05)
(2.80073210308e-09 3.32423394847e-08 6.35814824943e-05)
(-1.01411183476e-09 3.46751422172e-08 6.34867928225e-05)
(-6.27843339848e-09 3.61861546647e-08 6.3273684073e-05)
(-1.32987634049e-08 3.6948335484e-08 6.28548695669e-05)
(-2.08141590482e-08 3.64601122488e-08 6.20967433057e-05)
(-2.90099542075e-08 3.37019740986e-08 6.08032922922e-05)
(-2.90914815837e-08 3.14779568516e-08 5.86858971724e-05)
(1.64406583877e-07 1.70211319983e-07 0.000104029417273)
(1.63750023174e-07 1.96928848135e-07 0.000108200746668)
(1.45039235986e-07 2.22670791256e-07 0.000110936607678)
(1.21636152617e-07 2.43083397059e-07 0.000112694752173)
(9.45020047688e-08 2.59102543352e-07 0.000113790285455)
(6.65924267033e-08 2.70199870355e-07 0.000114437775512)
(3.82728693776e-08 2.7685453598e-07 0.00011477713759)
(9.66650458414e-09 2.79432938486e-07 0.000114887149801)
(-1.92171574688e-08 2.78044120305e-07 0.000114788546905)
(-4.83496124733e-08 2.72559312366e-07 0.000114460860262)
(-7.74948660172e-08 2.62592754545e-07 0.000113825669626)
(-1.06011749045e-07 2.47606686439e-07 0.000112743845555)
(-1.31185862198e-07 2.27695124294e-07 0.000111002751024)
(-1.52142611771e-07 2.02306552011e-07 0.000108293730529)
(-1.55957883386e-07 1.75246585698e-07 0.000104172890613)
(3.87634200543e-07 4.1605961792e-07 0.000153569458505)
(3.81204330693e-07 4.86353390015e-07 0.000160116607653)
(3.43968013627e-07 5.52746629779e-07 0.000164614869559)
(2.93113976981e-07 6.08959553913e-07 0.00016765794054)
(2.30817364891e-07 6.54732100175e-07 0.000169661136694)
(1.62012249918e-07 6.88159518265e-07 0.000170910756188)
(8.89715182347e-08 7.08721946283e-07 0.000171594223334)
(1.36903172321e-08 7.16151316194e-07 0.000171817468131)
(-6.1946742541e-08 7.10327062815e-07 0.000171610098951)
(-1.36032242494e-07 6.91337504295e-07 0.00017094287657)
(-2.06465960669e-07 6.59414750605e-07 0.000169710325629)
(-2.70736033302e-07 6.14991233983e-07 0.000167725974303)
(-3.24108709123e-07 5.59566636105e-07 0.000164705800145)
(-3.64374265948e-07 4.937267623e-07 0.000160242243077)
(-3.75053336803e-07 4.23175577198e-07 0.000153758028582)
(6.93658885416e-07 7.53582108842e-07 0.000206685954375)
(6.78206275208e-07 8.81965683021e-07 0.000215888778476)
(6.16432016163e-07 1.00325106978e-06 0.000222415255959)
(5.28796117579e-07 1.10801932235e-06 0.000226978409788)
(4.18715341417e-07 1.19433495132e-06 0.000230081038012)
(2.93553962533e-07 1.25832050388e-06 0.000232073745663)
(1.58294189109e-07 1.29795501238e-06 0.000233187187093)
(1.77772752272e-08 1.31199531897e-06 0.000233552340727)
(-1.23168707705e-07 1.29997017553e-06 0.000233207449311)
(-2.59691215725e-07 1.26229930757e-06 0.000232114718671)
(-3.86855624965e-07 1.20016878528e-06 0.000230143656248)
(-4.99482457076e-07 1.11550065086e-06 0.000227064594428)