/*--------------------------------*- C++ -*----------------------------------*\
  =========                 |
  \\      /  F ield         | OpenFOAM: The Open Source CFD Toolbox
   \\    /   O peration     | Website:  https://openfoam.org
    \\  /    A nd           | Version:  7
     \\/     M anipulation  |
\*---------------------------------------------------------------------------*/
FoamFile
{
    version     2.0;
    format      ascii;
    class       surfaceScalarField;
    location    "0.86";
    object      phi;
}
// * * * * * * * * * * * * * * * * * * * * * * * * * * * * * * * * * * * * * //

dimensions      [0 3 -1 0 0 0 0];

internalField   nonuniform List<scalar> 
65775
(
-3.39381572218e-11
-2.48361375308e-09
-2.98732798993e-10
-5.39839622864e-14
-5.90448285988e-11
-2.6039269548e-09
-3.33263323813e-10
-7.24551844936e-11
-2.7117944577e-09
-3.68337484876e-10
-7.27174010951e-11
-2.80479308214e-09
-4.01452291848e-10
-6.11182950926e-11
-2.87912011202e-09
-4.30130419433e-10
-4.00038537775e-11
-2.93344778242e-09
-4.52280093087e-10
-1.27571942772e-11
-2.96751705927e-09
-4.66424711745e-10
1.66235881072e-11
-2.98029336453e-09
-4.71478270777e-10
4.38100055744e-11
-2.96738710471e-09
-4.6638033066e-10
6.48180232444e-11
-2.93319709581e-09
-4.5219303859e-10
7.62778532613e-11
-2.87877111186e-09
-4.30002402675e-10
7.58352032755e-11
-2.80441997306e-09
-4.01283895439e-10
6.22061019657e-11
-2.7114407669e-09
-3.68125265233e-10
3.68444866702e-11
-2.60367324185e-09
-3.32992333229e-10
-2.48325769618e-09
-2.98364273942e-10
2.25627880024e-12
-8.91883744318e-11
-4.26311777395e-09
-8.13614770335e-10
-8.6306003917e-13
-1.60377611986e-10
-4.4541904376e-09
-9.0717563066e-10
-1.98666142446e-10
-4.63017786291e-09
-1.00241182137e-09
-2.0121007484e-10
-4.78086048421e-09
-1.09251162658e-09
-1.70137468384e-10
-4.90086878857e-09
-1.17067170648e-09
-1.11919729613e-10
-4.98810805272e-09
-1.23111557005e-09
-3.60917316565e-11
-5.04267686488e-09
-1.26972560254e-09
4.58246944093e-11
-5.06315308657e-09
-1.28348456985e-09
1.21565579356e-10
-5.04244523805e-09
-1.26957797317e-09
1.79651208736e-10
-4.98768522631e-09
-1.23082764353e-09
2.10581156011e-10
-4.90032144425e-09
-1.17025123439e-09
2.07851900914e-10
-4.78030219851e-09
-1.09196430568e-09
1.6928595119e-10
-4.62969773335e-09
-1.00173324236e-09
9.7542048571e-11
-4.45380796365e-09
-9.06330229898e-10
-4.26234674905e-09
-8.12519291463e-10
6.20515536068e-12
-1.33335823304e-10
-5.44351691652e-09
-1.23556586506e-09
-6.3560428828e-13
-2.39137991954e-10
-5.66567810485e-09
-1.37753402719e-09
-2.96437300061e-10
-5.87538633855e-09
-1.52193511206e-09
-3.00621180965e-10
-6.05368220868e-09
-1.65853182296e-09
-2.54276785035e-10
-6.1950649895e-09
-1.77703490774e-09
-1.66998403913e-10
-6.29710444126e-09
-1.86868345214e-09
-5.31527840101e-11
-6.36069524373e-09
-1.92720397468e-09
6.98259231558e-11
-6.38457512887e-09
-1.94802187694e-09
1.83451665764e-10
-6.360317851e-09
-1.92699072122e-09
2.70329788413e-10
-6.29641915518e-09
-1.86826614415e-09
3.16125462958e-10
-6.19417678055e-09
-1.77642092134e-09
3.1122961384e-10
-6.05274213944e-09
-1.65772342504e-09
2.53023058734e-10
-5.87454316321e-09
-1.52091957297e-09
1.45914496237e-10
-5.66488770454e-09
-1.37625513395e-09
-5.44217809599e-09
-1.23390719687e-09
9.91823907412e-12
-1.67112919009e-10
-6.12479768372e-09
-1.5677951646e-09
-5.19584088936e-13
-2.97865262783e-10
-6.34837070585e-09
-1.74755674113e-09
-3.69171427927e-10
-6.56391818797e-09
-1.9299417796e-09
-3.74494120306e-10
-6.74605027361e-09
-2.10223753455e-09
-3.16802161077e-10
-6.88958603441e-09
-2.25158258166e-09
-2.07882915092e-10
-6.99224853848e-09
-2.36701179573e-09
-6.57030483897e-11
-7.05590928752e-09
-2.44065651122e-09
8.78851897122e-11
-7.07985887354e-09
-2.46680397123e-09
2.29756106098e-10
-7.0553843093e-09
-2.44038158826e-09
3.38092946442e-10
-6.99129298085e-09
-2.36647358738e-09
3.94953748915e-10
-6.88833356859e-09
-2.25078937801e-09
3.88542191427e-10
-6.74467703962e-09
-2.1011912008e-09
3.15859522012e-10
-6.56261464099e-09
-1.92862747778e-09
1.83251640896e-10
-6.34704261162e-09
-1.7459099762e-09
-6.12282313348e-09
-1.56568489191e-09
1.30691387712e-11
-1.9165920647e-10
-6.40332398903e-09
-1.81286502453e-09
-4.2320987366e-13
-3.39621585909e-10
-6.60746303886e-09
-2.02013535959e-09
-4.20541812448e-10
-6.80846072685e-09
-2.22966816165e-09
-4.26475389572e-10
-6.9772546468e-09
-2.42719895648e-09
-3.60698607545e-10
-7.10913374931e-09
-2.59818312531e-09
-2.36467508302e-10
-7.20235338093e-09
-2.73020829004e-09
-7.42654970521e-11
-7.25976761129e-09
-2.81435263607e-09
1.00941147128e-10
-7.28143552009e-09
-2.84416532545e-09
2.62765195275e-10
-7.25910579212e-09
-2.81402010068e-09
3.86270942952e-10
-7.20114159711e-09
-2.72955802236e-09
4.50992759308e-10
-7.10752220845e-09
-2.59722611134e-09
4.43668922023e-10
-6.97543297336e-09
-2.42594021357e-09
3.60998203869e-10
-6.80664315478e-09
-2.22809693396e-09
2.10766780811e-10
-6.60552900982e-09
-2.01818828e-09
-6.40069935083e-09
-1.81040846565e-09
1.57500989964e-11
-2.08470229186e-10
-6.36816223002e-09
-1.97660545042e-09
-3.24835204585e-13
-3.67476813747e-10
-6.53972142443e-09
-2.20211037651e-09
-4.54356771024e-10
-6.71298199353e-09
-2.42906970774e-09
-4.60413844632e-10
-6.85746629267e-09
-2.64247630806e-09
-3.89189717206e-10
-6.96896686561e-09
-2.82688974718e-09
-2.54844872213e-10
-7.0465115088e-09
-2.96911566973e-09
-7.94749979013e-11
-7.09381376965e-09
-3.05965108828e-09
1.09928340598e-10
-7.11175570484e-09
-3.09165327339e-09
2.84859399952e-10
-7.09302899888e-09
-3.05926419015e-09
4.18352964508e-10
-7.04506290302e-09
-2.96836065206e-09
4.88326946694e-10
-6.96701070268e-09
-2.82578243801e-09
4.80620519852e-10
-6.8551956435e-09
-2.64102863209e-09
3.91676343725e-10
-6.71062401608e-09
-2.4272805836e-09
2.3007416088e-10
-6.53713809344e-09
-2.19992406845e-09
-6.36485793656e-09
-1.97389188767e-09
1.80487243229e-11
-2.18989006626e-10
-6.09892834579e-09
-2.0670249871e-09
-2.24762280391e-13
-3.84100809532e-10
-6.23130701459e-09
-2.30286603204e-09
-4.73945829459e-10
-6.36993531724e-09
-2.53903061595e-09
-4.79687188232e-10
-6.48447268426e-09
-2.76042172787e-09
-4.05116449896e-10
-6.57123966538e-09
-2.95135521262e-09
-2.64864212664e-10
-6.63014153339e-09
-3.09840663147e-09
-8.18993362122e-11
-6.66554662409e-09
-3.19188291148e-09
1.15658303912e-10
-6.6790842234e-09
-3.22483621052e-09
2.98124937259e-10
-6.66464801676e-09
-3.19144411267e-09
4.37404247212e-10
-6.62846720637e-09
-3.09755255778e-09
5.10541182717e-10
-6.56894180455e-09
-2.95010872192e-09
5.02913045782e-10
-6.48174076667e-09
-2.75880519606e-09
4.10727870198e-10
-6.36699996993e-09
-2.53705720899e-09
2.42743937615e-10
-6.22802860788e-09
-2.30049167456e-09
-6.09490700888e-09
-2.06412729796e-09
2.00542584657e-11
-2.24350889596e-10
-5.66492874913e-09
-2.09330152752e-09
-1.26769885e-13
-3.9150129082e-10
-5.75684084475e-09
-2.33307435288e-09
-4.81808451533e-10
-5.85899894497e-09
-2.57182192242e-09
-4.86830341958e-10
-5.94220825057e-09
-2.79484441064e-09
-4.10608477277e-10
-6.00335574438e-09
-2.98672860887e-09
-2.67906862525e-10
-6.04322270287e-09
-3.13426588486e-09
-8.19570750359e-11
-6.06657891914e-09
-3.22789436464e-09
1.18746029853e-10
-6.07563538608e-09
-3.26079758473e-09
3.04135648535e-10
-6.06556859458e-09
-3.2274055228e-09
4.45739962663e-10
-6.0413203305e-09
-3.13331709487e-09
5.2034500168e-10
-6.00070240962e-09
-2.98535171146e-09
5.13206669258e-10
-5.93898372973e-09
-2.79307525315e-09
4.2030139879e-10
-5.85543137955e-09
-2.56969136183e-09
2.50024208509e-10
-5.75279584187e-09
-2.33055209686e-09
-5.66009675852e-09
-2.09027670076e-09
2.18517492574e-11
-2.25344997135e-10
-5.12506987785e-09
-2.06502965974e-09
-3.41969688438e-14
-3.9101567188e-10
-5.17933886589e-09
-2.3037962463e-09
-4.79603150264e-10
-5.24694350223e-09
-2.54003809225e-09
-4.83522794891e-10
-5.30055207395e-09
-2.75978367881e-09
-4.07073893646e-10
-5.33771861359e-09
-2.94828466211e-09
-2.64880520311e-10
-5.36002037991e-09
-3.09290914952e-09
-7.99171787188e-11
-5.37235340631e-09
-3.18449653674e-09
1.19607045553e-10
-5.37728439012e-09
-3.21656142942e-09
3.03944037246e-10
-5.37122476936e-09
-3.18395910983e-09
4.44909247182e-10
-5.35787161503e-09
-3.09186893828e-09
5.1955284478e-10
-5.33467463194e-09
-2.94678410585e-09
5.1328545193e-10
-5.29677810518e-09
-2.75787434936e-09
4.21846080771e-10
-5.24266046152e-09
-2.53777096693e-09
2.52801036822e-10
-5.17441971177e-09
-2.301155626e-09
-5.1193145739e-09
-2.06192024366e-09
2.35106310458e-11
-2.22435583299e-10
-4.52828371847e-09
-1.99173605195e-09
4.87355049734e-14
-3.83405766765e-10
-4.55061300952e-09
-2.22593370381e-09
-4.6829788593e-10
-4.58803021155e-09
-2.45597697441e-09
-4.70763457721e-10
-4.61576876161e-09
-2.668817876e-09
-3.95357478481e-10
-4.63223211391e-09
-2.85067379118e-09
-2.56329310797e-10
-4.63964287001e-09
-2.98979272647e-09
-7.59370975144e-11
-4.64273464985e-09
-3.07765273742e-09
1.18497478383e-10
-4.64417602353e-09
-3.10827245574e-09
2.98192561641e-10
-4.64147275131e-09
-3.0770681642e-09
4.35854070502e-10
-4.63721411049e-09
-2.98866401005e-09
5.09258219771e-10
-4.62874209733e-09
-2.84905466185e-09
5.042066748e-10
-4.6113641842e-09
-2.66677724919e-09
4.162051118e-10
-4.58292073169e-09
-2.4535878163e-09
2.51605104794e-10
-4.54468161568e-09
-2.22319487204e-09
-4.52142982793e-09
-1.98857200668e-09
2.50906177102e-11
-2.15785231115e-10
-3.91412319957e-09
-1.88261438224e-09
1.22047593286e-13
-3.69008843097e-10
-3.91182637969e-09
-2.10995532778e-09
-4.48428776444e-10
-3.92461392769e-09
-2.33134433392e-09
-4.49164427855e-10
-3.93124635543e-09
-2.53474708502e-09
-3.75999187318e-10
-3.931175961e-09
-2.70759252e-09
-2.42607459218e-10
-3.92702050533e-09
-2.839279417e-09
-7.01233916542e-11
-3.92305544795e-09
-2.92214321401e-09
1.15578038205e-10
-3.9217913229e-09
-2.95086079703e-09
2.87290137618e-10
-3.92163651193e-09
-2.92151327798e-09
4.19169538597e-10
-3.92426325211e-09
-2.83806534328e-09
4.90128311101e-10
-3.92716513589e-09
-2.7058592198e-09
4.86559551895e-10
-3.92610794997e-09
-2.53258157873e-09
4.03763803535e-10
-3.91854287251e-09
-2.32884266195e-09
2.46648679298e-10
-3.90471792658e-09
-2.10713136269e-09
-3.90598931535e-09
-1.87941561091e-09
2.66338469506e-11
-2.05295388424e-10
-3.31348639451e-09
-1.74641576673e-09
1.85359604719e-13
-3.4801024547e-10
-3.29391759523e-09
-1.96580207127e-09
-4.20517240571e-10
-3.28769743172e-09
-2.17715286005e-09
-4.19376933756e-10
-3.27832975684e-09
-2.3694822518e-09
-3.49584120328e-10
-3.26626349439e-09
-2.53167205142e-09
-2.24106882579e-10
-3.25411096598e-09
-2.65453546879e-09
-6.260822257e-11
-3.24540560205e-09
-2.73147134427e-09
1.10996338438e-10
-3.24226621113e-09
-2.75795194591e-09
2.71644587843e-10
-3.24379853407e-09
-2.73079857599e-09
3.95458112644e-10
-3.25096400133e-09
-2.65324014746e-09
4.62832529572e-10
-3.26163936776e-09
-2.52982942277e-09
4.60883433892e-10
-3.27233529061e-09
-2.36719699039e-09
3.84722797154e-10
-3.280507955e-09
-2.17454526382e-09
2.3784258102e-10
-3.28545099134e-09
-1.96290297754e-09
-3.30388178775e-09
-1.74319708665e-09
2.81666038263e-11
-1.90818217916e-10
-2.74912616668e-09
-1.59143314516e-09
2.34901710288e-13
-3.21091067233e-10
-2.71758682577e-09
-1.80288038807e-09
-3.85774655296e-10
-2.69747413885e-09
-2.00367991626e-09
-3.82682175292e-10
-2.67733843424e-09
-2.18398186944e-09
-3.17181440768e-10
-2.65790386983e-09
-2.33442277464e-09
-2.01529333804e-10
-2.64130382072e-09
-2.44749739427e-09
-5.36395053733e-11
-2.63010777182e-09
-2.51785142409e-09
1.04982221737e-10
-2.62589997378e-09
-2.54186283029e-09
2.51940056652e-10
-2.62827324993e-09
-2.51714030976e-09
3.65774295537e-10
-2.63768656145e-09
-2.44612811659e-09
4.28637201723e-10
-2.65255862476e-09
-2.33247839611e-09
4.283767706e-10
-2.67034440476e-09
-2.18158238158e-09
3.59747264707e-10
-2.68898822079e-09
-2.00097163525e-09
2.25015937213e-10
-2.70754236157e-09
-1.79991886675e-09
-2.73781967504e-09
-1.58821767839e-09
2.9620825807e-11
-1.73551058627e-10
-2.23474378691e-09
-1.42551708105e-09
2.59690642495e-13
-2.91143560819e-10
-2.19301048389e-09
-1.63002250177e-09
-3.47310625929e-10
-2.1645271768e-09
-1.82032373076e-09
-3.41775769215e-10
-2.13914548774e-09
-1.98809039418e-09
-2.80865182034e-10
-2.11686788998e-09
-2.12611367177e-09
-1.76185047308e-10
-2.09910270237e-09
-2.22880145986e-09
-4.36827275108e-11
-2.08744875875e-09
-2.29217300067e-09
9.79581138726e-11
-2.08288143468e-09
-2.31357845776e-09
2.29448684275e-10
-2.08533305449e-09
-2.29143200452e-09
3.3214975242e-10
-2.09492304665e-09
-2.22737278051e-09
3.90203631446e-10
-2.11066709751e-09
-2.12408362094e-09
3.9211323862e-10
-2.13099610981e-09
-1.98558778707e-09
3.31709638305e-10
-2.15455572506e-09
-1.81751919903e-09
2.09352296732e-10
-2.1811435075e-09
-1.62701456969e-09
-2.22152731043e-09
-1.42235012531e-09
3.1080944279e-11
-1.63714262058e-10
-1.256241638e-09
3.04622821768e-13
-1.76628461434e-09
-2.68378684024e-10
-1.45534410955e-09
-1.72225623046e-09
-3.13358923211e-10
-1.63520667332e-09
-1.69327886321e-09
-3.03091827042e-10
-1.79017953454e-09
-1.66807403803e-09
-2.45324927482e-10
-1.91550251036e-09
-1.64689385425e-09
-1.5096159305e-10
-2.00758603548e-09
-1.63069014661e-09
-3.37216774947e-11
-2.06384565492e-09
-1.6201939795e-09
9.08649754416e-11
-2.08261130436e-09
-1.61582523336e-09
2.07002563244e-10
-2.06309172935e-09
-1.61772763083e-09
2.9921971181e-10
-2.00612942957e-09
-1.62580517386e-09
3.53885519742e-10
-1.9134274069e-09
-1.63964984186e-09
3.60237226781e-10
-1.78761214714e-09
-1.65854352689e-09
3.10681390102e-10
-1.63233213054e-09
-1.68156691076e-09
2.00949000929e-10
-1.45227591211e-09
-1.70833357292e-09
-1.25325333048e-09
3.24816468684e-11
-1.75091453534e-09
3.797243884e-12
1.64431828449e-11
-3.18647006456e-10
4.18506840177e-13
7.6063014324e-12
1.80978636343e-11
-3.53810274925e-10
1.00553577935e-11
1.95925154889e-11
-3.88738298539e-10
1.06226564344e-11
2.06840394145e-11
-4.21131695051e-10
9.24689750915e-12
2.13709817281e-11
-4.48811144553e-10
6.21999380376e-12
2.17007693264e-11
-4.69993437246e-10
2.11276697496e-12
2.1832013607e-11
-4.83454879427e-10
-2.37412727848e-12
2.18015798281e-11
-4.88273402205e-10
-6.48798637042e-12
2.15705295147e-11
-4.83429302803e-10
-9.55272480066e-12
2.11523534162e-11
-4.69941991366e-10
-1.10447992884e-11
2.05141074154e-11
-4.48732809606e-10
-1.06667536071e-11
1.96262610634e-11
-4.21023636542e-10
-8.44154676375e-12
1.84868838312e-11
-3.88594234259e-10
-4.78072522301e-12
1.71877497977e-11
-3.53613459807e-10
1.5924708304e-11
-3.18351344039e-10
-5.0844136781e-13
9.79134507031e-12
5.3070529405e-11
-8.60375182704e-10
1.71061960141e-12
2.0354012898e-11
5.69452719076e-11
-9.54376866756e-10
2.73518796938e-11
6.05701950788e-11
-1.04779031353e-09
2.92433406261e-11
6.32184809496e-11
-1.1344860988e-09
2.5722982514e-11
6.48260174707e-11
-1.20861681922e-09
1.75475916333e-11
6.56133013179e-11
-1.2653783659e-09
6.28064115691e-12
6.59078742682e-11
-1.30144992571e-09
-6.09775568528e-12
6.58554448861e-11
-1.31433715434e-09
-1.74581663044e-11
6.53897243868e-11
-1.30138467209e-09
-2.58881838436e-11
6.4542740446e-11
-1.26524609373e-09
-2.99305447998e-11
6.31880706517e-11
-1.20841286684e-09
-2.88091137259e-11
6.11636239686e-11
-1.13420000576e-09
-2.26681945044e-11
5.84028319592e-11
-1.0474013623e-09
-1.26888133109e-11
5.50704425297e-11
-9.53835453876e-10
5.18184716861e-11
-8.59577415219e-10
-1.20439073591e-12
1.51801455442e-11
9.01581126678e-11
-1.28845675833e-09
1.92703639327e-12
3.07306250402e-11
9.46397419066e-11
-1.42875673497e-09
4.09324920591e-11
9.88645736637e-11
-1.56807414471e-09
4.35650538978e-11
1.01621790526e-10
-1.69736439828e-09
3.81626034853e-11
1.02899802873e-10
-1.80792969017e-09
2.58517220936e-11
1.03163728115e-10
-1.89259586808e-09
8.9256115318e-12
1.02989056676e-10
-1.94637497645e-09
-9.6508662484e-12
1.027015624e-10
-1.96553919305e-09
-2.66716041775e-11
1.02257194444e-10
-1.94623771217e-09
-3.9244377281e-11
1.01672361155e-10
-1.89232215148e-09
-4.51803614422e-11
1.00658332181e-10
-1.80751925496e-09
-4.3353817195e-11
9.88190591058e-11
-1.6968118143e-09
-3.40500548385e-11
9.5901775177e-11
-1.56736143817e-09
-1.90933242866e-11
9.20148341465e-11
-1.42782573139e-09
8.82748796729e-11
-1.28717655955e-09
-1.98181884978e-12
1.92078084038e-11
1.15033248654e-10
-1.61274115362e-09
2.12705018166e-12
3.84359795985e-11
1.17824572176e-10
-1.78811246271e-09
5.10089598287e-11
1.20479164913e-10
-1.96200128637e-09
5.41957158174e-11
1.2146191019e-10
-2.12331343449e-09
4.74110785684e-11
1.2092788141e-10
-2.26125678521e-09
3.20358491721e-11
1.19600252821e-10
-2.36688641475e-09
1.08988967708e-11
1.18311114655e-10
-2.4339456816e-09
-1.23009831619e-11
1.17576387818e-10
-2.45778517333e-09
-3.35482145948e-11
1.17420242781e-10
-2.43373893361e-09
-4.92121830885e-11
1.17807565828e-10
-2.36647683036e-09
-5.65560142788e-11
1.18271794642e-10
-2.26064968717e-09
-5.42019660593e-11
1.18153464604e-10
-2.12251081935e-09
-4.25504116692e-11
1.16953155607e-10
-1.96099287926e-09
-2.39246914751e-11
1.14626377187e-10
-1.78684282691e-09
1.12593441541e-10
-1.611073897e-09
-2.58686191871e-12
2.20111193113e-11
1.24163874789e-10
-1.84507059687e-09
2.2441987912e-12
4.36148028641e-11
1.23589605845e-10
-2.04583099513e-09
5.76828197058e-11
1.23092970167e-10
-2.24447677698e-09
6.11800119235e-11
1.21082713892e-10
-2.42861818557e-09
5.34540844507e-11
1.17878405306e-10
-2.58604113e-09
3.60445924145e-11
1.14410544682e-10
-2.70656749655e-09
1.21234062902e-11
1.11709503917e-10
-2.78303431644e-09
-1.41327156308e-11
1.10442308288e-10
-2.81015113061e-09
-3.81777942321e-11
1.1071214435e-10
-2.78276099331e-09
-5.58940303991e-11
1.12422690791e-10
-2.70602847057e-09
-6.41851596137e-11
1.1496185048e-10
-2.58524864652e-09
-6.15100416134e-11
1.17462837229e-10
-2.42758418174e-09
-4.83427990661e-11
1.19202689478e-10
-2.24320323298e-09
-2.7331188631e-11
1.19979644458e-10
-2.04427256553e-09
1.21284584276e-10
-1.84309752787e-09
-3.08026969118e-12
2.36871009803e-11
1.1922674662e-10
-1.99651993246e-09
2.27829145352e-12
4.64598889467e-11
1.14622916886e-10
-2.2144168192e-09
6.11977852792e-11
1.10356003399e-10
-2.42943606112e-09
6.47645872656e-11
1.05041599213e-10
-2.6285240712e-09
5.64947457955e-11
9.90814620918e-11
-2.79862996893e-09
3.80065777941e-11
9.35266125667e-11
-2.92881850497e-09
1.2634516865e-11
8.94963476856e-11
-3.01134719961e-09
-1.52094728451e-11
8.77399451621e-11
-3.040535339e-09
-4.07129727151e-11
8.84310440719e-11
-3.01101077617e-09
-5.95128349173e-11
9.14189389617e-11
-2.92815756573e-09
-6.83309157829e-11
9.60156184647e-11
-2.7976649475e-09
-6.55432452836e-11
1.01245258759e-10
-2.62727909373e-09
-5.16489563384e-11
1.06246969921e-10
-2.4279288794e-09
-2.94363568249e-11
1.10717785607e-10
-2.21261603849e-09
1.15985819683e-10
-1.99430651912e-09
-3.49132060177e-12
2.43245577611e-11
1.04158028184e-10
-2.07749000564e-09
2.24487631902e-12
4.72109521649e-11
9.57754215843e-11
-2.30560102937e-09
6.18982372174e-11
8.80006840871e-11
-2.52995295395e-09
6.53241803388e-11
7.9797408096e-11
-2.73733914093e-09
5.6865957597e-11
7.1580431597e-11
-2.91436968007e-09
3.81491291087e-11
6.44107257669e-11
-3.04976893611e-09
1.25135551744e-11
5.93928298593e-11
-3.13550852888e-09
-1.5609637652e-11
5.72796521419e-11
-3.16574134005e-09
-4.13778729094e-11
5.82932002669e-11
-3.13511305054e-09
-6.0398437366e-11
6.22469669105e-11
-3.04899464605e-09
-6.93707842591e-11
6.84510536277e-11
-2.91324625516e-09
-6.66574663111e-11
7.59265833239e-11
-2.7359046328e-09
-5.2735977728e-11
8.37782627696e-11
-2.52824317887e-09
-3.03592720701e-11
9.16880022374e-11
-2.30359981972e-09
1.0063424332e-10
-2.07509062706e-09
-3.82749203883e-12
2.40267295615e-11
8.33908750296e-11
-2.09776261947e-09
2.15621837978e-12
4.61522901741e-11
7.21208710238e-11
-2.33040741994e-09
6.01876753173e-11
6.16537778431e-11
-2.55830834537e-09
6.33061178399e-11
5.14104995776e-11
-2.76849958096e-09
5.49682820185e-11
4.17419941814e-11
-2.94766599634e-09
3.67494870225e-11
3.36257174968e-11
-3.08455363809e-09
1.18614020135e-11
2.80675318361e-11
-3.17111248922e-09
-1.54265038804e-11
2.57642471604e-11
-3.2015293071e-09
-4.04428583539e-11
2.6956701482e-11
-3.1706624237e-09
-5.89475428705e-11
3.14491101158e-11
-3.08367522646e-09
-6.77534210942e-11
3.86083179247e-11
-2.94639886857e-09
-6.52675304793e-11
4.75383489311e-11
-2.76689683873e-09
-5.1904855521e-11
5.7398301367e-11
-2.55642501558e-09
-3.0231317298e-11
6.79258445808e-11
-2.32824219875e-09
7.96481969962e-11
-2.09522241199e-09
-4.09986175037e-12
2.29216946592e-11
6.08488722565e-11
-2.06656127992e-09
2.0293603047e-12
4.3584158348e-11
4.78744244789e-11
-2.29922937252e-09
5.64952144416e-11
3.57900964003e-11
-2.52607361699e-09
5.91855784744e-11
2.44968193682e-11
-2.73465213588e-09
5.12271719435e-11
1.42324265032e-11
-2.91206217737e-09
3.41007475762e-11
5.84382842199e-12
-3.04738684782e-09
1.07834795447e-11
1.83610802373e-13
-3.13279479358e-09
-1.47628717248e-11
-2.14810749876e-12
-3.16268694951e-09
-3.81990003945e-11
-9.17974813926e-13
-3.13229485073e-09
-5.55852556513e-11
3.69112374369e-12
-3.04641377796e-09
-6.39568377823e-11
1.11419830183e-11
-2.91066580179e-09
-6.18124718265e-11
2.06754304331e-11
-2.73290112197e-09
-4.94744212637e-11
3.15601173524e-11
-2.52404247079e-09
-2.92012484086e-11
4.3630374926e-11
-2.29693030544e-09
5.69442576161e-11
-2.06391683716e-09
-4.31463933315e-12
2.11516307822e-11
3.95251759022e-11
-1.99261849831e-09
1.87507077862e-12
3.98085512413e-11
2.60453549164e-11
-2.2219169766e-09
5.12470534422e-11
1.34274424831e-11
-2.44420465114e-09
5.34316157609e-11
1.9998130712e-12
-2.64774478742e-09
4.60647207528e-11
-8.10826070948e-12
-2.82032296666e-09
3.0493938232e-11
-1.62052362522e-11
-2.95164051788e-09
9.38360970065e-12
-2.16082220199e-11
-3.03430765257e-09
-1.37227661226e-11
-2.38383915499e-11
-3.06310351844e-09
-3.49386146428e-11
-2.26858906147e-11
-3.03376268111e-09
-5.07367422071e-11
-1.83076538009e-11
-2.95058220912e-09
-5.84569081858e-11
-1.11222257999e-11
-2.81881102968e-09
-5.67282478855e-11
-1.73135756092e-12
-2.64586323549e-09
-4.57622741453e-11
9.26512085412e-12
-2.44204720943e-09
-2.74267045315e-11
2.1796147635e-11
-2.2195076681e-09
3.54919907708e-11
-1.98989816982e-09
-4.47826196107e-12
1.88592834366e-11
2.1361931711e-11
-1.88424698514e-09
1.70627522727e-12
3.51146922288e-11
8.4194332829e-12
-2.10786979586e-09
4.48481338912e-11
-3.80775754095e-12
-2.32313623713e-09
4.64948617396e-11
-1.46494675182e-11
-2.51911064786e-09
3.988631741e-11
-2.40430367735e-11
-2.68450645723e-09
2.62094891923e-11
-3.14407446108e-11
-2.80990738753e-09
7.76005681421e-12
-3.6336459227e-11
-2.88857833226e-09
-1.24087800571e-11
-3.83702897739e-11
-2.9158270798e-09
-3.09473160865e-11
-3.73783453911e-11
-2.88799337173e-09
-4.48144339721e-11
-3.3471402769e-11
-2.80877322336e-09
-5.17126304875e-11
-2.69541848784e-11
-2.68289168151e-09
-5.04321952551e-11
-1.82635860762e-11
-2.51711377462e-09
-4.10732986368e-11
-7.87327181061e-12
-2.32086970098e-09
-2.5069593234e-11
4.19989265298e-12
-2.10536801699e-09
1.72311789622e-11
-1.88147152259e-09
-4.59616026922e-12
1.61791249627e-11
7.34671322185e-12
-1.74941192899e-09
1.52438265466e-12
2.97728065901e-11
-4.24393380161e-12
-1.96612800035e-09
3.76807914574e-11
-1.54253891083e-11
-2.17285985059e-09
3.88051697614e-11
-2.52101662035e-11
-2.35952115152e-09
3.30837844302e-11
-3.35385918911e-11
-2.51599900901e-09
2.15166544515e-11
-3.99975862871e-11
-2.63402673308e-09
6.00816223272e-12
-4.42304559319e-11
-2.70773130829e-09
-1.09239049674e-11
-4.60195444201e-11
-2.73308582507e-09
-2.65027286372e-11
-4.52255103469e-11
-2.70711178135e-09
-3.8220832099e-11
-4.19393641484e-11
-2.63282639287e-09
-4.41676051771e-11
-3.63274795014e-11
-2.51429353916e-09
-4.33221038311e-11
-2.86872165331e-11
-2.35742197223e-09
-3.56939588222e-11
-1.9372808708e-11
-2.17049787514e-09
-2.22842105641e-11
-8.40697252014e-12
-1.96354845566e-09
3.16270836e-12
-1.74659758725e-09
-4.67388274187e-12
1.32222945549e-11
-2.23046088234e-12
-1.59579914688e-09
1.34150023518e-12
2.40154733496e-11
-1.19688504833e-11
-1.80544172947e-09
3.01069665673e-11
-2.17723321486e-11
-2.00294319876e-09
3.07818340003e-11
-3.02736112458e-11
-2.17916336848e-09
2.60362942512e-11
-3.73649773864e-11
-2.32547668795e-09
1.6683812683e-11
-4.2759645403e-11
-2.43504681524e-09
4.21421625763e-12
-4.62802111504e-11
-2.50305616873e-09
-9.36566917445e-12
-4.77842738188e-11
-2.5262585932e-09
-2.18875067509e-11
-4.72208130472e-11
-2.50240865467e-09
-3.13520013932e-11
-4.45985115169e-11
-2.43379170478e-09
-3.62602733011e-11
-4.00122820251e-11
-2.32369372559e-09
-3.57811692194e-11
-3.3596249363e-11
-2.17697378075e-09
-2.98782132888e-11
-2.55897806939e-11
-2.00049686395e-09
-1.91971054748e-11
-1.60632805838e-11
-1.80280083194e-09
-6.44026628118e-12
-1.59296940447e-09
-4.71479750937e-12
9.96086957989e-12
-7.444073888e-12
-1.43085764073e-09
1.16399781707e-12
1.79976457572e-11
-1.53530139776e-11
-1.63425348692e-09
2.24586807031e-11
-2.37720264256e-11
-1.82239346165e-09
2.28281080802e-11
-3.09112663005e-11
-1.98746157862e-09
1.91207448764e-11
-3.67046373667e-11
-2.12274358233e-09
1.19537145294e-11
-4.10275821301e-11
-2.22309482398e-09
2.47418320122e-12
-4.38162543845e-11
-2.2849014803e-09
-7.84801075324e-12
-4.50539676965e-11
-2.30577742313e-09
-1.73642821981e-11
-4.46948663092e-11
-2.28423525778e-09
-2.46067902031e-11
-4.27502577609e-11
-2.2218012716e-09
-2.84232996196e-11
-3.92019517523e-11
-2.12090184609e-09
-2.81757801432e-11
-3.40743415045e-11
-1.98519610862e-09
-2.38144368363e-11
-2.74538604065e-11
-1.8198711718e-09
-1.58079494137e-11
-1.93862865795e-11
-1.63157041645e-09
-1.16909780164e-11
-1.42805648997e-09
-4.73596168388e-12
6.28668782283e-12
-1.26177102135e-09
9.73945450436e-13
-8.66127972897e-12
1.20162214882e-11
-1.46039261807e-09
-1.56718881849e-11
1.51584255399e-11
-1.63911257468e-09
-2.26692757112e-11
1.53440727128e-11
-1.79259609517e-09
-2.83815208868e-11
1.2646411325e-11
-1.91637317321e-09
-3.28637994954e-11
7.54486405455e-12
-2.00712123242e-09
-3.6141558134e-11
8.33009171237e-13
-2.06248257633e-09
-3.82570882271e-11
-6.44776078364e-12
-2.0809568603e-09
-3.92307343659e-11
-1.31825962023e-11
-2.06181369316e-09
-3.9072682477e-11
-1.83296660301e-11
-2.00581942374e-09
-3.77450124128e-11
-2.10858490137e-11
-1.91451189652e-09
-3.52059408108e-11
-2.09516415777e-11
-1.79029222083e-09
-3.13826294749e-11
-1.78321467415e-11
-1.63654139575e-09
-2.62314450946e-11
-1.20490440399e-11
-1.45765776258e-09
-1.96650536163e-11
-1.25912692427e-09
-4.76878957018e-12
-1.29842813738e-11
-9.46452243476e-13
8.71008516925e-12
-3.26510087685e-10
-1.65333884679e-13
-1.74283819449e-12
9.48509355622e-12
-3.63125657003e-10
-2.18910605741e-12
1.04826310165e-11
-3.99520754803e-10
-2.25670931032e-12
1.15037348402e-11
-4.33303596171e-10
-1.93838142298e-12
1.24825955917e-11
-4.62189990139e-10
-1.30008661936e-12
1.33095374003e-11
-4.84305670968e-10
-4.67424132231e-13
1.38612835513e-11
-4.98359725729e-10
4.2670485943e-13
1.40915335266e-11
-5.03380896708e-10
1.25104229417e-12
1.39852262579e-11
-4.98309316116e-10
1.88936432663e-12
1.35838125462e-11
-4.84206977671e-10
2.24803281265e-12
1.29289994297e-11
-4.62046818209e-10
2.26282095699e-12
1.20633172842e-11
-4.33120449722e-10
1.90810414481e-12
1.10476518162e-11
-3.99299891894e-10
1.19423309315e-12
9.94919560437e-12
-3.62858090278e-10
8.91388355072e-12
-3.26154430801e-10
7.81659542619e-14
-1.71382510769e-12
1.70651010048e-11
-8.66310960897e-10
-1.2302709194e-12
-4.17533425079e-12
1.84933666566e-11
-9.61923966186e-10
-5.786221444e-12
2.01604514793e-11
-1.05704213697e-09
-6.30799877627e-12
2.18332869829e-11
-1.14540747068e-09
-5.69592906834e-12
2.34268536521e-11
-1.22101766507e-09
-4.11801929126e-12
2.47433547925e-11
-1.2789326415e-09
-1.91852918551e-12
2.56186097397e-11
-1.31573007508e-09
5.06738378516e-13
2.59835909153e-11
-1.32884432983e-09
2.76683648669e-12
2.58015551019e-11
-1.31557210828e-09
4.52249499929e-12
2.51395754962e-11
-1.27862429235e-09
5.51006141113e-12
2.40595000275e-11
-1.22057250482e-09
5.55863741222e-12
2.2628814068e-11
-1.14484204559e-09
4.61633881384e-12
2.09368191534e-11
-1.05636731091e-09
2.73799758225e-12
1.90996146742e-11
-9.61119761989e-10
1.73243680762e-11
-8.65292119405e-10
3.81083939795e-14
-2.92005504141e-12
2.21229407561e-11
-1.29002522779e-09
-1.0819971133e-12
-6.19404964521e-12
2.37940658811e-11
-1.43169544974e-09
-8.23184075583e-12
2.56293785398e-11
-1.57258456501e-09
-8.73580533895e-12
2.74961390684e-11
-1.70350609439e-09
-7.6824190234e-12
2.92790947349e-11
-1.81557559579e-09
-5.32664821212e-12
3.07609026823e-11
-1.90144592385e-09
-2.13439047033e-12
3.17588839448e-11
-1.95599330125e-09
1.35051060593e-12
3.2188693013e-11
-1.97539736283e-09
4.5732762888e-12
3.20010774654e-11
-1.95575842076e-09
7.04404815468e-12
3.12739309003e-11
-1.90098620487e-09
8.3780800033e-12
3.00782289918e-11
-1.81490880952e-09
8.33412808416e-12
2.84895321507e-11
-1.70265343786e-09
6.853677851e-12
2.65985368092e-11
-1.57155943406e-09
4.05728446386e-12
2.45288876118e-11
-1.4304692744e-09
2.24362431297e-11
-1.28848540973e-09
2.48321309607e-13
-3.66117735541e-12
2.53330318811e-11
-1.6117508575e-09
-1.04818115736e-12
-7.5386032081e-12
2.71457584055e-11
-1.7884262149e-09
-9.93456623825e-12
2.89742953356e-11
-1.96391070318e-09
-1.04790610165e-11
3.08254466178e-11
-2.12694759808e-09
-9.14927582496e-12
3.25844305213e-11
-2.26652477103e-09
-6.25610018897e-12
3.40513784708e-11
-2.3734857891e-09
-2.35050426706e-12
3.50540957106e-11
-2.44140359083e-09
1.90968455905e-12
3.55032930647e-11
-2.46551406375e-09
5.83946078301e-12
3.53382272576e-11
-2.44109771681e-09
8.82945588728e-12
3.46392412328e-11
-2.37288680672e-09
1.04024938454e-11
3.34765366235e-11
-2.26565528887e-09
1.02704974768e-11
3.1923364977e-11
-2.12583494225e-09
8.38335323283e-12
3.00527461189e-11
-1.96257457183e-09
4.94121945469e-12
2.79602230523e-11
-1.78683979574e-09
2.56880093365e-11
-1.60979567824e-09
4.10822752246e-13
-4.09212780985e-12
2.76740558485e-11
-1.84277126705e-09
-1.02641631979e-12
-8.34428078334e-12
2.96551809921e-11
-2.04485651292e-09
-1.09725318897e-11
3.14743368149e-11
-2.24518614965e-09
-1.15541484174e-11
3.3247987245e-11
-2.4311870973e-09
-1.00584084433e-11