/*--------------------------------*- C++ -*----------------------------------*\
  =========                 |
  \\      /  F ield         | OpenFOAM: The Open Source CFD Toolbox
   \\    /   O peration     | Website:  https://openfoam.org
    \\  /    A nd           | Version:  7
     \\/     M anipulation  |
\*---------------------------------------------------------------------------*/
FoamFile
{
    version     2.0;
    format      ascii;
    class       surfaceScalarField;
    location    "1.72";
    object      phi;
}
// * * * * * * * * * * * * * * * * * * * * * * * * * * * * * * * * * * * * * //

dimensions      [0 3 -1 0 0 0 0];

internalField   nonuniform List<scalar> 
65775
(
-6.74615304829e-12
-2.10703517939e-09
-9.45515162558e-11
-3.05770825144e-14
-1.13910021102e-11
-2.21438312422e-09
-1.03696424452e-10
-1.3945264853e-11
-2.31097983769e-09
-1.12050219412e-10
-1.38266816458e-11
-2.39489229581e-09
-1.19375755401e-10
-1.16235116578e-11
-2.46242483044e-09
-1.25400513934e-10
-7.79296276992e-12
-2.51212794539e-09
-1.29894365239e-10
-2.94743877437e-12
-2.54337900471e-09
-1.32718782059e-10
2.26375162197e-12
-2.55507511916e-09
-1.3374353683e-10
7.12569097337e-12
-2.54337371228e-09
-1.32727133619e-10
1.09892459236e-11
-2.51211631734e-09
-1.29910891213e-10
1.32408607091e-11
-2.46240607298e-09
-1.25424886509e-10
1.3420474114e-11
-2.39486614643e-09
-1.1940757488e-10
1.09351141626e-11
-2.31095084215e-09
-1.12089191815e-10
6.36018983658e-12
-2.21435339929e-09
-1.03742953654e-10
-2.10704173666e-09
-9.46074358673e-11
-3.20152496649e-13
-2.2393978672e-11
-3.87648685468e-09
-3.12009480804e-10
-7.23101981267e-14
-3.90403114011e-11
-4.07039729114e-09
-3.45206885185e-10
-4.67649632079e-11
-4.2473097538e-09
-3.76036347726e-10
-4.6366722062e-11
-4.39982024088e-09
-4.03390256523e-10
-3.89014917079e-11
-4.5225010357e-09
-4.26089118759e-10
-2.60186903621e-11
-4.6125769563e-09
-4.43134725763e-10
-9.71770701012e-12
-4.66913826531e-09
-4.53869756303e-10
7.74984423699e-12
-4.69025685555e-09
-4.57732026878e-10
2.40967454902e-11
-4.66913143628e-09
-4.53895351044e-10
3.70720028618e-11
-4.61256191183e-09
-4.43185296225e-10
4.4673951278e-11
-4.52247477747e-09
-4.26163489888e-10
4.52463607409e-11
-4.39978024398e-09
-4.03486931811e-10
3.77198137162e-11
-4.24725990481e-09
-3.76154043701e-10
2.12897998759e-11
-4.07035419189e-09
-3.45346162057e-10
-3.87652160995e-09
-3.12173508578e-10
-9.24175434433e-13
-4.05216567168e-11
-5.30029409055e-09
-5.35050525043e-10
-7.55737159003e-14
-6.89459021308e-11
-5.5599055053e-09
-5.9501708946e-10
-8.1777874711e-11
-5.79798466844e-09
-6.51019966834e-10
-8.08039981032e-11
-6.0015325036e-09
-7.00891118917e-10
-6.76542163604e-11
-6.1649993766e-09
-7.42382487715e-10
-4.5140355563e-11
-6.28467072158e-09
-7.73595788174e-10
-1.67159881575e-11
-6.35969032251e-09
-7.93250709634e-10
1.37000483154e-11
-6.3876507282e-09
-8.0028867415e-10
4.21921091689e-11
-6.35969282108e-09
-7.93291284052e-10
6.48409142308e-11
-6.28467311474e-09
-7.73675950842e-10
7.81891026315e-11
-6.16499649696e-09
-7.42500337008e-10
7.94158938545e-11
-6.00152013965e-09
-7.01044192397e-10
6.68759395895e-11
-5.79796267135e-09
-6.51206021872e-10
3.8779283545e-11
-5.55989948406e-09
-5.95236468605e-10
-5.30038455461e-09
-5.35306943325e-10
-1.4524177425e-12
-6.02630315061e-11
-6.38369776872e-09
-7.51245679819e-10
-7.33071191868e-14
-1.00472779977e-10
-6.68915675023e-09
-8.38588608058e-10
-1.18556605657e-10
-6.96859663514e-09
-9.20289325481e-10
-1.16790144546e-10
-7.20555742971e-09
-9.93098258111e-10
-9.76201343939e-11
-7.39525173522e-09
-1.0536908143e-09
-6.50010109548e-11
-7.5336739352e-09
-1.09927436183e-09
-2.38996911046e-11
-7.62027798381e-09
-1.12794951517e-09
2.00468494449e-11
-7.65251113846e-09
-1.1381779847e-09
6.12312344287e-11
-7.62029331283e-09
-1.12800258047e-09
9.40153130455e-11
-7.53370138257e-09
-1.09937922057e-09
1.13427854862e-10
-7.39528354499e-09
-1.05384494699e-09
1.15505000202e-10
-7.2055863879e-09
-9.93298302348e-10
9.7784395068e-11
-6.96861919121e-09
-9.20531977051e-10
5.79851829387e-11
-6.68920729045e-09
-8.38873520026e-10
-6.38385692852e-09
-7.51576312014e-10
-1.90237648253e-12
-8.05795100378e-11
-7.14214384285e-09
-9.51418498029e-10
-6.95856686266e-14
-1.32759089835e-10
-7.47497387747e-09
-1.06513851711e-09
-1.56209753865e-10
-7.7771629267e-09
-1.17140816679e-09
-1.53564019522e-10
-8.03126799596e-09
-1.266004571e-09
-1.28190848256e-10
-8.23379304643e-09
-1.34463699146e-09
-8.52113468274e-11
-8.3810598828e-09
-1.40372791474e-09
-3.11363321987e-11
-8.47299779214e-09
-1.44084185899e-09
2.66515526744e-11
-8.50717761289e-09
-1.45403441468e-09
8.08192669722e-11
-8.47302962006e-09
-1.44090456822e-09
1.23982889395e-10
-8.38111950793e-09
-1.40385195917e-09
1.4962717331e-10
-8.23387163384e-09
-1.34481935537e-09
1.52621790788e-10
-8.03135618504e-09
-1.26624105419e-09
1.29582476234e-10
-7.77725383858e-09
-1.1716943352e-09
7.78688641339e-11
-7.4751027087e-09
-1.06547312036e-09
-7.1423808102e-09
-9.51804382042e-10
-2.27342148653e-12
-1.00722069436e-10
-7.59961156767e-09
-1.1277874184e-09
-6.57594328366e-14
-1.64969847548e-10
-7.94330925349e-09
-1.26564910943e-09
-1.93841352732e-10
-8.25203879484e-09
-1.39413369253e-09
-1.903118209e-10
-8.5093548101e-09
-1.50823689408e-09
-1.58710924429e-10
-8.71335283075e-09
-1.60288735321e-09
-1.05349984218e-10
-8.86114576363e-09
-1.67389149829e-09
-3.82890179876e-11
-8.95320034738e-09
-1.71840174534e-09
3.3349873362e-11
-8.98738439891e-09
-1.73417004119e-09
1.00508949702e-10
-8.95324783878e-09
-1.71847167534e-09
1.54064665696e-10
-8.86123677691e-09
-1.67402984938e-09
1.85952945501e-10
-8.71347787911e-09
-1.6030905936e-09
1.89853623985e-10
-8.50950318451e-09
-1.50849997947e-09
1.61422825836e-10
-8.25220062407e-09
-1.39445097958e-09
9.76744881149e-11
-7.94352030441e-09
-1.26601835096e-09
-7.59993143603e-09
-1.12821089295e-09
-2.56965831855e-12
-1.20200778452e-10
-7.78637153891e-09
-1.2745495109e-09
-6.2505207667e-14
-1.96431190742e-10
-8.12684891045e-09
-1.43355304581e-09
-2.30703605216e-10
-8.42889947054e-09
-1.58119410594e-09
-2.26343645201e-10
-8.67831364322e-09
-1.71191262735e-09
-1.88627113025e-10
-8.87488232745e-09
-1.82006870026e-09
-1.25064735642e-10
-9.01676697086e-09
-1.90103550246e-09
-4.52479126797e-11
-9.10493121011e-09
-1.95168231112e-09
3.99946673695e-11
-9.13762411642e-09
-1.96956284942e-09
1.19912125169e-10
-9.10499438775e-09
-1.95175741014e-09
1.83674293521e-10
-9.0168898063e-09
-1.90118398415e-09
2.21685901426e-10
-8.87505579857e-09
-1.82028650346e-09
2.26427848657e-10
-8.67852676089e-09
-1.71219379599e-09
1.92610895755e-10
-8.42914000119e-09
-1.58153169319e-09
1.16897136731e-10
-8.12714887809e-09
-1.43394380547e-09
-7.78677841409e-09
-1.27499519765e-09
-2.80066446277e-12
-1.38732965316e-10
-7.73665513602e-09
-1.38802549591e-09
-5.90072598179e-14
-2.26669740298e-10
-8.06248064201e-09
-1.56485094824e-09
-2.66262898848e-10
-8.34773306464e-09
-1.72835442525e-09
-2.61167392548e-10
-8.58100722968e-09
-1.87263760884e-09
-2.17549353613e-10
-8.76373053456e-09
-1.99169182577e-09
-1.44110942544e-10
-8.89515985195e-09
-2.0806216493e-09
-5.19416660288e-11
-8.97662836138e-09
-2.13612420719e-09
4.64739589369e-11
-9.0067764687e-09
-2.15564765358e-09
1.38744823195e-10
-8.97670589709e-09
-2.13620289472e-09
2.12384842144e-10
-8.89531226968e-09
-2.0807770504e-09
2.56300554936e-10
-8.7639501369e-09
-1.99191927569e-09
2.61781947428e-10
-8.58128329416e-09
-1.87293013465e-09
2.22650076917e-10
-8.34805258997e-09
-1.72870367755e-09
1.35237347203e-10
-8.06287169065e-09
-1.56525272615e-09
-7.73715647364e-09
-1.38848093372e-09
-2.97879590872e-12
-1.56208585748e-10
-7.48654966517e-09
-1.46647438921e-09
-5.55941103933e-14
-2.5543442338e-10
-7.78894512866e-09
-1.65782376539e-09
-3.00236978876e-10
-8.05016047124e-09
-1.83400275043e-09
-2.94526199639e-10
-8.26171932387e-09
-1.98895578565e-09
-2.45276653798e-10
-8.42647115069e-09
-2.11646945111e-09
-1.62364634609e-10
-8.54461715311e-09
-2.21151112664e-09
-5.83393228775e-11
-8.61766947373e-09
-2.27069057287e-09
5.27198457522e-11
-8.6446185438e-09
-2.29142492468e-09
1.5684711801e-10
-8.61776117913e-09
-2.27077170666e-09
2.39961305692e-10
-8.54479895902e-09
-2.2116711136e-09
2.89509047901e-10
-8.42673741958e-09
-2.11670294814e-09
2.95606225586e-10
-8.26206045126e-09
-1.98925470063e-09
2.51266188337e-10
-8.05056313135e-09
-1.83435725142e-09
1.5256635172e-10
-7.78943336921e-09
-1.65822876852e-09
-7.4871523954e-09
-1.46693016146e-09
-3.11709807039e-12
-1.72638671735e-10
-7.07230167364e-09
-1.50971992784e-09
-5.12120178559e-14
-2.82688800151e-10
-7.34496930609e-09
-1.71253646098e-09
-3.32602709482e-10
-7.57741601024e-09
-1.89851750043e-09
-3.26403642938e-10
-7.76402350963e-09
-2.06157654604e-09
-2.71792474674e-10
-7.90866952808e-09
-2.19541442467e-09
-1.79814500548e-10
-8.01217404927e-09
-2.29495896994e-09
-6.44457796883e-11
-8.07600646783e-09
-2.35679395172e-09
5.87069073087e-11
-8.0994390123e-09
-2.3783637689e-09
1.74178103077e-10
-8.07611240738e-09
-2.35687671375e-09
2.66358863652e-10
-8.01238572907e-09
-2.29512188178e-09
3.21268767826e-10
-7.90898324393e-09
-2.19565142648e-09
3.27854359999e-10
-7.76443203365e-09
-2.06187836291e-09
2.78402995478e-10
-7.57790682209e-09
-1.89887276751e-09
1.68879753124e-10
-7.34556320971e-09
-1.71293930269e-09
-7.07301976963e-09
-1.51016941261e-09
-3.22805663631e-12
-1.88102760799e-10
-6.52913212435e-09
-1.51871451241e-09
-4.64892645228e-14
-3.08596172019e-10
-6.76788649344e-09
-1.73029784765e-09
-3.63587578079e-10
-6.96894636581e-09
-1.92361983852e-09
-3.56997806869e-10
-7.12940100967e-09
-2.09261885619e-09
-2.97227473678e-10
-7.25349550472e-09
-2.23098657358e-09
-1.96531394267e-10
-7.34220496186e-09
-2.33368533663e-09
-7.02891782569e-11
-7.3967462237e-09
-2.39731978653e-09
6.44413757961e-11
-7.41661678432e-09
-2.41940868535e-09
1.90787047225e-10
-7.39686775222e-09
-2.39740354933e-09
2.91687710048e-10
-7.34244887773e-09
-2.3338499351e-09
3.5175847252e-10
-7.25386088421e-09
-2.23122526128e-09
3.58736359099e-10
-7.12988263957e-09
-2.09292117831e-09
3.04208570361e-10
-6.96953385628e-09
-1.92397286596e-09
1.84243539726e-10
-6.76859769355e-09
-1.7306949825e-09
-6.52997956511e-09
-1.51915336618e-09
-3.32239946877e-12
-2.0271828471e-10
-5.89047087464e-09
-1.49512705441e-09
-4.06203927004e-14
-3.33563509812e-10
-6.0926594977e-09
-1.71318806602e-09
-3.93676622443e-10
-6.26159327375e-09
-1.91183729291e-09
-3.86664423908e-10
-6.39654165958e-09
-2.08500377611e-09
-3.21783313104e-10
-6.50103825291e-09
-2.22642271068e-09
-2.12609287902e-10
-6.57571971853e-09
-2.33115987549e-09
-7.59007378493e-11
-6.621444517e-09
-2.39588341754e-09
6.99404482535e-11
-6.63790906965e-09
-2.41822718754e-09
2.06754345261e-10
-6.62158431513e-09
-2.39596760616e-09
3.16136147196e-10
-6.5760012095e-09
-2.33132508299e-09
3.81321901594e-10
-6.50146176905e-09
-2.2266616331e-09
3.88726277481e-10
-6.39710556274e-09
-2.08530488353e-09
3.29080627159e-10
-6.26228974519e-09
-1.91218604175e-09
1.9876758741e-10
-6.09350420127e-09
-1.71357701733e-09
-5.89146594452e-09
-1.49555234724e-09
-3.40774184679e-12
-2.16929106066e-10
-5.18726606305e-09
-1.44100060628e-09
-3.39960444221e-14
-3.58576440329e-10
-5.35119311943e-09
-1.66372489695e-09
-4.23641670423e-10
-5.48944330682e-09
-1.86613935695e-09
-4.15769985647e-10
-5.60123409681e-09
-2.04203800369e-09
-3.45568095278e-10
-5.68808448956e-09
-2.18528075633e-09
-2.28058405211e-10
-5.75009189638e-09
-2.2911225337e-09
-8.12765845899e-11
-5.7878138015e-09
-2.35633898691e-09
7.51932060731e-11
-5.80116797076e-09
-2.3787149055e-09
2.22083256845e-10
-5.78797615006e-09
-2.35642293084e-09
3.39806536826e-10
-5.75041825237e-09
-2.29128714326e-09
4.10319711498e-10
-5.68857751781e-09
-2.18551843274e-09
4.18591078009e-10
-5.6018934344e-09
-2.04233643005e-09
3.5400062003e-10
-5.49026452155e-09
-1.8664823172e-09
2.12892889446e-10
-5.35219185204e-09
-1.66410340538e-09
-5.18843189815e-09
-1.44140911682e-09
-3.48072917269e-12
-2.32730253811e-10
-4.44630415213e-09
-1.35849787619e-09
-2.40753219638e-14
-3.85517677891e-10
-4.57266850242e-09
-1.58474269066e-09
-4.54151273292e-10
-4.68456678588e-09
-1.78975420719e-09
-4.44265160511e-10
-4.77654351985e-09
-1.96716375896e-09
-3.68337327451e-10
-4.84801889845e-09
-2.11116398796e-09
-2.42678718802e-10
-4.89891483079e-09
-2.21730163599e-09
-8.63475015698e-11
-4.92963401479e-09
-2.28249710882e-09
8.0128917881e-11
-4.94025710586e-09
-2.30471343364e-09
2.36572960883e-10
-4.92982472922e-09
-2.28257986546e-09
3.62452646204e-10
-4.8992977873e-09
-2.21746394397e-09
4.38702663369e-10
-4.84859547452e-09
-2.11139836234e-09
4.48999772387e-10
-4.77731534334e-09
-1.96745773798e-09
3.80850603728e-10
-4.68553262418e-09
-1.79009015344e-09
2.28612945927e-10
-4.57384650456e-09
-1.58510846989e-09
-4.44766492175e-09
-1.35888452075e-09
-3.553132017e-12
-2.53789713247e-10
-1.24972469937e-09
-1.63385739059e-14
-3.68859693737e-09
-4.15873630246e-10
-1.47955342697e-09
-3.78513726758e-09
-4.85794667487e-10
-1.68596586785e-09
-3.8766514949e-09
-4.7287224935e-10
-1.86371228204e-09
-3.95206831335e-09
-3.90978372814e-10
-2.00751659289e-09
-4.01061009152e-09
-2.57197089616e-10
-2.11325925384e-09
-4.05238970164e-09
-9.13860901806e-11
-2.17800462621e-09
-4.07748193168e-09
8.50229073562e-11
-2.19990205769e-09
-4.08591767111e-09
2.50952596864e-10
-2.17808464412e-09
-4.07770944798e-09
3.84966531086e-10
-2.11341630569e-09
-4.05284533008e-09
4.67197611203e-10
-2.00774371353e-09
-4.01129369236e-09
4.80547914082e-10
-1.86399785586e-09
-3.9529798394e-09
4.11129738354e-10
-1.686291768e-09
-3.87779003482e-09
2.49606923297e-10
-1.47990731635e-09
-3.78651953843e-09
-1.2500762907e-09
-3.61247372493e-12
-3.69018789222e-09
-1.69414098627e-12
7.2602827032e-11
-1.65497495416e-10
-8.40177978186e-15
-2.77659001813e-12
8.02029089077e-11
-1.82891514732e-10
-3.18007364354e-12
8.7462903787e-11
-1.99191676337e-10
-3.08997897747e-12
9.42033169934e-11
-2.13742993602e-10
-2.54537487188e-12
9.98622138262e-11
-2.2586116604e-10
-1.64646588543e-12
1.04152381334e-10
-2.34981226392e-10
-5.18747383392e-13
1.06863984265e-10
-2.40733515534e-10
6.86650244183e-13
1.07839779829e-10
-2.428055426e-10
1.80895604929e-12
1.06874024667e-10
-2.40737177831e-10
2.6984716623e-12
1.04175671625e-10
-2.34988453859e-10
3.23211055599e-12
9.9901833513e-11
-2.25871790882e-10
3.31201198007e-12
9.42582199508e-11
-2.1375689439e-10
2.89805908569e-12
8.75230279803e-11
-1.9920900925e-10
1.80320230241e-12
8.02548477577e-11
-1.82913460008e-10
7.26362936106e-11
-1.65528351241e-10
7.80101276017e-14
-2.94971128538e-12
2.16387156277e-10
-4.52841387959e-10
-8.27385747458e-14
-4.92461116001e-12
2.37029558964e-10
-5.00184359266e-10
-5.75779978957e-12
2.56513550778e-10
-5.44392044258e-10
-5.61287958649e-12
2.74261698485e-10
-5.83714422078e-10
-4.62454376134e-12
2.89065065233e-10
-6.16367964755e-10
-2.98080719443e-12
3.00206823645e-10
-6.40890972387e-10
-9.19851324402e-13
3.07225919925e-10
-6.56331199187e-10
1.28434328734e-12
3.09752992157e-10
-6.61878267422e-10
3.33587207984e-12
3.07244908556e-10
-6.56341375656e-10
4.96627162173e-12
3.0024984867e-10
-6.40911084077e-10
5.94504799894e-12
2.89137433761e-10
-6.1639758895e-10
6.08951741014e-12
2.74361169308e-10
-5.83753302835e-10
5.25888570496e-12
2.56622119344e-10
-5.44440718816e-10
3.27463851849e-12
2.37121930186e-10
-5.00246215804e-10
2.16444775873e-10
-4.52925802371e-10
2.02282873336e-13
-2.73384974869e-12
3.83051607612e-10
-6.98968823266e-10
-8.8613381427e-14
-4.50621058389e-12
4.16538487489e-10
-7.72858019324e-10
-5.2760107823e-12
4.47843058449e-10
-8.41691471519e-10
-5.10303116399e-12
4.75891756395e-10
-9.02791035815e-10
-4.15475588987e-12
4.99107284179e-10
-9.53445511035e-10
-2.61349772952e-12
5.164599623e-10
-9.91440172487e-10
-6.98962632225e-13
5.27354501665e-10
-1.01532803512e-09
1.34585357783e-12
5.31279032416e-10
-1.02388484732e-09
3.24558757244e-12
5.27378515106e-10
-1.01534520407e-09
4.7623555708e-12
5.1651282895e-10
-9.91474051924e-10
5.68416598042e-12
4.99193430639e-10
-9.53495264301e-10
5.83398646237e-12
4.76006560317e-10
-9.02855924478e-10
5.03983502925e-12
4.47966156532e-10
-8.4177172368e-10
3.22629212593e-12
4.1664169746e-10
-7.72957781953e-10
3.8311731871e-10
-6.99100108992e-10
3.3339379967e-13
-1.38233254149e-12
5.4221644388e-10
-9.08997116478e-10
-1.02164475662e-13
-2.19131637335e-12
5.85359148797e-10
-1.00670049598e-09
-2.55012759442e-12
6.25317672804e-10
-1.09751265403e-09
-2.40846322726e-12
6.60531689399e-10
-1.17797257809e-09
-1.88228568707e-12
6.89401852434e-10
-1.24458105231e-09
-1.07294109644e-12
7.10814532741e-10
-1.29448629897e-09
-8.73807390769e-14
7.24203682283e-10
-1.32581796105e-09
9.64094701285e-13
7.2903191252e-10
-1.3370074294e-09
1.93194540157e-12
7.24228981136e-10
-1.32584165444e-09
2.71043083803e-12
7.10869869583e-10
-1.2945329781e-09
3.19971374016e-12
6.89491455669e-10
-1.24464939677e-09
3.30316270691e-12
6.60649669291e-10
-1.17806120298e-09
2.90056757695e-12
6.25442215582e-10
-1.09762109379e-09
2.02705627101e-12
5.85459952467e-10
-1.00683263673e-09
5.42272177117e-10
-9.09165492585e-10
4.47829499629e-13
7.78792077914e-13
6.74104942166e-10
-1.08403491588e-09
-1.16122211131e-13
1.39655605549e-12
7.22461888806e-10
-1.20294111422e-09
1.65282269339e-12
7.66771560948e-10
-1.313202077e-09
1.70252402877e-12
8.05120688689e-10
-1.4107159547e-09
1.54263196297e-12
8.36198030431e-10
-1.49132864368e-09
1.20999585123e-12
8.59038271296e-10
-1.55165944045e-09
7.7026703691e-13
8.73254039203e-10
-1.58948126698e-09
3.03315986924e-13
8.78388772539e-10
-1.60294630694e-09
-1.55619025375e-13
8.73276754803e-10
-1.58951117072e-09
-5.22902955022e-13
8.59087510547e-10
-1.55171814143e-09
-7.27218414733e-13
8.36275888451e-10
-1.4914142121e-09
-7.27836470047e-13
8.05221222072e-10
-1.41082615407e-09
-5.32136197999e-13
7.66874148859e-10
-1.31333536463e-09
1.43576291822e-15
7.22541098061e-10
-1.20310047737e-09
6.74140028324e-10
-1.0842321472e-09
5.50435876475e-13
3.4526720797e-12
7.68192256505e-10
-1.22526009136e-09
-1.26315205124e-13
5.73131034124e-12
8.17341426974e-10
-1.36288187927e-09
6.69541095837e-12
8.61784206026e-10
-1.49018811561e-09
6.59909659645e-12
8.99482753899e-10
-1.60256989856e-09
5.59277897921e-12
9.29607956897e-10
-1.69534307339e-09
3.8887522732e-12
9.5151038552e-10
-1.76469757718e-09
1.75590215461e-12
9.65067850332e-10
-1.80811055529e-09
-5.09480002405e-13
9.6997756592e-10
-1.82351491101e-09
-2.66250357235e-12
9.65086785782e-10
-1.80814618107e-09
-4.40427721253e-12
9.51551216474e-10
-1.76476732643e-09
-5.46136596327e-12
9.29672231032e-10
-1.69544434103e-09
-5.6189625713e-12
8.9956438664e-10
-1.60269939688e-09
-4.7303309342e-12
8.61864349234e-10
-1.49034291032e-09
-2.55291112605e-12
8.17397298121e-10
-1.36306370638e-09
7.68201101496e-10
-1.22547966782e-09
6.431328735e-13
6.37479717673e-12
8.21258513487e-10
-1.33391162377e-09
-1.32235654534e-13
1.03805515202e-11
8.67613171639e-10
-1.48789080043e-09
1.20670658868e-11
9.08816245939e-10
-1.6299731987e-09
1.17843195723e-11
9.42966821442e-10
-1.75516605507e-09
9.85896019743e-12
9.69792695781e-10
-1.85836964778e-09
6.69601955834e-12
9.89041103273e-10
-1.9354347989e-09
2.77758998311e-12
1.00087750798e-09
-1.98359767673e-09
-1.37997738672e-12
1.00518027559e-09
-2.00062672773e-09
-5.31929212549e-12
1.00089170742e-09
-1.98363861459e-09
-8.52248312843e-12
9.89071533175e-10
-1.93551477299e-09
-1.05044039162e-11
9.69840055075e-10
-1.85848525093e-09
-1.08586372433e-11
9.43025413632e-10
-1.75531277466e-09
-9.26149096998e-12
9.0887069016e-10
-1.63014648735e-09
-5.37237918696e-12
8.67644763126e-10
-1.48809102268e-09
8.2124638543e-10
-1.33414829356e-09
7.26454370835e-13
9.33117119693e-12
8.35265714148e-10
-1.41127520884e-09
-1.33907858931e-13
1.50157985332e-11
8.76410112197e-10
-1.57938448193e-09
1.73883146895e-11
9.12149429066e-10
-1.73411268811e-09
1.68958207605e-11
9.40969215727e-10
-1.87019394776e-09
1.40474433538e-11
9.63127207159e-10
-1.98221526424e-09
9.44211898862e-12
9.78764776356e-10
-2.06576894353e-09
3.76995650223e-12
9.883021827e-10
-2.11789916612e-09
-2.24304717366e-12
9.91787997422e-10
-2.13626010387e-09
-7.936718778e-12
9.88312765571e-10
-2.11794503471e-09
-1.25844609704e-11
9.78787542779e-10
-2.06585834373e-09
-1.54945406249e-11
9.63162515255e-10
-1.98234390583e-09
-1.60672683641e-11
9.41012405481e-10
-1.87035596809e-09
-1.37963118224e-11
9.12187033548e-10
-1.73430180192e-09
-8.24109124428e-12
8.76427013261e-10
-1.57959971106e-09
8.35239222163e-10
-1.41152474012e-09
8.00069898218e-13
1.2152702504e-11
8.1539382892e-10
-1.45866324635e-09
-1.32866663428e-13
1.93985876627e-11
8.50102828351e-10
-1.63880427967e-09
2.23955512764e-11
8.79296600347e-10
-1.80418806716e-09
2.16906313521e-11
9.0205312129e-10
-1.9493709149e-09
1.79661416104e-11
9.19066949125e-10
-2.06871461076e-09
1.2005181996e-11
9.30814617898e-10
-2.15762423801e-09
4.69132477145e-12
9.37902483485e-10
-2.21299636176e-09
-3.05693297288e-12
9.40512904095e-10
-2.23241746276e-09
-1.03927768023e-11
9.37910527698e-10
-2.21304678165e-09
-1.63979424606e-11
9.30832021199e-10
-2.15772229022e-09
-2.01883630345e-11
9.19094038114e-10
-2.06885507933e-09
-2.09810234203e-11
9.02086494647e-10
-1.94954651922e-09
-1.80957275571e-11
8.79325777445e-10
-1.80439073889e-09
-1.0990276381e-11
8.50115670307e-10
-1.63903181217e-09
8.15369252271e-10
-1.45892230087e-09
8.64415280186e-13
1.47148545895e-11
7.68447990155e-10
-1.47739322488e-09
-1.29168198455e-13
2.33662423012e-11
7.96473755225e-10
-1.66759260121e-09
2.69205108715e-11
8.18975101962e-10
-1.84178398936e-09
2.60211768544e-11
8.35764421945e-10
-1.9944187803e-09
2.1502923064e-11
8.47849994143e-10
-2.11970495399e-09
1.43159780686e-11
8.55945484138e-10
-2.21292388198e-09
5.51839955051e-12
8.60755111672e-10
-2.27086643147e-09
-3.79784153332e-12
8.62547092136e-10
-2.29109583384e-09
-1.26178206551e-11
8.60762695624e-10
-2.27092101746e-09
-1.98504554809e-11
8.55961837325e-10
-2.21302982917e-09
-2.44379364194e-11
8.47876075237e-10
-2.11985612854e-09
-2.54307521168e-11
8.35797890047e-10
-1.99460647651e-09
-2.19960529834e-11
8.19007850194e-10
-1.84199836804e-09
-1.34932049138e-11
7.96496274346e-10
-1.66783037653e-09
7.68438718899e-10
-1.47765927167e-09
9.19227282605e-13
1.69322426788e-11
7.0166297173e-10
-1.46876749311e-09
-1.243541474e-13
2.68202267473e-11
7.23437098722e-10
-1.66717660577e-09
3.08753222894e-11
7.39752860037e-10
-1.84847929196e-09
2.98191235442e-11
7.51235190696e-10
-2.00705744501e-09
2.46101447296e-11
7.59070784568e-10
-2.13701884354e-09
1.63463908013e-11
7.64087238601e-10
-2.23358118479e-09
6.24246305323e-12
7.66996969104e-10
-2.29347248575e-09
-4.45573815593e-12
7.68100618468e-10
-2.31427665601e-09
-1.45825324591e-11
7.67006059222e-10
-2.29353082908e-09
-2.2893110111e-11
7.64106840684e-10
-2.233694261e-09
-2.81739657457e-11
7.59102149736e-10
-2.13717967343e-09
-2.93278644848e-11
7.51277951332e-10
-2.00725595427e-09
-2.53979534506e-11
7.39801227651e-10
-1.84870390266e-09
-1.56645118855e-11
7.23483596958e-10
-1.66742307895e-09
7.01688047497e-10
-1.46903868707e-09
9.65495142833e-13
1.87556552822e-11
6.21928880243e-10
-1.4340549215e-09
-1.17864719202e-13
2.97276478959e-11
6.38224114125e-10
-1.63896840089e-09
3.42529287882e-11
6.49232348081e-10
-1.8258627801e-09
3.30897503565e-11
6.56397765162e-10
-1.9890221024e-09
2.72948256915e-11
6.60924053126e-10
-2.12249767697e-09
1.81020101976e-11
6.63617367262e-10
-2.22151013239e-09
6.86565965666e-12
6.65110500535e-10
-2.28277272821e-09
-5.03134030005e-12
6.65695691886e-10
-2.30393457151e-09
-1.62910683851e-11
6.65123375741e-10
-2.28283436308e-09
-2.5531966423e-11
6.63644630638e-10
-2.22162949685e-09
-3.14006077672e-11
6.60968265268e-10
-2.12266710707e-09
-3.26643665463e-11
6.56459560683e-10
-1.98923029514e-09
-2.82678263494e-11
6.49308074984e-10
-1.82609642071e-09
-1.74534000173e-11
6.38308432788e-10
-1.63922225055e-09
6.22002465306e-10
-1.43432977333e-09
1.00347935922e-12
2.01902933821e-11
5.35299555461e-10
-1.37447346149e-09
-1.10764699403e-13
3.21665556458e-11
5.46909375268e-10
-1.58440400884e-09
3.71588337333e-11
5.53673930068e-10
-1.77559013466e-09
3.59232629088e-11
5.57688346384e-10
-1.94210730023e-09
2.9620560684e-11
5.59957523992e-10
-2.07802309909e-09
1.96182665589e-11
5.61136013581e-10
-2.17865048307e-09
7.40069084164e-12
5.61724905282e-10
-2.24074328242e-09
-5.53586324008e-12
5.61968577283e-10
-2.26205975329e-09
-1.777758377e-11
5.61744164025e-10
-2.24080760121e-09
-2.7828946345e-11
5.61176398611e-10
-2.17877507395e-09
-3.42071659154e-11
5.6002144139e-10
-2.0781998911e-09
-3.5545143121e-11
5.57778473777e-10
-1.94232405071e-09
-3.06830914769e-11
5.53789289866e-10
-1.77583174566e-09
-1.88657592375e-11
5.47045505894e-10
-1.58466365495e-09
5.35438991912e-10
-1.37474971437e-09
1.03358715398e-12
2.13797582308e-11
4.46678764844e-10
-1.29117468821e-09
-1.00516650922e-13
3.43928986824e-11
4.54227558765e-10
-1.50508758977e-09
3.98244195411e-11
4.57975932476e-10
-1.69949967922e-09
3.84826273469e-11
4.60082170959e-10
-1.86822832179e-09
3.169037366e-11
4.61129413673e-10
-2.00555468366e-09
2.09556047969e-11
4.61559898599e-10
-2.10699823706e-09
7.86579186565e-12
4.61716010323e-10
-2.16940704586e-09
-5.98592372221e-12
4.61788020216e-10
-2.19068653638e-09
-1.91005539912e-11
4.6174470887e-10
-2.16947314226e-09
-2.98858774899e-11
4.61619300775e-10
-2.10712645284e-09
-3.67545744086e-11
4.61222418474e-10
-2.00573697537e-09
-3.819927325e-11
4.60211642133e-10
-1.86845212951e-09
-3.28983674366e-11
4.58141042731e-10
-1.69974831687e-09
-2.00432887589e-11
4.5442835172e-10
-1.5053510645e-09
4.46896559435e-10
-1.29144806283e-09
1.05819333156e-12
2.22744576081e-11
-1.18556219881e-09
-8.46209481698e-14
3.60310869481e-10
3.66894597754e-11
-1.40345731469e-09
3.63705276552e-10
4.24661014802e-11
-1.5998526893e-09
3.66074208532e-10
4.0931716672e-11
-1.76951804039e-09
3.67413463804e-10
3.3638819795e-11
-1.90717422186e-09
3.68070811061e-10
2.22031796479e-11
-2.00862499142e-09
3.68352297831e-10
8.29650220312e-12
-2.07083981449e-09
3.68451371616e-10
-6.41400509691e-12
-2.09189522062e-09
3.68484642374e-10
-2.0345960059e-11
-2.07090613216e-09
3.68493822216e-10
-3.18333012984e-11
-2.00875389456e-09
3.68437940079e-10
-3.9203889908e-11
-1.90735816991e-09
3.68202369843e-10
-4.08426855612e-11
-1.76974518151e-09
3.67592683455e-10
-3.5195429652e-11
-1.60010557324e-09
3.66302800229e-10
-2.09360313292e-11
-1.40372527316e-09
3.6398233161e-10
-1.18582036384e-09
1.08003999484e-12
3.6062044505e-10
1.04635837668e-12
-1.8138192227e-11
-1.48409735577e-10
-2.85104325813e-14
1.593915801e-12
-2.02277739435e-11
-1.63249771813e-10
1.80070659164e-12
-2.23936469627e-11
-1.770472316e-10
1.73108617116e-12
-2.44125204359e-11
-1.89297743735e-10
1.41887178971e-12
-2.61303308299e-11
-1.99455652303e-10
9.18215865273e-13
-2.74378798458e-11
-2.07076209407e-10
2.97096943494e-13
-2.82623434642e-11
-2.11875601781e-10
-3.65767982241e-13
-2.85528420591e-11
-2.13607822155e-10
-9.82441344921e-13
-2.82531704021e-11
-2.11880012958e-10
-1.47423306707e-12
-2.7421436371e-11
-2.07084917455e-10
-1.77476004793e-12
-2.61106982255e-11
-1.99468457991e-10
-1.83181728406e-12
-2.43925617591e-11
-1.89314429399e-10
-1.60946765459e-12
-2.23701634287e-11
-1.77067759297e-10
-1.04843845836e-12
-2.02056430269e-11
-1.63275135582e-10
-1.81192425898e-11
-1.48444093179e-10
-1.93796096555e-14
2.37163461732e-12
-4.34640787815e-11
-4.29883821957e-10
-5.82209694413e-14
3.75751675605e-12
-4.79823125073e-11
-4.73886221448e-10
4.32953460524e-12
-5.25935343864e-11
-5.14839235654e-10
4.19753038868e-12
-5.68678346081e-11
-5.51194975216e-10
3.45584803285e-12
-6.04802436288e-11
-5.81339339047e-10
2.24191069266e-12
-6.32149578807e-11
-6.03953894567e-10
7.27973800146e-13
-6.49355934178e-11
-6.18184756587e-10
-8.89226782459e-13
-6.55426468549e-11
-6.23300452634e-10
-2.39217006798e-12
-6.49144740969e-11
-6.18198026078e-10
-3.58501154705e-12
-6.31756855132e-11
-6.03980053726e-10
-4.30017381879e-12
-6.04287014764e-11
-5.81377722517e-10
-4.40467238758e-12
-5.6808404309e-11
-5.51244818924e-10
-3.80137719815e-12
-5.25248410774e-11
-5.14900259409e-10
-2.38557392119e-12
-4.79168551492e-11
-4.73960932429e-10
-4.34132373015e-11
-4.29980915346e-10
-4.56795754806e-14
3.11387259836e-12
-6.71258811621e-11
-6.78394332423e-10
-7.2450378394e-14
5.03502242869e-12
-7.35454784908e-11
-7.49267685599e-10
5.86701454797e-12
-8.00039892484e-11
-8.15165552879e-10
5.71682484618e-12
-8.59630923927e-11
-8.73597979387e-10
4.72016560669e-12
-9.09763258502e-11
-9.22003389835e-10
3.0685998199e-12
-9.47557810975e-11
-9.58291925066e-10
1.0006577037e-12
-9.71287459013e-11
-9.81100874091e-10
-1.21099884786e-12
-9.79666455735e-11
-9.89273885743e-10
-3.26594530469e-12
-9.71003974336e-11
-9.81122398319e-10
-4.89262283557e-12
-9.4702894266e-11
-9.5833426259e-10
-5.85685414546e-12
-9.09062787507e-11
-9.22065288915e-10
-5.97137248827e-12
-8.58825093185e-11
-8.73677972537e-10
-5.10036411103e-12
-7.99145863532e-11
-8.15262840575e-10
-3.14124706478e-12
-7.34575759372e-11
-7.49385345825e-10
-6.7052638048e-11
-6.78543584507e-10
-6.68326679424e-14
3.42621177674e-12
-8.80399359666e-11
-8.91474603353e-10
-7.63515439379e-14
5.62200892729e-12
-9.59122611704e-11
-9.8658084154e-10
6.61399427744e-12
-1.03693044631e-10
-1.07487054284e-09
6.4767053402e-12
-1.1080333823e-10
-1.15304799225e-09
5.3616996253e-12
-1.16751341403e-10
-1.21773937016e-09
3.49031274809e-12
-1.21216032884e-10
-1.26619519132e-09
1.13793870637e-12
-1.24013171028e-10
-1.29661256573e-09
-1.38068412632e-12
-1.25000829259e-10
-1.30747773421e-09
-3.71929693513e-12
-1.2397913368e-10
-1.29664164055e-09
-5.56448120846e-12
-1.21151987992e-10
-1.26625228655e-09
-6.64470533378e-12
-1.16664417879e-10
-1.21782260726e-09
-6.74267072836e-12
-1.10701044227e-10
-1.15315508257e-09
-5.70800571708e-12
-1.03580082995e-10
-1.07499982536e-09
-3.4704921204e-12
-9.58014066153e-11
-9.86734988243e-10
-8.79467377748e-11
-8.9166525839e-10
-8.43452805507e-14
3.41500247832e-12
-1.05391512055e-10
-1.0700573522e-09
-7.55780850135e-14
5.67177885505e-12
-1.14286975556e-10
-1.18685830705e-09
6.72794119171e-12
-1.22907785892e-10
-1.29508092292e-09
6.61809641198e-12
-1.3068693447e-10
-1.39076078294e-09
5.49106297556e-12