/*--------------------------------*- C++ -*----------------------------------*\
  =========                 |
  \\      /  F ield         | OpenFOAM: The Open Source CFD Toolbox
   \\    /   O peration     | Website:  https://openfoam.org
    \\  /    A nd           | Version:  7
     \\/     M anipulation  |
\*---------------------------------------------------------------------------*/
FoamFile
{
    version     2.0;
    format      ascii;
    class       surfaceScalarField;
    location    "2.12";
    object      phi;
}
// * * * * * * * * * * * * * * * * * * * * * * * * * * * * * * * * * * * * * //

dimensions      [0 3 -1 0 0 0 0];

internalField   nonuniform List<scalar> 
65775
(
-4.52427310106e-11
-8.56289907068e-09
1.37621857184e-11
-1.89950404423e-12
-8.21428280862e-11
-9.02221228455e-09
1.62238822376e-11
-9.62458693577e-11
-9.44548990006e-09
1.56864608129e-11
-9.16344778805e-11
-9.80592314389e-09
1.29809395874e-11
-7.34161681242e-11
-1.00936701503e-08
9.40524865265e-12
-4.52975802177e-11
-1.0303990913e-08
6.06971188549e-12
-1.11138335264e-11
-1.04356749686e-08
3.77625172767e-12
2.51532081742e-11
-1.04844888766e-08
3.02253342289e-12
5.91773758943e-11
-1.04347175772e-08
4.0356502274e-12
8.70033171597e-11
-1.03021051607e-08
6.58266841654e-12
1.04878611924e-10
-1.00909373675e-08
1.01592195181e-11
1.09024300666e-10
-9.80272180559e-09
1.39571135437e-11
9.43835295325e-11
-9.44209539853e-09
1.68611450667e-11
5.65606882194e-11
-9.0193003731e-09
1.75658765517e-11
-8.5610095985e-09
1.52128737569e-11
7.81835670893e-12
-1.43585863924e-10
-1.59653731283e-08
-6.40209482907e-10
-4.914988312e-12
-2.5391310934e-10
-1.68056900056e-08
-7.42737940567e-10
-3.00752977005e-10
-1.75807777228e-08
-8.53049314581e-10
-2.92181598141e-10
-1.8229517429e-08
-9.61661808485e-10
-2.38095204993e-10
-1.87406510745e-08
-1.05840965085e-09
-1.49703025415e-10
-1.91104700402e-08
-1.13447012741e-09
-3.97739466948e-11
-1.93407664272e-08
-1.18333346012e-09
7.73907848847e-11
-1.94259897207e-08
-1.20048751818e-09
1.86968408583e-10
-1.93386744557e-08
-1.18263422357e-09
2.74714907122e-10
-1.91063733331e-08
-1.13307351397e-09
3.2796238734e-10
-1.87347551164e-08
-1.05634503609e-09
3.35417058509e-10
-1.82224492852e-08
-9.58974424497e-10
2.87075149664e-10
-1.75732765654e-08
-8.49795739821e-10
1.7416367692e-10
-1.67988620907e-08
-7.38999178977e-10
-1.59604028374e-08
-6.36144626109e-10
2.15994081172e-11
-2.44392324675e-10
-2.17896672118e-08
-1.70895179892e-09
-6.63958713268e-12
-4.18139164409e-10
-2.28870589226e-08
-1.97250450878e-09
-4.97336743939e-10
-2.38822831628e-08
-2.24286697062e-09
-4.87849777072e-10
-2.47015978887e-08
-2.4996755311e-09
-4.01555646085e-10
-2.53384030959e-08
-2.722839221e-09
-2.55859508661e-10
-2.57942842764e-08
-2.89544996056e-09
-7.25090897551e-11
-2.60767770267e-08
-3.00536048936e-09
1.23504108448e-10
-2.61815618723e-08
-3.044020799e-09
3.06525415796e-10
-2.60740459972e-08
-3.0044118192e-09
4.51608354339e-10
-2.57889702306e-08
-2.89354715068e-09
5.37061984212e-10
-2.53307928243e-08
-2.72000887233e-09
5.4536220301e-10
-2.46923991513e-08
-2.49595938232e-09
4.64354534115e-10
-2.38724757524e-08
-2.23832573231e-09
2.8729979685e-10
-2.28777725823e-08
-1.96722633907e-09
-2.17824223541e-08
-1.7031288302e-09
3.09203623292e-11
-3.3852175317e-10
-2.59164032811e-08
-2.90504143449e-09
-7.19369686251e-12
-5.6784180773e-10
-2.71467726929e-08
-3.32965867515e-09
-6.76486516478e-10
-2.82330557704e-08
-3.75257133403e-09
-6.67024523462e-10
-2.91135867024e-08
-4.14529646848e-09
-5.52555752003e-10
-2.97892810904e-08
-4.48092230806e-09
-3.55586089285e-10
-3.02683724302e-08
-4.73750815314e-09
-1.06069402144e-10
-3.05640980914e-08
-4.899788624e-09
1.61164818764e-10
-3.06743111969e-08
-4.95687042937e-09
4.10481807783e-10
-3.05611462852e-08
-4.89877225079e-09
6.07069923359e-10
-3.02626551564e-08
-4.7354623449e-09
7.20977482678e-10
-2.97811377842e-08
-4.47785821691e-09
7.29538669048e-10
-2.91037123855e-08
-4.14123282745e-09
6.19290296054e-10
-2.82224400869e-08
-3.74754325349e-09
3.86758126253e-10
-2.71364241411e-08
-3.32372751618e-09
-2.59076871707e-08
-2.89838543639e-09
3.54993064824e-11
-4.2085069551e-10
-2.84447301271e-08
-4.01449108116e-09
-6.95619129078e-12
-7.00368470094e-10
-2.970874524e-08
-4.56833878543e-09
-8.34981754759e-10
-3.0791560516e-08
-5.10739027651e-09
-8.25502661357e-10
-3.16570037416e-08
-5.59956327011e-09
-6.86423848084e-10
-3.23138360577e-08
-6.01499714804e-09
-4.44771216697e-10
-3.27758974382e-08
-6.32986852975e-09
-1.3768324777e-10
-3.30603589904e-08
-6.52801682033e-09
1.91486647822e-10
-3.31669765482e-08
-6.59769501493e-09
4.98485765903e-10
-3.30574524643e-08
-6.52703124871e-09
7.39954360228e-10
-3.27702956818e-08
-6.327879984e-09
8.78723959623e-10
-3.23058964909e-08
-6.01200507608e-09
8.87593717618e-10
-3.1647379136e-08
-5.59556678423e-09
7.51700286907e-10
-3.07811321116e-08
-5.10239832859e-09
4.69415906271e-10
-2.96984050222e-08
-4.56237907621e-09
-2.84354114278e-08
-4.00770289094e-09
3.6486961251e-11
-4.90176054354e-10
-2.95975521012e-08
-4.91446128785e-09
-6.32383617941e-12
-8.15680560511e-10
-3.08253186297e-08
-5.55897929465e-09
-9.73082727756e-10
-3.18477668278e-08
-6.17544280475e-09
-9.63339772316e-10
-3.26544681165e-08
-6.73155713249e-09
-8.02710680887e-10
-3.32611634764e-08
-7.19700537657e-09
-5.22412997585e-10
-3.36853543783e-08
-7.547773513e-09
-1.65798639099e-10
-3.39460451416e-08
-7.76777448836e-09
2.1654821685e-10
-3.40442780465e-08
-7.84509119327e-09
5.73109072247e-10
-3.39433320866e-08
-7.76684300743e-09
8.53281466904e-10
-3.36801466436e-08
-7.54589420715e-09
1.01366960565e-09
-3.32538231314e-08
-7.19417656847e-09
1.02289923614e-09
-3.26455927399e-08
-6.72777326255e-09
8.64370031372e-10
-3.18381219117e-08
-6.17070249132e-09
5.36485144951e-10
-3.08156117459e-08
-5.55328953147e-09
-2.95882341671e-08
-4.90792475236e-09
3.54713537357e-11
-5.48146559634e-10
-2.96345264892e-08
-5.56625539113e-09
-5.58779009361e-12
-9.15451640502e-10
-3.07799959616e-08
-6.27031021684e-09
-1.09290868378e-09
-3.17125706524e-08
-6.93546419918e-09
-1.08271590839e-09
-3.24390929688e-08
-7.5307167587e-09
-9.0315029341e-10
-3.29814646601e-08
-8.02627163267e-09
-5.89334518289e-10
-3.33589049132e-08
-8.39843168018e-09
-1.90018356529e-10
-3.35905483638e-08
-8.63133589658e-09
2.38075994313e-10
-3.36781858419e-08
-8.71308709192e-09
6.37302462065e-10
-3.35880919896e-08
-8.63044499466e-09
9.50914811446e-10
-3.33542070868e-08
-8.39663898973e-09
1.13012065913e-09
-3.29748762509e-08
-8.02358368555e-09
1.1396692825e-09
-3.24311524975e-08
-7.52713762954e-09
9.61010874328e-10
-3.17039238658e-08
-6.9309996684e-09
5.91464235941e-10
-3.0771222817e-08
-6.26496447288e-09
-2.96256085913e-08
-5.56010908647e-09
3.37336272595e-11
-5.9755548311e-10
-2.88007860696e-08
-5.98148939931e-09
-4.89029066787e-12
-1.00216155768e-09
-2.98347666609e-08
-6.72425356237e-09
-1.19724191798e-09
-3.06639216901e-08
-7.42006692048e-09
-1.18644330778e-09
-3.13015279357e-08
-8.03948470796e-09
-9.90116532027e-10
-3.17747796702e-08
-8.55341005442e-09
-6.47007193221e-10
-3.21029660943e-08
-8.93851486392e-09
-2.10598063655e-10
-3.23041015227e-08
-9.17910416387e-09
2.57141999169e-10
-3.23803431492e-08
-9.26337508268e-09
6.93377325688e-10
-3.23019136587e-08
-9.17823291344e-09
1.03611268243e-09
-3.2098793805e-08
-8.93676932649e-09
1.2318317586e-09
-3.17689454268e-08
-8.55081026117e-09
1.24169195584e-09
-3.12945097614e-08
-8.03605305124e-09
1.04514456456e-09
-3.06562545906e-08
-7.41582809416e-09
6.38194023957e-10
-2.9826923439e-08
-6.71922235254e-09
-2.87923742764e-08
-5.97573963148e-09
3.20710987866e-11
-6.41001514549e-10
-2.73071881152e-08
-6.1917447067e-09
-4.28998869438e-12
-1.07826611624e-09
-2.82122564497e-08
-6.96030371541e-09
-1.28876032923e-09
-2.89328591219e-08
-7.67593319757e-09
-1.27712241788e-09
-2.94797991929e-08
-8.31054273932e-09
-1.06576785205e-09
-2.9884258739e-08
-8.83571995337e-09
-6.96838673456e-10
-3.01641488599e-08
-9.22855317227e-09
-2.28002740203e-10
-3.03353964449e-08
-9.47353517661e-09
2.74293335202e-10
-3.04002477266e-08
-9.55908145085e-09
7.42844981065e-10
-3.03334582264e-08
-9.47266850372e-09
1.11118080737e-09
-3.01604554601e-08
-9.22682529827e-09
1.32160856815e-09
-2.98790935149e-08
-8.83316611176e-09
1.33192350884e-09
-2.94735663552e-08
-8.30720691866e-09
1.11957889264e-09
-2.89259963234e-08
-7.67186428242e-09
6.79705742733e-10
-2.82051311803e-08
-6.95553381623e-09
-2.72992403161e-08
-6.18635150829e-09
3.08396476489e-11
-6.80285370044e-10
-2.53288198362e-08
-6.23106087801e-09
-3.79741321683e-12
-1.14582049217e-09
-2.60960268331e-08
-7.01725753116e-09
-1.3697507256e-09
-2.67075170488e-08
-7.74573718069e-09
-1.35687205919e-09
-2.71664639235e-08
-8.38952067009e-09
-1.13177571933e-09
-2.75057754864e-08
-8.92093717894e-09
-7.39910937265e-10
-2.77405342699e-08
-9.31767267404e-09
-2.42669880211e-10
-2.78838490861e-08
-9.56456191135e-09
2.89754339146e-10
-2.7937850824e-08
-9.65042911456e-09
7.86589007869e-10
-2.78821168379e-08
-9.56369350902e-09
1.17761963901e-09
-2.77372259374e-08
-9.31594937341e-09
1.401442068e-09
-2.75011257554e-08
-8.91840877593e-09
1.41257455302e-09
-2.71607987849e-08
-8.38625249732e-09
1.18635896604e-09
-2.67011775486e-08
-7.74180307624e-09
7.17848313649e-10
-2.60892878232e-08
-7.01270857681e-09
-2.53210507944e-08
-6.22598382909e-09
3.01405408196e-11
-7.16318227083e-10
-2.30103150332e-08
-6.12891801009e-09
-3.39876097202e-12
-1.20654913908e-09
-2.36367371322e-08
-6.92716417458e-09
-1.44223396442e-09
-2.41417141208e-08
-7.66346281598e-09
-1.42742141737e-09
-2.45190166915e-08
-8.31175459011e-09
-1.18936411898e-09
-2.47994548862e-08
-8.84529364053e-09
-7.76971160993e-10
-2.4993871863e-08
-9.24267261544e-09
-2.54932306307e-10
-2.51121460795e-08
-9.4893147396e-09
3.03581139553e-10
-2.5156229199e-08
-9.57467727235e-09
8.25087975926e-10
-2.51105536691e-08
-9.48844577335e-09
1.23640036615e-09
-2.4990816188e-08
-9.24095506283e-09
1.47283154422e-09
-2.47951170629e-08
-8.84278985166e-09
1.48547018569e-09
-2.45136424051e-08
-8.30854903944e-09
1.24705108313e-09
-2.41355548878e-08
-7.65965277541e-09
7.53443060358e-10
-2.36299761912e-08
-6.92281876043e-09
-2.30023652771e-08
-6.12413379868e-09
2.99360466947e-11
-7.49337080443e-10
-2.04724288884e-08
-5.90891533601e-09
-3.05956781773e-12
-1.26238440099e-09
-2.09582445709e-08
-6.71512825333e-09
-1.50833708278e-09
-2.13628388867e-08
-7.45533039358e-09
-1.49024681813e-09
-2.16686490272e-08
-8.10418852197e-09
-1.23936950655e-09
-2.18986453511e-08
-8.63620350536e-09
-8.08455297849e-10
-2.20585588598e-08
-9.03128110809e-09
-2.65003150541e-10
-2.21552729977e-08
-9.27572131034e-09
3.15735870446e-10
-2.21905977066e-08
-9.35983773605e-09
8.58529330275e-10
-2.21537385224e-08
-9.27485830611e-09
1.28811995427e-09
-2.20555874279e-08
-9.02958075829e-09
1.53702528411e-09
-2.18943675164e-08
-8.63373783954e-09
1.55252420534e-09
-2.16632415689e-08
-8.10105780958e-09
1.30339674756e-09
-2.13564713744e-08
-7.45165302396e-09
7.86559423693e-10
-2.09510277234e-08
-6.71099060507e-09
-2.04638954051e-08
-5.90442174101e-09
3.01317242436e-11
-7.80698496846e-10
-1.78160389436e-08
-5.5896609696e-09
-2.7710937917e-12
-1.31739894919e-09
-1.81617943595e-08
-6.40103489852e-09
-1.57083565863e-09
-1.8478806943e-08
-7.14210388821e-09
-1.54646817104e-09
-1.87269279098e-08
-7.78809173376e-09
-1.28205701087e-09
-1.8915894885e-08
-8.31529429711e-09
-8.34400622308e-10
-1.9047359333e-08
-8.70540802336e-09
-2.7292930295e-10
-1.91260544361e-08
-8.94589020544e-09
3.26054403208e-10
-1.91539240225e-08
-9.02810304762e-09
8.86744803716e-10
-1.91244726304e-08
-8.94504343795e-09
1.33284204128e-09
-1.90442646988e-08
-8.70374351855e-09
1.59494408636e-09
-1.8911390066e-08
-8.31289017583e-09
1.61632043534e-09
-1.8721120757e-08
-7.78505958042e-09
1.35928262388e-09
-1.84718040727e-08
-7.13858043417e-09
8.1838579347e-10
-1.81536295622e-08
-6.39712595312e-09
-1.78064160146e-08
-5.58547910934e-09
3.05601157999e-11
-8.21932114737e-10
-1.51156004779e-08
-5.18606637256e-09
-2.53290306492e-12
-1.38259215727e-09
-1.53325328645e-08
-6.00150710852e-09
-1.63459556615e-09
-1.55863657415e-08
-6.74107426791e-09
-1.59774284188e-09
-1.57910247735e-08
-7.3810672998e-09
-1.31802336359e-09
-1.59469342205e-08
-7.90049908854e-09
-8.55056975371e-10
-1.60550302202e-08
-8.28331211933e-09
-2.78877532921e-10
-1.61190049001e-08
-8.51832382786e-09
3.3453094732e-10
-1.61406239237e-08
-8.59807520901e-09
9.09816377774e-10
-1.61172504963e-08
-8.51750652417e-09
1.37099065981e-09
-1.60515797918e-08
-8.2817077955e-09
1.64808781972e-09
-1.59418515179e-08
-7.89818781311e-09
1.68156644414e-09
-1.57844008414e-08
-7.37816587098e-09
1.42556632618e-09
-1.5578271227e-08
-6.73773292932e-09
8.60333703333e-10
-1.53229210648e-08
-5.99785606002e-09
-1.51043410753e-08
-5.18223908392e-09
3.12381519996e-11
-9.15685715232e-10
-4.70919777245e-09
-2.26928070268e-12
-1.23918670336e-08
-1.48200301141e-09
-5.53052248532e-09
-1.25602502146e-08
-1.71685978462e-09
-6.26602323518e-09
-1.2775289939e-08
-1.65948573524e-09
-6.8973225358e-09
-1.29457178489e-08
-1.36029818747e-09
-7.4067846048e-09
-1.30748248137e-08
-8.7926233626e-10
-7.78070760834e-09
-1.31649260427e-08
-2.85954763832e-10
-8.00926472701e-09
-1.32179773954e-08
3.44148418235e-10
-8.08619495503e-09
-1.32349003634e-08
9.36448700297e-10
-8.00849293053e-09
-1.32159078272e-08
1.41548287714e-09
-7.77919378393e-09
-1.31608372854e-08
1.71173454788e-09
-7.40460719091e-09
-1.30687816405e-08
1.76535974445e-09
-6.89459632793e-09
-1.29378019331e-08
1.52610733184e-09
-6.26290375296e-09
-1.27655659579e-08
9.54877957393e-10
-5.52714332248e-09
-1.25486870886e-08
-4.70581021658e-09
3.20385743697e-11
-1.23784029396e-08
-1.12508729455e-11
8.32412450659e-10
-8.07098386117e-10
1.03568450213e-12
-1.44576998606e-11
9.18696782899e-10
-8.96744207195e-10
-1.37996979085e-11
1.00124042581e-09
-9.82716360704e-10
-1.21166147672e-11
1.07550155666e-09
-1.06073923788e-09
-9.58023728166e-12
1.13654353447e-09
-1.12649582183e-09
-6.47631842574e-12
1.18173865913e-09
-1.17638758376e-09
-2.9277632114e-12
1.20982698153e-09
-1.20797085548e-09
7.82899882306e-13
1.21967560212e-09
-1.21929955595e-09
4.2791866776e-12
1.20918543988e-09
-1.20794602732e-09
7.22921695958e-12
1.18044562117e-09
-1.17633152399e-09
9.43514612323e-12
1.13470222656e-09
-1.12640648901e-09
1.075263291e-11
1.07351810622e-09
-1.06061263346e-09
1.10444609261e-11
9.99327113526e-10
-9.82548661759e-10
7.85056467909e-12
9.17466054673e-10
-8.96529925278e-10
8.31905790188e-10
-8.06828189298e-10
-1.86559920283e-12
-1.02105528505e-11
2.28802422871e-09
-2.08579007471e-09
2.55697132501e-12
-7.0152075428e-12
2.48816186094e-09
-2.31118686776e-09
-1.23083558927e-12
2.67419651184e-09
-2.52635962324e-09
2.65667559381e-12
2.83624032249e-09
-2.72082854237e-09
3.62758936371e-12
2.96609033098e-09
-2.88419749863e-09
1.97250603662e-12
3.06032897077e-09
-3.00787462498e-09
-1.32118435386e-12
3.11827268222e-09
-3.08605385447e-09
-5.16274145865e-12
3.13870562369e-09
-3.11405960135e-09
-8.58994920359e-12
3.11702566561e-09
-3.0859681334e-09
-1.06064916999e-11
3.05783850494e-09
-3.00770490667e-09
-1.03310464886e-11
2.96255797894e-09
-2.88393801225e-09
-7.26829430999e-12
2.83236066118e-09
-2.72046799607e-09
-2.16266198544e-12
2.6706436592e-09
-2.52589022309e-09
1.20102822945e-12
2.48596479813e-09
-2.31059454681e-09
2.28744138079e-09
-2.08505349328e-09
-5.21936959498e-12
3.73935400781e-12
3.69063595566e-09
-3.11666143797e-09
3.56653600797e-12
2.02194026803e-11
3.95582834697e-09
-3.45280624264e-09
3.31192949185e-11
4.19597774154e-09
-3.77271105637e-09
3.78767044157e-11
4.39782775883e-09
-4.06116862761e-09
3.34055045609e-11
4.55492943926e-09
-4.30309208697e-09
2.12063547134e-11
4.66616986155e-09
-4.48602048221e-09
4.07395038528e-12
4.73367678166e-09
-4.60151132038e-09
-1.47210325316e-11
4.75768148882e-09
-4.64278078011e-09
-3.20379297449e-11
4.73225286743e-09
-4.60136549022e-09
-4.47031352148e-11
4.66335941758e-09
-4.48573661173e-09
-5.00145917019e-11
4.55100931977e-09
-4.30266275869e-09
-4.62582460301e-11
4.39360070867e-09
-4.06057983229e-09
-3.40746615061e-11
4.19238346334e-09
-3.77194890948e-09
-1.71978123275e-11
3.95396022205e-09
-3.45185397051e-09
3.69094841102e-09
-3.1155102024e-09
-8.11698929168e-12
2.30588289721e-11
4.72112651286e-09
-3.96064251872e-09
4.18983682563e-12
5.40040563391e-11
4.98918772574e-09
-4.39048372121e-09
7.35466347001e-11
5.22642494506e-09
-4.79824047743e-09
7.7751036608e-11
5.41762540743e-09
-5.16507921012e-09
6.6368239775e-11
5.56114266905e-09
-5.47224105979e-09
4.23168120262e-11
5.65956656685e-09
-5.7042287622e-09
1.0226910656e-11
5.71832336977e-09
-5.85050273973e-09
-2.45688341342e-11
5.73949964278e-09
-5.90263437505e-09
-5.68718542696e-11
5.7169440798e-09
-5.8502957543e-09
-8.14228205652e-11
5.65688296468e-09
-5.70382632606e-09
-9.36579254944e-11
5.55747528046e-09
-5.47163864941e-09
-9.04415042291e-11
5.41376605808e-09
-5.16426683358e-09
-7.15173300525e-11
5.22340255873e-09
-4.79720851945e-09
-3.99358720138e-11
4.98809034391e-09
-4.38921944329e-09
4.72248208242e-09
-3.95914670123e-09
-1.05477851493e-11
4.28285104101e-11
5.29126496018e-09
-4.62998307163e-09
4.52074221028e-12
8.55684746024e-11
5.51934356616e-09
-5.13816385949e-09
1.09690953809e-10
5.71735424582e-09
-5.61866598248e-09
1.12276486516e-10
5.86907758763e-09
-6.05000959239e-09
9.4308497813e-11
5.97772244753e-09
-6.41064315416e-09
5.99887138319e-11
6.04895136079e-09
-6.6827244698e-09
1.53826436669e-11
6.09053070267e-09
-6.85405474887e-09
-3.26747728667e-11
6.1058876144e-09
-6.91494338981e-09
-7.75078853546e-11
6.0892793003e-09
-6.85378239904e-09
-1.12322884648e-10
6.04655261714e-09
-6.68219577079e-09
-1.31092357963e-10
5.97450332782e-09
-6.40986044884e-09
-1.2939335874e-10
5.86578975249e-09
-6.04897310138e-09
-1.05741717709e-10
5.71498386565e-09
-5.61737762718e-09
-6.21850951961e-11
5.51897742328e-09
-5.13662089368e-09
5.29344152554e-09
-4.62819863824e-09
-1.24794885389e-11
6.02712610811e-11
5.45166472344e-09
-5.13792234069e-09
4.62826313747e-12
1.10952375449e-10
5.62351866618e-09
-5.71106422608e-09
1.37399734342e-10
5.76996857767e-09
-6.25127613912e-09
1.37862300094e-10
5.8753197777e-09
-6.73521860358e-09
1.14532405266e-10
5.94580198948e-09
-7.13926508955e-09
7.25895485308e-11
5.98878713528e-09
-7.44379037169e-09
1.90240366061e-11
6.01296373365e-09
-7.63529148047e-09
-3.84284158281e-11
6.02234238688e-09
-7.70313727647e-09
-9.22240325678e-11
6.01185987082e-09
-7.63494982559e-09
-1.3463960219e-10
5.98669822441e-09
-7.44312844181e-09
-1.5868768405e-10
5.94304786153e-09
-7.13829551057e-09
-1.5898269898e-10
5.87256665538e-09
-6.73395677447e-09
-1.32845064114e-10
5.76812348846e-09
-6.24974139144e-09
-8.12534880622e-11
5.62355187148e-09
-5.70926860751e-09
5.45421703243e-09
-5.13589188117e-09
-1.39200140631e-11
7.41265904416e-11
5.30640857655e-09
-5.49800377613e-09
4.57981829925e-12
1.29261392092e-10
5.42500874809e-09
-6.12455473333e-09
1.56272066029e-10
5.52346911019e-09
-6.71325253052e-09
1.54547024035e-10
5.58838826833e-09
-7.23952574455e-09
1.27313862395e-10
5.62710528174e-09
-7.67827926699e-09
8.03832965961e-11
5.64744783307e-09
-8.00860090721e-09
2.12311841707e-11
5.65793069211e-09
-8.21601231111e-09
-4.19955703179e-11
5.66253988853e-09
-8.28924196329e-09
-1.01370183634e-10
5.6569808732e-09
-8.21560024428e-09
-1.48733887994e-10
5.64566554146e-09
-8.00780417095e-09
-1.76586109651e-10
5.6247803579e-09
-7.67712297414e-09
-1.78925275216e-10
5.58608427449e-09
-7.23804354656e-09
-1.52082363862e-10
5.52198400587e-09
-6.71148476051e-09
-9.59902868252e-11
5.42519777362e-09
-6.12253110437e-09
5.30892632741e-09
-5.49576317017e-09
-1.48935108632e-11
8.40901448057e-11
4.96100659438e-09
-5.72298723029e-09
4.41393844474e-12
1.41139881802e-10
5.03857596724e-09
-6.39280948126e-09
1.67535624637e-10
5.09939026437e-09
-7.02010176653e-09
1.63806761584e-10
5.13431320636e-09
-7.57959130231e-09
1.34001362182e-10
5.15047269859e-09
-8.04526109251e-09
8.42793670362e-11
5.15535608843e-09
-8.39538763144e-09
2.22687214624e-11
5.15666422777e-09
-8.61485149029e-09
-4.38219776415e-11
5.15801197371e-09
-8.69203992828e-09
-1.06036159912e-10
5.15586302638e-09
-8.61437184342e-09
-1.56134667346e-10
5.15386005117e-09
-8.39446194845e-09
-1.86445818145e-10
5.14852871345e-09
-8.04392789303e-09
-1.90632807586e-10
5.13238006394e-09
-7.57790362891e-09
-1.64269873991e-10
5.09812236538e-09
-7.0181223178e-09
-1.06246830032e-10
5.0387054053e-09
-6.39058639461e-09
4.96311863303e-09
-5.72057209791e-09
-1.54771979776e-11
9.04083830033e-11
4.50049527391e-09
-5.8243273895e-09
4.17149009552e-12
1.4770760915e-10
4.55108436489e-09
-6.52833894536e-09
1.72798230276e-10
4.58557272855e-09
-7.18532313573e-09
1.67368769769e-10
4.60067767468e-09
-7.76976778151e-09
1.36079318528e-10
4.60267949022e-09
-8.25523734476e-09
8.52428065417e-11
4.59838713957e-09
-8.6196606641e-09
2.24111704977e-11
4.59439782972e-09
-8.84761791353e-09
-4.43827825455e-11
4.59378971224e-09
-8.92745227574e-09
-1.07386658737e-10
4.59373708598e-09
-8.84707722209e-09
-1.58525261012e-10
4.59715214465e-09
-8.61861886187e-09
-1.9019087661e-10
4.60106427222e-09
-8.25374617226e-09
-1.95914086838e-10
4.5990320508e-09
-7.76789928754e-09
-1.70716119018e-10
4.58441212948e-09
-7.18316196443e-09
-1.12441831821e-10
4.55099649733e-09
-6.5259507531e-09
4.50199536999e-09
-5.8217761368e-09
-1.57558171078e-11
9.36136189922e-11
3.98565663701e-09
-5.81228165671e-09
3.88645316409e-12
1.50098193263e-10
4.0211697369e-09
-6.54229217802e-09
1.7355035165e-10
4.03888713382e-09
-7.22094847902e-09
1.66770701197e-10
4.04219946415e-09
-7.82287340556e-09
1.34851989655e-10
4.03646837392e-09
-8.32166242058e-09
8.41162892021e-11
4.02769141671e-09
-8.69534063868e-09
2.1899230479e-11
4.02127054624e-09
-8.92852538647e-09
-4.40872608799e-11
4.01967671821e-09
-9.00980313052e-09
-1.06434701027e-10
4.02073103479e-09
-8.92793307469e-09
-1.57382615923e-10
4.02667524486e-09
-8.69420091689e-09
-1.89535250255e-10
4.03511393681e-09
-8.32003917292e-09
-1.96433006962e-10
4.0407545556e-09
-7.82085619928e-09
-1.72727539363e-10
4.0377247539e-09
-7.21864227102e-09
-1.15246869208e-10
4.02073524618e-09
-6.53977811135e-09
3.98633981065e-09
-5.80963562506e-09
-1.58218231153e-11
9.43294822779e-11
3.45653586437e-09
-5.6963214723e-09
3.58338910731e-12
1.49330990064e-10
3.48535557882e-09
-6.44505248339e-09
1.71084740583e-10
3.49326047982e-09
-7.13831635578e-09
1.63347005186e-10
3.49040655512e-09
-7.75110136395e-09
1.31453129208e-10
3.48141848896e-09
-8.25742071325e-09
8.16382652726e-11
3.47139797335e-09
-8.63582200616e-09
2.09527058711e-11
3.46451044025e-09
-8.87129101008e-09
-4.32745093755e-11
3.46260723052e-09
-8.95292992197e-09
-1.04040520775e-10
3.46406288153e-09
-8.87065852329e-09
-1.53966614466e-10
3.47054282399e-09
-8.63460621124e-09
-1.85943676881e-10
3.48023845241e-09
-8.25569581537e-09
-1.93620446134e-10
3.48905578423e-09
-7.7489721491e-09
-1.71461161275e-10
3.49198417741e-09
-7.13590581196e-09
-1.15423535168e-10
3.4844631628e-09
-6.44245468105e-09
3.45627711577e-09
-5.69362340822e-09
-1.57490266986e-11
9.31557634543e-11
2.93800443325e-09
-5.48555117421e-09
3.26128613528e-12
1.46379243512e-10
2.96489572394e-09
-6.24679864606e-09
1.66676542775e-10
2.96738683038e-09
-6.94872004297e-09
1.58425792174e-10
2.96205323429e-09
-7.56668231923e-09
1.27014452427e-10
2.95284947018e-09
-8.07547419302e-09
7.85487715367e-11
2.94377388393e-09
-8.45460290736e-09
1.98101596701e-11
2.93776105437e-09
-8.68975321642e-09
-4.22521035761e-11
2.93599008044e-09
-8.7707975896e-09
-1.01015285187e-10
2.93737011563e-09
-8.68909340418e-09
-1.49486535933e-10
2.94300539382e-09
-8.4533352926e-09
-1.80828235614e-10
2.95173828336e-09
-8.07368074889e-09
-1.88840703562e-10
2.96067409306e-09
-7.56448002888e-09
-1.67984202883e-10
2.96587341285e-09
-6.94624749095e-09
-1.1366463829e-10
2.96344527523e-09
-6.24416081125e-09
2.93674185296e-09
-5.48284431918e-09
-1.56002040388e-11
9.07424383019e-11
2.44477028534e-09
-5.18898893599e-09
2.93820529741e-12
1.42539336886e-10
2.47092551639e-09
-5.95795443482e-09
1.6205065418e-10
2.47045917506e-09
-6.66385356337e-09
1.53729706359e-10
2.46522623528e-09
-7.28222878448e-09
1.2293885814e-10
2.45805008228e-09
-7.78911884872e-09
7.57653193955e-11
2.45152816738e-09
-8.16548767165e-09
1.87672499608e-11
2.44727565354e-09
-8.39804641391e-09
-4.13405630231e-11
2.44598867354e-09
-8.47766461864e-09
-9.83074659983e-11
2.44689232481e-09
-8.39737332462e-09
-1.45379493069e-10
2.45075680764e-09
-8.16419446239e-09
-1.75949860959e-10
2.45689409767e-09
-7.78729187869e-09
-1.83862831018e-10
2.46368721076e-09
-7.27999320616e-09
-1.63638948448e-10
2.4685733092e-09
-6.6613611649e-09
-1.10667077577e-10
2.46878686734e-09
-5.95532181421e-09
2.4424234888e-09
-5.18632065245e-09
-1.54030506554e-11
8.81372349542e-11
1.9846297698e-09
-4.81567565943e-09
2.62605672303e-12
1.40153420459e-10
2.00781374073e-09
-5.58967569441e-09
1.6000349478e-10
2.00627638133e-09
-6.29608119893e-09
1.51802293111e-10
2.00370669632e-09
-6.91076246633e-09
1.21214525589e-10
2.0005425515e-09
-7.41190450823e-09
7.45005153219e-11
1.99777581011e-09
-7.78246909997e-09
1.82742420399e-11
1.99599626748e-09
-8.01047099738e-09
-4.09876724389e-11
1.99536338607e-09
-8.08795028585e-09
-9.71269760097e-11
1.9955661922e-09
-8.00980013365e-09
-1.43628548299e-10
1.99689897644e-09
-7.78117911308e-09
-1.7385717603e-10
1.99919027103e-09
-7.41008187741e-09
-1.81495305782e-10
2.00184503432e-09
-6.90853456799e-09
-1.6079379039e-10
2.00387644393e-09
-6.29360914814e-09
-1.07509883413e-10
2.00484966127e-09
-5.58709368605e-09
1.98105835161e-09
-4.8131024343e-09
-1.51849667454e-11
8.30088542802e-11
-4.37654378556e-09
2.28793784104e-12
1.56756465121e-09
1.41607827455e-10
-5.15630873683e-09
1.57561520278e-09
1.63535380158e-10
-5.85924248889e-09
1.5781271838e-09
1.5542492974e-10
-6.46585467094e-09
1.58081459486e-09
1.24108906909e-10
-6.95743829341e-09
1.58291649499e-09
7.63264247079e-11
-7.31931758354e-09
1.58452353942e-09
1.88371974637e-11
-7.5409520891e-09
1.58544017749e-09
-4.16809375451e-11
-7.61564879452e-09
1.58557911227e-09
-9.90275664277e-11
-7.54030187267e-09
1.58489014859e-09
-1.464923507e-10
-7.31806559257e-09
1.58341521189e-09
-1.7730456122e-10
-6.95566668961e-09
1.58120983644e-09
-1.84697789199e-10
-6.46368502478e-09
1.57846041349e-09
-1.61807123757e-10
-5.85683789707e-09
1.57503643395e-09
-1.01881103011e-10
-5.15380540725e-09
1.57169328358e-09
-4.37416198517e-09
-1.49349928917e-11
1.56256498278e-09
1.25773007813e-11
-1.56365860865e-10
-6.63406887553e-10
-4.66438102965e-13
1.93612485029e-11
-1.74140966076e-10
-7.3038149506e-10
2.23565695294e-11
-1.92651030704e-10
-7.94243798089e-10
2.18972284306e-11
-2.09377991078e-10
-8.51935196915e-10
1.81853213102e-11
-2.23379129078e-10
-9.00348852205e-10
1.18378894366e-11
-2.33821083663e-10
-9.36955482528e-10
3.74729568679e-12
-2.40310553335e-10
-9.6008630196e-10
-4.95250258436e-12
-2.42551849859e-10
-9.68396599959e-10
-1.29785598707e-11
-2.40125233502e-10
-9.60036084653e-10
-1.91884403638e-11
-2.3344638523e-10
-9.36855780787e-10
-2.26891683054e-11
-2.22847066737e-10
-9.00202050672e-10
-2.29074156227e-11
-2.08775486569e-10
-8.51744391846e-10
-1.95881217888e-11
-1.91967792089e-10
-7.94011546099e-10
-1.25146017597e-11
-1.73597521701e-10
-7.30108199963e-10
-1.56063397479e-10
-6.63081520429e-10
-2.89452708007e-13
2.7616911745e-11
-3.43957448186e-10
-1.92569834715e-09
-1.10787940202e-12
4.36106236065e-11
-3.78181487605e-10
-2.12476501421e-09
5.06967006939e-11
-4.13242664762e-10
-2.31464830254e-09
4.96639639632e-11
-4.44623100839e-10
-2.48619014385e-09
4.12313681843e-11
-4.70363883477e-10
-2.6301953757e-09
2.68473271942e-11
-4.89283402806e-10
-2.73912284261e-09
8.55906683932e-12
-5.00932710992e-10
-2.80791950311e-09
-1.10867152292e-11
-5.04953134809e-10
-2.83254810771e-09
-2.92312521231e-11
-5.00548308024e-10
-2.80777717792e-09
-4.3313871478e-11
-4.88512061727e-10
-2.73883926375e-09
-5.12901846156e-11
-4.69259232361e-10
-2.62977701156e-09
-5.17612895309e-11
-4.43323421638e-10
-2.48564532308e-09
-4.39782480969e-11
-4.11831163353e-10
-2.31398496576e-09
-2.73551847706e-11
-3.7698712682e-10
-2.12398452718e-09
-3.43243244764e-10
-1.92478192991e-09
-5.7929028448e-13
3.48450647484e-11
-4.84852926405e-10
-3.01004652901e-09
-1.48096505919e-12
5.55717378227e-11
-5.2752761158e-10
-3.32564670751e-09
6.46924427306e-11
-5.70593709757e-10
-3.62606656412e-09
6.32557193033e-11
-6.08752428301e-10
-3.89703984099e-09
5.24230683375e-11
-6.39570507633e-10
-4.12427607976e-09
3.4129553916e-11
-6.61919466372e-10
-4.29603606195e-09
1.09814255583e-11
-6.75561349529e-10
-4.40441017515e-09
-1.38507607311e-11
-6.80268603297e-10
-4.44310408767e-09
-3.68238780045e-11
-6.75094258133e-10
-4.40418243659e-09
-5.47558512884e-11
-6.60987941211e-10
-4.29558370076e-09
-6.50385649441e-11
-6.38237170195e-10
-4.12360986336e-09
-6.57751442348e-11
-6.07173782516e-10
-3.89617388692e-09
-5.5803332405e-11
-5.68897671415e-10
-3.62501575505e-09
-3.43107740146e-11
-5.2606085625e-10
-3.32441693578e-09
-4.839605649e-10
-3.00861875516e-09
-6.12769941131e-13
3.69352166744e-11
-5.83018769187e-10
-3.89864291049e-09
-1.65827755922e-12
5.92000739627e-11
-6.28632390293e-10
-4.31294857118e-09
6.89637749885e-11
-6.737530583e-10
-4.70625475746e-09
6.732692418e-11
-7.13114846167e-10
-5.06034730615e-09
5.57262889633e-11
-7.44354517614e-10
-5.35690968718e-09
3.63096119041e-11
-7.66674577066e-10
-5.58086787485e-09
1.18430648961e-11
-7.80173428042e-10
-5.72201547583e-09
-1.43737133053e-11
-7.84831503016e-10
-5.77227572699e-09
-3.86680482589e-11
-7.79694671294e-10
-5.72170794501e-09
-5.77328443183e-11
-7.65724951785e-10
-5.58025897324e-09
-6.87931100783e-11
-7.4299313293e-10
-5.35601538717e-09
-6.97234842376e-11
-7.11488410503e-10
-5.05918916174e-09
-5.91047777036e-11
-6.72016899118e-10
-4.70485705833e-09
-3.60761511094e-11
-6.27112856339e-10
-4.31132607467e-09
-5.82047787578e-10
-3.89678392803e-09
-4.57866229595e-13
3.57953667251e-11
-6.41585346828e-10
-4.6063333478e-09
-1.69700280023e-12
5.75984427131e-11
-6.8625639962e-10
-5.10348804846e-09
6.71469273546e-11
-7.29207378167e-10
-5.57397532888e-09
6.55001713059e-11
-7.65879113406e-10
-5.99667048072e-09