/*--------------------------------*- C++ -*----------------------------------*\
  =========                 |
  \\      /  F ield         | OpenFOAM: The Open Source CFD Toolbox
   \\    /   O peration     | Website:  https://openfoam.org
    \\  /    A nd           | Version:  7
     \\/     M anipulation  |
\*---------------------------------------------------------------------------*/
FoamFile
{
    version     2.0;
    format      ascii;
    class       surfaceScalarField;
    location    "1.82";
    object      phi;
}
// * * * * * * * * * * * * * * * * * * * * * * * * * * * * * * * * * * * * * //

dimensions      [0 3 -1 0 0 0 0];

internalField   nonuniform List<scalar> 
65775
(
1.19976439561e-11
1.94301763492e-09
2.59746541965e-10
-3.37895165565e-14
1.85983694609e-11
2.03513015214e-09
2.87636994492e-10
2.20821010951e-11
2.11478385557e-09
3.14239863354e-10
2.16811017762e-11
2.18353468397e-09
3.38209760976e-10
1.80621705517e-11
2.23837765972e-09
3.5829063875e-10
1.18938067364e-11
2.27851293602e-09
3.73457522842e-10
4.11461551744e-12
2.30372927194e-09
3.83035656601e-10
-4.23151781348e-12
2.31326752955e-09
3.86476519126e-10
-1.20068867528e-11
2.30374831555e-09
3.8303565201e-10
-1.81679824401e-11
2.2785500909e-09
3.73457459829e-10
-2.17754162544e-11
2.23843221133e-09
3.5829041328e-10
-2.21618127873e-11
2.18360182646e-09
3.38209173687e-10
-1.86597818494e-11
2.114859249e-09
3.14238438208e-10
-1.20451455875e-11
2.03519886305e-09
2.87632954388e-10
1.94305358806e-09
2.59733659117e-10
-6.05639349716e-14
3.2452144957e-11
3.35558850516e-09
6.64971479207e-10
-8.51727492948e-14
5.44987426592e-11
3.50322502252e-09
7.33964086331e-10
6.48590078885e-11
3.63167930109e-09
7.99343031233e-10
6.41396484113e-11
3.74101914975e-09
8.57939529864e-10
5.35716121587e-11
3.82786942763e-09
9.06809052138e-10
3.53331855583e-11
3.89108680978e-09
9.43595643402e-10
1.22242370008e-11
3.93075612528e-09
9.66775976235e-10
-1.25424980611e-11
3.94582198196e-09
9.75091951773e-10
-3.56410345468e-11
3.9307990129e-09
9.66775881376e-10
-5.38590871908e-11
3.89117080171e-09
9.43595322061e-10
-6.43962211063e-11
3.82799206816e-09
9.06808232718e-10
-6.50752829724e-11
3.74117212724e-09
8.57937680913e-10
-5.46680929202e-11
3.6318509768e-09
7.99338817568e-10
-3.2578256276e-11
3.50338633154e-09
7.339526131e-10
3.35568677932e-09
6.64939016673e-10
-1.59608385831e-13
5.02063959536e-11
4.3354913995e-09
9.75153136526e-10
-1.15976820055e-13
8.5136340454e-11
4.51196356751e-09
1.07524632454e-09
1.0121034939e-10
4.66674398041e-09
1.16962814201e-09
1.00066027146e-10
4.79640061787e-09
1.25390111261e-09
8.35366108928e-11
4.89890776258e-09
1.32396928817e-09
5.50732820659e-11
4.97307106942e-09
1.37659063643e-09
1.9050114074e-11
5.01953579305e-09
1.40968706823e-09
-1.95259754209e-11
5.03725700798e-09
1.42153545889e-09
-5.55339747082e-11
5.01959457458e-09
1.40968678008e-09
-8.39674390341e-11
4.97318608467e-09
1.37658995074e-09
-1.00452252365e-10
4.89907514279e-09
1.32396785222e-09
-1.0153837652e-10
4.79661041827e-09
1.25389821089e-09
-8.53977019762e-11
4.66697974734e-09
1.16962196282e-09
-5.04022162845e-11
4.51218815234e-09
1.07523017724e-09
4.3356368851e-09
9.75108609566e-10
-2.38913932497e-13
6.60432696202e-11
4.95930340472e-09
1.21066337785e-09
-1.37074737135e-13
1.11560244071e-10
5.14553207033e-09
1.33464091368e-09
1.32495223448e-10
5.30977355803e-09
1.45097243845e-09
1.30817615682e-10
5.44518896471e-09
1.55446460177e-09
1.09110313255e-10
5.55157871226e-09
1.6402613896e-09
7.18840306288e-11
5.62803871722e-09
1.70455161424e-09
2.48584672127e-11
5.67584465901e-09
1.74491038603e-09
-2.54628418018e-11
5.69416275634e-09
1.7593245107e-09
-7.2469420669e-11
5.67591113764e-09
1.7449101686e-09
-1.09658256593e-10
5.62816890789e-09
1.70455108107e-09
-1.31310210714e-10
5.55176765427e-09
1.64026016364e-09
-1.32916467349e-10
5.44542618877e-09
1.55446190252e-09
-1.11900081727e-10
5.31004178403e-09
1.45096628024e-09
-6.63015944304e-11
5.14579061088e-09
1.33462397435e-09
4.95948098657e-09
1.21061548799e-09
-3.07392378821e-13
7.98721704734e-11
5.29292749114e-09
1.38227329502e-09
-1.50158894295e-13
1.34252623033e-10
5.4754048582e-09
1.52428380734e-09
1.59294190275e-10
5.63697734349e-09
1.65686000777e-09
1.57068068209e-10
5.76806949863e-09
1.77435604991e-09
1.30890193833e-10
5.87025609906e-09
1.87147100654e-09
8.61775641646e-11
5.94314948985e-09
1.944075729e-09
2.97941986763e-11
5.98860986394e-09
1.98956158636e-09
-3.05027305547e-11
6.00611964127e-09
2.00576374003e-09
-8.68641970606e-11
5.98867726361e-09
1.98956160436e-09
-1.31533731811e-10
5.94328138488e-09
1.94407570952e-09
-1.57648395627e-10
5.8704473137e-09
1.87147062224e-09
-1.59794017881e-10
5.76830986326e-09
1.77435460142e-09
-1.34661024043e-10
5.63725130538e-09
1.6568556685e-09
-8.01882193741e-11
5.47567074941e-09
1.524269274e-09
5.2931169486e-09
1.38222810872e-09
-3.68041898447e-13
9.18610207054e-11
5.39326917437e-09
1.49881133162e-09
-1.57050476187e-13
1.53644338915e-10
5.56289963519e-09
1.65406845403e-09
1.82078464568e-10
5.71357413319e-09
1.79824373668e-09
1.79291304789e-10
5.83379266874e-09
1.92550899348e-09
1.49275378987e-10
5.92661712059e-09
2.03037059858e-09
9.8220256468e-11
5.99227948812e-09
2.10857929699e-09
3.39493341076e-11
6.03310454794e-09
2.15746892139e-09
-3.47433680703e-11
6.04891880142e-09
2.17483123823e-09
-9.8990330408e-11
6.03316663235e-09
2.15746924163e-09
-1.49998357499e-10
5.99240102838e-09
2.10857995774e-09
-1.79945740849e-10
5.92679316191e-09
2.03037139986e-09
-1.82646417399e-10
5.83401438038e-09
1.92550945996e-09
-1.54114963771e-10
5.71382855815e-09
1.79824243537e-09
-9.22323401043e-11
5.56314898728e-09
1.65405836429e-09
5.39345038965e-09
1.49877206563e-09
-4.22681662878e-13
1.02232231925e-10
5.30949691819e-09
1.56779374174e-09
-1.59367831613e-13
1.70142500742e-10
5.46075074823e-09
1.73239469151e-09
2.01299948555e-10
5.59544864968e-09
1.88440919764e-09
1.97931145857e-10
5.70100547221e-09
2.01803392571e-09
1.64635637026e-10
5.78159340284e-09
2.12777881964e-09
1.08256666891e-10
5.83806640818e-09
2.20942577713e-09
3.74077142056e-11
5.87305027478e-09
2.26034474895e-09
-3.82739807766e-11
5.8866861437e-09
2.27836601336e-09
-1.09097616961e-10
5.87310216652e-09
2.2603453263e-09
-1.65426956792e-10
5.83816798897e-09
2.20942705688e-09
-1.9865066644e-10
5.78174040369e-09
2.12778079997e-09
-2.01929654185e-10
5.70119107093e-09
2.01803647355e-09
-1.70671674659e-10
5.59566343445e-09
1.88441141574e-09
-1.02658092398e-10
5.46096172264e-09
1.7323898529e-09
5.30964995119e-09
1.5677615917e-09
-4.73588258773e-13
1.11139370941e-10
5.08406043497e-09
1.59578618911e-09
-1.58066651218e-13
1.84059254889e-10
5.2142079017e-09
1.76658658192e-09
2.17341934437e-10
5.33032778796e-09
1.92344423412e-09
2.13380852597e-10
5.41954335562e-09
2.06073250559e-09
1.77306826754e-10
5.4867586935e-09
2.17311089386e-09
1.16511107742e-10
5.53337192637e-09
2.25650255438e-09
4.02464777782e-11
5.56212575629e-09
2.30837867388e-09
-4.11765190904e-11
5.57340699423e-09
2.32666716922e-09
-1.1741509039e-10
5.56216367787e-09
2.30837933706e-09
-1.78159900072e-10
5.53344602638e-09
2.2565041323e-09
-2.1416056241e-10
5.48686584186e-09
2.1731136383e-09
-2.18030467542e-10
5.4196789333e-09
2.06073671033e-09
-1.8464603668e-10
5.33048643073e-09
1.92344960154e-09
-1.11620331749e-10
5.21436230052e-09
1.76658656653e-09
5.08416717667e-09
1.59576076498e-09
-5.22154590728e-13
1.18685165125e-10
4.75348193789e-09
1.58861470734e-09
-1.54144443057e-13
1.9563563482e-10
4.86189674846e-09
1.76312993807e-09
2.30534066085e-10
4.95869917232e-09
1.92249921535e-09
2.25995725431e-10
5.03144529795e-09
2.06137529646e-09
1.87599712268e-10
5.08542944686e-09
2.17466893175e-09
1.231927323e-10
5.12244940508e-09
2.25851956001e-09
4.25377796811e-11
5.14517673589e-09
2.31054103833e-09
-4.35274822539e-11
5.15415120088e-09
2.32879924675e-09
-1.2415617758e-10
5.14519818557e-09
2.31054147993e-09
-1.88511951044e-10
5.12249106443e-09
2.258520832e-09
-2.26834412225e-10
5.08548933071e-09
2.17467157339e-09
-2.31281525297e-10
5.03152127686e-09
2.06138007956e-09
-1.96281235444e-10
4.95878961224e-09
1.92250645626e-09
-1.19222851203e-10
4.86198038999e-09
1.76313313359e-09
4.75352635937e-09
1.58859430732e-09
-5.6977707738e-13
1.24943103398e-10
4.34900033406e-09
1.55148865112e-09
-1.48371991374e-13
2.05073808961e-10
4.4365308353e-09
1.72780840845e-09
2.41184669967e-10
4.51458476661e-09
1.88793343457e-09
2.36120689539e-10
4.57182182781e-09
2.02685442318e-09
1.9581837351e-10
4.61361775015e-09
2.13979774692e-09
1.28505740599e-10
4.6419623742e-09
2.22316649018e-09
4.43519765469e-11
4.65927357815e-09
2.2747407933e-09
-4.54010326508e-11
4.66614472936e-09
2.29275041625e-09
-1.29528758282e-10
4.65927734032e-09
2.27474056575e-09
-1.96790653488e-10
4.64196910379e-09
2.2231665568e-09
-2.37020113758e-10
4.61362647776e-09
2.13979894274e-09
-2.41993625225e-10
4.57183253518e-09
2.02685802172e-09
-2.0578105531e-10
4.51459930542e-09
1.88794036776e-09
-1.25540198395e-10
4.43653352739e-09
1.72781211611e-09
4.34897027637e-09
1.5514704633e-09
-6.17603448608e-13
1.299584697e-10
3.8971445886e-09
1.48907419436e-09
-1.41433619801e-13
2.12567094017e-10
3.96551203789e-09
1.66578625517e-09
2.49622311975e-10
4.02621413741e-09
1.82540473219e-09
2.44121892809e-10
4.06964007314e-09
1.96327585517e-09
2.02277283057e-10
4.10090770657e-09
2.07497747851e-09
1.32656272142e-10
4.1219208446e-09
2.15720519393e-09
4.57594156623e-11
4.13468292571e-09
2.2079177749e-09
-4.68706263127e-11
4.13975317894e-09
2.22552481471e-09
-1.33741931928e-10
4.13466904503e-09
2.20791630016e-09
-2.03313133439e-10
4.12189250401e-09
2.15720287494e-09
-2.45086057417e-10
4.10086467777e-09
2.07497542244e-09
-2.50496900257e-10
4.06958385881e-09
1.96327584016e-09
-2.1333977883e-10
4.02614920955e-09
1.82540833743e-09
-1.30618084209e-10
3.96542777766e-09
1.66578686547e-09
3.89703176145e-09
1.48905449042e-09
-6.66708543753e-13
1.33746890354e-10
3.42025926487e-09
1.40554209496e-09
-1.33411843237e-13
2.18379103505e-10
3.47138917035e-09
1.58166848408e-09
2.56280635444e-10
3.51662327677e-09
1.73993694131e-09
2.50433682071e-10
3.54847825995e-09
1.87602798199e-09
2.07316847728e-10
3.57129352128e-09
1.98589190603e-09
1.35854813556e-10
3.58656282142e-09
2.06653833076e-09
4.68300650378e-11
3.59577167645e-09
2.11611208127e-09
-4.80083853974e-11
3.59939519426e-09
2.13321232789e-09
-1.37008182039e-10
3.59574116665e-09
2.11610868776e-09
-2.08421377539e-10
3.58650150315e-09
2.06653223226e-09
-2.51467636156e-10
3.57120119779e-09
1.98588441301e-09
-2.5722546496e-10
3.54835712892e-09
1.87602135259e-09
-2.19220885059e-10
3.51647924059e-09
1.73993351489e-09
-1.34471632596e-10
3.47121599716e-09
1.58166181362e-09
3.42005922738e-09
1.40551658721e-09
-7.17899916338e-13
1.36451512706e-10
2.93683339281e-09
1.30460329496e-09
-1.24600453103e-13
2.2312285127e-10
2.97213656196e-09
1.47956006732e-09
2.61849394549e-10
3.00431707219e-09
1.63598449057e-09
2.55588111457e-10
3.02734085353e-09
1.76984268137e-09
2.11285318361e-10
3.04400589996e-09
1.87748877525e-09
1.38294574501e-10
3.05517417306e-09
1.95627194882e-09
4.76258208784e-11
3.0618334492e-09
2.00452927079e-09
-4.88771642083e-11
3.06437058633e-09
2.02105492935e-09
-1.39521251555e-10
3.06178825515e-09
2.0045232798e-09
-2.12463828183e-10
3.05508331233e-09
1.95626063011e-09
-2.56696436426e-10
3.0438691028e-09
1.87747350272e-09
-2.62868030534e-10
3.02715982794e-09
1.76982608842e-09
-2.24035834771e-10
3.00409783528e-09
1.63596988695e-09
-1.37242004455e-10
2.97187602971e-09
1.4795419028e-09
2.93654526966e-09
1.30456818537e-09
-7.6804929359e-13
1.39041843508e-10
2.46110453735e-09
1.18953868298e-09
-1.14823671248e-13
2.28146651695e-10
2.48166310943e-09
1.36314767527e-09
2.67201873048e-10
2.50432579974e-09
1.51749741409e-09
2.60001517606e-10
2.52156335832e-09
1.64884508789e-09
2.14363941077e-10
2.53424690129e-09
1.75403106559e-09
1.4005366123e-10
2.54277750453e-09
1.83077408249e-09
4.81686314017e-11
2.54777982835e-09
1.87760522813e-09
-4.94981906547e-11
2.54956340634e-09
1.89351395242e-09
-1.4135838054e-10
2.54772196253e-09
1.8775961199e-09
-2.15620051116e-10
2.54266142115e-09
1.8307563958e-09
-2.61186526246e-10
2.53407207911e-09
1.75400600144e-09
-2.68294961405e-10
2.52133049411e-09
1.64881532202e-09
-2.29130258895e-10
2.50403905219e-09
1.51746730026e-09
-1.39896122617e-10
2.48132007724e-09
1.36311415671e-09
2.46073447323e-09
1.18949192031e-09
-8.18770486802e-13
1.45217453696e-10
1.06346696781e-09
-1.04732296221e-13
2.00049406617e-09
2.35894148681e-10
1.23603993441e-09
2.01152407547e-09
2.73384808645e-10
1.38806825248e-09
2.02948276706e-09
2.64148665627e-10
1.51663748878e-09
2.04345196275e-09
2.16843771449e-10
1.61915492795e-09
2.05376685561e-09
1.41314460172e-10
1.69371717399e-09
2.06082942642e-09
4.85241014582e-11
1.73903894294e-09
2.06494299461e-09
-4.99347261463e-11
1.75429962201e-09
2.06627331013e-09
-1.42698936755e-10
1.73902674768e-09
2.06487395611e-09
-2.18177239241e-10
1.69369310551e-09
2.06069106702e-09
-2.65407576209e-10
1.61911977567e-09
2.05355898118e-09
-2.74547345449e-10
1.51659334138e-09
2.04317459353e-09
-2.36940256551e-10
1.38802011435e-09
2.02913736346e-09
-1.46126167377e-10
1.23598549377e-09
2.01110851954e-09
1.06341358191e-09
-8.65236806742e-13
2.00004773739e-09
-1.89833061129e-12
8.86551803355e-11
1.72967086411e-10
-3.95530146337e-15
-2.21929034394e-12
9.73149294051e-11
1.9059954583e-10
-2.10529913946e-12
1.0671924097e-10
2.07368235867e-10
-1.81805621609e-12
1.15412936212e-10
2.22476653917e-10
-1.40404390278e-12
1.22726016709e-10
2.35130036427e-10
-8.956618383e-13
1.28250088035e-10
2.4468408223e-10
-3.21923617352e-13
1.31728417003e-10
2.50717987022e-10
2.75473753121e-13
1.329719732e-10
2.52889302357e-10
8.47492619779e-13
1.31727403367e-10
2.50716786838e-10
1.35278546511e-12
1.28250245754e-10
2.44681669195e-10
1.7644775125e-12
1.22731950839e-10
2.3512636808e-10
2.05372948116e-12
1.15427955462e-10
2.22471583036e-10
2.17283431185e-12
1.06737888968e-10
2.07361294434e-10
1.86086810406e-12
9.73360807834e-11
1.90589181041e-10
8.86584549343e-11
1.72948349225e-10
-3.10735059522e-14
-2.75882033926e-12
2.59567700064e-10
4.96776109696e-10
-8.74767877025e-15
-2.96351230136e-12
2.83006749372e-10
5.48411340444e-10
-2.38298437312e-12
3.07890187261e-10
5.97530041747e-10
-1.69795224841e-12
3.30834702962e-10
6.41784623642e-10
-1.09991810749e-12
3.50048833928e-10
6.78855978215e-10
-6.30230061896e-13
3.64495596192e-10
7.06854499407e-10
-2.52075394436e-13
3.7357120414e-10
7.24528042725e-10
9.72418959543e-14
3.76818860425e-10
7.3086574219e-10
4.72320129232e-13
3.73571505835e-10
7.24524577703e-10
9.37069032637e-13
3.64500254225e-10
7.06847530661e-10
1.53286223113e-12
3.50065848006e-10
6.78845364946e-10
2.22525341471e-12
3.3087039294e-10
6.41769933861e-10
2.82278989161e-12
3.07936838198e-10
5.97509990063e-10
2.64422607957e-12
2.83054542636e-10
5.48381603061e-10
2.59580651158e-10
4.96725751734e-10
-9.38983797942e-14
-1.56859655131e-12
4.59968196603e-10
7.76288480008e-10
-1.54533714143e-14
-8.05428679551e-13
4.99185026544e-10
8.58246207036e-10
4.98428817183e-13
5.40081323975e-10
9.36076776182e-10
1.43103991538e-12
5.77652879882e-10
1.00610745516e-09
1.68299642386e-12
6.09019087026e-10
1.06471701511e-09
1.26380889634e-12
6.32527204235e-10
1.10895316424e-09
3.80248719868e-13
6.47267792729e-10
1.13684801614e-09
-6.59306797671e-13
6.52542043046e-10
1.14682330695e-09
-1.54495054933e-12
6.4727099414e-10
1.13684266621e-09
-1.96641244489e-12
6.32538316005e-10
1.10894234352e-09
-1.71127433821e-12
6.09046999962e-10
1.06470050024e-09
-7.62319918903e-13
5.7770427257e-10
1.0060846044e-09
5.72442537942e-13
5.40148148499e-10
9.36045764207e-10
1.37867260213e-12
4.99248613063e-10
8.58200994352e-10
4.59985545644e-10
7.76214332933e-10
-1.58796494919e-13
1.06907596988e-12
6.60935768564e-10
1.00860278564e-09
-2.17671192763e-14
3.50887159127e-12
7.14630756698e-10
1.11670181781e-09
5.73813686447e-12
7.69685056001e-10
1.2190893118e-09
6.77410371143e-12
8.20001083143e-10
1.31104205079e-09
6.26435445902e-12
8.61869648689e-10
1.38789172009e-09
4.3276631935e-12
8.93156018382e-10
1.44583435455e-09
1.41639727126e-12
9.12738222725e-10
1.4823254537e-09
-1.82530413243e-12
9.19741853168e-10
1.4953389056e-09
-4.73624640219e-12
9.12744860344e-10
1.48231854414e-09
-6.67007544994e-12
8.93173643483e-10
1.44582039232e-09
-7.16872642348e-12
8.61906188883e-10
1.38787045547e-09
-6.10605458927e-12
8.20061890755e-10
1.31101277315e-09
-3.83268123678e-12
7.69762866e-10
1.21905004453e-09
-1.33451698434e-12
7.14701914802e-10
1.11664578396e-09
6.609544869e-10
1.00851352871e-09
-2.26182620239e-13
4.75504816324e-12
8.42435035248e-10
1.19600538699e-09
-2.80610122303e-14
9.35988009994e-12
9.08018161493e-10
1.32624276967e-09
1.2651398045e-11
9.74022510053e-10
1.44918724843e-09
1.36612261877e-11
1.03397709932e-09
1.55933539417e-09
1.2077083729e-11
1.08367236428e-09
1.65122529098e-09
8.18151096061e-12
1.12069067258e-09
1.72041226478e-09
2.72386994564e-12
1.14381462438e-09
1.76391804475e-09
-3.26438347955e-12
1.15207899297e-09
1.77938877724e-09
-8.71843238103e-12
1.14382371156e-09
1.76390987965e-09
-1.26045724731e-11
1.12071245087e-09
1.72039580646e-09
-1.41683474591e-11
1.08371311113e-09
1.65120034626e-09
-1.31206860036e-11
1.03404074331e-09
1.55930135404e-09
-9.77262403727e-12
9.74102222067e-10
1.44914230741e-09
-5.09576124353e-12
9.08089688398e-10
1.32618003439e-09
8.42451026375e-10
1.19590781471e-09
-2.94853540066e-13
9.11694124117e-12
9.91486161324e-10
1.34063789237e-09
-3.4373676236e-14
1.62137236913e-11
1.06575217269e-09
1.48919532593e-09
2.06473854897e-11
1.1389152323e-09
1.6288781487e-09
2.15256092535e-11
1.2049172601e-09
1.75365846982e-09
1.86495226142e-11
1.25936730996e-09
1.85752535994e-09
1.25130145865e-11
1.29978455786e-09
1.93559774e-09
4.19437129951e-12
1.32497447598e-09
1.98460342983e-09
-4.86483745605e-12
1.33396773542e-09
2.00197670557e-09
-1.31762193883e-11
1.3249846234e-09
1.98459420622e-09
-1.92961543419e-11
1.29980752842e-09
1.93557922539e-09
-2.21421262253e-11
1.25940752506e-09
1.85749751536e-09
-2.12150528702e-11
1.20497715534e-09
1.7536209653e-09
-1.67130439701e-11
1.13898885719e-09
1.62882963294e-09
-9.53255334741e-12
1.06581580337e-09
1.48912908899e-09
9.91496290224e-10
1.34053662814e-09
-3.63632859142e-13
1.38269725402e-11
1.10071604127e-09
1.444740765e-09
-4.03554740289e-14
2.36087199305e-11
1.1802930426e-09
1.60803498017e-09
2.92142340941e-11
1.25679926969e-09
1.76088439976e-09
2.98803615758e-11
1.32528676523e-09
1.89696885437e-09
2.55812652387e-11
1.38146551641e-09
2.0099546012e-09
1.70593931228e-11
1.42299576717e-09
2.09471312483e-09
5.73715743103e-12
1.44881028748e-09
2.14780789203e-09
-6.53340238448e-12
1.45801264545e-09
2.16656795392e-09
-1.78446750073e-11
1.448819622e-09
2.14779766311e-09
-2.63429208405e-11
1.42301619619e-09
2.09469271033e-09
-3.0602430909e-11
1.38149993047e-09
2.00992421909e-09
-2.98770434936e-11
1.32533643967e-09
1.89692862184e-09
-2.41923527057e-11
1.25685971559e-09
1.76083363273e-09
-1.43163857694e-11
1.18034153856e-09
1.60796725678e-09
1.10071553963e-09
1.4446386596e-09
-4.32002087435e-13
1.86168399187e-11
1.16714238188e-09
1.51075671929e-09
-4.57802172254e-14
3.11611837119e-11
1.24880249338e-09
1.6855002933e-09
3.79251644721e-11
1.32518569411e-09
1.84826270787e-09
3.83227485572e-11
1.39296243526e-09
1.99263208537e-09
3.2545095483e-11
1.44817903106e-09
2.11215101203e-09
2.16080032159e-11
1.48880282732e-09
2.20160996527e-09
7.27903869809e-12
1.51397378119e-09
2.25752173496e-09
-8.19532785247e-12
1.52292773487e-09
2.27720390834e-09
-2.25098500319e-11
1.51398055857e-09
2.25751038388e-09
-3.34167332644e-11
1.48881733589e-09
2.20158746575e-09
-3.91460778641e-11
1.44820284674e-09
2.11211793702e-09
-3.86796635832e-11
1.39299600517e-09
1.99258914935e-09
-3.18268831285e-11
1.32522586744e-09
1.84821004973e-09
-1.91785434026e-11
1.24882883971e-09
1.68543178594e-09
1.1671239117e-09
1.51065503602e-09
-4.99256330229e-13
2.32777912725e-11
1.19114909639e-09
1.54135219707e-09
-5.07138117935e-14
3.85622338011e-11
1.27201164498e-09
1.72460820181e-09
4.64371053585e-11
1.34537433726e-09
1.89440829369e-09
4.65336709704e-11
1.40980537965e-09
2.04441099957e-09
3.92864187264e-11
1.46187166597e-09
2.16820103652e-09
2.59958279375e-11
1.49996386847e-09
2.26062760367e-09
8.764291234e-12
1.5234772324e-09
2.31824786592e-09
-9.79392084335e-12
1.53181685511e-09
2.33844711539e-09
-2.70079051595e-11
1.52347980943e-09
2.31823509423e-09
-4.02624364263e-11
1.49996932462e-09
2.26060246356e-09
-4.74536663882e-11
1.46188053447e-09
2.16816454112e-09
-4.7279776928e-11
1.40981764361e-09
2.04436459018e-09
-3.93074681988e-11
1.34538804609e-09
1.89435305356e-09
-2.3910222675e-11
1.27200879515e-09
1.72453828059e-09
1.19110576791e-09
1.54125074766e-09
-5.64785758031e-13
2.7659768644e-11
1.17561825194e-09
1.53938958988e-09
-5.49276033913e-14
4.55773251936e-11
1.25326571202e-09
1.72861293578e-09
5.44929141193e-11
1.3213723134e-09
1.90299601121e-09
5.42804335188e-11
1.38046505789e-09
2.05638485894e-09
4.56252295201e-11
1.42776772136e-09
2.18253586893e-09
3.01103839069e-11
1.46215498137e-09
2.27646991469e-09
1.01549663284e-11
1.48328791106e-09
2.33486542942e-09
-1.12905807978e-11
1.4907526252e-09
2.35524026684e-09
-3.12257490106e-11
1.48328502242e-09
2.334850767e-09
-4.66994967378e-11
1.46214896925e-09
2.27644122099e-09
-5.52920163226e-11
1.42775823295e-09
2.18249465987e-09
-5.54198042947e-11
1.38045159749e-09
2.0563334113e-09
-4.6399140257e-11
1.3213538773e-09
1.90293646698e-09
-2.83607039207e-11
1.25322672208e-09
1.72853973206e-09
1.17554163169e-09
1.53928688378e-09
-6.28118292899e-13
3.16680796568e-11
1.12518942701e-09
1.50787128215e-09
-5.863462003e-14
5.20495324676e-11
1.19771338113e-09
1.70093683591e-09
6.19300269648e-11
1.25898255156e-09
1.87789321321e-09
6.14268701211e-11
1.31138576063e-09
2.0328382349e-09
5.14639631622e-11
1.35289328303e-09
2.15979550322e-09
3.38941733077e-11
1.38286222431e-09
2.25404875239e-09
1.1432413854e-11
1.40118885165e-09
2.31245985097e-09
-1.26659207624e-11
1.40762558873e-09
2.33273153938e-09
-3.51051189062e-11
1.40117953277e-09
2.31244269544e-09
-5.26295378072e-11
1.38284286459e-09
2.25401530454e-09
-6.2524135107e-11
1.35286282487e-09
2.15974780814e-09
-6.29362945591e-11
1.31134317898e-09
2.0327794889e-09
-5.29440398517e-11
1.2589273321e-09
1.87782675842e-09
-3.24345896282e-11
1.19763195696e-09
1.70085749043e-09
1.12507188882e-09
1.50776476274e-09
-6.88605179104e-13
3.52618446199e-11
1.04564183694e-09
1.44986961568e-09
-6.1730886696e-14
5.79138178818e-11
1.11161724843e-09
1.64509517326e-09
6.87057757789e-11
1.16503959693e-09
1.82306993496e-09
6.79576086288e-11
1.20999808973e-09
1.97814594455e-09
5.68039760586e-11
1.24523287973e-09
2.10468839766e-09
3.73535488396e-11
1.27050940022e-09
2.19832424989e-09
1.25999593428e-11
1.28588593308e-09
2.25615128671e-09
-1.39222003646e-11
1.29124406455e-09
2.27609900154e-09
-3.86512234459e-11
1.28586936397e-09
2.25613098511e-09
-5.80525636424e-11
1.27047530575e-09
2.19828471162e-09
-6.91331098369e-11
1.24517940548e-09
2.10463216209e-09
-6.97849231251e-11
1.20992371636e-09
1.97807716442e-09
-5.88755186845e-11
1.16494367043e-09
1.82299336424e-09
-3.60893384325e-11
1.11148811749e-09
1.64500632255e-09
1.04547622934e-09
1.44975615954e-09
-7.45540315284e-13
3.84920146075e-11
9.433469769e-10
1.36845232796e-09
-6.41233879706e-14
6.32743454709e-11
1.00174090508e-09
1.56463890049e-09
7.49761564049e-11
1.04678043238e-09
1.74252606121e-09
7.40360592784e-11
1.08409754489e-09
1.89666767986e-09
6.17805985116e-11
1.11310114615e-09
2.02186016091e-09
4.05760939362e-11
1.13381259956e-09
2.11415750303e-09
1.36883208267e-11
1.14634857936e-09
2.17093881997e-09
-1.50886666974e-11
1.15066832737e-09
2.19039209331e-09
-4.19499267638e-11
1.14632398901e-09
2.17091481056e-09
-6.31020261913e-11
1.13376216016e-09
2.11411067507e-09
-7.52800677757e-11
1.11302278931e-09
2.02179341194e-09
-7.61192699209e-11
1.08398888876e-09
1.89658602969e-09
-6.42952121318e-11
1.0466405001e-09
1.74243595817e-09
-3.93735598967e-11
1.00155895053e-09
1.56453741225e-09
9.4312619835e-10
1.36832959213e-09
-7.95770652202e-13
4.15530336018e-11
8.24771468368e-10
1.2666096436e-09
-6.57111561643e-14
6.84335816669e-11
8.74837935331e-10
1.4631566606e-09
8.11204740722e-11
9.11335461366e-10
1.64024183948e-09
8.00177785025e-11
9.41385706219e-10
1.79264545151e-09
6.66717525382e-11
9.64695618162e-10
1.9157685354e-09
4.37371796093e-11
9.81328876979e-10
2.00617823827e-09
1.47577310707e-11
9.91353090559e-10
2.06156602213e-09
-1.6223735673e-11
9.94753225089e-10
2.08039670868e-09
-4.51747543029e-11
9.91319245579e-10
2.06153805827e-09
-6.80534002433e-11
9.81260147718e-10
2.00612351165e-09
-8.13179106124e-11
9.64589822085e-10
1.91569002547e-09
-8.23154615357e-11
9.41240359085e-10
1.79254864183e-09
-6.95030004158e-11
9.11148547864e-10
1.64013492754e-09
-4.24794702817e-11
8.74598834453e-10
1.46304011202e-09
8.24491408307e-10
1.26647761859e-09
-8.40075772298e-13
4.2132113008e-11
1.14717583939e-09
-6.74427857288e-14
6.98981534403e-10
7.2566551329e-11
1.34438168665e-09
7.36049459917e-10
8.69839417561e-11
1.52001473422e-09
7.64958998442e-10
8.6070312883e-11
1.6700101877e-09
7.8891412583e-10
7.17604228578e-11
1.79052545225e-09
8.07622093567e-10
4.70773376693e-11
1.87866773111e-09
8.21048539023e-10
1.59013901152e-11
1.93243172903e-09
8.2912364649e-10
-1.74189299181e-11
1.95055567567e-09
8.31805041643e-10
-4.85641036494e-11
1.93240034083e-09
8.29078724888e-10
-7.31872380357e-11
1.87860607851e-09
8.2095795059e-10
-8.74105302935e-11
1.79043628292e-09
8.07484421219e-10
-8.8214485292e-11
1.66989864223e-09
7.88727289814e-10
-7.36675649386e-11
1.51989018269e-09
7.64720655558e-10
-4.308929637e-11
1.3442458176e-09
7.35750118997e-10
1.14704302028e-09
-8.72134047905e-13
6.98635447666e-10
1.34385304689e-12
-9.80202571089e-12
1.8140414055e-10
-1.75908845844e-15
2.14603339663e-12
-1.10869556747e-11
2.00862443594e-10
2.56130022665e-12
-1.2515828437e-11
2.19443449957e-10
2.56207136843e-12
-1.37918414982e-11
2.36249795712e-10
2.1633045499e-12
-1.48668784345e-11
2.50373381362e-10
1.43387986972e-12
-1.56783947689e-11
2.61066784227e-10
4.86050171511e-13
-1.61877960657e-11
2.67829926344e-10
-5.39513979029e-13
-1.63658617721e-11
2.70260299237e-10
-1.48498238824e-12
-1.61829720962e-11
2.67827449137e-10
-2.21037834732e-12
-1.56707010323e-11
2.61061846629e-10
-2.60539430191e-12
-1.48592280792e-11
2.50365993061e-10
-2.60264684105e-12
-1.37848229284e-11
2.36239899885e-10
-2.1816754624e-12
-1.25035307366e-11
2.19430783255e-10
-1.37416353531e-12
-1.1076555722e-11
2.00845803726e-10
-9.79347764448e-12
1.81379473755e-10
-2.35271076165e-14
3.24949545181e-12
-1.02998890002e-11
4.93991282393e-10
-2.06879400418e-15
5.40594740084e-12
-1.14810146036e-11
5.46611819204e-10
6.53802605837e-12
-1.28959830329e-11
5.96742183187e-10
6.58389365059e-12
-1.40687269712e-11
6.41983551402e-10
5.57889520738e-12
-1.49831011532e-11
6.79940333859e-10
3.70208266264e-12
-1.56311383395e-11
7.08644774826e-10
1.24800852725e-12
-1.60206119269e-11
7.26778292603e-10
-1.41038684396e-12
-1.61526482e-11
7.33278730642e-10
-3.85852209638e-12
-1.6009586533e-11
7.2677095848e-10
-5.72504758387e-12
-1.56123735505e-11
7.08630178083e-10
-6.71922475796e-12
-1.49618070859e-11
6.79918535282e-10
-6.66380911049e-12
-1.4046900131e-11
6.41954444354e-10
-5.5164223698e-12
-1.28669695031e-11
5.9670507101e-10
-3.34154570113e-12
-1.14529913954e-11
5.46563474058e-10
-1.02788957172e-11
4.93922998544e-10
-7.15255649992e-14
4.57935793258e-12
4.38277852992e-12
7.56997892399e-10
-2.72635624029e-15
7.79381293689e-12
5.26803023187e-12
8.38248518479e-10
9.51060045529e-12
5.94212942181e-12
9.15490363646e-10
9.61967729044e-12
6.81175754534e-12
9.85087878301e-10
8.16989857139e-12
7.73573915155e-12
1.04341417619e-09
5.4233491252e-12
8.54512474035e-12
1.08748760551e-09
1.81709916844e-12
9.09994014954e-12
1.11530008646e-09
-2.09219940124e-12
9.30633928298e-12
1.12524379589e-09
-5.68951046749e-12
9.11563979997e-12
1.1152882613e-09
-8.42024139291e-12
8.57262502189e-12
1.0874640934e-09
-9.85163784096e-12
7.76876917552e-12
1.04337913368e-09
-9.72328968838e-12
6.84723531391e-12
9.85041264797e-10
-7.98058352958e-12
5.98503339142e-12
9.15431351472e-10
-4.7343474512e-12
5.31051981483e-12
8.38172821795e-10
4.41250238479e-12
7.56894059619e-10
-1.22410460942e-13
5.56834355741e-12
3.08174329375e-11
9.76573987204e-10
-2.8267123356e-15
9.63451697186e-12
3.51442037249e-11
1.08273066927e-09
1.18497184095e-11
3.93851232758e-11
1.18340325337e-09
1.20350592878e-11
4.36815578087e-11
1.27395872107e-09
1.02438088e-11
4.7628336992e-11
1.34975959578e-09
6.80270244187e-12
5.08006253868e-11
1.40698821072e-09
2.26627423339e-12
5.28715128235e-11
1.4430603474e-09
-2.65501351047e-12
5.36171582375e-11
1.45592228205e-09
-7.17998276888e-12
5.28902462814e-11
1.44304449309e-09
-1.0600338248e-11
5.08343043561e-11
1.4069567272e-09
-1.2365577508e-11
4.76708678812e-11
1.34971279306e-09
-1.21507242078e-11
4.37287738243e-11
1.27389676946e-09
-9.89841777026e-12
3.94387242894e-11
1.18332554089e-09
-5.78825128771e-12
3.51962220255e-11
1.08263273657e-09
3.08541172892e-11
9.76443458559e-10
-1.7533734912e-13
6.38441004225e-12
6.5376583494e-11
1.15503891775e-09
-2.91473075463e-15
1.11702425517e-11
7.39362082915e-11
1.28264142194e-09
1.38161830397e-11
8.25903035566e-11
1.4033115577e-09
1.4075793778e-11
9.10860788107e-11
1.51164638044e-09
1.20005356126e-11
9.86942287697e-11
1.60220751315e-09
7.97032026735e-12
1.04703492833e-10
1.67051148932e-09
2.64070837984e-12
1.08583431094e-10
1.71350888428e-09
-3.14409719887e-12
1.0996942868e-10
1.72879665277e-09
-8.45989750794e-12
1.08603996713e-10
1.71348942746e-09
-1.24645529271e-11
1.0474107139e-10
1.67047291947e-09
-1.4506121692e-11
9.87429663204e-11
1.60215037497e-09
-1.42066705981e-11
9.11411026128e-11
1.51157122534e-09
-1.15121653414e-11
8.26509385337e-11
1.40321831937e-09
-6.67059954131e-12
7.3992703837e-11
1.28252599742e-09
6.54176384477e-11
1.15488892689e-09
-2.29925361391e-13
7.16159935778e-12
1.04241877184e-10
1.29459284522e-09
-3.06795479046e-15
1.25997558726e-11
1.17261247268e-10
1.44041169884e-09
1.56299088913e-11
1.30548197029e-10