/*--------------------------------*- C++ -*----------------------------------*\
  =========                 |
  \\      /  F ield         | OpenFOAM: The Open Source CFD Toolbox
   \\    /   O peration     | Website:  https://openfoam.org
    \\  /    A nd           | Version:  7
     \\/     M anipulation  |
\*---------------------------------------------------------------------------*/
FoamFile
{
    version     2.0;
    format      ascii;
    class       volScalarField;
    location    "2.38";
    object      p;
}
// * * * * * * * * * * * * * * * * * * * * * * * * * * * * * * * * * * * * * //

dimensions      [0 2 -2 0 0 0 0];

internalField   nonuniform List<scalar> 
22500
(
1.61372299557e-05
1.61322772748e-05
1.61316279832e-05
1.61302605571e-05
1.61294056854e-05
1.61287396704e-05
1.61283312139e-05
1.6128168993e-05
1.61282858957e-05
1.61286507137e-05
1.61292757664e-05
1.6130095636e-05
1.61314354501e-05
1.61320741712e-05
1.61370228507e-05
1.60609666804e-05
1.60520597043e-05
1.60480847743e-05
1.60438131738e-05
1.60406117257e-05
1.60382229597e-05
1.60367637309e-05
1.60362502757e-05
1.60367178691e-05
1.6038132852e-05
1.60404802686e-05
1.60436460401e-05
1.60478900637e-05
1.60518537306e-05
1.60607554848e-05
1.59862925313e-05
1.59736175783e-05
1.59667490135e-05
1.59598674015e-05
1.59545936524e-05
1.59506839483e-05
1.5948300139e-05
1.59474780343e-05
1.59482558777e-05
1.59505969873e-05
1.59544669741e-05
1.59597063295e-05
1.59665614262e-05
1.5973418327e-05
1.5986085267e-05
1.59193748615e-05
1.5903534054e-05
1.58944049882e-05
1.58855093852e-05
1.58786461827e-05
1.58735799507e-05
1.58704959499e-05
1.58694410644e-05
1.5870454071e-05
1.58734976598e-05
1.58785264551e-05
1.58853572756e-05
1.58942275914e-05
1.59033449597e-05
1.59191750057e-05
1.58566545216e-05
1.58380568476e-05
1.58270405946e-05
1.58165236821e-05
1.58083788979e-05
1.58023902579e-05
1.57987500361e-05
1.57975111382e-05
1.57987106375e-05
1.5802312861e-05
1.58082663414e-05
1.58163807425e-05
1.58268736864e-05
1.58378784392e-05
1.58564637613e-05
1.57974352856e-05
1.57764966647e-05
1.57639165571e-05
1.57521203458e-05
1.57429595008e-05
1.57362481291e-05
1.57321732541e-05
1.5730791177e-05
1.57321364516e-05
1.57361757997e-05
1.57428543454e-05
1.57519867669e-05
1.57637605432e-05
1.57763290322e-05
1.57972538228e-05
1.57420519767e-05
1.5719214217e-05
1.57053718602e-05
1.56926123493e-05
1.56826788031e-05
1.56754250051e-05
1.56710246322e-05
1.56695357661e-05
1.5670990372e-05
1.56753576633e-05
1.56825808869e-05
1.56924878905e-05
1.5705226375e-05
1.57190572472e-05
1.57418795132e-05
1.56905208231e-05
1.56662021879e-05
1.56513504524e-05
1.56378967023e-05
1.5627395696e-05
1.56197493324e-05
1.5615113977e-05
1.5613548403e-05
1.56150821568e-05
1.56196867894e-05
1.56273046932e-05
1.56377809288e-05
1.56512149653e-05
1.5666055182e-05
1.56903567143e-05
1.56426300851e-05
1.56172138755e-05
1.56015650742e-05
1.55876437622e-05
1.55767478681e-05
1.55688329727e-05
1.55640374501e-05
1.55624199799e-05
1.55640078986e-05
1.55687748664e-05
1.55766632633e-05
1.55875359324e-05
1.56014387143e-05
1.56170757775e-05
1.56424734433e-05
1.55981316621e-05
1.55719736268e-05
1.55557215737e-05
1.55415313051e-05
1.5530392714e-05
1.55223166223e-05
1.55174257948e-05
1.55157779203e-05
1.55173982978e-05
1.55222625254e-05
1.55303138548e-05
1.55414306033e-05
1.55556032889e-05
1.55718432508e-05
1.55979811824e-05
1.55567863444e-05
1.553022655e-05
1.55135680862e-05
1.54992900884e-05
1.54880477155e-05
1.54799067911e-05
1.54749790304e-05
1.54733201795e-05
1.54749533478e-05
1.54798562309e-05
1.54879738921e-05
1.54991955558e-05
1.55134567184e-05
1.55301025778e-05
1.55566406353e-05
1.5518352383e-05
1.54917558303e-05
1.54749162885e-05
1.54607167712e-05
1.5449495105e-05
1.54413749408e-05
1.54364628258e-05
1.54348105256e-05
1.54364387205e-05
1.54413273851e-05
1.54494255301e-05
1.54606273665e-05
1.54748105304e-05
1.54916367922e-05
1.55182101704e-05
1.54825190701e-05
1.54564114162e-05
1.54396727073e-05
1.54256888542e-05
1.54145886588e-05
1.54065622285e-05
1.54017121554e-05
1.54000825567e-05
1.54016893237e-05
1.54065171957e-05
1.54145224942e-05
1.54256034264e-05
1.54395710539e-05
1.54562956056e-05
1.54823785924e-05
1.54491457581e-05
1.54241723755e-05
1.54077516473e-05
1.5394072428e-05
1.538318216e-05
1.53753308364e-05
1.53705988305e-05
1.53690109998e-05
1.53705770631e-05
1.53752877587e-05
1.53831185312e-05
1.53939896145e-05
1.54076523756e-05
1.54240577516e-05
1.54490055453e-05
1.5420002289e-05
1.53945351263e-05
1.53786406437e-05
1.53652893366e-05
1.53547641454e-05
1.53472406082e-05
1.53427268818e-05
1.5341215691e-05
1.53427059132e-05
1.53471990335e-05
1.53547023633e-05
1.53652080803e-05
1.53785415076e-05
1.53944191177e-05
1.54198634583e-05
7.5313735965e-06
7.53391707599e-06
7.53591190689e-06
7.53782884874e-06
7.53949721735e-06
7.54078313963e-06
7.5416026755e-06
7.54188997407e-06
7.54162373071e-06
7.54082310838e-06
7.53955141882e-06
7.5378916914e-06
7.53598093139e-06
7.53399002199e-06
7.53144980931e-06
7.54102952096e-06
7.54400992566e-06
7.546426432e-06
7.54872641738e-06
7.55072419192e-06
7.55226056802e-06
7.553237623e-06
7.5535790245e-06
7.55325838252e-06
7.55229989272e-06
7.55077741897e-06
7.54878777092e-06
7.54649283203e-06
7.54408072148e-06
7.54110362606e-06
7.55408608825e-06
7.55812579746e-06
7.56142469984e-06
7.56454843074e-06
7.56724998641e-06
7.56932036976e-06
7.57063187692e-06
7.57108725168e-06
7.57065238678e-06
7.56935938214e-06
7.56730329166e-06
7.56461068104e-06
7.56149215872e-06
7.55819832685e-06
7.55416116263e-06
7.57142332891e-06
7.57725495256e-06
7.58196659095e-06
7.58638089163e-06
7.59016986743e-06
7.593058541e-06
7.59487884925e-06
7.5955068111e-06
7.59489897661e-06
7.59309703439e-06
7.59022306243e-06
7.58644399897e-06
7.58203546873e-06
7.57732916451e-06
7.5714994169e-06
7.59371203713e-06
7.60191301607e-06
7.60841185418e-06
7.61442433317e-06
7.61953824804e-06
7.62341343072e-06
7.62584222178e-06
7.62667572049e-06
7.62586181691e-06
7.62345102565e-06
7.61959062343e-06
7.61448716072e-06
7.60848105289e-06
7.60198771271e-06
7.5937883015e-06
7.62043249146e-06
7.63133800458e-06
7.63979091415e-06
7.64751427267e-06
7.65402351001e-06
7.65892567098e-06
7.66198253251e-06
7.66302720331e-06
7.6620012973e-06
7.65896178509e-06
7.65407417891e-06
7.64757564676e-06
7.63985907829e-06
7.63141212793e-06
7.6205073646e-06
7.65057601708e-06
7.66428606775e-06
7.67468183991e-06
7.68406595918e-06
7.69190629306e-06
7.69777567519e-06
7.70141835771e-06
7.70265896843e-06
7.7014360811e-06
7.6978098822e-06
7.69195453671e-06
7.68412486247e-06
7.67474769859e-06
7.66435832282e-06
7.65064844755e-06
7.68306091054e-06
7.69947317737e-06
7.71166736355e-06
7.72254397003e-06
7.73155761988e-06
7.73826706101e-06
7.74241270879e-06
7.74382046997e-06
7.74242919839e-06
7.73829896334e-06
7.73160283743e-06
7.72259957649e-06
7.71173004299e-06
7.69954236884e-06
7.68313019967e-06
7.71688055127e-06
7.73573572797e-06
7.74949578985e-06
7.76162249617e-06
7.77159685611e-06
7.77898169505e-06
7.7835257861e-06
7.78506484621e-06
7.78354094946e-06
7.7790110835e-06
7.7716386828e-06
7.76167421268e-06
7.74955453666e-06
7.73580101856e-06
7.71694569449e-06
7.75116053542e-06
7.77209003433e-06
7.78713226654e-06
7.80023012879e-06
7.81092908903e-06
7.81881043803e-06
7.82364110517e-06
7.82527336198e-06
7.82365490047e-06
7.81883722239e-06
7.81096734767e-06
7.80027769456e-06
7.78718669855e-06
7.77215092794e-06
7.75122107892e-06
7.78517996021e-06
7.80774519182e-06
7.82376103875e-06
7.83754333736e-06
7.8487295584e-06
7.85693011683e-06
7.86193750359e-06
7.86362574535e-06
7.8619499825e-06
7.85695439309e-06
7.8487643332e-06
7.83758673415e-06
7.82381101817e-06
7.80780144314e-06
7.78523540805e-06
7.81834938948e-06
7.84207477389e-06
7.8587550165e-06
7.87295240385e-06
7.88440414142e-06
7.89275851144e-06
7.89784058711e-06
7.89955024728e-06
7.8978518938e-06
7.8927805125e-06
7.88443576816e-06
7.87299196915e-06
7.85880079748e-06
7.84212640573e-06
7.81839979068e-06
7.85017010584e-06
7.87460502362e-06
7.89167141825e-06
7.90604465612e-06
7.91755875396e-06
7.92591341075e-06
7.93097532241e-06
7.93267451912e-06
7.93098562897e-06
7.92593359356e-06
7.91758776513e-06
7.90608106056e-06
7.8917135864e-06
7.87465254507e-06
7.85021576984e-06
7.88055004165e-06
7.90534315418e-06
7.92242967876e-06
7.93669783284e-06
7.94802440839e-06
7.95619160607e-06
7.96111972974e-06
7.96277029127e-06
7.96112929472e-06
7.95621032707e-06
7.94805145824e-06
7.93673173254e-06
7.92246909744e-06
7.90538707675e-06
7.88059157524e-06
7.91115562082e-06
7.93434146028e-06
7.95092906868e-06
7.96475383655e-06
7.97556868189e-06
7.98331095298e-06
7.98796407816e-06
7.98951956734e-06
7.98797296681e-06
7.98332852274e-06
7.9755941787e-06
7.96478604048e-06
7.95096631678e-06
7.93438253995e-06
7.91119485685e-06
9.2876625118e-06
9.28715427024e-06
9.28627823972e-06
9.28529029175e-06
9.28433993846e-06
9.2835687537e-06
9.28306644582e-06
9.28289139519e-06
9.2830656263e-06
9.28356800046e-06
9.28434079437e-06
9.28529340531e-06
9.28627807823e-06
9.28715266758e-06
9.28765430678e-06
9.28906550744e-06
9.28862202065e-06
9.28780536918e-06
9.28687329752e-06
9.28596472374e-06
9.28522203271e-06
9.28473574213e-06
9.28456567877e-06
9.2847345778e-06
9.28522053219e-06
9.28596440341e-06
9.28687475342e-06
9.28780414263e-06
9.28861846678e-06
9.28905611363e-06
9.2908638005e-06
9.29050841325e-06
9.289766338e-06
9.28890632663e-06
9.28805268674e-06
9.28734945552e-06
9.2868865874e-06
9.28672436735e-06
9.28688564723e-06
9.28734827616e-06
9.28805252223e-06
9.28890761357e-06
9.28976556051e-06
9.29050507923e-06
9.29085482029e-06
9.29215959273e-06
9.29187278748e-06
9.29118160759e-06
9.29037916694e-06
9.28957211871e-06
9.2889044953e-06
9.28846393645e-06
9.28830947517e-06
9.28846336471e-06
9.28890388743e-06
9.28957236477e-06
9.29038057887e-06
9.29118148233e-06
9.29187046043e-06
9.29215099427e-06
9.29313498305e-06
9.29294489456e-06
9.29232228511e-06
9.29160274546e-06
9.2908685851e-06
9.29025889931e-06
9.28985559956e-06
9.28971408877e-06
9.28985528907e-06
9.29025871329e-06
9.29086918269e-06
9.29160430796e-06
9.29232254917e-06
9.29294341904e-06
9.29312680848e-06
9.29410211776e-06
9.2940760672e-06
9.29356994609e-06
9.29298500285e-06
9.29237076516e-06
9.29185592094e-06
9.29151349545e-06
9.29139302451e-06
9.29151340306e-06
9.29185606456e-06
9.29237159314e-06
9.29298660774e-06
9.29357051465e-06
9.29407494255e-06
9.29409456862e-06
9.29526937324e-06
9.29548715832e-06
9.29515375295e-06
9.29475784738e-06
9.29431135704e-06
9.29392770195e-06
9.29366891532e-06
9.29357720828e-06
9.29366895049e-06
9.29392803095e-06
9.2943122766e-06
9.29475936282e-06
9.29515440733e-06
9.29548618864e-06
9.29526208021e-06
9.29676318451e-06
9.29729866408e-06
9.29718791183e-06
9.29702432241e-06
9.296782428e-06
9.29655694513e-06
9.29639832707e-06
9.29634092767e-06
9.29639840498e-06
9.29655729766e-06
9.29678321657e-06
9.29702547564e-06
9.29718827214e-06
9.29729751464e-06
9.2967556827e-06
9.2986469217e-06
9.29955396244e-06
9.29970120025e-06
9.29979502187e-06
9.29977821848e-06
9.29972494806e-06
9.29967467455e-06
9.29965425278e-06
9.29967470991e-06
9.29972516016e-06
9.29977868565e-06
9.29979559407e-06
9.29970091921e-06
9.29955224586e-06
9.29863892735e-06
9.30093051384e-06
9.30223374888e-06
9.30265585979e-06
9.30301228857e-06
9.30322367549e-06
9.30334338647e-06
9.30340131716e-06
9.30341771233e-06
9.3034012234e-06
9.303343304e-06
9.30322360178e-06
9.30301201994e-06
9.30265460641e-06
9.30223103976e-06
9.30092167883e-06
9.30358190728e-06
9.30527279736e-06
9.30596768028e-06
9.30657426823e-06
9.30700184236e-06
9.30728422099e-06
9.30744334327e-06
9.30749410939e-06
9.30744306697e-06
9.30728374744e-06
9.30700111943e-06
9.30657302593e-06
9.30596529124e-06
9.30526888418e-06
9.30357197109e-06
9.3065319653e-06
9.30857177727e-06
9.3095224535e-06
9.31035498807e-06
9.31097632904e-06
9.31140349393e-06
9.31165235475e-06
9.31173349067e-06
9.31165187595e-06
9.31140257718e-06
9.3109748903e-06
9.3103527405e-06
9.30951886435e-06
9.30856664071e-06
9.3065209815e-06
9.30967757838e-06
9.31201749155e-06
9.31320052484e-06
9.31422680078e-06
9.31501180404e-06
9.31556100796e-06
9.31588527412e-06
9.3159920521e-06
9.31588458445e-06
9.31555966789e-06
9.31500972261e-06
9.31422361911e-06
9.31319584824e-06
9.31201117349e-06
9.3096655274e-06
9.31303340543e-06
9.31562408557e-06
9.31695537826e-06
9.31811103431e-06
9.31900520836e-06
9.31963776391e-06
9.3200146814e-06
9.32013929722e-06
9.32001378903e-06
9.3196360872e-06
9.3190025441e-06
9.31810710488e-06
9.31694981562e-06
9.31561672202e-06
9.3130206371e-06
9.31729841957e-06
9.31931478515e-06
9.32063778219e-06
9.32183054427e-06
9.32275987008e-06
9.323425786e-06
9.32382553836e-06
9.32395824158e-06
9.32382446895e-06
9.32342370697e-06
9.32275672088e-06
9.32182594745e-06
9.3206313684e-06
9.31930624706e-06
9.31728523138e-06
6.6574535301e-06
6.65790644368e-06
6.65850543343e-06
6.65912797382e-06
6.65969703074e-06
6.66014986149e-06
6.66044173247e-06
6.66054522379e-06
6.6604497665e-06
6.66016469063e-06
6.65971591859e-06
6.6591463435e-06
6.65852041824e-06
6.65791407156e-06
6.65745926572e-06
6.65810419356e-06
6.65857049471e-06
6.65918793586e-06
6.65982866693e-06
6.66041736889e-06
6.66088739175e-06
6.66119111007e-06
6.66129895064e-06
6.66119940318e-06
6.66090268509e-06
6.66043678674e-06
6.65984750734e-06
6.65920261416e-06
6.65857811806e-06
6.65810843097e-06
6.65855616987e-06
6.65902244438e-06
6.65964527634e-06
6.66029016091e-06
6.66088628254e-06
6.66136356335e-06
6.66167254307e-06
6.66178217309e-06
6.66168038149e-06
6.66137801985e-06
6.660904664e-06
6.6603082908e-06
6.65965937089e-06
6.659030692e-06
6.65856027468e-06
6.65896328085e-06
6.6594322946e-06
6.66006280852e-06
6.66071020872e-06
6.6613105476e-06
6.66179193011e-06
6.66210381971e-06
6.66221429432e-06
6.66211098338e-06
6.66180513154e-06
6.66132734144e-06
6.66072695757e-06
6.66007603209e-06
6.65944044696e-06
6.65896733473e-06
6.6593744446e-06
6.65984893934e-06
6.6604911318e-06
6.66114183552e-06
6.6617459581e-06
6.66223083566e-06
6.6625450412e-06
6.66265615026e-06
6.66255154734e-06
6.66224281116e-06
6.66176124634e-06
6.66115717123e-06
6.66050352076e-06
6.65985671811e-06
6.65937838478e-06
6.65978914478e-06
6.66027393032e-06
6.66093483623e-06
6.6615930204e-06
6.66220415056e-06
6.66269467934e-06
6.66301247958e-06
6.66312457829e-06
6.66301823195e-06
6.66270526359e-06
6.66221765892e-06
6.66160665759e-06
6.66094592678e-06
6.66028136922e-06
6.65979236018e-06
6.66022359275e-06
6.66073150365e-06
6.66142191291e-06
6.66209683116e-06
6.66272235213e-06
6.66322391778e-06
6.66354855196e-06
6.66366270833e-06
6.66355353755e-06
6.66323309944e-06
6.66273407815e-06
6.66210875592e-06
6.66143162586e-06
6.66073841775e-06
6.66022620647e-06
6.66070900557e-06
6.66125987774e-06
6.6619932445e-06
6.6626971176e-06
6.66334622154e-06
6.66386529771e-06
6.6642005296e-06
6.66431797909e-06
6.6642047208e-06
6.66387301219e-06
6.66335610087e-06
6.66270723e-06
6.66200162443e-06
6.66126607205e-06
6.66071126985e-06
6.66127655422e-06
6.66189320475e-06
6.66268249185e-06
6.66342627607e-06
6.66410656035e-06
6.66464800187e-06
6.66499647984e-06
6.66511805892e-06
6.66499992786e-06
6.66465434891e-06
6.66411472031e-06
6.66343468556e-06
6.66268959492e-06
6.6618986833e-06
6.6612782932e-06
6.66194827379e-06
6.6626530473e-06
6.66350714841e-06
6.664297305e-06
6.66501196346e-06
6.66557690053e-06
6.66593884088e-06
6.66606453367e-06
6.66594160511e-06
6.66558200077e-06
6.66501854114e-06
6.66430417124e-06
6.66351308873e-06
6.66265790069e-06
6.66194953432e-06
6.66273558886e-06
6.66354626743e-06
6.66446758702e-06
6.66530406043e-06
6.66605036808e-06
6.6666353818e-06
6.66700806642e-06
6.66713691195e-06
6.66701025936e-06
6.66663942885e-06
6.66605561992e-06
6.66530957236e-06
6.66447246795e-06
6.663550418e-06
6.66273620865e-06
6.6636339506e-06
6.66456270989e-06
6.66554798722e-06
6.66642477394e-06
6.66719487168e-06
6.66779248298e-06
6.66817077873e-06
6.66830092767e-06
6.66817252595e-06
6.66779571418e-06
6.66719905919e-06
6.6664292187e-06
6.66555196235e-06
6.66456613577e-06
6.66363380672e-06
6.66462148432e-06
6.66568143179e-06
6.66672509448e-06
6.66763116592e-06
6.66841303897e-06
6.66901311868e-06
6.66939009632e-06
6.66951929309e-06
6.66939152702e-06
6.66901574607e-06
6.66841650484e-06
6.66763479783e-06
6.66672836756e-06
6.66568417094e-06
6.66462060608e-06
6.66576370014e-06
6.66696706113e-06
6.66802183752e-06
6.66892175111e-06
6.66968684315e-06
6.6702679789e-06
6.67063069637e-06
6.67075436624e-06
6.67063189978e-06
6.67027028735e-06
6.66968981705e-06
6.6689249158e-06
6.6680246289e-06
6.66696915697e-06
6.66576197612e-06
6.66770198773e-06
6.66859953431e-06
6.66950759841e-06
6.67029519773e-06
6.67096561801e-06
6.67147330371e-06
6.67178900524e-06
6.67189651203e-06
6.67179011726e-06
6.67147538256e-06
6.67096841176e-06
6.6702981371e-06
6.66951011803e-06
6.66860108488e-06
6.66770011381e-06
6.17267453355e-06
6.17252846285e-06
6.17235239334e-06
6.17213248811e-06
6.17192564713e-06
6.17175471038e-06
6.17164112866e-06
6.17159950969e-06
6.17163607035e-06
6.17174588125e-06
6.17191537901e-06
6.17212086536e-06
6.1723367362e-06
6.17251158454e-06
6.1726505506e-06
6.17316062682e-06
6.1730342475e-06
6.172873763e-06
6.17266698104e-06
6.17246992056e-06
6.17230525839e-06
6.17219520182e-06
6.17215468684e-06
6.17219004005e-06
6.17229618145e-06
6.17245916877e-06
6.17265492549e-06
6.17285793676e-06
6.17301623647e-06
6.1731360576e-06
6.17373877359e-06
6.17363163623e-06
6.17349065001e-06
6.17329794485e-06
6.17311116226e-06
6.17295296295e-06
6.17284664628e-06
6.17280741665e-06
6.17284162747e-06
6.17294400828e-06
6.17310024047e-06
6.17328559582e-06
6.17347516236e-06
6.17361369779e-06
6.17371491825e-06
6.1741805777e-06
6.17407775921e-06
6.17394675889e-06
6.17375828939e-06
6.17357392738e-06
6.1734163624e-06
6.17331029089e-06
6.1732712209e-06
6.1733054973e-06
6.17340766245e-06
6.17356293281e-06
6.17374578244e-06
6.17393166094e-06
6.17406050063e-06
6.17415741486e-06
6.17449996703e-06
6.17439243421e-06
6.17426547956e-06
6.1740755069e-06
6.17388944492e-06
6.17372992783e-06
6.17362256324e-06
6.17358314142e-06
6.17361799891e-06
6.17372155359e-06
6.17387863717e-06
6.17406311864e-06
6.17425079469e-06
6.17437600944e-06
6.17447750973e-06
6.17473573e-06
6.17462178508e-06
6.17449770134e-06
6.1743059591e-06
6.1741186664e-06
6.1739580615e-06
6.1738501369e-06
6.17381065693e-06
6.17384584552e-06
6.17395010874e-06
6.17410819022e-06
6.17429385514e-06
6.17448355651e-06
6.17460584877e-06
6.17471432642e-06
6.17491615398e-06
6.17479895436e-06
6.1746818195e-06
6.17449285835e-06
6.1743089593e-06
6.17415144697e-06
6.17404576247e-06
6.17400721701e-06
6.17404176165e-06
6.17414398028e-06
6.17429897809e-06
6.17448120194e-06
6.17466832904e-06
6.1747835988e-06
6.17489560358e-06
6.17506850514e-06
6.17495712373e-06
6.17485554357e-06
6.17467821548e-06
6.17450596098e-06
6.17435841961e-06
6.17425948082e-06
6.17422344016e-06
6.17425578364e-06
6.17435146752e-06
6.17449651645e-06
6.17466700966e-06
6.17484256638e-06
6.1749422722e-06
6.17504849804e-06
6.1752217907e-06
6.17513065982e-06
6.1750563918e-06
6.17490264643e-06
6.17475272718e-06
6.17462378114e-06
6.1745371183e-06
6.17450548832e-06
6.17453371359e-06
6.174617327e-06
6.17474383649e-06
6.17489191215e-06
6.17504384326e-06
6.17511621544e-06
6.17520227441e-06
6.17540442425e-06
6.17535130883e-06
6.17531715499e-06
6.17519986226e-06
6.17508339337e-06
6.17498178623e-06
6.17491297495e-06
6.17488763869e-06
6.17490982453e-06
6.17497577289e-06
6.17507496734e-06
6.17518948511e-06
6.17530486308e-06
6.17533703218e-06
6.17538527376e-06
6.1756402768e-06
6.17564329718e-06
6.17566066817e-06
6.17559120588e-06
6.17551779673e-06
6.17545102661e-06
6.1754047337e-06
6.17538729368e-06
6.17540179772e-06
6.17544537076e-06
6.17550976929e-06
6.17558110246e-06
6.17564856252e-06
6.1756290977e-06
6.1756213988e-06
6.17594287876e-06
6.17601837704e-06
6.17609568936e-06
6.17608236725e-06
6.17605912189e-06
6.17603254027e-06
6.17601220045e-06
6.1760037337e-06
6.17600942674e-06
6.17602716476e-06
6.17605134387e-06
6.17607245726e-06
6.17608366543e-06
6.17600427883e-06
6.17592435048e-06
6.17631535966e-06
6.17647740017e-06
6.17661869801e-06
6.17666536264e-06
6.17669596115e-06
6.17671282726e-06
6.17672025338e-06
6.17672153012e-06
6.17671760165e-06
6.17670759168e-06
6.17668840634e-06
6.17665550042e-06
6.17660672079e-06
6.17646333087e-06
6.1762971588e-06
6.17681436051e-06
6.1770695562e-06
6.17724734923e-06
6.17733951834e-06
6.17741569931e-06
6.17747021348e-06
6.177502371e-06
6.17751206428e-06
6.17749975241e-06
6.17746514905e-06
6.17740816889e-06
6.17732975791e-06
6.17723531885e-06
6.17705548314e-06
6.176796603e-06
6.17780598198e-06
6.1778802177e-06
6.17799896895e-06
6.17808151088e-06
6.17816492409e-06
6.17823038108e-06
6.17827078298e-06
6.17828363763e-06
6.17826821543e-06
6.17822528474e-06
6.17815745441e-06
6.17807160941e-06
6.17798676967e-06
6.17786566836e-06
6.17778840592e-06
4.88136334958e-06
4.88146932964e-06
4.88160771648e-06
4.88174854505e-06
4.88187767775e-06
4.88198018826e-06
4.88204717292e-06
4.88207242189e-06
4.88205340386e-06
4.88199170095e-06
4.88189258055e-06
4.88176434722e-06
4.88162261275e-06
4.88148011145e-06
4.88137409421e-06
4.88171032042e-06
4.88182644751e-06
4.88197642692e-06
4.88212710471e-06
4.88226554206e-06
4.8823756352e-06
4.88244766007e-06
4.88247476499e-06
4.88245416988e-06
4.88238766132e-06
4.88228106481e-06
4.88214344979e-06
4.88199141286e-06
4.88183754288e-06
4.88171997171e-06
4.88203027644e-06
4.8821547314e-06
4.88231504191e-06
4.8824733215e-06
4.88261911712e-06
4.8827348183e-06
4.88281037701e-06
4.8828385585e-06
4.88281649752e-06
4.88274613006e-06
4.88263375499e-06
4.88248894726e-06
4.8823294034e-06
4.88216629075e-06
4.88203976048e-06
4.88231034581e-06
4.88244299118e-06
4.88261286515e-06
4.88277756281e-06
4.88292918811e-06
4.88304920773e-06
4.8831273845e-06
4.8831562601e-06
4.88313296025e-06
4.88305952145e-06
4.88294256717e-06
4.88279196742e-06
4.88262632172e-06
4.88245425788e-06
4.88231979637e-06
4.88257242518e-06
4.88271335239e-06
4.8828930757e-06
4.8830638595e-06
4.88322072793e-06
4.88334458463e-06
4.88342500747e-06
4.88345447096e-06
4.88343007201e-06
4.88335395726e-06
4.88323295438e-06
4.88307711847e-06
4.88290576385e-06
4.88272416512e-06
4.88258172441e-06
4.88282344331e-06
4.88297254664e-06
4.88316320976e-06
4.88333978775e-06
4.88350161049e-06
4.88362899604e-06
4.88371146512e-06
4.88374142639e-06
4.88371600569e-06
4.8836374128e-06
4.88351262376e-06
4.88335179755e-06
4.88317480141e-06
4.88298296274e-06
4.88283203799e-06
4.88306554946e-06
4.88322441292e-06
4.88342694589e-06
4.88360974853e-06
4.88377676558e-06
4.88390781586e-06
4.8839923855e-06
4.88402286226e-06
4.88399640941e-06
4.88391530021e-06
4.8837866088e-06
4.88362058963e-06
4.88343749542e-06
4.88323434738e-06
4.88307356269e-06
4.88330333528e-06
4.88347500056e-06
4.88369085621e-06
4.88388109802e-06
4.88405405495e-06
4.884189344e-06
4.88427634134e-06
4.88430745871e-06
4.8842798666e-06
4.88419591891e-06
4.88406275895e-06
4.88389077866e-06
4.88370044081e-06
4.88348430714e-06
4.88331102058e-06
4.88354354414e-06
4.88373187074e-06
4.88396323149e-06
4.88416265064e-06
4.88434278547e-06
4.88448326067e-06
4.88457326209e-06
4.88460523161e-06
4.88457633557e-06
4.88448901206e-06
4.88435047482e-06
4.88417131518e-06
4.88397200167e-06
4.88374064559e-06
4.88355076695e-06
4.88379330591e-06
4.8840036635e-06
4.88425294467e-06
4.8844633766e-06
4.88465197338e-06
4.88479855561e-06
4.88489215294e-06
4.88492517309e-06
4.88489482096e-06
4.88480358339e-06
4.88465874809e-06
4.88447115185e-06
4.88426100904e-06
4.88401200388e-06
4.88380016695e-06
4.88406066134e-06
4.88429914611e-06
4.88456810202e-06
4.88479080022e-06
4.88498855106e-06
4.88514180398e-06
4.88523929104e-06
4.88527350523e-06
4.88524163041e-06
4.88514622684e-06
4.88499459194e-06
4.88479782102e-06
4.8845755688e-06
4.88430703213e-06
4.88406703933e-06
4.88435093416e-06
4.88462407522e-06
4.88491360013e-06
4.88514889712e-06
4.88535592301e-06
4.88551577207e-06
4.88561717373e-06
4.88565254541e-06
4.88561924789e-06
4.88551974164e-06
4.88536134133e-06
4.88515533454e-06
4.88492054486e-06
4.88463148269e-06
4.88435674096e-06
4.884666949e-06
4.88498181686e-06
4.88529156239e-06
4.88553855464e-06
4.88575406786e-06
4.88592022615e-06
4.88602508837e-06
4.88606162637e-06
4.88602698868e-06
4.88592379185e-06
4.88575909514e-06
4.88554446712e-06
4.88529808117e-06
4.88498873608e-06
4.88467220325e-06
4.8850608887e-06
4.88542190175e-06
4.88572933997e-06
4.88597437834e-06
4.88618948435e-06
4.88635509385e-06
4.88645955033e-06
4.88649569661e-06
4.88646127508e-06
4.88635848531e-06
4.88619412051e-06
4.88598001262e-06
4.88573544936e-06
4.88542830514e-06
4.8850653925e-06
4.88586320914e-06
4.88607168717e-06
4.88629084307e-06
4.88647964315e-06
4.88665374785e-06
4.88678954996e-06
4.88687530989e-06
4.88690514875e-06
4.88687697746e-06
4.88679271946e-06
4.8866582346e-06
4.88648497603e-06
4.88629666425e-06
4.88607749168e-06
4.88586742175e-06
4.00555623192e-06
4.00555208155e-06
4.00555473428e-06
4.00554384404e-06
4.00552965304e-06
4.00551464299e-06
4.00550359445e-06
4.00549887698e-06
4.00550162003e-06
4.0055110398e-06
4.00552504236e-06
4.00553964866e-06
4.00555221061e-06
4.00555213096e-06
4.00555113658e-06
4.0058324299e-06
4.00583844084e-06
4.00584939822e-06
4.00584580096e-06
4.00583750515e-06
4.00582678155e-06
4.00581827082e-06
4.00581437899e-06
4.00581622293e-06
4.00582303143e-06
4.00583275105e-06
4.00584146814e-06
4.0058468086e-06
4.00583793224e-06
4.00582727232e-06
4.00611731603e-06
4.00613161586e-06
4.00614992537e-06
4.00615188909e-06
4.00614819478e-06
4.00614080124e-06
4.00613428961e-06
4.00613108047e-06
4.00613230612e-06
4.00613720494e-06
4.0061437113e-06
4.00614782485e-06
4.00614756109e-06
4.0061306949e-06
4.00611242511e-06
4.00634264482e-06
4.0063595335e-06
4.0063820997e-06
4.00638571803e-06
4.00638356383e-06
4.00637721635e-06
4.00637129395e-06
4.00636831682e-06
4.00636945429e-06
4.00637393923e-06
4.00637961102e-06
4.00638226356e-06
4.00638013372e-06
4.0063588205e-06
4.00633792003e-06
4.00652205519e-06
4.00653837611e-06
4.00656333019e-06
4.00656648634e-06
4.00656411102e-06
4.00655749069e-06
4.00655137294e-06
4.00654838582e-06
4.00654973401e-06
4.00655461504e-06
4.00656074835e-06
4.00656369903e-06
4.00656181848e-06
4.00653808682e-06
4.00651766215e-06
4.00666864924e-06
4.0066836933e-06
4.00671002117e-06
4.00671201393e-06
4.00670885499e-06
4.00670162549e-06
4.00669514292e-06
4.00669211596e-06
4.00669376481e-06
4.00669925757e-06
4.00670621208e-06
4.00671002048e-06
4.00670910909e-06
4.00668361604e-06
4.00666492096e-06
4.00679070689e-06
4.00680456204e-06
4.00683275913e-06
4.00683413276e-06
4.00683061015e-06
4.00682318823e-06
4.00681664597e-06
4.00681370756e-06
4.00681555454e-06
4.00682136174e-06
4.00682868581e-06
4.00683288369e-06
4.00683247223e-06
4.00680474197e-06
4.0067874619e-06
4.00689595306e-06
4.006910396e-06
4.00694216512e-06
4.00694443659e-06
4.0069419147e-06
4.00693547451e-06
4.00692966432e-06
4.0069270955e-06
4.00692886837e-06
4.00693419503e-06
4.0069406832e-06
4.00694383787e-06
4.00694231824e-06
4.00691074834e-06
4.00689286085e-06
4.00699253867e-06
4.00701126506e-06
4.0070492101e-06
4.00705488523e-06
4.00705554152e-06
4.00705184384e-06
4.00704791387e-06
4.00704609952e-06
4.00704738132e-06
4.00705103426e-06
4.00705487032e-06
4.00705476818e-06
4.00704961161e-06
4.00701164337e-06
4.00698952487e-06
4.00708920669e-06
4.00711731023e-06
4.00716453213e-06
4.00717661484e-06
4.00718301443e-06
4.00718416211e-06
4.00718346609e-06
4.00718286812e-06
4.00718314325e-06
4.00718371245e-06
4.00718273992e-06
4.00717674891e-06
4.00716493507e-06
4.0071174497e-06
4.00708609722e-06
4.00719423521e-06
4.00723758931e-06
4.00729722004e-06
4.00731867939e-06
4.00733343367e-06
4.00734153835e-06
4.00734544556e-06
4.00734650765e-06
4.0073452513e-06
4.00734130412e-06
4.00733334466e-06
4.00731884365e-06
4.00729744075e-06
4.00723735112e-06
4.00719092749e-06
4.0073133272e-06
4.00737830608e-06
4.00745310892e-06
4.00748654696e-06
4.00751208955e-06
4.00752920665e-06
4.00753903058e-06
4.00754218304e-06
4.00753888874e-06
4.00752900917e-06
4.00751198595e-06
4.00748651639e-06
4.0074529448e-06
4.00737763548e-06
4.00730983718e-06
4.00745022393e-06
4.00754322981e-06
4.00763487422e-06
4.00768201869e-06
4.00772062036e-06
4.00774871425e-06
4.00776578952e-06
4.00777144612e-06
4.00776559581e-06
4.00774843734e-06
4.00772028552e-06
4.00768161322e-06
4.00763419774e-06
4.00754201505e-06
4.00744651845e-06
4.00764396019e-06
4.0077688853e-06
4.0078623132e-06
4.00791580758e-06
4.00796367055e-06
4.00800048898e-06
4.00802340378e-06
4.00803108663e-06
4.00802309929e-06
4.00799995827e-06
4.00796296277e-06
4.00791483593e-06
4.00786095717e-06
4.0077669779e-06
4.00764002142e-06
4.00813269806e-06
4.00814469134e-06
4.00817889712e-06
4.00820188501e-06
4.00823262861e-06
4.00825885242e-06
4.00827579961e-06
4.00828146345e-06
4.00827529803e-06
4.00825792338e-06
4.00823130996e-06
4.00820010043e-06
4.00817657342e-06
4.00814167594e-06
4.00812819985e-06
3.09922274844e-06
3.09923794564e-06
3.09926276508e-06
3.09928652983e-06
3.09930924171e-06
3.09932733703e-06
3.09933937617e-06
3.09934465751e-06
3.09934301139e-06
3.09933449633e-06
3.09931963605e-06
3.09929895975e-06
3.09927545916e-06
3.0992476681e-06
3.0992308152e-06
3.0994280475e-06
3.0994496778e-06
3.09948178316e-06
3.09951140259e-06
3.09953924054e-06
3.09956125379e-06
3.0995757825e-06
3.09958196684e-06
3.09957955961e-06
3.09956868569e-06
3.09955001274e-06
3.09952429325e-06
3.09949485858e-06
3.09946008099e-06
3.09943548635e-06
3.09964882115e-06
3.09967766943e-06
3.0997180226e-06
3.09975329803e-06
3.09978598275e-06
3.09981144302e-06
3.09982812248e-06
3.09983499825e-06
3.09983178905e-06
3.09981863784e-06
3.09979633372e-06
3.09976573276e-06
3.09973062476e-06
3.09968839827e-06
3.099656282e-06
3.0998350804e-06
3.09986918728e-06
3.09991573282e-06
3.09995488263e-06
3.0999906599e-06
3.10001820561e-06
3.10003614125e-06
3.10004338066e-06
3.10003962927e-06
3.10002502994e-06
3.10000042286e-06
3.09996666907e-06
3.09992790885e-06
3.09987995142e-06
3.09984298908e-06
3.0999953297e-06
3.10003305284e-06
3.10008468165e-06
3.10012656878e-06
3.10016439943e-06