/*--------------------------------*- C++ -*----------------------------------*\
  =========                 |
  \\      /  F ield         | OpenFOAM: The Open Source CFD Toolbox
   \\    /   O peration     | Website:  https://openfoam.org
    \\  /    A nd           | Version:  7
     \\/     M anipulation  |
\*---------------------------------------------------------------------------*/
FoamFile
{
    version     2.0;
    format      ascii;
    class       volVectorField;
    location    "2.38";
    object      U;
}
// * * * * * * * * * * * * * * * * * * * * * * * * * * * * * * * * * * * * * //

dimensions      [0 1 -1 0 0 0 0];

internalField   nonuniform List<vector> 
22500
(
(2.85149511488e-05 3.2030222419e-05 0.000598158688134)
(2.64692749617e-05 3.60538977645e-05 0.000627321886781)
(2.30301576296e-05 4.01016590719e-05 0.000653820789732)
(1.92986154514e-05 4.34837088439e-05 0.000676627488356)
(1.49591540986e-05 4.62613300267e-05 0.000695077023334)
(1.02249485184e-05 4.83128018281e-05 0.000708632771568)
(5.1942096273e-06 4.95731763641e-05 0.000716923045961)
(9.90625830664e-09 4.99990280707e-05 0.000719725578029)
(-5.17483750847e-06 4.95742089566e-05 0.000716923502786)
(-1.02068182624e-05 4.83146793829e-05 0.000708633775729)
(-1.49431321869e-05 4.62635596269e-05 0.000695078592585)
(-1.92855449322e-05 4.34857028566e-05 0.000676629443977)
(-2.30210932239e-05 4.01023928565e-05 0.000653822978913)
(-2.64640802365e-05 3.60533988972e-05 0.000627326208003)
(-2.85135758298e-05 3.20287019211e-05 0.000598182115198)
(8.2126113744e-05 9.24139630922e-05 0.00147526550922)
(7.61111318579e-05 0.000103694905553 0.00153278838936)
(6.64607921956e-05 0.000114910202424 0.00158416011742)
(5.56194468889e-05 0.00012438734879 0.00162776854089)
(4.31268500626e-05 0.000132174479818 0.00166264392234)
(2.94701901266e-05 0.000137931228393 0.00168804643835)
(1.49664188869e-05 0.000141470738715 0.00170348898491)
(2.36909236695e-08 0.000142665903406 0.00170868828041)
(-1.49199914697e-05 0.000141472398179 0.00170349067449)
(-2.94265350664e-05 0.000137934142526 0.00168804999723)
(-4.30878692773e-05 0.000132177619202 0.00166264924825)
(-5.55871156604e-05 0.000124389510675 0.00162777497855)
(-6.64372779931e-05 0.000114909440702 0.00158416700718)
(-7.60963534126e-05 0.000103691541185 0.00153280111201)
(-8.21208267255e-05 9.24083749197e-05 0.00147532002179)
(0.000120640698735 0.000135692532955 0.00212327622897)
(0.000111230314229 0.000151193085155 0.00219210598387)
(9.68522346293e-05 0.000166508468675 0.00225256933607)
(8.07471408227e-05 0.000179389054093 0.00230327844012)
(6.24415751729e-05 0.000189919828475 0.00234342316918)
(4.25785371082e-05 0.000197675989048 0.00237243878576)
(2.15947535191e-05 0.000202433111876 0.00238998223085)
(3.22305557641e-08 0.000204036882101 0.00239586777855)
(-2.1531460153e-05 0.00020243409922 0.00238998456494)
(-4.25186794486e-05 0.00019767749022 0.00237244369956)
(-6.23874966307e-05 0.000189920698441 0.00234343038687)
(-8.07012811901e-05 0.000179387924599 0.00230328685017)
(-9.68172535329e-05 0.000166503509487 0.00225257742502)
(-0.000111206200262 0.000151185122988 0.0021921198925)
(-0.000120629467289 0.000135682285863 0.00212334377768)
(0.000147662672093 0.000165977454667 0.00260467464629)
(0.0001354171538 0.00018350804524 0.00267474806258)
(0.000117466596338 0.000200806111377 0.00273518042395)
(9.75356424223e-05 0.000215213603237 0.00278520378491)
(7.51913112363e-05 0.00022692617075 0.00282437863459)
(5.11520863343e-05 0.000235510905482 0.00285245940765)
(2.59053471063e-05 0.000240759857232 0.00286933824009)
(3.76979987333e-08 0.000242526136773 0.00287497989467)
(-2.58312242834e-05 0.000240760016773 0.00286934027294)
(-5.10817458326e-05 0.000235510744537 0.00285246372974)
(-7.51273228964e-05 0.000226924591505 0.00282438476334)
(-9.74805998345e-05 0.000215209269076 0.00278521012316)
(-0.00011742326685 0.000200797483148 0.00273518423945)
(-0.000135385454234 0.000183496321609 0.00267475366168)
(-0.000147645431939 0.000165963391205 0.00260473174174)
(0.000166171464123 0.000186716297553 0.00296189035331)
(0.000151604536612 0.000204802325708 0.00302731083503)
(0.000130983143297 0.000222699762769 0.00308252961087)
(0.000108327987528 0.000237435901036 0.0031275447012)
(8.32573644274e-05 0.000249345021902 0.00316236506452)
(5.65092568072e-05 0.000258029860293 0.00318708964485)
(2.85779982192e-05 0.000263322916061 0.00320185196916)
(4.09641869381e-08 0.000265100717723 0.00320676620659)
(-2.84973898508e-05 0.000263322352234 0.00320185310908)
(-5.64325867356e-05 0.0002580282864 0.00318709211366)
(-8.31872891959e-05 0.000249341458378 0.00316236810294)
(-0.000108267097129 0.000237429160735 0.00312754607303)
(-0.000130934037412 0.000222688545786 0.00308252493684)
(-0.000151567016319 0.00020478814136 0.00302730124947)
(-0.000166148694769 0.000186699660912 0.0029619221889)
(0.000177803272334 0.000199732362981 0.00322526958455)
(0.000161388293183 0.000217294424892 0.00328281302676)
(0.000138859503214 0.000234797113824 0.00333014367467)
(0.000114395120126 0.000249029874122 0.00336801981763)
(8.7658797541e-05 0.000260461204307 0.00339689186522)
(5.93639262975e-05 0.000268755734502 0.00341716467454)
(2.99808263551e-05 0.000273794721129 0.00342917370327)
(4.2673929403e-08 0.000275484199045 0.00343315283444)
(-2.98968010523e-05 0.00027379360797 0.00342917370095)
(-5.92838615232e-05 0.000268753117168 0.00341716472025)
(-8.75853351289e-05 0.000260456251982 0.00339689082363)
(-0.000114330753227 0.000249021595302 0.00336801459749)
(-0.000138806499424 0.000234784466048 0.00333012787826)
(-0.000161346284977 0.000217279103188 0.00328278440087)
(-0.000177775695795 0.00019971460786 0.00322527096777)
(0.000183840005672 0.000206426027354 0.0034174575335)
(0.000166016830551 0.000222695988109 0.00346569130093)
(0.000142239144552 0.000239099648588 0.00350411665576)
(0.000116728981851 0.000252266450204 0.00353415765192)
(8.91878663603e-05 0.000262774394725 0.00355664487865)
(6.02694371086e-05 0.00027036209876 0.00357221826961)
(3.03985931982e-05 0.000274957513579 0.00358135435803)
(4.33402353163e-08 0.000276495797242 0.00358436459125)
(-3.03132159679e-05 0.000274956108151 0.00358135318732)
(-6.01879607915e-05 0.000270358951681 0.00357221577853)
(-8.91128548988e-05 0.000262768837863 0.00355663943948)
(-0.000116662769554 0.000252257681711 0.00353414509759)
(-0.000142183629482 0.00023908687952 0.00350408835232)
(-0.000165971412537 0.000222680955744 0.0034656422101)
(-0.00018380835347 0.000206408673501 0.00341742869301)
(0.000185443570814 0.000208084785469 0.00355582875485)
(0.000166616746484 0.00022256469124 0.00359452619425)
(0.000142150234656 0.000237405248526 0.00362411221135)
(0.000116215360394 0.000249161300702 0.00364653965469)
(8.85475992874e-05 0.000258484035979 0.00366292999756)
(5.97143323749e-05 0.000265186835355 0.00367407707909)
(3.00818483092e-05 0.00026923524137 0.00368053356553)
(4.33605966858e-08 0.000270588606009 0.00368264532876)
(-2.99963989938e-05 0.00026923383668 0.0036805313011)
(-5.96326755155e-05 0.000265183751019 0.00367407214833)
(-8.84721822692e-05 0.000258478745596 0.00366292016782)
(-0.000116148333883 0.000249153178407 0.00364651950768)
(-0.000142093112799 0.000237393704079 0.00362407086486)
(-0.000166568753192 0.00022255143511 0.0035944569674)
(-0.000185408555322 0.000208069313909 0.00355577285463)
(0.000183610776066 0.000205824576801 0.00365390631198)
(0.000164143436674 0.000218227013723 0.00368362123547)
(0.000139457277427 0.000231220080665 0.00370509775642)
(0.000113593696521 0.00024137842726 0.00372067206235)
(8.63206085003e-05 0.000249386423259 0.00373166169836)
(5.81010970587e-05 0.000255124788877 0.0037389383925)
(2.92361947432e-05 0.000258583582469 0.00374307372368)
(4.30538170838e-08 0.000259738810402 0.00374441141481)
(-2.9151317878e-05 0.000258582487317 0.0037430704461)
(-5.80198770412e-05 0.000255122383785 0.00373893114504)
(-8.6245352075e-05 0.000249382297339 0.0037316475605)
(-0.000113526366862 0.000241372089738 0.00372064427752)
(-0.0001393990403 0.000231211082463 0.00370504339634)
(-0.000164093426546 0.000218216918151 0.00368353345451)
(-0.00018357304302 0.000205812371515 0.00365382809569)
(0.000179161578791 0.000200568106563 0.00372225021821)
(0.000159370161982 0.000210754752331 0.00374399406997)
(0.000134853356533 0.000221738661864 0.00375844298281)
(0.000109453739883 0.000230216390033 0.00376818532485)
(8.29685324863e-05 0.000236867626497 0.00377465035179)
(5.57466953325e-05 0.000241626188114 0.00377872594658)
(2.80228397816e-05 0.000244491847114 0.00378095945409)
(4.26784444869e-08 0.000245448768879 0.00378166627524)
(-2.79386640906e-05 0.000244491352077 0.00378095521027)
(-5.56660164359e-05 0.000241625034824 0.00377871646553)
(-8.28935127133e-05 0.000236865499159 0.00377463200551)
(-0.00010938616118 0.000230212882492 0.00376815005597)
(-0.000134794105121 0.000221733395489 0.00375837621515)
(-0.0001593183904 0.000210749037601 0.00374389046412)
(-0.000179121595151 0.000200560382661 0.00372215557758)
(0.000172758429978 0.000193067260946 0.00376905340617)
(0.000152909925872 0.000200992150269 0.00378404803947)
(0.000128884669943 0.000209881569015 0.00379267842385)
(0.000104259934414 0.000216660753773 0.00379767974183)
(7.88528583384e-05 0.000221969235731 0.00380052524096)
(5.28974728048e-05 0.000225772251149 0.00380207351221)
(2.65663675462e-05 0.000228064483978 0.00380281971456)
(4.24468549267e-08 0.000228830506081 0.00380303576301)
(-2.64825950667e-05 0.000228064833837 0.00380281455547)
(-5.28170098278e-05 0.000225772837203 0.00380206194393)
(-7.87777221145e-05 0.000221969814089 0.0038005030238)
(-0.000104191760777 0.000216660964529 0.00379763771881)
(-0.000128824159351 0.000209881019855 0.00379260091597)
(-0.000152856369268 0.000200991817594 0.00378393295007)
(-0.000172716423999 0.000193064958828 0.00376894992691)
(0.000164926434728 0.000183929145167 0.00380055513523)
(0.000145243790007 0.00018958329312 0.00381004334325)
(0.000121983507913 0.000196336060948 0.0038140435316)
(9.83804997543e-05 0.000201441889497 0.00381535498237)
(7.42567538551e-05 0.000205458161502 0.0038154366866)
(4.97434807321e-05 0.000208352233707 0.00381508312724)
(2.49618749467e-05 0.00021010204631 0.00381472125865)
(4.25323303428e-08 0.000210687886686 0.00381457364016)
(-2.48778536485e-05 0.00021010341804 0.00381471537679)
(-4.96625434803e-05 0.000208354895921 0.00381507000475)
(-7.41807828376e-05 0.000205461946448 0.00381541176952)
(-9.83110315332e-05 0.000201446452957 0.00381530844693)
(-0.000121921182692 0.00019634093883 0.00381395917482)
(-0.000145188173514 0.000189589050528 0.00380992378711)
(-0.000164882349563 0.00018393299775 0.0038004534906)
(0.000156068179255 0.000173608443884 0.00382130349595)
(0.000136766674969 0.000176983708973 0.0038264033467)
(0.000114512762069 0.000181603152844 0.00382686975145)
(9.21158397888e-05 0.000185101681688 0.00382547521243)
(6.94009321458e-05 0.000187900482214 0.00382359142197)
(4.64272287086e-05 0.000189938961081 0.00382191281385)
(2.32790440481e-05 0.000191177135123 0.00382078846409)
(4.307398068e-08 0.000191592819344 0.0038203922383)
(-2.31938540281e-05 0.000191179585992 0.00382078242964)
(-4.63448490433e-05 0.000189943821986 0.00382189959873)
(-6.93231070207e-05 0.000187907658122 0.00382356680373)
(-9.20440825818e-05 0.00018511086023 0.00382542955168)
(-0.000114447797694 0.000181613760414 0.00382678680151)
(-0.000136708474772 0.000176995859603 0.00382629058573)
(-0.000156021729284 0.000173618732658 0.00382121780769)
(0.000146553282467 0.00016239340873 0.00383424246469)
(0.000127899438247 0.000163526209194 0.00383585168728)
(0.000106807762687 0.000166061486247 0.00383381860639)
(8.56986438451e-05 0.000168076677702 0.00383069523319)
(6.4435899185e-05 0.000169739629893 0.0038276441565)
(4.303805716e-05 0.000170964972875 0.00382521346438)
(2.15598644201e-05 0.000171711407774 0.00382366719892)
(4.41449213669e-08 0.000171962735279 0.00382313529457)
(-2.14724183111e-05 0.000171714841372 0.00382366219459)
(-4.29530947555e-05 0.000170971842853 0.0038252030797)
(-6.43550198097e-05 0.000169749905772 0.0038276256895)
(-8.56234032913e-05 0.000168090133508 0.00383066103981)
(-0.000106739151173 0.000166077552824 0.00383375333896)
(-0.000127837982795 0.000163544491622 0.00383576433784)
(-0.000146503934242 0.000162409809369 0.00383418966153)
(0.000136956683803 0.000150627535343 0.00384050947851)
(0.000119174022244 0.000148694479032 0.00383940924342)
(9.90448217834e-05 0.000149637041417 0.00383604848949)
(7.92137085433e-05 0.000150384270993 0.00383230584852)
(5.93971335077e-05 0.000151036012736 0.00382898365066)
(3.95937868321e-05 0.000151517051522 0.00382643949891)
(1.9812762928e-05 0.000151809576539 0.00382484964822)
(4.57441106333e-08 0.000151908800743 0.00382430719647)
(-1.97219963871e-05 0.000151813679317 0.00382484697225)
(-3.95051411232e-05 0.000151525292397 0.00382643521726)
(-5.9312019429e-05 0.00015104842373 0.00382897809426)
(-7.91336812117e-05 0.000150400788296 0.00383229657316)
(-9.89713367692e-05 0.000149657213105 0.00383602342949)
(-0.000119108687872 0.00014871790071 0.00383938804273)
(-0.000136903528024 0.00015064933601 0.00384048540601)
(8.90367612926e-07 1.51375301794e-06 0.000365398688274)
(4.66209106597e-07 1.99364951645e-06 0.000382985029415)
(2.65802563534e-07 2.25485616087e-06 0.00039865769658)
(9.2871461667e-08 2.43381249981e-06 0.000412085232338)
(-1.38649923696e-08 2.53723930944e-06 0.000422939527822)
(-5.36656574223e-08 2.58894902052e-06 0.000430918444394)
(-4.24541900997e-08 2.61030292823e-06 0.00043580373872)
(-1.79811876132e-09 2.61569174519e-06 0.000437460062585)
(3.9298395621e-08 2.60990568355e-06 0.000435804285803)
(5.17967751293e-08 2.58825624069e-06 0.000430919718468)
(1.37525196024e-08 2.53631486457e-06 0.00042294169964)
(-9.17054573491e-08 2.43262158335e-06 0.000412088217057)
(-2.64382962802e-07 2.2535200797e-06 0.000398661443589)
(-4.65089272098e-07 1.99208683868e-06 0.000382993021883)
(-8.90803857066e-07 1.51249846424e-06 0.000365429768849)
(8.54070757005e-06 1.05385080273e-05 0.00104518909121)
(7.22422427886e-06 1.28995996347e-05 0.00109273749558)
(6.17730892144e-06 1.48300395535e-05 0.00113494788265)
(5.01718807628e-06 1.64480694457e-05 0.00117098782179)
(3.79074077551e-06 1.77039805386e-05 0.00120004617226)
(2.53779837979e-06 1.8596039744e-05 0.00122137222453)
(1.26974168544e-06 1.91289128855e-05 0.00123441298985)
(-1.20348974374e-09 1.93061102124e-05 0.00123882161606)
(-1.27127245417e-06 1.91279754076e-05 0.00123441483004)
(-2.53681804119e-06 1.85942743745e-05 0.00122137634538)
(-3.78640769551e-06 1.77013867987e-05 0.00120005292848)
(-5.01049711923e-06 1.64445199374e-05 0.00117099677447)
(-6.17074452659e-06 1.48257806964e-05 0.00113495868148)
(-7.21924352622e-06 1.28947861051e-05 0.00109276000957)
(-8.54063158701e-06 1.05343770107e-05 0.00104526737289)
(1.96775733362e-05 2.29982904544e-05 0.00167481246736)
(1.73035449902e-05 2.75648809073e-05 0.00174692323099)
(1.50905249501e-05 3.15374040509e-05 0.00181047121044)
(1.25136487251e-05 3.49365158074e-05 0.0018643999832)
(9.63464006524e-06 3.76407953233e-05 0.00190766431426)
(6.5452320749e-06 3.96004466121e-05 0.00193929877192)
(3.3091095391e-06 4.07882265378e-05 0.00195859084134)
(2.34653551908e-09 4.11862892522e-05 0.00196509551004)
(-3.30348047298e-06 4.07869838625e-05 0.00195859361842)
(-6.53695205504e-06 3.95979363139e-05 0.00193930481592)
(-9.62290062242e-06 3.76367779149e-05 0.0019076738185)
(-1.24996288337e-05 3.49306594455e-05 0.00186441185375)
(-1.50773590417e-05 3.15299438324e-05 0.00181048427631)
(-1.72934263213e-05 2.75567989994e-05 0.00174695054051)
(-1.96753033418e-05 2.29914401874e-05 0.00167491652113)
(3.21927298891e-05 3.66171108277e-05 0.00224655467128)
(2.85974401044e-05 4.32929317181e-05 0.00233634244117)
(2.50467590618e-05 4.9164227978e-05 0.00241458085101)
(2.08525078346e-05 5.42154557483e-05 0.00248036728305)
(1.61147206773e-05 5.82560177486e-05 0.00253274473947)
(1.0978254184e-05 6.11951271169e-05 0.00257082379955)
(5.56225443408e-06 6.29814667651e-05 0.00259395230163)
(7.14338044026e-09 6.35808880389e-05 0.00260172764609)
(-5.54717908492e-06 6.2980088937e-05 0.00259395482026)
(-1.09609869757e-05 6.11922408638e-05 0.00257082915047)
(-1.60947271761e-05 5.8251214946e-05 0.00253275260029)
(-2.08310589735e-05 5.42082785156e-05 0.00248037558669)
(-2.50271003563e-05 4.91547677461e-05 0.0024145870596)
(-2.85821158671e-05 4.32828090975e-05 0.00233635973481)
(-3.21872886127e-05 3.66085659419e-05 0.00224665538413)
(4.45504382715e-05 4.97690813143e-05 0.00275283598166)
(3.96383207974e-05 5.82199601768e-05 0.00285276179789)
(3.47118674776e-05 6.55808291688e-05 0.00293853256837)
(2.88834269807e-05 7.19147468244e-05 0.0030097783665)
(2.23152395789e-05 7.69773430375e-05 0.00306594011375)
(1.51992913731e-05 8.06559642029e-05 0.00310646422586)
(7.70143621e-06 8.28902143697e-05 0.00313094955717)
(1.21056627007e-08 8.36395556771e-05 0.00313915386457)
(-7.67667054879e-06 8.28888542099e-05 0.00313095053114)
(-1.51730385376e-05 8.06530466629e-05 0.00310646617745)
(-2.22873227136e-05 7.69723744634e-05 0.0030659418998)
(-2.88551658616e-05 7.19071925988e-05 0.00300977660293)
(-3.46863071224e-05 6.55706018298e-05 0.00293852275339)
(-3.96179243867e-05 5.82089262164e-05 0.00285275554193)
(-4.45411330764e-05 4.975979842e-05 0.002752910271)
(5.58164734032e-05 6.15196656124e-05 0.0031897308444)
(4.95653088331e-05 7.12975642599e-05 0.00329263505081)
(4.33135188294e-05 7.96323354663e-05 0.00337931787295)
(3.59530005566e-05 8.67856580906e-05 0.00345023364763)
(2.77239257873e-05 9.24799947002e-05 0.00350545107967)
(1.88558101877e-05 9.66034398201e-05 0.00354492537349)
(9.54674805273e-06 9.91020611972e-05 0.00356862459973)
(1.66282842237e-08 9.99390076816e-05 0.00357653562514)
(-9.51318969505e-06 9.91008573134e-05 0.00356862311025)
(-1.88215042193e-05 9.66007889674e-05 0.00354492192792)
(-2.76890312346e-05 9.24753680978e-05 0.00350544346886)
(-3.59188169935e-05 8.67784684332e-05 0.00345021682655)
(-4.32827567014e-05 7.96223461103e-05 0.00337928485212)
(-4.95400548603e-05 7.12866513476e-05 0.0032925953044)
(-5.58028611926e-05 6.15104440162e-05 0.00318976458043)
(6.54123147899e-05 7.13272983688e-05 0.00355754399849)
(5.78718443541e-05 8.19418842363e-05 0.00365740601608)
(5.0410856549e-05 9.07202899029e-05 0.00373961958654)
(4.17020914991e-05 9.82204870417e-05 0.00380563948939)
(3.20683039444e-05 0.000104153482419 0.00385628016934)
(2.17651506763e-05 0.000108428469815 0.00389207625755)
(1.10065400354e-05 0.00011101039268 0.00391340232895)
(2.044250085e-08 0.000111873795611 0.00392049010162)
(-1.09655795774e-05 0.000111009462849 0.00391339784435)
(-2.17240892368e-05 0.000108426349768 0.00389206625487)
(-3.20275652132e-05 0.000104149640877 0.00385626119269)
(-4.16629022652e-05 9.82143100954e-05 0.00380560455785)
(-5.03755265628e-05 9.07113849722e-05 0.00373955892321)
(-5.78420529645e-05 8.1932065931e-05 0.00365732726228)
(-6.539415123e-05 7.13188525019e-05 0.0035575305699)
(7.3025166563e-05 7.89289995313e-05 0.00386010507464)
(6.43098919359e-05 8.98991199031e-05 0.0039524216825)
(5.58049515177e-05 9.86377991598e-05 0.00402633337277)
(4.59850552853e-05 0.000106058481899 0.00408434726913)
(3.52489394117e-05 0.000111881405972 0.00412803343138)
(2.38666698202e-05 0.000116051651611 0.00415848688451)
(1.20523469804e-05 0.000118560407428 0.00417645916037)
(2.35189808481e-08 0.000119397768269 0.00418240095826)
(-1.20054128747e-05 0.000118559870031 0.00417645154657)
(-2.38201396046e-05 0.000116050320895 0.00415846999406)
(-3.52034162291e-05 0.000111878764807 0.00412800246734)
(-4.59416658818e-05 0.000106053907429 0.00408429317411)
(-5.57655795746e-05 9.86307531639e-05 0.00402624357592)
(-6.42758916195e-05 8.98912597878e-05 0.00395230293475)
(-7.30025222385e-05 7.8922139092e-05 0.0038600442066)
(7.85498259491e-05 8.42721524888e-05 0.00410366690559)
(6.88248150616e-05 9.51586811467e-05 0.00418551524046)
(5.94739546324e-05 0.000103455405998 0.00424883993131)
(4.8808819468e-05 0.000110445603204 0.00429714237589)
(3.72878295021e-05 0.000115877853023 0.00433267219509)
(2.51841784755e-05 0.000119741327087 0.00435700162372)
(1.26990455474e-05 0.000122055469754 0.00437118600716)
(2.59590607078e-08 0.000122826391678 0.00437584412401)
(-1.26473558954e-05 0.000122055430958 0.00437117545664)
(-2.5133238379e-05 0.000119741011541 0.0043569782372)
(-3.72383431934e-05 0.000115876778493 0.00433262986365)
(-4.87618083495e-05 0.000110443143071 0.00429707002158)
(-5.94309376504e-05 0.000103450908153 0.0042487224944)
(-6.8786899591e-05 9.51535483823e-05 0.00418535994203)
(-7.85229498367e-05 8.42676710259e-05 0.00410356388655)
(8.20322791875e-05 8.74518052104e-05 0.00429581321848)
(7.14959537842e-05 9.78743833442e-05 0.00436569693639)
(6.15145588764e-05 0.000105419290301 0.00441749883724)
(5.02787948995e-05 0.000111711987038 0.00445557249609)
(3.82833167657e-05 0.000116547024273 0.00448271261765)
(2.57935089394e-05 0.000119959569808 0.00450084786626)
(1.29878552489e-05 0.000121994495072 0.00451124328533)
(2.79284839349e-08 0.000122671196261 0.00451462523582)
(-1.29323011821e-05 0.000121995033887 0.00451123031346)
(-2.5738904679e-05 0.000119960434692 0.00450081911618)
(-3.82304100085e-05 0.000116547781803 0.00448266086991)
(-5.02285130255e-05 0.00011171202054 0.00445548494526)
(-6.14681474601e-05 0.000105417864716 0.00441735850555)
(-7.14544022392e-05 9.78726095689e-05 0.00436551308518)
(-8.20014758222e-05 8.7450394605e-05 0.00429567869278)
(8.3618511546e-05 8.86569989077e-05 0.0044445274192)
(7.2485873537e-05 9.82980044268e-05 0.0045020990031)
(6.20937471472e-05 0.000104867609327 0.00454249905613)
(5.05558902424e-05 0.000110274492886 0.00457073355224)
(3.83750245409e-05 0.000114374867411 0.00458997182692)
(2.57975959089e-05 0.000117245871221 0.00460236050887)
(1.29733527052e-05 0.000118950653607 0.00460927557434)
(2.95955848581e-08 0.000119516790673 0.00461149170246)
(-1.29144968288e-05 0.000118951792444 0.00460926113154)
(-2.57397699385e-05 0.000117247972853 0.00460232852975)
(-3.8318975546e-05 0.000114377557454 0.00458991441506)
(-5.05024862081e-05 0.000110277194262 0.00457063672434)
(-6.20440737906e-05 0.000104869539512 0.004542344618)
(-7.24409237862e-05 9.83000068553e-05 0.00450189978857)
(-8.35841227004e-05 8.86591512342e-05 0.00444437801924)
(8.3507721735e-05 8.8124679386e-05 0.00455744936784)
(7.19969504832e-05 9.67227810815e-05 0.00460318371651)
(6.14116843243e-05 0.00010216336911 0.00463305514432)
(4.9825845031e-05 0.00010656385042 0.00465247737171)
(3.77195388735e-05 0.000109852669107 0.0046647986492)
(2.53093250328e-05 0.000112138151192 0.00467223758423)
(1.27145445727e-05 0.000113490678883 0.00467618593701)
(3.10977315909e-08 0.000113939537105 0.00467741399803)
(-1.26526851218e-05 0.000113492375926 0.00467617165027)
(-2.52484941301e-05 0.0001121413985 0.00467220604386)
(-3.76604629025e-05 0.000109857179481 0.00466474203081)
(-4.97693618276e-05 0.000106569103834 0.00465238135523)
(-6.13588217264e-05 0.000102168603104 0.00463290089744)
(-7.19488245669e-05 9.6728609317e-05 0.00460298855188)
(-8.34700440402e-05 8.81306024081e-05 0.00455730885863)
(8.19050276338e-05 8.60878421289e-05 0.00464127986312)
(7.02393801888e-05 9.34292504823e-05 0.00467616799764)
(5.96834915319e-05 9.76457180926e-05 0.00469688783309)
(4.82859214436e-05 0.000100978267153 0.0047089547825)
(3.64789475788e-05 0.000103433374351 0.00471567585248)
(2.44427501291e-05 0.000105130043875 0.00471919117963)
(1.22700658254e-05 0.000106132241318 0.00472081897391)
(3.25248492275e-08 0.000106464960245 0.00472127999098)
(-1.22053498262e-05 0.000106134370813 0.00472080743495)
(-2.43790237889e-05 0.000105134200013 0.00471916590245)
(-3.64169117479e-05 0.000103439349491 0.00471563028058)
(-4.82264243445e-05 0.000100985654456 0.00470887558756)
(-5.96275722501e-05 9.76538185137e-05 0.0046967557772)
(-7.0188346866e-05 9.34385530251e-05 0.00467600355511)
(-8.18644101688e-05 8.60973325869e-05 0.00464117792267)
(7.90242766727e-05 8.27649729401e-05 0.00470125726011)
(6.74591528229e-05 8.87875591874e-05 0.00472663601037)
(5.71681115474e-05 9.16812978365e-05 0.00473994735539)
(4.6155170992e-05 9.39225909194e-05 0.00474642085767)
(3.4821935845e-05 9.5554966465e-05 0.00474909019725)
(2.33107814163e-05 9.66797756252e-05 0.00474986556967)
(1.16962340085e-05 9.73435577459e-05 0.00474990902204)
(3.3902671737e-08 9.75641433068e-05 0.00474985336088)
(-1.16287533067e-05 9.73459224717e-05 0.00474990384922)
(-2.32442729336e-05 9.66844393977e-05 0.00474985465088)
(-3.47570827005e-05 9.55618039583e-05 0.00474907003394)
(-4.60928587411e-05 9.39313346674e-05 0.00474638162132)
(-5.71094310344e-05 9.16914453617e-05 0.00473987022912)
(-6.74055886055e-05 8.87995345646e-05 0.00472653845044)
(-7.89810061374e-05 8.27774413518e-05 0.00470122573212)
(7.49595302457e-05 7.95564149262e-05 0.00474064993442)
(6.39449973922e-05 8.33528593022e-05 0.00475848501744)
(5.41047795653e-05 8.47388701898e-05 0.00476640861231)
(4.36135050781e-05 8.58370960446e-05 0.0047692791812)
(3.28779738821e-05 8.66069518112e-05 0.00476960963033)
(2.19957809408e-05 8.71295402631e-05 0.00476893503603)
(1.10330002797e-05 8.74344534621e-05 0.00476818967956)
(3.52138518761e-08 8.75355158453e-05 0.00476788657314)
(-1.0962919641e-05 8.74367012437e-05 0.00476819436973)
(-2.19267118133e-05 8.7134012771e-05 0.00476894623856)
(-3.28106140479e-05 8.66136157222e-05 0.00476962883432)
(-4.35487528348e-05 8.58458701514e-05 0.00476930425789)
(-5.4043775846e-05 8.47494955176e-05 0.00476642438942)
(-6.38896888399e-05 8.33660394942e-05 0.0047585161535)
(-7.49138008614e-05 7.95702480287e-05 0.00474069019392)
(-1.074483908e-07 -2.58161264951e-07 0.000248145219357)
(2.0278563763e-08 -3.95151143937e-07 0.000259946534586)
(1.30503164103e-07 -4.77983486808e-07 0.000270282687528)
(1.90084615728e-07 -5.09305963014e-07 0.000279068848198)
(2.0100580352e-07 -5.07993325928e-07 0.000286134258069)
(1.64483247307e-07 -4.91816393627e-07 0.000291315150669)
(9.26540727479e-08 -4.75717269501e-07 0.000294485212224)
(1.02279521511e-09 -4.69249027203e-07 0.00029556196392)
(-9.07377355132e-08 -4.75863700514e-07 0.000294487041857)
(-1.62890193523e-07 -4.92058337268e-07 0.000291318557331)
(-1.99623524181e-07 -5.08162389279e-07 0.000286138791338)
(-1.88101623762e-07 -5.09055171104e-07 0.000279074213262)
(-1.27901430046e-07 -4.77606931911e-07 0.000270289507515)
(-1.76429214648e-08 -3.94241250159e-07 0.000259958736096)
(1.09463920297e-07 -2.57243052485e-07 0.000248179804201)
(8.76161280125e-07 6.73497985189e-07 0.000752872031678)
(1.09575560888e-06 6.33455033472e-07 0.000788514620061)
(1.2496228261e-06 7.15113793726e-07 0.000819835645085)
(1.24886805378e-06 8.95406386665e-07 0.000846461994843)
(1.10230313242e-06 1.11245008167e-06 0.00086787704619)
(8.20164556283e-07 1.3121167514e-06 0.000883585280961)
(4.38661456809e-07 1.45038970102e-06 0.000893195581138)
(2.82253025483e-09 1.49966712496e-06 0.000896449289503)
(-4.33218429758e-07 1.44983748256e-06 0.000893200353507)
(-8.15192269478e-07 1.31117863262e-06 0.000883594107942)
(-1.09747253785e-06 1.11155237463e-06 0.00086788865346)
(-1.24277298899e-06 8.95284221266e-07 0.000846475524464)
(-1.24207524769e-06 7.15359171273e-07 0.00081985286232)
(-1.08817533791e-06 6.35055323782e-07 0.00078854716417)
(-8.70586358691e-07 6.75388131039e-07 0.000752960258404)
(3.1752202267e-06 3.15047238359e-06 0.00125820674666)
(3.34411206805e-06 3.57063494714e-06 0.00131719693649)
(3.36865970543e-06 4.1473421571e-06 0.00136900307705)
(3.11828200257e-06 4.81823638178e-06 0.00141297046889)
(2.61436794436e-06 5.46923288831e-06 0.00144828016285)
(1.88317597848e-06 6.00763665458e-06 0.00147415181608)
(9.87992852281e-07 6.36055775766e-06 0.00148996401791)
(4.80702772998e-09 6.48324773279e-06 0.00149530563507)
(-9.78540169733e-07 6.35950607139e-06 0.00148997038317)
(-1.87405690923e-06 6.00580519101e-06 0.00147416346951)
(-2.60515176432e-06 5.46726340505e-06 0.00144829513006)
(-3.10755696779e-06 4.81704933928e-06 0.00141298724038)
(-3.35629055545e-06 4.14675024278e-06 0.00136902379265)
(-3.3317807467e-06 3.57179334108e-06 0.00131723851752)
(-3.16633617341e-06 3.15272582606e-06 0.0012583273554)
(6.87011923615e-06 7.21502993313e-06 0.00175629265816)
(6.86445559533e-06 8.41444715363e-06 0.0018367312125)
(6.59537013436e-06 9.7750630007e-06 0.00190707141447)
(5.90212455839e-06 1.11794835388e-05 0.00196651175532)
(4.82681628694e-06 1.24535627745e-05 0.0020140686069)
(3.41956171798e-06 1.34650421864e-05 0.00204881183497)
(1.77586018368e-06 1.41126975954e-05 0.00206999903049)
(7.04927708358e-09 1.43354246305e-05 0.00207714027638)
(-1.76186988055e-06 1.41113570435e-05 0.00207000503649)
(-3.40575337865e-06 1.34626738405e-05 0.00204882250287)
(-4.81276832046e-06 1.2450874482e-05 0.00201408136468)
(-5.88667783372e-06 1.11774449145e-05 0.00196652428942)
(-6.57856114703e-06 9.77379747457e-06 0.00190708536052)
(-6.84790546666e-06 8.41525439417e-06 0.00183676614648)
(-6.85812417912e-06 7.21777081154e-06 0.00175641822369)
(1.161442835e-05 1.24315697692e-05 0.00223739453996)
(1.13251391826e-05 1.45770319122e-05 0.00233579240997)
(1.06275783778e-05 1.68524776053e-05 0.0024211313332)
(9.33861158309e-06 1.9087270356e-05 0.00249271834651)
(7.53077492107e-06 2.10493824707e-05 0.00254963412418)
(5.28383123001e-06 2.25737228545e-05 0.00259101056867)
(2.72767589773e-06 2.35371260667e-05 0.00261615375266)
(9.61764736481e-09 2.38664213074e-05 0.00262460635187)
(-2.70852856214e-06 2.35357245913e-05 0.00261615749998)
(-5.2648202562e-06 2.25712195598e-05 0.00259101648416)
(-7.51156710621e-06 2.10464433902e-05 0.00254963903437)
(-9.31836432432e-06 1.90848365675e-05 0.00249271890656)
(-1.06065221825e-05 1.68509235398e-05 0.00242112788277)
(-1.13047871973e-05 1.45778733039e-05 0.00233580549162)
(-1.15993770378e-05 1.24348701454e-05 0.00223750206808)
(1.6994483459e-05 1.83095115273e-05 0.0026915010516)
(1.63291557614e-05 2.14203566803e-05 0.00280305035879)
(1.51017071374e-05 2.45894545401e-05 0.00289862378437)
(1.31130770075e-05 2.76129950199e-05 0.00297796290459)
(1.04753609288e-05 3.02120637449e-05 0.00304048661733)