/*--------------------------------*- C++ -*----------------------------------*\
  =========                 |
  \\      /  F ield         | OpenFOAM: The Open Source CFD Toolbox
   \\    /   O peration     | Website:  https://openfoam.org
    \\  /    A nd           | Version:  7
     \\/     M anipulation  |
\*---------------------------------------------------------------------------*/
FoamFile
{
    version     2.0;
    format      ascii;
    class       surfaceScalarField;
    location    "1.48";
    object      phi;
}
// * * * * * * * * * * * * * * * * * * * * * * * * * * * * * * * * * * * * * //

dimensions      [0 3 -1 0 0 0 0];

internalField   nonuniform List<scalar> 
65775
(
-3.35719833913e-11
-2.42781738963e-09
-2.96442227809e-10
-8.57408696294e-14
-5.84659940771e-11
-2.54510236009e-09
-3.30733263798e-10
-7.17911029606e-11
-2.65031135144e-09
-3.65568830743e-10
-7.21033911176e-11
-2.74108156547e-09
-3.98456884507e-10
-6.06564340795e-11
-2.81365981896e-09
-4.2693702129e-10
-3.9776445176e-11
-2.86674310525e-09
-4.48933634061e-10
-1.28138652463e-11
-2.90005462093e-09
-4.62981695676e-10
1.6270153556e-11
-2.91257795597e-09
-4.68003576472e-10
4.31887968569e-11
-2.90002397725e-09
-4.62946567407e-10
6.39962812506e-11
-2.86669208608e-09
-4.48864000668e-10
7.53553251787e-11
-2.81360870229e-09
-4.26832626583e-10
7.49347786445e-11
-2.74107252148e-09
-3.98315539921e-10
6.14699767488e-11
-2.65035015565e-09
-3.65384084236e-10
3.6393888119e-11
-2.54518378803e-09
-3.30487334329e-10
-2.42764718127e-09
-2.96094003037e-10
2.18634497359e-12
-8.89539383197e-11
-4.16135417468e-09
-8.05025552223e-10
1.63644888412e-13
-1.5897629439e-10
-4.34714719923e-09
-8.97566371858e-10
-1.96449486978e-10
-4.51836132436e-09
-9.91794346453e-10
-1.98636797114e-10
-4.6650066739e-09
-1.08095125996e-09
-1.67681331196e-10
-4.78181432223e-09
-1.15829982145e-09
-1.10003136425e-10
-4.8667394173e-09
-1.21812354831e-09
-3.50107785465e-11
-4.91987856857e-09
-1.25634757953e-09
4.59377246286e-11
-4.93985084671e-09
-1.26998559519e-09
1.20746408146e-10
-4.91973664667e-09
-1.25625048002e-09
1.78087559368e-10
-4.86648976216e-09
-1.21793087583e-09
2.08579667744e-10
-4.7815157109e-09
-1.15800912388e-09
2.05803418542e-10
-4.6647523981e-09
-1.08055356024e-09
1.67615580323e-10
-4.51821027255e-09
-9.91268295117e-10
9.66699784254e-11
-4.34705024209e-09
-8.96860061985e-10
-4.16074394965e-09
-8.04043426827e-10
6.39013148281e-12
-1.32199294449e-10
-5.3058793519e-09
-1.22022497298e-09
4.77285615441e-14
-2.36559573562e-10
-5.5211147811e-09
-1.36032478308e-09
-2.93025743644e-10
-5.72454028396e-09
-1.50288607363e-09
-2.97036575088e-10
-5.89757630582e-09
-1.63776783681e-09
-2.51149581237e-10
-6.03482391345e-09
-1.7547955932e-09
-1.64845329184e-10
-6.13389636295e-09
-1.84531244427e-09
-5.23145775597e-11
-6.19566563301e-09
-1.90312032227e-09
6.92208808386e-11
-6.21890778771e-09
-1.92369964001e-09
1.81493877142e-10
-6.19541357766e-09
-1.90295329699e-09
2.67315373388e-10
-6.13345247917e-09
-1.84498256108e-09
3.12519691967e-10
-6.03427875379e-09
-1.75430148039e-09
3.07618886318e-10
-5.89705284835e-09
-1.6370992611e-09
2.50040241697e-10
-5.7241349023e-09
-1.5020156755e-09
1.44192281928e-10
-5.52069658259e-09
-1.35918194174e-09
-5.30473912697e-09
-1.21868142716e-09
9.90322732476e-12
-1.65336919403e-10
-5.9611362721e-09
-1.54591223118e-09
5.89812213007e-14
-2.94352164765e-10
-6.17676233242e-09
-1.72298402104e-09
-3.6472028458e-10
-6.38514209161e-09
-1.90274225401e-09
-3.69939296192e-10
-6.56135438649e-09
-2.07260854438e-09
-3.12919273286e-10
-6.70028709863e-09
-2.2198756925e-09
-2.05292919091e-10
-6.79968311304e-09
-2.33371590783e-09
-6.480753438e-11
-6.86135535212e-09
-2.40635924828e-09
8.69427963611e-11
-6.88461741477e-09
-2.4321652301e-09
2.27097084863e-10
-6.86099320516e-09
-2.40612805315e-09
3.3409148255e-10
-6.79904098352e-09
-2.3332605962e-09
3.90197237009e-10
-6.69947811403e-09
-2.21919679073e-09
3.83771647356e-10
-6.56051604198e-09
-2.07169688985e-09
3.11882874087e-10
-6.38439215066e-09
-1.90156996981e-09
1.80880095159e-10
-6.17589638585e-09
-1.72147356902e-09
-5.95940577073e-09
-1.54392128313e-09
1.29632564821e-11
-1.89355636235e-10
-6.22274070627e-09
-1.7851342096e-09
9.89011308506e-14
-3.35322517725e-10
-6.41846284995e-09
-1.9889915537e-09
-4.15207515899e-10
-6.61194898883e-09
-2.19522376468e-09
-4.21085881621e-10
-6.77463166795e-09
-2.38972881094e-09
-3.56147585153e-10
-6.9018207948e-09
-2.55814308378e-09
-2.33462329033e-10
-6.99175586796e-09
-2.68821216927e-09
-7.32591168684e-11
-7.04719142649e-09
-2.77112611304e-09
9.97909718211e-11
-7.06818422773e-09
-2.80051626797e-09
2.59600243426e-10
-7.0467209985e-09
-2.77083515327e-09
3.81523399643e-10
-6.99091200332e-09
-2.68764084879e-09
4.45343035847e-10
-6.90072674458e-09
-2.55729541454e-09
4.37979130527e-10
-6.77342686541e-09
-2.38859995883e-09
3.56221162216e-10
-6.61076008227e-09
-2.19379128517e-09
2.07868855282e-10
-6.41704226844e-09
-1.98718025119e-09
-6.22038100828e-09
-1.78279989373e-09
1.55963440323e-11
-2.05700842753e-10
-6.17870742557e-09
-1.94401352837e-09
1.39480331698e-13
-3.62487707825e-10
-6.34182225119e-09
-2.16550959729e-09
-4.48253469822e-10
-6.50765046306e-09
-2.38863088666e-09
-4.54300123005e-10
-6.64618607973e-09
-2.59854965842e-09
-3.84057026969e-10
-6.75319320763e-09
-2.7800212344e-09
-2.51472240977e-10
-6.82763889192e-09
-2.92001883405e-09
-7.83575340071e-11
-6.87309752283e-09
-3.00915632245e-09
1.08620807218e-10
-6.89042111181e-09
-3.0406771723e-09
2.81285183195e-10
-6.87252481153e-09
-3.00880892246e-09
4.12991018013e-10
-6.82659678249e-09
-2.91933889609e-09
4.81933639111e-10
-6.75180420516e-09
-2.77901825684e-09
4.74158071603e-10
-6.64458283169e-09
-2.59722669369e-09
3.86221763725e-10
-6.50596033611e-09
-2.38697633874e-09
2.26733428777e-10
-6.33977396699e-09
-2.16345702146e-09
-6.1756718763e-09
-1.94142305455e-09
1.78649829945e-11
-2.15792075632e-10
-5.90748297509e-09
-2.03069155102e-09
1.72388502637e-13
-3.78482486302e-10
-6.03173606236e-09
-2.26205577637e-09
-4.67142772348e-10
-6.16331108804e-09
-2.49397536406e-09
-4.72914380315e-10
-6.27230616613e-09
-2.71154008768e-09
-3.99452827381e-10
-6.35496259976e-09
-2.89926680857e-09
-2.61153841657e-10
-6.41108008023e-09
-3.04390034526e-09
-8.0675805758e-11
-6.44485374436e-09
-3.13586408711e-09
1.14214044511e-10
-6.45785654436e-09
-3.16829637807e-09
2.94186520563e-10
-6.44418026598e-09
-3.13546276898e-09
4.31493495231e-10
-6.40983533297e-09
-3.04311755508e-09
5.03483256393e-10
-6.35325849433e-09
-2.89811958246e-09
4.95760567272e-10
-6.27026208823e-09
-2.71004273752e-09
4.04669965819e-10
-6.16104971906e-09
-2.49213155343e-09
2.39014502192e-10
-6.0289832417e-09
-2.25981172453e-09
-5.90371682095e-09
-2.02791583388e-09
1.98492983413e-11
-2.20752508416e-10
-5.47719652481e-09
-2.05436633131e-09
1.94443829305e-13
-3.85291701983e-10
-5.5615488382e-09
-2.28930791409e-09
-4.74344680121e-10
-5.65723172251e-09
-2.52351482851e-09
-4.79430975573e-10
-5.73545485892e-09
-2.74247439812e-09
-4.04436921321e-10
-5.79298040143e-09
-2.93097312933e-09
-2.63871264656e-10
-5.83044408973e-09
-3.07596834599e-09
-8.06300395164e-11
-5.85241830118e-09
-3.16801115588e-09
1.17172194091e-10
-5.86103620296e-09
-3.20036874579e-09
2.99849885667e-10
-5.85164090793e-09
-3.16755785993e-09
4.39307181743e-10
-5.82898366217e-09
-3.07508716832e-09
5.12658238242e-10
-5.79093178112e-09
-2.92969046898e-09
5.05406298395e-10
-5.7329195135e-09
-2.74081871073e-09
4.13682151819e-10
-5.65432416959e-09
-2.52150832844e-09
2.45938699069e-10
-5.55800320983e-09
-2.28691147367e-09
-5.47260236828e-09
-2.05146072975e-09
2.16264148062e-11
-2.21364243679e-10
-4.9456369443e-09
-2.02458350898e-09
2.06855081022e-13
-3.84242165226e-10
-4.99307759361e-09
-2.25825848425e-09
-4.71503464571e-10
-5.05490582612e-09
-2.48975299314e-09
-4.7551428292e-10
-5.10416028973e-09
-2.70527855442e-09
-4.00404600536e-10
-5.13823488084e-09
-2.8902809575e-09
-2.60524357782e-10
-5.15853106267e-09
-3.03228813766e-09
-7.84877724916e-11
-5.1697372583e-09
-3.12224787962e-09
1.17905010369e-10
-5.17432680139e-09
-3.15375393148e-09
2.99315313e-10
-5.1688445355e-09
-3.12174413912e-09
4.37963264035e-10
-5.15682747461e-09
-3.03131197226e-09
5.11252123353e-10
-5.13579332616e-09
-2.88886952973e-09
5.04858576045e-10
-5.10106192016e-09
-2.70347687808e-09
4.14689411028e-10
-5.05125487007e-09
-2.48760396145e-09
2.48376014944e-10
-4.98862335181e-09
-2.25573834784e-09
-4.94009973169e-09
-2.02158923298e-09
2.32612655564e-11
-2.1808974353e-10
-4.36070735167e-09
-1.95078468047e-09
2.09277135863e-13
-3.76094165682e-10
-4.37703808171e-09
-2.1797052084e-09
-4.59585388788e-10
-4.40943934692e-09
-2.40486307188e-09
-4.62162324306e-10
-4.43347672035e-09
-2.61338666559e-09
-3.88200489366e-10
-4.44736999406e-09
-2.79168066547e-09
-2.51658005585e-10
-4.4531534465e-09
-2.92814430513e-09
-7.44072204313e-11
-4.45535502629e-09
-3.01435793101e-09
1.16667483308e-10
-4.45654551147e-09
-3.04441418778e-09
2.93223656142e-10
-4.45432836986e-09
-3.01380524508e-09
4.28400741313e-10
-4.45116613982e-09
-2.92707615032e-09
5.00353777282e-10
-4.44447165753e-09
-2.79014576072e-09
4.95168495837e-10
-4.42972534293e-09
-2.61144779356e-09
4.08527757946e-10
-4.4049280256e-09
-2.40258549975e-09
2.4684981667e-10
-4.37153548663e-09
-2.17708079646e-09
-4.35406086071e-09
-1.94773055583e-09
2.48075630698e-11
-2.11094942367e-10
-3.76103390098e-09
-1.84206431664e-09
2.05593996637e-13
-3.61189228227e-10
-3.75361623063e-09
-2.06400076488e-09
-4.39131528713e-10
-3.76216727193e-09
-2.28041822906e-09
-4.39993245012e-10
-3.76573000163e-09
-2.47945216568e-09
-3.68371578915e-10
-3.76356795889e-09
-2.64870984367e-09
-2.37631359761e-10
-3.75811572195e-09
-2.77773152542e-09
-6.84971298644e-11
-3.75346447559e-09
-2.85894761338e-09
1.13622703246e-10
-3.75202539008e-09
-2.88710355256e-09
2.81988620393e-10
-3.75227681224e-09
-2.85834774453e-09
4.11220612919e-10
-3.75579011532e-09
-2.77657451793e-09
4.80634710227e-10
-3.76012995353e-09
-2.64705598079e-09
4.76927181057e-10
-3.76121611468e-09
-2.47738238832e-09
3.95583084364e-10
-3.75665785813e-09
-2.27802148457e-09
2.41569306796e-10
-3.74690383689e-09
-2.06128430895e-09
-3.75310183547e-09
-1.83896919246e-09
2.63038636504e-11
-2.00289060522e-10
-3.17669230353e-09
-1.70707338227e-09
1.97070337946e-13
-3.39715816472e-10
-3.15289219356e-09
-1.92097223023e-09
-4.10666769749e-10
-3.14320078544e-09
-2.12730424981e-09
-4.09665477685e-10
-3.13133897456e-09
-2.31524756134e-09
-3.41511125643e-10
-3.11758897415e-09
-2.47385144094e-09
-2.1884385032e-10
-3.10441165503e-09
-2.59406016493e-09
-6.08908811155e-11
-3.09517817361e-09
-2.6693601874e-09
1.08921595674e-10
-3.09192667566e-09
-2.69528588267e-09
2.66027215933e-10
-3.09379413611e-09
-2.66871555219e-09
3.87034526951e-10
-3.101679009e-09
-2.59281819341e-09
4.52770741967e-10
-3.11351248124e-09
-2.47208301339e-09
4.50675828928e-10
-3.12593437387e-09
-2.31305162891e-09
3.76056030003e-10
-3.13653469449e-09
-2.12479462337e-09
2.32449573497e-10
-3.14479015123e-09
-1.91817319428e-09
-3.16728325089e-09
-1.70395092581e-09
2.77721083284e-11
-1.85522801779e-10
-2.62970095709e-09
-1.55401087094e-09
1.82951944045e-13
-3.12341598544e-10
-2.59482691215e-09
-1.75991971859e-09
-3.75394411476e-10
-2.57195374532e-09
-1.9556806902e-09
-3.72461775585e-10
-2.5498127341e-09
-2.13160425911e-09
-3.08697547291e-10
-2.52902273157e-09
-2.27848256009e-09
-1.96001907795e-10
-2.51159855934e-09
-2.38892919692e-09
-5.18395635021e-11
-2.49999439825e-09
-2.45766954291e-09
1.02801877624e-10
-2.49571318412e-09
-2.48113660712e-09
2.46032499564e-10
-2.49836966033e-09
-2.45698444289e-09
3.56908289106e-10
-2.50837223619e-09
-2.38760920411e-09
4.18032225991e-10
-2.5241891523e-09
-2.27660662432e-09
4.17604956758e-10
-2.54336844693e-09
-2.12928703397e-09
3.50598051476e-10
-2.56395185938e-09
-1.95306248835e-09
2.19316320823e-10
-2.58511895162e-09
-1.757050042e-09
-2.61857708744e-09
-1.5508833101e-09
2.91439119838e-11
-1.67935564617e-10
-2.13316779112e-09
-1.39064280068e-09
1.49492132716e-13
-2.81896857637e-10
-2.08896101668e-09
-1.58957548237e-09
-3.36395211636e-10
-2.05830614753e-09
-1.77483693968e-09
-3.31076084788e-10
-2.03130623026e-09
-1.93825325119e-09
-2.72007235426e-10
-2.007920113e-09
-2.07275481115e-09
-1.70425252493e-10
-1.98948014455e-09
-2.17285434053e-09
-4.18038083206e-11
-1.97749207243e-09
-2.23464246317e-09
9.56884678473e-11
-1.97288084798e-09
-2.25551711787e-09
2.23290773388e-10
-1.97556818607e-09
-2.23392510407e-09
3.22883728757e-10
-1.9856550758e-09
-2.17147038563e-09
3.79081411765e-10
-2.00218662973e-09
-2.07078675072e-09
3.80763958294e-10
-2.02365758971e-09
-1.93582496629e-09
3.22022614181e-10
-2.04877786755e-09
-1.77211354858e-09
2.03297717921e-10
-2.07740321073e-09
-1.5866499406e-09
-2.12010373178e-09
-1.38755424444e-09
3.04935699204e-11
-1.57593068549e-10
-1.22446895499e-09
1.26523326024e-13
-1.68265950767e-09
-2.58493333081e-10
-1.41795599415e-09
-1.6367686052e-09
-3.01842964062e-10
-1.59279714634e-09
-1.60603600479e-09
-2.91892961129e-10
-1.74346668944e-09
-1.57950560058e-09
-2.36098063762e-10
-1.86532322261e-09
-1.55740247795e-09
-1.44972389035e-10
-1.9548678622e-09
-1.54061904931e-09
-3.17670451273e-11
-2.00957998076e-09
-1.52983421504e-09
8.85169544088e-11
-2.02783033175e-09
-1.52543026784e-09
2.0060716892e-10
-2.00884694646e-09
-1.5275345472e-09
2.89563092404e-10
-1.95345077251e-09
-1.5360453805e-09
3.42232368338e-10
-1.86330280796e-09
-1.55056884625e-09
3.48245553193e-10
-1.7409647373e-09
-1.57041981478e-09
3.00309148587e-10
-1.58999385625e-09
-1.59472188355e-09
1.9433931997e-10
-1.41495990971e-09
-1.62312449719e-09
-1.22154855067e-09
3.17395926331e-11
-1.66737275164e-09
3.58978596556e-12
1.40827307931e-11
-3.1400342075e-10
5.39853889931e-13
7.33493337966e-12
1.53488666284e-11
-3.48684649612e-10
9.76265735725e-12
1.65034221344e-11
-3.83160535058e-10
1.03646377774e-11
1.73639439737e-11
-4.15148346358e-10
9.07080608979e-12
1.78983968457e-11
-4.42487363074e-10
6.16883945859e-12
1.81590246888e-11
-4.63410620313e-10
2.20869241015e-12
1.82658719836e-11
-4.76705860715e-10
-2.1309797603e-12
1.82514422301e-11
-4.8146093254e-10
-6.11973181279e-12
1.80842901377e-11
-4.76669897419e-10
-9.10021756792e-12
1.77767642632e-11
-4.63339712751e-10
-1.05626271615e-11
1.72963281619e-11
-4.42383088705e-10
-1.02153007316e-11
1.66103666282e-11
-4.15011543773e-10
-8.07590871443e-12
1.57085462414e-11
-3.82988976046e-10
-4.53449384365e-12
1.46652486742e-11
-3.48465159971e-10
1.36528213444e-11
-3.13691888632e-10
-3.7733407212e-13
9.91272708099e-12
4.69959493064e-11
-8.47815182803e-10
1.15626599941e-12
1.99403744107e-11
5.01433979484e-11
-9.40538549409e-10
2.6453054823e-11
5.30801139922e-11
-1.03275404302e-09
2.80717540755e-11
5.51573908553e-11
-1.11837366729e-09
2.45496614377e-11
5.63283399039e-11
-1.19159770002e-09
1.66400871688e-11
5.68214355046e-11
-1.24766500663e-09
5.81272630125e-12
5.69510942211e-11
-1.28328596399e-09
-6.05986557193e-12
5.68594347326e-11
-1.29599340064e-09
-1.6949701521e-11
5.6492964326e-11
-1.28316864628e-09
-2.5023975844e-11
5.5871755454e-11
-1.24743461085e-09
-2.88809211864e-11
5.48653758379e-11
-1.19126121364e-09
-2.77697001009e-11
5.33044738885e-11
-1.11793759913e-09
-2.18229052464e-11
5.11020308619e-11
-1.03221746609e-09
-1.21667244322e-11
4.83807191982e-11
-9.39870472239e-10
4.57261795202e-11
-8.46923696116e-10
-1.03274175102e-12
1.49016868098e-11
8.04952020373e-11
-1.26911970589e-09
1.62641028489e-12
2.98463526794e-11
8.39715844427e-11
-1.4074164265e-09
3.95894858818e-11
8.72417391684e-11
-1.54486774392e-09
4.20498777556e-11
8.92047460638e-11
-1.67249506052e-09
3.68033874604e-11
8.98895882526e-11
-1.78167184892e-09
2.49369411718e-11
8.97548458407e-11
-1.8652856773e-09
8.6379735521e-12
8.93587598782e-11
-1.91839148229e-09
-9.25348635756e-12
8.9016534921e-11
-1.9372986428e-09
-2.56533074064e-11
8.87003184614e-11
-1.91820808235e-09
-3.77719318414e-11
8.84101586518e-11
-1.86492502018e-09
-4.3494421071e-11
8.78561680563e-11
-1.78114407677e-09
-4.17281967756e-11
8.66394695938e-11
-1.6718098336e-09
-3.27390318667e-11
8.44836259956e-11
-1.54402474698e-09
-1.82741280634e-11
8.14415050489e-11
-1.40637401118e-09
7.85195876781e-11
-1.26775748834e-09
-1.68964497261e-12
1.8740658235e-11
1.02747144296e-10
-1.58768984842e-09
1.87631294246e-12
3.72581556026e-11
1.04435110423e-10
-1.76041757856e-09
4.93250492512e-11
1.06027790549e-10
-1.93185394107e-09
5.23550345024e-11
1.06143832322e-10
-2.090990762e-09
4.5799982387e-11
1.04979658512e-10
-2.22712668473e-09
3.09825300609e-11
1.03239973487e-10
-2.33139372964e-09
1.06120207267e-11
1.01729378999e-10
-2.39758769679e-09
-1.17566317925e-11
1.00944847981e-10
-2.42110429008e-09
-3.22513302282e-11
1.00926555229e-10
-2.39734062508e-09
-4.73660432635e-11
1.0162129084e-10
-2.33090818168e-09
-5.44546467027e-11
1.02567355239e-10
-2.22641714128e-09
-5.21809709872e-11
1.03109646175e-10
-2.09007246861e-09
-4.09226306179e-11
1.02727948597e-10
-1.93073217183e-09
-2.29118079531e-11
1.0131756624e-10
-1.75905141817e-09
1.00154775598e-10
-1.5859520039e-09
-2.24137232306e-12
2.14216486511e-11
1.10508778788e-10
-1.81531516919e-09
2.0116281884e-12
4.22403306734e-11
1.08880635377e-10
-2.01287027351e-09
5.57686038123e-11
1.07351920105e-10
-2.20855249739e-09
5.91177598654e-11
1.04519889158e-10
-2.39007431155e-09
5.16666051383e-11
1.00736052929e-10
-2.54532819174e-09
3.48869032767e-11
9.69066248297e-11
-2.66422517839e-09
1.18213032208e-11
9.40202291406e-11
-2.73966247448e-09
-1.35084774734e-11
9.27201807323e-11
-2.76640088586e-09
-3.67136409217e-11
9.31222217342e-11
-2.7393545939e-09
-5.38144575793e-11
9.51134054978e-11
-2.66362109107e-09
-6.18166591685e-11
9.8091335231e-11
-2.54444808526e-09
-5.92269461558e-11
1.01200412897e-10
-2.3889415716e-09
-4.6497075119e-11
1.03701125607e-10
-2.2071825469e-09
-2.61769937479e-11
1.05331440416e-10
-2.01123026241e-09
1.07413369571e-10
-1.8132830006e-09
-2.69692827521e-12
2.3009442091e-11
1.05396827019e-10
-1.96302923091e-09
2.07168604494e-12
4.49688827119e-11
9.98859270886e-11
-2.17723325648e-09
5.91656655552e-11
9.47101548184e-11
-2.38884840373e-09
6.26014061611e-11
8.86807456826e-11
-2.58493600101e-09
5.46357760922e-11
8.22344813434e-11
-2.75256422948e-09
3.6813352746e-11
7.63923981429e-11
-2.88089660323e-09
1.23373584295e-11
7.22268930867e-11
-2.96225703133e-09
-1.45385016836e-11
7.04585044431e-11
-2.99102069057e-09
-3.91627993717e-11
7.12690996606e-11
-2.96189163412e-09
-5.73150831731e-11
7.44935313793e-11
-2.88018117394e-09
-6.58237725836e-11
7.9455768716e-11
-2.75152599592e-09
-6.3116456426e-11
8.51947369345e-11
-2.58360882798e-09
-4.96728109456e-11
9.08354858467e-11
-2.38726143954e-09
-2.81848512227e-11
9.60146252154e-11
-2.17536559272e-09
1.01885545753e-10
-1.96076803536e-09
-3.073546252e-12
2.35880429711e-11
9.11114872732e-11
-2.04119073926e-09
2.07895695436e-12
4.56787884397e-11
8.20062569373e-11
-2.26519115228e-09
5.98533481376e-11
7.3475975336e-11
-2.48576454093e-09
6.31745311212e-11
6.46844288268e-11
-2.68982859453e-09
5.50359483463e-11
5.60836295229e-11
-2.8641220134e-09
3.698869229e-11
4.87029533141e-11
-2.99747527895e-09
1.2245166706e-11
4.35988306907e-11
-3.08193133205e-09
-1.49169770751e-11
4.14935754811e-11
-3.11170220827e-09
-3.98111947471e-11
4.2613185112e-11
-3.08151213157e-09
-5.8184255962e-11
4.67585868855e-11
-2.99665645434e-09
-6.68404676921e-11
5.32519667517e-11
-2.86293896814e-09
-6.41950994961e-11
6.11284609056e-11
-2.68832754251e-09
-5.0710898856e-11
6.94786604946e-11
-2.48399076907e-09
-2.90518611068e-11
7.79229116127e-11
-2.26313706256e-09
8.72675393215e-11
-2.03875437765e-09
-3.37705930923e-12
2.32613393549e-11
7.17818655251e-11
-2.05953729557e-09
2.04488046631e-12
4.46477165507e-11
5.99707659146e-11
-2.28771927316e-09
5.82241340156e-11
4.89007657742e-11
-2.51152896006e-09
6.12702227507e-11
3.81865124968e-11
-2.71813134539e-09
5.32540731924e-11
2.82204443013e-11
-2.8943467894e-09
3.56802639921e-11
1.99542463526e-11
-3.02903285696e-09
1.16417991915e-11
1.43483196669e-11
-3.11421462927e-09
-1.47339147457e-11
1.20687971196e-11
-3.14413999585e-09
-3.89197378583e-11
1.33567990391e-11
-3.11374564128e-09
-5.68050347466e-11
1.80048446439e-11
-3.0281190163e-09
-6.53007950426e-11
2.53899998154e-11
-2.89303247046e-09
-6.2865244716e-11
3.46263082618e-11
-2.71647640582e-09
-4.99041447702e-11
4.48562017294e-11
-2.50959614554e-09
-2.89079519065e-11
5.57528553304e-11
-2.28551406806e-09
6.7690466516e-11
-2.0569700583e-09
-3.61639132502e-12
2.2157773411e-11
5.10411903063e-11
-2.02724680748e-09
1.98371716276e-12
4.2168881574e-11
3.76711078606e-11
-2.25516116207e-09
5.46941741071e-11
2.51135635583e-11
-2.47765889968e-09
5.7346955561e-11
1.34427959223e-11
-2.68243287123e-09
4.97001624293e-11
2.94682827272e-12
-2.85672042956e-09
3.31699853373e-11
-5.54817227054e-12
-2.98971987912e-09
1.06280976605e-11
-1.12298891964e-11
-3.07367751033e-09
-1.4089052107e-11
-1.35261008761e-11
-3.10305610982e-09
-3.67696544192e-11
-1.2207506011e-11
-3.07316293521e-09
-5.3587978753e-11
-7.46698820672e-12
-2.98871950198e-09
-6.16667763148e-11
1.63867242733e-13
-2.85528794468e-09
-5.95519003894e-11
9.93086588409e-12
-2.68064240299e-09
-4.75622696639e-11
2.10830148632e-11
-2.47559115122e-09
-2.78969075379e-11
3.338844937e-11
-2.25283357473e-09
4.67725038265e-11
-2.02458419069e-09
-3.7976545806e-12
2.04167598206e-11
3.16214598414e-11
-1.95300533613e-09
1.90167247277e-12
3.85367247188e-11
1.78549101412e-11
-2.17731612491e-09
4.9675599045e-11
4.86708176969e-12
-2.39505499201e-09
5.18575911236e-11
-6.8663248055e-12
-2.59462200415e-09
4.47809361369e-11
-1.71601459016e-11
-2.76394558942e-09
2.97376969008e-11
-2.53364723282e-11
-2.89284391652e-09
9.3035440424e-12
-3.07450533422e-11
-2.97400635357e-09
-1.30835608774e-11
-3.29325452565e-11
-3.00227340347e-09
-3.36432536318e-11
-3.16950274228e-11
-2.97345047666e-09
-4.894378477e-11
-2.71999861536e-11
-2.89176533337e-09
-5.63982141292e-11
-1.98645168485e-11
-2.76240712405e-09
-5.46767771456e-11
-1.02913215965e-11
-2.59271204068e-09
-4.39926024051e-11
8.97671149398e-13
-2.39287202496e-09
-2.61731703688e-11
1.3565405524e-11
-2.17488810996e-09
2.72419784457e-11
-1.95027440167e-09
-3.92516103939e-12
1.81811023625e-11
1.52769552711e-11
-1.84507856906e-09
1.80779865301e-12
3.4032695422e-11
2.12076689149e-12
-2.0635321185e-09
4.35593934697e-11
-1.03970973291e-11
-2.27409568784e-09
4.52356399964e-11
-2.14886992879e-11
-2.46597136511e-09
3.88856532201e-11
-3.10349582102e-11
-2.62801653561e-09
2.56524646189e-11
-3.84946259581e-11
-2.75093149576e-09
7.76145760258e-12
-4.33872306863e-11
-2.82806059136e-09
-1.18168085421e-11
-4.53738105358e-11
-2.85477143956e-09
-2.98161579905e-11
-4.4298668533e-11
-2.82746782275e-09
-4.32697738396e-11
-4.02831910628e-11
-2.74978293074e-09
-4.99374523583e-11
-3.36353093116e-11
-2.62638327083e-09
-4.86425948396e-11
-2.47982722144e-11
-2.46395533901e-09
-3.94907972515e-11
-1.42692764053e-11
-2.27181287209e-09
-2.38927700095e-11
-2.12464721945e-12
-2.06101970229e-09
1.0840179581e-11
-1.84229868017e-09
-4.00541634481e-12
1.55858690311e-11
2.86549038563e-12
-1.71138438819e-09
1.69795439948e-12
2.89171894462e-11
-8.89186378347e-12
-1.92279683216e-09
3.67109138908e-11
-2.02962215086e-11
-2.1247142122e-09
3.78904055203e-11
-3.02809211419e-11
-2.30718916631e-09
3.23871623619e-11
-3.87343343893e-11
-2.46025231904e-09
2.11696378062e-11
-4.52425231564e-11
-2.57575173153e-09
6.09165983297e-12
-4.94671590261e-11
-2.64789287402e-09
-1.03885939743e-11
-5.12062325355e-11
-2.67270599444e-09
-2.55543680868e-11
-5.03307807169e-11
-2.64726799867e-09
-3.69509700533e-11
-4.69419849255e-11
-2.57454165667e-09
-4.27084675207e-11
-4.12135828458e-11
-2.45853474076e-09
-4.18301282546e-11
-3.34547278269e-11
-2.30507817543e-09
-3.43318506495e-11
-2.40431280761e-11
-2.12234335252e-09
-2.12081410304e-11
-1.305199331e-11
-1.92021303222e-09
-1.56069234393e-12
-1.70857035857e-09
-4.04500456714e-12
1.27405270101e-11
-5.39453246655e-12
-1.55956134034e-09
1.57375940802e-12
2.34075690682e-11
-1.52576379869e-11
-1.76380577114e-09
2.94666768786e-11
-2.52170937384e-11
-1.95641620296e-09
3.02125186454e-11
-3.38703288711e-11
-2.1283950774e-09
2.56393251872e-11
-4.10589098534e-11
-2.27125803663e-09
1.65398439693e-11
-4.649178818e-11
-2.37827947103e-09
4.37334528054e-12
-4.99993634812e-11
-2.44471789059e-09
-8.89242446125e-12
-5.14532057877e-11
-2.46738046158e-09
-2.11256980598e-11
-5.08104175082e-11
-2.4440668762e-09
-3.03603813281e-11
-4.80909943785e-11
-2.37701813123e-09
-3.51232241228e-11
-4.34014221867e-11
-2.26946772314e-09
-3.45984149464e-11
-3.68905150416e-11
-2.12619910179e-09
-2.8755561962e-11
-2.88222692602e-11
-1.95396640309e-09
-1.82417826915e-11
-1.93073855013e-11
-1.76116529534e-09
-9.76809163799e-12
-1.55673536453e-09
-4.05578433828e-12
9.60078807123e-12
-9.59718755858e-12
-1.39701118133e-09
1.42981049734e-12
1.76226553508e-11
-1.75687015344e-11
-1.59494074374e-09
2.21128621422e-11
-2.60773474291e-11
-1.778140571e-09
2.25628020912e-11
-3.332040955e-11
-1.93894156073e-09
1.8983133657e-11
-3.91862765764e-11
-2.07076359249e-09
1.19829639632e-11
-4.35351847744e-11
-2.16856585411e-09
2.69234634277e-12
-4.63080358273e-11
-2.22880686661e-09
-7.43629925778e-12
-4.74956461848e-11
-2.24914903058e-09
-1.67726904855e-11
-4.7061369606e-11
-2.22813843845e-09
-2.38656239209e-11
-4.50279254615e-11
-2.16726852437e-09
-2.75751925613e-11
-4.13876565704e-11
-2.06891780254e-09
-2.72740939183e-11
-3.6183739466e-11
-1.93667339161e-09
-2.29194808033e-11
-2.95277487254e-11
-1.7756183635e-09
-1.49850919865e-11
-2.15042375763e-11
-1.59226106869e-09
-1.39159557354e-11
-1.39421594235e-09
-4.06101404142e-12
6.01604381776e-12
-1.23086273027e-09
1.26001859506e-12
-1.00653651454e-11
1.17866882718e-11
-1.42394888636e-09
-1.7048498535e-11
1.50038582887e-11
-1.5977091045e-09
-2.40943849546e-11
1.52817656515e-11
-1.74693054989e-09
-2.9877450998e-11
1.26863644489e-11
-1.86726436815e-09
-3.44067019851e-11
7.69085115509e-12
-1.95548288247e-09
-3.76971157559e-11
1.08703630826e-12
-2.00929620007e-09
-3.97917651143e-11
-6.08652825726e-12
-2.02724711996e-09
-4.07172754425e-11
-1.27184473566e-11
-2.00862595875e-09
-4.04917294851e-11
-1.77682948054e-11
-1.95417887727e-09
-3.90842192065e-11
-2.04391469043e-11
-1.86540108008e-09
-3.64659258828e-11
-2.02390233801e-11
-1.74462605221e-09
-3.25785480998e-11
-1.70881556415e-11
-1.59513967394e-09
-2.74013884791e-11
-1.13300069442e-11
-1.42121837976e-09
-2.08824014438e-11
-1.22822491609e-09
-4.09677137925e-12
-1.43608740032e-11
-9.18729587461e-13
9.39304244468e-12
-3.22275804181e-10
-2.14327913074e-13
-1.7582169717e-12
1.04169033252e-11
-3.58457663758e-10
-2.24937722253e-12
1.15421248146e-11
-3.94448352842e-10
-2.35838008363e-12
1.25705528437e-11
-4.27872605819e-10
-2.06422403023e-12
1.35143362354e-11
-4.56462947732e-10
-1.43897319946e-12
1.42704306249e-11
-4.78358404257e-10
-6.08122071124e-13
1.47531754432e-11
-4.92276054863e-10
2.94429651446e-13
1.49286248788e-11
-4.97251248436e-10
1.1343312628e-12
1.47778102362e-11
-4.92234789168e-10
1.7919128636e-12
1.4336928787e-11
-4.78276782418e-10
2.16994353781e-12
1.3640571386e-11
-4.56342494598e-10
2.2021632981e-12
1.2729953156e-11
-4.27714722993e-10
1.86084673934e-12
1.16629284749e-11
-3.9425200717e-10
1.15527434905e-12
1.05085286957e-11
-3.58210917617e-10
9.41058696625e-12
-3.21935536187e-10
4.40746999701e-14
-2.57622665682e-12
1.8284529171e-11
-8.5414374419e-10
-5.98855658852e-14
-4.5477691955e-12
2.00336554296e-11
-9.4847974551e-10
-5.6436259408e-12
2.19074077913e-11
-1.04240982126e-09
-5.77545832552e-12
2.36859232299e-11
-1.12972646245e-09
-4.93159581724e-12
2.5328330489e-11
-1.20447558982e-09
-3.29135453341e-12
2.66532847515e-11
-1.26175439735e-09
-1.15177137461e-12
2.75143487991e-11
-1.29816238448e-09
1.1538437328e-12
2.78476518748e-11
-1.31115168776e-09
3.28159256573e-12
2.76143232469e-11
-1.29804731223e-09
4.92057221221e-12
2.68830949652e-11
-1.2615263549e-09
5.81854995686e-12
2.57156903333e-11
-1.20413800911e-09
5.80867537621e-12
2.41802249779e-11
-1.12928185591e-09
4.83510034139e-12
2.23674099036e-11
-1.0418535396e-09
2.9468148895e-12
2.03957650541e-11
-9.47777543961e-10
1.847138276e-11
-8.53201223799e-10
2.51603318905e-13
-3.45680805682e-12
2.38777948228e-11
-1.27103319021e-09
-3.14593019896e-13
-6.41770926389e-12
2.59939865206e-11
-1.41069509477e-09
-8.15258659761e-12
2.8120309533e-11
-1.54971550269e-09
-8.44823198316e-12
3.01455085868e-11
-1.6789842508e-09
-7.2886739937e-12
3.19980805625e-11
-1.78969139849e-09
-4.92141969273e-12
3.34943979315e-11
-1.87454872489e-09
-1.77831809637e-12
3.44744569732e-11
-1.92846908493e-09
1.63368126788e-12
3.48631977284e-11
-1.94766230508e-09
4.78503527632e-12
3.4610005405e-11
-1.9282735283e-09
7.19941432475e-12
3.37953355461e-11
-1.87416275974e-09
8.49668566222e-12
3.24892779787e-11
-1.78912376956e-09
8.43538703528e-12
3.07661672384e-11
-1.67824363894e-09
6.95206094426e-12
2.87165870214e-11
-1.54880123548e-09
4.16039708119e-12
2.6465136738e-11
-1.40956552315e-09
2.41673485256e-11
-1.26956706436e-09
3.55440447128e-13
-4.08558731478e-12
2.75693297162e-11
-1.58699574477e-09
-4.04909360499e-13
-7.69087575317e-12
2.99333716531e-11
-1.76101658201e-09
-9.83804066676e-12
3.21239567638e-11
-1.93403476763e-09
-1.02231052944e-11
3.41635892392e-11
-2.09489079801e-09
-8.82627846667e-12
3.5992189134e-11
-2.23266880007e-09
-5.94146545502e-12
3.74612636342e-11
-2.33828925086e-09
-2.08857657098e-12
3.84308261879e-11
-2.40537413037e-09
2.10398524915e-12
3.88240428007e-11
-2.42919968131e-09
5.97154692467e-12
3.85808281499e-11
-2.40510397534e-09
8.91562570297e-12
3.77834831137e-11
-2.33775734992e-09
1.04632386077e-11
3.65000633755e-11
-2.2318897737e-09
1.03249289224e-11
3.47989502297e-11
-2.09388088851e-09
8.4448763699e-12
3.27501038491e-11
-1.93280107049e-09
5.01459909124e-12
3.04459094659e-11
-1.7595204292e-09
2.79281015878e-11
-1.58511062731e-09
4.89293503519e-13
-4.44642079052e-12
3.02963121641e-11
-1.8132563512e-09
-4.46868020893e-13
-8.433522958e-12
3.29053911868e-11
-2.0121196408e-09
-1.08296865118e-11
3.51384992701e-11
-2.20946173091e-09
-1.12703383427e-11
3.71215574146e-11
-2.39282351763e-09
-9.72666430569e-12