/*--------------------------------*- C++ -*----------------------------------*\
  =========                 |
  \\      /  F ield         | OpenFOAM: The Open Source CFD Toolbox
   \\    /   O peration     | Website:  https://openfoam.org
    \\  /    A nd           | Version:  7
     \\/     M anipulation  |
\*---------------------------------------------------------------------------*/
FoamFile
{
    version     2.0;
    format      ascii;
    class       volVectorField;
    location    "1.48";
    object      U;
}
// * * * * * * * * * * * * * * * * * * * * * * * * * * * * * * * * * * * * * //

dimensions      [0 1 -1 0 0 0 0];

internalField   nonuniform List<vector> 
22500
(
(-1.12088372621e-05 -1.20046786477e-05 -9.83019221482e-05)
(-1.10158036384e-05 -1.32522411808e-05 -0.000104625614749)
(-1.02026730641e-05 -1.47397547556e-05 -0.000111476240125)
(-8.95309750673e-06 -1.61967848295e-05 -0.000118130740105)
(-7.19565009812e-06 -1.75216173173e-05 -0.000123953598585)
(-5.0321070773e-06 -1.85726419334e-05 -0.000128453409316)
(-2.56953851662e-06 -1.92461343502e-05 -0.000131289004734)
(5.09572823035e-08 -1.94748191339e-05 -0.000132256439554)
(2.67053211134e-06 -1.92347257981e-05 -0.000131272521379)
(5.13067408803e-06 -1.85501432793e-05 -0.000128420318341)
(7.29079645202e-06 -1.74885912384e-05 -0.000123903086061)
(9.04429182178e-06 -1.61540761853e-05 -0.000118060701154)
(1.0288436595e-05 -1.46884909103e-05 -0.000111381976551)
(1.10978122432e-05 -1.31923718738e-05 -0.000104496606261)
(1.12760116596e-05 -1.19435364879e-05 -9.81174320802e-05)
(-3.18467299568e-05 -3.42077656416e-05 -0.000302936079022)
(-3.10971725466e-05 -3.77685039188e-05 -0.000322269779506)
(-2.88008831142e-05 -4.1941850907e-05 -0.000343233933064)
(-2.52440111667e-05 -4.60344396918e-05 -0.000363618523979)
(-2.02930268141e-05 -4.97510364281e-05 -0.000381481014978)
(-1.41891452186e-05 -5.27016750619e-05 -0.000395303672345)
(-7.23793572818e-06 -5.45945858724e-05 -0.00040402111459)
(1.61094821617e-07 -5.52375057928e-05 -0.000406992190761)
(7.55696099623e-06 -5.45625963324e-05 -0.000403972153903)
(1.44994032173e-05 -5.26388450741e-05 -0.000395205281414)
(2.05898444236e-05 -4.96594001685e-05 -0.00038133021668)
(2.55236346823e-05 -4.59169235849e-05 -0.000363408073543)
(2.90581150215e-05 -4.18026460633e-05 -0.000342948725622)
(3.13319557646e-05 -3.76091037946e-05 -0.000321877816671)
(3.20340466261e-05 -3.40444765407e-05 -0.000302382602648)
(-4.7729870643e-05 -5.12083877477e-05 -0.000503314597903)
(-4.62901898606e-05 -5.62997897426e-05 -0.000534359621019)
(-4.27724054017e-05 -6.22178622232e-05 -0.000568055719302)
(-3.74059316025e-05 -6.8016395523e-05 -0.00060082608947)
(-3.00299559219e-05 -7.32707379521e-05 -0.000629541887758)
(-2.09744586905e-05 -7.74377828742e-05 -0.000651760627291)
(-1.0687535429e-05 -8.01087206186e-05 -0.000665769383315)
(2.49361376131e-07 -8.10138343626e-05 -0.000670538564427)
(1.1181656449e-05 -8.00580986576e-05 -0.000665687983125)
(2.14557526535e-05 -7.73386158007e-05 -0.000651597245953)
(3.04912833157e-05 -7.31266349049e-05 -0.000629291373865)
(3.78413226601e-05 -6.78324423821e-05 -0.000600476162591)
(4.31741480549e-05 -6.20012230189e-05 -0.000567581859565)
(4.66553854072e-05 -5.60540722304e-05 -0.00053371128403)
(4.80234583156e-05 -5.09545458515e-05 -0.000502408105959)
(-5.95726941744e-05 -6.38218920498e-05 -0.000690998749165)
(-5.73903925197e-05 -6.98032562712e-05 -0.000731375010937)
(-5.28527937636e-05 -7.67269646687e-05 -0.00077528047382)
(-4.60869281608e-05 -8.34970625752e-05 -0.000818003899817)
(-3.69258556456e-05 -8.96162055902e-05 -0.000855438128844)
(-2.57498257913e-05 -9.44598588314e-05 -0.000884392344948)
(-1.30999696822e-05 -9.75598200269e-05 -0.000902639241191)
(3.26563109442e-07 -9.8607548754e-05 -0.000908844801704)
(1.3747296744e-05 -9.74946892459e-05 -0.000902527034945)
(2.63808556215e-05 -9.43324613842e-05 -0.000884167462293)
(3.75310737308e-05 -8.94314446258e-05 -0.000855093281004)
(4.66579820929e-05 -8.32617854004e-05 -0.000817522137969)
(5.33795691002e-05 -7.64507847974e-05 -0.000774629392553)
(5.78669841448e-05 -6.9491357983e-05 -0.000730489389454)
(5.99587740095e-05 -6.34975071616e-05 -0.000689771678451)
(-6.7978554228e-05 -7.27562750125e-05 -0.000860231318761)
(-6.50618729905e-05 -7.90991038725e-05 -0.00090704946672)
(-5.96797614121e-05 -8.64332887524e-05 -0.000958137174827)
(-5.18649654594e-05 -9.35895679229e-05 -0.00100792772752)
(-4.14560583435e-05 -0.000100038944752 -0.00105157229618)
(-2.88544216537e-05 -0.000105131806447 -0.00108532666861)
(-1.46524919944e-05 -0.000108384835162 -0.00110659153285)
(3.91461429249e-07 -0.000109480779214 -0.00111381621154)
(1.54286964616e-05 -0.000108308635877 -0.00110644904889)
(2.96116227089e-05 -0.000104982892036 -0.00108504172369)
(4.21827799219e-05 -9.9823181645e-05 -0.00105113600936)
(5.25507667761e-05 -9.33150996594e-05 -0.00100731966396)
(6.03125848532e-05 -8.61114825947e-05 -0.000957319516567)
(6.56333201954e-05 -7.87361907667e-05 -0.000905946426273)
(6.84459419712e-05 -7.23763254942e-05 -0.000858717750371)
(-7.33816740823e-05 -7.84825431389e-05 -0.00100766703373)
(-6.97843352578e-05 -8.47398836011e-05 -0.00105798429659)
(-6.37305696215e-05 -9.1996233961e-05 -0.00111321598614)
(-5.51818387427e-05 -9.90652311562e-05 -0.00116720954638)
(-4.39890437974e-05 -0.000105416542393 -0.00121459900942)
(-3.05527309408e-05 -0.00011041867993 -0.00125126577)
(-1.54823765e-05 -0.000113606352989 -0.00127436487367)
(4.46531472582e-07 -0.000114676063098 -0.0012822049741)
(1.63680104688e-05 -0.000113522007892 -0.00127419135215)
(3.14172335808e-05 -0.000110253920181 -0.0012509197195)
(4.48193510848e-05 -0.000105177868863 -0.00121407091634)
(5.5965783574e-05 -9.87616502509e-05 -0.00116647727288)
(6.44546620655e-05 -9.16402093847e-05 -0.00111223928755)
(7.04383070476e-05 -8.43382422699e-05 -0.00105668059675)
(7.3922053721e-05 -7.80593151708e-05 -0.00100589657794)
(-7.62051086908e-05 -8.14439176487e-05 -0.00113193197152)
(-7.20111978274e-05 -8.72586834977e-05 -0.00118305125823)
(-6.54563609947e-05 -9.40568060705e-05 -0.0012396831857)
(-5.64537200248e-05 -0.000100674060872 -0.00129531541745)
(-4.48711991744e-05 -0.000106601052601 -0.00134425647476)
(-3.10926621397e-05 -0.000111255613561 -0.0013821643382)
(-1.5717708599e-05 -0.00011421385038 -0.00140605307532)
(4.94864608384e-07 -0.000115201617718 -0.00141415264539)
(1.6699424265e-05 -0.000114123724694 -0.00140584640176)
(3.20514701711e-05 -0.000111079580753 -0.00138175347742)
(4.57927136816e-05 -0.00010634596243 -0.00134363251309)
(5.73243585187e-05 -0.000100349423537 -0.00129445665906)
(6.6261655985e-05 -9.36756462946e-05 -0.00123855011121)
(7.27395150148e-05 -8.68280803913e-05 -0.00118155765748)
(7.68130040221e-05 -8.09873693736e-05 -0.00112992663343)
(-7.68745824198e-05 -8.20895608284e-05 -0.00123309837624)
(-7.21829116121e-05 -8.72017585315e-05 -0.00128272772965)
(-6.52868371369e-05 -9.32682466746e-05 -0.00133845621625)
(-5.6070770765e-05 -9.91731430414e-05 -0.00139357875708)
(-4.44238201328e-05 -0.000104444460022 -0.00144223288729)
(-3.07024489141e-05 -0.000108570686966 -0.00147997938614)
(-1.54759052454e-05 -0.000111184761658 -0.00150378026152)
(5.39203157832e-07 -0.000112051834049 -0.00151183968999)
(1.65457810604e-05 -0.000111090726197 -0.00150353696667)
(3.17478302073e-05 -0.000108386972623 -0.00147949731047)
(4.54291665655e-05 -0.000104178024667 -0.0014415050828)
(5.70213121019e-05 -9.88337039899e-05 -0.00139258626927)
(6.61674621039e-05 -9.28689835221e-05 -0.00133716334262)
(7.29809402662e-05 -8.67497728225e-05 -0.00128104704663)
(7.75469814239e-05 -8.16075217378e-05 -0.00123087034053)
(-7.57968688338e-05 -8.08551902983e-05 -0.00131223142612)
(-7.07074271846e-05 -8.51005673371e-05 -0.0013585510822)
(-6.36104802737e-05 -9.02600146587e-05 -0.0014115535303)
(-5.43794062923e-05 -9.52837027544e-05 -0.00146444689443)
(-4.29287588421e-05 -9.97502513207e-05 -0.00151132258811)
(-2.95807382071e-05 -0.000103232654335 -0.00154775736864)
(-1.4858806128e-05 -0.000105429947412 -0.00157074511806)
(5.81647919425e-07 -0.000106152024921 -0.00157851529394)
(1.60130960675e-05 -0.000105333533695 -0.0015704604085)
(3.07090605694e-05 -0.000103044175782 -0.00154719498985)
(4.40145290726e-05 -9.94765572135e-05 -0.00151047892638)
(5.54068236134e-05 -9.49344478156e-05 -0.00146330803475)
(6.45639960996e-05 -8.98482044875e-05 -0.00141009051275)
(7.15734853486e-05 -8.46330967218e-05 -0.00135667696056)
(7.65329450038e-05 -8.03538572632e-05 -0.00130978160541)
(-7.33500518073e-05 -7.81544360827e-05 -0.00137107072209)
(-6.79527770216e-05 -8.14572530662e-05 -0.0014127559526)
(-6.07688302297e-05 -8.56182790159e-05 -0.00146167726083)
(-5.16789037323e-05 -8.9668371353e-05 -0.00151100848813)
(-4.06268996627e-05 -9.32492242279e-05 -0.0015549068533)
(-2.78962044113e-05 -9.60263871087e-05 -0.00158908151137)
(-1.39527112668e-05 -9.77691626709e-05 -0.00161064864316)
(6.23625327904e-07 -9.83339555546e-05 -0.00161791875424)
(1.51905209932e-05 -9.76717280113e-05 -0.001610316434)
(2.9106684077e-05 -9.58357154458e-05 -0.00158842705941)
(4.17925112807e-05 -9.29718421304e-05 -0.00155393111459)
(5.27829268526e-05 -8.93135938083e-05 -0.00150970476519)
(6.17953814313e-05 -8.51986391565e-05 -0.00146002612284)
(6.88874365193e-05 -8.09792158903e-05 -0.00141067199007)
(7.41508299748e-05 -7.76388952467e-05 -0.00136838755553)
(-6.98806896695e-05 -7.4378262539e-05 -0.00141186459449)
(-6.42456590786e-05 -7.67375585713e-05 -0.00144810166496)
(-5.70580700539e-05 -7.98737895154e-05 -0.00149201590241)
(-4.822566969e-05 -8.29175044364e-05 -0.00153676642531)
(-3.77233849223e-05 -8.55864566578e-05 -0.00157670334342)
(-2.57920478466e-05 -8.76411512762e-05 -0.00160780710393)
(-1.28309306151e-05 -8.89204158143e-05 -0.00162742270071)
(6.65935419397e-07 -8.93255946816e-05 -0.00163400617142)
(1.41529811481e-05 -8.88233005292e-05 -0.00162703570435)
(2.70855620826e-05 -8.74508276892e-05 -0.001607046196)
(3.89699818361e-05 -8.53089076629e-05 -0.00157557495362)
(4.94078031052e-05 -8.25614064174e-05 -0.00153527298253)
(5.81595418258e-05 -7.94508920947e-05 -0.00149015034403)
(6.52511830219e-05 -7.62536151554e-05 -0.00144578095856)
(7.07487952143e-05 -7.38532410371e-05 -0.00140892302817)
(-6.57008666127e-05 -6.9896095733e-05 -0.0014373627453)
(-5.98717606741e-05 -7.13612711535e-05 -0.00146787892317)
(-5.27349503238e-05 -7.34868517902e-05 -0.00150622826519)
(-4.42422289318e-05 -7.55345849584e-05 -0.00154559249744)
(-3.4396623213e-05 -7.73089836769e-05 -0.00158070269777)
(-2.3392993927e-05 -7.8660403936e-05 -0.0016079914565)
(-1.15575392229e-05 -7.94911407746e-05 -0.00162515920051)
(7.08834478566e-07 -7.97427513816e-05 -0.00163088002146)
(1.29650850351e-05 -7.93957909774e-05 -0.00162470922916)
(2.47710202411e-05 -7.84732072727e-05 -0.0016071075184)
(3.57260475049e-05 -7.70351433578e-05 -0.00157939690107)
(4.5504782672e-05 -7.51818220047e-05 -0.00154387765446)
(5.39140779015e-05 -7.30657629054e-05 -0.00150411290106)
(6.09512558638e-05 -7.08766790462e-05 -0.00146528460796)
(6.66400588005e-05 -6.93670471379e-05 -0.0014341249798)
(-6.10792976897e-05 -6.50446090848e-05 -0.00145098359282)
(-5.50814514182e-05 -6.56777105752e-05 -0.00147608265059)
(-4.80309182032e-05 -6.68244072011e-05 -0.00150855453957)
(-3.99324556708e-05 -6.79198226218e-05 -0.00154178705849)
(-3.08112015936e-05 -6.88544210465e-05 -0.0015712073684)
(-2.08144857058e-05 -6.95533477781e-05 -0.00159393102794)
(-1.01921148266e-05 -6.99712441952e-05 -0.00160815138888)
(7.52126468308e-07 -7.00825938882e-05 -0.00161283281984)
(1.16860256905e-05 -6.98792857537e-05 -0.00160763017817)
(2.22781777474e-05 -6.93724097973e-05 -0.00159290669396)
(3.2225080378e-05 -6.85887915676e-05 -0.00156969655773)
(4.12776400489e-05 -6.75758567916e-05 -0.00153981245309)
(4.929038223e-05 -6.64111248719e-05 -0.00150614363073)
(5.62379083058e-05 -6.5198625347e-05 -0.00147316947271)
(6.20927988049e-05 -6.45188423539e-05 -0.00144740852541)
(-5.6242098367e-05 -6.00749158088e-05 -0.00145719901445)
(-5.01247874282e-05 -5.99039064845e-05 -0.00147771694257)
(-4.31810687725e-05 -6.01114730505e-05 -0.00150395352875)
(-3.55023465709e-05 -6.03432213401e-05 -0.00153013817809)
(-2.71330780119e-05 -6.05347190917e-05 -0.00155288127114)
(-1.81729578151e-05 -6.06650949192e-05 -0.00157022584637)
(-8.79495769049e-06 -6.07270823911e-05 -0.0015809735183)
(7.95284504733e-07 -6.0718816421e-05 -0.00158443302904)
(1.03750823637e-05 -6.06402229503e-05 -0.00158037457922)
(1.97224420745e-05 -6.04938297548e-05 -0.00156904648241)
(2.86320492776e-05 -6.02823017422e-05 -0.00155113940192)
(3.69314890739e-05 -6.00143303087e-05 -0.00152786155817)
(4.45228038214e-05 -5.97128106499e-05 -0.00150118844142)
(5.13605563876e-05 -5.94373120955e-05 -0.00147442803714)
(5.73345675746e-05 -5.95585010007e-05 -0.00145325613057)
(-5.15094591016e-05 -5.50779778781e-05 -0.00146226235007)
(-4.53821690824e-05 -5.38140572018e-05 -0.00147906899129)
(-3.84789200043e-05 -5.32701943e-05 -0.00149799919623)
(-3.12047558069e-05 -5.281123264e-05 -0.0015157987164)
(-2.35627496753e-05 -5.24259382689e-05 -0.00153069474724)
(-1.56088708402e-05 -5.21248439203e-05 -0.00154179253917)
(-7.43893228846e-06 -5.19218291392e-05 -0.00154853822508)
(8.37619102902e-07 -5.18266769047e-05 -0.00155059848048)
(9.10367531376e-06 -5.18430274904e-05 -0.00154786148819)
(1.72428297337e-05 -5.19690874885e-05 -0.00154045600363)
(2.51460143351e-05 -5.21953929535e-05 -0.00152871294058)
(3.27178864519e-05 -5.25086760158e-05 -0.0015131938538)
(3.99037908499e-05 -5.28998637809e-05 -0.00149482689544)
(4.66958002255e-05 -5.33730790259e-05 -0.00147529282844)
(5.26886658558e-05 -5.45859285467e-05 -0.00145801808071)
(3.3808460395e-08 -4.37732970144e-08 -0.000139939112404)
(1.51131066377e-07 -1.22073460484e-07 -0.000147773176514)
(2.45635656566e-07 -1.55519788527e-07 -0.000155457224514)
(2.94790546482e-07 -1.4845833541e-07 -0.000162424088719)
(2.87525704083e-07 -1.15382497056e-07 -0.000168250672237)
(2.26661252541e-07 -7.49160546949e-08 -0.000172624340311)
(1.24944595725e-07 -4.33528626752e-08 -0.000175333331167)
(1.22420562705e-09 -3.19658176907e-08 -0.000176252344385)
(-1.22683959922e-07 -4.48961634243e-08 -0.00017532435753)
(-2.25257560114e-07 -7.84099821924e-08 -0.000172606346756)
(-2.88669973904e-07 -1.21806032951e-07 -0.000168223379301)
(-3.01080777935e-07 -1.59030580227e-07 -0.000162386440909)
(-2.59134742453e-07 -1.71691186097e-07 -0.000155406574605)
(-1.72024373868e-07 -1.44389110124e-07 -0.000147702214058)
(-5.74111957825e-08 -6.89939474695e-08 -0.000139827506943)
(3.80758561921e-07 1.97432565682e-07 -0.000390784938792)
(6.77138997832e-07 5.36587147389e-08 -0.000411095774557)
(9.03589214384e-07 2.55180933991e-08 -0.000431188818947)
(9.9908523073e-07 9.60686855983e-08 -0.000449508475996)
(9.34974225954e-07 2.25464308392e-07 -0.000464883314679)
(7.19845185169e-07 3.63565852406e-07 -0.000476450224441)
(3.89414212159e-07 4.66187187613e-07 -0.00048362239368)
(-3.37706039458e-09 5.02671119722e-07 -0.000486051333458)
(-3.96553133368e-07 4.61715546869e-07 -0.000483593548115)
(-7.28699680079e-07 3.53639187556e-07 -0.000476392426406)
(-9.4867555512e-07 2.07846496709e-07 -0.000464795776264)
(-1.02259112852e-06 6.81229369796e-08 -0.000449388247251)
(-9.41020629688e-07 -1.55350628077e-08 -0.000431028372139)
(-7.28460619681e-07 -1.04544696407e-09 -0.000410874149827)
(-4.3681869598e-07 1.35995568867e-07 -0.000390453827139)
(7.971326337e-07 5.48092465123e-07 -0.000611632886751)
(1.2120434782e-06 3.69828026892e-07 -0.000641455235179)
(1.51935452004e-06 3.5415847492e-07 -0.000671162446659)
(1.62759671953e-06 4.72276899085e-07 -0.000698376788521)
(1.49651453748e-06 6.67315179904e-07 -0.000721286039621)
(1.14021983955e-06 8.69642227265e-07 -0.00073855449835)
(6.12190249568e-07 1.01772772282e-06 -0.000749271726829)
(-8.72253438998e-09 1.06908477423e-06 -0.000752897046876)
(-6.30131586917e-07 1.00804873731e-06 -0.000749220570258)
(-1.16040777824e-06 8.490506824e-07 -0.000738452144451)
(-1.52286658721e-06 6.33280954326e-07 -0.000721131505922)
(-1.66627072698e-06 4.22044788042e-07 -0.000698166041689)
(-1.57582426298e-06 2.85599208342e-07 -0.000670884758879)
(-1.28640167801e-06 2.83683740187e-07 -0.00064108009814)
(-8.78143104344e-07 4.53058304334e-07 -0.000611091591935)
(1.18490390964e-06 8.88010881316e-07 -0.000804246696985)
(1.66387189983e-06 6.807350713e-07 -0.000840901031274)
(2.01035625764e-06 6.62414031573e-07 -0.000877673487899)
(2.10985740155e-06 7.96721956783e-07 -0.000911533153388)
(1.91644983388e-06 1.01774711704e-06 -0.000940131417916)
(1.4488390334e-06 1.24640839697e-06 -0.000961733440662)
(7.72572861161e-07 1.41302631874e-06 -0.000975153949736)
(-1.64696637611e-08 1.46971332638e-06 -0.00097968960701)
(-8.06059095004e-07 1.39890819813e-06 -0.000975078152841)
(-1.48475515553e-06 1.2169752988e-06 -0.000961582057922)
(-1.95877315316e-06 9.70668901161e-07 -0.000939903752918)
(-2.16475819461e-06 7.29597402634e-07 -0.000911225213043)
(-2.08353179213e-06 5.73896722874e-07 -0.000877273623654)
(-1.7554786447e-06 5.72562753938e-07 -0.000840373885962)
(-1.28335616202e-06 7.69294833122e-07 -0.000803511920313)
(1.45388746481e-06 1.11492082866e-06 -0.000970382766608)
(1.95399552648e-06 8.68454431719e-07 -0.00101146430765)
(2.31184867854e-06 8.20145372197e-07 -0.00105300944019)
(2.39596130851e-06 9.32784266563e-07 -0.00109148707576)
(2.15935911708e-06 1.13798750532e-06 -0.00112410863636)
(1.62371090776e-06 1.35550330373e-06 -0.00114880810067)
(8.60965083002e-07 1.51488843648e-06 -0.00116417101857)
(-2.44251192764e-08 1.56792565191e-06 -0.00116935899402)
(-9.10386585043e-07 1.4970367629e-06 -0.00116406818499)
(-1.67559491181e-06 1.31880736283e-06 -0.00114860317944)
(-2.2174560142e-06 1.08056020086e-06 -0.00112380187946)
(-2.46595997055e-06 8.52797826125e-07 -0.0010910758559)
(-2.39907820334e-06 7.16980336862e-07 -0.00105248357906)
(-2.05863461087e-06 7.44518350835e-07 -0.00101078717374)
(-1.56500182094e-06 9.79073097736e-07 -0.000969467822732)
(1.57643151833e-06 1.19610474389e-06 -0.00111175808982)
(2.06716452774e-06 9.01914476542e-07 -0.00115512964453)
(2.41894207634e-06 8.01771358141e-07 -0.00119941293275)
(2.48885065058e-06 8.64259308274e-07 -0.00124070541479)
(2.23226039312e-06 1.02283206636e-06 -0.0012758646666)
(1.67223174781e-06 1.20196055681e-06 -0.00130255626892)
(8.82196095547e-07 1.33555626379e-06 -0.00131918012652)
(-3.19699470992e-08 1.37856705667e-06 -0.00132478937191)
(-9.46698975467e-07 1.31464288803e-06 -0.00131904795071)
(-1.73910187648e-06 1.15940817473e-06 -0.00130229353613)
(-2.30485749107e-06 9.57289348066e-07 -0.00127547332105)
(-2.57214791209e-06 7.74557530379e-07 -0.00124018554632)
(-2.51765131528e-06 6.87996926913e-07 -0.00119875798624)
(-2.18142368771e-06 7.66855811859e-07 -0.00115430403688)
(-1.69675178347e-06 1.04802027443e-06 -0.00111067109454)
(1.56316948545e-06 1.14360880365e-06 -0.00123004411292)
(2.02484516839e-06 8.01583573895e-07 -0.00127382829507)
(2.36022829087e-06 6.40031679758e-07 -0.00131906799735)
(2.42006519032e-06 6.38144474569e-07 -0.00136159039674)
(2.1646267738e-06 7.33803531931e-07 -0.001397974137)
(1.61716414161e-06 8.59763195975e-07 -0.00142567557295)
(8.48725904066e-07 9.57423622738e-07 -0.00144295240549)
(-3.88894035559e-08 9.86979964901e-07 -0.00144877647484)
(-9.27019118879e-07 9.34092581391e-07 -0.00144278872923)
(-1.69759530366e-06 8.12662349503e-07 -0.00142535105471)
(-2.25008356619e-06 6.62136537032e-07 -0.00139749314386)
(-2.51471162154e-06 5.41399701293e-07 -0.00136095698491)
(-2.46809737642e-06 5.18921577699e-07 -0.0013182810034)
(-2.14604500459e-06 6.59174130798e-07 -0.00127285439247)
(-1.68994502e-06 9.8717598989e-07 -0.00122878916016)
(1.44178330275e-06 9.89038968555e-07 -0.00132687071306)
(1.86324641773e-06 6.07984685786e-07 -0.00136944632766)
(2.17633988608e-06 3.87417967771e-07 -0.00141410894854)
(2.23039245697e-06 3.1980712558e-07 -0.0014564865724)
(1.9925490186e-06 3.48830043311e-07 -0.00149294334727)
(1.4854489671e-06 4.17329604727e-07 -0.00152078476726)
(7.74983450682e-07 4.75869996941e-07 -0.00153817245514)
(-4.50798466204e-08 4.90983910409e-07 -0.00154402661416)
(-8.65569237331e-07 4.50727092676e-07 -0.00153797520719)
(-1.57783080684e-06 3.66887038813e-07 -0.00152039461375)
(-2.0891044076e-06 2.72819359992e-07 -0.0014923677068)
(-2.33448067218e-06 2.18351418727e-07 -0.00145573454155)
(-2.29128467943e-06 2.61754474356e-07 -0.00141318610581)
(-1.98923451684e-06 4.6138005399e-07 -0.00136832191322)
(-1.57290566481e-06 8.27541896688e-07 -0.00132544774418)
(1.24557035655e-06 7.6997447867e-07 -0.00140385816832)
(1.62161202136e-06 3.6525985196e-07 -0.00144386774225)
(1.90879350019e-06 9.70208383244e-08 -0.00148666902274)
(1.96013255882e-06 -2.84030526627e-08 -0.00152773012351)
(1.7508915506e-06 -6.08868483143e-08 -0.00156325797033)
(1.3027259827e-06 -4.67514319722e-08 -0.0015904695091)
(6.74554876352e-07 -2.56430248965e-08 -0.00160748291857)
(-5.05249297675e-08 -2.42574362281e-08 -0.00161320091793)
(-7.75902078601e-07 -5.20456458705e-08 -0.00160724999099)
(-1.40541798607e-06 -9.94496043369e-08 -0.00159000966744)
(-1.85678178663e-06 -1.39655413328e-07 -0.00156258212342)
(-2.07183912644e-06 -1.32549896045e-07 -0.00152685331321)
(-2.02899464432e-06 -3.0820200257e-08 -0.00148560447942)
(-1.75058430008e-06 2.17039286678e-07 -0.00144258690822)
(-1.37938932276e-06 6.06182008069e-07 -0.00140226207693)
(1.0071503652e-06 5.22456043354e-07 -0.00146268120133)
(1.33600331899e-06 1.12857326307e-07 -0.00149905575476)
(1.59454050248e-06 -1.86333947e-07 -0.00153896814529)
(1.64443738328e-06 -3.56334716307e-07 -0.0015777347929)
(1.46975435539e-06 -4.39970314872e-07 -0.00161146494598)
(1.09101449916e-06 -4.72654307299e-07 -0.00163736114187)
(5.59063632126e-07 -4.84270013337e-07 -0.001653561308)
(-5.52483931238e-08 -4.9485847055e-07 -0.00165899153165)
(-6.6969709615e-07 -5.11416844008e-07 -0.00165329049353)
(-1.20245795447e-06 -5.26607700497e-07 -0.00163682717972)
(-1.58334653068e-06 -5.20075838399e-07 -0.00161068237815)
(-1.76212533675e-06 -4.61404085185e-07 -0.00157672493751)
(-1.71844621226e-06 -3.14322690805e-07 -0.00153775258733)
(-1.4665049128e-06 -3.47880980989e-08 -0.00149760738698)
(-1.14230374637e-06 3.58711569233e-07 -0.00146090024981)
(7.54745503329e-07 2.76962429592e-07 -0.00150517439917)
(1.03624642476e-06 -1.18240846422e-07 -0.00153718098523)
(1.26352377904e-06 -4.29771739746e-07 -0.00157344299556)
(1.31160273422e-06 -6.291404955e-07 -0.00160911295005)
(1.17339090585e-06 -7.51248573328e-07 -0.00164028132187)
(8.68079107831e-07 -8.20955013944e-07 -0.0016642353833)
(4.37869263522e-07 -8.58984910445e-07 -0.00167921277869)
(-5.93372925945e-08 -8.79211972883e-07 -0.00168421246881)
(-5.56493572191e-07 -8.8641794114e-07 -0.00167890165865)
(-9.86916063482e-07 -8.75275222676e-07 -0.0016636222385)
(-1.29327263803e-06 -8.31443860912e-07 -0.00163938403201)
(-1.43389612938e-06 -7.33603080891e-07 -0.00160795894316)
(-1.38990513992e-06 -5.56195187861e-07 -0.00157206273624)
(-1.16720993733e-06 -2.63450433279e-07 -0.00153554734235)
(-8.90230941334e-07 1.15198937857e-07 -0.00150318821363)
(5.10521653841e-07 5.62516815359e-08 -0.00153349958581)
(7.44670455802e-07 -3.06726634485e-07 -0.00156081467915)
(9.38021975568e-07 -6.13225309432e-07 -0.0015929267083)
(9.8292895674e-07 -8.27369590396e-07 -0.00162482452945)
(8.80393121081e-07 -9.74979414947e-07 -0.00165271670366)
(6.47708553988e-07 -1.07111384892e-06 -0.00167411749813)
(3.18269330427e-07 -1.12843207802e-06 -0.00168746634307)
(-6.29354065539e-08 -1.15571258697e-06 -0.0016918931687)
(-4.43887222146e-07 -1.15570608817e-06 -0.00168711214693)
(-7.7291721661e-07 -1.12498235402e-06 -0.00167341904952)
(-1.00554921835e-06 -1.05414300328e-06 -0.00165169434573)
(-1.10888384447e-06 -9.29913339296e-07 -0.00162351136195)
(-1.06608814996e-06 -7.36636210436e-07 -0.00159136254848)
(-8.75516577315e-07 -4.47911756866e-07 -0.00155897146367)
(-6.45740952159e-07 -1.01573443143e-07 -0.00153127814962)
(2.90191747914e-07 -1.23546008357e-07 -0.00155041423318)
(4.75942625298e-07 -4.39692121622e-07 -0.00157321109146)
(6.3310748181e-07 -7.27995514182e-07 -0.00160086994282)
(6.73697601569e-07 -9.44912027053e-07 -0.00162833530823)
(6.04661727099e-07 -1.10589815886e-06 -0.00165219457974)
(4.40504156693e-07 -1.21775410503e-06 -0.00167038766011)
(2.05888705718e-07 -1.28710184668e-06 -0.00168167446811)
(-6.62470471202e-08 -1.31859528848e-06 -0.00168537688119)
(-3.37959192153e-07 -1.31379807819e-06 -0.00168127446537)
(-5.71592997474e-07 -1.2703817921e-06 -0.00166959735781)
(-7.34681235848e-07 -1.18296239957e-06 -0.00165103482413)
(-8.03045150905e-07 -1.04432773618e-06 -0.00162684299375)
(-7.62737876994e-07 -8.47183742897e-07 -0.00159909516286)
(-6.06631896301e-07 -5.75548979238e-07 -0.00157112856803)
(-4.24958381329e-07 -2.75525844717e-07 -0.00154792508287)
(1.01350277637e-07 -2.46971554265e-07 -0.00155970385255)
(2.36238028878e-07 -5.09185874241e-07 -0.00157868214943)
(3.57611391001e-07 -7.72940943033e-07 -0.00160155197326)
(3.94584744528e-07 -9.84325682102e-07 -0.00162373510534)
(3.56674189448e-07 -1.1482596276e-06 -0.00164264068781)
(2.54468920027e-07 -1.26601715674e-06 -0.00165686575929)
(1.04971870867e-07 -1.34039288129e-06 -0.00166560092402)
(-6.95931365293e-08 -1.37355431637e-06 -0.00166841037812)
(-2.43590824615e-07 -1.36610375595e-06 -0.00166515351161)
(-3.91636416035e-07 -1.31664868895e-06 -0.00165597875266)
(-4.91965107951e-07 -1.22228032264e-06 -0.00164133186703)
(-5.28065450476e-07 -1.07965086658e-06 -0.00162203996955)
(-4.89824719751e-07 -8.87001686504e-07 -0.0015995294364)
(-3.6774371365e-07 -6.39006169669e-07 -0.00157632325755)
(-2.36041609811e-07 -3.9204247829e-07 -0.00155692440319)
(-6.73369048113e-08 -3.21835646097e-07 -0.00156698058988)
(2.19282323172e-08 -5.26409947894e-07 -0.00158301102639)
(1.15747292847e-07 -7.65172610837e-07 -0.00160009471458)
(1.5187401164e-07 -9.60930020677e-07 -0.00161568811356)
(1.4260059904e-07 -1.11568824555e-06 -0.00162846395892)
(9.44616423265e-08 -1.2285941099e-06 -0.00163783393935)
(1.7942917462e-08 -1.30056461451e-06 -0.00164347149656)
(-7.3389908085e-08 -1.33250474822e-06 -0.00164520501083)
(-1.64078661561e-07 -1.32443481832e-06 -0.00164297976991)
(-2.38861518465e-07 -1.27557359211e-06 -0.00163685475866)
(-2.84602241834e-07 -1.18445399112e-06 -0.0016270076005)
(-2.91285711196e-07 -1.04963606666e-06 -0.0016137788989)
(-2.52907182895e-07 -8.71770543732e-07 -0.00159779232238)
(-1.56893104645e-07 -6.48312174395e-07 -0.00158029479056)
(-6.93192491147e-08 -4.58557298915e-07 -0.0015639794704)
(3.55902776215e-08 6.08682850892e-08 -0.000129017420058)
(4.25597226405e-09 9.15115154421e-08 -0.000136411146685)
(-1.88533450512e-08 1.09706252713e-07 -0.000143758342697)
(-3.36204447406e-08 1.18399713667e-07 -0.000150481764812)
(-3.81074755481e-08 1.2076047391e-07 -0.00015613725413)
(-3.27896890879e-08 1.19672617669e-07 -0.000160398103581)
(-2.0487988048e-08 1.17776577425e-07 -0.00016304219939)
(-4.6781404321e-09 1.16933745598e-07 -0.00016393815033)
(1.11331248614e-08 1.17857012264e-07 -0.00016302755842)
(2.36176431324e-08 1.20031839192e-07 -0.000160368783582)
(2.99966674617e-08 1.2186083386e-07 -0.000156093131913)
(2.83216647993e-08 1.20855328453e-07 -0.000150422363783)
(1.76067688926e-08 1.13935085546e-07 -0.000143681882708)
(-1.02072148882e-09 9.82039431473e-08 -0.000136310880754)
(-2.9508954589e-08 6.87411428473e-08 -0.000128871655979)
(9.31581817395e-08 1.76681311887e-07 -0.000362451014053)
(1.52866064109e-08 2.49492431468e-07 -0.000381884027401)
(-4.23356689711e-08 2.91865294063e-07 -0.000401387488903)
(-7.78042668116e-08 3.10341634173e-07 -0.000419349611989)
(-8.73749019357e-08 3.13149614271e-07 -0.000434522505366)
(-7.28852959759e-08 3.07816573285e-07 -0.000445985270152)
(-4.09604315031e-08 3.01226056761e-07 -0.000453108483556)
(-1.56205456983e-10 2.98262546395e-07 -0.000455518087519)
(4.03831397002e-08 3.00800800067e-07 -0.000453062851116)
(7.17790008855e-08 3.07383283921e-07 -0.000445893976089)
(8.65328397257e-08 3.13606672008e-07 -0.000434385340531)
(7.9394564571e-08 3.12725160528e-07 -0.000419165416254)
(4.79891436684e-08 2.96525428823e-07 -0.000401151379121)
(-5.33834585946e-09 2.57561860033e-07 -0.000381576806328)
(-8.12535450593e-08 1.85847737537e-07 -0.000362021494936)
(1.58735622924e-07 2.70438627275e-07 -0.000569833969339)
(4.07775343059e-08 3.75873911561e-07 -0.00059868731149)
(-5.03266704138e-08 4.38121377806e-07 -0.000627877942807)
(-1.07539216748e-07 4.66188209929e-07 -0.000654907136122)
(-1.25349429864e-07 4.71301396979e-07 -0.000677821065319)
(-1.06770244029e-07 4.64658589372e-07 -0.000695172065601)
(-6.14869028269e-08 4.56139944948e-07 -0.000705966804198)
(-2.34750198062e-09 4.52728762541e-07 -0.000709614579025)
(5.66107678757e-08 4.57093725689e-07 -0.000705889331239)
(1.01744700564e-07 4.67116453964e-07 -0.000695017271446)
(1.21578195929e-07 4.76339066861e-07 -0.000677588927774)
(1.08148152757e-07 4.74858796846e-07 -0.00065459622043)
(5.80909312894e-08 4.50686372998e-07 -0.000627481356459)
(-2.50704539975e-08 3.93006013643e-07 -0.000598177203515)
(-1.38753856827e-07 2.89444791041e-07 -0.000569137598735)
(2.07278275075e-07 3.41840085579e-07 -0.000752460121525)
(6.06697119469e-08 4.6684593513e-07 -0.000788306913404)
(-5.46752470625e-08 5.39538582891e-07 -0.000824862411083)
(-1.2719316177e-07 5.71287960219e-07 -0.000858901288858)
(-1.50472263284e-07 5.75534004671e-07 -0.000887864851339)
(-1.28466667146e-07 5.66248557784e-07 -0.000909848633316)
(-7.299920057e-08 5.55453892611e-07 -0.000923541830627)
(1.03636675619e-11 5.51506588781e-07 -0.000928165330077)
(7.28542298723e-08 5.57535623365e-07 -0.000923431819818)
(1.28224305457e-07 5.70919150741e-07 -0.000909629141799)
(1.51522090085e-07 5.8372061722e-07 -0.000887536416789)
(1.32628586335e-07 5.83797112196e-07 -0.000858462883238)
(6.74720475726e-08 5.56454661199e-07 -0.000824306705635)
(-3.93670793021e-08 4.88429297835e-07 -0.000787601668723)
(-1.81408926599e-07 3.65701576617e-07 -0.000751520292944)
(2.48669829067e-07 3.98764188054e-07 -0.000911465174958)
(8.26813552477e-08 5.3561128537e-07 -0.000952045871395)