/*--------------------------------*- C++ -*----------------------------------*\
  =========                 |
  \\      /  F ield         | OpenFOAM: The Open Source CFD Toolbox
   \\    /   O peration     | Website:  https://openfoam.org
    \\  /    A nd           | Version:  7
     \\/     M anipulation  |
\*---------------------------------------------------------------------------*/
FoamFile
{
    version     2.0;
    format      ascii;
    class       volScalarField;
    location    "2.3";
    object      p;
}
// * * * * * * * * * * * * * * * * * * * * * * * * * * * * * * * * * * * * * //

dimensions      [0 2 -2 0 0 0 0];

internalField   nonuniform List<scalar> 
22500
(
-1.91297923396e-05
-1.9131117161e-05
-1.91318173253e-05
-1.91323698466e-05
-1.913297969e-05
-1.91334866552e-05
-1.91337710415e-05
-1.91337647978e-05
-1.9133471971e-05
-1.91328986711e-05
-1.9132127254e-05
-1.91312935591e-05
-1.91305755073e-05
-1.91297815699e-05
-1.91284100997e-05
-1.91512491916e-05
-1.91535282693e-05
-1.91553535875e-05
-1.91568985479e-05
-1.91583220849e-05
-1.91594396461e-05
-1.91601056665e-05
-1.91602338732e-05
-1.9159812977e-05
-1.91588638703e-05
-1.91574858457e-05
-1.91558393454e-05
-1.9154124959e-05
-1.91521979237e-05
-1.91498621389e-05
-1.91704123103e-05
-1.91736031446e-05
-1.91762443282e-05
-1.91786221186e-05
-1.91807430136e-05
-1.91823885213e-05
-1.91833860421e-05
-1.91836310842e-05
-1.91830995193e-05
-1.91818243487e-05
-1.91799221269e-05
-1.91775794031e-05
-1.9175029274e-05
-1.91722796037e-05
-1.91690242118e-05
-1.91852000619e-05
-1.91889757215e-05
-1.91919069212e-05
-1.91947078158e-05
-1.91971806538e-05
-1.91990898363e-05
-1.92002516167e-05
-1.9200556233e-05
-1.91999732603e-05
-1.91985412796e-05
-1.91963809146e-05
-1.91936886458e-05
-1.9190713789e-05
-1.91876676101e-05
-1.91838220094e-05
-1.91958466168e-05
-1.9199526102e-05
-1.92020823832e-05
-1.92046724585e-05
-1.92069418609e-05
-1.92086796079e-05
-1.92097276182e-05
-1.92099963082e-05
-1.92094588843e-05
-1.9208149597e-05
-1.92061679014e-05
-1.92036832823e-05
-1.92009193498e-05
-1.91982418193e-05
-1.91944866978e-05
-1.92013074893e-05
-1.920376067e-05
-1.92050517065e-05
-1.92065277259e-05
-1.92078105508e-05
-1.9208768342e-05
-1.92093172423e-05
-1.92094178105e-05
-1.92090585091e-05
-1.92082576474e-05
-1.92070636014e-05
-1.92055705025e-05
-1.92039215411e-05
-1.92025044291e-05
-1.91999708627e-05
-1.92000697751e-05
-1.91998073392e-05
-1.91987629226e-05
-1.91980498572e-05
-1.91974290661e-05
-1.91969040718e-05
-1.91965129774e-05
-1.9196294935e-05
-1.91962640414e-05
-1.91964123632e-05
-1.91967090286e-05
-1.919712511e-05
-1.91976672549e-05
-1.91985816176e-05
-1.91987582929e-05
-1.91907397066e-05
-1.91861082108e-05
-1.91815884011e-05
-1.91775849366e-05
-1.91741347158e-05
-1.91714276093e-05
-1.9169661794e-05
-1.91689773006e-05
-1.91694217756e-05
-1.91709532744e-05
-1.91734395061e-05
-1.91766904625e-05
-1.91805254561e-05
-1.91849126765e-05
-1.91894535146e-05
-1.91722780644e-05
-1.91616796549e-05
-1.91525988743e-05
-1.91443205636e-05
-1.91372248701e-05
-1.91317296517e-05
-1.91282166344e-05
-1.91269397291e-05
-1.91279845204e-05
-1.91312707903e-05
-1.91365519481e-05
-1.9143453667e-05
-1.91515661603e-05
-1.9160512922e-05
-1.91710147064e-05
-1.91441332183e-05
-1.91262244404e-05
-1.91116674405e-05
-1.90983579663e-05
-1.90869999791e-05
-1.9078269673e-05
-1.90727397677e-05
-1.9070779865e-05
-1.90725142789e-05
-1.90778238729e-05
-1.90863459536e-05
-1.90975147368e-05
-1.91106611225e-05
-1.91250835639e-05
-1.91428907492e-05
-1.91062969765e-05
-1.90801324204e-05
-1.90594535761e-05
-1.90406541938e-05
-1.90246694032e-05
-1.90124527548e-05
-1.90047607422e-05
-1.90020703152e-05
-1.90045406274e-05
-1.90120175158e-05
-1.90240308874e-05
-1.9039830494e-05
-1.90584693437e-05
-1.90790135876e-05
-1.9105071142e-05
-1.90591310546e-05
-1.90243909849e-05
-1.89973444966e-05
-1.8972925584e-05
-1.89522155918e-05
-1.89364629383e-05
-1.89265921057e-05
-1.89231674475e-05
-1.89263760862e-05
-1.89360358619e-05
-1.89515889192e-05
-1.89721170631e-05
-1.89963775926e-05
-1.90232898422e-05
-1.90579180906e-05
-1.90029513774e-05
-1.89604735796e-05
-1.89273288924e-05
-1.88974653583e-05
-1.88721935483e-05
-1.88530690203e-05
-1.88411416861e-05
-1.88370282387e-05
-1.88409286811e-05
-1.88526478045e-05
-1.88715756344e-05
-1.8896667856e-05
-1.89263745005e-05
-1.89593854277e-05
-1.90017479493e-05
-1.89395066019e-05
-1.88905441438e-05
-1.88516233178e-05
-1.88166275312e-05
-1.87872436938e-05
-1.87651947269e-05
-1.87515293258e-05
-1.87468402225e-05
-1.87513187896e-05
-1.87647784364e-05
-1.87866326768e-05
-1.88158386558e-05
-1.88506785319e-05
-1.88894648359e-05
-1.89383120107e-05
-1.8878753174e-05
-1.88187343422e-05
-1.87733562902e-05
-1.87331108869e-05
-1.87000613955e-05
-1.86755911419e-05
-1.86605442032e-05
-1.86554074229e-05
-1.86603362748e-05
-1.86751799375e-05
-1.86994575801e-05
-1.87323304553e-05
-1.87724191688e-05
-1.88176608499e-05
-1.88775683082e-05
-3.07501590395e-05
-3.07470586138e-05
-3.07428904927e-05
-3.07389274512e-05
-3.07353716903e-05
-3.07326266187e-05
-3.07309156558e-05
-3.0730386094e-05
-3.07310856315e-05
-3.07329582641e-05
-3.07358462871e-05
-3.07395162959e-05
-3.07435552863e-05
-3.07477563885e-05
-3.07508557252e-05
-3.07413305277e-05
-3.07387744535e-05
-3.07350779111e-05
-3.0731572504e-05
-3.07284007084e-05
-3.0725944607e-05
-3.07244120739e-05
-3.07239407918e-05
-3.07245759148e-05
-3.07262641135e-05
-3.07288578312e-05
-3.07321402909e-05
-3.0735721736e-05
-3.0739455797e-05
-3.07420177031e-05
-3.07415483681e-05
-3.07403897468e-05
-3.07379012053e-05
-3.07355061085e-05
-3.07332435342e-05
-3.07314634759e-05
-3.0730345249e-05
-3.07300122861e-05
-3.07305060524e-05
-3.07317776956e-05
-3.07336946181e-05
-3.07360684533e-05
-3.07385409884e-05
-3.07410682708e-05
-3.07422326559e-05
-3.07502247375e-05
-3.07505486707e-05
-3.07492659064e-05
-3.0747913304e-05
-3.07464676259e-05
-3.07452712901e-05
-3.07445008418e-05
-3.07442816411e-05
-3.07446574756e-05
-3.07455778572e-05
-3.07469089246e-05
-3.07484650825e-05
-3.0749895274e-05
-3.07512176044e-05
-3.07509002053e-05
-3.0761219456e-05
-3.07622473944e-05
-3.07614504421e-05
-3.07604431111e-05
-3.07592201998e-05
-3.07581520803e-05
-3.07574438388e-05
-3.07572407963e-05
-3.07575948492e-05
-3.07584480609e-05
-3.07596473459e-05
-3.07609787495e-05
-3.0762063082e-05
-3.0762899952e-05
-3.07618793513e-05
-3.07702742732e-05
-3.07709933614e-05
-3.07698763302e-05
-3.07684919382e-05
-3.07669134865e-05
-3.07655513007e-05
-3.07646491968e-05
-3.07643760301e-05
-3.07647931737e-05
-3.07658339988e-05
-3.07673222429e-05
-3.07690057398e-05
-3.07704656752e-05
-3.07716231575e-05
-3.07709136358e-05
-3.07755824953e-05
-3.07751765052e-05
-3.07731897171e-05
-3.07709673097e-05
-3.07686856473e-05
-3.0766786734e-05
-3.0765547832e-05
-3.07651572937e-05
-3.07656845247e-05
-3.07670554522e-05
-3.07690748265e-05
-3.07714576144e-05
-3.07737537056e-05
-3.07757816228e-05
-3.07761983855e-05
-3.07768037977e-05
-3.07747510498e-05
-3.07715994295e-05
-3.0768307123e-05
-3.07651547406e-05
-3.07626062986e-05
-3.07609658033e-05
-3.07604368663e-05
-3.07610947971e-05
-3.07628600457e-05
-3.07655227176e-05
-3.07687716728e-05
-3.07721355914e-05
-3.07753291386e-05
-3.07773949896e-05
-3.07742500396e-05
-3.07702572035e-05
-3.07657922292e-05
-3.07613229326e-05
-3.07572227287e-05
-3.07539735232e-05
-3.07519023081e-05
-3.07512256098e-05
-3.07520234744e-05
-3.07542120359e-05
-3.07575690657e-05
-3.07617611052e-05
-3.0766299723e-05
-3.07708073646e-05
-3.07748150945e-05
-3.0768426279e-05
-3.07623508062e-05
-3.07564939431e-05
-3.07508013246e-05
-3.07457195229e-05
-3.07417483343e-05
-3.07392352101e-05
-3.07384072453e-05
-3.07393484346e-05
-3.07419713711e-05
-3.07460437437e-05
-3.07512124833e-05
-3.07569720633e-05
-3.076287238e-05
-3.07689649747e-05
-3.07598361195e-05
-3.07516370679e-05
-3.07443507066e-05
-3.07374275719e-05
-3.0731363065e-05
-3.07266747948e-05
-3.0723725275e-05
-3.072274862e-05
-3.07238307097e-05
-3.07268825627e-05
-3.07316655048e-05
-3.07378118978e-05
-3.07447994943e-05
-3.07521299115e-05
-3.0760347649e-05
-3.07489463993e-05
-3.07386613189e-05
-3.0729942736e-05
-3.07218161486e-05
-3.07148030059e-05
-3.07094322055e-05
-3.07060723173e-05
-3.07049563859e-05
-3.0706170204e-05
-3.07096251602e-05
-3.07150840592e-05
-3.0722174167e-05
-3.07303626298e-05
-3.07391256478e-05
-3.07494317062e-05
-3.07362446042e-05
-3.0723935226e-05
-3.07138013001e-05
-3.07045332696e-05
-3.06966487031e-05
-3.06906691551e-05
-3.0686949231e-05
-3.06857131771e-05
-3.06870398592e-05
-3.06908477906e-05
-3.0696909317e-05
-3.07048658162e-05
-3.07141928988e-05
-3.0724371205e-05
-3.07367027242e-05
-3.07220035639e-05
-3.07076936628e-05
-3.06962708727e-05
-3.06860188939e-05
-3.06774393152e-05
-3.06709997942e-05
-3.0667019815e-05
-3.06656965436e-05
-3.0667103449e-05
-3.06711647202e-05
-3.06776796241e-05
-3.06863262386e-05
-3.06966349675e-05
-3.07081019183e-05
-3.07224342277e-05
-3.07047407594e-05
-3.06898753529e-05
-3.06775547868e-05
-3.06666752147e-05
-3.06577551949e-05
-3.06511336497e-05
-3.06470648385e-05
-3.06457145542e-05
-3.06471414481e-05
-3.06512849473e-05
-3.06579759495e-05
-3.0666958236e-05
-3.06778911845e-05
-3.06902575772e-05
-3.07051473827e-05
-2.01932198073e-05
-2.0194944534e-05
-2.01968394539e-05
-2.01987375309e-05
-2.02004127875e-05
-2.02017053165e-05
-2.02025054317e-05
-2.02027475399e-05
-2.02024058978e-05
-2.02015108833e-05
-2.02001355118e-05
-2.01983983618e-05
-2.01964669602e-05
-2.01945818675e-05
-2.01929072883e-05
-2.01945076314e-05
-2.01961936715e-05
-2.01980830704e-05
-2.01999864167e-05
-2.02016758301e-05
-2.02029854693e-05
-2.02037999907e-05
-2.0204048892e-05
-2.02037036334e-05
-2.02027974072e-05
-2.02014077241e-05
-2.01996582273e-05
-2.01977224269e-05
-2.01958408654e-05
-2.01942016248e-05
-2.01938768244e-05
-2.01954059485e-05
-2.01971625307e-05
-2.01989646542e-05
-2.02005813092e-05
-2.02018439138e-05
-2.02026333014e-05
-2.02028755005e-05
-2.02025403713e-05
-2.02016625614e-05
-2.02003225474e-05
-2.01986475351e-05
-2.01968141522e-05
-2.01950638419e-05
-2.01935781111e-05
-2.01930663495e-05
-2.01945015513e-05
-2.01961716241e-05
-2.01979093238e-05
-2.01994833032e-05
-2.02007211479e-05
-2.0201499074e-05
-2.02017392695e-05
-2.02014103171e-05
-2.02005479168e-05
-2.01992357734e-05
-2.01976053814e-05
-2.01958372835e-05
-2.0194172423e-05
-2.01927772194e-05
-2.01925741516e-05
-2.01939898739e-05
-2.01956337759e-05
-2.01973575228e-05
-2.0198929355e-05
-2.02001719852e-05
-2.02009563449e-05
-2.02012007678e-05
-2.02008725479e-05
-2.02000084799e-05
-2.01986957041e-05
-2.01970704162e-05
-2.01953176158e-05
-2.01936775876e-05
-2.01922968447e-05
-2.01923708182e-05
-2.01938264626e-05
-2.01954884908e-05
-2.01972352027e-05
-2.01988336211e-05
-2.02001013573e-05
-2.02009044059e-05
-2.02011572519e-05
-2.0200826038e-05
-2.01999484299e-05
-2.01986149462e-05
-2.01969662484e-05
-2.01951917689e-05
-2.01935321912e-05
-2.01921072529e-05
-2.01924352128e-05
-2.01939813489e-05
-2.01956975138e-05
-2.0197497138e-05
-2.01991444037e-05
-2.02004524618e-05
-2.02012829903e-05
-2.02015472166e-05
-2.02012103393e-05
-2.02003107529e-05
-2.01989418462e-05
-2.01972479293e-05
-2.01954222012e-05
-2.01937067142e-05
-2.01921861897e-05
-2.0192775701e-05
-2.01944577535e-05
-2.01962579387e-05
-2.01981324409e-05
-2.01998432208e-05
-2.02012004418e-05
-2.02020629253e-05
-2.02023398712e-05
-2.02019960191e-05
-2.0201070009e-05
-2.0199656829e-05
-2.01979029359e-05
-2.0196003877e-05
-2.01942029084e-05
-2.01925419119e-05
-2.01933890329e-05
-2.01952410717e-05
-2.01971451758e-05
-2.0199106195e-05
-2.02008859812e-05
-2.02022937478e-05
-2.02031877715e-05
-2.02034770645e-05
-2.02031265958e-05
-2.0202174556e-05
-2.02007157464e-05
-2.0198896474e-05
-2.01969123826e-05
-2.01950060335e-05
-2.01931701546e-05
-2.01942522462e-05
-2.01962960733e-05
-2.01983129727e-05
-2.02003605485e-05
-2.02022042477e-05
-2.02036555198e-05
-2.02045753425e-05
-2.02048746462e-05
-2.02045196496e-05
-2.02035470917e-05
-2.02020493943e-05
-2.02001696263e-05
-2.01981003996e-05
-2.01960798636e-05
-2.01940484452e-05
-2.01953321774e-05
-2.01975741951e-05
-2.01997017416e-05
-2.0201825042e-05
-2.02037177737e-05
-2.02051979305e-05
-2.02061327421e-05
-2.02064380731e-05
-2.02060822001e-05
-2.02050995481e-05
-2.02035773554e-05
-2.02016516827e-05
-2.01995080776e-05
-2.0197375482e-05
-2.01951422474e-05
-2.01965843741e-05
-2.01990189898e-05
-2.02012477177e-05
-2.02034281517e-05
-2.02053476383e-05
-2.02068355302e-05
-2.02077706395e-05
-2.02080764117e-05
-2.02077247487e-05
-2.02067462904e-05
-2.02052201681e-05
-2.02032706896e-05
-2.02010710944e-05
-2.01988362014e-05
-2.01964073343e-05
-2.01979384185e-05
-2.02005606493e-05
-2.02028837246e-05
-2.02051023807e-05
-2.02070232797e-05
-2.02084955367e-05
-2.02094139556e-05
-2.02097142016e-05
-2.02093721347e-05
-2.02084141046e-05
-2.02069072357e-05
-2.02049587041e-05
-2.02027220187e-05
-2.02003917483e-05
-2.01977725004e-05
-2.01993536969e-05
-2.02021755914e-05
-2.02045772475e-05
-2.0206807288e-05
-2.02086959511e-05
-2.02101220037e-05
-2.02110040318e-05
-2.02112910946e-05
-2.02109654895e-05
-2.02100472736e-05
-2.02085892655e-05
-2.02066754308e-05
-2.02044282792e-05
-2.02020187441e-05
-2.01991981525e-05
-2.02015057611e-05
-2.020422841e-05
-2.02065684517e-05
-2.02086733755e-05
-2.02104070958e-05
-2.02116957092e-05
-2.0212484502e-05
-2.02127395453e-05
-2.0212448847e-05
-2.0211626501e-05
-2.02103086773e-05
-2.02085515337e-05
-2.02064303383e-05
-2.02040814816e-05
-2.0201358155e-05
-2.55822246602e-05
-2.55811633866e-05
-2.55799698353e-05
-2.55787392342e-05
-2.55776388729e-05
-2.55767782007e-05
-2.55762337896e-05
-2.55760509687e-05
-2.5576246253e-05
-2.55767978457e-05
-2.5577656148e-05
-2.55787419808e-05
-2.55799491681e-05
-2.55811171437e-05
-2.55821647351e-05
-2.55818775556e-05
-2.55808563152e-05
-2.55796842689e-05
-2.55784673673e-05
-2.55773733332e-05
-2.55765137362e-05
-2.55759678997e-05
-2.55757835956e-05
-2.55759789101e-05
-2.55765306751e-05
-2.55773871053e-05
-2.55784666225e-05
-2.55796603985e-05
-2.55808081413e-05
-2.55818159732e-05
-2.55827238618e-05
-2.55818140685e-05
-2.55807457997e-05
-2.5579612468e-05
-2.5578582235e-05
-2.55777659017e-05
-2.55772445042e-05
-2.55770673709e-05
-2.5577253755e-05
-2.55777799119e-05
-2.55785929715e-05
-2.55796100677e-05
-2.55807221504e-05
-2.55817682633e-05
-2.55826637211e-05
-2.5583534322e-05
-2.55826942365e-05
-2.5581698371e-05
-2.55806243975e-05
-2.55796384951e-05
-2.55788515629e-05
-2.55783463926e-05
-2.55781737812e-05
-2.55783537612e-05
-2.55788623312e-05
-2.55796455316e-05
-2.55806191595e-05
-2.55816738237e-05
-2.55826496143e-05
-2.55834760895e-05
-2.55840733421e-05
-2.55832589159e-05
-2.55822996794e-05
-2.55812576896e-05
-2.55802950159e-05
-2.55795227259e-05
-2.55790248069e-05
-2.55788537007e-05
-2.55790300984e-05
-2.55795299584e-05
-2.55802983104e-05
-2.55812498889e-05
-2.55822749571e-05
-2.55832162225e-05
-2.55840174606e-05
-2.5584424351e-05
-2.55836086998e-05
-2.55826641069e-05
-2.55816367095e-05
-2.5580684505e-05
-2.55799183249e-05
-2.55794230222e-05
-2.55792519728e-05
-2.55794263483e-05
-2.55799221624e-05
-2.55806838715e-05
-2.55816257428e-05
-2.55826380457e-05
-2.55835672008e-05
-2.55843707132e-05
-2.55846350475e-05
-2.55837977841e-05
-2.55828517616e-05
-2.55818278844e-05
-2.55808787454e-05
-2.55801143127e-05
-2.55796193805e-05
-2.55794477524e-05
-2.55796208531e-05
-2.55801150472e-05
-2.55808747964e-05
-2.55818146942e-05
-2.55828255589e-05
-2.55837585283e-05
-2.55845844695e-05
-2.55847234244e-05
-2.55838504405e-05
-2.55828913521e-05
-2.55818635059e-05
-2.5580912851e-05
-2.5580148057e-05
-2.55796528305e-05
-2.55794806478e-05
-2.55796527219e-05
-2.55801461002e-05
-2.55809059555e-05
-2.55818481687e-05
-2.55828648985e-05
-2.55838132115e-05
-2.55846765536e-05
-2.55847079425e-05
-2.5583788658e-05
-2.55828093591e-05
-2.55817744555e-05
-2.55808219056e-05
-2.558005784e-05
-2.55795636315e-05
-2.55793915799e-05
-2.55795622902e-05
-2.55800538578e-05
-2.55808130559e-05
-2.55817581814e-05
-2.55827838144e-05
-2.55837543602e-05
-2.55846650297e-05
-2.55846088275e-05
-2.55836385662e-05
-2.55826363825e-05
-2.55815952211e-05
-2.55806436306e-05
-2.5579883759e-05
-2.55793935402e-05
-2.55792228241e-05
-2.5579391276e-05
-2.55798783405e-05
-2.55806334162e-05
-2.55815785525e-05
-2.55826121361e-05
-2.55836075607e-05
-2.55845704875e-05
-2.55844467969e-05
-2.55834237257e-05
-2.55823991582e-05
-2.55813559412e-05
-2.55804112679e-05
-2.5579661868e-05
-2.55791801747e-05
-2.5579012678e-05
-2.55791774036e-05
-2.55796557053e-05
-2.55804007127e-05
-2.5581339832e-05
-2.55823770414e-05
-2.55833963248e-05
-2.55844128855e-05
-2.55842398442e-05
-2.55831647058e-05
-2.55821205996e-05
-2.55810813896e-05
-2.5580152073e-05
-2.55794208392e-05
-2.55789536771e-05
-2.55787915089e-05
-2.55789507127e-05
-2.55794146228e-05
-2.55801417134e-05
-2.5581066582e-05
-2.5582101089e-05
-2.55831413642e-05
-2.55842107409e-05
-2.55840170844e-05
-2.55828872174e-05
-2.55818228178e-05
-2.55807920873e-05
-2.55798852091e-05
-2.55791808132e-05
-2.55787334942e-05
-2.55785793222e-05
-2.55787307064e-05
-2.55791747277e-05
-2.55798759832e-05
-2.55807789433e-05
-2.55818063212e-05
-2.55828677723e-05
-2.55839922635e-05
-2.55837898632e-05
-2.5582592935e-05
-2.5581510837e-05
-2.55804945239e-05
-2.55796210989e-05
-2.55789520663e-05
-2.5578532324e-05
-2.55783879005e-05
-2.55785296919e-05
-2.55789470013e-05
-2.55796129204e-05
-2.5580483809e-05
-2.5581497579e-05
-2.55825777207e-05
-2.55837690242e-05
-2.5583140271e-05
-2.55819985917e-05
-2.55809879389e-05
-2.55800691873e-05
-2.55792994849e-05
-2.55787197945e-05
-2.55783590162e-05
-2.55782359781e-05
-2.55783570922e-05
-2.55787157817e-05
-2.55792936126e-05
-2.55800613472e-05
-2.55809784265e-05
-2.55819875196e-05
-2.55831242431e-05
-2.06534913299e-05
-2.0654171588e-05
-2.06549147248e-05
-2.06556677415e-05
-2.06563347072e-05
-2.06568515376e-05
-2.06571690871e-05
-2.06572597726e-05
-2.06571131578e-05
-2.06567424113e-05
-2.06561778808e-05
-2.06554694181e-05
-2.06546837835e-05
-2.06539258107e-05
-2.06532458845e-05
-2.06536151608e-05
-2.06542688192e-05
-2.06549988625e-05
-2.06557448679e-05
-2.06564098273e-05
-2.06569273938e-05
-2.06572468476e-05
-2.06573389491e-05
-2.06571922307e-05
-2.06568207984e-05
-2.06562565311e-05
-2.06555509621e-05
-2.06547728655e-05
-2.06540273063e-05
-2.06533731186e-05
-2.06529718703e-05
-2.06535525645e-05
-2.06542178819e-05
-2.06549143205e-05
-2.06555415618e-05
-2.06560331044e-05
-2.06563379653e-05
-2.06564259811e-05
-2.06562850482e-05
-2.06559296045e-05
-2.0655392336e-05
-2.06547257508e-05
-2.06539989281e-05
-2.06533179768e-05
-2.06527359503e-05
-2.06523682941e-05
-2.0652903272e-05
-2.06535233675e-05
-2.06541840913e-05
-2.06547845538e-05
-2.06552581399e-05
-2.06555533429e-05
-2.06556389776e-05
-2.06555025403e-05
-2.06551586324e-05
-2.06546406922e-05
-2.06540020883e-05
-2.06533121199e-05
-2.0652676774e-05
-2.06521398553e-05
-2.06519425175e-05
-2.06524565416e-05
-2.06530521776e-05
-2.06536933367e-05
-2.06542793658e-05
-2.06547435561e-05
-2.0655034051e-05
-2.06551190657e-05
-2.06549857282e-05
-2.06546487899e-05
-2.0654142219e-05
-2.0653519962e-05
-2.0652851323e-05
-2.06522409804e-05
-2.0651723568e-05
-2.06516324841e-05
-2.06521408351e-05
-2.06527231863e-05
-2.06533522966e-05
-2.0653929255e-05
-2.06543875325e-05
-2.06546753366e-05
-2.06547603814e-05
-2.06546297069e-05
-2.06542980078e-05
-2.06537995325e-05
-2.06531882269e-05
-2.06525330187e-05
-2.06519363288e-05
-2.0651424149e-05
-2.0651400458e-05
-2.06519110686e-05
-2.06524867793e-05
-2.06531082601e-05
-2.06536787156e-05
-2.06541323088e-05
-2.06544178462e-05
-2.06545030423e-05
-2.06543750841e-05
-2.06540484121e-05
-2.06535571269e-05
-2.06529545678e-05
-2.06523087807e-05
-2.06517190305e-05
-2.06512035046e-05
-2.06512291483e-05
-2.06517475471e-05
-2.06523205267e-05
-2.06529355608e-05
-2.06534994497e-05
-2.065394772e-05
-2.06542302867e-05
-2.06543153681e-05
-2.06541904529e-05
-2.06538695737e-05
-2.06533861517e-05
-2.06527922466e-05
-2.06521544105e-05
-2.06515678183e-05
-2.0651043891e-05
-2.06511031068e-05
-2.06516307201e-05
-2.06522022188e-05
-2.0652810022e-05
-2.06533656148e-05
-2.06538065074e-05
-2.06540844227e-05
-2.06541687563e-05
-2.065404749e-05
-2.06537340534e-05
-2.06532606081e-05
-2.06526771784e-05
-2.0652048106e-05
-2.06514634787e-05
-2.06509294039e-05
-2.06510062004e-05
-2.06515433162e-05
-2.06521124997e-05
-2.06527103592e-05
-2.06532541736e-05
-2.06536842209e-05
-2.06539550534e-05
-2.06540376357e-05
-2.06539208856e-05
-2.06536172323e-05
-2.06531570359e-05
-2.06525874337e-05
-2.06519696768e-05
-2.06513878548e-05
-2.06508440978e-05
-2.06509261577e-05
-2.06514708247e-05
-2.06520355355e-05
-2.06526197295e-05
-2.06531470614e-05
-2.06535619835e-05
-2.06538224774e-05
-2.06539021616e-05
-2.06537908578e-05
-2.06534999783e-05
-2.06530572371e-05
-2.06525059765e-05
-2.06519032947e-05
-2.06513263644e-05
-2.06507748874e-05
-2.06508522089e-05
-2.06514030198e-05
-2.06519610987e-05
-2.06525272422e-05
-2.06530328913e-05
-2.06534273269e-05
-2.06536739622e-05
-2.06537491433e-05
-2.06536445583e-05
-2.06533697319e-05
-2.06529493492e-05
-2.06524216565e-05
-2.06518382151e-05
-2.06512685784e-05
-2.06507110586e-05
-2.06507702726e-05
-2.06513286078e-05
-2.06518804364e-05
-2.06524264671e-05
-2.06529054704e-05
-2.06532752487e-05
-2.06535040415e-05
-2.06535737276e-05
-2.06534764455e-05
-2.06532210233e-05
-2.06528272955e-05
-2.06523273989e-05
-2.06517654698e-05
-2.06512026416e-05
-2.06506379844e-05
-2.06506680534e-05
-2.06512422889e-05
-2.06517911222e-05
-2.06523153679e-05
-2.06527647244e-05
-2.06531047999e-05
-2.06533135166e-05
-2.06533756819e-05
-2.06532870657e-05
-2.06530533165e-05
-2.06526901229e-05
-2.06522216438e-05
-2.06516820948e-05
-2.06511231592e-05
-2.06505431903e-05
-2.06507586895e-05
-2.06513118995e-05
-2.06518144697e-05
-2.06522744402e-05
-2.06526559201e-05
-2.06529398155e-05
-2.06531109351e-05
-2.06531605839e-05
-2.06530853997e-05
-2.06528898755e-05
-2.06525842081e-05
-2.06521840197e-05
-2.06517099297e-05
-2.06511973094e-05
-2.0650638764e-05
-2.22771648457e-05
-2.22767167867e-05
-2.22762126697e-05
-2.22756982246e-05
-2.22752413795e-05
-2.22748864678e-05
-2.22746641133e-05
-2.22745901307e-05
-2.22746691399e-05
-2.22748912185e-05
-2.2275236475e-05
-2.22756733574e-05
-2.2276159863e-05
-2.22766319557e-05
-2.22770566669e-05
-2.22770191431e-05
-2.22765851061e-05
-2.22760883468e-05
-2.2275577928e-05
-2.22751224084e-05
-2.22747672708e-05
-2.22745438517e-05
-2.22744690865e-05
-2.22745481979e-05
-2.22747708945e-05
-2.22751163859e-05
-2.22755521538e-05
-2.22760349288e-05
-2.22765007211e-05
-2.22769112084e-05
-2.22773528463e-05
-2.22769624702e-05
-2.22765074301e-05
-2.22760304307e-05
-2.22756000804e-05
-2.22752615625e-05
-2.22750470411e-05
-2.22749744018e-05
-2.22750495282e-05
-2.22752620107e-05
-2.22755906066e-05
-2.22760022299e-05
-2.2276453377e-05
-2.22768797884e-05
-2.22772463863e-05
-2.22776674807e-05
-2.22773061267e-05
-2.22768807609e-05
-2.22764280587e-05
-2.22760156203e-05
-2.22756887595e-05
-2.22754802712e-05
-2.22754088478e-05
-2.22754808333e-05
-2.22756858716e-05
-2.22760022872e-05
-2.22763965275e-05
-2.22768248792e-05
-2.22772237408e-05
-2.22775629336e-05
-2.2277875153e-05
-2.22775270148e-05
-2.22771189236e-05
-2.22766817948e-05
-2.22762807236e-05
-2.22759608613e-05
-2.22757554919e-05
-2.22756841894e-05
-2.22757537888e-05
-2.22759540459e-05
-2.22762630141e-05
-2.22766468352e-05
-2.22770617466e-05
-2.22774456844e-05
-2.22777728085e-05
-2.22780172156e-05
-2.2277674892e-05
-2.22772776012e-05
-2.22768509736e-05
-2.22764578412e-05
-2.22761430326e-05
-2.22759399778e-05
-2.22758686731e-05
-2.2275936271e-05
-2.22761327189e-05
-2.22764360222e-05
-2.22768123922e-05
-2.22772182887e-05
-2.22775939242e-05
-2.22779169492e-05
-2.22781182632e-05
-2.22777769557e-05
-2.22773865982e-05
-2.22769688307e-05
-2.22765829808e-05
-2.22762731456e-05
-2.22760724853e-05
-2.22760012266e-05
-2.22760667637e-05
-2.22762593983e-05
-2.227655734e-05
-2.22769272791e-05
-2.22773262175e-05
-2.22776972753e-05
-2.22780207717e-05
-2.22781894059e-05
-2.22778471605e-05
-2.22774614252e-05
-2.22770513787e-05
-2.22766725799e-05
-2.2276368133e-05
-2.22761705077e-05
-2.22760996901e-05
-2.22761631247e-05
-2.22763515375e-05
-2.2276643695e-05
-2.22770071591e-05
-2.22773999012e-05
-2.22777685474e-05
-2.22780951972e-05
-2.2278240028e-05
-2.2277894891e-05
-2.22775127826e-05
-2.227711091e-05
-2.22767404298e-05
-2.22764428874e-05
-2.22762494432e-05
-2.22761796161e-05
-2.22762406934e-05
-2.2276423991e-05
-2.22767091794e-05
-2.22770651295e-05
-2.22774512631e-05
-2.22778182896e-05
-2.22781492838e-05
-2.22782778362e-05
-2.22779300079e-05
-2.22775516337e-05
-2.22771590622e-05
-2.22767986743e-05
-2.2276509787e-05
-2.22763220588e-05
-2.2276253864e-05
-2.22763122532e-05
-2.22764892051e-05
-2.22767656492e-05
-2.22771122674e-05
-2.22774904948e-05
-2.22778556392e-05
-2.22781912026e-05
-2.22783099063e-05
-2.22779590139e-05
-2.22775848826e-05
-2.22772035464e-05
-2.22768556443e-05
-2.2276578061e-05
-2.22763978375e-05
-2.22763321357e-05
-2.22763873457e-05
-2.22765563827e-05
-2.22768217769e-05
-2.22771565903e-05
-2.22775249388e-05
-2.22778872533e-05
-2.22782272403e-05
-2.2278340641e-05
-2.22779862813e-05
-2.22776175201e-05
-2.22772493247e-05
-2.22769170329e-05
-2.22766531078e-05
-2.22764826208e-05
-2.22764200836e-05
-2.22764716461e-05
-2.22766308896e-05
-2.2276882591e-05
-2.22772027866e-05
-2.22775590976e-05
-2.22779175033e-05
-2.22782622533e-05
-2.22783784593e-05
-2.22780178886e-05
-2.22776533927e-05
-2.2277299622e-05
-2.22769840645e-05
-2.22767368692e-05
-2.2276577175e-05
-2.22765189257e-05
-2.22765660594e-05
-2.22767140249e-05
-2.22769498841e-05
-2.22772534511e-05
-2.22775967962e-05
-2.22779520231e-05
-2.22783040633e-05
-2.22784198376e-05
-2.22780460512e-05
-2.22776880899e-05
-2.22773498747e-05
-2.22770553585e-05
-2.22768262559e-05
-2.22766803603e-05
-2.22766264798e-05
-2.2276668938e-05
-2.22768036884e-05
-2.22770209759e-05
-2.22773050045e-05
-2.22776332389e-05
-2.22779834434e-05
-2.22783492232e-05
-2.22782636926e-05
-2.22779372143e-05
-2.22776279781e-05
-2.22773435526e-05
-2.22770991884e-05
-2.22769120141e-05
-2.2276792715e-05
-2.22767484909e-05
-2.22767815979e-05
-2.22768896165e-05
-2.2277066019e-05
-2.22772999949e-05
-2.22775757605e-05
-2.22778774937e-05
-2.22781973908e-05
-1.97299632083e-05
-1.973023806e-05
-1.97305333903e-05
-1.97308257825e-05
-1.97310790077e-05
-1.9731272267e-05
-1.97313892371e-05
-1.97314193742e-05
-1.97313578575e-05
-1.97312091815e-05
-1.97309845722e-05
-1.97307033836e-05
-1.97303909872e-05
-1.97300890519e-05
-1.97298135446e-05
-1.97299659531e-05
-1.97302283736e-05
-1.97305163304e-05
-1.97308048065e-05
-1.97310564967e-05
-1.97312495076e-05
-1.97313668341e-05
-1.97313973431e-05
-1.97313359976e-05
-1.97311876059e-05
-1.97309640127e-05
-1.97306851346e-05
-1.97303771165e-05
-1.97300816629e-05
-1.97298179904e-05
-1.97296574655e-05
-1.97298888961e-05
-1.97301485397e-05
-1.97304158497e-05
-1.97306520961e-05
-1.97308349355e-05
-1.97309465723e-05
-1.97309755834e-05
-1.97309168522e-05
-1.97307754223e-05
-1.97305634655e-05
-1.97303012748e-05
-1.97300150119e-05
-1.97297470052e-05
-1.97295137263e-05
-1.97293747849e-05
-1.97295860343e-05
-1.97298257236e-05
-1.97300782989e-05
-1.97303042437e-05
-1.97304805438e-05
-1.97305887219e-05
-1.97306170344e-05
-1.97305603544e-05
-1.97304238732e-05
-1.97302201177e-05
-1.97299697202e-05
-1.9729698888e-05
-1.97294502243e-05
-1.97292358749e-05
-1.97291696983e-05
-1.97293709625e-05
-1.97295993611e-05
-1.97298436904e-05
-1.97300643499e-05
-1.97302376827e-05
-1.97303446393e-05
-1.9730373124e-05
-1.97303180122e-05
-1.9730184634e-05
-1.9729985797e-05
-1.97297423931e-05
-1.97294805917e-05
-1.97292429321e-05
-1.97290371366e-05
-1.97290146555e-05
-1.97292119165e-05
-1.9729433175e-05
-1.97296724644e-05
-1.97298899445e-05
-1.97300615919e-05
-1.97301679959e-05
-1.97301968929e-05
-1.97301431871e-05
-1.97300122786e-05
-1.97298171301e-05
-1.97295786571e-05
-1.97293228521e-05
-1.97290918048e-05
-1.97288891893e-05
-1.97288927161e-05
-1.97290885966e-05
-1.97293052507e-05
-1.97295408094e-05
-1.97297556802e-05
-1.97299258226e-05
-1.97300317335e-05
-1.97300611038e-05
-1.97300089127e-05
-1.97298805292e-05
-1.97296889088e-05
-1.97294547222e-05
-1.97292036106e-05
-1.97289768982e-05
-1.97287744394e-05
-1.97287956791e-05
-1.97289916997e-05
-1.97292048702e-05
-1.97294368476e-05
-1.97296488174e-05
-1.9729816893e-05
-1.97299218199e-05
-1.97299514616e-05
-1.97299009424e-05
-1.97297755179e-05
-1.97295879002e-05
-1.97293582495e-05
-1.97291116156e-05
-1.97288881267e-05
-1.97286846038e-05
-1.97287161701e-05
-1.97289123791e-05
-1.9729122259e-05
-1.97293498951e-05
-1.97295577517e-05
-1.97297225062e-05
-1.97298255513e-05
-1.97298551079e-05
-1.97298065337e-05
-1.97296848481e-05
-1.97295022776e-05
-1.9729278159e-05
-1.97290366833e-05
-1.97288164173e-05
-1.97286117696e-05
-1.97286468136e-05
-1.97288425809e-05
-1.97290484179e-05
-1.97292702739e-05
-1.97294722867e-05
-1.9729632102e-05
-1.97297320434e-05
-1.97297610361e-05
-1.97297147333e-05
-1.97295978044e-05
-1.97294217537e-05
-1.97292047295e-05
-1.97289697489e-05
-1.97287534036e-05
-1.97285487536e-05
-1.97285816434e-05
-1.97287756459e-05
-1.97289765706e-05
-1.97291909216e-05
-1.97293849841e-05
-1.97295377771e-05
-1.97296331639e-05
-1.97296609646e-05
-1.97296172857e-05
-1.97295063255e-05
-1.97293385499e-05
-1.9729130535e-05
-1.97289037182e-05
-1.97286924094e-05
-1.97284891671e-05
-1.97285159303e-05
-1.9728707314e-05
-1.9728902425e-05
-1.97291074926e-05
-1.97292912412e-05
-1.97294348891e-05
-1.97295240107e-05
-1.97295499679e-05
-1.97295092693e-05
-1.97294055934e-05
-1.97292480727e-05
-1.97290511761e-05
-1.97288342298e-05
-1.97286289862e-05
-1.97284286037e-05
-1.97284438684e-05
-1.97286330884e-05
-1.9728822882e-05
-1.97290178228e-05
-1.97291895171e-05
-1.97293217151e-05
-1.97294032342e-05
-1.97294265336e-05
-1.97293891767e-05
-1.97292940257e-05
-1.97291484463e-05
-1.97289643346e-05
-1.97287580385e-05
-1.97285585793e-05
-1.97283610117e-05
-1.97283556651e-05
-1.97285457256e-05
-1.97287341421e-05
-1.97289200608e-05
-1.97290788147e-05
-1.9729198886e-05
-1.97292715285e-05