/*--------------------------------*- C++ -*----------------------------------*\
  =========                 |
  \\      /  F ield         | OpenFOAM: The Open Source CFD Toolbox
   \\    /   O peration     | Website:  https://openfoam.org
    \\  /    A nd           | Version:  7
     \\/     M anipulation  |
\*---------------------------------------------------------------------------*/
FoamFile
{
    version     2.0;
    format      ascii;
    class       surfaceScalarField;
    location    "2.3";
    object      phi;
}
// * * * * * * * * * * * * * * * * * * * * * * * * * * * * * * * * * * * * * //

dimensions      [0 3 -1 0 0 0 0];

internalField   nonuniform List<scalar> 
65775
(
-2.44751324409e-11
-8.55581627569e-09
2.50655023295e-10
1.70599750415e-13
-4.71257562692e-11
-9.02305975642e-09
2.84835200255e-10
-5.30816073084e-11
-9.46228365279e-09
3.19387370232e-10
-4.88776568996e-11
-9.83888128464e-09
3.51792264477e-10
-3.8875566339e-11
-1.014221738e-08
3.79801533249e-10
-2.55687480634e-11
-1.03653805621e-08
4.01429504935e-10
-1.0479825556e-11
-1.05056058063e-08
4.15220960806e-10
5.24392781137e-12
-1.05577080378e-08
4.20116263133e-10
2.04181634477e-11
-1.05055696726e-08
4.15198908781e-10
3.39028289644e-11
-1.03652992464e-08
4.01380984259e-10
4.41688209384e-11
-1.0142078034e-08
3.797207081e-10
4.87144832459e-11
-9.83868032537e-09
3.5166906538e-10
4.31611987179e-11
-9.46205839028e-09
3.19205429256e-10
2.10000077139e-11
-9.02287735225e-09
2.84569796902e-10
-8.55589537464e-09
2.50281261997e-10
-2.58889400897e-12
-9.13942351837e-11
-1.62795053941e-08
-1.20097582556e-10
-4.77539196631e-13
-1.57994584295e-10
-1.71647710202e-08
-1.57201435096e-10
-1.80021117142e-10
-1.79984310244e-08
-1.92933127064e-10
-1.70304953748e-10
-1.87053200696e-08
-2.25615875996e-10
-1.38541706078e-10
-1.92697628864e-08
-2.5344624372e-10
-9.20048866574e-11
-1.9682387466e-08
-2.74816291013e-10
-3.67940013055e-11
-1.99406923747e-08
-2.88410166628e-10
2.13095057728e-11
-2.00365323749e-08
-2.93229957236e-10
7.68273142607e-11
-1.99407671662e-08
-2.88451491124e-10
1.24006520424e-10
-1.96825262096e-08
-2.74915630391e-10
1.56759383715e-10
-1.92699332971e-08
-2.53623734703e-10
1.6778025771e-10
-1.87054719221e-08
-2.25905228672e-10
1.47308969379e-10
-1.79985678783e-08
-1.9338720159e-10
8.2498488119e-11
-1.71650182665e-08
-1.57896396426e-10
-1.62801496118e-08
-1.21103863047e-10
-7.35407375199e-12
-1.7497429367e-10
-2.25841523227e-08
-1.06203189899e-09
7.61960603062e-14
-2.83972847607e-10
-2.37751395383e-08
-1.2503321484e-09
-3.25900423685e-10
-2.48766659931e-08
-1.43267702634e-09
-3.13233668481e-10
-2.58004531281e-08
-1.59888186497e-09
-2.57904511627e-10
-2.65312578836e-08
-1.73954025822e-09
-1.7135601151e-10
-2.70619292466e-08
-1.84669191665e-09
-6.56637694609e-11
-2.73930188018e-08
-1.91446270765e-09
4.63581128937e-11
-2.75160004348e-08
-1.93845750404e-09
1.52328334738e-10
-2.7393165664e-08
-1.91454679176e-09
2.39462935175e-10
-2.70622085095e-08
-1.84687962519e-09
2.95709614542e-10
-2.65316325455e-08
-1.73985578944e-09
3.09634425513e-10
-2.58008737468e-08
-1.59936658159e-09
2.69299544087e-10
-2.48771256076e-08
-1.43339875545e-09
1.62307398083e-10
-2.3775825853e-08
-1.25139531886e-09
-2.25853650153e-08
-1.06354164197e-09
-1.01263327781e-11
-2.62818840767e-10
-2.72258128731e-08
-2.24322821181e-09
1.8204648143e-13
-4.16909423947e-10
-2.85982534863e-08
-2.59682636731e-09
-4.81855429615e-10
-2.98327640541e-08
-2.93370723523e-09
-4.67985552744e-10
-3.08581858388e-08
-3.23663634909e-09
-3.88253605533e-10
-3.16631793991e-08
-3.49008240122e-09
-2.58078622319e-10
-3.22448666431e-08
-3.6813834118e-09
-9.62979396384e-11
-3.26071117727e-08
-3.80164946127e-09
7.59737218304e-11
-3.27420152625e-08
-3.84415163358e-09
2.37988725175e-10
-3.26072806565e-08
-3.80174665372e-09
3.68663764003e-10
-3.22451941303e-08
-3.68159870826e-09
4.49195780968e-10
-3.16636270571e-08
-3.49044348334e-09
4.64200699534e-10
-3.08587113239e-08
-3.23719027026e-09
4.00753252002e-10
-2.98333723933e-08
-2.93453109956e-09
2.48620576232e-10
-2.85991989139e-08
-2.5980428086e-09
-2.72274527679e-08
-2.2449724981e-09
-1.14949255116e-11
-3.46247186055e-10
-3.02304063412e-08
-3.40271185833e-09
9.57855933628e-14
-5.47943850351e-10
-3.16801191937e-08
-3.89469696152e-09
-6.367348067e-10
-3.29451225952e-08
-4.35538355532e-09
-6.21918024374e-10
-3.39881988402e-08
-4.76435373227e-09
-5.17746119491e-10
-3.48030564717e-08
-5.10306570585e-09
-3.43892932408e-10
-3.53905182766e-08
-5.35676473893e-09
-1.26043265818e-10
-3.57562577399e-08
-5.51548713858e-09
1.06435208484e-10
-3.58928452426e-08
-5.57150770562e-09
3.24478204142e-10
-3.57564342292e-08
-5.51558415816e-09
4.9874865166e-10
-3.53908639545e-08
-5.35697903621e-09
6.03598598985e-10
-3.48035423173e-08
-5.10342565878e-09
6.19397700447e-10
-3.39887966205e-08
-4.76490721115e-09
5.31935284174e-10
-3.29458523069e-08
-4.35620863616e-09
3.31997556991e-10
-3.1681237716e-08
-3.89592171872e-09
-3.02323215629e-08
-3.40448919462e-09
-1.18016094384e-11
-4.20366805142e-10
-3.1787931765e-08
-4.38147020931e-09
-3.95209942405e-14
-6.70299220126e-10
-3.32387692144e-08
-4.9739950875e-09
-7.82188149007e-10
-3.44704192561e-08
-5.52125258306e-09
-7.66193967633e-10
-3.54803555274e-08
-6.00253082418e-09
-6.38591483952e-10
-3.62676331895e-08
-6.39836438626e-09
-4.23614317617e-10
-3.68351708903e-08
-6.69335073756e-09
-1.53436762425e-10
-3.71887676067e-08
-6.87731557813e-09
1.35091132543e-10
-3.73210542291e-08
-6.94217000921e-09
4.05439508223e-10
-3.71889419397e-08
-6.87740657021e-09
6.20784378664e-10
-3.68355152261e-08
-6.69355499305e-09
7.4898553277e-10
-3.62681237331e-08
-6.39870831613e-09
7.65848499572e-10
-3.54809750833e-08
-6.00305795693e-09
6.55142383698e-10
-3.44711966313e-08
-5.52203463859e-09
4.06767636277e-10
-3.32399593495e-08
-4.97515606082e-09
-3.17900041865e-08
-4.3831690438e-09
-1.15268329471e-11
-4.84698990802e-10
-3.21463421166e-08
-5.12208976331e-09
-1.53133820293e-13
-7.81442472977e-10
-3.35444943923e-08
-5.78438312e-09
-9.1505170217e-10
-3.47064517082e-08
-6.39063142079e-09
-8.97767781409e-10
-3.56545998562e-08
-6.92082467132e-09
-7.48391959656e-10
-3.63936555444e-08
-7.35522143169e-09
-4.95820698516e-10
-3.69271328837e-08
-7.67807113398e-09
-1.78211361455e-10
-3.72598423629e-08
-7.87902284853e-09
1.60991307101e-10
-3.73843270458e-08
-7.9497540695e-09
4.7876671458e-10
-3.72600250351e-08
-7.87911651625e-09
7.31691707643e-10
-3.69274955369e-08
-7.67827931647e-09
8.81635645283e-10
-3.63941807177e-08
-7.35556555664e-09
8.99732768386e-10
-3.56552786365e-08
-6.92134062748e-09
7.67216975728e-10
-3.47073148672e-08
-6.39137948588e-09
4.71892091496e-10
-3.35457636085e-08
-5.78547553992e-09
-3.21485056484e-08
-5.12367864845e-09
-1.10558951219e-11
-5.41502733314e-10
-3.15466089303e-08
-5.62930988059e-09
-2.13296734861e-13
-8.82410347651e-10
-3.28531618292e-08
-6.3415930044e-09
-1.03641740194e-09
-3.39242338477e-08
-6.99037746755e-09
-1.01792722009e-09
-3.47938201602e-08
-7.55619722121e-09
-8.48463941021e-10
-3.54725906545e-08
-8.01896147679e-09
-5.6152974167e-10
-3.59635392919e-08
-8.36245305152e-09
-2.00820239844e-10
-3.62699340669e-08
-8.57596588834e-09
1.843416633e-10
-3.63843609647e-08
-8.6509417055e-09
5.45224219646e-10
-3.62701318171e-08
-8.57606798742e-09
8.32521794391e-10
-3.59639344514e-08
-8.36267504544e-09
1.00255731659e-09
-3.54731715397e-08
-8.01931929708e-09
1.02185163108e-09
-3.47945816064e-08
-7.55671739436e-09
8.68904647085e-10
-3.39252081376e-08
-6.99110664261e-09
5.29348971962e-10
-3.2854537876e-08
-6.34262909731e-09
-3.15488695697e-08
-5.63079250561e-09
-1.06123016571e-11
-5.9377188773e-10
-3.01974136288e-08
-5.93246060926e-09
-2.24037538553e-13
-9.75974200859e-10
-3.13833430273e-08
-6.68308822416e-09
-1.14943329095e-09
-3.2349745189e-08
-7.36507190282e-09
-1.12985722291e-09
-3.31303998842e-08
-7.9590463496e-09
-9.41567232743e-10
-3.37414674943e-08
-8.44439883654e-09
-6.22613296674e-10
-3.41844987176e-08
-8.80437331473e-09
-2.21928935739e-10
-3.44609819588e-08
-9.0278344031e-09
2.05793053019e-10
-3.45638321933e-08
-9.1060480793e-09
6.06663605676e-10
-3.44612080812e-08
-9.02794866556e-09
9.26003613661e-10
-3.41849528602e-08
-8.80461648212e-09
1.11489108857e-09
-3.37421454612e-08
-8.44478102459e-09
1.13529074252e-09
-3.31312991407e-08
-7.95958424534e-09
9.62896697823e-10
-3.23508934064e-08
-7.36579814361e-09
5.82029410896e-10
-3.13848970873e-08
-6.68408643134e-09
-3.01997958502e-08
-5.93385491355e-09
-1.0290002742e-11
-6.44052779211e-10
-2.82726428136e-08
-6.06373398212e-09
-1.89725815673e-13
-1.0652968611e-09
-2.93165057808e-08
-6.84538331408e-09
-1.25775071936e-09
-3.01687146901e-08
-7.55451417145e-09
-1.23704863429e-09
-3.08547504493e-08
-8.17154609874e-09
-1.03052403169e-09
-3.13942332186e-08
-8.67531585528e-09
-6.80884802956e-10
-3.17863513285e-08
-9.04862675719e-09
-2.42143659296e-10
-3.20307915282e-08
-9.27999076051e-09
2.26015700829e-10
-3.21211364648e-08
-9.36063738945e-09
6.64959706179e-10
-3.20310556669e-08
-9.28011927507e-09
1.01501428241e-09
-3.17868863769e-08
-9.04889542778e-09
1.22217439655e-09
-3.13950386007e-08
-8.67572918249e-09
1.24373788069e-09
-3.08558315713e-08
-8.17211119188e-09
1.05237824382e-09
-3.01700938238e-08
-7.55525009538e-09
6.32487898345e-10
-2.93183133992e-08
-6.84636044483e-09
-2.82752270887e-08
-6.06505985743e-09
-1.01106744003e-11
-6.94122679577e-10
-2.59177956738e-08
-6.04977294323e-09
-1.28515041494e-13
-1.15346558096e-09
-2.68043775998e-08
-6.85690122566e-09
-1.36492263536e-09
-2.75368029581e-08
-7.58828944388e-09
-1.34264102548e-09
-2.81274064936e-08
-8.22396781539e-09
-1.11766516076e-09
-2.85949877037e-08
-8.74234438088e-09
-7.37758247955e-10
-2.8935547135e-08
-9.12601892206e-09
-2.61913019096e-10
-2.9147224577e-08
-9.3633263381e-09
2.45533758646e-10
-2.92247150771e-08
-9.4456406665e-09
7.21600101762e-10
-2.91475391306e-08
-9.36346988597e-09
1.10195811404e-09
-2.89361853593e-08
-9.1263150001e-09
1.3276147311e-09
-2.85959594663e-08
-8.74279247409e-09
1.35080908083e-09
-2.81287172006e-08
-8.22456614547e-09
1.14049151578e-09
-2.75384742764e-08
-7.58904411062e-09
6.82539260768e-10
-2.68065129406e-08
-6.85787020868e-09
-2.59206515898e-08
-6.0510474877e-09
-1.00623733745e-11
-7.45137637205e-10
-2.32573661692e-08
-5.91037916774e-09
-4.7294889243e-14
-1.24378852465e-09
-2.39760647351e-08
-6.73810361653e-09
-1.474347753e-09
-2.45886954417e-08
-7.48728819691e-09
-1.44911581918e-09
-2.50887538462e-08
-8.13737740824e-09
-1.20455358973e-09
-2.54876604969e-08
-8.6665910432e-09
-7.94076343902e-10
-2.57781290525e-08
-9.05765595883e-09
-2.81489747659e-10
-2.59576364103e-08
-9.29895034094e-09
2.64661762637e-10
-2.60224346443e-08
-9.38217957137e-09
7.77490775416e-10
-2.59580154863e-08
-9.29910868953e-09
1.18845797723e-09
-2.57789010205e-08
-9.05797950556e-09
1.43375738011e-09
-2.54888337233e-08
-8.66707523384e-09
1.45996397372e-09
-2.50903458115e-08
-8.13801266542e-09
1.23060619031e-09
-2.45907227786e-08
-7.48806804432e-09
7.33399863066e-10
-2.397860957e-08
-6.73907300671e-09
-2.32605846883e-08
-5.91161411105e-09
-1.0114770597e-11
-7.9978126841e-10
-2.03989064129e-08
-5.65983644376e-09
3.97430796342e-14
-1.34166788769e-09
-2.09431015306e-08
-6.50385671495e-09
-1.58937312238e-09
-2.14458493732e-08
-7.26679535015e-09
-1.55775108938e-09
-2.18658265982e-08
-7.92720116995e-09
-1.29147394177e-09
-2.22016631174e-08
-8.4635415911e-09
-8.49839599877e-10
-2.244493053e-08
-8.85907642937e-09
-3.0082962355e-10
-2.25938113798e-08
-9.10245164435e-09
2.83403054746e-10
-2.2646543199e-08
-9.18587189931e-09
8.32678434268e-10
-2.2594272679e-08
-9.10262355064e-09
1.27485191179e-09
-2.2445863826e-08
-8.85942568248e-09
1.54192768543e-09
-2.22030891596e-08
-8.46406098614e-09
1.57460062373e-09
-2.18677553715e-08
-7.92787507304e-09
1.32817385227e-09
-2.14482979744e-08
-7.26760506662e-09
7.87803622702e-10
-2.09461405144e-08
-6.50483052195e-09
-2.04025919525e-08
-5.66103324806e-09
-1.020288919e-11
-8.71477707611e-10
-1.74260516182e-08
-5.30860236908e-09
1.43122912453e-13
-1.45823296369e-09
-1.78074423999e-08
-6.16602154983e-09
-1.71365517613e-09
-1.82248333553e-08
-6.9391598557e-09
-1.66893809357e-09
-1.85764786169e-08
-7.60588500983e-09
-1.37810214611e-09
-1.88546174523e-08
-8.14575066913e-09
-9.04753793634e-10
-1.90540081626e-08
-8.54296937739e-09
-3.19841075508e-10
-1.91745973458e-08
-8.78663167018e-09
3.0170290445e-10
-1.9216238254e-08
-8.86956917265e-09
8.86910364012e-10
-1.91751585369e-08
-8.78681448252e-09
1.36084605351e-09
-1.90551440756e-08
-8.54333989818e-09
1.65255838179e-09
-1.8856339412e-08
-8.14630077323e-09
1.69841345492e-09
-1.85788039136e-08
-7.60659594514e-09
1.44435615826e-09
-1.82277773118e-08
-6.94000250951e-09
8.5920083031e-10
-1.78110689806e-08
-6.1670015248e-09
-1.7430324072e-08
-5.30974957231e-09
-1.03522796971e-11
-1.0025286695e-09
-4.86312289075e-09
2.37142923602e-13
-1.4373694857e-08
-1.61295177404e-09
-5.7345619005e-09
-1.4683919873e-08
-1.86087785635e-09
-6.51417526351e-09
-1.50382328579e-08
-1.79619198956e-09
-7.18353602034e-09
-1.53286134392e-08
-1.47668039006e-09
-7.72392512187e-09
-1.5554656211e-08
-9.67355218123e-10
-8.12063643705e-09
-1.57158949279e-08
-3.41533373089e-10
-8.36320999e-09
-1.5812570084e-08
3.2260260687e-10
-8.44514597202e-09
-1.58449605449e-08
9.48744646743e-10
-8.36339830041e-09
-1.58132500435e-08
1.45871213575e-09
-8.12101805607e-09
-1.57172706109e-08
1.77917378984e-09
-7.72449234025e-09
-1.55567398501e-08
1.84509072607e-09
-7.18427078461e-09
-1.53314161779e-08
1.59864307241e-09
-6.51504262675e-09
-1.50417581815e-08
9.89918483065e-10
-5.73556050885e-09
-1.46882253108e-08
-4.86417295325e-09
-1.05231572542e-11
-1.4378731945e-08
-2.60619512386e-11
9.83124937599e-10
-7.06428678828e-10
-3.66351008282e-13
-4.25098000936e-11
1.08533033799e-09
-7.84676335703e-10
-4.94387593217e-11
1.18382340958e-09
-8.58204231108e-10
-4.86954414071e-11
1.27441309672e-09
-9.23993261712e-10
-4.06963491532e-11
1.35022415588e-09
-9.78883382211e-10
-2.68440762929e-11
1.40752664075e-09
-1.02025441659e-09
-9.13592949362e-12
1.44368709765e-09
-1.04636899979e-09
9.93173245753e-12
1.45667322011e-09
-1.05576380568e-09
2.76360793893e-11
1.44376497097e-09
-1.04638182989e-09
4.14977974524e-11
1.4076989175e-09
-1.02027930383e-09
4.95490600815e-11
1.35049667315e-09
-9.78918760123e-10
5.03979722952e-11
1.27476867899e-09
-9.24038134337e-10
4.35862941282e-11
1.18419129475e-09
-8.58260093752e-10
2.71742890131e-11
1.08565029142e-09
-7.84752686855e-10
9.83357338782e-10
-7.06556313154e-10
5.75905969745e-13
-4.50434444718e-11
2.70278361368e-09
-1.79546962276e-09
8.76072835821e-14
-7.28214103796e-11
2.94305332112e-09
-1.98819938455e-09
-8.5133371768e-11
3.17011393254e-09
-2.16807538187e-09
-8.34727698463e-11
3.37414307185e-09
-2.32802721939e-09
-6.9325062958e-11
3.54273369457e-09
-2.46084625662e-09
-4.52091680681e-11
3.6687175059e-09
-2.56061278492e-09
-1.46003239953e-11
3.7478066015e-09
-2.62345853601e-09
1.8299485934e-11
3.77635488544e-09
-2.64604581786e-09
4.88212132022e-11
3.74811135489e-09
-2.62350841738e-09
7.27734277168e-11
3.66937007279e-09
-2.56070721255e-09
8.67057783535e-11
3.5437630205e-09
-2.46097842773e-09
8.81443087838e-11
3.37546547358e-09
-2.32819055144e-09
7.55693059992e-11
3.17150359063e-09
-2.16826891896e-09
4.74171939713e-11
2.94421308724e-09
-1.98844391066e-09
2.70351024632e-09
-1.79583206679e-09
1.86365804829e-12
-4.17543275885e-11
4.37212954183e-09
-2.68954240831e-09
-7.11653953147e-13
-6.70981384363e-11
4.69572501037e-09
-2.97852127251e-09
-7.9206916708e-11
4.99591059237e-09
-3.24728909333e-09
-7.79596479037e-11
5.25877983525e-09
-3.4855705421e-09
-6.48641695385e-11
5.47245441129e-09
-3.68296049412e-09
-4.22590084769e-11
5.62996012488e-09
-3.83095435626e-09
-1.34362974225e-11
5.72824073458e-09
-3.92399901589e-09
1.76518538731e-11
5.76393708719e-09
-3.95733064487e-09
4.64571620697e-11
5.72864108847e-09
-3.92404401065e-09
6.90482294159e-11
5.6307981142e-09
-3.83104210266e-09
8.2166057131e-11
5.47374332995e-09
-3.68308713974e-09
8.34712067418e-11
5.26040036555e-09
-3.48573521096e-09
7.13525826268e-11
4.99760037567e-09
-3.24750018494e-09
4.57265752216e-11
4.69714224754e-09
-2.97881643768e-09
4.37305755768e-09
-2.69001688239e-09
2.54867251163e-12
-2.69425543273e-11
5.60876102383e-09
-3.45235102756e-09
-1.14599303995e-12
-4.28239615733e-11
5.94152894601e-09
-3.82756668092e-09
-5.16291451088e-11
6.2456816423e-09
-4.17555289699e-09
-5.15679306925e-11
6.5046682703e-09
-4.48334689056e-09
-4.32266610764e-11
6.71130275034e-09
-4.73784205291e-09
-2.80450188415e-11
6.86137094357e-09
-4.92836681373e-09
-8.27830585062e-12
6.95449758547e-09
-5.04794314383e-09
1.32508749742e-11
6.98870045388e-09
-5.09064142674e-09
3.303863595e-11
6.95493177419e-09
-5.04798596674e-09
4.82798876162e-11
6.86226993311e-09
-4.92845192261e-09
5.67443114783e-11
6.71267118172e-09
-4.7379673622e-09
5.69636119715e-11
6.50638004428e-09
-4.48351490721e-09
4.82175327204e-11
6.24747196087e-09
-4.17577732331e-09
3.20489867236e-11
5.94305019648e-09
-3.82789345773e-09
5.6097653743e-09
-3.45288817914e-09
3.15135334036e-12
-7.03124737669e-12
6.30039853785e-09
-4.08643523987e-09
-1.41068185425e-12
-1.19879561415e-11
6.58941239353e-09
-4.538284967e-09
-1.69409860342e-11
6.85088066799e-09
-4.95630551901e-09
-1.86829054135e-11
7.06680307199e-09
-5.32533486243e-09
-1.64752646085e-11
7.23558531618e-09
-5.63000417387e-09
-1.05956501438e-11
7.35621997438e-09
-5.85781862924e-09
-2.03597098493e-12
7.43079679429e-09
-6.00057426904e-09
7.67862079966e-12
7.45869029917e-09
-6.05138354144e-09
1.62866471325e-11
7.43122138263e-09
-6.00061818521e-09
2.22719265879e-11
7.35709175051e-09
-5.85790666907e-09
2.4649713262e-11
7.23689044046e-09
-5.63013458184e-09
2.30964915435e-11
7.06842931187e-09
-5.32551086222e-09
1.82035188466e-11
6.85259615397e-09
-4.95654184019e-09
1.29327974454e-11
6.59093228086e-09
-4.5386296784e-09
6.30148819696e-09
-4.08699837667e-09
3.6358263875e-12
1.38461799097e-11
6.50288822415e-09
-4.59671193458e-09
-1.56690744372e-12
1.88303806677e-11
6.7264134725e-09
-5.1165780822e-09
1.73667461102e-11
6.92700493603e-09
-5.59653708393e-09
1.36503338977e-11
7.08704481229e-09
-6.01959704854e-09
9.71704386501e-12
7.20920601416e-09
-6.36847018111e-09
6.42761951469e-12
7.29494877324e-09
-6.62909261789e-09
4.00050715631e-12
7.34785918293e-09
-6.7921695024e-09
2.14223550091e-12
7.36822912879e-09
-6.85001634683e-09
-2.17191092445e-13
7.34826377062e-09
-6.79222291658e-09
-3.37566506358e-12
7.29577314857e-09
-6.62919550901e-09
-7.12040909861e-12
7.21043682467e-09
-6.36861940397e-09
-1.06498437132e-11
7.08859026369e-09
-6.01979421516e-09
-1.20713398962e-11
6.92867784645e-09
-5.59679415088e-09
-7.41798363005e-12
6.72797481576e-09
-5.11694118171e-09
6.50409773843e-09
-4.59728215566e-09
3.99616370095e-12
3.3253899005e-11
6.338321612e-09
-4.98955287633e-09
-1.64928830371e-12
4.67057420386e-11
6.49792456798e-09
-5.56982572689e-09
4.82847980881e-11
6.63890682135e-09
-6.10459408902e-09
4.27802552328e-11
6.74664219469e-09
-6.57533280559e-09
3.33131835243e-11
6.82625626814e-09
-6.96313545317e-09
2.17490444055e-11
6.88079082645e-09
-7.25259827174e-09
9.39800890042e-12
6.91446063297e-09
-7.43346182962e-09
-2.92213219205e-12
6.92803838818e-09
-7.49738746998e-09
-1.51947462521e-11
6.91482486629e-09
-7.43352356821e-09
-2.66171780171e-11
6.88152896699e-09
-7.25271566936e-09
-3.58974230042e-11
6.82735869845e-09
-6.96330375103e-09
-4.12351727398e-11
6.74804566428e-09
-6.57554990781e-09
-3.9641335183e-11
6.64048605914e-09
-6.1048667176e-09
-2.65291519693e-11
6.49950260869e-09
-5.57019594372e-09
6.33969977839e-09
-4.99011642792e-09
4.23901229086e-12
4.99845790666e-11
5.93145760605e-09
-5.27111333013e-09
-1.67670818759e-12
7.0689342221e-11
6.03997484201e-09
-5.90476051747e-09
7.49861244107e-11
6.13149326557e-09
-6.48767812129e-09
6.80408858947e-11
6.19712059212e-09
-7.00009938001e-09
5.38272371055e-11
6.24301002582e-09
-7.42179747062e-09
3.50787386715e-11
6.27313312163e-09
-7.73627453055e-09
1.40704574377e-11
6.29178748406e-09
-7.93245923456e-09
-7.39591833204e-12
6.29995580821e-09
-8.00152878144e-09
-2.83237392701e-11
6.2921036237e-09
-7.93253085395e-09
-4.69334509865e-11
6.27377611935e-09
-7.73641043146e-09
-6.09774080955e-11
6.2439813501e-09
-7.42198990603e-09
-6.77853614168e-11
6.19839054019e-09
-7.00034122841e-09
-6.35038035269e-11
6.13298566276e-09
-6.48796923084e-09
-4.31354919706e-11
6.0415712944e-09
-5.90513775685e-09
5.93298555051e-09
-5.27166643893e-09
4.377954579e-12
6.36087374306e-11
5.38311895746e-09
-5.44638311115e-09
-1.67260555842e-12
9.06899653544e-11
5.45598281041e-09
-6.12650920587e-09
9.74968459531e-11
5.51025989242e-09
-6.75097099062e-09
8.95005541008e-11
5.54486353238e-09
-7.29907875893e-09
7.13254967422e-11
5.56614959492e-09
-7.74959887976e-09
4.64668470599e-11
5.57863907159e-09
-8.08521061615e-09
1.80479035562e-11
5.5864331861e-09
-8.29421105484e-09
-1.12666349801e-11
5.5905797293e-09
-8.36747947159e-09
-3.96098280668e-11
5.58669273633e-09
-8.2942941456e-09
-6.43438067953e-11
5.57917239532e-09
-8.08536802499e-09
-8.237755656e-11
5.56697072704e-09
-7.74981941669e-09
-9.0275991706e-11
5.54597631322e-09
-7.29934953418e-09
-8.35161189438e-11
5.51164085025e-09
-6.75128417768e-09
-5.67695729538e-11
5.45756733086e-09
-6.12689635428e-09
5.38479632529e-09
-5.44692693138e-09
4.43617700203e-12
7.42150820972e-11
4.76569341598e-09
-5.51914370122e-09
-1.64515762342e-12
1.06980267316e-10
4.8163432101e-09
-6.23877624359e-09
1.16154760715e-10
4.84441935182e-09
-6.89811463219e-09
1.07483749599e-10
4.85760910241e-09
-7.47585911722e-09
8.60739045567e-11
4.86211310842e-09
-7.95007237739e-09
5.60911560759e-11
4.86272078771e-09
-8.30288938124e-09
2.14018073925e-11
4.86316552412e-09
-8.52216909795e-09
-1.45699978587e-11
4.86449095262e-09
-8.59868454056e-09
-4.9193979835e-11
4.8633704159e-09
-8.52226485236e-09
-7.90757065223e-11
4.86314857356e-09
-8.3030706718e-09
-1.00380764265e-10
4.86279503597e-09
-7.95032446753e-09
-1.0899813896e-10
4.85857409131e-09
-7.47616311073e-09
-9.99048692151e-11
4.84568608433e-09
-6.89845482175e-09
-6.74690512983e-11
4.817893143e-09
-6.23917919039e-09
4.76746191729e-09
-5.51968371364e-09
4.42872602918e-12
8.21700116837e-11
4.12753380206e-09
-5.49240967951e-09
-1.61286108273e-12
1.20004531154e-10
4.16590640669e-09
-6.24451637316e-09
1.31461461099e-10
4.17659630345e-09
-6.9321327972e-09
1.22477534179e-10
4.17600074321e-09
-7.533565092e-09
9.84829237494e-11
4.17003138301e-09
-8.02642767296e-09
6.42242146447e-11
4.16340393181e-09
-8.39258296071e-09
2.42373475886e-11
4.15936053682e-09
-8.61964799079e-09
-1.73835966097e-11
4.15885203284e-09
-8.69847789713e-09
-5.73206434549e-11
4.15951422874e-09
-8.61975735481e-09
-9.15075190142e-11
4.16373611814e-09
-8.39279022276e-09
-1.15441594779e-10
4.17058242739e-09
-8.02671483062e-09
-1.24419594558e-10
4.17682873315e-09
-7.53390745054e-09
-1.13080056191e-10
4.17775107254e-09
-6.93250683345e-09
-7.55752248713e-11
4.16740676173e-09
-6.24494398195e-09
4.12937450202e-09
-5.49295540352e-09
4.37538407484e-12
8.79266684535e-11
3.4995467792e-09
-5.36893506391e-09
-1.57594071268e-12
1.30332726721e-10
3.5318582861e-09
-6.14662999473e-09
1.44119697296e-10
3.53164093207e-09
-6.85628359658e-09
1.35189498284e-10
3.52319079902e-09
-7.47578508906e-09
1.09141125791e-10
3.51186344693e-09
-7.98250587958e-09
7.12594402723e-11
3.50184603424e-09
-8.35831583742e-09
2.66932287109e-11
3.49567277697e-09
-8.59079085792e-09
-1.98309330632e-11
3.49417524956e-09
-8.67104884206e-09
-6.43656989289e-11
3.49578475172e-09
-8.59091455241e-09
-1.02211951991e-10
3.50209760198e-09
-8.35855096194e-09
-1.28245239437e-10
3.51231221315e-09
-7.98283190842e-09
-1.37220064408e-10
3.52390615247e-09
-7.47617219651e-09
-1.2358806575e-10
3.53269889213e-09
-6.85670044262e-09
-8.1512693889e-11
3.53330697703e-09
-6.14709328647e-09
3.5014164199e-09
-5.36949891598e-09
4.28372396783e-12
9.1990265643e-11
2.90065046228e-09
-5.15156270019e-09
-1.5486403818e-12
1.38931826048e-10
2.92947945446e-09
-5.94855930998e-09
1.5537663491e-10
2.92299887879e-09
-6.67473082423e-09
1.46810174591e-10
2.9116178294e-09
-7.30717536806e-09
1.18999229756e-10
2.89934587206e-09
-7.82330208363e-09
7.77870534578e-11
2.88921900096e-09
-8.20532878684e-09
2.89802448675e-11
2.88297124314e-09
-8.44099938588e-09
-2.2116257638e-11
2.88119449066e-09
-8.52186105609e-09
-7.0914038987e-11
2.88305520505e-09
-8.44113765373e-09
-1.12126656739e-10
2.88942042718e-09
-8.20559299803e-09
-1.39974260796e-10
2.89972054546e-09
-7.82367053642e-09
-1.48634715026e-10
2.91225562629e-09
-7.30761451887e-09
-1.32381621864e-10
2.92399556239e-09
-6.67520129448e-09
-8.57813252792e-11
2.93090146617e-09
-5.9490694861e-09
2.90256312738e-09
-5.15215487447e-09
4.15817510984e-12
9.52273267625e-11
2.34157284049e-09
-4.84337445555e-09
-1.52469091208e-12
1.47805369725e-10
2.36581480491e-09
-5.65504222975e-09
1.67565757469e-10
2.35713799034e-09
-6.39315472717e-09
1.59371743665e-10
2.34763074408e-09
-7.03380163083e-09
1.29556764443e-10
2.33847219747e-09
-7.5551501463e-09
8.47501430782e-11
2.33118011207e-09
-7.94018083189e-09
3.13994786316e-11
2.32661581667e-09
-8.17699366144e-09
-2.45408846789e-11
2.32522456847e-09
-8.25769905266e-09
-7.79044785031e-11
2.32669325405e-09
-8.17714559701e-09
-1.22755393686e-10
2.33136802794e-09
-7.94047329367e-09
-1.52652400782e-10
2.33883122869e-09
-7.55556232049e-09
-1.60984948666e-10
2.34824659825e-09
-7.03429920857e-09
-1.41450038723e-10
2.35810773859e-09
-6.39369118783e-09
-8.92213510414e-11
2.36724590214e-09
-5.65560978167e-09
2.34355836787e-09
-4.84399652775e-09
3.99636538981e-12
9.36551054687e-11
-4.45018168651e-09
-1.51426107277e-12
1.83636652874e-09
1.58455388005e-10
-5.27577494271e-09
1.84213860552e-09
1.82820856035e-10
-6.0204667757e-09
1.8389704151e-09
1.74897636965e-10
-6.66391280033e-09
1.83586000629e-09
1.42564522334e-10
-7.18592834887e-09
1.83273732244e-09
9.33200854219e-11
-7.5705675971e-09
1.83028490542e-09
3.43897523522e-11
-7.80639330295e-09
1.82867948999e-09
-2.75498015252e-11
-7.8861682777e-09
1.8281316486e-09
-8.65129636482e-11
-7.80655500324e-09
1.82878060201e-09
-1.35838169225e-10
-7.57088140056e-09
1.83050885925e-09
-1.6829880581e-10
-7.1863765577e-09
1.83313760951e-09
-1.76404923493e-10
-6.66446520333e-09
1.83650874493e-09
-1.52279993456e-10
-6.02107359776e-09
1.8399776644e-09
-8.78253602046e-11
-5.27642313712e-09
1.84361951284e-09
-4.45079889248e-09
3.80799496787e-12
1.83852017488e-09
1.71381255357e-11
-2.08671918082e-10
-5.15072466255e-10
-1.45500368162e-13
2.70230860223e-11
-2.31986273857e-10
-5.62989411186e-10
3.15167973704e-11
-2.5620866494e-10
-6.0695403432e-10
3.09791277511e-11
-2.78248282645e-10
-6.45618544508e-10
2.58689184826e-11
-2.96722395505e-10
-6.77441468655e-10
1.70897239502e-11
-3.1062381245e-10
-7.01185407049e-10
5.91079046237e-12
-3.19337540513e-10
-7.16096847731e-10
-6.12290137693e-12
-3.22406534885e-10
-7.21490062819e-10
-1.72750827638e-11
-3.19241968764e-10
-7.16101824052e-10
-2.60038464086e-11
-3.10440145629e-10
-7.01195861812e-10
-3.10595704963e-11
-2.96473515111e-10
-6.77458310138e-10
-3.155976023e-11
-2.779565277e-10
-6.45643553929e-10
-2.70237632488e-11
-2.55861704719e-10
-6.0699134855e-10
-1.71119272304e-11
-2.31667698588e-10
-5.63051507935e-10
-2.08454564839e-10
-5.15193602236e-10
-7.14361898745e-14
3.90117646149e-11
-4.54261263511e-10
-1.58848834108e-09
-9.50102777791e-13
6.28937047536e-11
-4.98767844252e-10
-1.74603833488e-09
7.38290594133e-11
-5.44269645499e-10
-1.89175174768e-09
7.26328439731e-11
-5.85259472497e-10
-2.02054699828e-09
6.05457458696e-11
-6.19134987979e-10
-2.12699537439e-09
3.97951444119e-11
-6.44350137709e-10
-2.2066664372e-09
1.34097877711e-11
-6.60072221799e-10
-2.25672448592e-09
-1.49608915681e-11
-6.65635961776e-10
-2.27471375914e-09
-4.12407085104e-11
-6.59925478205e-10
-2.25673198369e-09
-6.17682213789e-11
-6.44076688912e-10
-2.20668427442e-09
-7.35318126227e-11
-6.18776921492e-10
-2.1270272197e-09
-7.43430061412e-11
-5.84839257468e-10
-2.02059973149e-09
-6.29618175188e-11
-5.43767317234e-10
-1.89183961507e-09
-3.86680862113e-11
-4.98295214663e-10
-1.74619840242e-09
-4.53933455072e-10
-1.58880063649e-09
-3.01681854511e-13
5.03362319085e-11
-6.37239065584e-10
-2.55652596599e-09
-8.39983265944e-13
8.27121618023e-11
-6.92549774344e-10
-2.8176736999e-09
9.78426454464e-11
-7.48034485633e-10
-3.05923720554e-09
9.65528465496e-11
-7.9745686739e-10
-3.27265006091e-09
8.06224504548e-11
-8.3772185935e-10
-3.44896347818e-09
5.3107994145e-11
-8.67340182892e-10
-3.58088195867e-09
1.80919725814e-11
-8.85682077948e-10
-3.66369280907e-09
-1.95634087356e-11
-8.92179533535e-10
-3.69335685857e-09
-5.44773580236e-11
-8.8549501993e-10
-3.66372066122e-09
-8.17893354207e-11
-8.66990375972e-10
-3.58093888309e-09
-9.74447242315e-11
-8.37259123228e-10
-3.44905110396e-09
-9.842004009e-11
-7.96916602099e-10
-3.27277374055e-09
-8.29361955505e-11
-7.47422562519e-10
-3.05941285844e-09
-5.02123992884e-11
-6.91964434388e-10
-2.81794949319e-09
-6.36814946342e-10
-2.55700863473e-09
-4.11031103273e-13
5.48932614623e-11
-7.6298624712e-10
-3.38111195007e-09
-8.07957544899e-13
9.11351435834e-11
-8.22019024946e-10
-3.73488191074e-09
1.08316452486e-10
-8.79664298207e-10
-4.06169156034e-09
1.07050102361e-10
-9.30050044998e-10
-4.35004268027e-09
8.94094774924e-11
-9.70388375e-10
-4.58802284618e-09
5.88868675918e-11
-9.99641031652e-10
-4.76593599371e-09
2.00615606024e-11
-1.01761106682e-09
-4.87748234412e-09
-2.16767661547e-11
-1.02397678217e-09
-4.91731515791e-09
-6.04000901331e-11
-1.01738255536e-09
-4.8775281431e-09
-9.07257150967e-11
-9.99206988019e-10
-4.76602734625e-09
-1.08101143779e-10
-9.69791114526e-10
-4.58815928612e-09
-1.09061462654e-10
-9.29332400691e-10
-4.35022762515e-09
-9.15370743884e-11
-8.78865750106e-10
-4.06194047974e-09
-5.49473642102e-11
-8.21275038013e-10
-3.7352468058e-09
-7.6246889627e-10
-3.38171010051e-09
-5.38706590618e-13
5.4881520923e-11
-8.35429671744e-10
-4.06845223989e-09
-7.77581043334e-13
9.18244071117e-11
-8.92893923235e-10
-4.50474124641e-09
1.09539996746e-10
-9.47034548113e-10
-4.90706479751e-09
1.08394402181e-10
-9.93137298539e-10
-5.26150938946e-09
9.05396545893e-11
-1.02921130313e-09