/*--------------------------------*- C++ -*----------------------------------*\
  =========                 |
  \\      /  F ield         | OpenFOAM: The Open Source CFD Toolbox
   \\    /   O peration     | Website:  https://openfoam.org
    \\  /    A nd           | Version:  7
     \\/     M anipulation  |
\*---------------------------------------------------------------------------*/
FoamFile
{
    version     2.0;
    format      ascii;
    class       volScalarField;
    location    "1.76";
    object      p;
}
// * * * * * * * * * * * * * * * * * * * * * * * * * * * * * * * * * * * * * //

dimensions      [0 2 -2 0 0 0 0];

internalField   nonuniform List<scalar> 
22500
(
1.59111623021e-05
1.59062498979e-05
1.59056209649e-05
1.5904277692e-05
1.59034426064e-05
1.59027919698e-05
1.59023931617e-05
1.59022342848e-05
1.59023478592e-05
1.5902703043e-05
1.59033127246e-05
1.5904112813e-05
1.59054284529e-05
1.59060467885e-05
1.59109550168e-05
1.58353878395e-05
1.58265463018e-05
1.58226132409e-05
1.58183847252e-05
1.58152184186e-05
1.58128563571e-05
1.58114137e-05
1.58109059053e-05
1.5811367844e-05
1.58127662594e-05
1.58150869689e-05
1.58182175915e-05
1.58224185006e-05
1.5826340266e-05
1.58351764116e-05
1.57611933226e-05
1.57486078465e-05
1.57417995791e-05
1.57349777511e-05
1.57297524619e-05
1.5725879258e-05
1.57235179875e-05
1.57227035433e-05
1.57234737338e-05
1.57257923101e-05
1.57296257964e-05
1.57348166856e-05
1.57416119708e-05
1.57484085429e-05
1.5760985829e-05
1.56947042165e-05
1.56789726685e-05
1.56699174747e-05
1.56610938183e-05
1.56542886487e-05
1.56492658711e-05
1.56462086179e-05
1.56451627987e-05
1.56461667479e-05
1.5649183596e-05
1.56541689392e-05
1.56609417242e-05
1.56697400697e-05
1.56787835424e-05
1.56945041514e-05
1.56323829575e-05
1.56139114751e-05
1.56029798726e-05
1.55925442361e-05
1.55844647811e-05
1.55785248209e-05
1.55749144873e-05
1.55736856971e-05
1.55748750943e-05
1.55784474337e-05
1.55843522348e-05
1.5592401305e-05
1.56028129535e-05
1.56137330443e-05
1.56321920111e-05
1.55735379739e-05
1.55527397827e-05
1.55402529878e-05
1.55285452187e-05
1.55194553054e-05
1.55127965727e-05
1.55087539541e-05
1.55073827663e-05
1.55087171526e-05
1.55127242443e-05
1.55193501496e-05
1.55284116382e-05
1.55400969597e-05
1.55525721342e-05
1.5573356346e-05
1.55185027448e-05
1.54958169703e-05
1.54820748657e-05
1.54694091688e-05
1.54595507846e-05
1.54523525723e-05
1.54479862123e-05
1.54465088132e-05
1.54479519473e-05
1.5452285221e-05
1.54594528548e-05
1.54692846954e-05
1.54819293598e-05
1.54956599903e-05
1.55183301342e-05
1.54672944555e-05
1.54431369643e-05
1.54283911452e-05
1.54150351858e-05
1.54046125187e-05
1.53970239156e-05
1.53924238624e-05
1.53908701762e-05
1.53923920306e-05
1.53969613508e-05
1.54045214866e-05
1.54149193817e-05
1.54282556279e-05
1.54429899491e-05
1.54671302117e-05
1.54197036066e-05
1.53944555683e-05
1.53789173581e-05
1.53650966795e-05
1.53542814363e-05
1.53464258435e-05
1.53416665241e-05
1.53400612321e-05
1.53416369527e-05
1.53463676997e-05
1.53541967818e-05
1.53649887968e-05
1.53787909513e-05
1.5394317453e-05
1.54195468344e-05
1.53754842278e-05
1.53494993958e-05
1.53333616869e-05
1.53192738577e-05
1.53082174134e-05
1.53002015687e-05
1.52953474752e-05
1.52937119438e-05
1.52953199481e-05
1.5300147415e-05
1.53081384783e-05
1.53191730731e-05
1.53332433289e-05
1.53493689832e-05
1.53753336083e-05
1.53343988766e-05
1.53080153698e-05
1.52914739891e-05
1.52772992021e-05
1.52661396284e-05
1.52580592769e-05
1.52531683939e-05
1.52515219196e-05
1.52531426693e-05
1.52580086366e-05
1.52660656957e-05
1.52772045465e-05
1.52913625085e-05
1.53078913265e-05
1.53342530013e-05
1.52962073058e-05
1.52697880893e-05
1.52530671502e-05
1.52389705589e-05
1.52278314598e-05
1.52197715385e-05
1.52148960319e-05
1.52132559997e-05
1.52148718707e-05
1.52197238747e-05
1.52277617344e-05
1.52388809788e-05
1.52529612229e-05
1.52696689245e-05
1.52960648788e-05
1.52606004485e-05
1.52346686716e-05
1.52180485689e-05
1.52041662891e-05
1.51931474991e-05
1.51851802709e-05
1.51803660821e-05
1.51787484885e-05
1.51803431788e-05
1.51851350985e-05
1.51930811342e-05
1.52040806189e-05
1.52179466677e-05
1.52345526496e-05
1.52604596743e-05
1.52274400862e-05
1.52026383498e-05
1.51863342841e-05
1.51727539384e-05
1.51619426477e-05
1.51541484737e-05
1.51494509907e-05
1.51478746814e-05
1.51494291358e-05
1.51541052217e-05
1.51618787618e-05
1.51726708e-05
1.51862346601e-05
1.5202523391e-05
1.52272994529e-05
1.5198498477e-05
1.5173198315e-05
1.51574153495e-05
1.51441584957e-05
1.51337078192e-05
1.51262377557e-05
1.51217561812e-05
1.51202556936e-05
1.512173511e-05
1.51261959738e-05
1.51336457234e-05
1.51440768269e-05
1.51573157333e-05
1.51730818055e-05
1.51983590766e-05
7.36948748225e-06
7.37201405356e-06
7.37399501506e-06
7.37589792332e-06
7.37755333468e-06
7.37882899045e-06
7.37964189403e-06
7.37992693624e-06
7.37966304926e-06
7.37886915757e-06
7.37760782529e-06
7.37596112515e-06
7.37406444145e-06
7.37208738277e-06
7.36956397126e-06
7.37908014433e-06
7.38203976846e-06
7.38443874086e-06
7.38672138798e-06
7.38870339211e-06
7.3902273747e-06
7.39119646115e-06
7.39153514663e-06
7.3912173194e-06
7.39026689421e-06
7.38875690022e-06
7.3867830843e-06
7.38450551553e-06
7.38211092166e-06
7.37915450895e-06
7.39203609921e-06
7.39604517353e-06
7.39931816134e-06
7.40241681229e-06
7.40509601957e-06
7.40714903531e-06
7.40844946181e-06
7.40890105918e-06
7.40847006605e-06
7.40718823407e-06
7.4051495948e-06
7.40247939466e-06
7.39938598226e-06
7.39611805518e-06
7.39211143107e-06
7.40922797365e-06
7.41501317733e-06
7.41968615856e-06
7.42406381159e-06
7.42782073311e-06
7.43068475974e-06
7.43248946883e-06
7.43311211963e-06
7.43250968525e-06
7.43072342937e-06
7.42787418479e-06
7.42412723823e-06
7.4197553866e-06
7.41508773434e-06
7.40930431801e-06
7.43132894895e-06
7.43946420916e-06
7.44590961763e-06
7.45187232177e-06
7.45694335447e-06
7.4607858625e-06
7.46319411381e-06
7.46402063098e-06
7.46321379241e-06
7.46082362255e-06
7.45699597041e-06
7.45193544946e-06
7.44597914797e-06
7.43953923595e-06
7.43140546439e-06
7.45782948978e-06
7.46864900649e-06
7.47703382258e-06
7.48469468353e-06
7.49115075699e-06
7.49601272831e-06
7.49904447626e-06
7.50008062753e-06
7.49906331793e-06
7.4960489942e-06
7.49120164683e-06
7.48475633388e-06
7.47710229316e-06
7.46872344148e-06
7.45790459895e-06
7.48773275919e-06
7.50133759334e-06
7.51165216133e-06
7.52096274124e-06
7.52874119756e-06
7.53456412571e-06
7.5381779308e-06
7.53940876379e-06
7.53819572345e-06
7.53459846922e-06
7.52878963931e-06
7.52102189238e-06
7.51171829495e-06
7.50141013398e-06
7.48780540448e-06
7.51996778902e-06
7.53625808648e-06
7.54836031805e-06
7.55915469135e-06
7.56809980452e-06
7.57475810556e-06
7.57887210788e-06
7.58026917277e-06
7.57888865799e-06
7.57479012687e-06
7.5681451944e-06
7.55921051345e-06
7.54842323732e-06
7.53632753051e-06
7.52003726716e-06
7.55353668641e-06
7.57225641493e-06
7.58591643163e-06
7.59795474564e-06
7.60785604979e-06
7.61518667051e-06
7.61969734789e-06
7.62122513207e-06
7.61971256244e-06
7.61521615922e-06
7.60789802116e-06
7.59800664245e-06
7.58597537905e-06
7.57232191986e-06
7.55360198466e-06
7.58757161472e-06
7.60835578004e-06
7.62329249107e-06
7.6362982082e-06
7.64692157089e-06
7.65474708502e-06
7.65954346924e-06
7.66116417408e-06
7.65955730617e-06
7.65477395048e-06
7.64695994581e-06
7.63634591801e-06
7.62334708289e-06
7.60841684697e-06
7.58763227554e-06
7.62135628849e-06
7.643769876e-06
7.65967710874e-06
7.67336561444e-06
7.68447539058e-06
7.69261973907e-06
7.69759273263e-06
7.6992694025e-06
7.69760524409e-06
7.69264407823e-06
7.68451025438e-06
7.6734091197e-06
7.65972720725e-06
7.64382625844e-06
7.62141181201e-06
7.65430433446e-06
7.67787512167e-06
7.69444570923e-06
7.7085493682e-06
7.71992518688e-06
7.72822398398e-06
7.73327217686e-06
7.73497045497e-06
7.73328350836e-06
7.72824603207e-06
7.71995687882e-06
7.70858901025e-06
7.69449157206e-06
7.6779268436e-06
7.65435476933e-06
7.68591900564e-06
7.71019927563e-06
7.72715658624e-06
7.74143746517e-06
7.75287727021e-06
7.76117783105e-06
7.76620689225e-06
7.76789507511e-06
7.7662172179e-06
7.76119804971e-06
7.75290632845e-06
7.74147392172e-06
7.72719880559e-06
7.71024685158e-06
7.6859646645e-06
7.71610844798e-06
7.74074876924e-06
7.75772831795e-06
7.77190671299e-06
7.7831617933e-06
7.79127729798e-06
7.796174178e-06
7.79781428852e-06
7.79618375927e-06
7.79129604821e-06
7.78318887972e-06
7.77194064786e-06
7.75776776547e-06
7.7407927142e-06
7.71614994183e-06
7.74653358519e-06
7.76957479799e-06
7.786059214e-06
7.79979796936e-06
7.81054549064e-06
7.81823953774e-06
7.82286367102e-06
7.82440948723e-06
7.82287257436e-06
7.81825713366e-06
7.81057101788e-06
7.79983019861e-06
7.78609647265e-06
7.76961586898e-06
7.74657275408e-06
9.12432868895e-06
9.1238248448e-06
9.12295853235e-06
9.12198120798e-06
9.1210411328e-06
9.12027821254e-06
9.11978126166e-06
9.11960809259e-06
9.11978052761e-06
9.12027762604e-06
9.12104222888e-06
9.1219846268e-06
9.12295870196e-06
9.12382359009e-06
9.12432078443e-06
9.12572355771e-06
9.12528402115e-06
9.12447660456e-06
9.12355471298e-06
9.12265610965e-06
9.12192149678e-06
9.12144046833e-06
9.12127225732e-06
9.12143938515e-06
9.12192015441e-06
9.12265601812e-06
9.12355646076e-06
9.12447569635e-06
9.12528079828e-06
9.12571445222e-06
9.12751243885e-06
9.12716034832e-06
9.12642703801e-06
9.12557666759e-06
9.12473260513e-06
9.12403718173e-06
9.12357942378e-06
9.12341900713e-06
9.12357856374e-06
9.12403615796e-06
9.12473266411e-06
9.12557823716e-06
9.12642657133e-06
9.12715733686e-06
9.12750374218e-06
9.12880150166e-06
9.12851712736e-06
9.1278342226e-06
9.12704074599e-06
9.12624271391e-06
9.12558246666e-06
9.1251467497e-06
9.12499400055e-06
9.12514625667e-06
9.12558201103e-06
9.12624317675e-06
9.12704242989e-06
9.12783439842e-06
9.12851511634e-06
9.12879317799e-06
9.12977038126e-06
9.12958121215e-06
9.12896594017e-06
9.12825417392e-06
9.12752798982e-06
9.12692486398e-06
9.12652588691e-06
9.12638590957e-06
9.12652565171e-06
9.12692482355e-06
9.12752879451e-06
9.12825599526e-06
9.12896649107e-06
9.12958004148e-06
9.12976246975e-06
9.13072861709e-06
9.13070113992e-06
9.13020081692e-06
9.12962185079e-06
9.12901401043e-06
9.12850449351e-06
9.12816560637e-06
9.12804639872e-06
9.12816558454e-06
9.12850477365e-06
9.12901503253e-06
9.12962369805e-06
9.13020165569e-06
9.13070030301e-06
9.13072131894e-06
9.13188322038e-06
9.13209648601e-06
9.13176683266e-06
9.13137464595e-06
9.13093257632e-06
9.13055272134e-06
9.13029650579e-06
9.13020572938e-06
9.13029660559e-06
9.13055317567e-06
9.1309336744e-06
9.13137638441e-06
9.13176773753e-06
9.13209578414e-06
9.13187616163e-06
9.13336021737e-06
9.13388761274e-06
9.13377826081e-06
9.13361591196e-06
9.13337627789e-06
9.13315294242e-06
9.1329958543e-06
9.13293902806e-06
9.13299599022e-06
9.13315340767e-06
9.13337722725e-06
9.13361726619e-06
9.13377884862e-06
9.1338867083e-06
9.1333529283e-06
9.13522323814e-06
9.13611851724e-06
9.13626471815e-06
9.13635732484e-06
9.13634064389e-06
9.13628789905e-06
9.13623813852e-06
9.13621794108e-06
9.13623822486e-06
9.13628821042e-06
9.136341253e-06
9.13635807471e-06
9.13626463926e-06
9.13611701991e-06
9.13521543188e-06
9.13748291351e-06
9.13877095565e-06
9.1391896983e-06
9.13954266947e-06
9.13975221885e-06
9.13987097733e-06
9.13992849744e-06
9.13994480022e-06
9.13992844751e-06
9.13987098041e-06
9.13975226765e-06
9.13954255425e-06
9.13918862014e-06
9.13876843696e-06
9.13747423778e-06
9.14010811843e-06
9.14178094099e-06
9.1424703708e-06
9.14307158329e-06
9.14349562877e-06
9.14377578349e-06
9.1439337023e-06
9.14398410402e-06
9.14393346295e-06
9.14377538227e-06
9.14349500961e-06
9.14307047076e-06
9.1424681301e-06
9.14177718819e-06
9.14009830932e-06
9.14303075019e-06
9.14505040382e-06
9.14599386183e-06
9.14681945548e-06
9.14743587339e-06
9.14785976638e-06
9.14810677121e-06
9.1481873183e-06
9.1481063231e-06
9.14785890981e-06
9.14743452114e-06
9.14681731584e-06
9.14599039542e-06
9.1450453983e-06
9.14301986067e-06
9.14614885355e-06
9.1484673433e-06
9.14964168051e-06
9.15065976338e-06
9.15143873279e-06
9.1519838309e-06
9.15230572076e-06
9.15241173118e-06
9.15230505636e-06
9.15198254064e-06
9.15143672339e-06
9.1506566712e-06
9.14963710477e-06
9.14846112978e-06
9.14613686585e-06
9.14947794504e-06
9.15204655095e-06
9.15336801194e-06
9.15451453689e-06
9.15540188615e-06
9.1560297371e-06
9.15640390129e-06
9.15652761834e-06
9.15640302983e-06
9.15602810261e-06
9.15539928325e-06
9.15451068418e-06
9.15336253473e-06
9.15203927174e-06
9.14946521889e-06
9.15371521329e-06
9.15571235994e-06
9.15702462637e-06
9.15820751069e-06
9.15912950263e-06
9.15979032006e-06
9.16018706678e-06
9.16031878379e-06
9.1601860156e-06
9.15978827798e-06
9.15912640881e-06
9.15820298362e-06
9.15701828948e-06
9.15570389275e-06
9.15370205933e-06
6.5116812084e-06
6.51213128726e-06
6.51272640298e-06
6.51334479369e-06
6.51390999879e-06
6.51435971513e-06
6.51464956932e-06
6.51475236629e-06
6.51465762231e-06
6.51437458683e-06
6.51392896043e-06
6.51336327002e-06
6.51274153039e-06
6.51213906641e-06
6.51168708707e-06
6.51232906584e-06
6.51279239242e-06
6.51340579555e-06
6.51404219381e-06
6.51462686893e-06
6.51509363261e-06
6.5153952398e-06
6.51550235402e-06
6.51540355541e-06
6.51510897507e-06
6.5146463684e-06
6.51406114711e-06
6.51342061611e-06
6.51280016396e-06
6.51233343563e-06
6.51277837945e-06
6.5132415417e-06
6.51386019703e-06
6.51450060131e-06
6.51509255546e-06
6.51556645501e-06
6.51587324259e-06
6.51598211722e-06
6.51588110262e-06
6.51558095873e-06
6.51511101544e-06
6.51451884168e-06
6.5138744296e-06
6.51324993898e-06
6.5127826128e-06
6.51318268425e-06
6.51364844105e-06
6.51427463104e-06
6.51491742684e-06
6.51551348346e-06
6.51599138526e-06
6.51630101681e-06
6.51641071242e-06
6.51630820117e-06
6.5160046317e-06
6.51553035188e-06
6.51493428146e-06
6.51428798753e-06
6.51365673894e-06
6.51318686212e-06
6.51359076138e-06
6.51406181378e-06
6.51469948939e-06
6.51534543543e-06
6.51594513778e-06
6.51642641929e-06
6.51673829098e-06
6.51684859489e-06
6.51674481852e-06
6.5164384405e-06
6.51596050049e-06
6.51536087483e-06
6.51471200788e-06
6.51406973191e-06
6.5135948191e-06
6.51400189286e-06
6.51448293597e-06
6.51513903771e-06
6.51579221628e-06
6.51639870885e-06
6.51688546505e-06
6.51720081748e-06
6.51731207171e-06
6.5172065917e-06
6.51689609521e-06
6.51641229023e-06
6.51580595351e-06
6.51515025077e-06
6.51449050809e-06
6.51400521359e-06
6.5144319717e-06
6.51493567005e-06
6.51562085614e-06
6.51629039613e-06
6.51691095983e-06
6.51740850206e-06
6.517730529e-06
6.51784378635e-06
6.51773553666e-06
6.51741772934e-06
6.5169227567e-06
6.51630241613e-06
6.51563068265e-06
6.51494270805e-06
6.5144346781e-06
6.51491193127e-06
6.51545793149e-06
6.51618553973e-06
6.51688356144e-06
6.51752731269e-06
6.51804206623e-06
6.5183745045e-06
6.51849099193e-06
6.51837871715e-06
6.51804982436e-06
6.51753725858e-06
6.51689376175e-06
6.51619402305e-06
6.51546423752e-06
6.51491427607e-06
6.51547281144e-06
6.51608377502e-06
6.51686671545e-06
6.51760414051e-06
6.51827866464e-06
6.51881548843e-06
6.51916099409e-06
6.51928155146e-06
6.5191644623e-06
6.51882187601e-06
6.51828688542e-06
6.51761262884e-06
6.51687390986e-06
6.51608935122e-06
6.51547461546e-06
6.51613669449e-06
6.51683489521e-06
6.51768209114e-06
6.51846542986e-06
6.51917398296e-06
6.51973406913e-06
6.52009290292e-06
6.52021753012e-06
6.52009568528e-06
6.51973920543e-06
6.51918061395e-06
6.51847236435e-06
6.51768810943e-06
6.51683983116e-06
6.5161380032e-06
6.51691521448e-06
6.51771846798e-06
6.5186324269e-06
6.51946174315e-06
6.52020172232e-06
6.52078175966e-06
6.52115127611e-06
6.52127903773e-06
6.52115348451e-06
6.52078583721e-06
6.52020701879e-06
6.51946731129e-06
6.51863737101e-06
6.51772268385e-06
6.51691586304e-06
6.51780415722e-06
6.51872475993e-06
6.5197023623e-06
6.52057180868e-06
6.52133551067e-06
6.52192815192e-06
6.52230330573e-06
6.52243238265e-06
6.52230506519e-06
6.52193140722e-06
6.52133973318e-06
6.52057629712e-06
6.51970638519e-06
6.51872823253e-06
6.51780402061e-06
6.51878210196e-06
6.51983327353e-06
6.52086906168e-06
6.52176776886e-06
6.52254334402e-06
6.52313859947e-06
6.52351255217e-06
6.5236407207e-06
6.52351399148e-06
6.52314124381e-06
6.52254683497e-06
6.52177143149e-06
6.52087236711e-06
6.51983604071e-06
6.51878121022e-06
6.51991478553e-06
6.52110873526e-06
6.52215561057e-06
6.52304833732e-06
6.52380743407e-06
6.52438405086e-06
6.52474396203e-06
6.52486668089e-06
6.52474516993e-06
6.5243863691e-06
6.5238104227e-06
6.52305152024e-06
6.52215841909e-06
6.52111084003e-06
6.51991302816e-06
6.52184163063e-06
6.52273099772e-06
6.52363149497e-06
6.52441241584e-06
6.52507741413e-06
6.52558107527e-06
6.52589429931e-06
6.52600096938e-06
6.52589541177e-06
6.52558315575e-06
6.5250802119e-06
6.52441535983e-06
6.52363401514e-06
6.52273253586e-06
6.52183970806e-06
6.04009080042e-06
6.03994554251e-06
6.03977081893e-06
6.03955261651e-06
6.03934745494e-06
6.0391779225e-06
6.03906526996e-06
6.03902399563e-06
6.03906027644e-06
6.03916922064e-06
6.03933737633e-06
6.03954124124e-06
6.03975545045e-06
6.03992900344e-06
6.04006715854e-06
6.04057442942e-06
6.04044878052e-06
6.04028954788e-06
6.04008439711e-06
6.03988896595e-06
6.03972567806e-06
6.03961653524e-06
6.03957635951e-06
6.03961143598e-06
6.03971672445e-06
6.03987839924e-06
6.04007258492e-06
6.04027400513e-06
6.04043109843e-06
6.04055019039e-06
6.04115036871e-06
6.04104394299e-06
6.04090415867e-06
6.04071306411e-06
6.04052789581e-06
6.04037106729e-06
6.04026566634e-06
6.04022677732e-06
6.04026070967e-06
6.0403622347e-06
6.04051715567e-06
6.04070095273e-06
6.04088895012e-06
6.04102632626e-06
6.04112683904e-06
6.04159079326e-06
6.04148873085e-06
6.0413589389e-06
6.04117211198e-06
6.04098939082e-06
6.04083322136e-06
6.04072808399e-06
6.04068936121e-06
6.04072335182e-06
6.04082464149e-06
6.04097857299e-06
6.04115983543e-06
6.04134411309e-06
6.04147178723e-06
6.04156794737e-06
6.04190940273e-06
6.04180269011e-06
6.04167696217e-06
6.04148867228e-06
6.04130428058e-06
6.04114618289e-06
6.04103976809e-06
6.04100069828e-06
6.04103526348e-06
6.04113792542e-06
6.04129364406e-06
6.04147650639e-06
6.04166253979e-06
6.04178657098e-06
6.04188724999e-06
6.04214473393e-06
6.0420316508e-06
6.04190877489e-06
6.04171871887e-06
6.04153308654e-06
6.04137388924e-06
6.04126690553e-06
6.04122777342e-06
6.04126267159e-06
6.04136604879e-06
6.04152277443e-06
6.04170682747e-06
6.04189488132e-06
6.04201600554e-06
6.04212362283e-06
6.04232483944e-06
6.04220846267e-06
6.04209243779e-06
6.04190508271e-06
6.041722754e-06
6.04156657082e-06
6.04146177413e-06
6.04142355679e-06
6.04145782783e-06
6.04155921088e-06
6.04171292855e-06
6.04189362756e-06
6.04207918593e-06
6.04219338214e-06
6.04230456622e-06
6.04247672869e-06
6.04236600585e-06
6.04226532599e-06
6.04208940521e-06
6.04191852299e-06
6.04177214457e-06
6.04167398345e-06
6.04163823127e-06
6.04167033756e-06
6.04176529295e-06
6.0419092248e-06
6.04207838794e-06
6.04225257268e-06
6.04235141208e-06
6.04245698004e-06
6.04262916145e-06
6.04253837645e-06
6.04246467427e-06
6.04231200788e-06
6.04216314969e-06
6.04203511134e-06
6.04194905921e-06
6.04191765854e-06
6.04194570234e-06
6.04202875098e-06
6.04215439555e-06
6.04230144916e-06
6.04245233409e-06
6.04252417165e-06
6.04260988433e-06
6.04281036369e-06
6.04275713763e-06
6.04272310488e-06
6.04260644946e-06
6.04249063527e-06
6.04238960825e-06
6.04232119599e-06
6.04229601465e-06
6.04231808986e-06
6.04238368186e-06
6.04248233572e-06
6.04259623454e-06
6.04271100523e-06
6.042743081e-06
6.04279143214e-06
6.04304410976e-06
6.04304645411e-06
6.04306342893e-06
6.04299408524e-06
6.04292086396e-06
6.04285430354e-06
6.04280817234e-06
6.04279080462e-06
6.0428052772e-06
6.04284872797e-06
6.04291295342e-06
6.0429841313e-06
6.04305150002e-06
6.04303245518e-06
6.04302542993e-06
6.04334395674e-06
6.04341815992e-06
6.04349452946e-06
6.04348077089e-06
6.0434572245e-06
6.0434304698e-06
6.04341004933e-06
6.04340157068e-06
6.04340731321e-06
6.04342516837e-06
6.04344955423e-06
6.04347099865e-06
6.04348266758e-06
6.04340424417e-06
6.04332560708e-06
6.04371321711e-06
6.04387331994e-06
6.0440131198e-06
6.04405879129e-06
6.04408860923e-06
6.0441049344e-06
6.04411204804e-06
6.0441132336e-06
6.04410943098e-06
6.044099767e-06
6.04408115449e-06
6.04404905628e-06
6.04400129188e-06
6.04385941681e-06
6.04369517765e-06
6.04420863643e-06
6.04446121514e-06
6.04463704326e-06
6.04472772592e-06
6.04480271186e-06
6.04485636756e-06
6.04488801529e-06
6.04489754872e-06
6.04488542852e-06
6.04485136683e-06
6.04479527455e-06
6.04471808494e-06
6.04462515186e-06
6.0444472954e-06
6.04419102947e-06
6.0451949446e-06
6.04526718657e-06
6.04538379952e-06
6.0454645854e-06
6.04554656014e-06
6.0456109666e-06
6.04565073489e-06
6.04566338696e-06
6.04564819702e-06
6.04560592933e-06
6.0455391782e-06
6.04545479612e-06
6.04537173086e-06
6.04525277794e-06
6.0451775117e-06
4.76077978701e-06
4.76088561786e-06
4.76102376302e-06
4.7611643923e-06
4.76129333602e-06
4.76139570112e-06
4.76146259257e-06
4.76148781354e-06
4.76146883775e-06
4.76140724808e-06
4.76130830253e-06
4.76118029648e-06
4.76103880831e-06
4.76089658379e-06
4.76079074737e-06
4.76112504645e-06
4.76124091814e-06
4.76139055158e-06
4.76154092998e-06
4.76167909214e-06
4.7617889747e-06
4.7618608666e-06
4.76188793119e-06
4.76186739406e-06
4.76180104128e-06
4.76169468583e-06
4.76155738293e-06
4.76140568799e-06
4.76125219599e-06
4.76113490363e-06
4.76144302534e-06
4.76156710772e-06
4.76172695912e-06
4.76188483342e-06
4.76203026158e-06
4.76214568065e-06
4.76222106102e-06
4.76224918651e-06
4.76222719883e-06
4.76215703201e-06
4.76204496885e-06
4.76190056553e-06
4.76174146758e-06
4.76157884996e-06
4.76145271014e-06
4.76172126176e-06
4.7618534334e-06
4.7620227405e-06
4.76218694224e-06
4.76233811949e-06
4.76245779528e-06
4.7625357547e-06
4.76256456088e-06
4.76254134767e-06
4.76246814817e-06
4.76235156669e-06
4.76220145093e-06
4.76203634049e-06
4.76186487883e-06
4.76173090795e-06
4.76198158794e-06
4.76212193837e-06
4.76230098455e-06
4.76247118573e-06
4.76262752878e-06
4.76275098316e-06
4.76283115195e-06
4.76286053406e-06
4.76283623509e-06
4.76276039703e-06
4.76263982533e-06
4.7624845493e-06
4.76231381507e-06
4.76213292517e-06
4.76199107596e-06
4.76223084768e-06
4.76237925329e-06
4.76256912334e-06
4.76274502491e-06
4.76290623986e-06
4.76303316026e-06
4.7631153361e-06
4.76314520319e-06
4.763119897e-06
4.76304162095e-06
4.76291732555e-06
4.76275713978e-06
4.76258085426e-06
4.7623898395e-06
4.76223961966e-06
4.76247113025e-06
4.76262915436e-06
4.76283076207e-06
4.76301278144e-06
4.76317909691e-06
4.76330960962e-06
4.76339384062e-06
4.76342420821e-06
4.76339788658e-06
4.76331714057e-06
4.76318901477e-06
4.76302372797e-06
4.76284144727e-06
4.76263925332e-06
4.76247930926e-06
4.76270697445e-06
4.76287762985e-06
4.76309240516e-06
4.76328173749e-06
4.76345388105e-06
4.76358854548e-06
4.76367514915e-06
4.76370613901e-06
4.7636786979e-06
4.76359516903e-06
4.76346266107e-06
4.76329152274e-06
4.76310212127e-06
4.76288709324e-06
4.76271481482e-06
4.76294507211e-06
4.76313217863e-06
4.76336227888e-06
4.76356063817e-06
4.76373982694e-06
4.76387957375e-06
4.76396911587e-06
4.76400093578e-06
4.76397221393e-06
4.7638853752e-06
4.76374759291e-06
4.7635694057e-06
4.76337117575e-06
4.76314110189e-06
4.7629524374e-06
4.76319250272e-06
4.76340139163e-06
4.76364921013e-06
4.76385840945e-06
4.76404590939e-06
4.76419164549e-06
4.76428470945e-06
4.76431755481e-06
4.76428740262e-06
4.7641967239e-06
4.76405276019e-06
4.7638662851e-06
4.7636573956e-06
4.76340987168e-06
4.76319949379e-06
4.7634572774e-06
4.76369401567e-06
4.76396129393e-06
4.76418257313e-06
4.76437906686e-06
4.76453135021e-06
4.76462822677e-06
4.76466224007e-06
4.7646305914e-06
4.7645358234e-06
4.76438518245e-06
4.76418969073e-06
4.76396887552e-06
4.76370203167e-06
4.76346377224e-06
4.76374472962e-06
4.76401583335e-06
4.76430346524e-06
4.76453715397e-06
4.7647427651e-06
4.7649015252e-06
4.76500224352e-06
4.76503738947e-06
4.7650043425e-06
4.76490554408e-06
4.76474825562e-06
4.76454368399e-06
4.76431051797e-06
4.76402336065e-06
4.76375063997e-06
4.76405775159e-06
4.76437028611e-06
4.764677927e-06
4.76492312999e-06
4.76513708352e-06
4.76530204879e-06
4.76540616501e-06
4.76544245679e-06
4.76540808932e-06
4.76530566156e-06
4.76514218004e-06
4.76492912984e-06
4.76468454676e-06
4.7643773152e-06
4.76406309785e-06
4.76444846336e-06
4.76480681916e-06
4.76511202282e-06
4.7653551485e-06
4.76556860591e-06
4.7657329623e-06
4.76583664089e-06
4.76587252981e-06
4.7658383879e-06
4.76573639826e-06
4.76557330661e-06
4.76536086465e-06
4.76511822523e-06
4.76481332195e-06
4.76445304804e-06
4.76524602607e-06
4.76545246416e-06
4.76566955442e-06
4.76585653393e-06
4.76602907154e-06
4.76616369055e-06
4.76624871909e-06
4.76627831668e-06
4.76625040663e-06
4.76616689946e-06
4.76603361631e-06
4.76586193964e-06
4.76567545796e-06
4.76545835394e-06
4.76525031064e-06
3.89799892342e-06
3.8979946983e-06
3.89799738127e-06
3.89798660348e-06
3.89797255278e-06
3.89795767883e-06
3.89794673085e-06
3.89794205916e-06
3.89794478642e-06
3.89795413477e-06
3.89796802703e-06
3.89798251503e-06
3.89799498158e-06
3.89799489761e-06
3.89799397797e-06
3.89827376301e-06
3.89827964517e-06
3.89829057227e-06
3.89828703416e-06
3.89827883173e-06
3.89826820849e-06
3.89825977587e-06
3.89825592173e-06
3.89825775635e-06
3.89826451407e-06
3.89827415769e-06
3.89828280295e-06
3.89828810307e-06
3.89827928285e-06
3.89826875102e-06
3.89855741496e-06
3.89857155468e-06
3.89858978669e-06
3.89859177249e-06
3.89858813846e-06
3.89858082105e-06
3.89857437246e-06
3.89857119558e-06
3.89857241626e-06
3.89857727834e-06
3.898583732e-06
3.89858780572e-06
3.89858753842e-06
3.89857077232e-06
3.89855266486e-06
3.89878177456e-06
3.89879848465e-06
3.89882094492e-06
3.8988245649e-06
3.89882245308e-06
3.89881616879e-06
3.8988103011e-06
3.898807353e-06
3.89880848741e-06
3.89881294273e-06
3.89881857394e-06
3.89882120366e-06
3.89881908925e-06
3.89879790431e-06
3.89877718275e-06
3.89896037394e-06
3.89897650061e-06
3.8990013242e-06
3.8990044666e-06
3.89900211936e-06
3.89899555102e-06
3.89898948051e-06
3.8989865193e-06
3.89898786586e-06
3.89899272306e-06
3.89899882555e-06
3.89900176674e-06
3.89899991577e-06
3.89897633748e-06
3.89895610507e-06
3.89910624094e-06
3.89912107215e-06
3.89914723596e-06
3.89914919458e-06
3.89914604409e-06
3.89913885052e-06
3.89913240428e-06
3.89912939879e-06
3.89913104855e-06
3.89913652657e-06
3.89914346485e-06
3.89914728242e-06
3.89914641995e-06
3.89912111166e-06
3.89910262922e-06
3.89922760538e-06
3.89924120977e-06
3.8992691944e-06
3.89927049996e-06
3.89926695262e-06
3.89925953916e-06
3.89925301469e-06
3.89925009066e-06
3.89925194371e-06
3.89925775279e-06
3.89926508646e-06
3.89926932547e-06
3.89926899635e-06
3.89924149688e-06
3.89922446755e-06
3.8993321366e-06
3.89934626178e-06
3.89937774869e-06
3.89937989572e-06
3.89937729555e-06
3.89937081977e-06
3.89936499811e-06
3.89936243285e-06
3.89936422085e-06
3.89936957698e-06
3.89937611722e-06
3.89937936506e-06
3.89937798289e-06
3.89934671174e-06
3.89932914023e-06
3.89942792812e-06
3.89944623611e-06
3.89948380254e-06
3.89948927005e-06
3.89948977041e-06
3.89948597342e-06
3.89948199001e-06
3.89948016405e-06
3.89948147467e-06
3.89948519756e-06
3.89948914798e-06
3.89948921529e-06
3.89948427787e-06
3.89944670283e-06
3.89942499944e-06
3.89952367513e-06
3.89955122419e-06
3.89959794349e-06
3.89960970786e-06
3.89961584907e-06
3.89961681405e-06
3.89961601008e-06
3.89961538122e-06
3.89961570337e-06
3.89961639593e-06
3.89961562e-06
3.89960989941e-06
3.89959841374e-06
3.89955144296e-06
3.89952064042e-06
3.89962762033e-06
3.89967025195e-06
3.89972923354e-06
3.89975024022e-06
3.89976461282e-06
3.89977243503e-06
3.89977616965e-06
3.89977717825e-06
3.8997759909e-06
3.8997722311e-06
3.8997645672e-06
3.89975045873e-06
3.89972951677e-06
3.89967008541e-06
3.89962437817e-06
3.89974545961e-06
3.89980952588e-06
3.89988351775e-06
3.89991635037e-06
3.89994137238e-06
3.89995809592e-06
3.89996767593e-06
3.89997075037e-06
3.89996754955e-06
3.89995792844e-06
3.89994131168e-06
3.89991637266e-06
3.89988341328e-06
3.89980892185e-06
3.89974202862e-06
3.8998809712e-06
3.89997285913e-06
3.90006351725e-06
3.90010988997e-06
3.90014782181e-06
3.90017540442e-06
3.90019216167e-06
3.90019771495e-06
3.9001919838e-06
3.90017515856e-06
3.90014753102e-06
3.90010953842e-06
3.90006290056e-06
3.89997170904e-06
3.89987732194e-06
3.90007311582e-06
3.90019668904e-06
3.9002890059e-06
3.90034158822e-06
3.90038865304e-06
3.90042486103e-06
3.90044739606e-06
3.90045495519e-06
3.90044710837e-06
3.90042436324e-06
3.90038799235e-06
3.90034067401e-06
3.9002877132e-06
3.90019484868e-06
3.90006923697e-06
3.90055889514e-06
3.90057001103e-06
3.90060324844e-06
3.90062537282e-06
3.90065534052e-06
3.90068096879e-06
3.90069754636e-06
3.90070309019e-06
3.90069706247e-06
3.90068007455e-06
3.90065407198e-06
3.90062364986e-06
3.90060099303e-06
3.90056706668e-06
3.90055446467e-06
3.00342949683e-06
3.00344478378e-06
3.00346971395e-06
3.00349364282e-06
3.00351650946e-06
3.00353473339e-06
3.00354685464e-06
3.00355216296e-06
3.00355048553e-06
3.00354188659e-06
3.00352690233e-06
3.00350608491e-06
3.00348244835e-06
3.00345458439e-06
3.00343769952e-06
3.00363369708e-06
3.0036553542e-06
3.00368751181e-06
3.00371724211e-06
3.00374519122e-06
3.00376730106e-06
3.0037818924e-06
3.00378809759e-06
3.00378566649e-06
3.00377472959e-06
3.00375596624e-06
3.00373015033e-06
3.00370063211e-06
3.00366583883e-06
3.00364126639e-06
3.00385330265e-06
3.00388212369e-06
3.00392247456e-06
3.00395781034e-06
3.00399056367e-06
3.00401608854e-06
3.00403281116e-06
3.00403970119e-06
3.00403647472e-06
3.00402327991e-06
3.00400091678e-06
3.00397026153e-06
3.00393511874e-06
3.00389293351e-06
3.00386088999e-06
3.00403858401e-06
3.00407263035e-06
3.00411913014e-06
3.00415830647e-06
3.00419412262e-06
3.00422171073e-06
3.00423967612e-06
3.00424692533e-06
3.00424316135e-06
3.0042285319e-06
3.00420388744e-06
3.00417010839e-06
3.00413134641e-06
3.00408347278e-06
3.00404661631e-06
3.00419799022e-06
3.00423562499e-06
3.00428716846e-06