/*--------------------------------*- C++ -*----------------------------------*\
  =========                 |
  \\      /  F ield         | OpenFOAM: The Open Source CFD Toolbox
   \\    /   O peration     | Website:  https://openfoam.org
    \\  /    A nd           | Version:  7
     \\/     M anipulation  |
\*---------------------------------------------------------------------------*/
FoamFile
{
    version     2.0;
    format      ascii;
    class       volVectorField;
    location    "1.76";
    object      U;
}
// * * * * * * * * * * * * * * * * * * * * * * * * * * * * * * * * * * * * * //

dimensions      [0 1 -1 0 0 0 0];

internalField   nonuniform List<vector> 
22500
(
(2.83908281633e-05 3.18935739014e-05 0.000594367913094)
(2.6351779919e-05 3.59021899483e-05 0.000623342359464)
(2.29265751558e-05 3.99335544663e-05 0.000649667451073)
(1.92107563122e-05 4.33014209996e-05 0.000672324499519)
(1.48903996881e-05 4.60670245615e-05 0.000690653168257)
(1.01776450798e-05 4.81094209463e-05 0.000704120275068)
(5.17010294334e-06 4.93641425876e-05 0.000712356418682)
(9.90850513936e-09 4.97880723801e-05 0.000715140686075)
(-5.1507254993e-06 4.93651711363e-05 0.000712356892576)
(-1.01595064174e-05 4.8111291366e-05 0.000704121313249)
(-1.48743643971e-05 4.60692454108e-05 0.000690654786454)
(-1.91976644022e-05 4.33034082018e-05 0.000672326514632)
(-2.29174813488e-05 3.99342861138e-05 0.00064966970623)
(-2.63465413228e-05 3.59017034325e-05 0.000623346773578)
(-2.83894103301e-05 3.18920793357e-05 0.000594391618496)
(8.17775656758e-05 9.20273281597e-05 0.00146656154535)
(7.57827809302e-05 0.000103266840049 0.00152375927827)
(6.61711195547e-05 0.000114438173587 0.00157483543891)
(5.53747473885e-05 0.000123877087143 0.00161819332961)
(4.29357503088e-05 0.000131631977774 0.00165286931773)
(2.93389805889e-05 0.000137364458624 0.00167812731073)
(1.48996636768e-05 0.000140888881469 0.00169348231359)
(2.37640194982e-08 0.000142078925553 0.00169865221511)
(-1.48530905025e-05 0.000140890535019 0.00169348404693)
(-2.92951804654e-05 0.000137367361192 0.00167813095705)
(-4.28966260941e-05 0.000131635099828 0.00165287476914)
(-5.53422744636e-05 0.000123879228608 0.00161819991838)
(-6.61474697608e-05 0.000114437390912 0.00157484249448)
(-7.57678642282e-05 0.000103263474021 0.00152377224088)
(-8.17721724311e-05 9.20217598175e-05 0.00146661672197)
(0.0001201572684 0.000135154917037 0.00211139197095)
(0.000110777463187 0.000150604113723 0.00217987785511)
(9.64546141359e-05 0.000165864773728 0.0022400323311)
(8.04129619512e-05 0.000178698178146 0.00229048330709)
(6.21816065144e-05 0.000189189350813 0.0023304255234)
(4.24005686287e-05 0.000196915827817 0.00235929607431)
(2.15043812464e-05 0.000201654542713 0.00237675237848)
(3.23503107381e-08 0.000203252072389 0.00238260881371)
(-2.14408494454e-05 0.000201655517896 0.00237675477614)
(-4.23404751663e-05 0.000196917305093 0.00235930111521)
(-6.2127296606e-05 0.000189190184912 0.00233043292231)
(-8.03668757882e-05 0.000178697004008 0.00229049193181)
(-9.64194161872e-05 0.000165859765229 0.00224004064673)
(-0.000110753131545 0.000150596123789 0.00217989207456)
(-0.000120145866896 0.000135144671571 0.00211146038837)
(0.000147106569595 0.000165357792009 0.0025907509729)
(0.000134899256175 0.00018283758944 0.0026605186715)
(0.000117014513338 0.000200080392311 0.0027206800542)
(9.71577492472e-05 0.000214441047013 0.00277048054505)
(7.48986049041e-05 0.000226114480782 0.00280948347426)
(5.09523600396e-05 0.000234670038959 0.00283744285385)
(2.5804146124e-05 0.000239900953393 0.00285424951944)
(3.78740267142e-08 0.000241661127635 0.00285986720742)
(-2.5729673768e-05 0.00023990109731 0.00285425162057)
(-5.08816771188e-05 0.000234669846457 0.00283744731261)
(-7.4834285722e-05 0.000226112852483 0.00280948979528)
(-9.71023895689e-05 0.000214436647859 0.00277048710301)
(-0.000116970886282 0.000200071686758 0.0027206840821)
(-0.000134867267102 0.00018282580534 0.00266052453688)
(-0.000147089101307 0.000165343698071 0.00259080890137)
(0.000165583610581 0.000186059597374 0.00294669807075)
(0.000151060105823 0.000204101041474 0.00301187541973)
(0.00013051072724 0.000221947885956 0.00306688179806)
(0.000107935135525 0.000236642106962 0.00311172551719)
(8.2954327764e-05 0.000248516334106 0.00314641646988)
(5.63031258955e-05 0.000257175292622 0.00317105138596)
(2.8473770483e-05 0.000262452395557 0.00318576114576)
(4.11925157943e-08 0.000264224805953 0.00319065806093)
(-2.83927097898e-05 0.000262451815846 0.00318576234562)
(-5.62260161485e-05 0.000257173685701 0.00317105397458)
(-8.2883833269e-05 0.000248512717256 0.00314641967192)
(-0.000107873850653 0.00023663529233 0.00311172706075)
(-0.000130461257301 0.000221936574992 0.00306687725309)
(-0.000151022238649 0.000204086772966 0.00301186595903)
(-0.000165560562987 0.000186042902129 0.00294673053208)
(0.000177212568598 0.000199070589134 0.00320933279985)
(0.000160844121799 0.000216597321165 0.00326670145552)
(0.000138390084667 0.000234056733968 0.00331388149521)
(0.00011400663083 0.000248254617889 0.00335163891719)
(8.73602568482e-05 0.000259656967124 0.00338042379636)
(5.91614287231e-05 0.00026793009186 0.0034006377931)
(2.98786308949e-05 0.000272955909944 0.00341261303658)
(4.29433800374e-08 0.000274640942227 0.00341658115571)
(-2.97940726033e-05 0.000272954782334 0.00341261307694)
(-5.90808483849e-05 0.000267927443521 0.00340063792334)
(-8.72863067097e-05 0.000259651962746 0.00338042286136)
(-0.000113941810016 0.00024824626322 0.00335163378151)
(-0.000138336664993 0.000234043985632 0.00331386569211)
(-0.000160801720256 0.000216581902694 0.00326667274541)
(-0.000177184669451 0.00019905275796 0.00320933451268)
(0.000183266519025 0.000205781693275 0.00340112868792)
(0.000165491152781 0.000222026814822 0.00344925095535)
(0.00014178823083 0.0002383955199 0.0034875808062)
(0.000116357430693 0.000251535069092 0.00351754853191)
(8.89032853199e-05 0.00026202032704 0.00353998401383)
(6.00768823448e-05 0.000269591305874 0.00355552388312)
(3.03015770184e-05 0.000274176434102 0.00356464134041)
(4.36395405407e-08 0.000275711245758 0.00356764560806)
(-3.02156083217e-05 0.000274175017474 0.00356464019022)
(-5.99948356055e-05 0.000269588133617 0.00355552143066)
(-8.88277366747e-05 0.000262014725551 0.00353997860698)
(-0.000116290721243 0.000251526231995 0.0035175359495)
(-0.000141732260735 0.00023838265539 0.00348755232588)
(-0.000165445303903 0.000222011686593 0.00344920153249)
(-0.000183234505141 0.000205764259871 0.00340109984671)
(0.000184900081643 0.000207472474584 0.00353933850251)
(0.000166120808466 0.000221937912636 0.00357797697111)
(0.000141727036037 0.000236751716598 0.00360751103549)
(0.000115867979744 0.000248487717877 0.00362989960918)
(8.82822558435e-05 0.000257793624619 0.00364626401333)
(5.95351523679e-05 0.00026448398698 0.00365739544292)
(2.99916945046e-05 0.000268524723464 0.00366384377826)
(4.3681114736e-08 0.000269875496803 0.00366595302377)
(-2.99056122031e-05 0.000268523313056 0.00366384151042)
(-5.94528861259e-05 0.000264480887948 0.00365739050055)
(-8.8206266299e-05 0.00025778830433 0.00364625413368)
(-0.00011580042461 0.000248479544348 0.00362987930873)
(-0.000141669429191 0.000236740094812 0.00360746932451)
(-0.000166072353923 0.000221924576488 0.00357790715206)
(-0.000184864670804 0.000207456935058 0.00353928227562)
(0.000183104442838 0.000205252679535 0.00363739905021)
(0.000163683203079 0.000217650037071 0.00366709461156)
(0.000139066348365 0.000230623806962 0.00368854976121)
(0.000113273849702 0.000240768369945 0.00370410777472)
(8.60768088191e-05 0.000248764567495 0.00371508738626)
(5.79367118897e-05 0.000254494123658 0.00372235888631)
(2.91535735849e-05 0.000257947444125 0.0037264919693)
(4.3390406232e-08 0.000259100817928 0.00372782904246)
(-2.90680322073e-05 0.000257946351182 0.00372648866478)
(-5.78548526575e-05 0.000254491719425 0.00372235157721)
(-8.60009522902e-05 0.000248760434224 0.00371507311554)
(-0.000113205966134 0.000240762009227 0.00370407970889)
(-0.000139007601174 0.000230614762842 0.00368849484748)
(-0.000163632706064 0.000217639892237 0.00366700598982)
(-0.000183066286075 0.00020524043289 0.00363732021521)
(0.00017869550076 0.000200040511512 0.00370581037405)
(0.000158947903191 0.000210230036846 0.00372756174436)
(0.000134496093374 0.000221201117504 0.00374200772032)
(0.000109162235009 0.000229670253204 0.0037517457072)
(8.27466726942e-05 0.000236313809625 0.00375820801785)
(5.55972604025e-05 0.000241066492785 0.00376228259344)
(2.79477946587e-05 0.000243928442609 0.00376451594402)
(4.30295381995e-08 0.000244884101872 0.00376522277046)
(-2.78629257916e-05 0.000243927960016 0.00376451165167)
(-5.55159145734e-05 0.000241065360687 0.00376227300453)
(-8.26710263572e-05 0.00023631170495 0.00375818946153)
(-0.000109094077337 0.000229666760663 0.00375171003821)
(-0.00013443630699 0.000221195849206 0.00374194022487)
(-0.000158895620707 0.000210224317503 0.00372745708481)
(-0.000178655069132 0.000200032786836 0.00370571488353)
(0.000172332908399 0.000192584712956 0.00375272493516)
(0.000152525482428 0.000200518871448 0.00376774279579)
(0.000128560478796 0.000209400944255 0.0037763786135)
(0.000103996024699 0.000216175726549 0.00378137913399)
(7.86522184215e-05 0.000221479821491 0.00378422272669)
(5.27624309536e-05 0.000225279282002 0.00378576955728)
(2.64985979974e-05 0.000227569201752 0.00378651496378)
(4.28141538546e-08 0.000228334430839 0.00378673073698)
(-2.64140999896e-05 0.000227569576057 0.00378650973828)
(-5.26812688815e-05 0.000225279913353 0.00378575784313)
(-7.85764238956e-05 0.000221480458623 0.00378420023658)
(-0.000103927241403 0.000216175999127 0.00378133661459)
(-0.00012849940367 0.000209400448021 0.00377630024005)
(-0.000152471389035 0.000200518590926 0.00376762650398)
(-0.000172290431944 0.000192582462869 0.00375262046763)
(0.000164539936887 0.000183490252043 0.00378435540937)
(0.000144895513914 0.000189158589565 0.00379387345828)
(0.000121690646824 0.00019590865012 0.00379788001398)
(9.8142591693e-05 0.000201013434442 0.0037991885935)
(7.40760544656e-05 0.000205027942628 0.00379926516382)
(4.96219473298e-05 0.000207920316482 0.00379890704613)
(2.49009329785e-05 0.000209668940019 0.00379854219959)
(4.29202295542e-08 0.000210254368262 0.00379839352516)
(-2.48161446621e-05 0.000209670348916 0.00379853624027)
(-4.95402688045e-05 0.000207923049851 0.00379889375545)
(-7.3999382506e-05 0.000205031825872 0.00379923993931)
(-9.80724721021e-05 0.000201018112168 0.00379914151144)
(-0.000121627718168 0.000195913643628 0.00379779472229)
(-0.000144839329129 0.000189164465289 0.00379375265259)
(-0.000164495357273 0.000183494219634 0.00378425277383)
(0.00015571806033 0.000173210461668 0.00380523202731)
(0.000136452047623 0.000176603634535 0.00381036121035)
(0.000114248883421 0.000181224329739 0.00381083031064)
(9.19019673105e-05 0.00018472450493 0.00380942819278)
(6.92387176576e-05 0.00018752366128 0.00380753463315)
(4.63182583328e-05 0.000189561987064 0.00380584763378)
(2.3224469433e-05 0.000190799929156 0.00380471779562)
(4.3488697123e-08 0.000191215529526 0.00380431964235)
(-2.31384580902e-05 0.000190802428914 0.00380471168466)
(-4.62350813398e-05 0.000189566943502 0.0038058342561)
(-6.91601339692e-05 0.000187530973867 0.00380750972425)
(-9.18295019099e-05 0.000184733850589 0.00380938201863)
(-0.000114183263594 0.000181235118344 0.00381074647529)
(-0.000136393238729 0.000176615974539 0.00381024730318)
(-0.00015567108761 0.000173220933912 0.00380514552182)
(0.000146236232692 0.000162032974763 0.00381828431569)
(0.000127615311772 0.000163186803644 0.003819917012)
(0.000106570287519 0.000165726621021 0.00381788158682)
(8.55068617505e-05 0.000167745469043 0.00381474663698)
(6.42908573803e-05 0.000169410492038 0.00381168256188)
(4.2940856476e-05 0.000170637018999 0.00380924098933)
(2.15112875003e-05 0.000171384078402 0.00380768763897)
(4.45930702503e-08 0.00017163561885 0.00380715326065)
(-2.14229521309e-05 0.000171387569339 0.00380768257769)
(-4.2855026129e-05 0.000170644002854 0.00380923049093)
(-6.42091462313e-05 0.000169420935214 0.00381166390123)
(-8.54308404154e-05 0.000167759137255 0.00381471209878)
(-0.000106500954913 0.000165742929215 0.00381781568156)
(-0.000127553198151 0.000163205345305 0.00381982884242)
(-0.000146186326438 0.000162049631128 0.00381823107165)
(0.000136667869563 0.000150305560877 0.00382463231892)
(0.000118916301703 0.00014839675593 0.00382354765007)
(9.88313645844e-05 0.000149344479711 0.00382018264262)
(7.90424132833e-05 0.000150096084919 0.00381642896944)
(5.92683138712e-05 0.000150750698625 0.00381309491418)
(3.95078235448e-05 0.000151233651302 0.0038105408288)
(1.9769945111e-05 0.000151527290058 0.00380894445752)
(4.62303809964e-08 0.0001516268979 0.0038083997238)
(-1.96782118485e-05 0.00015153145243 0.00380894176273)
(-3.94182293548e-05 0.000151242012227 0.00381053652571)
(-5.9182284374e-05 0.000150763290261 0.00381308934422)
(-7.89615218965e-05 0.000150112839689 0.00381641967164)
(-9.87570840273e-05 0.000149364934018 0.00382015743998)
(-0.000118850259463 0.000148420494213 0.00382352638186)
(-0.000136614115101 0.000150327681414 0.00382460817082)
(8.84227215251e-07 1.50459562651e-06 0.000363150195939)
(4.6189502503e-07 1.98202264182e-06 0.000380619582047)
(2.62256245095e-07 2.24168119233e-06 0.000396183496125)
(9.02970191126e-08 2.41934641571e-06 0.000409516056954)
(-1.55440987053e-08 2.52184649281e-06 0.000420292938955)
(-5.46553998141e-08 2.57296747264e-06 0.000428214761418)
(-4.29137412603e-08 2.59400209876e-06 0.000433065064638)
(-1.8338928231e-09 2.59928811885e-06 0.000434709541476)
(3.96897042373e-08 2.59359772466e-06 0.000433065627322)
(5.27286524525e-08 2.57226197642e-06 0.000428216067267)
(1.53914693574e-08 2.52090674638e-06 0.000420295158243)
(-8.91494513177e-08 2.41814216223e-06 0.000409519102845)
(-2.60832513583e-07 2.24034101551e-06 0.00039618731914)
(-4.60749130169e-07 1.98047053688e-06 0.000380627699658)
(-8.84633283116e-07 1.5033672393e-06 0.000363181609286)
(8.48725410221e-06 1.04756760543e-05 0.00103894997243)
(7.17617170704e-06 1.28239494149e-05 0.00108619653941)
(6.1338656118e-06 1.47429372092e-05 0.00112812593239)
(4.98018186368e-06 1.63506825365e-05 0.00116392067577)
(3.76174646921e-06 1.75981552082e-05 0.00119277947935)
(2.5178384513e-06 1.84839883705e-05 0.00121395857911)
(1.25955331201e-06 1.90130430482e-05 0.00122690940299)
(-1.27232511392e-09 1.91889477229e-05 0.00123128765296)
(-1.26121303899e-06 1.90120886674e-05 0.00122691128042)
(-2.5169608133e-06 1.84821920217e-05 0.0012139627761)
(-3.75747381597e-06 1.7595522023e-05 0.00119278634949)
(-4.97350084585e-06 1.63470942888e-05 0.00116392977493)
(-6.12726353575e-06 1.47386550741e-05 0.00112813691506)
(-7.17111335381e-06 1.28191434185e-05 0.00108621937742)
(-8.48710376327e-06 1.0471587525e-05 0.00103902909634)
(1.95625933932e-05 2.28687831084e-05 0.00166508435314)
(1.71986110496e-05 2.74118429493e-05 0.0017367633498)
(1.49954927286e-05 3.13625879854e-05 0.00179991132506)
(1.24322690917e-05 3.47421543571e-05 0.00185349310648)
(9.57046408085e-06 3.74302741738e-05 0.00189647674937)
(6.50085566834e-06 3.93779086883e-05 0.00192790556618)
(3.28641458428e-06 4.05582731339e-05 0.00194707227117)
(2.27367562337e-09 4.09538200456e-05 0.00195353473212)
(-3.28091950966e-06 4.05570052035e-05 0.00194707510424)
(-6.49267462122e-06 3.93753515258e-05 0.00192791172367)
(-9.55876798084e-06 3.74261955227e-05 0.00189648642071)
(-1.24182264673e-05 3.47362343581e-05 0.00185350518632)
(-1.49822438903e-05 3.13550813578e-05 0.00179992464421)
(-1.71883634738e-05 2.74037557394e-05 0.00173679110193)
(-1.95602092411e-05 2.28619813728e-05 0.00166518958123)
(3.20167434659e-05 3.64236260712e-05 0.00223389315535)
(2.84372640937e-05 4.30674017479e-05 0.00232318389804)
(2.49022969784e-05 4.89093575792e-05 0.0024009658231)
(2.07291411417e-05 5.39343956813e-05 0.00246635997913)
(1.60175586199e-05 5.795337503e-05 0.00251842307274)
(1.09111445016e-05 6.08764755307e-05 0.00255627365498)
(5.52797621975e-06 6.26529485032e-05 0.00257926369987)
(7.09963616775e-09 6.32490269012e-05 0.00258699260544)
(-5.51297613539e-06 6.26515414898e-05 0.00257926627864)
(-1.08939164081e-05 6.08735344206e-05 0.00255627912593)
(-1.59975477447e-05 5.79484987941e-05 0.00251843110467)
(-2.07076088544e-05 5.3927138622e-05 0.00246636848486)
(-2.4882497245e-05 4.88998313896e-05 0.00240097225812)
(-2.84217599158e-05 4.30572570257e-05 0.00232320160511)
(-3.20111519123e-05 3.64151236768e-05 0.00223399511133)
(4.43222207482e-05 4.95226495549e-05 0.00273783007387)
(3.94322752673e-05 5.79359811961e-05 0.00283725590938)
(3.45271235631e-05 6.52635795333e-05 0.00292257232544)
(2.87264582071e-05 7.15679960167e-05 0.00299343226696)
(2.21920435628e-05 7.6606446868e-05 0.0030492884364)
(1.51144278189e-05 8.02672617189e-05 0.0030895927298)
(7.65818066209e-06 8.24905755681e-05 0.00311394587526)
(1.2113019516e-08 8.32362199721e-05 0.00312210604677)
(-7.63338955473e-06 8.2489185807e-05 0.00311394689618)
(-1.50881180938e-05 8.0264288044e-05 0.00308959477265)
(-2.21640214718e-05 7.66014018409e-05 0.00304929034217)
(-2.86980365611e-05 7.15603560882e-05 0.00299343062034)
(-3.45013572848e-05 6.52532757788e-05 0.0029225626046)
(-3.94116470687e-05 5.79249125655e-05 0.0028372498899)
(-4.4312728265e-05 4.95134011144e-05 0.00273790544628)
(5.5548628729e-05 6.12347141604e-05 0.00317295521965)
(4.93260223932e-05 7.0972596886e-05 0.00327540601922)
(4.31004520257e-05 7.9273651355e-05 0.00336168133201)
(3.57731010425e-05 8.63972884559e-05 0.00343225555242)
(2.75833812642e-05 9.2067554117e-05 0.00348720616371)
(1.87593291873e-05 9.61733857069e-05 0.00352649085369)
(9.4976940899e-06 9.86612407446e-05 0.00355007711516)
(1.66972755734e-08 9.94945578357e-05 0.0035579506155)
(-9.46398965486e-06 9.86600099845e-05 0.00355007564379)
(-1.87248536669e-05 9.61706834402e-05 0.00352648743817)
(-2.75482816987e-05 9.20628563335e-05 0.00348719857039)
(-3.5738673051e-05 8.63900168148e-05 0.00343223869183)
(-4.30694163512e-05 7.92635847819e-05 0.00336164817756)
(-4.93004834291e-05 7.09616438648e-05 0.00327536620671)
(-5.55347891403e-05 6.1225520983e-05 0.00317298971218)
(6.51186379044e-05 7.10188819929e-05 0.00353951850479)
(5.76125940284e-05 8.15936080519e-05 0.00363900580277)
(5.01817883058e-05 9.03406595719e-05 0.00372088567006)
(4.15100477876e-05 9.78134457511e-05 0.00378662950607)
(3.19190680162e-05 0.000103724470514 0.00383705767239)
(2.16631050901e-05 0.00010798353356 0.00387270482544)
(1.09548001609e-05 0.000110555779417 0.00389394311098)
(2.05748355136e-08 0.000111415930823 0.00390100188853)
(-1.09135699405e-05 0.000110554827968 0.00389393860306)
(-2.1621759311e-05 0.00010798137176 0.00387269476614)
(-3.18780234828e-05 0.00010372057014 0.00383703857176)
(-4.14705301268e-05 9.78071992467e-05 0.00378659432418)
(-5.01461171873e-05 9.0331686181e-05 0.00372082457388)
(-5.75824637356e-05 8.15837530349e-05 0.00363892659279)
(-6.51002035766e-05 7.10104632963e-05 0.00353950540035)
(7.27188373791e-05 7.86110033754e-05 0.00384127038716)
(6.4042902043e-05 8.954339811e-05 0.00393330581879)
(5.55709940129e-05 9.82549709184e-05 0.00400696781489)
(4.57904058581e-05 0.000105652114989 0.00406477722281)
(3.50985549802e-05 0.00011145643501 0.00410830816958)
(2.376427528e-05 0.000115613345968 0.00413865441747)
(1.20005829645e-05 0.00011811405282 0.00415656424687)
(2.37108834504e-08 0.000118948719256 0.00416248554165)
(-1.19532627634e-05 0.000118113500998 0.00415655656179)
(-2.37173526216e-05 0.000115611987048 0.00413863737029)
(-3.50526306441e-05 0.000111453753188 0.0041082769194)
(-4.57466078048e-05 0.00010564749103 0.00406472263818)
(-5.55312150159e-05 9.82478743025e-05 0.00400687724968)
(-6.40085088446e-05 8.95355139811e-05 0.0039331861863)
(-7.2695876787e-05 7.86041757955e-05 0.0038412093679)
(7.82422802368e-05 8.39562346741e-05 0.0040843753552)
(6.85602921857e-05 9.48084519352e-05 0.00416603669067)
(5.92441737427e-05 0.000103083279342 0.00422919280643)
(4.86191750393e-05 0.000110054586105 0.00427735724199)
(3.71422131824e-05 0.000115472162265 0.00431278325342)
(2.50854739969e-05 0.000119325254929 0.00433704187594)
(1.26493011782e-05 0.000121633177718 0.00435118547481)
(2.62042127619e-08 0.000122402026239 0.00435583026756)
(-1.25971212104e-05 0.000121633133021 0.00435117480564)
(-2.50340439079e-05 0.000119324927504 0.00433701823382)
(-3.70922384569e-05 0.000115471069679 0.00431274047616)
(-4.85716802859e-05 0.00011005210273 0.00427728416316)
(-5.92006862756e-05 0.000103078756738 0.00422907427337)
(-6.85219304356e-05 9.48033166304e-05 0.00416588009819)
(-7.82150417414e-05 8.39517996295e-05 0.00408427173373)
(8.17326554297e-05 8.71469460929e-05 0.0042763307906)
(7.12417084763e-05 9.7539289605e-05 0.00434611227836)
(6.12957059352e-05 0.00010506770783 0.0043978153129)
(5.00996699685e-05 0.000111346292122 0.00443580567952)
(3.81466630953e-05 0.000116170615426 0.00446288266211)
(2.57013111073e-05 0.000119575698608 0.00448097494274)
(1.29415404748e-05 0.000121606188236 0.00449134573405)
(2.8220127379e-08 0.000122281417733 0.00449471964101)
(-1.28854047628e-05 0.00012160673032 0.00449133260469)
(-2.56461303675e-05 0.000119576569394 0.00448094585623)
(-3.80931889717e-05 0.000116171380097 0.00446283033833)
(-5.00488347448e-05 0.000111346332711 0.00443571721214)
(-6.12487633273e-05 0.000105066289316 0.00439767361607)
(-7.11996585297e-05 9.75375421632e-05 0.00434592680766)
(-8.17014440882e-05 8.7145602901e-05 0.00427619530817)
(8.33335346253e-05 8.83694892364e-05 0.00442504247228)
(7.22473537224e-05 9.79845344108e-05 0.00448258124928)
(6.18903660354e-05 0.000104542738492 0.00452293654631)
(5.03908520859e-05 0.000109939994873 0.00455112816618)
(3.82499554669e-05 0.000114033303515 0.0045703319271)
(2.57136191151e-05 0.000116899482003 0.00458269638415)
(1.29313110847e-05 0.000118601418162 0.00458959732425)
(2.99276850151e-08 0.000119166615816 0.0045918087747)
(-1.28717937198e-05 0.000118602569234 0.00458958270278)
(-2.56551399829e-05 0.000116901607137 0.00458266402522)
(-3.81932675053e-05 0.000114036026177 0.00457027386996)
(-5.03368297721e-05 0.000109942735003 0.00455103031777)
(-6.18401036422e-05 0.000104544710657 0.00452278059176)
(-7.2201855545e-05 9.79865969714e-05 0.00448238024517)
(-8.32986937157e-05 8.83717358554e-05 0.00442489193897)
(8.32419042456e-05 8.78584024328e-05 0.0045380841112)
(7.17775463463e-05 9.64347413561e-05 0.00458383713005)
(6.12264309272e-05 0.000101868438351 0.00461370167047)
(4.96768160971e-05 0.000106263268889 0.00463310787602)
(3.76073578417e-05 0.000109548176715 0.0046454126263)
(2.52343663677e-05 0.000111831057984 0.00465283844196)
(1.26771511372e-05 0.00011318205782 0.0046567785771)
(3.14653108238e-08 0.000113630414614 0.00465800379997)
(-1.26145598658e-05 0.000113183774888 0.00465676411862)
(-2.51728138656e-05 0.000111834344296 0.00465280653832)
(-3.75475777405e-05 0.000109552742735 0.0046453553915)
(-4.96196542846e-05 0.000106268590712 0.00463301087693)
(-6.11729248371e-05 0.000101873748621 0.004613545942)
(-7.17288250434e-05 9.64406648484e-05 0.0045836402378)
(-8.32037326465e-05 8.78644497995e-05 0.00453794255751)
(8.16611255937e-05 8.58447749031e-05 0.00462210132871)
(7.004088591e-05 9.31684714777e-05 0.00465704151735)
(5.95175032951e-05 9.73819320785e-05 0.0046777781951)
(4.81534801657e-05 0.000100712218488 0.00468984555508)
(3.6379877554e-05 0.000103165983066 0.00469656069811)
(2.43768581979e-05 0.000104861797627 0.00470006910834)
(1.22373151768e-05 0.000105863480854 0.00470169180038)
(3.29237148522e-08 0.000106196032107 0.00470215092369)
(-1.21718051595e-05 0.000105865636032 0.00470168013572)
(-2.43123491999e-05 0.000104866004316 0.00470004356834)
(-3.63170787392e-05 0.000103172031676 0.00469651467758)
(-4.80932494206e-05 0.000100719698409 0.00468976561947)
(-5.94608907839e-05 9.73901386514e-05 0.00467764495877)
(-6.99892149571e-05 9.31779019131e-05 0.00465687571816)
(-8.1619976368e-05 8.58544188633e-05 0.00462199876394)
(7.88038520886e-05 8.25457089329e-05 0.00468228508484)
(6.72821038603e-05 8.85542081733e-05 0.00470773332623)
(5.70211440795e-05 9.14484687238e-05 0.00472107556292)
(4.60386768038e-05 9.36903255966e-05 0.00472756028229)
(3.47352397089e-05 9.53233337289e-05 0.00473023120739)
(2.32533542518e-05 9.64485726821e-05 0.00473100430646)
(1.16677947055e-05 9.71125740813e-05 0.00473104509369)
(3.43288097748e-08 9.73332321973e-05 0.00473098831319)
(-1.15994657159e-05 9.71149672005e-05 0.00473103988854)
(-2.31860097382e-05 9.64532929507e-05 0.00473099332737)
(-3.46695720095e-05 9.53302548167e-05 0.00473021093591)
(-4.59755826398e-05 9.36991775216e-05 0.00472752081242)
(-5.6961727036e-05 9.14587443768e-05 0.00472099791961)
(-6.72278660277e-05 8.8566338057e-05 0.00470763517488)
(-7.87600160126e-05 8.2558357516e-05 0.00468225370193)
(7.47641764039e-05 7.93563615559e-05 0.00472185873532)
(6.37886837077e-05 8.31451963118e-05 0.00473977184485)
(5.39752422851e-05 8.45354942919e-05 0.00474773717117)
(4.35112518534e-05 8.56366903924e-05 0.0047506296741)
(3.2802122346e-05 8.64088537878e-05 0.00475097056745)
(2.1945701115e-05 8.69329781705e-05 0.00475030002677)
(1.10082867126e-05 8.72387603123e-05 0.00474955574714)
(3.56626318825e-08 8.73401108757e-05 0.00474925279162)
(-1.09373127557e-05 8.72410352522e-05 0.00474956053871)
(-2.18757517672e-05 8.69375054106e-05 0.00475031145856)
(-3.27339053805e-05 8.64156005022e-05 0.00475099015455)
(-4.34456778124e-05 8.56455751201e-05 0.00475065527844)
(-5.39134658248e-05 8.4546256021e-05 0.00474775348205)
(-6.37326742435e-05 8.31585479571e-05 0.00473980378035)
(-7.47178489665e-05 7.9370391048e-05 0.00472189993627)
(-1.07426505793e-07 -2.56842922943e-07 0.000246560203891)
(1.88490505145e-08 -3.92629671242e-07 0.000258276016003)
(1.27696134858e-07 -4.74831445304e-07 0.000268530970495)
(1.86679361305e-07 -5.06179543791e-07 0.000277244940836)
(1.97660810381e-07 -5.05228926923e-07 0.000284250794822)
(1.61857541793e-07 -4.89520269618e-07 0.000289387384259)
(9.12175009557e-08 -4.7378872229e-07 0.000292530143439)
(1.03066028985e-09 -4.67457914722e-07 0.000293597622628)
(-8.92848414294e-08 -4.73933722522e-07 0.000292531987704)
(-1.60246673191e-07 -4.89758739634e-07 0.000289390818362)
(-1.96258471393e-07 -5.05391335176e-07 0.000284255365865)
(-1.84670061964e-07 -5.05916804447e-07 0.000277250354484)
(-1.25062687942e-07 -4.74438772121e-07 0.000268537859919)
(-1.61792945372e-08 -3.91696648109e-07 0.00025828834798)
(1.09472593341e-07 -2.55898442112e-07 0.000246595113259)
(8.68945799713e-07 6.68415262456e-07 0.000748201235768)
(1.08573414395e-06 6.2932717159e-07 0.000783599473519)
(1.23697247744e-06 7.10495507519e-07 0.000814687638198)
(1.23561143512e-06 8.88911182458e-07 0.000841106669232)
(1.09025821642e-06 1.10356460342e-06 0.000862350505598)
(8.11077072202e-07 1.30096511181e-06 0.000877931274859)
(4.33787360413e-07 1.43764788152e-06 0.000887463004012)
(2.8357594905e-09 1.48635330093e-06 0.000890690080361)
(-4.28315824675e-07 1.43709406678e-06 0.000887467812355)
(-8.0607022765e-07 1.30002690781e-06 0.0008779401688)
(-1.08538258864e-06 1.1026737263e-06 0.000862362204353)
(-1.22945240858e-06 8.8880957451e-07 0.00084112031758)
(-1.2293416665e-06 7.10776452877e-07 0.000814705033016)
(-1.07805863552e-06 6.30983434865e-07 0.000783632374483)
(-8.63283040719e-07 6.70374194246e-07 0.000748290320272)
(3.1527797815e-06 3.12949483053e-06 0.00125058758407)
(3.3188007642e-06 3.54785077094e-06 0.00130919278246)
(3.34085055515e-06 4.12070386443e-06 0.00136063219231)
(3.0911220687e-06 4.78612337241e-06 0.00140427350373)
(2.59074068843e-06 5.4314340309e-06 0.00143931425907)
(1.86578893775e-06 5.96493949684e-06 0.00146498593402)
(9.78795702571e-07 6.3145797734e-06 0.00148067500304)
(4.83782618961e-09 6.43611446111e-06 0.00148597495444)
(-9.69278068938e-07 6.31352623753e-06 0.00148068141719)
(-1.85659505008e-06 5.96310850166e-06 0.00146499767771)
(-2.58143318813e-06 5.4294748598e-06 0.00143932934786)
(-3.08027959443e-06 4.78496605486e-06 0.00140429043194)
(-3.32833863385e-06 4.12016372584e-06 0.00136065314748)
(-3.30631380858e-06 3.54909110054e-06 0.00130923486681)
(-3.14375755318e-06 3.13185263001e-06 0.00125070942881)
(6.82484976371e-06 7.16954740674e-06 0.00174592166434)
(6.81730736424e-06 8.36259994939e-06 0.00182586464192)
(6.54705739326e-06 9.7145496024e-06 0.00189573466218)
(5.8569022654e-06 1.11088266725e-05 0.00195475870776)
(4.78858013251e-06 1.23732130946e-05 0.00200197359028)
(3.3919057425e-06 1.33767325502e-05 0.00203646341288)
(1.76137175894e-06 1.40191933413e-05 0.00205749499528)
(7.0989059167e-09 1.42401136381e-05 0.00206458369373)
(-1.74727777322e-06 1.40178499361e-05 0.0020575010478)
(-3.37798070471e-06 1.33743635529e-05 0.00203647416468)
(-4.77439429035e-06 1.23705355596e-05 0.00200198645645)
(-5.84128729859e-06 1.11068219e-05 0.00195477137804)
(-6.53005245997e-06 9.7133462627e-06 0.00189574882837)
(-6.80054895854e-06 8.36350765595e-06 0.00182590010049)
(-6.81267236634e-06 7.17242065826e-06 0.00174604862907)
(1.15419901662e-05 1.23569563577e-05 0.00222454312251)
(1.12527122335e-05 1.44910278648e-05 0.00232237687041)
(1.05562450326e-05 1.67529653844e-05 0.00240718441591)
(9.27363006471e-06 1.8973162172e-05 0.00247830422455)
(7.47687679313e-06 2.09219388735e-05 0.00253483871618)
(5.24531882128e-06 2.24356348847e-05 0.00257593419204)
(2.70764064338e-06 2.33922058843e-05 0.00260090555386)
(9.69073803896e-09 2.371914436e-05 0.00260930028175)
(-2.68834213311e-06 2.33908011696e-05 0.00260090932899)
(-5.22614202019e-06 2.24331304597e-05 0.00257594015307)
(-7.4574798629e-06 2.0919010651e-05 0.00253484367417)
(-9.25316270323e-06 1.89707641257e-05 0.00247830483492)
(-1.05349424546e-05 1.67514798032e-05 0.00240718107489)
(-1.12321049253e-05 1.44919828336e-05 0.00232239036631)
(-1.15267170318e-05 1.23604102162e-05 0.00222465201711)
(1.68940827719e-05 1.82051909662e-05 0.00267650915896)
(1.62313629434e-05 2.13002533498e-05 0.00278747424599)
(1.50078877018e-05 2.44520819929e-05 0.00288250258189)
(1.30292746044e-05 2.74577706944e-05 0.0029613667584)
(1.0406850002e-05 3.00410187364e-05 0.00302350615022)