/*--------------------------------*- C++ -*----------------------------------*\
  =========                 |
  \\      /  F ield         | OpenFOAM: The Open Source CFD Toolbox
   \\    /   O peration     | Website:  https://openfoam.org
    \\  /    A nd           | Version:  7
     \\/     M anipulation  |
\*---------------------------------------------------------------------------*/
FoamFile
{
    version     2.0;
    format      ascii;
    class       volScalarField;
    location    "0.88";
    object      p;
}
// * * * * * * * * * * * * * * * * * * * * * * * * * * * * * * * * * * * * * //

dimensions      [0 2 -2 0 0 0 0];

internalField   nonuniform List<scalar> 
22500
(
1.47919782878e-06
1.47908706773e-06
1.47883744041e-06
1.47861670031e-06
1.47841841901e-06
1.47826955232e-06
1.4781774311e-06
1.47814731501e-06
1.47817987884e-06
1.47827444747e-06
1.4784258155e-06
1.47862660611e-06
1.47885023692e-06
1.47910223394e-06
1.47922042773e-06
1.47950427802e-06
1.47942643972e-06
1.47919390109e-06
1.47898382426e-06
1.47879041474e-06
1.47864296861e-06
1.47855087811e-06
1.47852066906e-06
1.4785537058e-06
1.47864862002e-06
1.47879892772e-06
1.47899520252e-06
1.47920847924e-06
1.47944361531e-06
1.47952877897e-06
1.47988493024e-06
1.47984526782e-06
1.47963579307e-06
1.47944376971e-06
1.47926092681e-06
1.47911947553e-06
1.47903027052e-06
1.47900095572e-06
1.47903341995e-06
1.47912576646e-06
1.47927038186e-06
1.47945637277e-06
1.47965185601e-06
1.47986398105e-06
1.47991106423e-06
1.48032910754e-06
1.48032883696e-06
1.48014762282e-06
1.47997819722e-06
1.4798106978e-06
1.47967909176e-06
1.47959532904e-06
1.47956780612e-06
1.47959877785e-06
1.47968597781e-06
1.47982102404e-06
1.47999191362e-06
1.48016499922e-06
1.48034886322e-06
1.48035670702e-06
1.4808501429e-06
1.4808916784e-06
1.48074444175e-06
1.48060166077e-06
1.48045379887e-06
1.48033540283e-06
1.48025930354e-06
1.48023435428e-06
1.4802630657e-06
1.48034290991e-06
1.48046503103e-06
1.48061652802e-06
1.48076313795e-06
1.48091304801e-06
1.48087929045e-06
1.48144608572e-06
1.48153188713e-06
1.48142387116e-06
1.48131132209e-06
1.48118686955e-06
1.48108467766e-06
1.48101822348e-06
1.48099654609e-06
1.48102231506e-06
1.48109283889e-06
1.48119905442e-06
1.48132740151e-06
1.48144393267e-06
1.4815546951e-06
1.48147693785e-06
1.48211079661e-06
1.48224279441e-06
1.48217846512e-06
1.48209923274e-06
1.48200150828e-06
1.48191826121e-06
1.48186328689e-06
1.48184553562e-06
1.48186773112e-06
1.48192712077e-06
1.48201470873e-06
1.48211660202e-06
1.48219996945e-06
1.48226715078e-06
1.48214350166e-06
1.4828382579e-06
1.48301756058e-06
1.48300047528e-06
1.48295710744e-06
1.4828890279e-06
1.48282727619e-06
1.48278551856e-06
1.4827723215e-06
1.4827903442e-06
1.48283688772e-06
1.48290332086e-06
1.48297586322e-06
1.48302352711e-06
1.48304362292e-06
1.4828729768e-06
1.48362147028e-06
1.48384789563e-06
1.48388045268e-06
1.48387497141e-06
1.48383914087e-06
1.48380132949e-06
1.48377448748e-06
1.48376646342e-06
1.48377972298e-06
1.48381174791e-06
1.48385460839e-06
1.48389522816e-06
1.48390519271e-06
1.48387587046e-06
1.48365841649e-06
1.48445090371e-06
1.48472233876e-06
1.48480558816e-06
1.48483965671e-06
1.48483859967e-06
1.48482725488e-06
1.48481709631e-06
1.48481488853e-06
1.48482276899e-06
1.4848385365e-06
1.48485533463e-06
1.48486154817e-06
1.48483219982e-06
1.4847524888e-06
1.48449036744e-06
1.48531335638e-06
1.48562500918e-06
1.48575856105e-06
1.48583386418e-06
1.48587045276e-06
1.48588845433e-06
1.48589696748e-06
1.48590128548e-06
1.48590310071e-06
1.48590065203e-06
1.48588854877e-06
1.48585754038e-06
1.48578726533e-06
1.48565765401e-06
1.48535574716e-06
1.48619411255e-06
1.48653563654e-06
1.48671677157e-06
1.48683545799e-06
1.48691337151e-06
1.48696415991e-06
1.48699360366e-06
1.48700523798e-06
1.4870002099e-06
1.48697731e-06
1.48693290592e-06
1.48686106102e-06
1.48674780449e-06
1.48657111701e-06
1.4862398826e-06
1.48707743558e-06
1.48742357648e-06
1.48764747121e-06
1.48781462703e-06
1.48793959543e-06
1.48802752238e-06
1.48808049125e-06
1.48810027958e-06
1.48808755804e-06
1.48804160531e-06
1.48796057435e-06
1.48784223074e-06
1.48768103058e-06
1.48746218033e-06
1.48712682276e-06
1.48786735127e-06
1.48819588635e-06
1.48848831968e-06
1.48872539177e-06
1.48891237703e-06
1.48904667048e-06
1.48912816142e-06
1.48915770737e-06
1.48913563933e-06
1.48906160123e-06
1.48893470245e-06
1.48875495783e-06
1.48852455101e-06
1.4882380656e-06
1.48792012996e-06
1.48808880483e-06
1.48874033564e-06
1.48918396472e-06
1.48954333123e-06
1.48982403302e-06
1.49002414368e-06
1.49014508793e-06
1.49018793871e-06
1.490153049e-06
1.49004006406e-06
1.48984792524e-06
1.48957522789e-06
1.48922368484e-06
1.48878746764e-06
1.48814476837e-06
1.32610435603e-06
1.32611749254e-06
1.32613291891e-06
1.32614794415e-06
1.32616115406e-06
1.32617125427e-06
1.3261775884e-06
1.32617981593e-06
1.32617780719e-06
1.32617172573e-06
1.32616196499e-06
1.32614917484e-06
1.32613449408e-06
1.32611930499e-06
1.32610596482e-06
1.32612367103e-06
1.3261362238e-06
1.32615126561e-06
1.326165989e-06
1.32617900003e-06
1.32618898429e-06
1.3261952672e-06
1.32619748533e-06
1.32619549333e-06
1.32618947348e-06
1.32617983901e-06
1.32616726725e-06
1.32615292248e-06
1.32613809941e-06
1.32612538266e-06
1.32612184473e-06
1.32613208295e-06
1.32614507452e-06
1.32615794512e-06
1.32616946031e-06
1.32617836216e-06
1.3261839978e-06
1.32618599895e-06
1.32618421358e-06
1.32617882446e-06
1.32617023954e-06
1.32615911845e-06
1.32614660611e-06
1.32613382211e-06
1.32612349466e-06
1.32611049492e-06
1.32611819967e-06
1.32612900207e-06
1.32613980795e-06
1.32614962522e-06
1.32615728003e-06
1.32616215871e-06
1.32616390322e-06
1.32616236216e-06
1.32615771043e-06
1.32615033611e-06
1.32614086158e-06
1.32613038435e-06
1.32611979867e-06
1.32611206281e-06
1.3260956103e-06
1.32610099776e-06
1.32610984905e-06
1.32611876558e-06
1.32612701531e-06
1.32613350388e-06
1.32613766735e-06
1.3261391672e-06
1.32613785857e-06
1.3261339048e-06
1.32612766718e-06
1.32611972092e-06
1.32611110201e-06
1.32610247831e-06
1.32609708722e-06
1.32607849018e-06
1.32608198171e-06
1.32608922027e-06
1.32609657519e-06
1.32610351044e-06
1.3261090123e-06
1.32611256517e-06
1.3261138565e-06
1.32611274813e-06
1.32610939171e-06
1.3261041173e-06
1.32609745294e-06
1.32609036926e-06
1.32608335695e-06
1.32607989307e-06
1.32606034189e-06
1.3260626033e-06
1.32606876541e-06
1.32607507996e-06
1.32608111624e-06
1.32608593514e-06
1.32608906056e-06
1.32609020512e-06
1.32608923817e-06
1.32608629826e-06
1.32608168792e-06
1.32607589419e-06
1.32606982961e-06
1.32606388609e-06
1.3260616718e-06
1.32604275938e-06
1.3260447368e-06
1.32605057543e-06
1.32605655386e-06
1.32606226539e-06
1.32606682401e-06
1.32606978111e-06
1.32607086736e-06
1.32606995746e-06
1.32606717861e-06
1.326062813e-06
1.32605731979e-06
1.32605156844e-06
1.32604594824e-06
1.32604400985e-06
1.32602735246e-06
1.32603025499e-06
1.32603668476e-06
1.32604317178e-06
1.32604924498e-06
1.32605404762e-06
1.3260571451e-06
1.32605827772e-06
1.32605732247e-06
1.32605439898e-06
1.32604977728e-06
1.32604390317e-06
1.32603762276e-06
1.32603140868e-06
1.3260285409e-06
1.32601561967e-06
1.32602081466e-06
1.32602884782e-06
1.3260367492e-06
1.32604391252e-06
1.32604949589e-06
1.32605306189e-06
1.32605435285e-06
1.32605324448e-06
1.32604985252e-06
1.32604444215e-06
1.32603745972e-06
1.32602974581e-06
1.3260219228e-06
1.32601675082e-06
1.32600888498e-06
1.32601779292e-06
1.32602845443e-06
1.32603864454e-06
1.32604759529e-06
1.32605446571e-06
1.32605881208e-06
1.32606036576e-06
1.32605900393e-06
1.32605483541e-06
1.32604813355e-06
1.32603934994e-06
1.32602932949e-06
1.326018868e-06
1.32600997642e-06
1.32600822109e-06
1.32602220127e-06
1.32603643835e-06
1.32604966409e-06
1.32606097935e-06
1.32606955663e-06
1.32607493622e-06
1.32607684339e-06
1.32607514141e-06
1.32606994977e-06
1.32606153952e-06
1.32605037989e-06
1.32603730636e-06
1.3260232588e-06
1.32600927396e-06
1.326014093e-06
1.32603454986e-06
1.32605316304e-06
1.32606995452e-06
1.32608401592e-06
1.32609457433e-06
1.32610116859e-06
1.32610348275e-06
1.32610139504e-06
1.32609499976e-06
1.32608461536e-06
1.32607069867e-06
1.32605404339e-06
1.32603560403e-06
1.32601513621e-06
1.32602739968e-06
1.32605533156e-06
1.32607842329e-06
1.3260988663e-06
1.32611575535e-06
1.32612840031e-06
1.32613628277e-06
1.32613905326e-06
1.32613653722e-06
1.32612887982e-06
1.32611642166e-06
1.32609967918e-06
1.32607934092e-06
1.32605639575e-06
1.32602847962e-06
1.32605601475e-06
1.3260851409e-06
1.32611159341e-06
1.32613498943e-06
1.32615422718e-06
1.32616870549e-06
1.32617777918e-06
1.32618096471e-06
1.32617807897e-06
1.32616926561e-06
1.32615500259e-06
1.32613591508e-06
1.32611260644e-06
1.32608621691e-06
1.32605714134e-06
1.32099542275e-06
1.32098562165e-06
1.32097580351e-06
1.32096703972e-06
1.32095948281e-06
1.32095384195e-06
1.32095039201e-06
1.32094929063e-06
1.32095060276e-06
1.32095424481e-06
1.3209600366e-06
1.32096769521e-06
1.32097671575e-06
1.3209865466e-06
1.3209964305e-06
1.32097732363e-06
1.32096739324e-06
1.32095720635e-06
1.32094799965e-06
1.32094005669e-06
1.32093410058e-06
1.32093044933e-06
1.320929285e-06
1.32093069172e-06
1.32093456846e-06
1.3209407069e-06
1.32094878503e-06
1.32095823205e-06
1.32096847345e-06
1.32097846877e-06
1.32097520513e-06
1.32096644968e-06
1.32095714795e-06
1.32094862132e-06
1.32094120297e-06
1.32093560477e-06
1.32093215726e-06
1.32093105648e-06
1.32093239593e-06
1.32093606769e-06
1.32094185314e-06
1.32094941694e-06
1.32095815702e-06
1.32096753044e-06
1.32097637579e-06
1.32097761388e-06
1.32097009185e-06
1.32096174559e-06
1.32095406207e-06
1.32094731997e-06
1.32094220308e-06
1.32093903567e-06
1.32093802226e-06
1.32093926186e-06
1.32094264451e-06
1.32094795006e-06
1.32095484429e-06
1.32096271937e-06
1.32097113096e-06
1.32097880651e-06
1.32098072495e-06
1.32097429654e-06
1.32096680116e-06
1.32095993796e-06
1.32095386425e-06
1.32094923192e-06
1.32094635442e-06
1.32094543431e-06
1.32094657111e-06
1.32094965564e-06
1.32095447303e-06
1.32096070061e-06
1.32096774498e-06
1.32097529561e-06
1.32098193037e-06
1.32098485468e-06
1.32097945026e-06
1.32097279492e-06
1.32096675385e-06
1.32096137152e-06
1.32095725131e-06
1.32095468487e-06
1.32095386646e-06
1.32095489259e-06
1.32095765853e-06
1.32096196024e-06
1.32096749703e-06
1.32097370719e-06
1.3209804266e-06
1.32098605956e-06
1.32099030213e-06
1.32098591728e-06
1.32098009332e-06
1.32097488169e-06
1.32097021057e-06
1.32096662478e-06
1.32096438833e-06
1.32096367914e-06
1.32096458792e-06
1.32096701586e-06
1.32097077741e-06
1.32097560111e-06
1.32098097163e-06
1.32098686561e-06
1.32099151186e-06
1.32099703678e-06
1.32099364668e-06
1.32098863776e-06
1.32098424546e-06
1.32098029206e-06
1.32097725315e-06
1.3209753579e-06
1.3209747628e-06
1.32097555007e-06
1.32097762956e-06
1.32098083943e-06
1.32098494427e-06
1.32098948799e-06
1.32099457117e-06
1.32099825792e-06
1.32100497839e-06
1.32100253196e-06
1.32099831447e-06
1.32099471477e-06
1.32099146879e-06
1.32098897496e-06
1.32098742388e-06
1.32098694488e-06
1.32098760892e-06
1.32098933771e-06
1.32099199693e-06
1.32099539326e-06
1.32099914042e-06
1.32100343708e-06
1.32100621152e-06
1.32101403442e-06
1.32101245679e-06
1.32100899581e-06
1.32100614653e-06
1.32100358585e-06
1.3210016281e-06
1.32100041741e-06
1.3210000547e-06
1.3210005966e-06
1.32100197922e-06
1.32100409867e-06
1.32100680905e-06
1.3210098039e-06
1.3210133513e-06
1.32101528266e-06
1.32102409623e-06
1.32102328694e-06
1.3210205306e-06
1.32101837746e-06
1.32101647138e-06
1.32101503009e-06
1.32101415195e-06
1.32101390185e-06
1.32101432562e-06
1.3210153704e-06
1.32101696916e-06
1.32101902551e-06
1.32102132244e-06
1.32102417304e-06
1.32102536245e-06
1.32103511456e-06
1.32103488744e-06
1.32103274035e-06
1.3210312134e-06
1.32102991682e-06
1.32102896765e-06
1.32102840267e-06
1.32102826297e-06
1.32102857062e-06
1.32102929795e-06
1.32103040134e-06
1.32103184661e-06
1.32103351705e-06
1.321035762e-06
1.32103638601e-06
1.32104724244e-06
1.32104719955e-06
1.32104547826e-06
1.32104447384e-06
1.32104371039e-06
1.32104318364e-06
1.32104289834e-06
1.32104284695e-06
1.32104306159e-06
1.32104350365e-06
1.32104417906e-06
1.32104509101e-06
1.32104623589e-06
1.32104806142e-06
1.32104852133e-06
1.32105961302e-06
1.32105929448e-06
1.32105823269e-06
1.32105783526e-06
1.32105760248e-06
1.32105747388e-06
1.32105742051e-06
1.32105745845e-06
1.32105758003e-06
1.32105778226e-06
1.32105805836e-06
1.32105843325e-06
1.32105896522e-06
1.32106013557e-06
1.32106089406e-06
1.32106120933e-06
1.3210663613e-06
1.32106805914e-06
1.32106977085e-06
1.32107107858e-06
1.32107200189e-06
1.32107257909e-06
1.32107281952e-06
1.32107273599e-06
1.32107230676e-06
1.32107152197e-06
1.32107035251e-06
1.32106877217e-06
1.32106717441e-06
1.3210624169e-06
1.18755462994e-06
1.18756174842e-06
1.18756846439e-06
1.18757446125e-06
1.18757937928e-06
1.18758294462e-06
1.18758509817e-06
1.18758579911e-06
1.18758502366e-06
1.18758282055e-06
1.18757927447e-06
1.18757450961e-06
1.18756872254e-06
1.18756228439e-06
1.18755507818e-06
1.18756378538e-06
1.18757090994e-06
1.1875778092e-06
1.18758406306e-06
1.18758920458e-06
1.18759294491e-06
1.18759520676e-06
1.18759594335e-06
1.18759512249e-06
1.18759280505e-06
1.18758908605e-06
1.18758411059e-06
1.18757811109e-06
1.18757148501e-06
1.1875643524e-06
1.18756007962e-06
1.18756621887e-06
1.1875722327e-06
1.18757780001e-06
1.18758239893e-06
1.18758576899e-06
1.18758781667e-06
1.18758849007e-06
1.18758774931e-06
1.18758565859e-06
1.18758231177e-06
1.18757785624e-06
1.18757253164e-06
1.18756673989e-06
1.18756065032e-06
1.18755422801e-06
1.18755947268e-06
1.18756466487e-06
1.18756951992e-06
1.18757356273e-06
1.18757654876e-06
1.18757837377e-06
1.18757898188e-06
1.18757832834e-06
1.18757647762e-06
1.18757352073e-06
1.18756960323e-06
1.18756496127e-06
1.18755996297e-06
1.18755478806e-06
1.18754909212e-06
1.18755367468e-06
1.18755825006e-06
1.18756252338e-06
1.1875661127e-06
1.18756877712e-06
1.1875704163e-06
1.18757096782e-06
1.18757038719e-06
1.18756873554e-06
1.18756610201e-06
1.18756262592e-06
1.18755853467e-06
1.18755414055e-06
1.18754963504e-06
1.18754420036e-06
1.18754829327e-06
1.18755234478e-06
1.18755613259e-06
1.1875593309e-06
1.18756171884e-06
1.18756319506e-06
1.18756369823e-06
1.18756318161e-06
1.18756170558e-06
1.18755935413e-06
1.18755625888e-06
1.18755263355e-06
1.18754872954e-06
1.18754475167e-06
1.18753926995e-06
1.18754296843e-06
1.18754658895e-06
1.18754996788e-06
1.18755282705e-06
1.18755497162e-06
1.18755630265e-06
1.1875567618e-06
1.18755630152e-06
1.18755497974e-06
1.18755287479e-06
1.18755010822e-06
1.18754687682e-06
1.18754337484e-06
1.18753981637e-06
1.18753427267e-06
1.18753765101e-06
1.18754093707e-06
1.18754397628e-06
1.18754655491e-06
1.18754849486e-06
1.18754970433e-06
1.1875501258e-06
1.18754971423e-06
1.18754852289e-06
1.18754662467e-06
1.18754412994e-06
1.18754121754e-06
1.18753803399e-06
1.18753479639e-06
1.18752917785e-06
1.1875323345e-06
1.18753536832e-06
1.18753814654e-06
1.18754050448e-06
1.18754228003e-06
1.1875433904e-06
1.18754378035e-06
1.18754340803e-06
1.18754232171e-06
1.1875405878e-06
1.18753830557e-06
1.18753563554e-06
1.18753269004e-06
1.18752968349e-06
1.18752396954e-06
1.18752698213e-06
1.1875298397e-06
1.18753243571e-06
1.18753463221e-06
1.18753628721e-06
1.18753732224e-06
1.18753768872e-06
1.18753734617e-06
1.18753633907e-06
1.18753472572e-06
1.18753259489e-06
1.18753009001e-06
1.18752730514e-06
1.18752445129e-06
1.18751860761e-06
1.18752154915e-06
1.18752431181e-06
1.18752680532e-06
1.18752890399e-06
1.18753047835e-06
1.18753146308e-06
1.18753181136e-06
1.18753149053e-06
1.18753053602e-06
1.18752900084e-06
1.18752696126e-06
1.18752454374e-06
1.18752184397e-06
1.18751907145e-06
1.18751303491e-06
1.18751598376e-06
1.18751874648e-06
1.18752122517e-06
1.18752328528e-06
1.18752482474e-06
1.18752577936e-06
1.18752611926e-06
1.18752580833e-06
1.18752488412e-06
1.1875233828e-06
1.1875213728e-06
1.18751895976e-06
1.18751625372e-06
1.18751348237e-06
1.18750697496e-06
1.18751010928e-06
1.18751303447e-06
1.18751561684e-06
1.18751773e-06
1.18751928533e-06
1.18752025338e-06
1.18752058798e-06
1.18752028291e-06
1.18751934613e-06
1.1875178227e-06
1.187515757e-06
1.18751322941e-06
1.18751036021e-06
1.18750741157e-06
1.18750032689e-06
1.18750395132e-06
1.18750712012e-06
1.1875098995e-06
1.187512133e-06
1.18751378148e-06
1.18751479107e-06
1.18751514953e-06
1.18751482287e-06
1.18751383951e-06
1.18751222621e-06
1.18751003081e-06
1.1875072991e-06
1.1875041864e-06
1.1875007736e-06
1.18749855665e-06
1.18750041962e-06
1.18750293386e-06
1.18750513346e-06
1.18750691623e-06
1.18750824731e-06
1.18750908221e-06
1.18750937469e-06
1.18750911305e-06
1.18750830662e-06
1.18750700165e-06
1.18750525327e-06
1.1875030928e-06
1.18750062452e-06
1.18749895765e-06
1.15955558764e-06
1.15954990329e-06
1.15954465807e-06
1.15954014338e-06
1.15953629935e-06
1.15953339606e-06
1.15953164525e-06
1.15953108061e-06
1.15953171322e-06
1.15953349665e-06
1.15953636426e-06
1.15954021183e-06
1.15954488844e-06
1.15955009589e-06
1.15955593322e-06
1.15954799219e-06
1.15954233244e-06
1.1595369848e-06
1.15953228658e-06
1.15952827323e-06
1.1595252459e-06
1.15952341366e-06
1.1595228222e-06
1.15952349408e-06
1.15952537348e-06
1.15952838364e-06
1.15953240572e-06
1.15953725779e-06
1.15954262201e-06
1.15954841054e-06
1.15955115517e-06
1.15954631452e-06
1.1595416584e-06
1.15953746756e-06
1.15953387609e-06
1.15953116136e-06
1.15952951134e-06
1.15952897562e-06
1.15952958416e-06
1.15953128103e-06
1.15953399028e-06
1.15953759224e-06
1.15954189904e-06
1.15954658856e-06
1.15955153769e-06
1.15955604435e-06
1.15955194577e-06
1.15954791539e-06
1.15954423985e-06
1.15954107969e-06
1.15953869122e-06
1.1595372299e-06
1.15953675107e-06
1.15953729098e-06
1.15953879558e-06
1.15954119112e-06
1.1595443608e-06
1.15954811905e-06
1.15955217058e-06
1.1595563921e-06
1.1595602988e-06
1.15955675099e-06
1.15955318281e-06
1.15954992582e-06
1.15954711584e-06
1.15954498891e-06
1.15954368146e-06
1.15954324985e-06
1.15954373349e-06
1.15954507961e-06
1.15954721746e-06
1.15955003507e-06
1.15955335412e-06
1.15955692245e-06
1.15956061099e-06
1.15956431235e-06
1.15956115998e-06
1.15955798456e-06
1.15955507878e-06
1.15955256945e-06
1.15955067012e-06
1.15954949658e-06
1.15954910651e-06
1.15954954015e-06
1.15955074749e-06
1.15955266062e-06
1.15955517529e-06
1.1595581242e-06
1.15956130301e-06
1.15956457479e-06
1.15956833136e-06
1.15956550581e-06
1.15956265223e-06
1.15956004263e-06
1.15955779234e-06
1.1595560884e-06
1.1595550318e-06
1.15955467857e-06
1.15955506795e-06
1.15955615258e-06
1.159557869e-06
1.15956012174e-06
1.15956275691e-06
1.15956561555e-06
1.15956855468e-06
1.15957239172e-06
1.15956982693e-06
1.15956722718e-06
1.15956486361e-06
1.15956283176e-06
1.1595612936e-06
1.15956033689e-06
1.15956001528e-06
1.15956036622e-06
1.15956134556e-06
1.15956289497e-06
1.15956492847e-06
1.15956730698e-06
1.15956990968e-06
1.15957259204e-06
1.15957652551e-06
1.15957415585e-06
1.15957175038e-06
1.15956958111e-06
1.15956772356e-06
1.15956631846e-06
1.1595654439e-06
1.15956514828e-06
1.15956546702e-06
1.15956635932e-06
1.15956777256e-06
1.15956963069e-06
1.15957180912e-06
1.15957421556e-06
1.1595767048e-06
1.15958076757e-06
1.1595785316e-06
1.15957626871e-06
1.15957424131e-06
1.15957251527e-06
1.15957121404e-06
1.15957040313e-06
1.15957012906e-06
1.15957042136e-06
1.15957124536e-06
1.15957255347e-06
1.15957427987e-06
1.15957631428e-06
1.15957857938e-06
1.15958093117e-06
1.15958515542e-06
1.15958300929e-06
1.15958083618e-06
1.15957889464e-06
1.15957725845e-06
1.15957602845e-06
1.15957526569e-06
1.15957500628e-06
1.15957527952e-06
1.15957605206e-06
1.15957728575e-06
1.15957892374e-06
1.15958086948e-06
1.15958304771e-06
1.15958530642e-06
1.15958976799e-06
1.15958765015e-06
1.15958549514e-06
1.15958358051e-06
1.1595819853e-06
1.15958080197e-06
1.1595800666e-06
1.15957982061e-06
1.15958007701e-06
1.15958081874e-06
1.15958200669e-06
1.15958360044e-06
1.15958551918e-06
1.15958767503e-06
1.15958989806e-06
1.15959482521e-06
1.15959260205e-06
1.15959034562e-06
1.15958836093e-06
1.15958675138e-06
1.15958555861e-06
1.15958483563e-06
1.15958458487e-06
1.15958484346e-06
1.15958557432e-06
1.1595867644e-06
1.15958837835e-06
1.15959035984e-06
1.15959261609e-06
1.15959493653e-06
1.15960040185e-06
1.15959785549e-06
1.15959542915e-06
1.15959331536e-06
1.15959161619e-06
1.15959038428e-06
1.1595896225e-06
1.15958937386e-06
1.15958963254e-06
1.15959039513e-06
1.15959163362e-06
1.15959332612e-06
1.15959543923e-06
1.1595978556e-06
1.15960049661e-06
1.15960212874e-06
1.15960102076e-06
1.15959916647e-06
1.15959754699e-06
1.15959625111e-06
1.15959528637e-06
1.15959469654e-06
1.15959449685e-06
1.15959470538e-06
1.1595953021e-06
1.15959626436e-06
1.15959756088e-06
1.15959916851e-06
1.15960100962e-06
1.15960219081e-06
1.04571808616e-06
1.04572277776e-06
1.04572724554e-06
1.0457311765e-06
1.0457343666e-06
1.04573665905e-06
1.04573802161e-06
1.04573844183e-06
1.04573791441e-06
1.04573647048e-06
1.04573416145e-06
1.04573106457e-06
1.04572729956e-06
1.04572310533e-06
1.04571838282e-06
1.04572400032e-06
1.04572873398e-06
1.04573332489e-06
1.04573743057e-06
1.04574077223e-06
1.04574317872e-06
1.04574460852e-06
1.04574504747e-06
1.04574448547e-06
1.04574296212e-06
1.04574053601e-06
1.04573729705e-06
1.04573338855e-06
1.04572906629e-06
1.04572438529e-06
1.04572142832e-06
1.04572552577e-06
1.04572950914e-06
1.04573315915e-06
1.04573614307e-06
1.04573830989e-06
1.04573960459e-06
1.04574000745e-06
1.04573950172e-06
1.04573812977e-06
1.04573594972e-06
1.04573305318e-06
1.04572958804e-06
1.04572581401e-06
1.04572181589e-06
1.04571748961e-06
1.0457209881e-06
1.04572442046e-06
1.04572759822e-06
1.04573022081e-06
1.04573214166e-06
1.04573329768e-06
1.04573366458e-06
1.04573322038e-06
1.04573200805e-06
1.04573008449e-06
1.04572754029e-06
1.04572452143e-06
1.04572126674e-06
1.04571786329e-06
1.04571406135e-06
1.0457171188e-06
1.04572014247e-06
1.04572293381e-06
1.04572526206e-06
1.04572697801e-06
1.04572801984e-06
1.04572835603e-06
1.04572796341e-06
1.04572688291e-06
1.04572517064e-06
1.04572291362e-06
1.04572025244e-06
1.04571739081e-06
1.04571442041e-06
1.04571081786e-06
1.04571356234e-06
1.04571623288e-06
1.04571870931e-06
1.04572078749e-06
1.04572232857e-06
1.04572327022e-06
1.04572357992e-06
1.04572323192e-06
1.04572226677e-06
1.04572073761e-06
1.04571872685e-06
1.04571636644e-06
1.04571382146e-06
1.04571118936e-06
1.04570757951e-06
1.04571006903e-06
1.04571245104e-06
1.04571466113e-06
1.04571652037e-06
1.0457179068e-06
1.04571875901e-06
1.04571904468e-06
1.04571873623e-06
1.04571787264e-06
1.04571650371e-06
1.0457147055e-06
1.04571259954e-06
1.04571031397e-06
1.04570795105e-06
1.0457043197e-06
1.0457065917e-06
1.04570875089e-06
1.04571073936e-06
1.04571241723e-06
1.04571367307e-06
1.04571444955e-06
1.04571471401e-06
1.0457144396e-06
1.04571366231e-06
1.04571242853e-06
1.04571080723e-06
1.04570890856e-06
1.04570682973e-06
1.04570467385e-06
1.04570099873e-06
1.0457031194e-06
1.04570510731e-06
1.04570692103e-06
1.04570845268e-06
1.04570960067e-06
1.04571031426e-06
1.04571056029e-06
1.0457103139e-06
1.04570960735e-06
1.04570848289e-06
1.04570700244e-06
1.04570526455e-06
1.04570334329e-06
1.04570134215e-06
1.04569760055e-06
1.04569961189e-06
1.04570147328e-06
1.04570316001e-06
1.04570458029e-06
1.04570564724e-06
1.04570631066e-06
1.0457065427e-06
1.04570631797e-06
1.04570566657e-06
1.04570462536e-06
1.04570324929e-06
1.04570162604e-06
1.04569981731e-06
1.04569792633e-06
1.04569408036e-06
1.04569602387e-06
1.04569780915e-06
1.04569941551e-06
1.04570076344e-06
1.04570177079e-06
1.04570239887e-06
1.0457026186e-06
1.04570241066e-06
1.04570179838e-06
1.04570081519e-06
1.04569950782e-06
1.04569795342e-06
1.04569621302e-06
1.04569439587e-06
1.0456903884e-06
1.04569230803e-06
1.04569407332e-06
1.04569565468e-06
1.0456969625e-06
1.04569794072e-06
1.04569854275e-06
1.04569875707e-06
1.0456985576e-06
1.04569797137e-06
1.04569702011e-06
1.04569574446e-06
1.04569420882e-06
1.04569248393e-06
1.04569069732e-06
1.0456863344e-06
1.0456883345e-06
1.04569018398e-06
1.04569181057e-06
1.04569314511e-06
1.04569411836e-06
1.0456947275e-06
1.04569493407e-06
1.04569474263e-06
1.04569415543e-06
1.04569320002e-06
1.04569190237e-06
1.04569031061e-06
1.04568850242e-06
1.04568664116e-06
1.04568182698e-06
1.04568410537e-06
1.04568608987e-06
1.04568783601e-06
1.0456892283e-06
1.04569026026e-06
1.04569088564e-06
1.0456911092e-06
1.04569090503e-06
1.04569029377e-06
1.04568929044e-06
1.04568792124e-06
1.04568621349e-06
1.04568426833e-06
1.04568215399e-06
1.04568041844e-06
1.04568153789e-06
1.04568308398e-06
1.04568442763e-06
1.04568551789e-06
1.0456863259e-06
1.04568683268e-06
1.04568700832e-06
1.04568684923e-06
1.04568636225e-06
1.0456855715e-06
1.04568450951e-06
1.04568319339e-06
1.0456816889e-06
1.04568071843e-06
1.00106793882e-06
1.00106439367e-06
1.00106092318e-06
1.0010579068e-06
1.00105546685e-06
1.0010536856e-06
1.00105258729e-06
1.00105221754e-06
1.00105260659e-06
1.00105373046e-06
1.00105554812e-06
1.00105799118e-06
1.00106096445e-06
1.00106428214e-06
1.00106800034e-06
1.00106309035e-06
1.00105954038e-06
1.00105599566e-06
1.00105286101e-06
1.001050312e-06
1.00104844427e-06
1.00104729345e-06
1.00104690716e-06
1.00104732021e-06
1.00104850437e-06
1.00105041183e-06
1.0010529664e-06
1.00105605336e-06
1.00105947522e-06
1.00106317174e-06
1.00106522484e-06
1.0010621808e-06
1.00105910863e-06
1.00105632386e-06
1.00105404465e-06
1.00105236469e-06
1.00105132724e-06
1.00105097779e-06
1.00105135088e-06
1.00105241651e-06
1.00105412781e-06
1.00105640889e-06
1.00105914209e-06
1.00106212768e-06
1.00106528441e-06
1.00106847192e-06
1.00106590637e-06
1.00106325786e-06
1.00106083396e-06
1.00105882675e-06
1.00105733749e-06
1.00105641575e-06
1.00105610377e-06
1.00105643401e-06
1.00105737537e-06
1.00105888274e-06
1.00106088268e-06
1.00106325982e-06
1.00106583158e-06
1.00106852055e-06
1.00107130604e-06
1.00106909549e-06
1.0010667593e-06
1.001064626e-06
1.00106283998e-06
1.00106150857e-06
1.00106068224e-06
1.00106040102e-06
1.00106069511e-06
1.00106153377e-06
1.00106287324e-06
1.00106464405e-06
1.00106673589e-06
1.00106899309e-06
1.00107133571e-06
1.00107398253e-06
1.00107201731e-06
1.00106995303e-06
1.00106806263e-06
1.00106646566e-06
1.00106526999e-06
1.00106452615e-06
1.0010642714e-06
1.00106453346e-06
1.00106528233e-06
1.00106647574e-06
1.00106804969e-06
1.00106990149e-06
1.00107190535e-06
1.00107397741e-06
1.00107664916e-06
1.00107488824e-06
1.00107304692e-06
1.00107135791e-06
1.00106992549e-06
1.00106884971e-06
1.00106817905e-06
1.00106794746e-06
1.0010681812e-06
1.0010688505e-06
1.00106991647e-06
1.00107132066e-06
1.00107296929e-06
1.00107476469e-06
1.00107662021e-06
1.00107932606e-06
1.00107773407e-06
1.00107606811e-06
1.0010745478e-06
1.00107325463e-06
1.00107228052e-06
1.00107167175e-06
1.00107145982e-06
1.00107166888e-06
1.00107227029e-06
1.00107322847e-06
1.00107449111e-06
1.00107597398e-06
1.00107760298e-06
1.00107929142e-06
1.00108204187e-06
1.00108057417e-06
1.00107904225e-06
1.00107765451e-06
1.00107647308e-06
1.00107558242e-06
1.00107502474e-06
1.00107482955e-06
1.00107501767e-06
1.00107556363e-06
1.00107643451e-06
1.00107758472e-06
1.00107893897e-06
1.00108044047e-06
1.00108200276e-06
1.00108481607e-06
1.00108343387e-06
1.00108200217e-06
1.00108071179e-06
1.00107961601e-06
1.00107878941e-06
1.00107827181e-06
1.00107808942e-06
1.00107826127e-06
1.00107876388e-06
1.00107956821e-06
1.00108063491e-06
1.0010818973e-06
1.00108330709e-06
1.00108477961e-06
1.00108767903e-06
1.00108635407e-06
1.00108498489e-06
1.00108375392e-06
1.00108271486e-06
1.00108193363e-06
1.00108144515e-06
1.0010812726e-06
1.00108143257e-06
1.00108190356e-06
1.0010826622e-06
1.00108367436e-06
1.00108488121e-06
1.00108623546e-06
1.00108764623e-06
1.0010906853e-06
1.00108937699e-06
1.00108802112e-06
1.00108680811e-06
1.00108579678e-06
1.00108504072e-06
1.00108457106e-06
1.00108440539e-06
1.00108455697e-06
1.00108500987e-06
1.00108574187e-06
1.00108672945e-06
1.00108792201e-06
1.00108926235e-06
1.00109064883e-06
1.0010939797e-06
1.00109260177e-06
1.00109117917e-06
1.00108992243e-06
1.0010888934e-06
1.00108813564e-06
1.00108766647e-06
1.00108750244e-06
1.00108765374e-06
1.00108810357e-06
1.00108884087e-06
1.00108984655e-06
1.00109108378e-06
1.00109249102e-06
1.00109393775e-06
1.00109760929e-06
1.00109602579e-06
1.00109449119e-06
1.00109314263e-06
1.00109205956e-06
1.00109126412e-06
1.00109077631e-06
1.00109060779e-06
1.001090765e-06
1.00109123641e-06
1.00109201093e-06
1.00109307426e-06
1.00109440274e-06
1.00109591941e-06
1.00109756615e-06
1.00109881272e-06
1.00109812104e-06
1.00109693944e-06
1.00109590146e-06
1.00109506516e-06
1.00109444397e-06
1.00109405927e-06
1.00109392716e-06
1.00109405155e-06
1.00109442305e-06
1.00109502695e-06
1.00109584621e-06
1.00109686239e-06
1.00109802102e-06
1.00109876201e-06
9.01426652632e-07
9.01429604171e-07
9.01432357535e-07
9.01434696549e-07
9.01436566117e-07
9.01437919239e-07
9.01438749009e-07
9.0143902073e-07
9.01438712271e-07
9.01437839557e-07
9.01436434032e-07
9.0143454458e-07
9.01432246535e-07
9.01429682765e-07
9.01426804037e-07
9.01430332377e-07
9.01433345082e-07
9.01436163359e-07
9.01438595865e-07
9.0144054588e-07
9.0144196124e-07
9.01442828627e-07
9.01443110544e-07
9.01442782375e-07
9.01441863431e-07
9.01440389014e-07
9.01438415072e-07
9.01436030514e-07
9.01433388262e-07
9.01430534058e-07
9.01428646394e-07
9.0143125931e-07
9.01433687188e-07
9.01435838559e-07
9.0143757155e-07
9.01438840376e-07
9.01439618944e-07
9.01439873065e-07
9.01439576982e-07
9.01438752006e-07
9.01437432461e-07
9.01435674123e-07
9.01433567989e-07
9.01431268184e-07
9.01428838364e-07
9.01426117573e-07
9.01428337349e-07
9.01430413648e-07
9.01432267467e-07
9.01433778382e-07
9.01434895255e-07
9.01435582617e-07
9.01435808645e-07
9.0143554747e-07
9.01434821213e-07
9.01433662687e-07
9.01432126262e-07
9.01430300851e-07
9.01428326872e-07
9.01426269547e-07
9.01423909529e-07
9.0142583548e-07
9.01427647336e-07