/*--------------------------------*- C++ -*----------------------------------*\
  =========                 |
  \\      /  F ield         | OpenFOAM: The Open Source CFD Toolbox
   \\    /   O peration     | Website:  https://openfoam.org
    \\  /    A nd           | Version:  7
     \\/     M anipulation  |
\*---------------------------------------------------------------------------*/
FoamFile
{
    version     2.0;
    format      ascii;
    class       surfaceScalarField;
    location    "1.96";
    object      phi;
}
// * * * * * * * * * * * * * * * * * * * * * * * * * * * * * * * * * * * * * //

dimensions      [0 3 -1 0 0 0 0];

internalField   nonuniform List<scalar> 
65775
(
-4.60491067245e-11
-7.3681645535e-09
-1.18833172472e-10
-1.64428914943e-12
-8.27985177385e-11
-7.75740691815e-09
-1.31947483188e-10
-9.89664917754e-11
-8.11374576033e-09
-1.47677644893e-10
-9.5953425695e-11
-8.41813388156e-09
-1.64394223993e-10
-7.79280877413e-11
-8.66100558112e-09
-1.79968494901e-10
-4.85320808757e-11
-8.83843180518e-09
-1.92519387698e-10
-1.20576803166e-11
-8.9494619369e-09
-2.0068479904e-10
2.68397531296e-11
-8.990641998e-09
-2.03546505537e-10
6.31097275004e-11
-8.9485591132e-09
-2.00450549491e-10
9.21320083232e-11
-8.83666833745e-09
-1.92052851029e-10
1.0969498566e-10
-8.65847834644e-09
-1.79276058126e-10
1.12107738176e-10
-8.41519761222e-09
-1.63485187856e-10
9.52441391604e-11
-8.11066881748e-09
-1.46563909656e-10
5.7457662157e-11
-7.75477843704e-09
-1.30647918865e-10
-7.36635135949e-09
-1.17396117754e-10
8.05533799886e-12
-1.39621703167e-10
-1.3605199313e-08
-7.98721461008e-10
-4.22056500716e-12
-2.49073419238e-10
-1.43074505583e-08
-9.10426779824e-10
-2.99379457246e-10
-1.49537598793e-08
-1.02901801342e-09
-2.94371109293e-10
-1.54968083809e-08
-1.14504258092e-09
-2.41772658404e-10
-1.59249805891e-08
-1.24805951805e-09
-1.5251920329e-10
-1.62346317289e-08
-1.32889434193e-09
-4.00577611301e-11
-1.64273359135e-08
-1.38080678732e-09
8.02044187215e-11
-1.64986229019e-08
-1.39909707257e-09
1.92185058611e-10
-1.6425279499e-08
-1.38015755038e-09
2.80547266864e-10
-1.62306404281e-08
-1.32759380091e-09
3.31952299528e-10
-1.59193054027e-08
-1.24612318216e-09
3.35411057992e-10
-1.54900782853e-08
-1.14249244029e-09
2.83125097653e-10
-1.49467043705e-08
-1.02588557853e-09
1.70674070166e-10
-1.43010550607e-08
-9.06761981312e-10
-1.36003379338e-08
-7.94650804312e-10
2.24374376433e-11
-2.30596112314e-10
-1.84625043359e-08
-1.72931064977e-09
-5.75207158152e-12
-4.00723126335e-10
-1.93739312339e-08
-1.97492830191e-09
-4.81954381107e-10
-2.0203596481e-08
-2.22753736547e-09
-4.76468779255e-10
-2.08892860187e-08
-2.46851207627e-09
-3.93774054519e-10
-2.14229467966e-08
-2.67868312617e-09
-2.50734336456e-10
-2.18046370075e-08
-2.84164810924e-09
-6.92839136067e-11
-2.20408747883e-08
-2.9455965341e-09
1.2508165841e-10
-2.21283751826e-08
-2.98221778115e-09
3.06010540071e-10
-2.20380834529e-08
-2.9446796367e-09
4.4806632509e-10
-2.1799253207e-08
-2.83980872238e-09
5.29380530171e-10
-2.14153321616e-08
-2.67593310679e-09
5.32996765448e-10
-2.08801939102e-08
-2.46486792449e-09
4.49184748965e-10
-2.01940243849e-08
-2.22302783928e-09
2.75006528545e-10
-1.93649094678e-08
-1.96960604736e-09
-1.84552232094e-08
-1.72333853649e-09
3.27127228302e-11
-3.13002343268e-10
-2.18904217447e-08
-2.71917696205e-09
-6.32505185266e-12
-5.33611796831e-10
-2.290933303e-08
-3.09712208918e-09
-6.41128463982e-10
-2.38173309688e-08
-3.47662349396e-09
-6.35340288407e-10
-2.45555164987e-08
-3.83181660273e-09
-5.27210886481e-10
-2.51223408961e-08
-4.13722863875e-09
-3.38295432537e-10
-2.55232798468e-08
-4.37168991496e-09
-9.78259958038e-11
-2.5770175012e-08
-4.52035491286e-09
1.60021687108e-10
-2.58619649274e-08
-4.57268984062e-09
4.00073989922e-10
-2.57670600068e-08
-4.51932386215e-09
5.88183339024e-10
-2.55172978411e-08
-4.36961778955e-09
6.951212369e-10
-2.51139193049e-08
-4.13411651966e-09
6.99186235676e-10
-2.45454252535e-08
-3.8276641265e-09
5.8909672547e-10
-2.38066136728e-08
-3.4714402996e-09
3.64264745203e-10
-2.28989238636e-08
-3.09093980702e-09
-2.18814535551e-08
-2.71214997956e-09
3.85219151864e-11
-3.83890414735e-10
-2.39839225687e-08
-3.62619132437e-09
-6.22484384017e-12
-6.47836061604e-10
-2.50272873966e-08
-4.11287608238e-09
-7.77427165954e-10
-2.59332405958e-08
-4.59172020133e-09
-7.7119224488e-10
-2.66578692262e-08
-5.0329920381e-09
-6.41624141138e-10
-2.72069601655e-08
-5.40806465787e-09
-4.14190219919e-10
-2.75912901496e-08
-5.69368529063e-09
-1.24238643646e-10
-2.78269114347e-08
-5.87391442644e-09
1.86818069212e-10
-2.79149693292e-08
-5.93730521214e-09
4.76476136324e-10
-2.78237785935e-08
-5.87286627245e-09
7.03321111113e-10
-2.75852977448e-08
-5.69157712122e-09
8.31964920226e-10
-2.71985516423e-08
-5.4048902032e-09
8.36761517613e-10
-2.6647777479e-08
-5.02873789751e-09
7.04868170122e-10
-2.59224221324e-08
-4.58637809091e-09
4.37017817981e-10
-2.50165646473e-08
-4.10645207541e-09
-2.39741194406e-08
-3.61880876286e-09
4.0712260803e-11
-4.4316437637e-10
-2.49239041575e-08
-4.36431599462e-09
-5.75206719332e-12
-7.45342623337e-10
-2.59317444012e-08
-4.929855106e-09
-8.93731135127e-10
-2.6784340678e-08
-5.47709439475e-09
-8.86939570333e-10
-2.7455347165e-08
-5.97535336059e-09
-7.39132148818e-10
-2.7957378434e-08
-6.39520031476e-09
-4.79211087888e-10
-2.83053592617e-08
-6.71302193061e-09
-1.47671009436e-10
-2.85178653696e-08
-6.91284975124e-09
2.08047805391e-10
-2.85977457238e-08
-6.98305849966e-09
5.39360867485e-10
-2.85149094599e-08
-6.91182211892e-09
7.9880873013e-10
-2.82997226164e-08
-6.71095722056e-09
9.45835766686e-10
-2.79494949427e-08
-6.39209379298e-09
9.51364863995e-10
-2.74458831669e-08
-5.97119131523e-09
8.00890637447e-10
-2.67741315351e-08
-5.47186422946e-09
4.95204120868e-10
-2.59214321192e-08
-4.923548093e-09
-2.4913911145e-08
-4.35702368697e-09
4.0617681503e-11
-4.92490743141e-10
-2.49208433608e-08
-4.90206403769e-09
-5.14281413035e-12
-8.28618479286e-10
-2.5853462518e-08
-5.52036455732e-09
-9.93241518735e-10
-2.66248028837e-08
-6.11096757001e-09
-9.85842101039e-10
-2.72218488265e-08
-6.64394609851e-09
-8.2232978884e-10
-2.76631668443e-08
-7.09029153737e-09
-5.34699623624e-10
-2.79663116844e-08
-7.42679005617e-09
-1.67840018447e-10
-2.81507625519e-08
-7.63780515537e-09
2.25739918287e-10
-2.82204708608e-08
-7.71183075735e-09
5.92365656331e-10
-2.81480803168e-08
-7.63680000317e-09
8.79501161832e-10
-2.79612101351e-08
-7.42477647381e-09
1.04219620994e-09
-2.76560504806e-08
-7.08727472759e-09
1.04830443102e-09
-2.72133055734e-08
-6.63992489051e-09
8.8162947103e-10
-2.66155311411e-08
-6.1059406473e-09
5.42223573886e-10
-2.584396551e-08
-5.51432392247e-09
-2.49111111845e-08
-4.89508048939e-09
3.94412174046e-11
-5.3409456006e-10
-2.41783992364e-08
-5.24392365502e-09
-4.52796649062e-12
-9.00010134684e-10
-2.50116488109e-08
-5.89591516335e-09
-1.07863847773e-09
-2.56891575859e-08
-6.51262488576e-09
-1.07055422701e-09
-2.62045251799e-08
-7.06555268268e-09
-8.93372870828e-10
-2.65811665686e-08
-7.52658163125e-09
-5.81900436591e-10
-2.68377503131e-08
-7.87314690388e-09
-1.84815473603e-10
-2.69932988349e-08
-8.09001280008e-09
2.41089100658e-10
-2.70523233578e-08
-8.1659205401e-09
6.37873801587e-10
-2.69909166048e-08
-8.08901947182e-09
9.48717201265e-10
-2.68332276077e-08
-7.87116540042e-09
1.12489003784e-09
-2.6574862758e-08
-7.52363232134e-09
1.13146851274e-09
-2.61969469467e-08
-7.06165541023e-09
9.50621305709e-10
-2.56808715734e-08
-6.50780085384e-09
5.81431404828e-10
-2.50030387744e-08
-5.89016951667e-09
-2.41690819278e-08
-5.23732016795e-09
3.80325522928e-11
-5.69929218213e-10
-2.28766127973e-08
-5.41146114908e-09
-3.97417531798e-12
-9.61400535212e-10
-2.35976972218e-08
-6.08437884496e-09
-1.15193512762e-09
-2.41777989769e-08
-6.71606730571e-09
-1.1429841677e-09
-2.4611225428e-08
-7.27956344204e-09
-9.5379258442e-10
-2.49248534195e-08
-7.74778555734e-09
-6.21750859465e-10
-2.51370109601e-08
-8.0989294762e-09
-1.98814066884e-10
-2.52651326085e-08
-8.31820600726e-09
2.5464551974e-10
-2.53138276302e-08
-8.39472111266e-09
6.77176556825e-10
-2.52630304857e-08
-8.31721442082e-09
1.00838182051e-09
-2.51330192967e-08
-8.09696063825e-09
1.19626970608e-09
-2.4919278302e-08
-7.74487697086e-09
1.20337177017e-09
-2.46044837178e-08
-7.27575960353e-09
1.01029814744e-09
-2.41703401737e-08
-6.71141747901e-09
6.15368733929e-10
-2.35897938389e-08
-6.07890804779e-09
-2.28676848974e-08
-5.40523731253e-09
3.68571515872e-11
-6.01301054899e-10
-2.1168094211e-08
-5.43084340367e-09
-3.50457909854e-12
-1.01417307164e-09
-2.1772314064e-08
-6.11635776796e-09
-1.21461781986e-09
-2.2256490347e-08
-6.75582342296e-09
-1.20447078563e-09
-2.26122132617e-08
-7.32370656341e-09
-1.00461149543e-09
-2.28678899125e-08
-7.79404369223e-09
-6.54885941254e-10
-2.3040019235e-08
-8.1459418955e-09
-2.10071249376e-10
-2.31435421769e-08
-8.36517710343e-09
2.66577770204e-10
-2.31827829303e-08
-8.44137435497e-09
7.10859754134e-10
-2.31416659201e-08
-8.36418263593e-09
1.05950079397e-09
-2.30364454128e-08
-8.1439760837e-09
1.25770526589e-09
-2.28628646152e-08
-7.79116073811e-09
1.26558641223e-09
-2.26060639142e-08
-7.31997570675e-09
1.06219078398e-09
-2.22495561565e-08
-6.75132311059e-09
6.45536229615e-10
-2.17647739627e-08
-6.11113475993e-09
-2.1159274103e-08
-5.42497642597e-09
3.61202770096e-11
-6.28801328638e-10
-1.91801478965e-08
-5.32672573887e-09
-3.11663990368e-12
-1.05939632258e-09
-1.96682141695e-08
-6.01933195922e-09
-1.2679519286e-09
-2.0060956464e-08
-6.66170525702e-09
-1.25607059232e-09
-2.0346363473e-08
-7.22956405874e-09
-1.04654156044e-09
-2.05514210489e-08
-7.69819853965e-09
-6.81725287258e-10
-2.06893030493e-08
-8.04786701845e-09
-2.18789337746e-10
-2.07718312308e-08
-8.26510540446e-09
2.76871043206e-10
-2.08028115748e-08
-8.3402420018e-09
7.39137414656e-10
-2.07700997281e-08
-8.26410943141e-09
1.10260321867e-09
-2.06859853474e-08
-8.04590579486e-09
1.31010202749e-09
-2.05467024082e-08
-7.69534095289e-09
1.31926987702e-09
-2.03404829458e-08
-7.22590198066e-09
1.10730498137e-09
-2.00541558559e-08
-6.65734498657e-09
6.72531068435e-10
-1.9660586002e-08
-6.01434115662e-09
-1.91710492863e-08
-5.32119593461e-09
3.58609264937e-11
-6.52449970945e-10
-1.70189079156e-08
-5.12021870187e-09
-2.78638474384e-12
-1.09833141998e-09
-1.73938984023e-08
-5.81627164764e-09
-1.31342952327e-09
-1.77022474355e-08
-6.45814425753e-09
-1.29881228599e-09
-1.79275493274e-08
-7.0225916603e-09
-1.08013458843e-09
-1.80909110821e-08
-7.48640670577e-09
-7.02542188095e-10
-1.82010188941e-08
-7.83133232942e-09
-2.25126165415e-10
-1.82665071562e-08
-8.04490689602e-09
2.85437863778e-10
-1.82905555346e-08
-8.11835214559e-09
7.62043198969e-10
-1.8264820783e-08
-8.04391585817e-09
1.13801496346e-09
-1.81977561192e-08
-7.82938680451e-09
1.35428239711e-09
-1.8086200728e-08
-7.48358713306e-09
1.36573217737e-09
-1.79215570862e-08
-7.01900898623e-09
1.14675205477e-09
-1.76951283538e-08
-6.45393037605e-09
6.96255790094e-10
-1.7385681469e-08
-5.8115145482e-09
-1.70090762611e-08
-5.1150210732e-09
3.6027932017e-11
-6.7303209723e-10
-1.4772284047e-08
-4.82883131835e-09
-2.50975034968e-12
-1.13408284913e-09
-1.50365302723e-08
-5.52618650115e-09
-1.35338640124e-09
-1.52721163712e-08
-6.16520017392e-09
-1.33375557099e-09
-1.54502095244e-08
-6.72349162189e-09
-1.10572131475e-09
-1.55813750938e-08
-7.17982056299e-09
-7.17439497191e-10
-1.56701072528e-08
-7.5178260279e-09
-2.29161143913e-10
-1.57223495647e-08
-7.72629468133e-09
2.92125204885e-10
-1.57408349112e-08
-7.79750909902e-09
7.79453796453e-10
-1.57205847452e-08
-7.72531915795e-09
1.1658485369e-09
-1.56666564017e-08
-7.51591513568e-09
1.39109456517e-09
-1.55763362848e-08
-7.17706217264e-09
1.40711233035e-09
-1.54436776478e-08
-6.72001065828e-09
1.18345503841e-09
-1.52641810469e-08
-6.16115131338e-09
7.17340177175e-10
-1.50271534327e-08
-5.52168135014e-09
-1.47611403165e-08
-4.82398461343e-09
3.64599203661e-11
-6.99287754827e-10
-1.25049438149e-08
-4.46707580481e-09
-2.28782551314e-12
-1.17574623791e-09
-1.26667193953e-08
-5.16527003007e-09
-1.39231257358e-09
-1.28500272905e-08
-5.79975854132e-09
-1.36270122899e-09
-1.2994240649e-08
-6.34949236496e-09
-1.12408590843e-09
-1.31013295721e-08
-6.79600605639e-09
-7.26790392965e-10
-1.31739478042e-08
-7.12523440069e-09
-2.31107773086e-10
-1.32162731783e-08
-7.32739098507e-09
2.96940380205e-10
-1.32303736394e-08
-7.39593095174e-09
7.91541498955e-10
-1.32142846282e-08
-7.32644534744e-09
1.18668333339e-09
-1.31700375328e-08
-7.12338433933e-09
1.42215126077e-09
-1.30955596192e-08
-6.79334192641e-09
1.44771489371e-09
-1.29866896123e-08
-6.34614569065e-09
1.2263486262e-09
-1.2840748293e-08
-5.79590127911e-09
7.4439960981e-10
-1.26555988148e-08
-5.16104493746e-09
-1.24918695001e-08
-4.46262540838e-09
3.71822707495e-11
-7.65927133558e-10
-4.04630852778e-09
-2.04912167913e-12
-1.02355165569e-08
-1.24457945221e-09
-4.7473117552e-09
-1.03547499217e-08
-1.44539472902e-09
-5.37538260733e-09
-1.05079654854e-08
-1.39873733838e-09
-5.91448133686e-09
-1.06277418603e-08
-1.14602876452e-09
-6.34948329171e-09
-1.07169792199e-08
-7.37852975406e-10
-6.66871430717e-09
-1.07784134474e-08
-2.33523252006e-10
-6.86380733845e-09
-1.08141479976e-08
3.02277945432e-10
-6.92940133062e-09
-1.08251873059e-08
8.0539327305e-10
-6.86291016204e-09
-1.08117698853e-08
1.21116737817e-09
-6.66696003637e-09
-1.07737171351e-08
1.46036398782e-09
-6.3469603963e-09
-1.0710032441e-08
1.50254035064e-09
-5.91131887716e-09
-1.06186217219e-08
1.29646523689e-09
-5.37175968108e-09
-1.04967236745e-08
8.11934218336e-10
-4.74337573205e-09
-1.03413044711e-08
-4.04235798911e-09
3.80345050693e-11
-1.02198404217e-08
-4.13125567327e-12
6.02161122652e-10
-7.16498245528e-10
1.1083678656e-12
-2.55516754287e-12
6.64783902307e-10
-7.95619200775e-10
4.31145598065e-13
7.24670252696e-10
-8.7174226272e-10
2.17975295929e-12
7.78357342649e-10
-9.40951070354e-10
2.49057058334e-12
8.22276211702e-10
-9.99343325656e-10
1.47479274681e-12
8.54610652377e-10
-1.04368189753e-09
-3.53357078075e-13
8.74616768016e-10
-1.07176338737e-09
-2.45912613291e-12
8.81571410511e-10
-1.08183899908e-09
-4.32517661118e-12
8.73971220465e-10
-1.07173474806e-09
-5.46391826379e-12
8.53315362034e-10
-1.04362497613e-09
-5.43823215836e-12
8.20417739119e-10
-9.99256251032e-10
-4.02020635599e-12
7.76308778437e-10
-9.40829257603e-10
-1.354939392e-12
7.2267377494e-10
-8.71580614527e-10
2.64866876477e-13
6.63424361423e-10
-7.9540759691e-10
6.01531971459e-10
-7.16215992065e-10
-2.19676953978e-12
2.44947218051e-12
1.67448363351e-09
-1.87357868551e-09
2.7172577974e-12
1.44569073352e-11
1.82251581565e-09
-2.07571200341e-09
2.49775533361e-11
1.96026764394e-09
-2.2695271171e-09
2.9203783508e-11
2.07988643272e-09
-2.44521243538e-09
2.61258245823e-11
2.17521316951e-09
-2.59310168558e-09
1.6735145961e-11
2.24396157432e-09
-2.70521163152e-09
3.25775515982e-12
2.28600206812e-09
-2.7761269144e-09
-1.1625308709e-11
2.30068414416e-09
-2.80152225534e-09
-2.51969449897e-11
2.28469980246e-09
-2.77603428978e-09
-3.48677127776e-11
2.24136973714e-09
-2.70503121183e-09
-3.85251173339e-11
2.17151546044e-09
-2.59282915642e-09
-3.50043901223e-11
2.07573402012e-09
-2.44483754824e-09
-2.50321519054e-11
1.95636181752e-09
-2.26903655218e-09
-1.27304655327e-11
1.81988027314e-09
-2.0750808858e-09
1.67345944109e-09
-1.87277137346e-09
-6.17016137106e-12
1.67019690347e-11
2.73413279115e-09
-2.80701486758e-09
3.81289362619e-12
4.24842121225e-11
2.93529568873e-09
-3.10941493753e-09
6.08977607626e-11
3.11792867293e-09
-3.39858199175e-09
6.6385607958e-11
3.27106023535e-09
-3.66018106357e-09
5.77300700693e-11
3.38949648492e-09
-3.88007747243e-09
3.7133797108e-11
3.47271822572e-09
-4.04660158113e-09
8.78276481489e-12
3.52285746051e-09
-4.1518136019e-09
-2.22297658562e-11
3.54048356813e-09
-4.18939660922e-09
-5.07114216559e-11
3.5213089914e-09
-4.15165692445e-09
-7.16667846603e-11
3.46966961542e-09
-4.04629617161e-09
-8.10110153191e-11
3.38521586623e-09
-3.87961910719e-09
-7.6354444661e-11
3.26632071313e-09
-3.65955867598e-09
-5.84723623776e-11
3.11370092973e-09
-3.39778021197e-09
-3.20947037002e-11
2.93270359269e-09
-3.10840355298e-09
2.73370319622e-09
-2.80575390097e-09
-9.57154007405e-12
3.37145075395e-11
3.54318128227e-09
-3.56405959704e-09
4.4945038321e-12
7.28893177566e-11
3.75289201701e-09
-3.95019245216e-09
9.79410086855e-11
3.93904170116e-09
-4.31828445848e-09
1.03358037543e-10
4.08877530871e-09
-4.65058215578e-09
8.84719550634e-11
4.20029702047e-09
-4.92949339902e-09
5.67651584798e-11
4.27599390393e-09
-5.14048326475e-09
1.4199041777e-11
4.32070599727e-09
-5.27362473798e-09
-3.2082219478e-11
4.33657530575e-09
-5.32106001978e-09
-7.47979387816e-11
4.3191503008e-09
-5.27340126086e-09
-1.06881332701e-10
4.27297125725e-09
-5.14004802294e-09
-1.22443877399e-10
4.19613063577e-09
-4.92884573407e-09
-1.17806244899e-10
4.08424817838e-09
-4.64971606692e-09
-9.31371594975e-11
3.93521686359e-09
-4.31718985388e-09
-5.30651275742e-11
3.75090168378e-09
-3.94884292698e-09
3.54362270272e-09
-3.56242167707e-09
-1.24157087963e-11
5.01931699468e-11
4.02189164339e-09
-4.15774729577e-09
4.86758746896e-12
9.98023506374e-11
4.20649413245e-09
-4.61280321723e-09
1.29174012178e-10
4.36706167178e-09
-5.04516143111e-09
1.33430598783e-10
4.48990771421e-09
-5.43463301685e-09
1.12864198477e-10
4.57696849992e-09
-5.76105354003e-09
7.20823881046e-11
4.63318429238e-09
-6.00772472836e-09
1.83505125045e-11
4.66544148179e-09
-6.16318399138e-09
-3.97945028219e-11
4.67708904545e-09
-6.218415862e-09
-9.36840119451e-11
4.66398882947e-09
-6.16289022299e-09
-1.34828192797e-10
4.63039906307e-09
-6.00715371388e-09
-1.56002951422e-10
4.57319123152e-09
-5.76021201112e-09
-1.52394215388e-10
4.48589697155e-09
-5.43352588246e-09
-1.23212316032e-10
4.36384663747e-09
-5.04379122385e-09
-7.24694548827e-11
4.20519850403e-09
-4.61115447211e-09
4.02312925633e-09
-4.15579879499e-09
-1.46929713493e-11
6.42070895288e-11
4.19177812096e-09
-4.60136751669e-09
5.01019100675e-12
1.20494658461e-10
4.33569595386e-09
-5.11238598656e-09
1.51794950903e-10
4.45833719965e-09
-5.59627227094e-09
1.54247604019e-10
4.54651678124e-09
-6.03121466364e-09
1.29188613876e-10
4.60468954823e-09
-6.39521703598e-09
8.20702218683e-11
4.63931923312e-09
-6.67000178572e-09
2.09230859984e-11
4.65820155014e-09
-6.84294620851e-09
-4.49866373213e-11
4.66526590542e-09
-6.90420272032e-09
-1.06291718986e-10
4.65689269054e-09
-6.84257947116e-09
-1.53744682001e-10
4.63683811156e-09
-6.66929065117e-09
-1.79318196759e-10
4.60137740666e-09
-6.3941788852e-09
-1.7736148215e-10
4.54306027368e-09
-6.02987008685e-09
-1.46054318064e-10
4.45569074595e-09
-5.59464229319e-09
-8.84872795594e-11
4.33486641901e-09
-5.11047121606e-09
4.19346576252e-09
-4.59916055697e-09
-1.64276926251e-11
7.4879462457e-11
4.11991793529e-09
-4.90817298271e-09
4.99085066395e-12
1.34409756656e-10
4.22229973148e-09
-5.46394358805e-09
1.65721599985e-10
4.307330499e-09
-5.98838470492e-09
1.66132317908e-10
4.36356729482e-09
-6.45871608711e-09
1.3794860411e-10
4.39653328861e-09
-6.85173197262e-09
8.71418702343e-11
4.41313793235e-09
-7.14808159345e-09
2.20445838133e-11
4.42111207478e-09
-7.33431922979e-09
-4.78866535996e-11
4.42440226448e-09
-7.40006098961e-09
-1.13133757588e-10
4.41996389031e-09
-7.33387940359e-09
-1.64233757465e-10
4.41097789324e-09
-7.14723076542e-09
-1.92827441468e-10
4.39367758752e-09
-6.85050033092e-09
-1.92753735033e-10
4.36060980919e-09
-6.45714297095e-09
-1.61265515374e-10
4.30511787798e-09
-5.98651330752e-09
-1.00366999361e-10
4.22172433245e-09
-5.46179341806e-09
4.12167944875e-09
-4.90575081065e-09
-1.76540590721e-11
8.20492618607e-11
3.88167867999e-09
-5.09080062933e-09
4.84835844523e-12
1.42209370638e-10
3.95004651236e-09
-5.68160116426e-09
1.72196395882e-10
4.00423314683e-09
-6.23707701226e-09
1.70605747885e-10
4.03585938156e-09
-6.73401127311e-09
1.40557931618e-10
4.05039159802e-09
-7.1485277157e-09
8.82623887791e-11
4.05442028077e-09
-7.4606666912e-09
2.19983451589e-11
4.0549769952e-09
-7.65648556014e-09
-4.897007138e-11
4.0556638986e-09
-7.72534843212e-09
-1.15365562643e-10
4.05398799905e-09
-7.65597588986e-09
-1.67898011194e-10
4.05256771363e-09
-7.45968285871e-09
-1.98240138699e-10
4.04795061595e-09
-7.14711367605e-09
-2.00002430768e-10
4.03332442129e-09
-6.73222639265e-09
-1.69683525879e-10
4.00230867135e-09
-6.23498815892e-09
-1.08107798478e-10
3.94949860293e-09
-5.67924738376e-09
3.88313752016e-09
-5.08820296539e-09
-1.84536857684e-11
8.59790857065e-11
3.54220709584e-09
-5.16094456727e-09
4.62314491849e-12
1.44976732718e-10
3.58687289879e-09
-5.77828728471e-09
1.72824612902e-10
3.6188183016e-09
-6.35647130098e-09
1.69440111149e-10
3.63381283591e-09
-6.87227548683e-09
1.38570808803e-10
3.63665096601e-09
-7.30162844724e-09
8.64558013598e-11
3.63323857221e-09
-7.62439895495e-09
2.10778903215e-11
3.62958258049e-09
-7.82647031912e-09
-4.87434631392e-11
3.62874819076e-09
-7.89723139836e-09
-1.14222252997e-10
3.62874478669e-09
-7.82589722758e-09
-1.66500387016e-10
3.63166716289e-09
-7.62329470644e-09
-1.97533098926e-10
3.63456789164e-09
-7.30005065513e-09
-2.00918472459e-10
3.63160418807e-09
-6.87030334832e-09
-1.7258421154e-10
3.61704837584e-09
-6.35419508533e-09
-1.1214395413e-10
3.58616183322e-09
-5.77576452364e-09
3.5431080492e-09
-5.15821067363e-09
-1.89146722873e-11
8.71457265519e-11
3.15082510576e-09
-5.12937844593e-09
4.34709846365e-12
1.43817135136e-10
3.18136831504e-09
-5.76586554969e-09
1.69117729306e-10
3.19888705513e-09
-6.35950418779e-09
1.64234562505e-10
3.20391280199e-09
-6.88739642034e-09
1.33364607667e-10
3.2004513181e-09
-7.32568998866e-09
8.26196571117e-11
3.19357576532e-09
-7.65449593589e-09
1.95400869395e-11
3.18815408928e-09
-7.85984191091e-09
-4.76462502913e-11
3.18662455871e-09
-7.93140807448e-09
-1.10785042378e-10
3.1874464417e-09
-7.85921433643e-09
-1.61602778626e-10
3.1922386993e-09
-7.65328846236e-09
-1.92491993474e-10
3.19864790016e-09
-7.32397287827e-09
-1.97194740985e-10
3.20192510643e-09
-6.88526738297e-09
-1.71250295776e-10
3.19713311813e-09
-6.35707540869e-09
-1.13096867933e-10
3.18032309871e-09
-5.76321087851e-09
3.15091589507e-09
-5.12654783313e-09
-1.91314049322e-11
8.60919568046e-11
2.74164929472e-09
-5.00618533345e-09
4.04591706657e-12
1.39725852795e-10
2.76530040441e-09
-5.65549033869e-09
1.62387706117e-10
2.7743199599e-09
-6.25840588063e-09
1.56368101613e-10
2.77416583524e-09
-6.79254772992e-09
1.26119588625e-10
2.76820021633e-09
-7.23464119508e-09
7.75248686103e-11
2.76061338074e-09
-7.5654393958e-09
1.76119536636e-11
2.7550933758e-09
-7.77142915037e-09
-4.60382654117e-11
2.75343953497e-09
-7.84283552306e-09
-1.05959569995e-10
2.75448359026e-09
-7.77075783725e-09
-1.54523890187e-10
2.75944582656e-09
-7.56414907391e-09
-1.84636739193e-10
2.7665775971e-09
-7.23281296827e-09
-1.90290193645e-10
2.77227074964e-09
-6.79029563936e-09
-1.668215395e-10
2.77243679339e-09
-6.25586191076e-09
-1.11649667537e-10
2.76376467899e-09
-5.65274206483e-09
2.74074578031e-09
-5.00329699255e-09
-1.91822293257e-11
8.33457268532e-11
2.33674335824e-09
-4.80102765309e-09
3.72038673014e-12
1.33645874733e-10
2.35790818455e-09
-5.45799152541e-09
1.53897020055e-10
2.36222081068e-09
-6.06515431676e-09
1.47165242031e-10
2.35998102589e-09
-6.6006579036e-09
1.17967338312e-10
2.35400611289e-09
-7.04214795344e-09
7.19099018721e-11
2.34747825181e-09
-7.37143348189e-09
1.55285760214e-11
2.34293893797e-09
-7.57577638807e-09
-4.4234213138e-11
2.3415059397e-09
-7.64618412974e-09
-1.00565906533e-10
2.34238710708e-09
-7.57507343361e-09
-1.4648268146e-10
2.34639608894e-09
-7.37008294587e-09
-1.75385505182e-10
2.35244301477e-09
-7.04023913863e-09
-1.81565005746e-10
2.35803208436e-09
-6.59831817902e-09
-1.60341954582e-10
2.36004988158e-09
-6.06253328936e-09
-1.08430057244e-10
2.3557319562e-09
-5.45518878853e-09
2.33472284359e-09
-4.79812018895e-09
-1.91325759374e-11
7.94945580959e-11
1.94958859297e-09
-4.52335331892e-09
3.39028648523e-12
1.26785107387e-10
1.96964165345e-09
-5.18422059816e-09
1.45259420837e-10
1.97129331411e-09
-5.79181722733e-09
1.38246057717e-10
1.96899582191e-09
-6.32467524434e-09
1.10231950961e-10
1.96470988464e-09
-6.76181779762e-09
6.66424726512e-11
1.96042481517e-09
-7.08657705864e-09
1.35668933668e-11
1.95748700733e-09
-7.2873014022e-09
-4.25421148549e-11
1.95652591585e-09
-7.35599144322e-09
-9.55089490564e-11
1.95693741479e-09
-7.28658025742e-09
-1.38843250375e-10
1.95932602714e-09
-7.08519116519e-09
-1.66402420417e-10
1.96307225986e-09
-6.75986101556e-09
-1.72683087941e-10
1.96683390734e-09
-6.32228402663e-09
-1.53072181783e-10
1.96866158005e-09
-5.78915677005e-09
-1.04077618919e-10
1.96664600359e-09
-5.18140447499e-09
1.94630773554e-09
-4.52047082839e-09
-1.9011682247e-11
7.54978909617e-11
1.5875320337e-09
-4.18249163935e-09
3.07106806481e-12
1.2123458133e-10
1.60487698089e-09
-4.84543191325e-09
1.38957945102e-10
1.60529798101e-09
-5.45074165233e-09
1.31878796907e-10
1.60482544923e-09
-5.97756770252e-09
1.04695733024e-10
1.60360775236e-09
-6.40712873416e-09
6.28113883086e-11
1.60232497721e-09
-6.72477760212e-09
1.21335926591e-11
1.60142167661e-09
-6.92020957004e-09
-4.13672710509e-11
1.60100174324e-09
-6.9865776568e-09
-9.1875126289e-11
1.6008106265e-09
-6.91948558876e-09
-1.33384132536e-10
1.60108828895e-09
-6.72338466554e-09
-1.59960605071e-10
1.60171948313e-09
-6.40516049544e-09
-1.66140153664e-10
1.60225536511e-09
-5.97516301523e-09
-1.47130821407e-10
1.60202454255e-09
-5.44807739979e-09
-9.95890919614e-11
1.60087319217e-09
-4.84264455994e-09
1.58278583164e-09
-4.17969115997e-09
-1.88504685763e-11
7.02978935296e-11
-3.78902692776e-09
2.72865522379e-12
1.25819205868e-09
1.1943415462e-10
-4.45505274948e-09
1.26416471739e-09
1.37810601609e-10
-5.05499971992e-09
1.2671738258e-09
1.30608119424e-10
-5.57229623446e-09
1.2703904656e-09
1.0339240333e-10
-5.99119695123e-09
1.27302560124e-09
6.18113700175e-11
-6.29939750996e-09
1.27502704855e-09
1.16734609639e-11
-6.48806669253e-09
1.27616830577e-09
-4.11322983203e-11
-6.55159307374e-09
1.27632028062e-09
-9.10373793257e-11
-6.48735915718e-09
1.27540984929e-09
-1.32124043399e-10
-6.29803415355e-09
1.27350139658e-09
-1.58571979896e-10
-5.98926612031e-09
1.270692875e-09
-1.64704753415e-10
-5.56992974199e-09
1.26720034792e-09
-1.44919891199e-10
-5.05237773369e-09
1.26303672918e-09
-9.3919800246e-11
-4.45231500932e-09
1.25897708408e-09
-3.78641948995e-09
-1.86338692439e-11
1.25171451944e-09
8.11967154214e-12
-1.09371296499e-10
-6.15271194876e-10
-3.73072169992e-13
1.22716952201e-11
-1.2190398003e-10
-6.78640277714e-10
1.40105937447e-11
-1.34913516993e-10
-7.39487020827e-10
1.36279298527e-11
-1.46677023833e-10
-7.94716173844e-10
1.12615537493e-11
-1.56490016632e-10
-8.41221033036e-10
7.28599296676e-12
-1.63785727987e-10
-8.76465961005e-10
2.23747202351e-12
-1.68312651546e-10
-8.98760804642e-10
-3.18785191681e-12
-1.69872799266e-10
-9.06762628909e-10
-8.18742108733e-12
-1.68162499587e-10
-8.98707465785e-10
-1.20563562899e-11
-1.63481455049e-10
-8.76360401651e-10
-1.42501301901e-11
-1.56053070039e-10
-8.41065779945e-10
-1.44245114966e-11
-1.46183199857e-10
-7.94514254924e-10
-1.24170734635e-11
-1.34379670452e-10
-7.39240247281e-10
-8.01816577217e-12
-1.21486976448e-10
-6.78345191832e-10
-1.09161794208e-10
-6.14906555016e-10
-1.84522839482e-13
1.76372092937e-11
-2.44293471832e-10
-1.75614646167e-09
-8.66725263508e-13
2.73158568371e-11
-2.68876282477e-10
-1.93967492741e-09
3.13483746349e-11
-2.94052472262e-10
-2.11582761096e-09
3.0449902777e-11
-3.16634596947e-10
-2.27565202195e-09
2.51281801945e-11
-3.35131649125e-10
-2.41022789217e-09
1.62624363756e-11
-3.48704975525e-10
-2.5122313719e-09
5.06171847887e-12
-3.57052857833e-10
-2.57672154912e-09
-6.95285914305e-12
-3.59924317308e-10
-2.59979398265e-09
-1.80454698553e-11
-3.56743330439e-10
-2.57656905227e-09
-2.66798244433e-11
-3.48081553057e-10
-2.51192912856e-09
-3.16346636237e-11
-3.3423280993e-10
-2.4097830277e-09
-3.2065532491e-11
-3.15581395241e-10
-2.27507298633e-09
-2.74631291412e-11
-2.92947193099e-10
-2.11512019584e-09
-1.72707785773e-11
-2.67966612434e-10
-1.93883017095e-09
-2.43795284326e-10
-1.75512217916e-09
-3.0839767809e-13
2.19812100021e-11
-3.4858138801e-10
-2.72422499189e-09
-1.157139173e-12
3.43053968389e-11
-3.79733541271e-10
-3.01201357223e-09
3.93338046024e-11
-4.11273968897e-10
-3.28764184478e-09
3.80579411502e-11
-4.3933704609e-10
-3.53733809904e-09
3.13099782419e-11
-4.62020909133e-10
-3.74738003654e-09
2.0257024474e-11
-4.78467780337e-10
-3.9064766516e-09
6.40000512345e-12
-4.88501928346e-10
-4.00696887641e-09
-8.42917280764e-12
-4.91954262405e-10
-4.04282946836e-09
-2.21548312654e-11
-4.88131737967e-10
-4.0067242804e-09
-3.29295708435e-11
-4.77725975545e-10
-3.90599286722e-09
-3.92365304636e-11
-4.60954265132e-10
-3.74666911612e-09
-3.99357172189e-11
-4.38084096707e-10
-3.53641475078e-09
-3.42149930384e-11
-4.09973873499e-10
-3.28651812471e-09
-2.12798336003e-11
-3.78656739484e-10
-3.01068146303e-09
-3.4799054165e-10
-2.72263395674e-09
-2.28981824597e-13
2.2961641956e-11
-4.23843583526e-10
-3.51113141638e-09
-1.28904857532e-12
3.59141168681e-11
-4.57695719902e-10
-3.88620280712e-09
4.10997852682e-11
-4.91427986848e-10
-4.24443172997e-09
3.96170764958e-11
-5.21062454948e-10
-4.56836938116e-09
3.25084765428e-11
-5.44672449911e-10
-4.84053643087e-09
2.10583257111e-11
-5.61573900881e-10
-5.04651610023e-09
6.81136729649e-12
-5.71801232994e-10
-5.17648005605e-09
-8.40266729019e-12
-5.75322417794e-10
-5.2227369846e-09
-2.25211870272e-11
-5.71429564435e-10
-5.17614990285e-09
-3.3702281448e-11
-5.60834096207e-10
-5.04586453097e-09
-4.03824238476e-11
-5.4361117208e-10
-4.83958124949e-09
-4.12927800477e-11
-5.1980928341e-10
-4.56713322452e-09
-3.54230189846e-11
-4.90137003015e-10
-4.24293606928e-09
-2.18779740466e-11
-4.56624891123e-10
-3.884447342e-09
-4.23240794458e-10
-3.50906988987e-09
6.56949452664e-15
2.18502521005e-11
-4.71549283671e-10
-4.13119368788e-09
-1.31117292682e-12
3.41984535698e-11
-5.05314709786e-10
-4.5784395659e-09
3.90518627246e-11
-5.38175734784e-10
-5.00423192086e-09
3.75241106462e-11
-5.66541967945e-10
-5.38846796566e-09
3.07418909327e-11