/*--------------------------------*- C++ -*----------------------------------*\
  =========                 |
  \\      /  F ield         | OpenFOAM: The Open Source CFD Toolbox
   \\    /   O peration     | Website:  https://openfoam.org
    \\  /    A nd           | Version:  7
     \\/     M anipulation  |
\*---------------------------------------------------------------------------*/
FoamFile
{
    version     2.0;
    format      ascii;
    class       surfaceScalarField;
    location    "1.82";
    object      phi;
}
// * * * * * * * * * * * * * * * * * * * * * * * * * * * * * * * * * * * * * //

dimensions      [0 3 -1 0 0 0 0];

internalField   nonuniform List<scalar> 
65775
(
-2.29138892056e-11
-5.30606534713e-09
-8.68308058171e-11
-1.69190806012e-13
-4.10663706478e-11
-5.58443184067e-09
-9.40022024102e-11
-4.93094349614e-11
-5.83975094771e-09
-1.0091966749e-10
-4.79643208516e-11
-6.06004056884e-09
-1.07387889412e-10
-3.93758377666e-11
-6.23695067596e-09
-1.12972416455e-10
-2.54401278141e-11
-6.36684816264e-09
-1.17273052119e-10
-8.25043944096e-12
-6.44836628014e-09
-1.20023397573e-10
1.00685778542e-11
-6.47874603366e-09
-1.21017485651e-10
2.7228814954e-11
-6.44824680498e-09
-1.19987751064e-10
4.11082324758e-11
-6.36661401432e-09
-1.17202920865e-10
4.96250073464e-11
-6.23661212711e-09
-1.12870176801e-10
5.08799733289e-11
-6.05964344775e-09
-1.0725717589e-10
4.25407149127e-11
-5.83932858691e-09
-1.00765166244e-10
2.42569269019e-11
-5.58407440488e-09
-9.38296512839e-11
-5.30582347368e-09
-8.66484829633e-11
9.57743688254e-13
-7.39705000672e-11
-9.87013073134e-09
-5.21491523393e-10
-4.53300588946e-13
-1.30739435706e-10
-1.0380941402e-08
-5.86301414387e-10
-1.56101918904e-10
-1.0854589084e-08
-6.50145462719e-10
-1.53293370843e-10
-1.12589464316e-08
-7.09619139156e-10
-1.2678535307e-10
-1.15818820344e-08
-7.60813601859e-10
-8.2454902174e-11
-1.1817608753e-08
-8.00244451671e-10
-2.70188249188e-11
-1.19650245093e-08
-8.25380109066e-10
3.21426301867e-11
-1.20198182483e-08
-8.34334296593e-10
8.75010839691e-11
-1.19647492168e-08
-8.25278384727e-10
1.31683719254e-10
-1.18170700916e-08
-8.0004412277e-10
1.57991739996e-10
-1.15811092371e-08
-7.60521361956e-10
1.60552122092e-10
-1.12580216169e-08
-7.09245178792e-10
1.34899342543e-10
-1.08536097953e-08
-6.49703171737e-10
7.77300710709e-11
-1.0380060633e-08
-5.85807102979e-10
-9.86946918355e-09
-5.20967953723e-10
2.7420843213e-12
-1.2952128818e-10
-1.35374038131e-08
-1.10631037339e-09
-6.44653898222e-13
-2.21508795544e-10
-1.42184023214e-08
-1.25280538728e-09
-2.63586198655e-10
-1.48474294359e-08
-1.39650869707e-09
-2.5966316174e-10
-1.53784449874e-08
-1.52943542645e-09
-2.15625347731e-10
-1.57996096952e-08
-1.64316917324e-09
-1.40795238106e-10
-1.61050020417e-08
-1.73038016444e-09
-4.6588372152e-11
-1.62952918562e-08
-1.78578075491e-09
5.40923232459e-11
-1.63659776542e-08
-1.80544967669e-09
1.48199145756e-10
-1.62949081718e-08
-1.78563210594e-09
2.22836814939e-10
-1.61042545953e-08
-1.73008607203e-09
2.66605579468e-10
-1.57985429802e-08
-1.64273806609e-09
2.70187517712e-10
-1.53771592352e-08
-1.52888113601e-09
2.27689397811e-10
-1.48460646051e-08
-1.3958500139e-09
1.35115680021e-10
-1.42171256782e-08
-1.25206503872e-09
-1.35363903564e-08
-1.10552053774e-09
4.15087406274e-12
-1.85561811421e-10
-1.62547291753e-08
-1.74389730415e-09
-7.47340291908e-13
-3.10370219366e-10
-1.70408362675e-08
-1.97767467564e-09
-3.68427960659e-10
-1.7757007054e-08
-2.20486068704e-09
-3.63342200679e-10
-1.83547193176e-08
-2.41309917541e-09
-3.02432287203e-10
-1.88250822212e-08
-2.58991185053e-09
-1.98040548107e-10
-1.9163899732e-08
-2.72470246379e-09
-6.61304236588e-11
-1.93743075255e-08
-2.80997300681e-09
7.49823140841e-11
-1.94525355712e-08
-2.84016772138e-09
2.06792447083e-10
-1.93738680299e-08
-2.80979875472e-09
3.1098923664e-10
-1.91630452781e-08
-2.72435639618e-09
3.71618368274e-10
-1.88238668654e-08
-2.58940269345e-09
3.76336017155e-10
-1.83532476536e-08
-2.41244082601e-09
3.17804655517e-10
-1.77554299417e-08
-2.20407261376e-09
1.92326792933e-10
-1.70393113468e-08
-1.97678119862e-09
-1.62534400433e-08
-1.74293405177e-09
5.10470993803e-12
-2.38724886836e-10
-1.80493147886e-08
-2.35721359123e-09
-7.77568090633e-13
-3.94734057805e-10
-1.88819481078e-08
-2.67046893102e-09
-4.67810917585e-10
-1.96261078183e-08
-2.97140432535e-09
-4.61459715236e-10
-2.02401092183e-08
-3.2445443487e-09
-3.84565612385e-10
-2.07194629108e-08
-3.47461915806e-09
-2.52300701161e-10
-2.10626857262e-08
-3.64896148835e-09
-8.48963852933e-11
-2.12752347929e-08
-3.75879890277e-09
9.4271364119e-11
-2.13543975156e-08
-3.79760491958e-09
2.61586807241e-10
-2.12747809741e-08
-3.75861552907e-09
3.93675396331e-10
-2.10618051986e-08
-3.64859647955e-09
4.70308365377e-10
-2.07182117192e-08
-3.47408013643e-09
4.76305351311e-10
-2.02385879598e-08
-3.24384375983e-09
4.0275656721e-10
-1.96244574473e-08
-2.9705602014e-09
2.4607390146e-10
-1.88803119524e-08
-2.66950412682e-09
-1.80478542424e-08
-2.35616298457e-09
5.63758703988e-12
-2.87060058479e-10
-1.90070273577e-08
-2.88954424701e-09
-7.57244446088e-13
-4.72783504808e-10
-1.98389892708e-08
-3.26750512028e-09
-5.59852469857e-10
-2.05672712161e-08
-3.62643053272e-09
-5.52193251884e-10
-2.11614207871e-08
-3.9492310631e-09
-4.60404805771e-10
-2.16218088308e-08
-4.2191837106e-09
-3.02403993121e-10
-2.19497894632e-08
-4.42265834631e-09
-1.02360903162e-10
-2.21524631959e-08
-4.55038285726e-09
1.11759409575e-10
-2.22280958184e-08
-4.59541096074e-09
3.11724719127e-10
-2.21520268272e-08
-4.5502001683e-09
4.69569016122e-10
-2.1948943085e-08
-4.42229424817e-09
5.61119892527e-10
-2.16206063616e-08
-4.21864491733e-09
5.68449057632e-10
-2.11599525777e-08
-3.94852860422e-09
4.80928903457e-10
-2.05656613724e-08
-3.62558061041e-09
2.94565690305e-10
-1.98373511712e-08
-3.26652808778e-09
-1.90054833641e-08
-2.88847201638e-09
5.85088900226e-12
-3.30022504761e-10
-1.9245448308e-08
-3.30969641751e-09
-7.08405497635e-13
-5.43722139067e-10
-2.00417523254e-08
-3.7364881975e-09
-6.43742361802e-10
-2.07253765783e-08
-4.13763722413e-09
-6.34826452304e-10
-2.12769053749e-08
-4.49562869228e-09
-5.29353707171e-10
-2.17014136733e-08
-4.79325575184e-09
-3.47911180999e-10
-2.2002641936e-08
-5.01663721634e-09
-1.18275663659e-10
-2.21884841165e-08
-5.15643356204e-09
1.27487404363e-10
-2.22579357242e-08
-5.20560349924e-09
3.57050431107e-10
-2.2188083017e-08
-5.15625542031e-09
5.38345609427e-10
-2.20018638488e-08
-5.01628224705e-09
6.43591842885e-10
-2.17003072477e-08
-4.79273056868e-09
6.52190229392e-10
-2.12755481201e-08
-4.49494393103e-09
5.51735287112e-10
-2.07238714702e-08
-4.13680819798e-09
3.37431262148e-10
-2.00401881464e-08
-3.73553328275e-09
-1.92438928485e-08
-3.30864420616e-09
5.86079635841e-12
-3.68054210507e-10
-1.88915104827e-08
-3.60786602176e-09
-6.46357278049e-13
-6.07666509061e-10
-1.96279319336e-08
-4.06985159273e-09
-7.19612690971e-10
-2.02498968284e-08
-4.50040582414e-09
-7.09556751783e-10
-2.07461946463e-08
-4.8822876922e-09
-5.91613372155e-10
-2.11260560193e-08
-5.19834395169e-09
-3.8894305545e-10
-2.13948607126e-08
-5.43479062208e-09
-1.32622601323e-10
-2.15604888368e-08
-5.58239005854e-09
1.41630908039e-10
-2.16224001195e-08
-5.63416414403e-09
3.97876796093e-10
-2.15601308377e-08
-5.582216916e-09
6.00395081159e-10
-2.13941656819e-08
-5.43444614685e-09
7.18105092741e-10
-2.11250649535e-08
-5.19783549558e-09
7.27836370319e-10
-2.07449719484e-08
-4.88162668038e-09
6.15453953218e-10
-2.02485237078e-08
-4.49960800682e-09
3.75255951749e-10
-1.96264749512e-08
-4.06893451008e-09
-1.88899801506e-08
-3.60685572519e-09
5.77098335957e-12
-4.02055690745e-10
-1.8067249347e-08
-3.78803338109e-09
-5.81927935288e-13
-6.6534215154e-10
-1.87281703418e-08
-4.27482271093e-09
-7.88258845167e-10
-1.92795331349e-08
-4.72544092791e-09
-7.77189278227e-10
-1.9714903088e-08
-5.12321722162e-09
-6.47872701277e-10
-2.00467916001e-08
-5.45128659808e-09
-4.25947329886e-10
-2.02813186625e-08
-5.69610435688e-09
-1.45526533606e-10
-2.04256591256e-08
-5.84858365443e-09
1.54415382496e-10
-2.04795191685e-08
-5.90189401198e-09
4.34753117344e-10
-2.04253436655e-08
-5.84841471807e-09
6.56509851146e-10
-2.02807048558e-08
-5.69576908265e-09
7.85569691473e-10
-2.00459121558e-08
-5.45079364755e-09
7.96288623502e-10
-1.97138083644e-08
-5.12257968272e-09
6.72914101912e-10
-1.927828513e-08
-4.7246760822e-09
4.09039269038e-10
-1.87268150849e-08
-4.2739483202e-09
-1.8065757722e-08
-3.7870741279e-09
5.6544002038e-12
-4.32967789213e-10
-1.68829561489e-08
-3.8610069732e-09
-5.2176991975e-13
-7.17788025079e-10
-1.74592657827e-08
-4.36514537177e-09
-8.50867800953e-10
-1.79362447071e-08
-4.82933561974e-09
-8.38857179911e-10
-1.83095907557e-08
-5.23752267837e-09
-6.99040468728e-10
-1.85937702243e-08
-5.57321405272e-09
-4.59499190466e-10
-1.87946210882e-08
-5.82317910949e-09
-1.57173131339e-10
-1.89180676067e-08
-5.97851322823e-09
1.66062018993e-10
-1.89639180546e-08
-6.03260602452e-09
4.68291997806e-10
-1.89177881275e-08
-5.97834774293e-09
7.07639473933e-10
-1.87940749504e-08
-5.82285163342e-09
8.47164344181e-10
-1.85929817669e-08
-5.57273479567e-09
8.58783810543e-10
-1.83085967799e-08
-5.23690683043e-09
7.25208639373e-10
-1.79350892796e-08
-4.82860263397e-09
4.39775865576e-10
-1.74579779939e-08
-4.36431390361e-09
-1.68814781313e-08
-3.86010134591e-09
5.55655608918e-12
-4.61524095768e-10
-1.54352656188e-08
-3.83969653679e-09
-4.68405583147e-13
-7.66198444055e-10
-1.59224457929e-08
-4.3559247887e-09
-9.08869235391e-10
-1.63246567027e-08
-4.82918471127e-09
-8.95839249904e-10
-1.66382358711e-08
-5.24393549475e-09
-7.46059536261e-10
-1.68775022815e-08
-5.58410000289e-09
-4.90163362818e-10
-1.7046912676e-08
-5.83685281302e-09
-1.67750375988e-10
-1.71508078306e-08
-5.9935338237e-09
1.76756884821e-10
-1.71890576447e-08
-6.04783803623e-09
4.99058085097e-10
-1.7150552868e-08
-5.99337162433e-09
7.54730057481e-10
-1.70464119177e-08
-5.83653275862e-09
9.04175721043e-10
-1.68767716401e-08
-5.58363380023e-09
9.16765217384e-10
-1.66372999149e-08
-5.24334048927e-09
7.73550480031e-10
-1.63235437539e-08
-4.82848276353e-09
4.68224881029e-10
-1.59211700948e-08
-4.35513573853e-09
-1.54337575079e-08
-3.83884490217e-09
5.49975344846e-12
-4.88196146467e-10
-1.38078798809e-08
-3.73655580775e-09
-4.20770969594e-13
-8.12055609278e-10
-1.42039341246e-08
-4.26115434773e-09
-9.63957193862e-10
-1.45338663612e-08
-4.74030224805e-09
-9.4942821905e-10
-1.47929132845e-08
-5.15875927558e-09
-7.89743451011e-10
-1.4991975114e-08
-5.50094564736e-09
-5.18375927439e-10
-1.51332459589e-08
-5.75459291983e-09
-1.77401224597e-10
-1.52195222702e-08
-5.91138961241e-09
1.866232545e-10
-1.52508175487e-08
-5.96543509046e-09
5.27468829153e-10
-1.52192771378e-08
-5.91123125562e-09
7.98579360431e-10
-1.51327608731e-08
-5.75428123731e-09
9.57884141972e-10
-1.49912597118e-08
-5.50049356561e-09
9.71918853693e-10
-1.47919814472e-08
-5.15818604102e-09
8.19418678387e-10
-1.45327332616e-08
-4.73963210273e-09
4.94859425053e-10
-1.42026024823e-08
-4.26040848872e-09
-1.38062837573e-08
-3.73575897128e-09
5.49009102003e-12
-5.14075385613e-10
-1.20724709597e-08
-3.56253094982e-09
-3.79184656526e-13
-8.58138482522e-10
-1.23761175305e-08
-4.09298136788e-09
-1.01825143968e-09
-1.26405676262e-08
-4.5757498518e-09
-1.00066603053e-09
-1.28531466425e-08
-4.99562098159e-09
-8.30489019846e-10
-1.30178268778e-08
-5.33774340807e-09
-5.4426483104e-10
-1.31347082367e-08
-5.5906370921e-09
-1.86160323024e-10
-1.32055531744e-08
-5.74647010135e-09
1.95668892151e-10
-1.32306770211e-08
-5.79984581577e-09
5.53626691877e-10
-1.32052992549e-08
-5.746316824e-09
8.3955973431e-10
-1.31342033081e-08
-5.59033600921e-09
1.00930948516e-09
-1.30170764485e-08
-5.33730820187e-09
1.02634518869e-09
-1.28521566175e-08
-4.99507226e-09
8.6557622197e-10
-1.26393427261e-08
-4.57511402657e-09
5.20759490111e-10
-1.23746490514e-08
-4.09228150645e-09
-1.20707083738e-08
-3.56179215674e-09
5.51418730002e-12
-5.45365027712e-10
-1.02852944382e-08
-3.32683936337e-09
-3.45367115467e-13
-9.10576378921e-10
-1.0500893398e-08
-3.86196929788e-09
-1.07433758961e-09
-1.07138463066e-08
-4.34667848365e-09
-1.05017812649e-09
-1.08890438028e-08
-4.76589755058e-09
-8.68305835623e-10
-1.10247704623e-08
-5.10603777528e-09
-5.67753946926e-10
-1.11207748819e-08
-5.35667497988e-09
-1.94008546331e-10
-1.11784005564e-08
-5.51057020437e-09
2.03846765121e-10
-1.11981989488e-08
-5.56290953422e-09
5.77427852824e-10
-1.1178116259e-08
-5.51042385435e-09
8.77654005177e-10
-1.11202087076e-08
-5.35638789289e-09
1.05905182528e-09
-1.10239254313e-08
-5.10562378733e-09
1.08260597367e-09
-1.08879236957e-08
-4.76537774243e-09
9.18132580664e-10
-1.07124512052e-08
-4.34608082729e-09
5.52114623113e-10
-1.04992018887e-08
-3.8613197519e-09
-1.02832763197e-08
-3.32616518058e-09
5.57933405996e-12
-6.02821583389e-10
-3.03661397362e-09
-3.08052625894e-13
-8.47471781208e-09
-9.80864162853e-10
-3.5774661452e-09
-8.64007455325e-09
-1.13992297368e-09
-4.06221251418e-09
-8.8174529999e-09
-1.10492536436e-09
-4.47878807694e-09
-8.96225778885e-09
-9.09297291897e-10
-4.81530567258e-09
-9.07389311121e-09
-5.93061079609e-10
-5.06248761244e-09
-9.15303600577e-09
-2.02451694088e-10
-5.21369382223e-09
-9.20025890214e-09
2.12637651608e-10
-5.26471612639e-09
-9.21585628777e-09
6.03064762585e-10
-5.21355682727e-09
-9.19991895458e-09
9.18941102023e-10
-5.06221911878e-09
-9.15235935815e-09
1.1140454877e-09
-4.81491911953e-09
-9.07288474203e-09
1.14837929531e-09
-4.47830388903e-09
-8.96092349739e-09
9.88547544207e-10
-4.06165901051e-09
-8.81579377096e-09
6.09649424872e-10
-3.57686900915e-09
-8.63807211122e-09
-3.0360185252e-09
5.6611152953e-12
-8.47234701232e-09
-6.95687232155e-12
3.86754280597e-10
-4.66595777937e-10
8.22969228485e-14
-1.05398055704e-11
4.27324185929e-10
-5.17523130533e-10
-1.14170342283e-11
4.6624014122e-10
-5.65958749884e-10
-1.07743860422e-11
5.01939775399e-10
-6.09645501569e-10
-8.79875336838e-12
5.31655847824e-10
-6.46297310295e-10
-5.80403107666e-12
5.53984491334e-10
-6.74021521308e-10
-2.13330534379e-12
5.68008025369e-10
-6.91548578164e-10
1.77772594917e-12
5.73011609869e-10
-6.97845907146e-10
5.44789223162e-12
5.67940014955e-10
-6.91542220747e-10
8.4362387517e-12
5.53850117492e-10
-6.74008835334e-10
1.03931091423e-11
5.31469291824e-10
-6.46278373949e-10
1.10202145497e-11
5.01745963625e-10
-6.09620301607e-10
1.01297973978e-11
4.66056691185e-10
-5.65927389414e-10
6.57128686028e-12
4.27215233947e-10
-5.1748544367e-10
3.8670814908e-10
-4.66550757994e-10
-2.35949609595e-13
-9.80656033075e-12
1.10358734065e-09
-1.22852092442e-09
2.06129336574e-13
-1.39098663908e-11
1.20532049773e-09
-1.35981663107e-09
-1.44017574208e-11
1.30121881757e-09
-1.48412684177e-09
-1.29380154595e-11
1.38716689872e-09
-1.59579065726e-09
-1.02399290186e-11
1.45777449859e-09
-1.68917242366e-09
-6.71108065326e-12
1.51019358971e-09
-1.75964178202e-09
-2.65754554533e-12
1.54291714991e-09
-1.80411512792e-09
1.59681047735e-12
1.55462798441e-09
-1.82006324744e-09
5.64979618872e-12
1.54278940934e-09
-1.80409588825e-09
9.16748879654e-12
1.50994114024e-09
-1.75960329304e-09
1.18345725972e-11
1.45742380084e-09
-1.68911511684e-09
1.32696860082e-11
1.38679521176e-09
-1.59571489022e-09
1.27723077129e-11
1.3008902025e-09
-1.48403322545e-09
8.74879332428e-12
1.20513740855e-09
-1.35970526898e-09
1.10355188467e-09
-1.22839065353e-09
-6.76613327097e-13
-5.56548824991e-12
1.85954252653e-09
-1.85680110168e-09
2.89429777093e-13
-5.60411022055e-12
2.00863705245e-09
-2.05573457942e-09
-3.92322593149e-12
2.14701136002e-09
-2.24352827937e-09
-2.05928789129e-12
2.26816204657e-09
-2.41182724691e-09
-8.94079550921e-13
2.36616805383e-09
-2.55232571378e-09
-5.24548503362e-13
2.43795571077e-09
-2.65821325401e-09
-7.01203636307e-13
2.482457607e-09
-2.72494507149e-09
-1.03068565102e-12
2.49844334699e-09
-2.74881073523e-09
-1.20612375075e-12
2.48231997371e-09
-2.72491220001e-09
-8.44630435337e-13
2.43768609951e-09
-2.65814855432e-09
2.95321179423e-13
2.36580119151e-09
-2.55223059761e-09
2.13910375102e-12
2.26778624431e-09
-2.4117027188e-09
3.84236931232e-12
2.14671806097e-09
-2.24337563822e-09
3.9405557402e-12
2.0085295713e-09
-2.05555494605e-09
1.85963866063e-09
-1.85659431004e-09
-1.07445242219e-12
2.8815110169e-12
2.49247745814e-09
-2.37987022331e-09
3.42133818009e-13
9.20726449381e-12
2.6624049554e-09
-2.63744935624e-09
1.38445991738e-11
2.81780921807e-09
-2.87988640878e-09
1.55899877611e-11
2.95041128726e-09
-3.09668490099e-09
1.38644206846e-11
3.05570494761e-09
-3.27738006092e-09
9.14099917126e-12
3.13162972497e-09
-3.41339917745e-09
2.47192422547e-12
3.17832846142e-09
-3.49900287624e-09
-4.81345217056e-12
3.19520401247e-09
-3.52953342508e-09
-1.14784119921e-11
3.17821033038e-09
-3.49895675746e-09
-1.62016286753e-11
3.13140193731e-09
-3.41330902261e-09
-1.7936739324e-11
3.05540458119e-09
-3.27724778279e-09
-1.61889120055e-11
2.95012293476e-09
-3.09651297417e-09
-1.14936409124e-11
2.8176334962e-09
-2.87967803546e-09
-4.9775893355e-12
2.66243960427e-09
-2.63720725975e-09
2.49274681448e-09
-2.3795968329e-09
-1.42755527131e-12
1.33351254034e-11
2.92517169186e-09
-2.80343969552e-09
3.71635529232e-13
2.6360114776e-11
3.09057125636e-09
-3.11137884351e-09
3.37865175514e-11
3.23967083243e-09
-3.40033175535e-09
3.48981138573e-11
3.36327232645e-09
-3.6581677197e-09
2.97222603703e-11
3.45928013398e-09
-3.87272827128e-09
1.94225261493e-11
3.52723109343e-09
-4.03405007355e-09
5.86870062289e-12
3.56866299858e-09
-4.13543472122e-09
-8.73035453099e-12
3.5837798342e-09
-4.17148854057e-09
-2.22768737717e-11
3.56857495424e-09
-4.1353761613e-09
-3.2566590412e-11
3.52706559505e-09
-4.03393576987e-09
-3.77332949157e-11
3.45907266398e-09
-3.87256135512e-09
-3.65917697986e-11
3.36310111062e-09
-3.65795244698e-09
-2.90715950112e-11
3.23963132302e-09
-3.4000734648e-09
-1.58127372176e-11
3.09075907907e-09
-3.11108233094e-09
2.92561004837e-09
-2.80310986284e-09
-1.73110714365e-12
2.41340242722e-11
3.14470319922e-09
-3.13343169111e-09
3.82936441633e-13
4.30763592205e-11
3.28861567944e-09
-3.48423436217e-09
5.26678598818e-11
3.41635112787e-09
-3.81239387448e-09
5.27747073588e-11
3.51881643118e-09
-4.10458701096e-09
4.41675364058e-11
3.59631204794e-09
-4.3473669486e-09
2.86956283354e-11
3.64992061675e-09
-4.52969731477e-09
8.93331717832e-12
3.68228382835e-09
-4.64411822735e-09
-1.22088685531e-11
3.69427285872e-09
-4.68468085504e-09
-3.19610040237e-11
3.6822255892e-09
-4.6440475875e-09
-4.74140458736e-11
3.64981569997e-09
-4.52955969637e-09
-5.59938403419e-11
3.5961935802e-09
-4.3471670328e-09
-5.58313464264e-11
3.51875204591e-09
-4.10433129177e-09
-4.61133856598e-11
3.41642789564e-09
-3.8120903359e-09
-2.69075640006e-11
3.28891576921e-09
-3.48389024255e-09
3.14526475872e-09
-3.13305427176e-09
-1.98331428387e-12
3.41411769204e-11
3.17657924742e-09
-3.37594558527e-09
3.81663142263e-13
5.77838556732e-11
3.29162763645e-09
-3.76292198487e-09
6.88224390369e-11
3.39174360774e-09
-4.12380897612e-09
6.77457275853e-11
3.46896925645e-09
-4.44446014894e-09
5.6077421128e-11
3.52540753162e-09
-4.71048449444e-09
3.62664569233e-11
3.56328426067e-09
-4.91004307513e-09
1.14323931973e-11
3.58586950961e-09
-5.03508315938e-09
-1.50139411765e-11
3.59444242796e-09
-5.07925931485e-09
-3.98354675155e-11
3.58583594563e-09
-5.03500095165e-09
-5.96201203187e-11
3.56322831453e-09
-4.90988325174e-09
-7.12455541041e-11
3.52535859511e-09
-4.71025353765e-09
-7.22445801335e-11
3.46898377928e-09
-4.44416712819e-09
-6.10543803995e-11
3.39189867821e-09
-4.1234648835e-09
-3.71287370242e-11
3.29199377332e-09
-3.76253670309e-09
3.17720264004e-09
-3.37552865988e-09
-2.18277727071e-12
4.26963570085e-11
3.06280960792e-09
-3.53701957056e-09
3.70240265148e-13
6.98226668458e-11
3.14905401976e-09
-3.95421246977e-09
8.16866908172e-11
3.22177360695e-09
-4.34208315343e-09
7.94175496429e-11
3.27511811206e-09
-4.68596764734e-09
6.5218423263e-11
3.31224962542e-09
-4.97082461819e-09
4.20199058253e-11
3.33606506694e-09
-5.18425164162e-09
1.33288623175e-11
3.35001364243e-09
-5.31775763245e-09
-1.71196026193e-11
3.35553242967e-09
-5.3647478709e-09
-4.57960776514e-11
3.3499980188e-09
-5.31766467167e-09
-6.89620017077e-11
3.33604381803e-09
-5.18407127511e-09
-8.31054821788e-11
3.31224746604e-09
-4.97056525758e-09
-8.52786078106e-11
3.27518068954e-09
-4.68564110396e-09
-7.32444213982e-11
3.22196457866e-09
-4.34170360117e-09
-4.58248642913e-11
3.14943342973e-09
-3.95379246195e-09
3.06342392901e-09
-3.53657083631e-09
-2.33284580705e-12
4.94955198071e-11
2.84745531011e-09
-3.62239236589e-09
3.51692413338e-13
7.90798057683e-11
2.90926805805e-09
-4.06445621978e-09
9.13188831852e-11
2.95844315733e-09
-4.47417188244e-09
8.79763848261e-11
2.99201387234e-09
-4.83660867979e-09
7.18155689553e-11
3.01358353049e-09
-5.13632882198e-09
4.61300916306e-11
3.02633163601e-09
-5.36058709094e-09
1.4682058753e-11
3.03355332923e-09
-5.50060536433e-09
-1.8603768917e-11
3.03665535412e-09
-5.54968317692e-09
-5.00351013677e-11
3.03354922223e-09
-5.50050283581e-09
-7.56822079933e-11
3.02633139854e-09
-5.36038852102e-09
-9.17763844838e-11
3.01360622967e-09
-5.13604454579e-09
-9.50080867148e-11
2.9920942659e-09
-4.83625324197e-09
-8.25849527745e-11
2.95863204404e-09
-4.4737626191e-09
-5.27045369622e-11
2.90961345662e-09
-4.06400821212e-09
2.84800378242e-09
-3.62191946499e-09
-2.43856086777e-12
5.44852054703e-11
2.5691520544e-09
-3.63738577092e-09
3.28816677741e-13
8.57275415989e-11
2.61250385825e-09
-4.09948001457e-09
9.80698439065e-11
2.64332209735e-09
-4.5264108906e-09
9.38606964505e-11
2.66200250798e-09
-4.90317229499e-09
7.62824683031e-11
2.67220012758e-09
-5.2141474337e-09
4.88851771289e-11
2.67708795719e-09
-5.44645860184e-09
1.55886882406e-11
2.67958856484e-09
-5.59119461276e-09
-1.95836278798e-11
2.68095350365e-09
-5.64169214317e-09
-5.2860915834e-11
2.67958988357e-09
-5.59108406332e-09
-8.02140340516e-11
2.6770960139e-09
-5.44624482804e-09
-9.7715675688e-11
2.67222801775e-09
-5.21384256078e-09
-1.01801299438e-10
2.66207441521e-09
-4.90279343623e-09
-8.9264557071e-11
2.64347515119e-09
-4.52597836445e-09
-5.77261047512e-11
2.61277431071e-09
-4.09901114437e-09
2.56957973829e-09
-3.63689646519e-09
-2.50753807153e-12
5.77794654349e-11
2.25841615446e-09
-3.58691476008e-09
3.03501564217e-13
9.00847602847e-11
2.28904762413e-09
-4.06465257853e-09
1.02426325952e-10
2.30656442257e-09
-4.50464999052e-09
9.76176831939e-11
2.31490826131e-09
-4.89192928403e-09
7.91068145275e-11
2.31757204916e-09
-5.21087755597e-09
5.06147914563e-11
2.31748460985e-09
-5.44869373096e-09
1.61591157949e-11
2.31705116579e-09
-5.59649447992e-09
-2.01880646604e-11
2.31729175757e-09
-5.64779647159e-09
-5.46215499724e-11
2.31705192028e-09
-5.59637776858e-09
-8.30632164536e-11
2.31748904415e-09
-5.44846831518e-09
-1.01488042415e-10
2.31758701054e-09
-5.21055709993e-09
-1.06162037596e-10
2.31494811224e-09
-4.89153317233e-09
-9.36177614438e-11
2.30665330951e-09
-4.50420123787e-09
-6.10179022241e-11
2.289210122e-09
-4.06417038166e-09
2.25868207382e-09
-3.58641693537e-09
-2.54709190215e-12
5.95852374194e-11
1.93768684157e-09
-3.47557137213e-09
2.75452904604e-13
9.25848151491e-11
1.96004931391e-09
-3.96505387907e-09
1.05006907471e-10
1.9684300784e-09
-4.41449467814e-09
9.99030418639e-11
1.97024456568e-09
-4.80890996551e-09
8.08472209312e-11
1.96860863323e-09
-5.13286097514e-09
5.16862927508e-11
1.96595273645e-09
-5.37385143021e-09
1.65167532763e-11
1.96406639233e-09
-5.52319852689e-09
-2.05549449784e-11
1.96369289117e-09
-5.57474026971e-09
-5.56986753494e-11
1.96406087077e-09
-5.52307777661e-09
-8.4802752535e-11
1.96594153946e-09
-5.37361840006e-09
-1.03763198842e-10
1.96859349645e-09
-5.13253049676e-09
-1.08722387211e-10
1.97023079515e-09
-4.80850327104e-09
-9.60906765953e-11
1.96843025061e-09
-4.41403715281e-09
-6.2798229204e-11
1.9600779338e-09
-3.96456629398e-09
1.93776335806e-09
-3.47507310663e-09
-2.56481061924e-12
6.02224454003e-11
1.62251211005e-09
-3.30772189573e-09
2.46347467656e-13
9.39470718817e-11
1.63914529834e-09
-3.80571839924e-09
1.06745160652e-10
1.64155455953e-09
-4.2615965735e-09
1.01611793533e-10
1.63999265967e-09
-4.66017270892e-09
8.22116207553e-11
1.63674705678e-09
-4.98643204279e-09
5.25472119211e-11
1.633482557e-09
-5.22846241488e-09
1.68099656107e-11
1.6313232847e-09
-5.37796424473e-09
-2.08420521382e-11
1.63075082175e-09
-5.42922986498e-09
-5.65497282878e-11
1.6313046444e-09
-5.37784182848e-09
-8.61500575109e-11
1.63344353331e-09
-5.22822623276e-09
-1.05445570203e-10
1.63668524906e-09
-4.98609758644e-09
-1.10424803391e-10
1.63990575679e-09
-4.6597624594e-09
-9.74107526412e-11
1.64144396908e-09
-4.26113795031e-09
-6.33941997049e-11
1.63901571008e-09
-3.80523386586e-09
1.62237545719e-09
-3.30723215747e-09
-2.56488800261e-12
6.03692623377e-11
1.32275555831e-09
-3.08757717965e-09
2.17380950762e-13
9.55407310727e-11
1.33410799077e-09
-3.59203670918e-09
1.0912626551e-10
1.33331611988e-09
-4.05196709331e-09
1.04001055199e-10
1.33125972435e-09
-4.45198882249e-09
8.41285795686e-11
1.32867371253e-09
-4.77805091867e-09
5.37609375453e-11
1.32635317508e-09
-5.01914949985e-09
1.72301645326e-11
1.32484082474e-09
-5.16753204654e-09
-2.12462065209e-11
1.32438436906e-09
-5.21805312144e-09
-5.77429130482e-11
1.32480218465e-09
-5.16741062616e-09
-8.80384105416e-11
1.32627254737e-09
-5.01891515821e-09
-1.07796840604e-10
1.32854592616e-09
-4.77771914948e-09
-1.12759377888e-10
1.33107792767e-09
-4.45158244073e-09
-9.89527212463e-11
1.33307465313e-09
-4.05151496421e-09
-6.34894476138e-11
1.33379872896e-09
-3.59156394292e-09
1.32238140144e-09
-3.087106636e-09
-2.55232925516e-12
5.96500413348e-11
-2.82029842924e-09
1.8487778495e-13
1.04668458468e-09
9.90260733539e-11
-3.33146389942e-09
1.04878438247e-09
1.13756877412e-10
-3.79263314167e-09
1.04905496994e-09
1.08401314487e-10
-4.19110005832e-09
1.04896586315e-09
8.76413334177e-11
-4.51437566672e-09
1.04853589284e-09
5.60145285913e-11
-4.75258790806e-09
1.04810707395e-09
1.80113296584e-11
-4.89861857356e-09
1.04778653793e-09
-2.20032814612e-11
-4.94794995903e-09
1.04764830544e-09
-5.99676588965e-11
-4.89850132721e-09
1.04771842552e-09
-9.15131081948e-11
-4.75236145141e-09
1.047969032e-09
-1.12147810855e-10
-4.51405480189e-09
1.04832136296e-09
-1.17330201226e-10
-4.19070664063e-09
1.04866691324e-09
-1.02374600713e-10
-3.79219633587e-09
1.04865906472e-09
-6.27105066228e-11
-3.33100892988e-09
1.04827700127e-09
-2.81986443847e-09
-2.5238741802e-12
1.04604307556e-09
5.65546954561e-12
-8.22871994085e-11
-3.89992872464e-10
-5.95332919725e-14
8.75506533545e-12
-9.16963603093e-11
-4.29065550235e-10
1.00740672195e-11
-1.01510457103e-10
-4.65932984451e-10
9.82962416738e-12
-1.10542898479e-10
-4.98999967025e-10
8.17021097155e-12
-1.18161807664e-10
-5.26610704004e-10
5.37630957394e-12
-1.23920170446e-10
-5.47419442482e-10
1.83641368138e-12
-1.27543151032e-10
-5.60550331911e-10
-1.96962881338e-12
-1.2882391515e-10
-5.65278082089e-10
-5.50102875974e-12
-1.27516733636e-10
-5.60541263896e-10
-8.27749840263e-12
-1.23869107726e-10
-5.47401542749e-10
-9.91207169766e-12
-1.18091990515e-10
-5.26584473461e-10
-1.01307591616e-11
-1.10465178339e-10
-4.98966095315e-10
-8.77437070434e-12
-1.01418911488e-10
-4.65892177228e-10
-5.64279759176e-12
-9.16242399818e-11
-4.29018322777e-10
-8.22445669269e-11
-3.89938308753e-10
-3.42192221338e-14
1.26590248056e-11
-1.87016569048e-10
-1.13645710453e-09
-1.44820480911e-13
2.02414684118e-11
-2.0598912229e-10
-1.25333460696e-09
2.3570838791e-11
-2.25492215563e-10
-1.36372302723e-09
2.30846888848e-11
-2.43319189561e-10
-1.46275557002e-09
1.9211820117e-11
-2.58182990859e-10
-1.54548285717e-09
1.26471662824e-11
-2.69309780864e-10
-1.60785568706e-09
4.32632731091e-12
-2.76271584529e-10
-1.64719415307e-09
-4.61755686711e-12
-2.78736531016e-10
-1.66130282268e-09
-1.29189638639e-11
-2.76217438568e-10
-1.64716785041e-09
-1.94442433097e-11
-2.69203803919e-10
-1.60780371718e-09
-2.32614602873e-11
-2.5803523428e-10
-1.54540668553e-09
-2.36835389594e-11
-2.43147695779e-10
-1.46265721169e-09
-2.02725420156e-11
-2.2530162536e-10
-1.36360472665e-09
-1.26173357215e-11
-2.05826435359e-10
-1.25319799325e-09
-1.86914534739e-10
-1.13630142008e-09
-7.18139015812e-14
1.63454140968e-11
-2.73583053874e-10
-1.78652111328e-09
-1.98167288903e-13
2.6535421722e-11
-2.98619453947e-10
-1.97350248937e-09
3.10797109091e-11
-3.23968480938e-10
-2.14981866127e-09
3.04754444363e-11
-3.46970895032e-10
-2.30777476608e-09
2.53587381524e-11
-3.65978033968e-10
-2.43959468762e-09
1.66894123964e-11
-3.80091565053e-10
-2.53891098173e-09
5.71884831575e-12
-3.88877082679e-10
-2.60148361324e-09
-6.06515340905e-12
-3.91989667844e-10
-2.62386040432e-09
-1.70111336566e-11
-3.8881021199e-10
-2.60144121694e-09
-2.56312601517e-11
-3.79960671758e-10
-2.53882732769e-09
-3.06781096028e-11
-3.65795137891e-10
-2.43947224784e-09
-3.11985448163e-11
-3.46756857859e-10
-2.30761698127e-09
-2.65519967917e-11
-3.23734636563e-10
-2.14962955326e-09
-1.62704182985e-11
-2.98414634741e-10
-1.9732852904e-09
-2.73454303138e-10
-1.78627617702e-09
-8.22457703332e-14
1.77297190224e-11
-3.41206616893e-10
-2.32988241783e-09
-2.27993839269e-13
2.90626626142e-11
-3.69694109189e-10
-2.5778918279e-09
3.41992542826e-11
-3.97977860543e-10
-2.81121029142e-09
3.35756852719e-11
-4.23343655221e-10
-3.0198688412e-09
2.79395134428e-11
-4.4409307921e-10
-3.19378560301e-09
1.83889821982e-11
-4.59370414166e-10
-3.32469827372e-09
6.318148461e-12
-4.68832554795e-10
-3.40707719369e-09
-6.64171433473e-12
-4.72187953823e-10
-3.43645314495e-09
-1.86872372186e-11
-4.6876352922e-10
-3.407019807e-09
-2.81876952757e-11
-4.59235402129e-10
-3.32458522868e-09
-3.37520190377e-11
-4.439030703e-10
-3.19362048957e-09
-3.42870282629e-11
-4.23118829019e-10
-3.0196567327e-09
-2.90444333035e-11
-3.9773541756e-10
-2.81095729702e-09
-1.76175217344e-11
-3.69479339183e-10
-2.57760330922e-09
-3.410653587e-10
-2.32956072498e-09
-7.18238759928e-14
1.75293817612e-11
-3.8944761721e-10
-2.77261114342e-09
-2.40226886941e-13
2.89550447689e-11
-4.19309901815e-10
-3.07334994928e-09
3.42073448561e-11
-4.48227582464e-10
-3.35550615352e-09
3.3628581999e-11
-4.73736904879e-10