/*--------------------------------*- C++ -*----------------------------------*\
  =========                 |
  \\      /  F ield         | OpenFOAM: The Open Source CFD Toolbox
   \\    /   O peration     | Website:  https://openfoam.org
    \\  /    A nd           | Version:  7
     \\/     M anipulation  |
\*---------------------------------------------------------------------------*/
FoamFile
{
    version     2.0;
    format      ascii;
    class       volVectorField;
    location    "1.82";
    object      U;
}
// * * * * * * * * * * * * * * * * * * * * * * * * * * * * * * * * * * * * * //

dimensions      [0 1 -1 0 0 0 0];

internalField   nonuniform List<vector> 
22500
(
(-2.36824362207e-05 -2.65954396431e-05 3.96691128703e-05)
(-2.20421806299e-05 -3.03047636784e-05 4.16077040986e-05)
(-1.95378905029e-05 -3.39473739447e-05 4.31163108676e-05)
(-1.64821112994e-05 -3.71465003899e-05 4.41443331396e-05)
(-1.28453311193e-05 -3.98032005646e-05 4.48093351665e-05)
(-8.79809292035e-06 -4.17822807677e-05 4.52160333923e-05)
(-4.46035345793e-06 -4.30024575864e-05 4.5432969285e-05)
(2.68602244661e-08 -4.34134877967e-05 4.55036402413e-05)
(4.51350714227e-06 -4.29963713822e-05 4.54569651222e-05)
(8.8495692394e-06 -4.17703321615e-05 4.52636546859e-05)
(1.28942796258e-05 -3.97857668875e-05 4.48797870182e-05)
(1.65278943009e-05 -3.71243076858e-05 4.42362607687e-05)
(1.95800059821e-05 -3.39210855765e-05 4.32278627008e-05)
(2.20808168084e-05 -3.0275386316e-05 4.17363075547e-05)
(2.37150904142e-05 -2.6565988486e-05 3.98101728317e-05)
(-7.04907363643e-05 -7.87975832726e-05 -7.15175824497e-05)
(-6.54569820427e-05 -8.96403698537e-05 -8.50823942664e-05)
(-5.80896373439e-05 -0.000100261327387 -9.91091720433e-05)
(-4.90079057704e-05 -0.000109596133571 -0.0001126186361)
(-3.82375617124e-05 -0.000117337082223 -0.000124452795754)
(-2.62086781318e-05 -0.000123106856701 -0.000133629076461)
(-1.32947471323e-05 -0.000126667441625 -0.000139430301299)
(7.56851492245e-08 -0.000127866740983 -0.000141405978954)
(1.34445369564e-05 -0.000126649629682 -0.000139359836555)
(2.63538448069e-05 -0.000123071894139 -0.000133489091934)
(3.83755623698e-05 -0.000117286191425 -0.000124245388838)
(4.91368473855e-05 -0.000109531456035 -0.000112347451916)
(5.8207981878e-05 -0.000100185262502 -9.87793409736e-05)
(6.55641620083e-05 -8.95561760195e-05 -8.47010628671e-05)
(7.05811175896e-05 -7.87128191819e-05 -7.10969776735e-05)
(-0.000114380087517 -0.000127218189091 -0.000352139626462)
(-0.000105778841643 -0.000144413796745 -0.000395127263337)
(-9.37612060875e-05 -0.000161047789125 -0.000437394964146)
(-7.89865134657e-05 -0.000175612925948 -0.000476285179133)
(-6.1589337949e-05 -0.000187638205717 -0.000509279607979)
(-4.21966610325e-05 -0.000196583014802 -0.000534327828043)
(-2.14040671438e-05 -0.000202096772135 -0.00054995514855)
(1.10796535524e-07 -0.000203953190695 -0.00055525178781)
(2.16235382411e-05 -0.00020207054708 -0.000549848599223)
(4.24099305238e-05 -0.000196531459317 -0.000534115616958)
(6.17928264324e-05 -0.00018756305806 -0.000508963887803)
(7.91774106212e-05 -0.000175517129047 -0.000475870042806)
(9.39371717423e-05 -0.000160935157235 -0.000436886624884)
(0.000105938255571 -0.00014428919437 -0.000394534623994)
(0.000114515781924 -0.000127091941404 -0.000351478818579)
(-0.000153656668089 -0.000170257768571 -0.000753326370075)
(-0.000141524954511 -0.000192585939004 -0.000830159947359)
(-0.00012515817205 -0.000213886770105 -0.000903590957918)
(-0.000105197850029 -0.000232443263839 -0.000969498995797)
(-8.19126631463e-05 -0.000247688843305 -0.0010243587358)
(-5.60679443636e-05 -0.00025899729418 -0.00106543685703)
(-2.84311041125e-05 -0.000265956773579 -0.00109083351694)
(1.30628234876e-07 -0.00026829865279 -0.00109940592088)
(2.86901670489e-05 -0.00026592621704 -0.00109070503432)
(5.63205906432e-05 -0.00025893711155 -0.00106518009607)
(8.21550347782e-05 -0.000247600892468 -0.00102397459852)
(0.000105426710105 -0.000232330651842 -0.000968989966858)
(0.000125370680583 -0.000213753849676 -0.0009029616634)
(0.000141718449248 -0.000192438154719 -0.000829417655893)
(0.000153823594428 -0.000170106169058 -0.000752486421836)
(-0.00018727492829 -0.000206973167068 -0.00121721622803)
(-0.000171828437385 -0.000233011639896 -0.00132374015487)
(-0.000151516806688 -0.000257514691432 -0.00142303359062)
(-0.00012701395133 -0.000278745560375 -0.00151035451405)
(-9.87206743617e-05 -0.000296105016613 -0.00158188365333)
(-6.74898853111e-05 -0.000308945983773 -0.00163481514184)
(-3.42058473473e-05 -0.000316835854298 -0.00166728331963)
(1.38275339172e-07 -0.000319489436758 -0.00167820035059)
(3.44803980734e-05 -0.000316804174493 -0.00166714544559)
(6.77585702122e-05 -0.0003088834845 -0.00163453865678)
(9.89798360909e-05 -0.000296013439704 -0.00158146759149)
(0.000127260337682 -0.000278627810687 -0.00150979862975)
(0.000151747390976 -0.000257374962926 -0.00142233920729)
(0.000172039865425 -0.000232855274284 -0.00132291056569)
(0.000187460057249 -0.000206810263459 -0.00121626246649)
(-0.000214818523889 -0.000237026368856 -0.00169313849712)
(-0.000196397051246 -0.000265344815713 -0.00182049244273)
(-0.000172634274201 -0.000291671568909 -0.00193650801364)
(-0.000144313191161 -0.000314361505488 -0.00203675638656)
(-0.000111944931838 -0.000332834706708 -0.00211776310912)
(-7.64275598275e-05 -0.000346467638169 -0.00217711167799)
(-3.87121865992e-05 -0.000354832791959 -0.00221327463932)
(1.38566427549e-07 -0.000357645117174 -0.00222539289176)
(3.8987577779e-05 -0.000354801995286 -0.00221313553508)
(7.66978313478e-05 -0.000346406811068 -0.00217683191319)
(0.000112206795682 -0.000332745406272 -0.00211734001125)
(0.000144563596004 -0.000314246312612 -0.00203618703112)
(0.00017287024392 -0.000291534234709 -0.00193579016438)
(0.000196614891843 -0.00026519018139 -0.00181962469141)
(0.000215012097798 -0.000236862639314 -0.00169212595695)
(-0.000236370116436 -0.000260547193698 -0.00214589956507)
(-0.000215379301333 -0.000289830634317 -0.00228448286277)
(-0.000188710368732 -0.000316789477042 -0.00240820603048)
(-0.000157317922621 -0.000339904385023 -0.00251358304624)
(-0.000121790365347 -0.000358655585035 -0.00259781232025)
(-8.30358887845e-05 -0.000372469067152 -0.00265904027058)
(-4.20314522473e-05 -0.000380936546581 -0.00269615628567)
(1.35781131289e-07 -0.000383782550566 -0.00270856026688)
(4.23014868092e-05 -0.000380907650306 -0.00269601974212)
(8.33014180172e-05 -0.000372411961115 -0.00265876512218)
(0.000122048437587 -0.000358571669365 -0.00259739478184)
(0.000157565726034 -0.000339795936233 -0.00251301830404)
(0.00018894512151 -0.000316659757713 -0.0024074890869)
(0.000215597206891 -0.000289683850446 -0.00228360817155)
(0.000236566220019 -0.000260389321099 -0.00214486632254)
(-0.000252322909904 -0.000277952237631 -0.00255636948509)
(-0.0002291850828 -0.000307053004521 -0.00269829126529)
(-0.000200165275736 -0.000333654610211 -0.00282291869955)
(-0.000166424246146 -0.000356346983742 -0.00292792457122)
(-0.000128591324489 -0.000374701093941 -0.00301119984601)
(-8.75556498408e-05 -0.0003882055532 -0.00307140080315)
(-4.42882999021e-05 -0.000396478190224 -0.0031077631897)
(1.32774337618e-07 -0.000399258299369 -0.00311989130974)
(4.45524532496e-05 -0.000396451556567 -0.00310762998816)
(8.78156728115e-05 -0.000388152921266 -0.00307113215885)
(0.000128844482383 -0.000374623744811 -0.0030107915164)
(0.000166667911045 -0.000356246962295 -0.00292737083265)
(0.000200396864088 -0.000333534744598 -0.0028222129775)
(0.00022940086984 -0.000306916934799 -0.00269742502563)
(0.000252518993232 -0.000277803757386 -0.00255533700707)
(-0.000263211011053 -0.000289787625768 -0.00291778177821)
(-0.000238332353423 -0.000317729689632 -0.00305767820342)
(-0.000207497644053 -0.000343157093034 -0.00317902150681)
(-0.000172078998426 -0.000364737132818 -0.00328053755675)
(-0.000132712499825 -0.000382151371741 -0.00336064297214)
(-9.02439563813e-05 -0.000394955421392 -0.00341835190208)
(-4.56148599256e-05 -0.00040279610047 -0.00345313061854)
(1.31023238015e-07 -0.000405430803484 -0.00346471482899)
(4.58755700303e-05 -0.000402771762419 -0.00345300000518)
(9.05006985715e-05 -0.000394907342346 -0.00341808849337)
(0.000132962631909 -0.000382080735831 -0.00336024257703)
(0.000172319987586 -0.000364645798272 -0.00327999436172)
(0.000207727048532 -0.000343047534557 -0.00317832844711)
(0.000238546592047 -0.000317605032628 -0.00305682488365)
(0.000263406971386 -0.000289649912637 -0.00291675890398)
(-0.000269595020098 -0.000296625917417 -0.00323102668738)
(-0.000243348576573 -0.000322584882432 -0.00336584542113)
(-0.000211201017798 -0.000346150827532 -0.00348184568982)
(-0.000174712971581 -0.000366052090113 -0.00357852190875)
(-0.000134498029118 -0.000382086842274 -0.00365459129399)
(-9.133973848e-05 -0.000393874408634 -0.00370927947384)
(-4.61331212544e-05 -0.000401091319685 -0.00374219211205)
(1.31043757895e-07 -0.000403516136561 -0.00375314415267)
(4.63938837827e-05 -0.000401069190012 -0.00374206285303)
(9.15965552961e-05 -0.000393830702207 -0.00370901896475)
(0.000134748265011 -0.000382022643623 -0.00365419569934)
(0.000174954105627 -0.000365969071236 -0.00357798586796)
(0.000211430673543 -0.000346051154522 -0.00348116243061)
(0.000243563303911 -0.000322471212439 -0.00336500348462)
(0.000269792216041 -0.000296499045467 -0.00323001434444)
(-0.000272001559134 -0.000299016204684 -0.00350075205217)
(-0.000244722026783 -0.000322284928959 -0.0036291462258)
(-0.000211727996673 -0.000343394178135 -0.00373916413911)
(-0.000174715725668 -0.000361148541798 -0.00383070672025)
(-0.000134253586753 -0.000375446832784 -0.00390260127612)
(-9.10520895382e-05 -0.000385960339115 -0.00395420511764)
(-4.59490574848e-05 -0.000392395925615 -0.00398522648751)
(1.32801675663e-07 -0.000394557617574 -0.00399554016376)
(4.62133259813e-05 -0.000392375913431 -0.0039850974682)
(9.13123703542e-05 -0.000385920810605 -0.00395394531652)
(0.000134507207945 -0.000375388741545 -0.00390220732883)
(0.000174960131654 -0.000361073346034 -0.0038301739977)
(0.000211960806313 -0.000343303726016 -0.00373848664898)
(0.000244939894109 -0.000322181410719 -0.00362831188756)
(0.000272202083517 -0.000298899619843 -0.00349974726854)
(-0.00027089172281 -0.00029745585891 -0.00373278480841)
(-0.000242888361365 -0.000317404106228 -0.00385454196933)
(-0.000209487556354 -0.000335538088168 -0.00395876744507)
(-0.00017243475009 -0.000350768225014 -0.00404537566834)
(-0.000132245131152 -0.000363044219573 -0.00411322360558)
(-8.95593013468e-05 -0.000372072046137 -0.00416181754504)
(-4.51521131235e-05 -0.000377594214861 -0.00419098715551)
(1.36002643809e-07 -0.000379447731576 -0.00420067508974)
(4.54227693052e-05 -0.00037757627962 -0.00419085766779)
(8.98259210017e-05 -0.000372036588783 -0.0041615569965)
(0.000132504999747 -0.000362992033432 -0.00411282906277)
(0.000172685260061 -0.000350700504225 -0.00404484328624)
(0.00020972628423 -0.00033545632258 -0.00395809230553)
(0.000243112028279 -0.000317309994461 -0.00385371170827)
(0.000271097887792 -0.000297349027034 -0.00373178385684)
(-0.000266651372635 -0.000292312905612 -0.00393269606226)
(-0.000238266411439 -0.000308395349423 -0.00404844669594)
(-0.000204869854996 -0.000323144702368 -0.00414750632922)
(-0.000168183452347 -0.000335575977892 -0.00422947200273)
(-0.000128700476645 -0.000345606909006 -0.00429336917893)
(-8.70095511922e-05 -0.000352971957519 -0.00433897355096)
(-4.38157462954e-05 -0.000357466681316 -0.00436629052247)
(1.40249165627e-07 -0.000358972830605 -0.00437535090305)
(4.40948952685e-05 -0.000357450829153 -0.00436616039474)
(8.72846403026e-05 -0.000352940568839 -0.00433871181088)
(0.000128968762026 -0.000345560597613 -0.0042929731452)
(0.000168442287923 -0.000335515624123 -0.00422893842951)
(0.000205116757437 -0.000323071377978 -0.00414683151171)
(0.000238498134382 -0.000308310177197 -0.00404761873367)
(0.000266865229722 -0.000292215544082 -0.00393169752693)
(-0.000259776762844 -0.000283826351153 -0.00410509607309)
(-0.000231410075145 -0.000295613935606 -0.0042165437343)
(-0.000198278758927 -0.000306711311434 -0.00431114209109)
(-0.000162239720974 -0.000316172470917 -0.00438851679814)
(-0.000123808921166 -0.000323778022386 -0.00444834615292)
(-8.35249120682e-05 -0.000329327690354 -0.00449084008876)
(-4.20011734525e-05 -0.000332697204161 -0.0045162244175)
(1.45130216002e-07 -0.000333822730214 -0.0045246300478)
(4.22900932686e-05 -0.000332683434366 -0.00451609409963)
(8.38097759725e-05 -0.000329300378873 -0.00449057790733)
(0.00012408697978 -0.000323737584433 -0.00444794939259)
(0.000162508315706 -0.000316119480637 -0.00438798230443)
(0.000198535376094 -0.000306646388968 -0.00431046710782)
(0.000231651466615 -0.000295537526476 -0.00421571806117)
(0.00026000027814 -0.000283737964685 -0.00410410316468)
(-0.000251534937048 -0.00027322786525 -0.00425270311821)
(-0.000223274772759 -0.000279206628368 -0.00436377844466)
(-0.000190252526802 -0.000286701715259 -0.00445390813076)
(-0.000155032801656 -0.000292993842461 -0.00452637396405)
(-0.000117911179106 -0.000297974465506 -0.00458189805126)
(-7.93509965458e-05 -0.000301560264592 -0.00462113965082)
(-3.98381026807e-05 -0.000303719065744 -0.0046445163851)
(1.50278428738e-07 -0.000304436389612 -0.00465224429104)
(4.0137326554e-05 -0.000303707368105 -0.00464438699228)
(7.96461848148e-05 -0.000301537013976 -0.00462087911812)
(0.000118199574557 -0.000297939916296 -0.00458150342013)
(0.000155311720007 -0.00029294832952 -0.00452584146983)
(0.000190519472539 -0.00028664551446 -0.00445323506941)
(0.000223526194823 -0.000279139401532 -0.00436295240324)
(0.000251769655178 -0.000273148817043 -0.00425173108685)
(8.21411510455e-07 1.16239436244e-06 -0.00014567893137)
(6.48683720816e-07 1.49655700883e-06 -0.00015288688424)
(5.03137367123e-07 1.74910831993e-06 -0.000159412489592)
(3.92936006729e-07 1.93730711411e-06 -0.000165061238396)
(2.82803054109e-07 2.08141138332e-06 -0.000169656264239)
(1.81867277314e-07 2.18139667792e-06 -0.000173047839582)
(8.64027315841e-08 2.24010681236e-06 -0.000175129952796)
(-5.23944051854e-09 2.25905747652e-06 -0.00017583683743)
(-9.68096008454e-08 2.23847353681e-06 -0.000175129088699)
(-1.92134423022e-07 2.178111516e-06 -0.000173046002071)
(-2.93144794509e-07 2.07644403251e-06 -0.00016965318382)
(-4.03488705298e-07 1.93081626746e-06 -0.000165056472391)
(-5.13836068803e-07 1.74107519759e-06 -0.000159405563112)
(-6.59318564733e-07 1.48755384796e-06 -0.000152877234338)
(-8.30444482535e-07 1.15356280867e-06 -0.000145666183051)
(6.18817510235e-06 7.43976069035e-06 -0.000433779416474)
(5.63029998074e-06 9.02368525739e-06 -0.000454808981802)
(4.93624739284e-06 1.04411323032e-05 -0.000473880672477)
(4.16593726036e-06 1.1642922522e-05 -0.000490400060412)
(3.25026063554e-06 1.26259513918e-05 -0.000503843613861)
(2.22752085761e-06 1.33509210789e-05 -0.000513772046603)
(1.12585003346e-06 1.37953037552e-05 -0.000519867878046)
(-1.56245566786e-08 1.39439029037e-05 -0.00052193208505)
(-1.15691083126e-06 1.37907579264e-05 -0.00051986460482)
(-2.25817685401e-06 1.33418328267e-05 -0.000513765201184)
(-3.28080775118e-06 1.26123816477e-05 -0.000503832458908)
(-4.19671453039e-06 1.16253600894e-05 -0.000490383372409)
(-4.96703548383e-06 1.04198540261e-05 -0.000473857114398)
(-5.66039578622e-06 9.00014245133e-06 -0.000454777031821)
(-6.21409629276e-06 7.41661266567e-06 -0.000433738237255)
(1.38167294209e-05 1.61093408519e-05 -0.00071649611955)
(1.27525276181e-05 1.90975688486e-05 -0.000750701666506)
(1.12863824195e-05 2.18587238901e-05 -0.000781713492275)
(9.5498240422e-06 2.42323748288e-05 -0.000808570046599)
(7.47224956723e-06 2.61784566285e-05 -0.000830420041619)
(5.13127850824e-06 2.76171399115e-05 -0.000846555214009)
(2.60118722287e-06 2.84999187581e-05 -0.000856458896166)
(-2.55094663673e-08 2.87956989465e-05 -0.000859807081053)
(-2.65192740377e-06 2.84929804779e-05 -0.000856452481604)
(-5.18135619626e-06 2.76032992339e-05 -0.000846541951425)
(-7.52183563396e-06 2.61579364574e-05 -0.000830398866014)
(-9.59926857918e-06 2.42059737999e-05 -0.000808539194668)
(-1.13354144273e-05 2.18273292243e-05 -0.000781670971634)
(-1.28000761595e-05 1.90631847991e-05 -0.000750645275389)
(-1.38583174942e-05 1.60756989155e-05 -0.000716424832629)
(2.19406739472e-05 2.52217879715e-05 -0.000992371755703)
(2.02362191014e-05 2.93663316558e-05 -0.00103882253878)
(1.78735019203e-05 3.32266258273e-05 -0.00108086271797)
(1.50590507078e-05 3.65305616445e-05 -0.00111723473548)
(1.17438133443e-05 3.92205371733e-05 -0.00114680077866)
(8.04396626793e-06 4.11976756463e-05 -0.00116862089573)
(4.07355297999e-06 4.24056204911e-05 -0.00118200615289)
(-3.44852990536e-08 4.28096009159e-05 -0.0011865254738)
(-4.14221733204e-06 4.23972008337e-05 -0.00118199576107)
(-8.11185367364e-06 4.11809126566e-05 -0.00116859963602)
(-1.1810942516e-05 3.91957796769e-05 -0.00114676747412)
(-1.51256710387e-05 3.6498753458e-05 -0.00111718743752)
(-1.79392894523e-05 3.31890683493e-05 -0.00108079913734)
(-2.02998112196e-05 2.93252363556e-05 -0.00103874005604)
(-2.19970996872e-05 2.5181445196e-05 -0.00099226972683)
(2.91728796912e-05 3.32256076697e-05 -0.00125962706263)
(2.67339814735e-05 3.80623163596e-05 -0.00131713462274)
(2.34704945308e-05 4.25550569175e-05 -0.00136904664043)
(1.96438420835e-05 4.63553498687e-05 -0.00141389964431)
(1.52375331538e-05 4.94152072842e-05 -0.00145032172208)
(1.03950913703e-05 5.16437031677e-05 -0.00147718228083)
(5.25218744876e-06 5.2996368775e-05 -0.00149364929865)
(-4.21386969503e-08 5.34471839183e-05 -0.00149920323838)
(-5.33617785491e-06 5.29872010607e-05 -0.00149363397625)
(-1.04783136582e-05 5.16254840657e-05 -0.0014771512431)
(-1.53198856547e-05 4.93883448521e-05 -0.0014502739533)
(-1.97254368895e-05 4.63208288321e-05 -0.00141383342132)
(-2.3550924037e-05 4.25143552421e-05 -0.0013689598514)
(-2.68117795956e-05 3.80177250169e-05 -0.00131702465852)
(-2.92428658699e-05 3.31815235626e-05 -0.00125949373689)
(3.48488751944e-05 3.93901984978e-05 -0.00151677984247)
(3.16512857625e-05 4.44531904165e-05 -0.00158404835641)
(2.75793301168e-05 4.91125893667e-05 -0.00164459908878)
(2.29128792501e-05 5.29963099767e-05 -0.00169685135104)
(1.7668281082e-05 5.60828592378e-05 -0.00173924552804)
(1.2000320375e-05 5.83071790454e-05 -0.0017704925639)
(6.0470944885e-06 5.96473265287e-05 -0.0017896394095)
(-4.82247076573e-08 6.00920949864e-05 -0.00179609176962)
(-6.14330472119e-06 5.96379368715e-05 -0.00178961813272)
(-1.20958599052e-05 5.82885430689e-05 -0.00177044983668)
(-1.77629692516e-05 5.60554029673e-05 -0.00173918077561)
(-2.30067073769e-05 5.29610012334e-05 -0.00169676348649)
(-2.76718024719e-05 4.90709431136e-05 -0.00164448667457)
(-3.17409744884e-05 4.44074261631e-05 -0.00158390921723)
(-3.49307293081e-05 3.93446144875e-05 -0.00151661433372)
(3.87874397947e-05 4.35387189711e-05 -0.00176291493606)
(3.48812071941e-05 4.84635863813e-05 -0.0018386723877)
(3.0156818029e-05 5.29296696478e-05 -0.00190667742279)
(2.48708699468e-05 5.65953031722e-05 -0.00196530707765)
(1.90665095787e-05 5.94686602582e-05 -0.00201284773364)
(1.28943548368e-05 6.15167306917e-05 -0.00204787441687)
(6.48026166121e-06 6.2741269692e-05 -0.00206932952745)
(-5.27205914211e-08 6.3145837961e-05 -0.00207655477763)
(-6.58552756438e-06 6.2732049773e-05 -0.00206930132051)
(-1.2999101034e-05 6.14984416925e-05 -0.00204781816728)
(-1.91705262967e-05 5.94417198647e-05 -0.00201276354415)
(-2.49740546976e-05 5.65606072656e-05 -0.0019651948485)
(-3.02586352492e-05 5.28886954479e-05 -0.00190653682668)
(-3.49803043988e-05 4.84183581343e-05 -0.00183850206146)
(-3.88791897447e-05 4.34933145905e-05 -0.00176271587539)
(4.10911092463e-05 4.58170767045e-05 -0.00199760823835)
(3.65842203366e-05 5.0365356983e-05 -0.00208065399232)
(3.13918928913e-05 5.44059899336e-05 -0.00215500812145)
(2.57109201571e-05 5.76728352769e-05 -0.0022190666382)
(1.96035139603e-05 6.01977644823e-05 -0.00227098568153)
(1.32047399705e-05 6.19777688195e-05 -0.00230922419973)
(6.61954144992e-06 6.30339488168e-05 -0.00233263801552)
(-5.57916215692e-08 6.33812765559e-05 -0.00234051780359)
(-6.73101963299e-06 6.30251903934e-05 -0.00233260207351)
(-1.33158744348e-05 6.19603936407e-05 -0.0023091529001)
(-1.97141043283e-05 6.01721548706e-05 -0.00227087996904)
(-2.58207995625e-05 5.76397889061e-05 -0.00221892764857)
(-3.15005200334e-05 5.43668717501e-05 -0.00215483696549)
(-3.66903713901e-05 5.03219671624e-05 -0.00208045038884)
(-4.1190716447e-05 4.57730564439e-05 -0.00199737392924)
(4.20026406686e-05 4.65275771887e-05 -0.00222069302122)
(3.70352190841e-05 5.05699819527e-05 -0.00230987651241)
(3.15582358692e-05 5.40617931287e-05 -0.00238952344225)
(2.56838761935e-05 5.68439916476e-05 -0.00245809907528)
(1.94863134927e-05 5.8963325298e-05 -0.00251364718263)
(1.30785695472e-05 6.04409860314e-05 -0.00255453469425)
(6.5411094496e-06 6.13111796121e-05 -0.00257955654734)
(-5.77129223274e-08 6.15959940908e-05 -0.00258797151336)
(-6.65649726563e-06 6.13030948325e-05 -0.00257951230973)
(-1.31937891078e-05 6.04249367089e-05 -0.0025544472626)
(-1.96011981099e-05 5.89396341199e-05 -0.002513518427)
(-2.57982290175e-05 5.68133342461e-05 -0.00245793150383)
(-3.16715263906e-05 5.402536424e-05 -0.00238931980546)
(-3.71463728519e-05 5.0529327713e-05 -0.00230963774935)
(-4.21082288568e-05 4.64857950538e-05 -0.00222042169709)
(4.1806581917e-05 4.60142369166e-05 -0.00243203078912)
(3.6526037706e-05 4.9498266966e-05 -0.00252620874154)
(3.09275275803e-05 5.23943222208e-05 -0.00261010654863)
(2.50268071012e-05 5.46675346674e-05 -0.00268229081113)
(1.89037702585e-05 5.63725192393e-05 -0.00274070481197)
(1.26468267144e-05 5.7547963185e-05 -0.002783656375)
(6.31181863462e-06 5.82350075302e-05 -0.00280991691149)
(-5.87869836995e-08 5.84587844141e-05 -0.00281874062484)
(-6.42941342619e-06 5.82277444896e-05 -0.00280986408218)
(-1.27644136066e-05 5.75335244583e-05 -0.00278355221529)
(-1.90212296487e-05 5.63511473902e-05 -0.00274055212128)
(-2.51439328074e-05 5.46397616342e-05 -0.00268209350467)
(-3.104381377e-05 5.23611362392e-05 -0.00260986910093)
(-3.66405340351e-05 4.94609397491e-05 -0.00252593331453)
(-4.19165433628e-05 4.5975261944e-05 -0.00243172079843)
(4.07716847293e-05 4.45966964975e-05 -0.00263135622065)
(3.53147411657e-05 4.7513558868e-05 -0.00272937472113)
(2.97295978815e-05 4.98119816087e-05 -0.00281650007346)
(2.39340445526e-05 5.15856207708e-05 -0.00289138564688)
(1.8007334033e-05 5.28933700346e-05 -0.00295187889837)
(1.20129391599e-05 5.37845713551e-05 -0.00299627716141)
(5.9839565535e-06 5.4301629672e-05 -0.00302338143764)
(-5.92866882533e-08 5.44691844377e-05 -0.00303247804678)
(-6.10259928602e-06 5.42952827935e-05 -0.00302331997354)
(-1.21317120124e-05 5.37719256113e-05 -0.00299615614028)
(-1.81261716222e-05 5.28745712363e-05 -0.00295170197549)
(-2.40527519051e-05 5.15610394821e-05 -0.00289115808622)
(-2.98476992735e-05 4.97823663686e-05 -0.00281622806989)
(-3.54313767531e-05 4.74798967853e-05 -0.00272906154618)
(-4.08847389884e-05 4.45608398882e-05 -0.00263100607974)
(3.91223450661e-05 4.25401812556e-05 -0.002818189156)
(3.36063884512e-05 4.48965587661e-05 -0.00291893894414)
(2.81428026764e-05 4.66157757886e-05 -0.00300835597535)
(2.25540913561e-05 4.79152439937e-05 -0.0030850643918)
(1.69114567934e-05 4.88557251831e-05 -0.00314683020244)
(1.12543546501e-05 4.94894072609e-05 -0.00319202307612)
(5.59643763621e-06 4.98545054563e-05 -0.00321954887051)
(-5.94243738657e-08 4.99721577086e-05 -0.00322877263454)
(-5.71539274863e-06 4.98491309652e-05 -0.00321947896943)
(-1.13735545241e-05 4.94786561066e-05 -0.00319188549457)
(-1.7030895076e-05 4.88396424569e-05 -0.00314662929108)
(-2.26736008023e-05 4.78940248904e-05 -0.00308480660673)
(-2.82619483411e-05 4.65899147325e-05 -0.00300804917575)
(-3.37243770001e-05 4.48667629171e-05 -0.0029185873739)
(-3.92375866093e-05 4.25077056018e-05 -0.00281779757177)
(3.70241513721e-05 4.00378886115e-05 -0.00299176715569)
(3.15532963898e-05 4.18359294281e-05 -0.00309441138895)
(2.63034911273e-05 4.300310781e-05 -0.00318541055168)
(2.10012293146e-05 4.38634724865e-05 -0.00326310945295)
(1.57038628115e-05 4.44755365614e-05 -0.00332530575272)
(1.04300106005e-05 4.48841180507e-05 -0.00337059412994)
(5.17870638547e-06 4.51180779189e-05 -0.00339808663925)
(-5.93386311195e-08 4.51929955248e-05 -0.00340728066541)
(-5.2975216788e-06 4.51136941414e-05 -0.00339800875974)
(-1.05491626658e-05 4.48753023188e-05 -0.00337044075474)
(-1.58234038278e-05 4.44622405885e-05 -0.00332508165306)
(-2.11210381713e-05 4.38457096236e-05 -0.00326282197185)
(-2.64231765711e-05 4.29811017584e-05 -0.00318506911749)
(-3.16721133676e-05 4.18101023199e-05 -0.003094021326)
(-3.71409397829e-05 4.00090243849e-05 -0.00299133359442)
(3.45977381179e-05 3.72034394554e-05 -0.00315093647933)
(2.92883486342e-05 3.84669131918e-05 -0.00325560919847)
(2.43371593954e-05 3.91028788825e-05 -0.00334780902451)
(1.93768363201e-05 3.95690119531e-05 -0.00342560541491)
(1.44600344562e-05 3.98966381887e-05 -0.00348727719205)
(9.58933986664e-06 4.01137964445e-05 -0.00353187889126)
(4.75511469292e-06 4.02372188022e-05 -0.00355883737019)
(-5.91091621947e-08 4.02762517232e-05 -0.00356783047606)
(-4.87348681324e-06 4.02338071981e-05 -0.00355875231568)
(-9.70810312844e-06 4.01068895968e-05 -0.003531711122)
(-1.45793018849e-05 3.98861025946e-05 -0.00348703147601)
(-1.94965622337e-05 3.9554699575e-05 -0.00342528938635)
(-2.44570175252e-05 3.90847513916e-05 -0.00334743334352)
(-2.94076038391e-05 3.84450420673e-05 -0.00325518105874)
(-3.47155861212e-05 3.7178172244e-05 -0.00315046227043)
(3.19351149959e-05 3.44543063472e-05 -0.00329449767368)
(2.69748252488e-05 3.48779544283e-05 -0.00340415883246)
(2.23616123622e-05 3.50229623279e-05 -0.0034965915758)
(1.77677223822e-05 3.51341395995e-05 -0.00357309655385)
(1.32406583723e-05 3.52023246415e-05 -0.00363301218504)
(8.77077072786e-06 3.5242825842e-05 -0.0036760098496)
(4.34429173919e-06 3.526329035e-05 -0.00370187416834)
(-5.87649709881e-08 3.52687192602e-05 -0.00371047881104)
(-4.46197980092e-06 3.52607960941e-05 -0.00370178336181)
(-8.88886605674e-06 3.52377534584e-05 -0.00367583031518)
(-1.33593055865e-05 3.51944846322e-05 -0.0036327481795)
(-1.78869468967e-05 3.51232901178e-05 -0.00357275502182)
(-2.24812426169e-05 3.5008818964e-05 -0.00349618351557)
(-2.70941199247e-05 3.48602288298e-05 -0.0034036909135)
(-3.20537096414e-05 3.44326921657e-05 -0.00329399261658)
(-2.6246152515e-07 -4.7197022395e-07 -0.00020382453662)
(-1.24004246297e-07 -6.44935516591e-07 -0.00021405770281)
(-3.61123630029e-08 -7.48293926398e-07 -0.000223388609467)
(2.25379511275e-08 -8.10904591204e-07 -0.000231500692438)
(5.06107369678e-08 -8.44695655421e-07 -0.000238109477669)
(5.09680472233e-08 -8.60017771559e-07 -0.000242991048316)
(3.03113851958e-08 -8.65475827351e-07 -0.000245987787759)
(-1.9838130286e-09 -8.66710298089e-07 -0.000247003737819)
(-3.41702013161e-08 -8.65663325574e-07 -0.0002459842006)
(-5.44875776577e-08 -8.60335725257e-07 -0.000242983934842)
(-5.35436503029e-08 -8.45047263099e-07 -0.0002380989626)
(-2.48100990408e-08 -8.11218099936e-07 -0.000231486934559)
(3.46576859404e-08 -7.48261663856e-07 -0.000223371721257)
(1.23637649957e-07 -6.44459673527e-07 -0.000214037612079)
(2.62850248997e-07 -4.71161246331e-07 -0.000203800102786)
(-1.00034066877e-06 -1.53543852788e-06 -0.00058673166719)
(-6.38257102401e-07 -2.00230425194e-06 -0.000614486565692)
(-3.78446694049e-07 -2.3136359495e-06 -0.000639747202313)
(-1.88869235561e-07 -2.51907655045e-06 -0.000661657412551)
(-6.73408032713e-08 -2.64426779009e-06 -0.000679476365881)
(-6.94116216083e-09 -2.71310586294e-06 -0.000692622390389)
(7.14764658808e-09 -2.74560522011e-06 -0.000700684241813)
(-4.34243857792e-09 -2.75499794348e-06 -0.000703409661084)
(-1.55921655338e-08 -2.7458892749e-06 -0.000700673333639)
(-7.61559532574e-10 -2.71355173786e-06 -0.000692600761012)
(6.0893020647e-08 -2.64467651857e-06 -0.000679444399814)
(1.8395202883e-07 -2.51927848443e-06 -0.000661615619821)
(3.75405030725e-07 -2.31304257238e-06 -0.000639695991077)
(6.37621849076e-07 -2.00074061927e-06 -0.00061442579284)
(1.00149822061e-06 -1.53312403501e-06 -0.00058665901153)
(-1.93366382532e-06 -2.71990636548e-06 -0.000942513632871)
(-1.39494126695e-06 -3.4392935523e-06 -0.000985070333018)
(-9.75245671321e-07 -3.95475724444e-06 -0.00102369411108)
(-6.43419383217e-07 -4.31562238673e-06 -0.00105712498497)
(-3.93821169255e-07 -4.55296431723e-06 -0.00108427135059)
(-2.17356995758e-07 -4.69661337772e-06 -0.0011042769015)
(-9.60616891565e-08 -4.77171109258e-06 -0.00111653419852)
(-5.16800829531e-09 -4.79487209686e-06 -0.00112067046391)
(8.6011267349e-08 -4.77179808085e-06 -0.00111651603756)
(2.08177407328e-07 -4.69664566437e-06 -0.00110424088441)
(3.86108357596e-07 -4.55273843006e-06 -0.00108421810487)
(6.37575765186e-07 -4.31494904065e-06 -0.00105705537119)
(9.71748958948e-07 -3.95305332573e-06 -0.00102360892857)
(1.39440746365e-06 -3.43637186427e-06 -0.000984969571928)
(1.93551805499e-06 -2.71617730784e-06 -0.000942394364617)
(-2.81890731015e-06 -3.77565539563e-06 -0.00127286038067)
(-2.14331248454e-06 -4.66870742116e-06 -0.00132785569141)
(-1.58832780006e-06 -5.33160108681e-06 -0.00137761039957)
(-1.12780326416e-06 -5.80835017587e-06 -0.00142059491754)
(-7.53671454936e-07 -6.13189865066e-06 -0.00145545332262)
(-4.55611508352e-07 -6.3346479542e-06 -0.00148111918432)
(-2.14568384183e-07 -6.44412797824e-06 -0.00149683286336)
(-4.83428719567e-09 -6.47849985269e-06 -0.00150212853852)
(2.05180272385e-07 -6.44396443782e-06 -0.00149680761099)
(4.47066839373e-07 -6.33419150101e-06 -0.00148106909542)
(7.4654567483e-07 -6.13097183358e-06 -0.00145537925011)
(1.12255937768e-06 -5.80677757354e-06 -0.00142049807135)
(1.58551093911e-06 -5.32889408836e-06 -0.00137749204941)
(2.14352015726e-06 -4.66470683865e-06 -0.00132771617227)
(2.82165847408e-06 -3.77084265398e-06 -0.00127269674923)
(-3.61547940449e-06 -4.67845149911e-06 -0.00157980543363)
(-2.83522050956e-06 -5.68029544901e-06 -0.0016452403136)
(-2.16912370023e-06 -6.43838841141e-06 -0.00170424658899)
(-1.59614529857e-06 -6.99171585007e-06 -0.00175514114277)