/*--------------------------------*- C++ -*----------------------------------*\
  =========                 |
  \\      /  F ield         | OpenFOAM: The Open Source CFD Toolbox
   \\    /   O peration     | Website:  https://openfoam.org
    \\  /    A nd           | Version:  7
     \\/     M anipulation  |
\*---------------------------------------------------------------------------*/
FoamFile
{
    version     2.0;
    format      ascii;
    class       volScalarField;
    location    "1.94";
    object      p;
}
// * * * * * * * * * * * * * * * * * * * * * * * * * * * * * * * * * * * * * //

dimensions      [0 2 -2 0 0 0 0];

internalField   nonuniform List<scalar> 
22500
(
-2.10153235153e-05
-2.1013751344e-05
-2.1011975327e-05
-2.10101430993e-05
-2.10085463981e-05
-2.10073236963e-05
-2.1006561967e-05
-2.1006309024e-05
-2.10065840051e-05
-2.10073675948e-05
-2.10086125465e-05
-2.10102317924e-05
-2.10120895432e-05
-2.10138893985e-05
-2.10155192414e-05
-2.10077076931e-05
-2.1005807431e-05
-2.1003691671e-05
-2.10015244208e-05
-2.09996240463e-05
-2.09981605757e-05
-2.09972448121e-05
-2.09969394163e-05
-2.09972679019e-05
-2.09982065987e-05
-2.09996933326e-05
-2.10016174262e-05
-2.10038111703e-05
-2.1005951773e-05
-2.10079085394e-05
-2.10009309448e-05
-2.09987861702e-05
-2.09964215745e-05
-2.09940015394e-05
-2.09918681078e-05
-2.09902169694e-05
-2.09891798349e-05
-2.09888326632e-05
-2.0989203198e-05
-2.0990263552e-05
-2.09919381946e-05
-2.09940956492e-05
-2.09965424896e-05
-2.09989317049e-05
-2.1001132785e-05
-2.0995390773e-05
-2.09930918112e-05
-2.09905613067e-05
-2.09879730606e-05
-2.09856802175e-05
-2.09838987316e-05
-2.09827763514e-05
-2.09823996539e-05
-2.09827997877e-05
-2.09839454687e-05
-2.09857504656e-05
-2.0988067256e-05
-2.09906821584e-05
-2.09932365092e-05
-2.09955913518e-05
-2.09907390574e-05
-2.09883574582e-05
-2.09857233264e-05
-2.0983031411e-05
-2.09806359862e-05
-2.09787689736e-05
-2.09775899828e-05
-2.09771936406e-05
-2.09776135362e-05
-2.09788159244e-05
-2.09807064637e-05
-2.09831257056e-05
-2.09858438158e-05
-2.09885009691e-05
-2.09909377921e-05
-2.09868443033e-05
-2.09844462755e-05
-2.09817678933e-05
-2.09790325036e-05
-2.09765885583e-05
-2.0974679136e-05
-2.09734713838e-05
-2.09730650106e-05
-2.09734950638e-05
-2.09747263319e-05
-2.09766592774e-05
-2.09791268894e-05
-2.09818877499e-05
-2.09845885562e-05
-2.09870413472e-05
-2.09836782072e-05
-2.09813242845e-05
-2.0978658233e-05
-2.09759364818e-05
-2.09734964312e-05
-2.09715869731e-05
-2.09703780669e-05
-2.09699712497e-05
-2.09704019196e-05
-2.09716344905e-05
-2.09735674989e-05
-2.09760310642e-05
-2.0978777501e-05
-2.09814653971e-05
-2.09838738695e-05
-2.09812042047e-05
-2.09789435105e-05
-2.09763395031e-05
-2.09736819439e-05
-2.09712937693e-05
-2.0969423725e-05
-2.09682396227e-05
-2.0967841437e-05
-2.09682637284e-05
-2.09694717208e-05
-2.09713654375e-05
-2.09737770417e-05
-2.09764585301e-05
-2.09790840412e-05
-2.0981399125e-05
-2.09793629178e-05
-2.09772293433e-05
-2.09747275697e-05
-2.09721768448e-05
-2.09698830049e-05
-2.09680880015e-05
-2.09669524334e-05
-2.09665712226e-05
-2.09669769274e-05
-2.09681367673e-05
-2.09699557155e-05
-2.09722730922e-05
-2.09748471532e-05
-2.09773704371e-05
-2.09795583813e-05
-2.09780758375e-05
-2.09760846236e-05
-2.09737145624e-05
-2.09713059378e-05
-2.09691438442e-05
-2.09674560616e-05
-2.09663906098e-05
-2.09660340065e-05
-2.09664156839e-05
-2.09675060017e-05
-2.09692182639e-05
-2.0971404276e-05
-2.09738360125e-05
-2.0976228056e-05
-2.09782739692e-05
-2.09772421088e-05
-2.09753861758e-05
-2.0973167215e-05
-2.09709311882e-05
-2.09689355364e-05
-2.09673851307e-05
-2.09664100204e-05
-2.09660851447e-05
-2.09664359021e-05
-2.09674367378e-05
-2.09690125008e-05
-2.09710329013e-05
-2.09732923491e-05
-2.0975534398e-05
-2.09774461132e-05
-2.09767332331e-05
-2.09749794757e-05
-2.09729241818e-05
-2.09708920638e-05
-2.0969098841e-05
-2.09677164138e-05
-2.09668516066e-05
-2.0966565486e-05
-2.09668785203e-05
-2.09677702279e-05
-2.0969179317e-05
-2.09709986867e-05
-2.09730552725e-05
-2.09751354853e-05
-2.09769469485e-05
-2.09763667014e-05
-2.09746549847e-05
-2.09727839658e-05
-2.09710022137e-05
-2.0969456856e-05
-2.09682774594e-05
-2.09675448192e-05
-2.09673046985e-05
-2.09675729373e-05
-2.09683338652e-05
-2.09695417083e-05
-2.09711153263e-05
-2.09729235877e-05
-2.0974822025e-05
-2.09765934617e-05
-2.09757133548e-05
-2.09740112714e-05
-2.09724458996e-05
-2.09710207294e-05
-2.0969803726e-05
-2.09688825398e-05
-2.0968313858e-05
-2.09681304325e-05
-2.09683432128e-05
-2.09689417992e-05
-2.09698936424e-05
-2.09711419264e-05
-2.09725970826e-05
-2.09741941191e-05
-2.09759543031e-05
-2.09735781208e-05
-2.0972544937e-05
-2.09715875697e-05
-2.09707113211e-05
-2.09699542044e-05
-2.09693783709e-05
-2.0969024218e-05
-2.09689139977e-05
-2.09690557083e-05
-2.09694422415e-05
-2.09700519275e-05
-2.0970844821e-05
-2.09717577887e-05
-2.09727543009e-05
-2.09738356785e-05
-1.92238600774e-05
-1.92239044505e-05
-1.92239182617e-05
-1.92239250931e-05
-1.92239252331e-05
-1.9223923106e-05
-1.92239208771e-05
-1.92239203062e-05
-1.92239215719e-05
-1.92239248747e-05
-1.92239290049e-05
-1.92239316695e-05
-1.92239270579e-05
-1.92239136393e-05
-1.92238686094e-05
-1.92237520746e-05
-1.92237942342e-05
-1.92238125973e-05
-1.92238262508e-05
-1.92238322768e-05
-1.9223834457e-05
-1.92238348952e-05
-1.92238353736e-05
-1.92238360139e-05
-1.92238371018e-05
-1.92238373596e-05
-1.92238346378e-05
-1.92238238024e-05
-1.92238055515e-05
-1.9223762908e-05
-1.92234366215e-05
-1.92234613834e-05
-1.92234671343e-05
-1.92234724004e-05
-1.92234713255e-05
-1.92234682092e-05
-1.92234653989e-05
-1.92234648954e-05
-1.92234668392e-05
-1.92234714209e-05
-1.92234770021e-05
-1.92234811865e-05
-1.92234787621e-05
-1.92234727917e-05
-1.92234484605e-05
-1.92231126561e-05
-1.92231192603e-05
-1.92231086663e-05
-1.92231012477e-05
-1.92230892456e-05
-1.92230779181e-05
-1.92230700452e-05
-1.92230679292e-05
-1.92230717764e-05
-1.92230816259e-05
-1.92230953951e-05
-1.92231102379e-05
-1.92231203924e-05
-1.92231307033e-05
-1.92231255835e-05
-1.9222807936e-05
-1.92227980116e-05
-1.92227705529e-05
-1.92227494611e-05
-1.9222725732e-05
-1.92227055545e-05
-1.92226922345e-05
-1.92226883588e-05
-1.92226942289e-05
-1.92227097371e-05
-1.92227323996e-05
-1.92227588466e-05
-1.92227825432e-05
-1.92228097235e-05
-1.92228220936e-05
-1.92225160001e-05
-1.92224916306e-05
-1.92224473787e-05
-1.92224128766e-05
-1.92223778035e-05
-1.9222349215e-05
-1.92223307975e-05
-1.92223252965e-05
-1.92223330559e-05
-1.92223538873e-05
-1.92223850484e-05
-1.92224227826e-05
-1.92224598036e-05
-1.92225036587e-05
-1.92225317029e-05
-1.92222384175e-05
-1.92222015304e-05
-1.92221414239e-05
-1.92220947705e-05
-1.92220498131e-05
-1.92220141861e-05
-1.92219916437e-05
-1.92219848482e-05
-1.92219941329e-05
-1.92220192913e-05
-1.92220576023e-05
-1.92221052114e-05
-1.92221543552e-05
-1.9222213929e-05
-1.92222556999e-05
-1.92219781054e-05
-1.92219300795e-05
-1.92218555511e-05
-1.92217985213e-05
-1.92217458803e-05
-1.92217052372e-05
-1.92216799976e-05
-1.92216724069e-05
-1.92216826968e-05
-1.9221710743e-05
-1.92217541822e-05
-1.92218095008e-05
-1.92218689581e-05
-1.92219429727e-05
-1.92219968671e-05
-1.92217346849e-05
-1.92216757377e-05
-1.92215879382e-05
-1.92215224733e-05
-1.92214646467e-05
-1.92214212708e-05
-1.9221394915e-05
-1.92213870739e-05
-1.92213977717e-05
-1.92214270868e-05
-1.92214733679e-05
-1.92215339522e-05
-1.92216018162e-05
-1.92216891777e-05
-1.92217550957e-05
-1.92215038227e-05
-1.92214316294e-05
-1.9221330982e-05
-1.92212588642e-05
-1.92211982929e-05
-1.92211544391e-05
-1.92211284898e-05
-1.9221120923e-05
-1.92211314602e-05
-1.92211604823e-05
-1.92212073493e-05
-1.92212707702e-05
-1.92213452991e-05
-1.92214456683e-05
-1.92215259112e-05
-1.92212760772e-05
-1.92211851282e-05
-1.922107165e-05
-1.92209948801e-05
-1.92209341824e-05
-1.92208920548e-05
-1.92208679427e-05
-1.92208610985e-05
-1.92208709625e-05
-1.92208982027e-05
-1.92209434325e-05
-1.9221007123e-05
-1.92210863824e-05
-1.92211998363e-05
-1.9221300058e-05
-1.9221037306e-05
-1.92209186237e-05
-1.92207929546e-05
-1.92207147106e-05
-1.92206571065e-05
-1.92206190778e-05
-1.92205981127e-05
-1.92205924248e-05
-1.92206010839e-05
-1.92206251706e-05
-1.92206663341e-05
-1.92207270878e-05
-1.92208079735e-05
-1.92209340279e-05
-1.92210631072e-05
-1.92207623426e-05
-1.92206048752e-05
-1.92204723269e-05
-1.9220399927e-05
-1.92203506429e-05
-1.92203198059e-05
-1.92203036022e-05
-1.92202994079e-05
-1.92203064159e-05
-1.92203255494e-05
-1.92203594956e-05
-1.92204120312e-05
-1.92204873347e-05
-1.92206207614e-05
-1.92207896118e-05
-1.9220374613e-05
-1.92201831801e-05
-1.92200738783e-05
-1.92200267202e-05
-1.92199972687e-05
-1.9219980104e-05
-1.92199717184e-05
-1.92199700765e-05
-1.92199742041e-05
-1.92199852144e-05
-1.92200052467e-05
-1.92200380258e-05
-1.92200883245e-05
-1.92201994918e-05
-1.92204024548e-05
-1.92197394697e-05
-1.92196530934e-05
-1.92196201415e-05
-1.92196180857e-05
-1.92196164074e-05
-1.92196161631e-05
-1.92196169553e-05
-1.92196180311e-05
-1.92196191675e-05
-1.92196205887e-05
-1.92196233827e-05
-1.92196282619e-05
-1.92196341602e-05
-1.92196704912e-05
-1.92197666609e-05
-1.87814553689e-05
-1.87813450888e-05
-1.87812151802e-05
-1.87810880946e-05
-1.87809729185e-05
-1.87808837221e-05
-1.8780827734e-05
-1.87808091799e-05
-1.87808295193e-05
-1.87808870001e-05
-1.8780977066e-05
-1.8781092339e-05
-1.87812211776e-05
-1.87813500574e-05
-1.87814608956e-05
-1.87812681825e-05
-1.87811571728e-05
-1.87810264206e-05
-1.87808982524e-05
-1.87807822986e-05
-1.87806923254e-05
-1.87806358102e-05
-1.87806171576e-05
-1.87806379923e-05
-1.87806964063e-05
-1.87807876174e-05
-1.87809040389e-05
-1.87810337949e-05
-1.87811639882e-05
-1.87812753566e-05
-1.87812150007e-05
-1.87811142457e-05
-1.8780993038e-05
-1.87808733873e-05
-1.8780764537e-05
-1.87806796653e-05
-1.87806261571e-05
-1.87806084959e-05
-1.87806283827e-05
-1.87806838602e-05
-1.87807701119e-05
-1.87808796275e-05
-1.87810006237e-05
-1.87811214446e-05
-1.87812228283e-05
-1.87812004982e-05
-1.87811103978e-05
-1.87809984486e-05
-1.87808880781e-05
-1.87807871305e-05
-1.87807081075e-05
-1.87806580929e-05
-1.8780641569e-05
-1.87806602687e-05
-1.87807122433e-05
-1.87807927573e-05
-1.8780894537e-05
-1.87810060764e-05
-1.87811175313e-05
-1.87812090247e-05
-1.87811923736e-05
-1.87811119464e-05
-1.87810080877e-05
-1.87809067414e-05
-1.8780813613e-05
-1.87807405245e-05
-1.87806941753e-05
-1.87806788823e-05
-1.87806963348e-05
-1.87807446421e-05
-1.87808192706e-05
-1.87809133399e-05
-1.87810158164e-05
-1.878111904e-05
-1.87812015595e-05
-1.8781195273e-05
-1.87811242958e-05
-1.87810285613e-05
-1.87809364673e-05
-1.87808516413e-05
-1.8780785024e-05
-1.8780742749e-05
-1.87807288424e-05
-1.87807448921e-05
-1.87807891258e-05
-1.87808573296e-05
-1.87809431901e-05
-1.87810363497e-05
-1.87811315369e-05
-1.87812049864e-05
-1.87812133798e-05
-1.87811522512e-05
-1.87810646537e-05
-1.87809821212e-05
-1.87809060869e-05
-1.87808464517e-05
-1.87808086594e-05
-1.87807962944e-05
-1.87808107913e-05
-1.8780850534e-05
-1.87809117731e-05
-1.87809889088e-05
-1.87810724593e-05
-1.87811595726e-05
-1.87812237128e-05
-1.8781246916e-05
-1.87811954658e-05
-1.87811157484e-05
-1.87810427807e-05
-1.87809758112e-05
-1.87809235141e-05
-1.87808904963e-05
-1.87808797866e-05
-1.87808926168e-05
-1.87809275778e-05
-1.87809815026e-05
-1.87810496488e-05
-1.87811236163e-05
-1.8781202892e-05
-1.87812579694e-05
-1.87812944495e-05
-1.87812515813e-05
-1.87811791227e-05
-1.87811153464e-05
-1.87810573926e-05
-1.87810125285e-05
-1.87809844146e-05
-1.87809754152e-05
-1.8780986514e-05
-1.87810165589e-05
-1.87810630598e-05
-1.87811222643e-05
-1.87811870646e-05
-1.87812591454e-05
-1.87813062314e-05
-1.87813531568e-05
-1.87813167161e-05
-1.87812504727e-05
-1.87811951796e-05
-1.8781145952e-05
-1.87811084373e-05
-1.87810852129e-05
-1.87810779318e-05
-1.87810872895e-05
-1.87811124279e-05
-1.87811516022e-05
-1.87812021607e-05
-1.87812585245e-05
-1.87813245012e-05
-1.87813657107e-05
-1.87814188541e-05
-1.87813855321e-05
-1.87813241377e-05
-1.87812765079e-05
-1.87812356167e-05
-1.87812052127e-05
-1.87811867697e-05
-1.87811811518e-05
-1.87811888084e-05
-1.87812091404e-05
-1.87812412133e-05
-1.87812835273e-05
-1.87813322829e-05
-1.87813935525e-05
-1.87814322179e-05
-1.87814867778e-05
-1.87814516952e-05
-1.87813936055e-05
-1.87813529687e-05
-1.87813200091e-05
-1.87812964372e-05
-1.87812825149e-05
-1.87812784969e-05
-1.87812844836e-05
-1.87813002562e-05
-1.87813255003e-05
-1.87813599504e-05
-1.87814017969e-05
-1.87814598874e-05
-1.87815007994e-05
-1.87815512841e-05
-1.87815078456e-05
-1.87814520869e-05
-1.87814183796e-05
-1.87813930246e-05
-1.87813756658e-05
-1.87813658689e-05
-1.87813631765e-05
-1.87813677318e-05
-1.87813792862e-05
-1.87813982647e-05
-1.87814251794e-05
-1.87814601699e-05
-1.87815161236e-05
-1.87815658684e-05
-1.87815852773e-05
-1.87815310641e-05
-1.87814865173e-05
-1.87814643372e-05
-1.87814483591e-05
-1.87814378014e-05
-1.87814319743e-05
-1.8781430677e-05
-1.87814336798e-05
-1.87814410827e-05
-1.87814531972e-05
-1.87814707008e-05
-1.87814942376e-05
-1.87815392704e-05
-1.87816000765e-05
-1.87814545914e-05
-1.87814695161e-05
-1.8781470911e-05
-1.8781480134e-05
-1.8781485666e-05
-1.87814893345e-05
-1.87814917866e-05
-1.87814930795e-05
-1.87814933027e-05
-1.87814922814e-05
-1.87814899853e-05
-1.87814859501e-05
-1.87814782602e-05
-1.87814777297e-05
-1.87814684632e-05
-1.72799286212e-05
-1.7279976452e-05
-1.72800188464e-05
-1.72800575155e-05
-1.72800897509e-05
-1.72801134997e-05
-1.72801278467e-05
-1.72801320435e-05
-1.72801257328e-05
-1.7280109478e-05
-1.72800843974e-05
-1.72800520414e-05
-1.72800136565e-05
-1.72799722367e-05
-1.72799224493e-05
-1.72799383844e-05
-1.72799857299e-05
-1.72800296244e-05
-1.72800708249e-05
-1.72801051461e-05
-1.7280130478e-05
-1.72801457737e-05
-1.72801502722e-05
-1.72801435623e-05
-1.72801262992e-05
-1.72800996662e-05
-1.72800653785e-05
-1.72800249955e-05
-1.72799820694e-05
-1.72799336286e-05
-1.72798342988e-05
-1.72798725597e-05
-1.72799084705e-05
-1.72799440365e-05
-1.72799738685e-05
-1.72799962131e-05
-1.72800098093e-05
-1.72800138499e-05
-1.728000785e-05
-1.72799924964e-05
-1.72799689582e-05
-1.72799389993e-05
-1.72799042272e-05
-1.7279868721e-05
-1.72798299998e-05
-1.72797213708e-05
-1.72797509974e-05
-1.72797789424e-05
-1.7279808171e-05
-1.72798330695e-05
-1.72798520793e-05
-1.72798637793e-05
-1.72798673109e-05
-1.72798621353e-05
-1.72798489489e-05
-1.72798289028e-05
-1.72798037802e-05
-1.72797751225e-05
-1.7279747276e-05
-1.72797174427e-05
-1.7279619938e-05
-1.72796426034e-05
-1.72796637215e-05
-1.72796871383e-05
-1.7279707494e-05
-1.72797233088e-05
-1.72797331864e-05
-1.72797361928e-05
-1.72797317929e-05
-1.72797206501e-05
-1.72797039035e-05
-1.7279683292e-05
-1.72796602051e-05
-1.72796390687e-05
-1.7279616387e-05
-1.72795244866e-05
-1.72795414961e-05
-1.72795559326e-05
-1.727957385e-05
-1.72795897322e-05
-1.72796023966e-05
-1.72796104313e-05
-1.72796129151e-05
-1.72796092886e-05
-1.7279600207e-05
-1.72795867597e-05
-1.72795706059e-05
-1.72795529049e-05
-1.72795380839e-05
-1.72795216553e-05
-1.7279432703e-05
-1.72794445433e-05
-1.72794526025e-05
-1.72794652004e-05
-1.72794766624e-05
-1.72794861637e-05
-1.72794923269e-05
-1.72794942643e-05
-1.72794914044e-05
-1.72794843764e-05
-1.72794742156e-05
-1.72794624654e-05
-1.72794500162e-05
-1.72794412756e-05
-1.7279430497e-05
-1.72793442203e-05
-1.7279351065e-05
-1.72793531328e-05
-1.72793605749e-05
-1.72793678388e-05
-1.72793743094e-05
-1.72793786949e-05
-1.72793801037e-05
-1.7279377984e-05
-1.72793729176e-05
-1.72793659012e-05
-1.72793583549e-05
-1.7279350923e-05
-1.72793480286e-05
-1.72793424899e-05
-1.72792581634e-05
-1.72792602484e-05
-1.72792565836e-05
-1.72792592552e-05
-1.72792627028e-05
-1.72792664236e-05
-1.72792692e-05
-1.72792701275e-05
-1.72792686696e-05
-1.72792653687e-05
-1.72792611954e-05
-1.72792574798e-05
-1.72792547039e-05
-1.72792574269e-05
-1.72792570173e-05
-1.72791733408e-05
-1.72791703225e-05
-1.72791611784e-05
-1.72791596613e-05
-1.72791598963e-05
-1.7279161372e-05
-1.72791628354e-05
-1.72791633837e-05
-1.72791624663e-05
-1.72791606101e-05
-1.72791587782e-05
-1.72791582792e-05
-1.72791596012e-05
-1.72791676935e-05
-1.72791727728e-05
-1.72790875002e-05
-1.72790785129e-05
-1.72790643781e-05
-1.7279059621e-05
-1.7279057627e-05
-1.72790575693e-05
-1.72790581734e-05
-1.72790584611e-05
-1.72790579212e-05
-1.7279057028e-05
-1.72790567985e-05
-1.72790585786e-05
-1.72790630865e-05
-1.72790761583e-05
-1.72790876435e-05
-1.72789974901e-05
-1.72789810994e-05
-1.72789629318e-05
-1.72789565025e-05
-1.72789536396e-05
-1.72789530926e-05
-1.72789533893e-05
-1.72789536224e-05
-1.72789532134e-05
-1.72789526936e-05
-1.72789530338e-05
-1.72789557161e-05
-1.72789619122e-05
-1.72789790819e-05
-1.72789984309e-05
-1.72788963987e-05
-1.72788713758e-05
-1.72788517901e-05
-1.72788465697e-05
-1.72788450896e-05
-1.72788454301e-05
-1.72788463263e-05
-1.72788466787e-05
-1.72788461856e-05
-1.72788451186e-05
-1.72788445793e-05
-1.72788459795e-05
-1.72788510032e-05
-1.72788697521e-05
-1.72788981619e-05
-1.72787645463e-05
-1.72787340873e-05
-1.72787216212e-05
-1.72787236855e-05
-1.72787274772e-05
-1.72787314432e-05
-1.72787342836e-05
-1.72787353616e-05
-1.72787341529e-05
-1.72787310871e-05
-1.72787269898e-05
-1.72787231221e-05
-1.72787209741e-05
-1.72787328918e-05
-1.72787672168e-05
-1.72785889296e-05
-1.72785777467e-05
-1.72785836188e-05
-1.72785961939e-05
-1.72786065106e-05
-1.72786145405e-05
-1.72786197591e-05
-1.72786215115e-05
-1.72786195678e-05
-1.72786141152e-05
-1.7278605852e-05
-1.72785954879e-05
-1.72785829721e-05
-1.72785768885e-05
-1.72785914362e-05
-1.6601476111e-05
-1.66014192151e-05
-1.66013551877e-05
-1.66012946226e-05
-1.66012397929e-05
-1.66011968184e-05
-1.66011699934e-05
-1.66011609651e-05
-1.66011702172e-05
-1.66011968427e-05
-1.66012387855e-05
-1.6601292812e-05
-1.66013540831e-05
-1.66014167409e-05
-1.66014747448e-05
-1.66013914339e-05
-1.66013344911e-05
-1.66012701317e-05
-1.66012087064e-05
-1.66011530815e-05
-1.66011095622e-05
-1.66010823595e-05
-1.66010732225e-05
-1.66010827353e-05
-1.66011099038e-05
-1.6601152585e-05
-1.66012074577e-05
-1.66012695385e-05
-1.66013331174e-05
-1.66013909785e-05
-1.66013968728e-05
-1.66013467839e-05
-1.66012888064e-05
-1.6601232555e-05
-1.66011814072e-05
-1.6601141275e-05
-1.66011160681e-05
-1.6601107564e-05
-1.66011164177e-05
-1.66011416411e-05
-1.66011811187e-05
-1.66012316016e-05
-1.66012881821e-05
-1.66013455882e-05
-1.66013963987e-05
-1.66014230684e-05
-1.66013800947e-05
-1.66013283437e-05
-1.66012778209e-05
-1.66012316543e-05
-1.66011953806e-05
-1.6601172455e-05
-1.66011646712e-05
-1.66011727365e-05
-1.66011956982e-05
-1.66012315147e-05
-1.66012770804e-05
-1.66013276642e-05
-1.66013787355e-05
-1.66014226226e-05
-1.66014502211e-05
-1.66014136445e-05
-1.66013673321e-05
-1.66013223623e-05
-1.66012810531e-05
-1.6601248527e-05
-1.66012278871e-05
-1.66012208491e-05
-1.66012281241e-05
-1.66012488031e-05
-1.66012809692e-05
-1.6601321727e-05
-1.66013666229e-05
-1.66014120576e-05
-1.66014498184e-05
-1.66014813166e-05
-1.66014505085e-05
-1.6601409703e-05
-1.66013703236e-05
-1.66013340195e-05
-1.66013054179e-05
-1.66012871998e-05
-1.6601280966e-05
-1.66012873932e-05
-1.66013056458e-05
-1.6601333973e-05
-1.66013697682e-05
-1.66014089502e-05
-1.66014489424e-05
-1.6601480797e-05
-1.66015183159e-05
-1.66014933712e-05
-1.66014579791e-05
-1.6601424226e-05
-1.66013930559e-05
-1.66013684921e-05
-1.66013528134e-05
-1.66013474358e-05
-1.66013529706e-05
-1.66013686679e-05
-1.66013929956e-05
-1.66014236915e-05
-1.66014571281e-05
-1.66014917567e-05
-1.66015177986e-05
-1.6601561208e-05
-1.66015419861e-05
-1.66015117633e-05
-1.66014835648e-05
-1.66014575274e-05
-1.66014370324e-05
-1.66014239376e-05
-1.66014194376e-05
-1.66014240616e-05
-1.66014371607e-05
-1.6601457457e-05
-1.66014830755e-05
-1.66015109071e-05
-1.66015403657e-05
-1.6601560867e-05
-1.6601609558e-05
-1.66015955559e-05
-1.6601570142e-05
-1.66015472152e-05
-1.66015261028e-05
-1.66015095432e-05
-1.6601498983e-05
-1.66014953477e-05
-1.66014990775e-05
-1.66015096306e-05
-1.6601526007e-05
-1.66015467475e-05
-1.66015693034e-05
-1.66015939528e-05
-1.66016094075e-05
-1.66016625398e-05
-1.66016528919e-05
-1.66016317943e-05
-1.66016136605e-05
-1.66015971203e-05
-1.66015842646e-05
-1.66015760912e-05
-1.66015732874e-05
-1.66015761655e-05
-1.66015843188e-05
-1.66015970226e-05
-1.66016132464e-05
-1.66016310375e-05
-1.66016514101e-05
-1.66016626304e-05
-1.66017190513e-05
-1.66017126665e-05
-1.66016952024e-05
-1.66016812083e-05
-1.66016687521e-05
-1.66016592066e-05
-1.66016532134e-05
-1.66016511511e-05
-1.66016532668e-05
-1.66016592358e-05
-1.66016686369e-05
-1.66016808447e-05
-1.66016945158e-05
-1.66017113193e-05
-1.66017194134e-05
-1.66017782418e-05
-1.66017734775e-05
-1.6601758683e-05
-1.66017480782e-05
-1.66017390274e-05
-1.66017323513e-05
-1.6601728184e-05
-1.66017267925e-05
-1.66017282173e-05
-1.66017323465e-05
-1.66017389221e-05
-1.66017477432e-05
-1.66017580743e-05
-1.66017722067e-05
-1.6601778789e-05
-1.66018399233e-05
-1.6601834313e-05
-1.66018209949e-05
-1.66018127716e-05
-1.66018063349e-05
-1.66018016658e-05
-1.66017989372e-05
-1.66017979429e-05
-1.66017989415e-05
-1.66018016559e-05
-1.66018061703e-05
-1.66018124846e-05
-1.66018204171e-05
-1.66018331249e-05
-1.66018406619e-05
-1.66018981576e-05
-1.66018896998e-05
-1.66018790319e-05
-1.66018734207e-05
-1.66018689554e-05
-1.66018658756e-05
-1.66018639264e-05
-1.66018633248e-05
-1.66018639258e-05
-1.66018657688e-05
-1.66018687885e-05
-1.66018730464e-05
-1.66018784625e-05
-1.66018885196e-05
-1.66018990559e-05
-1.66018985963e-05
-1.66019140003e-05
-1.66019178413e-05
-1.66019223045e-05
-1.66019248939e-05
-1.6601926333e-05
-1.66019271035e-05
-1.66019272907e-05
-1.66019270343e-05
-1.66019261774e-05
-1.66019245622e-05
-1.66019218545e-05
-1.66019171635e-05
-1.66019128076e-05
-1.6601899116e-05
-1.52518515363e-05
-1.52518882337e-05
-1.52519247572e-05
-1.52519585783e-05
-1.52519872881e-05
-1.525200872e-05
-1.52520216857e-05
-1.52520254643e-05
-1.52520197961e-05
-1.52520051651e-05
-1.52519826386e-05
-1.52519538097e-05
-1.52519204956e-05
-1.52518856376e-05
-1.52518480386e-05
-1.52518731762e-05
-1.5251910013e-05
-1.52519474486e-05
-1.52519827687e-05
-1.52520127313e-05
-1.52520350808e-05
-1.52520485696e-05
-1.5252052478e-05
-1.5252046512e-05
-1.52520312255e-05
-1.52520077437e-05
-1.52519777602e-05
-1.52519432804e-05
-1.52519074851e-05
-1.52518705884e-05
-1.52518190705e-05
-1.52518499542e-05
-1.52518817157e-05
-1.52519129574e-05
-1.52519396798e-05
-1.52519598746e-05
-1.52519721588e-05
-1.52519757616e-05
-1.52519703263e-05
-1.52519564336e-05
-1.52519352039e-05
-1.52519083496e-05
-1.52518778864e-05
-1.52518471641e-05
-1.52518166828e-05
-1.52517560315e-05
-1.52517808275e-05
-1.52518069988e-05
-1.52518336159e-05
-1.52518567614e-05
-1.52518745146e-05
-1.52518854229e-05
-1.52518886777e-05
-1.52518838728e-05
-1.5251871596e-05
-1.52518529514e-05
-1.52518296356e-05
-1.52518035953e-05
-1.52517781537e-05
-1.52517537031e-05
-1.52516981515e-05
-1.52517178111e-05
-1.52517391143e-05
-1.52517613348e-05
-1.52517810389e-05
-1.52517963556e-05
-1.52518058796e-05
-1.52518087513e-05
-1.52518045629e-05
-1.52517938761e-05
-1.52517777676e-05
-1.52517578674e-05
-1.5251735982e-05
-1.52517152712e-05
-1.52516959054e-05
-1.52516418563e-05
-1.52516571779e-05
-1.52516735507e-05
-1.52516915462e-05
-1.52517077753e-05
-1.52517205903e-05
-1.52517286409e-05
-1.52517310957e-05
-1.52517275348e-05
-1.5251718505e-05
-1.52517050182e-05
-1.5251688599e-05
-1.52516708467e-05
-1.52516546975e-05
-1.52516399988e-05
-1.52515856658e-05
-1.52515967942e-05
-1.52516083932e-05
-1.52516221831e-05
-1.52516348547e-05
-1.52516450702e-05
-1.52516515686e-05
-1.52516535692e-05
-1.52516506513e-05
-1.52516433302e-05
-1.52516325372e-05
-1.52516196532e-05
-1.52516060312e-05
-1.52515943695e-05
-1.52515840908e-05
-1.52515294325e-05
-1.52515363575e-05
-1.52515434441e-05
-1.52515531199e-05
-1.5251562333e-05
-1.52515699822e-05
-1.52515749394e-05
-1.52515764726e-05
-1.52515741871e-05
-1.525156855e-05
-1.52515604083e-05
-1.52515509824e-05
-1.52515413716e-05
-1.52515340737e-05
-1.52515279832e-05
-1.5251472808e-05
-1.52514758554e-05
-1.52514786561e-05
-1.52514844765e-05
-1.52514904533e-05
-1.52514956813e-05
-1.52514991805e-05
-1.52515002613e-05
-1.52514985642e-05
-1.52514945028e-05
-1.52514888386e-05
-1.52514826401e-05
-1.52514767852e-05
-1.52514736534e-05
-1.52514715879e-05
-1.52514156012e-05
-1.52514148214e-05
-1.52514136253e-05
-1.52514160467e-05
-1.52514192001e-05
-1.52514223476e-05
-1.52514245708e-05
-1.52514252647e-05
-1.52514240743e-05
-1.52514213812e-05
-1.52514178642e-05
-1.525141447e-05
-1.52514119326e-05
-1.52514126808e-05
-1.52514145758e-05
-1.52513570373e-05
-1.52513523934e-05
-1.5251347729e-05
-1.5251347452e-05
-1.52513484753e-05
-1.52513500144e-05
-1.52513512767e-05
-1.52513516589e-05
-1.52513508685e-05
-1.52513492183e-05
-1.52513473426e-05
-1.52513460993e-05
-1.52513461955e-05
-1.52513503716e-05
-1.52513563332e-05
-1.52512959859e-05
-1.52512872952e-05
-1.52512799793e-05
-1.52512781125e-05
-1.52512778993e-05
-1.52512785801e-05
-1.52512792526e-05
-1.52512794842e-05
-1.52512789168e-05
-1.52512778987e-05
-1.52512769622e-05
-1.52512769365e-05
-1.52512786208e-05
-1.52512854577e-05
-1.52512956983e-05
-1.52512292233e-05
-1.52512165952e-05
-1.52512084099e-05
-1.52512067133e-05
-1.52512068218e-05
-1.52512075188e-05
-1.5251208304e-05
-1.52512084883e-05
-1.52512080084e-05
-1.52512069826e-05
-1.52512059899e-05
-1.52512057629e-05
-1.52512072422e-05
-1.52512150266e-05
-1.52512294165e-05
-1.52511480675e-05
-1.52511338819e-05
-1.5251129074e-05
-1.5251130923e-05
-1.52511334479e-05
-1.52511359706e-05
-1.5251137638e-05
-1.52511382324e-05
-1.52511374152e-05
-1.52511354607e-05
-1.52511327957e-05
-1.52511300808e-05
-1.52511281496e-05
-1.52511326601e-05
-1.52511489723e-05
-1.52510571426e-05
-1.52510485903e-05
-1.52510508394e-05
-1.52510564736e-05
-1.52510614926e-05
-1.52510655045e-05
-1.52510681624e-05
-1.52510690069e-05
-1.52510679271e-05
-1.52510650587e-05
-1.52510608171e-05
-1.52510557148e-05
-1.52510500033e-05
-1.52510476681e-05
-1.5251058099e-05
-1.44545775352e-05
-1.44545384365e-05
-1.44544932298e-05
-1.44544500741e-05
-1.44544124874e-05
-1.44543836387e-05
-1.44543653702e-05
-1.4454359149e-05
-1.44543655967e-05
-1.44543841286e-05
-1.44544132977e-05
-1.44544507903e-05
-1.44544933034e-05
-1.44545367367e-05
-1.44545774079e-05
-1.44545243066e-05
-1.44544851572e-05
-1.44544395693e-05
-1.445439573e-05
-1.44543575057e-05
-1.44543281313e-05
-1.44543095416e-05
-1.44543032262e-05
-1.44543098524e-05
-1.44543287917e-05
-1.44543585264e-05
-1.44543966805e-05
-1.44544398288e-05
-1.44544839256e-05
-1.44545244243e-05
-1.44545362302e-05
-1.44545019286e-05
-1.44544611843e-05
-1.44544212291e-05
-1.44543860815e-05
-1.44543588847e-05
-1.44543416152e-05
-1.44543357396e-05
-1.44543419219e-05
-1.44543595174e-05
-1.4454387022e-05
-1.44544220985e-05
-1.44544613619e-05
-1.44545009955e-05
-1.44545363088e-05
-1.44545618892e-05
-1.44545327588e-05
-1.44544967331e-05
-1.44544611386e-05
-1.44544294155e-05
-1.44544046887e-05
-1.44543889376e-05
-1.44543835688e-05
-1.4454389219e-05
-1.44544052406e-05
-1.44544301756e-05
-1.44544617756e-05
-1.44544967732e-05
-1.44545317932e-05
-1.44545620599e-05
-1.44545874908e-05
-1.44545629895e-05
-1.44545311083e-05
-1.4454499691e-05
-1.44544713583e-05
-1.44544491563e-05
-1.44544349705e-05
-1.4454430128e-05
-1.44544352244e-05
-1.44544496353e-05
-1.44544719757e-05
-1.44545001399e-05
-1.44545310522e-05
-1.44545619127e-05
-1.44545876776e-05
-1.44546154128e-05
-1.44545950295e-05
-1.44545674032e-05
-1.44545401875e-05
-1.4454515385e-05
-1.44544958588e-05
-1.44544833524e-05
-1.44544790762e-05
-1.4454483572e-05
-1.44544962531e-05
-1.445451584e-05
-1.44545404254e-05
-1.44545672002e-05
-1.44545940078e-05
-1.44546154397e-05
-1.4454646971e-05
-1.44546307864e-05
-1.44546073528e-05
-1.44545843356e-05
-1.44545632065e-05
-1.44545465123e-05
-1.44545357983e-05
-1.44545321256e-05
-1.44545359825e-05
-1.44545468247e-05
-1.44545635245e-05
-1.44545844098e-05
-1.44546069949e-05
-1.44546297752e-05
-1.44546469406e-05
-1.44546821025e-05
-1.44546700866e-05
-1.44546506651e-05
-1.44546318092e-05
-1.44546143751e-05
-1.44546005543e-05
-1.44545916667e-05
-1.44545886116e-05
-1.44545918105e-05
-1.44546007777e-05
-1.44546145574e-05
-1.44546317459e-05
-1.44546502233e-05
-1.44546690954e-05
-1.44546821835e-05
-1.44547205904e-05
-1.44547123945e-05
-1.44546967175e-05
-1.44546817933e-05
-1.44546679108e-05
-1.4454656893e-05
-1.44546497975e-05
-1.44546473552e-05
-1.44546499035e-05
-1.44546570405e-05
-1.44546679879e-05
-1.44546816325e-05
-1.4454696237e-05
-1.44547114436e-05
-1.44547207711e-05
-1.4454761919e-05
-1.44547570182e-05
-1.44547447359e-05
-1.4454733366e-05
-1.44547227646e-05
-1.44547143487e-05
-1.44547089313e-05
-1.44547070582e-05
-1.44547090004e-05
-1.44547144268e-05
-1.44547227514e-05
-1.44547331478e-05
-1.44547442673e-05
-1.44547561801e-05
-1.44547622489e-05
-1.44548055532e-05
-1.44548033039e-05
-1.44547938868e-05
-1.4454785536e-05
-1.44547777843e-05
-1.44547716662e-05
-1.4454767736e-05
-1.44547663729e-05
-1.44547677767e-05
-1.44547716853e-05
-1.4454777709e-05
-1.44547852846e-05
-1.44547934359e-05
-1.44548025707e-05
-1.44548060251e-05
-1.44548511782e-05
-1.44548506099e-05
-1.44548433071e-05
-1.44548373046e-05
-1.44548318551e-05
-1.44548276038e-05
-1.44548249037e-05
-1.44548239612e-05
-1.44548249147e-05
-1.44548275895e-05
-1.44548317265e-05
-1.44548370383e-05
-1.44548428898e-05
-1.44548499239e-05
-1.44548517086e-05
-1.44548992308e-05
-1.44548988e-05
-1.44548925573e-05
-1.44548879954e-05
-1.44548840339e-05
-1.44548810538e-05
-1.44548791632e-05
-1.44548785093e-05
-1.44548791651e-05
-1.44548809864e-05
-1.44548838796e-05
-1.44548877095e-05
-1.44548921451e-05
-1.4454898147e-05
-1.44548997906e-05
-1.44549475615e-05
-1.44549456615e-05
-1.44549404192e-05
-1.44549367781e-05
-1.4454933646e-05
-1.44549312408e-05