/*--------------------------------*- C++ -*----------------------------------*\
  =========                 |
  \\      /  F ield         | OpenFOAM: The Open Source CFD Toolbox
   \\    /   O peration     | Website:  https://openfoam.org
    \\  /    A nd           | Version:  7
     \\/     M anipulation  |
\*---------------------------------------------------------------------------*/
FoamFile
{
    version     2.0;
    format      ascii;
    class       volScalarField;
    location    "1.08";
    object      p;
}
// * * * * * * * * * * * * * * * * * * * * * * * * * * * * * * * * * * * * * //

dimensions      [0 2 -2 0 0 0 0];

internalField   nonuniform List<scalar> 
22500
(
4.33602857186e-06
4.33566585031e-06
4.33498263225e-06
4.33436826632e-06
4.33382321838e-06
4.33341496039e-06
4.33316251002e-06
4.33307856536e-06
4.33316495538e-06
4.33341999026e-06
4.33383142406e-06
4.33438052968e-06
4.33500161848e-06
4.33569179951e-06
4.33607859947e-06
4.33589585001e-06
4.33557432853e-06
4.33489546003e-06
4.33427198959e-06
4.33370806421e-06
4.3332794015e-06
4.33301200016e-06
4.33292289264e-06
4.33301596956e-06
4.3332874704e-06
4.33372077731e-06
4.33429019807e-06
4.33492158757e-06
4.33560814073e-06
4.33595330565e-06
4.33603395553e-06
4.33577515197e-06
4.33512514559e-06
4.33451873145e-06
4.33395672608e-06
4.33352397469e-06
4.33325176955e-06
4.33316095267e-06
4.33325703135e-06
4.33353461105e-06
4.33397321351e-06
4.33454181181e-06
4.33515710654e-06
4.33581505867e-06
4.33609790479e-06
4.3364815983e-06
4.336298444e-06
4.3356999646e-06
4.33513098242e-06
4.33459030684e-06
4.33416875048e-06
4.33390164666e-06
4.33381257806e-06
4.33390820935e-06
4.33418197147e-06
4.33461058431e-06
4.33515891337e-06
4.33573761779e-06
4.33634415266e-06
4.33655181713e-06
4.33722044652e-06
4.33712654137e-06
4.336600999e-06
4.33608635057e-06
4.33558335954e-06
4.33518572281e-06
4.33493198547e-06
4.33484754992e-06
4.33493993426e-06
4.33520170941e-06
4.33560768811e-06
4.33611943819e-06
4.33664457911e-06
4.33717840317e-06
4.33729738276e-06
4.33823180879e-06
4.33824112781e-06
4.3378087633e-06
4.33736419836e-06
4.33691401972e-06
4.3365521693e-06
4.33631949182e-06
4.33624238525e-06
4.33632892024e-06
4.33657111633e-06
4.33694269619e-06
4.33740283542e-06
4.33785865741e-06
4.33829969362e-06
4.33831598797e-06
4.33950155384e-06
4.33962787552e-06
4.33930751461e-06
4.33894797138e-06
4.33856506855e-06
4.33825059289e-06
4.33804652999e-06
4.33797939911e-06
4.33805750795e-06
4.33827263979e-06
4.33859830822e-06
4.33899244765e-06
4.33936402443e-06
4.33969357401e-06
4.33959342578e-06
4.34101490462e-06
4.34127071251e-06
4.34107915544e-06
4.3408186004e-06
4.34051688622e-06
4.3402612864e-06
4.34009342534e-06
4.3400389616e-06
4.34010609172e-06
4.34028669467e-06
4.34055504851e-06
4.34086935343e-06
4.34114274624e-06
4.34134413207e-06
4.34111487479e-06
4.34275317101e-06
4.34314840431e-06
4.34309973166e-06
4.34295104382e-06
4.34274398316e-06
4.34255882656e-06
4.34243490586e-06
4.34239587526e-06
4.34244940331e-06
4.34258785428e-06
4.34278740524e-06
4.34300846947e-06
4.3431708452e-06
4.34323016188e-06
4.34286181164e-06
4.34469070399e-06
4.34523053475e-06
4.34533543875e-06
4.34531068396e-06
4.34521176562e-06
4.3451090445e-06
4.34503712036e-06
4.34501641374e-06
4.34505356305e-06
4.34514189043e-06
4.34526075043e-06
4.34537518869e-06
4.3454146064e-06
4.34532137318e-06
4.34480871125e-06
4.34679116491e-06
4.34747360985e-06
4.34773890108e-06
4.34785002709e-06
4.3478735782e-06
4.34786614644e-06
4.34785483488e-06
4.3478554765e-06
4.34787329044e-06
4.34790295659e-06
4.34792836606e-06
4.34792200313e-06
4.34782670895e-06
4.34757439543e-06
4.3469196865e-06
4.34901316829e-06
4.34982047413e-06
4.35024607577e-06
4.3505056085e-06
4.35066754789e-06
4.35076936366e-06
4.35082769789e-06
4.35085284049e-06
4.35084817908e-06
4.35081019676e-06
4.35072830637e-06
4.35058537789e-06
4.3503431098e-06
4.34993208139e-06
4.34915341023e-06
4.35131107705e-06
4.35218270008e-06
4.35276216116e-06
4.35318940858e-06
4.35351013617e-06
4.35373667823e-06
4.35387408488e-06
4.35392673614e-06
4.35389650834e-06
4.35378139592e-06
4.3535767451e-06
4.35327702878e-06
4.35286883461e-06
4.35230582129e-06
4.35146369339e-06
4.35341539457e-06
4.35430293868e-06
4.35510962501e-06
4.35576651515e-06
4.35628967294e-06
4.35666833709e-06
4.35689968297e-06
4.35698471957e-06
4.35692383542e-06
4.35671655248e-06
4.35636169816e-06
4.35586169224e-06
4.35522613593e-06
4.35443872475e-06
4.35357966556e-06
4.35409627225e-06
4.35587053121e-06
4.3571239872e-06
4.35814968863e-06
4.358958941e-06
4.3595406967e-06
4.35989457205e-06
4.36002105913e-06
4.35992052468e-06
4.35959256061e-06
4.35903663755e-06
4.35825304825e-06
4.35725227215e-06
4.35602264892e-06
4.35427202309e-06
3.7766963637e-06
3.77677722151e-06
3.77687455692e-06
3.77696472347e-06
3.77704223059e-06
3.77709954739e-06
3.7771333343e-06
3.77714144569e-06
3.7771230713e-06
3.77707915419e-06
3.77701237404e-06
3.77692701126e-06
3.77683150909e-06
3.77673295095e-06
3.77665350506e-06
3.77690434306e-06
3.77698517334e-06
3.77708335803e-06
3.77717454934e-06
3.77725347762e-06
3.77731213354e-06
3.77734685822e-06
3.77735531444e-06
3.77733663452e-06
3.77729192103e-06
3.7772240846e-06
3.77713770066e-06
3.77704150093e-06
3.77694192178e-06
3.77686219943e-06
3.77702178763e-06
3.77709384362e-06
3.77718491573e-06
3.77726927929e-06
3.77734298782e-06
3.77739798407e-06
3.77743058137e-06
3.77743832986e-06
3.77742030818e-06
3.77737767676e-06
3.77731342599e-06
3.777232151e-06
3.77714272403e-06
3.77705015966e-06
3.77697935653e-06
3.77705962168e-06
3.77711836875e-06
3.77719913504e-06
3.77727343398e-06
3.77733915649e-06
3.77738838386e-06
3.7774175247e-06
3.77742414004e-06
3.77740731042e-06
3.77736820346e-06
3.77730976134e-06
3.77723644197e-06
3.77715701832e-06
3.7770746708e-06
3.77701704385e-06
3.77704987916e-06
3.77709363334e-06
3.77716300002e-06
3.77722604034e-06
3.77728264637e-06
3.77732517203e-06
3.77735025745e-06
3.77735556876e-06
3.77734025127e-06
3.77730541685e-06
3.77725385528e-06
3.77718973665e-06
3.77712151074e-06
3.77705044195e-06
3.77700749233e-06
3.77700520682e-06
3.77703424618e-06
3.77709234776e-06
3.77714446483e-06
3.77719208324e-06
3.77722796623e-06
3.77724900457e-06
3.77725307014e-06
3.77723937678e-06
3.7772089635e-06
3.77716437871e-06
3.77710944473e-06
3.77705213769e-06
3.77699210597e-06
3.77696345299e-06
3.77693602449e-06
3.77695304663e-06
3.77700184247e-06
3.77704510549e-06
3.77708530538e-06
3.77711568329e-06
3.77713337422e-06
3.77713647551e-06
3.77712426437e-06
3.77709768842e-06
3.77705902856e-06
3.77701176487e-06
3.77696334537e-06
3.77691236339e-06
3.77689531245e-06
3.77685497652e-06
3.7768651076e-06
3.77690838966e-06
3.77694652554e-06
3.77698230492e-06
3.7770093947e-06
3.77702512465e-06
3.77702777302e-06
3.7770166761e-06
3.77699267569e-06
3.77695781334e-06
3.77691528299e-06
3.77687202943e-06
3.77682634793e-06
3.776815629e-06
3.77677526099e-06
3.77678599156e-06
3.77682904926e-06
3.7768670687e-06
3.77690242531e-06
3.77692916943e-06
3.77694475851e-06
3.77694760232e-06
3.77693706654e-06
3.77691389615e-06
3.77687994814e-06
3.77683819933e-06
3.77679514863e-06
3.77674950843e-06
3.77673776501e-06
3.77670950446e-06
3.7767297871e-06
3.77677881642e-06
3.77682234978e-06
3.77686175505e-06
3.77689144158e-06
3.77690891373e-06
3.77691267421e-06
3.77690207013e-06
3.77687778632e-06
3.77684152914e-06
3.7767961275e-06
3.77674768306e-06
3.77669591908e-06
3.77667421657e-06
3.77666887785e-06
3.77670833361e-06
3.77676979788e-06
3.77682437581e-06
3.77687216831e-06
3.77690793068e-06
3.77692923237e-06
3.77693457542e-06
3.7769233048e-06
3.77689602588e-06
3.77685436537e-06
3.77680101843e-06
3.77674169468e-06
3.77667738342e-06
3.77663626041e-06
3.77666223853e-06
3.77673033093e-06
3.77681032683e-06
3.77688068751e-06
3.77694045976e-06
3.77698491772e-06
3.7770116326e-06
3.77701914199e-06
3.77700668066e-06
3.77697488315e-06
3.77692525113e-06
3.77686039719e-06
3.77678549302e-06
3.77670259596e-06
3.77663256868e-06
3.77669390482e-06
3.7768011247e-06
3.7769049265e-06
3.77699421731e-06
3.77706822046e-06
3.77712298592e-06
3.77715625464e-06
3.77716625478e-06
3.77715234496e-06
3.77711493239e-06
3.77705576134e-06
3.77697719191e-06
3.77688362116e-06
3.77677690216e-06
3.77666766152e-06
3.77677647185e-06
3.77693058359e-06
3.77705653569e-06
3.77716375934e-06
3.77725152783e-06
3.77731674494e-06
3.77735666466e-06
3.77736939756e-06
3.77735383756e-06
3.77731078267e-06
3.77724201338e-06
3.7771502826e-06
3.77703899617e-06
3.77691009778e-06
3.7767540846e-06
3.77698780835e-06
3.77712192659e-06
3.77725816702e-06
3.77737674989e-06
3.77747437905e-06
3.77754792434e-06
3.7775936623e-06
3.7776087005e-06
3.77759193021e-06
3.77754405028e-06
3.77746783109e-06
3.77736688404e-06
3.77724464273e-06
3.7771051087e-06
3.77696920847e-06
3.855390311e-06
3.85534469121e-06
3.85530249168e-06
3.8552671094e-06
3.85523878244e-06
3.85521914712e-06
3.85520861554e-06
3.85520754613e-06
3.85521621971e-06
3.85523433524e-06
3.85526120663e-06
3.85529567717e-06
3.8553357648e-06
3.85537882998e-06
3.85542269262e-06
3.85532360593e-06
3.85527827204e-06
3.85523514789e-06
3.8551983097e-06
3.8551685573e-06
3.8551477406e-06
3.85513648935e-06
3.85513520978e-06
3.85514420981e-06
3.85516309661e-06
3.85519107968e-06
3.85522686521e-06
3.85526823341e-06
3.85531247295e-06
3.85535626599e-06
3.85532184294e-06
3.8552817441e-06
3.85524265746e-06
3.8552087971e-06
3.85518129195e-06
3.85516199246e-06
3.85515161194e-06
3.85515061504e-06
3.85515932802e-06
3.85517731714e-06
3.85520374163e-06
3.85523724442e-06
3.85527548514e-06
3.85531582434e-06
3.85535455667e-06
3.85533609506e-06
3.85530102871e-06
3.85526595283e-06
3.85523546177e-06
3.85521054523e-06
3.85519302514e-06
3.85518365647e-06
3.85518296365e-06
3.85519128155e-06
3.8552081526e-06
3.85523270879e-06
3.85526357401e-06
3.8552983677e-06
3.85533476731e-06
3.85536875833e-06
3.85535117993e-06
3.85532040632e-06
3.8552887233e-06
3.85526125115e-06
3.85523862519e-06
3.85522266463e-06
3.85521417994e-06
3.85521372143e-06
3.85522162306e-06
3.85523740763e-06
3.85526020025e-06
3.85528863567e-06
3.85532035507e-06
3.85535348348e-06
3.8553835765e-06
3.85536894197e-06
3.85534191907e-06
3.85531340538e-06
3.85528880138e-06
3.85526839144e-06
3.85525395378e-06
3.85524631309e-06
3.855246049e-06
3.85525348594e-06
3.85526814587e-06
3.8552891622e-06
3.85531521522e-06
3.85534402162e-06
3.8553741946e-06
3.85540079021e-06
3.85539069972e-06
3.85536722547e-06
3.85534169232e-06
3.85531979987e-06
3.85530152183e-06
3.85528855178e-06
3.85528171983e-06
3.85528160986e-06
3.85528853361e-06
3.85530202301e-06
3.85532124508e-06
3.85534495073e-06
3.85537097843e-06
3.85539840583e-06
3.85542180137e-06
3.85541632098e-06
3.85539602893e-06
3.85537318585e-06
3.85535381876e-06
3.8553375794e-06
3.85532602454e-06
3.85531996558e-06
3.85531997478e-06
3.85532635205e-06
3.85533865324e-06
3.85535610229e-06
3.85537754573e-06
3.85540098898e-06
3.85542591057e-06
3.85544644804e-06
3.85544541196e-06
3.85542787417e-06
3.85540741669e-06
3.85539032382e-06
3.85537596491e-06
3.85536573506e-06
3.85536039801e-06
3.85536049034e-06
3.85536629644e-06
3.8553774119e-06
3.85539313903e-06
3.85541244735e-06
3.85543354954e-06
3.85545623721e-06
3.85547433659e-06
3.85547761807e-06
3.85546222298e-06
3.85544380267e-06
3.85542868767e-06
3.85541605179e-06
3.85540706769e-06
3.85540240294e-06
3.85540255192e-06
3.85540776972e-06
3.85541771344e-06
3.85543178273e-06
3.85544910165e-06
3.85546813645e-06
3.85548889678e-06
3.85550504623e-06
3.85551237937e-06
3.85549850758e-06
3.85548174173e-06
3.85546829575e-06
3.85545722609e-06
3.85544940042e-06
3.85544537217e-06
3.85544554557e-06
3.85545016418e-06
3.85545894068e-06
3.85547141208e-06
3.85548688401e-06
3.85550412843e-06
3.85552329973e-06
3.85553808385e-06
3.85554940474e-06
3.85553618486e-06
3.85552055926e-06
3.85550846564e-06
3.8554988044e-06
3.85549208661e-06
3.85548864624e-06
3.85548883042e-06
3.85549281964e-06
3.85550044453e-06
3.85551135786e-06
3.85552511433e-06
3.85554086251e-06
3.85555888485e-06
3.85557310449e-06
3.85558926078e-06
3.8555751063e-06
3.85555984096e-06
3.8555486979e-06
3.8555402293e-06
3.85553443592e-06
3.85553151412e-06
3.85553163325e-06
3.85553502586e-06
3.85554153917e-06
3.85555103951e-06
3.85556329366e-06
3.85557791331e-06
3.85559554456e-06
3.8556107962e-06
3.85562936362e-06
3.85561248965e-06
3.85559827978e-06
3.85558832463e-06
3.85558105181e-06
3.85557614575e-06
3.85557359941e-06
3.85557365272e-06
3.8555764265e-06
3.85558192711e-06
3.85559006324e-06
3.85560075684e-06
3.85561397751e-06
3.85563050223e-06
3.8556485595e-06
3.85562929409e-06
3.85563121247e-06
3.85562548811e-06
3.85562208458e-06
3.85561968408e-06
3.85561804372e-06
3.85561733496e-06
3.85561775671e-06
3.85561950016e-06
3.85562257419e-06
3.85562691332e-06
3.85563234555e-06
3.8556387458e-06
3.85564672786e-06
3.85564615058e-06
3.38604948199e-06
3.38607985755e-06
3.38610771106e-06
3.38613261938e-06
3.38615317272e-06
3.38616822211e-06
3.38617732577e-06
3.38618018438e-06
3.38617661886e-06
3.38616680796e-06
3.38615110028e-06
3.38613004547e-06
3.38610448381e-06
3.38607613741e-06
3.38604436552e-06
3.38608556396e-06
3.38611575225e-06
3.38614433497e-06
3.38617025232e-06
3.38619166462e-06
3.38620736644e-06
3.38621686451e-06
3.38621983417e-06
3.38621607189e-06
3.38620580765e-06
3.38618943511e-06
3.38616759047e-06
3.38614126643e-06
3.38611229854e-06
3.38608102613e-06
3.38606878336e-06
3.38609484446e-06
3.38611974003e-06
3.38614280223e-06
3.38616194617e-06
3.38617608797e-06
3.38618467316e-06
3.38618736049e-06
3.38618391058e-06
3.38617457048e-06
3.3861597324e-06
3.38614005055e-06
3.38611655405e-06
3.38609112648e-06
3.38606427938e-06
3.38604405338e-06
3.38606650447e-06
3.38608813721e-06
3.3861084142e-06
3.38612538401e-06
3.38613800471e-06
3.38614568629e-06
3.38614808482e-06
3.38614494797e-06
3.38613652815e-06
3.38612321341e-06
3.38610565933e-06
3.38608489233e-06
3.38606269032e-06
3.38603955917e-06
3.3860230542e-06
3.38604304592e-06
3.38606236883e-06
3.38608048025e-06
3.38609575458e-06
3.38610715693e-06
3.38611412551e-06
3.38611628707e-06
3.3861133931e-06
3.38610568682e-06
3.38609355915e-06
3.38607765431e-06
3.38605897966e-06
3.38603912357e-06
3.38601857873e-06
3.38600355302e-06
3.38602181976e-06
3.38603929117e-06
3.38605572904e-06
3.38606964781e-06
3.38608008075e-06
3.38608646054e-06
3.3860884273e-06
3.38608572761e-06
3.38607860959e-06
3.38606745599e-06
3.38605289535e-06
3.38603590123e-06
3.38601785543e-06
3.3859992471e-06
3.38598427656e-06
3.38600130995e-06
3.38601736843e-06
3.38603246797e-06
3.38604526579e-06
3.38605488582e-06
3.38606077143e-06
3.38606257468e-06
3.38606003745e-06
3.38605340576e-06
3.38604305262e-06
3.38602958326e-06
3.38601392945e-06
3.38599728516e-06
3.38598011336e-06
3.38596503851e-06
3.38598114499e-06
3.38599621513e-06
3.38601030729e-06
3.38602227493e-06
3.3860312786e-06
3.38603678975e-06
3.38603846415e-06
3.38603605817e-06
3.3860298061e-06
3.38602007325e-06
3.38600743745e-06
3.38599278661e-06
3.38597716345e-06
3.38596100067e-06
3.38594564312e-06
3.3859612736e-06
3.38597571648e-06
3.38598913488e-06
3.38600052089e-06
3.38600907953e-06
3.38601431752e-06
3.38601589632e-06
3.38601358845e-06
3.38600761406e-06
3.38599832427e-06
3.3859862696e-06
3.38597229392e-06
3.3859573428e-06
3.38594179783e-06
3.38592600378e-06
3.38594143821e-06
3.38595556318e-06
3.38596863268e-06
3.38597969158e-06
3.38598799847e-06
3.38599306815e-06
3.38599459307e-06
3.38599235377e-06
3.38598656073e-06
3.38597754441e-06
3.38596582668e-06
3.3859522115e-06
3.38593760358e-06
3.38592236574e-06
3.38590590513e-06
3.38592144211e-06
3.38593557863e-06
3.38594860636e-06
3.38595958478e-06
3.38596778729e-06
3.38597278718e-06
3.38597428345e-06
3.38597209189e-06
3.38596639239e-06
3.38595749955e-06
3.38594589618e-06
3.3859323431e-06
3.38591777913e-06
3.38590255493e-06
3.38588520036e-06
3.3859011063e-06
3.38591558887e-06
3.38592889151e-06
3.38593998666e-06
3.38594825836e-06
3.38595325166e-06
3.3859547632e-06
3.38595258776e-06
3.38594692249e-06
3.3859380174e-06
3.38592632405e-06
3.38591253847e-06
3.38589767015e-06
3.38588216212e-06
3.38586276193e-06
3.38587974519e-06
3.38589518371e-06
3.38590916176e-06
3.38592071046e-06
3.38592917509e-06
3.38593433732e-06
3.38593585981e-06
3.38593371426e-06
3.38592795588e-06
3.38591887262e-06
3.38590681752e-06
3.38589238688e-06
3.38587663063e-06
3.38586011434e-06
3.3858381848e-06
3.38585749711e-06
3.38587414663e-06
3.38588911737e-06
3.38590125521e-06
3.38591022348e-06
3.38591558989e-06
3.38591726381e-06
3.38591504982e-06
3.38590911167e-06
3.38589965456e-06
3.38588703004e-06
3.38587167477e-06
3.38585474245e-06
3.38583602682e-06
3.38583394357e-06
3.38584643304e-06
3.38586063283e-06
3.38587328451e-06
3.38588358919e-06
3.38589122265e-06
3.38589589164e-06
3.38589731004e-06
3.38589541322e-06
3.38589027937e-06
3.38588217712e-06
3.38587147446e-06
3.38585847566e-06
3.38584402419e-06
3.38583203973e-06
3.36864229951e-06
3.36861359203e-06
3.36858981824e-06
3.3685713366e-06
3.36855731895e-06
3.36854794026e-06
3.36854354502e-06
3.36854404921e-06
3.36854945448e-06
3.36855956537e-06
3.36857413097e-06
3.36859273652e-06
3.36861480109e-06
3.36863899404e-06
3.36866611647e-06
3.36861363769e-06
3.36858553009e-06
3.3685615125e-06
3.36854229467e-06
3.36852750723e-06
3.3685175236e-06
3.36851272976e-06
3.36851308504e-06
3.36851861837e-06
3.36852907934e-06
3.36854416824e-06
3.36856340402e-06
3.36858607276e-06
3.36861075123e-06
3.36863744294e-06
3.36862914774e-06
3.36860470767e-06
3.36858371367e-06
3.36856661767e-06
3.36855352872e-06
3.3685447864e-06
3.36854070412e-06
3.36854126182e-06
3.368546513e-06
3.36855620069e-06
3.36857002034e-06
3.36858747729e-06
3.3686078249e-06
3.3686295879e-06
3.36865263283e-06
3.3686508972e-06
3.3686296085e-06
3.36861128683e-06
3.36859629205e-06
3.36858485957e-06
3.36857731149e-06
3.36857388922e-06
3.36857461508e-06
3.36857955984e-06
3.36858846557e-06
3.36860102332e-06
3.36861673635e-06
3.36863485361e-06
3.36865397131e-06
3.36867398526e-06
3.36866937377e-06
3.36865042423e-06
3.36863404061e-06
3.36862061607e-06
3.36861038525e-06
3.36860367474e-06
3.36860070172e-06
3.36860150787e-06
3.3686061796e-06
3.36861445209e-06
3.36862601436e-06
3.36864036988e-06
3.36865677845e-06
3.36867397411e-06
3.36869188097e-06
3.36868642368e-06
3.36866910822e-06
3.36865431804e-06
3.36864216541e-06
3.36863288592e-06
3.36862681692e-06
3.36862415435e-06
3.36862497873e-06
3.36862938168e-06
3.36863710069e-06
3.36864781808e-06
3.36866104875e-06
3.36867607405e-06
3.36869178423e-06
3.36870813844e-06
3.36870318023e-06
3.36868720135e-06
3.36867368848e-06
3.36866251946e-06
3.36865397007e-06
3.36864837006e-06
3.36864591237e-06
3.36864670438e-06
3.36865083853e-06
3.36865805843e-06
3.36866804565e-06
3.36868033056e-06
3.36869422485e-06
3.36870876941e-06
3.36872396642e-06
3.36871985618e-06
3.36870487051e-06
3.36869232148e-06
3.36868192833e-06
3.36867394026e-06
3.36866867345e-06
3.36866633075e-06
3.36866704504e-06
3.36867091306e-06
3.36867768678e-06
3.36868705335e-06
3.36869856251e-06
3.36871156266e-06
3.36872522195e-06
3.36873960725e-06
3.36873661552e-06
3.36872236731e-06
3.36871051328e-06
3.36870067787e-06
3.36869307144e-06
3.36868800745e-06
3.36868570408e-06
3.36868630376e-06
3.3686899105e-06
3.36869628731e-06
3.3687051337e-06
3.36871602425e-06
3.36872834551e-06
3.36874136571e-06
3.36875520604e-06
3.36875372142e-06
3.36873990188e-06
3.36872851878e-06
3.36871904787e-06
3.36871168014e-06
3.36870672543e-06
3.36870439346e-06
3.36870485506e-06
3.36870820147e-06
3.36871422703e-06
3.36872264369e-06
3.36873305801e-06
3.36874489953e-06
3.36875749178e-06
3.36877101012e-06
3.36877132779e-06
3.36875776879e-06
3.36874664313e-06
3.36873733468e-06
3.36873007944e-06
3.36872513725e-06
3.36872273718e-06
3.36872303065e-06
3.36872612721e-06
3.36873183205e-06
3.36873989735e-06
3.36874996459e-06
3.3687615112e-06
3.3687738757e-06
3.36878722539e-06
3.36878977958e-06
3.36877625423e-06
3.36876510303e-06
3.36875576241e-06
3.36874847363e-06
3.3687434992e-06
3.36874097398e-06
3.3687411006e-06
3.36874392998e-06
3.36874935539e-06
3.36875713293e-06
3.36876697712e-06
3.36877843314e-06
3.36879080125e-06
3.3688041801e-06
3.36880999428e-06
3.36879601187e-06
3.36878436794e-06
3.36877463029e-06
3.36876715917e-06
3.36876196934e-06
3.36875930152e-06
3.36875918478e-06
3.36876180711e-06
3.36876698865e-06
3.3687746137e-06
3.36878444522e-06
3.3687961396e-06
3.36880898518e-06
3.36882287004e-06
3.36883253843e-06
3.36881723825e-06
3.36880476553e-06
3.36879440389e-06
3.36878643409e-06
3.36878096224e-06
3.36877795265e-06
3.36877763839e-06
3.36878002238e-06
3.3687851038e-06
3.36879273942e-06
3.3688027805e-06
3.36881501669e-06
3.36882863937e-06
3.36884391328e-06
3.3688399095e-06
3.36883022324e-06
3.36881984563e-06
3.36881128807e-06
3.36880485942e-06
3.36880034419e-06
3.36879788472e-06
3.36879756586e-06
3.36879951647e-06
3.36880369364e-06
3.36881000889e-06
3.36881833517e-06
3.36882857551e-06
3.36884014874e-06
3.36884999668e-06
2.98236180411e-06
2.98238076002e-06
2.98239921626e-06
2.98241628916e-06
2.98243064544e-06
2.98244137503e-06
2.98244814696e-06
2.98245083494e-06
2.98244936631e-06
2.98244387461e-06
2.9824345816e-06
2.98242184874e-06
2.98240620014e-06
2.9823887972e-06
2.98236909678e-06
2.98238476778e-06
2.982403767e-06
2.98242266404e-06
2.98244033497e-06
2.98245520491e-06
2.9824663194e-06
2.9824733118e-06
2.98247604256e-06
2.98247442267e-06
2.98246861868e-06
2.98245888146e-06
2.98244562484e-06
2.98242947253e-06
2.98241165969e-06
2.98239227804e-06
2.98237233049e-06
2.98238862471e-06
2.98240494752e-06
2.98242063545e-06
2.98243394489e-06
2.98244400602e-06
2.98245039911e-06
2.98245295782e-06
2.98245156097e-06
2.98244638576e-06
2.98243768259e-06
2.98242587784e-06
2.98241161645e-06
2.98239617309e-06
2.9823797289e-06
2.98235503269e-06
2.98236890081e-06
2.98238299303e-06
2.98239678234e-06
2.982408621e-06
2.98241765788e-06
2.98242345354e-06
2.98242582819e-06
2.98242464516e-06
2.98242008164e-06
2.98241238855e-06
2.98240199156e-06
2.98238953516e-06
2.98237623187e-06
2.98236221849e-06
2.98234061692e-06
2.98235287555e-06
2.98236537897e-06
2.98237765913e-06
2.98238832492e-06
2.98239653968e-06
2.98240186795e-06
2.98240409488e-06
2.98240307523e-06
2.98239898032e-06
2.9823920619e-06
2.9823827413e-06
2.98237165006e-06
2.98235988522e-06
2.98234753942e-06
2.98232752744e-06
2.9823386979e-06
2.98234992073e-06
2.98236105058e-06
2.98237078616e-06
2.98237833682e-06
2.98238326748e-06
2.98238535898e-06
2.98238445805e-06
2.98238073575e-06
2.98237443955e-06
2.98236598053e-06
2.98235596817e-06
2.98234536969e-06
2.98233424054e-06
2.98231490424e-06
2.98232530919e-06
2.98233554496e-06
2.98234571308e-06
2.98235464597e-06
2.9823616223e-06
2.98236621252e-06
2.98236818801e-06
2.98236738505e-06
2.98236396756e-06
2.98235817921e-06
2.98235041397e-06
2.98234125599e-06
2.98233154982e-06
2.98232130826e-06
2.98230254358e-06
2.98231234526e-06
2.98232186938e-06
2.98233129825e-06
2.98233961143e-06
2.98234613121e-06
2.98235044242e-06
2.98235231293e-06
2.98235157885e-06
2.98234839482e-06
2.98234299736e-06
2.98233576215e-06
2.98232724358e-06
2.98231818511e-06
2.98230855513e-06
2.98229020503e-06
2.98229970173e-06
2.98230873287e-06
2.98231760732e-06
2.98232543322e-06
2.98233158097e-06
2.98233566562e-06
2.98233744336e-06
2.98233675561e-06
2.98233374297e-06
2.98232863018e-06
2.98232177376e-06
2.98231369832e-06
2.98230507276e-06
2.98229583148e-06
2.98227774954e-06
2.98228706376e-06
2.9822957833e-06
2.98230429585e-06
2.98231177897e-06
2.98231766677e-06
2.98232157229e-06
2.9823232744e-06
2.98232261001e-06
2.98231971025e-06
2.98231478416e-06
2.98230816561e-06
2.98230035015e-06
2.98229197045e-06
2.98228294782e-06
2.98226489061e-06
2.98227418355e-06
2.98228279753e-06
2.98229112205e-06
2.9822984086e-06
2.98230410187e-06
2.98230787787e-06
2.98230950635e-06
2.98230884994e-06
2.98230601144e-06
2.98230118721e-06
2.98229468013e-06
2.98228695572e-06
2.98227864856e-06
2.98226971227e-06
2.98225141509e-06
2.98226082548e-06
2.98226952903e-06
2.98227787485e-06
2.98228506114e-06
2.98229067802e-06
2.9822943392e-06
2.98229592072e-06
2.98229524413e-06
2.98229243371e-06
2.98228763624e-06
2.9822811232e-06
2.98227331488e-06
2.98226488439e-06
2.98225588525e-06
2.98223646917e-06
2.98224640483e-06
2.98225561749e-06
2.98226422776e-06
2.98227159804e-06
2.98227716727e-06
2.98228085482e-06
2.98228235634e-06
2.98228167405e-06
2.98227880963e-06
2.98227392818e-06
2.9822672353e-06
2.98225907758e-06
2.98225014612e-06
2.98224067539e-06
2.98221954067e-06
2.98223083321e-06
2.9822407756e-06
2.98225000362e-06
2.98225759227e-06
2.98226341878e-06
2.98226710496e-06
2.98226864601e-06
2.98226787265e-06
2.98226488148e-06
2.9822597772e-06
2.9822527404e-06
2.98224400913e-06
2.98223433312e-06
2.98222364305e-06
2.98221482923e-06
2.98222203168e-06
2.98223053889e-06
2.98223819541e-06
2.98224456054e-06
2.98224938073e-06
2.98225252639e-06
2.98225380963e-06
2.98225319628e-06
2.98225072258e-06
2.98224650826e-06
2.98224073801e-06
2.98223353854e-06
2.98222541038e-06
2.98221878197e-06
2.89520160189e-06
2.89518424831e-06
2.8951689069e-06
2.89515635983e-06
2.89514686593e-06
2.89514043602e-06
2.89513701806e-06
2.89513671692e-06
2.89513963584e-06
2.89514566232e-06
2.89515462762e-06
2.8951662448e-06
2.89518013909e-06
2.89519546256e-06
2.89521271583e-06
2.89518308757e-06
2.89516593901e-06
2.89515035668e-06
2.89513733492e-06
2.89512737309e-06
2.89512056893e-06
2.89511691544e-06
2.89511652631e-06
2.89511951923e-06
2.89512576241e-06
2.89513505837e-06
2.89514708497e-06
2.89516138229e-06
2.89517704649e-06
2.89519407367e-06
2.89519374733e-06
2.89517886883e-06
2.89516531542e-06
2.89515377303e-06
2.89514491955e-06
2.89513887243e-06
2.89513566857e-06
2.8951354125e-06
2.89513822019e-06
2.89514394931e-06
2.89515240385e-06
2.89516325694e-06
2.89517603271e-06
2.89518979447e-06
2.89520446176e-06
2.89520844581e-06
2.89519557746e-06
2.89518378551e-06
2.89517367553e-06
2.8951658783e-06
2.89516056155e-06
2.89515779246e-06
2.8951576639e-06
2.89516028297e-06
2.89516550235e-06
2.89517312747e-06
2.89518283562e-06
2.89519415205e-06
2.89520618767e-06
2.89521890014e-06
2.89522095958e-06
2.89520951644e-06
2.89519895562e-06
2.89518992293e-06
2.89518290914e-06
2.8951781307e-06
2.89517567008e-06
2.89517562029e-06
2.89517807753e-06
2.8951828923e-06
2.895189869e-06
2.89519869101e-06
2.8952088951e-06
2.89521967723e-06
2.89523102408e-06
2.89523247329e-06
2.89522197767e-06
2.89521242349e-06
2.89520422195e-06
2.89519781604e-06
2.89519344997e-06
2.89519122348e-06
2.89519122325e-06
2.89519353631e-06
2.89519801067e-06
2.89520444955e-06
2.89521254763e-06
2.89522186071e-06
2.89523168405e-06
2.89524202315e-06
2.89524370654e-06
2.89523396187e-06
2.89522517804e-06
2.89521761535e-06
2.89521168882e-06
2.89520764111e-06
2.89520558532e-06
2.89520560513e-06
2.89520778187e-06
2.89521196084e-06
2.89521794753e-06
2.89522544962e-06
2.89523404496e-06
2.89524312058e-06
2.89525271615e-06
2.89525478696e-06
2.89524560956e-06
2.8952373908e-06
2.89523031337e-06
2.89522474044e-06
2.89522092009e-06
2.89521897672e-06
2.89521899362e-06
2.89522104435e-06
2.89522497393e-06
2.89523059175e-06
2.89523761951e-06
2.89524566014e-06
2.89525417932e-06
2.89526324728e-06
2.89526584747e-06
2.89525706192e-06
2.89524922866e-06
2.89524248761e-06
2.89523715963e-06
2.89523349326e-06
2.89523161327e-06
2.89523160899e-06
2.8952335416e-06
2.89523726458e-06
2.89524259071e-06
2.89524925857e-06
2.89525689469e-06
2.89526502015e-06
2.89527373798e-06
2.89527702778e-06
2.89526848325e-06
2.89526090666e-06
2.8952543707e-06
2.89524919168e-06
2.89524560465e-06
2.89524374786e-06
2.8952437025e-06
2.89524552766e-06
2.89524908155e-06
2.895254186e-06
2.89526059792e-06
2.89526796675e-06
2.89527584067e-06
2.89528433618e-06
2.89528846758e-06
2.89528007941e-06
2.89527261697e-06
2.89526615748e-06
2.89526103343e-06
2.89525747683e-06
2.89525560831e-06
2.89525551389e-06
2.8952572394e-06
2.89526065594e-06
2.8952656017e-06
2.89527185347e-06
2.8952790834e-06
2.89528683634e-06
2.89529520338e-06
2.89530039197e-06
2.89529203639e-06
2.89528453078e-06
2.8952780149e-06
2.89527287095e-06
2.89526928199e-06
2.89526738677e-06
2.8952672295e-06
2.89526886509e-06
2.89527217446e-06
2.89527701235e-06
2.89528319583e-06
2.89529042569e-06
2.89529820431e-06
2.89530654603e-06
2.89531342654e-06
2.89530479303e-06
2.895296952e-06
2.89529017757e-06
2.89528486136e-06
2.89528119311e-06
2.89527919913e-06
2.89527898121e-06
2.8952805359e-06
2.89528378177e-06
2.89528860664e-06
2.89529486269e-06
2.8953023061e-06
2.89531041055e-06
2.89531902664e-06
2.89532787248e-06
2.89531844354e-06
2.89531009632e-06
2.89530288947e-06
2.89529730895e-06
2.89529340784e-06
2.89529129232e-06
2.89529096628e-06
2.89529247488e-06
2.89529573219e-06
2.89530065639e-06
2.89530712956e-06
2.89531497717e-06
2.89532360601e-06
2.89533303739e-06
2.89533262776e-06
2.89532668197e-06
2.89531968259e-06
2.89531370762e-06
2.89530912803e-06
2.89530593776e-06
2.89530418931e-06
2.895303957e-06
2.89530524317e-06
2.89530800087e-06
2.89531214401e-06
2.89531756755e-06
2.8953241606e-06
2.89533147517e-06
2.89533749934e-06
2.5681992747e-06
2.56821154211e-06
2.56822357056e-06
2.56823455241e-06
2.56824375791e-06
2.56825075074e-06
2.56825538035e-06
2.56825748165e-06
2.56825695639e-06
2.56825388761e-06
2.56824842457e-06
2.56824079783e-06
2.56823134608e-06
2.56822077783e-06
2.56820882187e-06
2.56821413359e-06
2.56822655815e-06
2.56823880664e-06
2.56825008407e-06
2.56825955202e-06
2.5682667564e-06
2.56827151536e-06
2.56827364832e-06
2.56827303974e-06
2.56826978683e-06
2.56826405358e-06
2.56825610364e-06
2.56824633579e-06
2.56823550614e-06
2.56822374824e-06
2.56820615248e-06
2.56821684735e-06
2.56822740553e-06
2.56823741156e-06
2.56824590299e-06
2.56825244787e-06
2.56825680978e-06
2.56825881222e-06
2.56825833375e-06
2.56825547783e-06
2.56825040645e-06
2.56824338501e-06
2.56823482497e-06
2.56822550182e-06
2.56821560566e-06
2.56819503327e-06
2.56820411325e-06
2.5682132233e-06
2.5682220015e-06
2.56822955651e-06
2.56823544715e-06
2.56823941255e-06
2.56824128027e-06
2.56824092864e-06
2.56823846205e-06
2.56823403847e-06
2.56822792211e-06
2.56822051947e-06
2.5682125657e-06
2.56820422612e-06
2.56818575985e-06
2.5681937589e-06
2.56820182623e-06