/*--------------------------------*- C++ -*----------------------------------*\
  =========                 |
  \\      /  F ield         | OpenFOAM: The Open Source CFD Toolbox
   \\    /   O peration     | Website:  https://openfoam.org
    \\  /    A nd           | Version:  7
     \\/     M anipulation  |
\*---------------------------------------------------------------------------*/
FoamFile
{
    version     2.0;
    format      ascii;
    class       surfaceScalarField;
    location    "1.08";
    object      phi;
}
// * * * * * * * * * * * * * * * * * * * * * * * * * * * * * * * * * * * * * //

dimensions      [0 3 -1 0 0 0 0];

internalField   nonuniform List<scalar> 
65775
(
4.62923062224e-12
-5.29339659688e-10
9.94412608241e-12
-2.9794928755e-14
8.35764117432e-12
-5.57201276153e-10
1.1993868107e-11
1.01540618081e-11
-5.8182492515e-10
1.45629845838e-11
1.01421348847e-11
-6.03362288178e-10
1.72731224319e-11
8.41529801648e-12
-6.20803765654e-10
1.97786039724e-11
5.36194431663e-12
-6.33733212152e-10
2.17913278466e-11
1.46842420537e-12
-6.41895516691e-10
2.30968891234e-11
-2.70351576299e-12
-6.44943244062e-10
2.35524635135e-11
-6.57152650618e-12
-6.41879761196e-10
2.30754857891e-11
-9.57635434775e-12
-6.33701910917e-10
2.17492342358e-11
-1.12337259405e-11
-6.20756420896e-10
1.97169996419e-11
-1.11596451555e-11
-6.03299187748e-10
1.71934015333e-11
-9.26233444424e-12
-5.81748743905e-10
1.44661275739e-11
-5.4320256061e-12
-5.57117838038e-10
1.18780333227e-11
-5.29355023034e-10
9.79964046028e-12
-6.32810008833e-13
9.89553054879e-12
-1.03473439693e-09
5.04315104497e-12
-4.35901162269e-14
1.82834691581e-11
-1.08994600496e-09
7.26714265296e-12
2.31415662006e-11
-1.13868480115e-09
1.1072728576e-11
2.35899796446e-11
-1.1808027708e-09
1.55996582897e-11
1.98074213882e-11
-1.2149471999e-09
2.00489833926e-11
1.26050369375e-11
-1.24025987277e-09
2.37456881331e-11
3.20607864892e-12
-1.25625012628e-09
2.61795836855e-11
-6.9364892018e-12
-1.26220474678e-09
2.70197341248e-11
-1.62570769383e-11
-1.25621724194e-09
2.6114724939e-11
-2.330822192e-11
-1.24019346305e-09
2.36184150233e-11
-2.68744137184e-11
-1.21484497923e-09
1.98632490765e-11
-2.61549204189e-11
-1.18066268534e-09
1.53602743298e-11
-2.09839816608e-11
-1.13850894742e-09
1.07834753882e-11
-1.22349049491e-11
-1.08976875891e-09
6.92419637744e-12
-1.03477199713e-09
4.62764688893e-12
-1.86845616894e-12
1.13123886096e-11
-1.49522399855e-09
-1.68917816118e-11
-7.31333517695e-14
2.19971434503e-11
-1.57598567859e-09
-1.72706033726e-11
2.88715634423e-11
-1.64683076475e-09
-1.50414686437e-11
3.00275264859e-11
-1.70724243727e-09
-1.13250195427e-11
2.54542517947e-11
-1.75612723066e-09
-7.18214773982e-12
1.61148556973e-11
-1.79230945639e-09
-3.52453482807e-12
3.66832147626e-12
-1.81515603625e-09
-1.05371607523e-12
-9.83900541196e-12
-1.8236474494e-09
-2.139784853e-13
-2.21528682001e-11
-1.81512295579e-09
-1.15873800139e-12
-3.12348138772e-11
-1.79224077611e-09
-3.73046915637e-12
-3.54381514379e-11
-1.75601736082e-09
-7.48231054821e-12
-3.38150962027e-11
-1.70708489401e-09
-1.17110796365e-11
-2.63977247124e-11
-1.64662280308e-09
-1.55061655639e-11
-1.50796786865e-11
-1.57579403741e-09
-1.78170673897e-11
-1.49532358716e-09
-1.75428885086e-11
-3.05580116145e-12
9.58025182922e-12
-1.89602666335e-09
-5.04726787306e-11
-9.13192510794e-14
2.03844627394e-11
-1.99945527377e-09
-5.54950205593e-11
2.81219678604e-11
-2.08931677903e-09
-5.69481558045e-11
3.00535480862e-11
-2.16496190929e-09
-5.60354902775e-11
2.57634199744e-11
-2.22590812659e-09
-5.39224803299e-11
1.61374840285e-11
-2.27089520794e-09
-5.16315718798e-11
2.97206150682e-12
-2.29926306404e-09
-4.99658071266e-11
-1.14098453956e-11
-2.30978849877e-09
-4.94210477798e-11
-2.43926690343e-11
-2.2992466012e-09
-5.01073622993e-11
-3.36627226552e-11
-2.27085750626e-09
-5.19089010408e-11
-3.7439475098e-11
-2.22583969544e-09
-5.43260827666e-11
-3.48577356721e-11
-2.16485067988e-09
-5.65531852742e-11
-2.63604082074e-11
-2.08915185676e-09
-5.75682555182e-11
-1.46797697155e-11
-1.99932839456e-09
-5.62173881502e-11
-1.89622604403e-09
-5.13192357045e-11
-4.17593043127e-12
5.30151935636e-12
-2.22630885209e-09
-9.23464221555e-11
-1.00946445995e-13
1.42695525042e-11
-2.34853933255e-09
-1.03578979305e-10
2.17580883864e-11
-2.45353619617e-09
-1.10349453442e-10
2.43970394889e-11
-2.54083470505e-09
-1.13804347748e-10
2.12745500596e-11
-2.61075312593e-09
-1.15083852202e-10
1.3003195619e-11
-2.66218169741e-09
-1.15214726945e-10
1.24011205301e-12
-2.69454635775e-09
-1.15023724361e-10
-1.17317684499e-11
-2.70653383912e-09
-1.15006224683e-10
-2.32683389799e-11
-2.69456135362e-09
-1.15197493227e-10
-3.10966556017e-11
-2.66220547802e-09
-1.15554898415e-10
-3.3578065827e-11
-2.61077204455e-09
-1.15578082153e-10
-3.01258832941e-11
-2.54083036944e-09
-1.14436332787e-10
-2.16851107352e-11
-2.45348723798e-09
-1.11102316613e-10
-1.1632143321e-11
-2.34855140655e-09
-1.04447926884e-10
-2.22665231182e-09
-9.3350014023e-11
-5.22230077826e-12
-9.9069775471e-13
-2.47901018419e-09
-1.39273469181e-10
-1.04478495178e-13
4.46472412157e-12
-2.61541086474e-09
-1.57815307182e-10
1.06882313941e-11
-2.73115499942e-09
-1.71069155108e-10
1.38853870633e-11
-2.82626230317e-09
-1.80023755458e-10
1.2634343201e-11
-2.90191826814e-09
-1.85693637646e-10
7.12133128729e-12
-2.95734669552e-09
-1.89024708825e-10
-1.38165061639e-12
-2.99214290808e-09
-1.90803184463e-10
-1.09304140789e-11
-3.00500663275e-09
-1.91482283684e-10
-1.91701976828e-11
-2.99220193893e-09
-1.91004359542e-10
-2.41666551312e-11
-2.9574581129e-09
-1.89418410868e-10
-2.46683325967e-11
-2.90206504025e-09
-1.86264673477e-10
-2.05193857973e-11
-2.8264190404e-09
-1.80751520622e-10
-1.31810910159e-11
-2.73128902194e-09
-1.71931117439e-10
-6.46704365211e-12
-2.61562910043e-09
-1.58801594213e-10
-2.47954775352e-09
-1.40398889084e-10
-6.18748606024e-12
-8.83151808511e-12
-2.65060322175e-09
-1.88183715068e-10
-1.03970849338e-13
-8.27116444345e-12
-2.79604924486e-09
-2.14689383708e-10
-4.20107158163e-12
-2.91792797994e-09
-2.35147127461e-10
-6.35386251474e-13
-3.01697579602e-09
-2.50322858189e-10
5.2736774785e-13
-3.09521603966e-09
-2.61033703256e-10
-1.06635234834e-12
-3.15230598125e-09
-2.68080066052e-10
-4.74045341148e-12
-3.18804796897e-09
-2.72156227977e-10
-9.15705131578e-12
-3.20123255609e-09
-2.73641596695e-10
-1.25386484744e-11
-3.18816087879e-09
-2.72379792713e-10
-1.35568047206e-11
-3.15252588145e-09
-2.68517672132e-10
-1.15570980121e-11
-3.09552386829e-09
-2.61667436872e-10
-6.92704499269e-12
-3.0173397505e-09
-2.51127656108e-10
-1.60950246491e-12
-2.91830396796e-09
-2.36094600331e-10
3.50996836345e-13
-2.7965371186e-09
-2.15765071803e-10
-2.65139164196e-09
-1.89398687563e-10
-7.0696371203e-12
-1.78337924014e-11
-2.74078938965e-09
-2.3623437162e-10
-1.0051525693e-13
-2.32753724632e-11
-2.88996108791e-09
-2.70952032699e-10
-2.21094726671e-11
-3.01340054045e-09
-2.98930674926e-10
-1.83762625605e-11
-3.11271752091e-09
-3.20680171079e-10
-1.43915352655e-11
-3.19065736326e-09
-3.36772312084e-10
-1.11316234165e-11
-3.24731599561e-09
-3.47814240607e-10
-8.69181215383e-12
-3.28268884808e-09
-3.54367909788e-10
-6.57017456306e-12
-3.29570294537e-09
-3.56716309754e-10
-3.81537604486e-12
-3.28286328309e-09
-3.54608944585e-10
6.55918054524e-14
-3.24766095881e-09
-3.48286065445e-10
4.95525749418e-12
-3.19115288725e-09
-3.3745488741e-10
9.84085080492e-12
-3.1133267927e-09
-3.21544433508e-10
1.2358706984e-11
-3.01406926115e-09
-2.99942475729e-10
8.43092604166e-12
-2.89077712024e-09
-2.72092436085e-10
-2.74189186413e-09
-2.37510477275e-10
-7.87047590879e-12
-2.76955925766e-11
-2.75214555361e-09
-2.80851530192e-10
-9.50297455161e-14
-4.00165490115e-11
-2.8998147655e-09
-3.23670263537e-10
-4.23797923123e-11
-3.02052572541e-09
-3.59137456597e-10
-3.86699576609e-11
-3.11683599935e-09
-3.87499245885e-10
-3.15547000533e-11
-3.19201016094e-09
-4.09052172439e-10
-2.26983150399e-11
-3.24649404279e-09
-4.24174634409e-10
-1.3111600054e-11
-3.28041496415e-09
-4.33263464995e-10
-3.31852436785e-12
-3.29285369809e-09
-4.3648847384e-10
6.59998028283e-12
-3.28065637439e-09
-4.33518200745e-10
1.6111437907e-11
-3.24697559601e-09
-4.24673535868e-10
2.41823377267e-11
-3.1927128205e-09
-4.09772785368e-10
2.91108546283e-11
-3.11772035637e-09
-3.8840822641e-10
2.81796513682e-11
-3.02153064186e-09
-3.60195051644e-10
1.74631402611e-11
-2.90101453972e-09
-3.24853964381e-10
-2.75362985134e-09
-2.82164197752e-10
-8.59536586143e-12
-3.82053924228e-11
-2.68974602663e-09
-3.19748918289e-10
-8.79291207485e-14
-5.81216041976e-11
-2.83103543563e-09
-3.70248936766e-10
-6.45370932436e-11
-2.94524109768e-09
-4.12885484806e-10
-6.10118219905e-11
-3.03584135447e-09
-4.47648380637e-10
-5.0515837561e-11
-3.10632024641e-09
-4.74537815785e-10
-3.54638092519e-11
-3.15730072829e-09
-4.93674429497e-10
-1.79019109979e-11
-3.18895279389e-09
-5.05261596429e-10
4.69782296842e-13
-3.20050959074e-09
-5.09343451134e-10
1.83758521688e-11
-3.18926505907e-09
-5.05526781282e-10
3.41074104798e-11
-3.15792675141e-09
-4.94193786526e-10
4.55955305133e-11
-3.10724399589e-09
-4.75286537254e-10
5.0388004107e-11
-3.0370246432e-09
-4.48589087055e-10
4.54650646632e-11
-2.94662021397e-09
-4.13973114757e-10
2.72256540135e-11
-2.83267257254e-09
-3.71458277324e-10
-2.69168388619e-09
-3.21077853622e-10
-9.25216236694e-12
-4.92426779025e-11
-2.56078916915e-09
-3.50922894427e-10
-7.96455809711e-14
-7.73870042227e-11
-2.69139429625e-09
-4.08424554489e-10
-8.8295920464e-11
-2.79604859073e-09
-4.57691614051e-10
-8.50591399178e-11
-2.87896527601e-09
-4.98463063869e-10
-7.09448389727e-11
-2.94342984857e-09
-5.30419520415e-10
-4.9194281818e-11
-2.99001761744e-09
-5.53396475917e-10
-2.29878939828e-11
-3.01885351888e-09
-5.67378104498e-10
4.68800030596e-12
-3.0293217364e-09
-5.72273431647e-10
3.12477148893e-11
-3.01923978655e-09
-5.67650900828e-10
5.36953979039e-11
-2.99079439391e-09
-5.53930427785e-10
6.88280356171e-11
-2.94458607604e-09
-5.31187883141e-10
7.33676727347e-11
-2.88046792668e-09
-4.99424784967e-10
6.39973646794e-11
-2.7978369045e-09
-4.58796592057e-10
3.7587545379e-11
-2.69352078064e-09
-4.09645509202e-10
-2.56325201433e-09
-3.52252102843e-10
-9.8506184805e-12
-6.07848137293e-11
-2.37424203365e-09
-3.72625485308e-10
-6.98233387806e-14
-9.77807604176e-11
-2.49062815076e-09
-4.36240942287e-10
-1.13522582851e-10
-2.58365260056e-09
-4.91454891653e-10
-1.10564583738e-10
-2.65776639711e-09
-5.37729833932e-10
-9.25626711733e-11
-2.71551772445e-09
-5.74392813547e-10
-6.36797095299e-11
-2.75722945172e-09
-6.00967567735e-10
-2.83011521178e-11
-2.78294382789e-09
-6.17196236343e-10
9.23830206282e-12
-2.79220624578e-09
-6.22846007606e-10
4.49776281033e-11
-2.7834080852e-09
-6.17473966626e-10
7.45718781669e-11
-2.75816429204e-09
-6.01510956051e-10
9.36127368409e-11
-2.71691849073e-09
-5.75173655134e-10
9.79016874379e-11
-2.65960906034e-09
-5.38703892757e-10
8.37356536732e-11
-2.58588532653e-09
-4.92567090237e-10
4.85215266347e-11
-2.49329618741e-09
-4.37461886149e-10
-2.37729758971e-09
-3.73941986183e-10
-1.03982290438e-11
-7.30230312607e-11
-2.1404199211e-09
-3.83320338881e-10
-5.72993517497e-14
-1.19479381027e-10
-2.2401546208e-09
-4.52031771463e-10
-1.40116918081e-10
-2.3207562268e-09
-5.12453350068e-10
-1.37199709346e-10
-2.38580414781e-09
-5.63675880938e-10
-1.14987124186e-10
-2.4366385609e-09
-6.04634865518e-10
-7.86364206904e-11
-2.4732887806e-09
-6.34522966532e-10
-3.37451611204e-11
-2.49575460471e-09
-6.5282334381e-10
1.4000647232e-11
-2.50376755725e-09
-6.59158386023e-10
5.92606181622e-11
-2.49630364232e-09
-6.53103129513e-10
9.63370826179e-11
-2.47439456875e-09
-6.35070415241e-10
1.19608893491e-10
-2.43830200527e-09
-6.05421204911e-10
1.23883280065e-10
-2.38801256574e-09
-5.64654723132e-10
1.04855184366e-10
-2.32347251243e-09
-5.13564491923e-10
6.0224241261e-11
-2.2434232457e-09
-4.53241537136e-10
-2.14414771077e-09
-3.84609623223e-10
-1.08721152045e-11
-8.65679120499e-11
-1.87040371798e-09
-3.8163528243e-10
-3.88311790667e-14
-1.42510341099e-10
-1.95329573232e-09
-4.54475645626e-10
-1.67445866384e-10
-2.02200963235e-09
-5.19399975506e-10
-1.64085411839e-10
-2.07819434768e-09
-5.74991789433e-10
-1.37429987901e-10
-2.12210389411e-09
-6.19799065666e-10
-9.35440837694e-11
-2.15365997989e-09
-6.52680953865e-10
-3.91457420395e-11
-2.17287945402e-09
-6.72853447341e-10
1.87854869991e-11
-2.17965823887e-09
-6.7979580272e-10
7.35630330479e-11
-2.17352623439e-09
-6.7313167446e-10
1.1819399218e-10
-2.15496022984e-09
-6.53225774147e-10
1.45934254581e-10
-2.12406083972e-09
-6.20582540992e-10
1.50681926267e-10
-2.08080435614e-09
-5.7596755914e-10
1.27386365187e-10
-2.02525163457e-09
-5.20503428135e-10
7.33075930878e-11
-1.95722884727e-09
-4.55663054056e-10
-1.87486430621e-09
-3.8287646253e-10
-1.13045194158e-11
-9.93436938928e-11
-3.66343687396e-10
-2.73118655063e-14
-1.57856257767e-09
-1.64011501051e-10
-4.42866680229e-10
-1.64486708486e-09
-1.92884944296e-10
-5.11549272141e-10
-1.70257263656e-09
-1.89294965222e-10
-5.70872362874e-10
-1.75015921316e-09
-1.58678844251e-10
-6.19028324771e-10
-1.78736725294e-09
-1.07762310579e-10
-6.54543913999e-10
-1.8141357714e-09
-4.43061409924e-11
-6.76363122181e-10
-1.83038851331e-09
2.33893715917e-11
-6.83825753053e-10
-1.83606679012e-09
8.72413419397e-11
-6.76634132431e-10
-1.83115706561e-09
1.38934135916e-10
-6.5507521052e-10
-1.81567610771e-09
1.706772525e-10
-6.19794247334e-10
-1.78967896189e-09
1.75701786843e-10
-5.71830068823e-10
-1.75323877724e-09
1.48519916209e-10
-5.12632725552e-10
-1.70641390747e-09
8.57481438949e-11
-4.44031875385e-10
-1.64952193847e-09
-3.67486894935e-10
-1.16477949985e-11
-1.58383719448e-09
-9.82098585362e-13
1.64123728983e-11
-5.55354027489e-12
1.13590228294e-14
-1.65896302603e-12
1.81074513266e-11
-5.52542718469e-12
-1.98166361762e-12
1.97229601418e-11
-4.92931825861e-12
-1.96655831324e-12
2.12208706953e-11
-4.04718762012e-12
-1.6343504062e-12
2.24893859148e-11
-3.10955323538e-12
-1.05174131979e-12
2.34584041176e-11
-2.302640365e-12
-3.09418080173e-13
2.40732594607e-11
-1.76543368485e-12
4.8617486159e-13
2.42957353809e-11
-1.58293630493e-12
1.22012206898e-12
2.40798770221e-11
-1.78049301434e-12
1.7863048713e-12
2.34747653577e-11
-2.33229441176e-12
2.09697543806e-12
2.25204084308e-11
-3.1529840554e-12
2.08996873233e-12
2.12661852622e-11
-4.10350133185e-12
1.74553914353e-12
1.97723818621e-11
-4.99830940806e-12
1.04898590198e-12
1.81496896345e-11
-5.6102637926e-12
1.64351889509e-11
-5.66801492522e-12
4.81061665344e-14
-2.23623997735e-12
4.62405670791e-11
-2.26580959139e-11
6.12128751216e-15
-3.89018758837e-12
5.05891695827e-11
-2.37003030472e-11
-4.7542585855e-12
5.45899536086e-11
-2.30769992137e-11
-4.77531574431e-12
5.82153822378e-11
-2.15039640175e-11
-4.00021275221e-12
6.12542187365e-11
-1.95951134182e-11
-2.58187393161e-12
6.35561761198e-11
-1.78562201788e-11
-7.48000982589e-13
6.50131353275e-11
-1.66709325868e-11
1.22647812332e-12
6.55407798645e-11
-1.62720594514e-11
3.04256586319e-12
6.50238842207e-11
-1.67143646085e-11
4.42698073129e-12
6.35845391502e-11
-1.79417866609e-11
5.15680771937e-12
6.13110433459e-11
-1.97205457166e-11
5.08617608289e-12
5.83028985458e-11
-2.16668037504e-11
4.17094385509e-12
5.46890154723e-11
-2.32766503918e-11
2.46144130996e-12
5.06731012644e-11
-2.39454464659e-11
4.62859006178e-11
-2.29778082708e-11
1.64437361722e-13
-2.90850747211e-12
8.07916491408e-11
-4.86040132257e-11
-2.83487156541e-14
-5.17631288946e-12
8.78649054103e-11
-5.24052691354e-11
-6.4310872828e-12
9.41853302138e-11
-5.35162484416e-11
-6.52234990133e-12
9.97824746811e-11
-5.29187968609e-11
-5.4937612647e-12
1.04422558062e-10
-5.1474832837e-11
-3.54834309755e-12
1.07912716414e-10
-4.99066947255e-11
-1.00708685846e-12
1.1011693107e-10
-4.87709741065e-11
1.7363251006e-12
1.10915301098e-10
-4.83998854445e-11
4.25199979539e-12
1.10126354266e-10
-4.88417023109e-11
6.14980728821e-12
1.07940079323e-10
-5.00458293703e-11
7.11696225991e-12
1.04480428382e-10
-5.16782965584e-11
6.96029815597e-12
9.98732002781e-11
-5.3181944542e-11
5.63884880722e-12
9.42861687486e-11
-5.38367814511e-11
3.29384144339e-12
8.79427917199e-11
-5.27936923382e-11
8.082442857e-11
-4.90974778319e-11
2.6195659192e-13
-3.12504204105e-12
1.15698099576e-10
-8.22799196814e-11
-6.76430671295e-14
-5.67569257268e-12
1.25174538746e-10
-9.03703773005e-11
-7.1579931609e-12
1.33421844053e-10
-9.4823556693e-11
-7.32753269381e-12
1.40541407127e-10
-9.67312144934e-11
-6.20127680989e-12
1.46360413708e-10
-9.70749241968e-11
-3.99865749738e-12
1.50698315001e-10
-9.66952461572e-11
-1.09059386164e-12
1.53427660066e-10
-9.62530547361e-11
2.05800970705e-12
1.54415481421e-10
-9.61341720033e-11
4.93591605288e-12
1.53429006086e-10
-9.63491165623e-11
7.08293012404e-12
1.50709664267e-10
-9.68839484209e-11
8.13762420701e-12
1.46393780215e-10
-9.73501867797e-11
7.89067123181e-12
1.405988166e-10
-9.70857242155e-11
6.32678989532e-12
1.33482340082e-10
-9.52520928156e-11
3.67856326988e-12
1.25207354785e-10
-9.08819523309e-11
1.15687777951e-10
-8.29129022332e-11
3.64885261561e-13
-2.97272766162e-12
1.47391184436e-10
-1.21053535942e-10
-9.94325082973e-14
-5.52201792845e-12
1.58650414892e-10
-1.34610612691e-10
-7.0745130024e-12
1.68185895087e-10
-1.43668054504e-10
-7.31137019185e-12
1.76178735496e-10
-1.49299848709e-10
-6.21100527098e-12
1.82593131738e-10
-1.52497147207e-10
-3.98235113968e-12
1.87317022685e-10
-1.54131826864e-10
-1.0072610865e-12
1.90271938063e-10
-1.54906758873e-10
2.22338187743e-12
1.91339792778e-10
-1.55221146919e-10
5.16462669505e-12
1.90259536143e-10
-1.55026248001e-10
7.33053531397e-12
1.87300564888e-10
-1.5436617232e-10
8.34849242279e-12
1.82583527363e-10
-1.52837989527e-10
8.01911404572e-12
1.76178377884e-10
-1.49736616742e-10
6.36511181188e-12
1.68177750955e-10
-1.4419142183e-10
3.69417556837e-12
1.58611818707e-10
-1.35226037279e-10
1.47313111279e-10
-1.2179688745e-10
4.74645623384e-13
-2.524512375e-12
1.73221906622e-10
-1.6253742289e-10
-1.2349421791e-13
-4.83560382683e-12
1.85468209182e-10
-1.82415438133e-10
-6.31641677988e-12
1.9551970169e-10
-1.97017419865e-10
-6.59981780763e-12
2.03653805282e-10
-2.0730113242e-10
-5.6227967239e-12
2.10024742509e-10
-2.1417610291e-10
-3.56294534073e-12
2.14637512176e-10
-2.18470320751e-10
-7.79217644286e-13
2.17497704757e-10
-2.20872671875e-10
2.25315036502e-12
2.18529410737e-10
-2.21760721332e-10
4.99969087739e-12
2.17468716932e-10
-2.21013723254e-10
6.98960566439e-12
2.14587507403e-10
-2.1874645577e-10
7.87207983881e-12
2.0996363385e-10
-2.14576380212e-10
7.47807940027e-12
2.03584909997e-10
-2.07811143034e-10
5.87209004017e-12
1.95430786161e-10
-1.97622791763e-10
3.41185277073e-12
1.85346285972e-10
-1.83117088981e-10
1.73065570344e-10
-1.63367656968e-10
5.89952851523e-13
-1.84417065333e-12
1.91500874494e-10
-2.04552055066e-10
-1.41348877221e-13
-3.72722571643e-12
2.03887068913e-10
-2.31307084283e-10
-5.01441420185e-12
2.13670663741e-10
-2.52095038702e-10
-5.31909170702e-12
2.21246207251e-10
-2.67686804463e-10
-4.53995967946e-12
2.26982584288e-10
-2.78837652139e-10
-2.80837091438e-12
2.31033640391e-10
-2.86267833908e-10
-4.31971101267e-13
2.33511668289e-10
-2.90602232951e-10
2.16637634394e-12
2.34403459896e-10
-2.92166507355e-10
4.5024849345e-12
2.33465924059e-10
-2.90763023856e-10
6.15689903972e-12
2.30949719282e-10
-2.86582001856e-10
6.82869570178e-12
2.26870031439e-10
-2.79291395976e-10
6.3939165366e-12
2.21109671418e-10
-2.68261389573e-10
4.95626196841e-12
2.13503046644e-10
-2.52770418966e-10
2.89505395824e-12
2.03683674953e-10
-2.32079406992e-10
1.91268430628e-10
-2.05449717818e-10
7.08177542606e-13
-9.88936496431e-13
2.01445185926e-10
-2.45103038701e-10
-1.54236464375e-13
-2.29750034788e-12
2.13186437847e-10
-2.79014964568e-10
-3.29062510331e-12
2.22013278848e-10
-3.06354000245e-10
-3.59051919518e-12
2.28457133465e-10
-3.27659311665e-10
-3.0641592775e-12
2.33099031054e-10
-3.43476251025e-10
-1.78675686277e-12
2.36250010809e-10
-3.54363680153e-10
8.45426295617e-15
2.38134389892e-10
-3.60837760634e-10
1.9820102554e-12
2.38810688794e-10
-3.63146187968e-10
3.73411936529e-12
2.38074732074e-10
-3.61016524427e-10
4.927495238e-12
2.3613791256e-10
-3.54712277046e-10
5.33395786563e-12
2.32943639804e-10
-3.43977812956e-10
4.8845783209e-12
2.28264152632e-10
-3.2829043159e-10
3.71541135085e-12
2.21779979229e-10
-3.07088625452e-10
2.20000015851e-12
2.12916189598e-10
-2.79844710628e-10
2.01149676979e-10
-2.46052001789e-10
8.27490859994e-13
-1.17313634245e-14
2.03065978246e-10
-2.82358460928e-10
-1.63513312709e-13
-6.37710474313e-13
2.13528523456e-10
-3.23449171196e-10
-1.25871018598e-12
2.20883130675e-10
-3.57450498679e-10
-1.52974516203e-12
2.25815985951e-10
-3.84647319841e-10
-1.29445703131e-12
2.290895601e-10
-4.05333005149e-10
-5.65447343965e-13
2.31154893097e-10
-4.19859470551e-10
5.16207534533e-13
2.32335146953e-10
-4.2859376724e-10
1.71915008854e-12
2.32757033423e-10
-4.31683230095e-10
2.75529010316e-12
2.32265867705e-10
-4.28788804449e-10
3.39406847812e-12
2.31023156758e-10
-4.20239081657e-10
3.49786676165e-12
2.28904383508e-10
-4.05877168035e-10
3.05930892382e-12
2.2558436708e-10
-3.85327773287e-10
2.23818592242e-12
2.20605825876e-10
-3.58235090554e-10
1.37775392126e-12
2.13215669019e-10
-3.24325478691e-10
2.02733045751e-10
-2.8334555405e-10
9.45918712166e-13
1.03900678403e-12
1.97017767926e-10
-3.1462503834e-10
-1.69942806427e-13
1.16927032011e-12
2.05767557339e-10
-3.62672423415e-10
9.76358114879e-13
2.11352016904e-10
-4.03217056486e-10
7.53460381266e-13
2.14619808566e-10
-4.36282372974e-10
6.72620451913e-13
2.16458533647e-10
-4.61875562878e-10
7.88714615039e-13
2.17419087881e-10
-4.80101255048e-10
1.06544872114e-12
2.17892975537e-10
-4.91140372153e-10
1.39699834212e-12
2.18060707573e-10
-4.95020703465e-10
1.62627999758e-12
2.17819612272e-10
-4.91350036823e-10
1.64698528333e-12
2.17278845133e-10
-4.80508666011e-10
1.42485746217e-12
2.1626056708e-10
-4.62457601325e-10
1.01875234865e-12
2.14372204467e-10
-4.3700592353e-10
6.04254209095e-13
2.11058535156e-10
-4.04043929223e-10
4.74904713976e-13
2.05443776813e-10
-3.63586739205e-10
1.96680841923e-10
-3.15639810541e-10
1.06137581629e-12
2.11999314668e-12
1.84421573979e-10
-3.40322319265e-10
-1.74815787479e-13
3.04980784946e-12
1.91238601863e-10
-3.94871927716e-10
3.31854922359e-12
1.94983008573e-10
-4.41639345336e-10
3.15449568598e-12
1.96655470003e-10
-4.80381187789e-10
2.74219233891e-12
1.97191065552e-10
-5.10783986291e-10
2.20861528412e-12
1.97181159207e-10
-5.32667296135e-10
1.63012859838e-12
1.97044923875e-10
-5.45991912438e-10
1.03519304382e-12
1.96993518012e-10
-5.50650113172e-10
4.07861636665e-13
1.96973666975e-10
-5.46214568714e-10
-2.24874967569e-13
1.97044862143e-10
-5.33099424614e-10
-7.85925302221e-13
1.96999233285e-10
-5.11399619891e-10
-1.14557939846e-12
1.96417355097e-10
-4.81142535478e-10
-1.11615160578e-12
1.94704964689e-10
-4.42502266981e-10
-4.67751755498e-13
1.90940196478e-10
-3.95817530499e-10
1.8412099634e-10
-3.41356712108e-10
1.1717794122e-12
3.19366651456e-12
1.66690925208e-10
-3.57954423124e-10
-1.7915369991e-13
4.94028670501e-12
1.71547702972e-10
-4.18336658159e-10
5.68027902665e-12
1.73593106913e-10
-4.70846141186e-10
5.57201701917e-12
1.73935962775e-10
-5.14942632923e-10
4.81845254741e-12
1.73462394825e-10
-5.49949794401e-10
3.62527578954e-12
1.72736180812e-10
-5.75367028291e-10
2.18321580188e-12
1.72159511847e-10
-5.9090538323e-10
6.54621740651e-13
1.71950910529e-10
-5.96309603873e-10
-8.37128637709e-13
1.72096768109e-10
-5.91139264161e-10
-2.131688387e-12
1.72616987678e-10
-5.7582066072e-10
-3.03883559087e-12
1.73296255337e-10
-5.50594885008e-10
-3.35127743523e-12
1.7373355806e-10
-5.15737152869e-10
-2.86383336961e-12
1.73363250478e-10
-4.71739938807e-10
-1.41556632967e-12
1.71313087243e-10
-4.19307612579e-10
1.6646815713e-10
-3.59001595455e-10
1.27418680809e-12
4.23543225636e-12
1.45360035478e-10
-3.66080043486e-10
-1.85221245917e-13
6.796272227e-12
1.48380085769e-10
-4.31459380755e-10
7.98316872926e-12
1.4905165089e-10
-4.89134284413e-10
7.90343470207e-12
1.48480102649e-10
-5.38175149326e-10
6.80017585762e-12
1.4739514269e-10
-5.77498753835e-10
4.96448866038e-12
1.46273834408e-10
-6.06258733273e-10
2.69623710165e-12
1.4546687988e-10
-6.23894620794e-10
2.77856889368e-13
1.45175968066e-10
-6.29996891264e-10
-2.04036369479e-12
1.454195589e-10
-6.24137492492e-10
-3.97861055762e-12
1.46184886203e-10
-6.06729910625e-10
-5.23770135922e-12
1.4727427944e-10
-5.78168552043e-10
-5.52628247511e-12
1.48338782078e-10
-5.38998261953e-10
-4.5998293702e-12
1.48901956605e-10
-4.90054303468e-10
-2.34889088253e-12
1.48246990562e-10
-4.32448800354e-10
1.45257624164e-10
-3.67130286389e-10
1.36214163589e-12
5.25224869447e-12
1.21919291115e-10
-3.63288361687e-10
-1.96121089244e-13
8.59106108504e-12
1.23357935467e-10
-4.32821995764e-10
1.01409532274e-11
1.23140205171e-10
-4.95068553621e-10
1.00276483539e-11
1.22145411341e-10
-5.48574729733e-10
8.56986865913e-12
1.20872681672e-10
-5.91849283003e-10
6.14327789416e-12
1.19684070543e-10
-6.23694165243e-10
3.13717728042e-12
1.18856955995e-10
-6.43266817921e-10
-6.8324843098e-14
1.18561119904e-10
-6.5000308831e-10
-3.12480336022e-12
1.18832183736e-10
-6.43515431763e-10
-5.6545222528e-12
1.19639633176e-10
-6.24177055067e-10
-7.26912293463e-12
1.20817213146e-10
-5.92536856225e-10
-7.59231628318e-12
1.22090582377e-10
-5.49420553234e-10
-6.30489351524e-12
1.23099245517e-10
-4.96010565474e-10
-3.27962795525e-12
1.23360291058e-10
-4.3382156685e-10
1.21974996213e-10
-3.64324589225e-10
1.43301759499e-12
6.2110616879e-12
-3.48352675118e-10
-2.09341239032e-13
9.78914711534e-11
1.0274407332e-11
-4.21636011129e-10
9.80372380175e-11
1.20315970428e-11
-4.87744107672e-10
9.7550472579e-11
1.18041024057e-11
-5.45094057412e-10
9.65676347845e-11
1.00084689503e-11
-5.91825272221e-10
9.54378966029e-11
7.08273182908e-12
-6.26395066042e-10
9.44339101997e-11
3.47836675072e-12
-6.47678141191e-10
9.37505898951e-11
-3.60296771675e-13
-6.54961288473e-10
9.35100904748e-11
-4.01570170983e-12
-6.47926861283e-10
9.37565524517e-11
-7.04582894442e-12
-6.268789652e-10
9.44493098221e-11
-8.99926814179e-12
-5.9251649204e-10
9.54694006663e-11
-9.43688314052e-12
-5.45948648445e-10
9.66243684964e-11
-7.93999659176e-12
-4.88697234405e-10
9.76462009208e-11
-4.18342299486e-12
-4.22646905348e-10
9.81996382916e-11
-3.49328646521e-10
1.48136844277e-12
9.81343129641e-11
5.29506593342e-13
-8.25998295565e-12
2.16155436669e-12
-3.75720720716e-14
7.87804942804e-13
-9.22651592932e-12
3.37865803547e-12
8.77057832162e-13
-1.02418447583e-11
5.14987388557e-12
8.34617189337e-13
-1.11869779144e-11
7.12084629841e-12
6.74637121003e-13
-1.20018897793e-11
8.99164139542e-12
4.25434976606e-13
-1.26262414442e-11
1.05153055547e-11
1.20754407372e-13
-1.30205601422e-11
1.15088955876e-11
-2.0199669574e-13
-1.31577574577e-11
1.18539280476e-11
-5.01652651631e-13
-1.30120298807e-11
1.14930031801e-11
-7.40768295059e-13
-1.26116498339e-11
1.04840154283e-11
-8.86915033351e-13
-1.19844019278e-11
8.94581628807e-12
-9.13967827029e-13
-1.11678459933e-11
7.06141667864e-12
-8.03214061627e-13
-1.02146608607e-11
5.07710924857e-12
-5.27938747191e-13
-9.20204942367e-12
3.28939808751e-12
-8.23936488646e-12
2.04219077603e-12
-2.43566978619e-14
1.22783365738e-12
-1.93319942246e-11
-1.2842426601e-11
-5.91368202611e-14
1.927898161e-12
-2.13737636919e-11
-1.23593533588e-11
2.21242070319e-12
-2.34931265251e-11
-1.0221462335e-11
2.13755264135e-12
-2.5473759887e-11
-7.24369279617e-12
1.74758925551e-12
-2.71737230459e-11
-4.13074447246e-12
1.11329558421e-12
-2.84712709898e-11
-1.46749356407e-12
3.24092829558e-13
-2.92883475608e-11
3.0599054216e-13
-5.17034762704e-13
-2.95717950272e-11
9.13511078823e-13
-1.29690254303e-12
-2.92660237386e-11
2.58023100078e-13
-1.91263047192e-12
-2.84315370195e-11
-1.56177842571e-12
-2.27608714722e-12
-2.71245017699e-11
-4.26845437139e-12
-2.31814352592e-12
-2.54194676859e-11
-7.42153395046e-12
-1.9914981956e-12
-2.34259287004e-11
-1.04378735235e-11
-1.25298857337e-12
-2.13069372216e-11
-1.26221044524e-11
-1.92700008757e-11
-1.3179656596e-11
-6.01476543683e-14
1.6746919539e-12
-2.93581363826e-11
-4.02511188679e-11
-8.13994824341e-14
2.70149131293e-12
-3.22230999063e-11
-4.2680109082e-11
3.15412915013e-12
-3.51527651495e-11
-4.24088571634e-11
3.07712736944e-12
-3.78928260083e-11
-4.05160086098e-11
2.53167414086e-12
-4.0239737886e-11
-3.79526908705e-11
1.62041068613e-12
-4.20294439057e-11
-3.55205658245e-11
4.77313856328e-13
-4.31563718688e-11
-3.38339210177e-11
-7.43136006561e-13
-4.35475829546e-11
-3.32685182052e-11
-1.87227103006e-12
-4.3124728537e-11
-3.39114956598e-11
-2.75681357431e-12
-4.1972198724e-11
-3.567295866e-11
-3.26621976682e-12
-4.01668767047e-11
-3.81750111771e-11
-3.30054268177e-12
-3.78102531634e-11
-4.08024717501e-11
-2.79671373422e-12
-3.50538344974e-11
-4.27558095059e-11
-1.72128054922e-12
-3.21196933447e-11
-4.3096669107e-11
-2.92604751483e-11
-4.07730190643e-11
-9.23107031407e-14
1.91783492062e-12
-3.80914375647e-11
-7.54526379023e-11
-8.65670452534e-14
3.16433141601e-12
-4.15816846999e-11
-8.23442615832e-11
3.75188385919e-12
-4.50805824419e-11
-8.5572563346e-11
3.69519412701e-12
-4.83327051821e-11
-8.6320137252e-11
3.05899741994e-12
-5.11063525815e-11
-8.56533087404e-11
1.96594052068e-12
-5.3217364581e-11
-8.44893674935e-11
5.81720971134e-13
-5.45464794908e-11
-8.35460446425e-11
-9.00079737918e-13
-5.50082789375e-11
-8.32514758053e-11
-2.26822519999e-12
-5.45083539665e-11
-8.36510193015e-11
-3.3311530461e-12
-5.31469279975e-11
-8.46953714054e-11
-3.92748269588e-12
-5.10131910442e-11
-8.59532474873e-11
-3.93780236048e-12
-4.82234750371e-11
-8.67052429932e-11
-3.29620056729e-12
-4.49522578625e-11
-8.60358688584e-11
-1.99718795518e-12
-4.14453107957e-11
-8.28929633818e-11
-3.79590534164e-11
-7.61232774493e-11
-1.22208000311e-13
2.00881028368e-12
-4.53340473281e-11
-1.15797753807e-10
-9.00956750777e-14
3.37185202339e-12
-4.92826415666e-11
-1.28346461848e-10
4.04761178214e-12
-5.31466990099e-11
-1.36356361059e-10
4.01765431045e-12
-5.6693930719e-11
-1.40984212893e-10
3.34122799636e-12
-5.97000213809e-11