/*--------------------------------*- C++ -*----------------------------------*\
  =========                 |
  \\      /  F ield         | OpenFOAM: The Open Source CFD Toolbox
   \\    /   O peration     | Website:  https://openfoam.org
    \\  /    A nd           | Version:  7
     \\/     M anipulation  |
\*---------------------------------------------------------------------------*/
FoamFile
{
    version     2.0;
    format      ascii;
    class       volScalarField;
    location    "1.66";
    object      p;
}
// * * * * * * * * * * * * * * * * * * * * * * * * * * * * * * * * * * * * * //

dimensions      [0 2 -2 0 0 0 0];

internalField   nonuniform List<scalar> 
22500
(
-1.12520730833e-05
-1.12516012201e-05
-1.12518510452e-05
-1.1251788173e-05
-1.12518120824e-05
-1.12518267392e-05
-1.12518427518e-05
-1.1251845533e-05
-1.12518437641e-05
-1.12518287419e-05
-1.12518150224e-05
-1.12517919698e-05
-1.12518556355e-05
-1.12516064265e-05
-1.12520792061e-05
-1.12471971246e-05
-1.12463928621e-05
-1.12464366951e-05
-1.12461833265e-05
-1.124604683e-05
-1.124594005e-05
-1.12458808084e-05
-1.12458591607e-05
-1.12458819762e-05
-1.12459423609e-05
-1.1246050226e-05
-1.1246187716e-05
-1.12464420046e-05
-1.1246398881e-05
-1.12472041658e-05
-1.12419302144e-05
-1.12407658966e-05
-1.12405397503e-05
-1.1240036336e-05
-1.1239697636e-05
-1.12394365147e-05
-1.12392815567e-05
-1.12392280596e-05
-1.12392828961e-05
-1.12394391653e-05
-1.12397015333e-05
-1.12400413756e-05
-1.12405458457e-05
-1.12407727858e-05
-1.12419382266e-05
-1.12362728349e-05
-1.1234703381e-05
-1.12340963448e-05
-1.12332621037e-05
-1.12326501655e-05
-1.12321822119e-05
-1.12318983517e-05
-1.12318015136e-05
-1.12318998611e-05
-1.12321851992e-05
-1.12326545579e-05
-1.12332677839e-05
-1.12341032068e-05
-1.12347111216e-05
-1.12362817675e-05
-1.12297923881e-05
-1.12277175525e-05
-1.12265939193e-05
-1.12253246126e-05
-1.12243466073e-05
-1.12236027985e-05
-1.12231466214e-05
-1.12229916156e-05
-1.12231483023e-05
-1.1223606125e-05
-1.12243514961e-05
-1.12253309326e-05
-1.12266015416e-05
-1.12277261454e-05
-1.12298022093e-05
-1.12223011982e-05
-1.12195907426e-05
-1.12178180445e-05
-1.1216006544e-05
-1.12145682532e-05
-1.12134781825e-05
-1.12128055923e-05
-1.12125773855e-05
-1.1212807446e-05
-1.12134818497e-05
-1.12145736392e-05
-1.12160135023e-05
-1.12178264213e-05
-1.12196001853e-05
-1.1222311868e-05
-1.12137407821e-05
-1.12102508038e-05
-1.12077098642e-05
-1.12052573099e-05
-1.12032730318e-05
-1.12017726082e-05
-1.12008437057e-05
-1.12005287181e-05
-1.12008457308e-05
-1.12017766127e-05
-1.12032789089e-05
-1.12052648969e-05
-1.12077189793e-05
-1.1210261084e-05
-1.12137522569e-05
-1.12040986333e-05
-1.11996856612e-05
-1.11962765744e-05
-1.11931007294e-05
-1.11905005399e-05
-1.11885376854e-05
-1.11873203935e-05
-1.11869077492e-05
-1.11873225865e-05
-1.118854202e-05
-1.11905068961e-05
-1.11931089282e-05
-1.11962864052e-05
-1.11996967543e-05
-1.1204110875e-05
-1.11933986218e-05
-1.11879360458e-05
-1.11835845528e-05
-1.11796278559e-05
-1.11763643677e-05
-1.1173904276e-05
-1.11723776554e-05
-1.11718603215e-05
-1.11723800096e-05
-1.1173908927e-05
-1.11763711833e-05
-1.11796366406e-05
-1.11835950686e-05
-1.11879479163e-05
-1.11934115973e-05
-1.11817026534e-05
-1.11750962803e-05
-1.11697600513e-05
-1.11649963144e-05
-1.11610499836e-05
-1.11580792184e-05
-1.11562360384e-05
-1.11556117121e-05
-1.11562385426e-05
-1.11580841641e-05
-1.11610572277e-05
-1.11650056469e-05
-1.11697712094e-05
-1.11751088809e-05
-1.11817163324e-05
-1.11691072871e-05
-1.11613080044e-05
-1.11549843564e-05
-1.11494237807e-05
-1.1144806037e-05
-1.1141334862e-05
-1.11391830508e-05
-1.11384546667e-05
-1.11391856882e-05
-1.114134007e-05
-1.11448136645e-05
-1.11494336068e-05
-1.11549960991e-05
-1.11613212732e-05
-1.11691216363e-05
-1.1155697407e-05
-1.11467397638e-05
-1.11394884604e-05
-1.11331825412e-05
-1.1127936622e-05
-1.11239996611e-05
-1.11215628131e-05
-1.11207387416e-05
-1.11215655597e-05
-1.11240050851e-05
-1.1127944569e-05
-1.11331927853e-05
-1.1139500708e-05
-1.11467536191e-05
-1.11557123818e-05
-1.11414551661e-05
-1.11315949902e-05
-1.11235668478e-05
-1.11166019078e-05
-1.11107991103e-05
-1.11064557879e-05
-1.11037743734e-05
-1.11028689458e-05
-1.11037771948e-05
-1.11064613628e-05
-1.11108072855e-05
-1.11166124613e-05
-1.11235794863e-05
-1.11316093201e-05
-1.11414706801e-05
-1.11267780635e-05
-1.11163322565e-05
-1.11075923363e-05
-1.11000230345e-05
-1.1093740234e-05
-1.10890703055e-05
-1.10862014233e-05
-1.10852350654e-05
-1.10862042711e-05
-1.10890759363e-05
-1.10937485032e-05
-1.11000337348e-05
-1.11076051983e-05
-1.11163469206e-05
-1.11267939828e-05
-1.11147541914e-05
-1.11015635709e-05
-1.10919007084e-05
-1.10836161551e-05
-1.10768799427e-05
-1.10719434736e-05
-1.106893459e-05
-1.10679246952e-05
-1.10689374167e-05
-1.10719490691e-05
-1.10768881774e-05
-1.10836268474e-05
-1.10919136327e-05
-1.11015784638e-05
-1.11147703745e-05
-1.22735275076e-05
-1.22731957783e-05
-1.22727608403e-05
-1.22723863593e-05
-1.22720572948e-05
-1.22718079368e-05
-1.22716512115e-05
-1.22715977104e-05
-1.22716506776e-05
-1.22718068672e-05
-1.22720556828e-05
-1.22723842123e-05
-1.22727581915e-05
-1.22731927404e-05
-1.22735240539e-05
-1.22715531673e-05
-1.22712308535e-05
-1.22707966719e-05
-1.2270429447e-05
-1.22701080963e-05
-1.22698656979e-05
-1.22697137692e-05
-1.22696619124e-05
-1.22697131942e-05
-1.22698645469e-05
-1.22701063654e-05
-1.22704271459e-05
-1.22707938366e-05
-1.22712276181e-05
-1.22715494907e-05
-1.22705501985e-05
-1.22703438072e-05
-1.22700004167e-05
-1.22697233615e-05
-1.22694768134e-05
-1.22692913429e-05
-1.22691748526e-05
-1.22691349967e-05
-1.22691742455e-05
-1.22692901296e-05
-1.2269474995e-05
-1.22697209531e-05
-1.22699974517e-05
-1.22703404335e-05
-1.22705463339e-05
-1.22707172788e-05
-1.22706891351e-05
-1.22704855377e-05
-1.22703385924e-05
-1.22701971062e-05
-1.22700890313e-05
-1.22700197505e-05
-1.22699957232e-05
-1.22700191323e-05
-1.2270087795e-05
-1.22701952561e-05
-1.22703361462e-05
-1.22704825232e-05
-1.22706857029e-05
-1.2270713301e-05
-1.22715269988e-05
-1.22716606984e-05
-1.22715777396e-05
-1.22715356742e-05
-1.22714746349e-05
-1.22714227993e-05
-1.22713865813e-05
-1.22713734068e-05
-1.2271385971e-05
-1.22714215774e-05
-1.2271472806e-05
-1.22715332545e-05
-1.22715747518e-05
-1.22716572885e-05
-1.22715229941e-05
-1.22725594551e-05
-1.22727841419e-05
-1.22727601211e-05
-1.22727593443e-05
-1.22727233283e-05
-1.22726843205e-05
-1.22726536166e-05
-1.22726418539e-05
-1.22726530302e-05
-1.22726831451e-05
-1.22727215671e-05
-1.22727570101e-05
-1.22727572299e-05
-1.22727808326e-05
-1.22725555067e-05
-1.22735234706e-05
-1.22737405778e-05
-1.22736972317e-05
-1.22736620163e-05
-1.22735877679e-05
-1.22735137944e-05
-1.22734589707e-05
-1.22734385901e-05
-1.22734584215e-05
-1.22735126916e-05
-1.22735861125e-05
-1.22736598162e-05
-1.22736944955e-05
-1.22737374352e-05
-1.22735196583e-05
-1.22742163534e-05
-1.22743225287e-05
-1.22741842919e-05
-1.22740452658e-05
-1.22738769867e-05
-1.22737272343e-05
-1.22736235323e-05
-1.22735862546e-05
-1.22736230289e-05
-1.22737262217e-05
-1.22738754631e-05
-1.22740432341e-05
-1.22741817546e-05
-1.22743196004e-05
-1.22742127448e-05
-1.22745170588e-05
-1.22744214796e-05
-1.22741270911e-05
-1.22738313783e-05
-1.22735283389e-05
-1.22732741851e-05
-1.22731047247e-05
-1.22730449954e-05
-1.22731042727e-05
-1.22732732738e-05
-1.22735269637e-05
-1.22738295364e-05
-1.22741247804e-05
-1.22744187977e-05
-1.22745137007e-05
-1.22743758111e-05
-1.227401043e-05
-1.2273517506e-05
-1.22730317538e-05
-1.22725699602e-05
-1.22721957321e-05
-1.22719517841e-05
-1.22718668292e-05
-1.22719513862e-05
-1.22721949276e-05
-1.22725687414e-05
-1.2273030113e-05
-1.22735154363e-05
-1.22740080115e-05
-1.22743727363e-05
-1.22737958979e-05
-1.22731195202e-05
-1.22724042751e-05
-1.227171311e-05
-1.22710836085e-05
-1.22705850644e-05
-1.22702650168e-05
-1.2270154476e-05
-1.22702646739e-05
-1.22705843687e-05
-1.22710825488e-05
-1.22717116734e-05
-1.22724024504e-05
-1.22731173705e-05
-1.22737931225e-05
-1.22728202853e-05
-1.22718160728e-05
-1.22708689432e-05
-1.22699707922e-05
-1.22691766174e-05
-1.22685587129e-05
-1.22681666913e-05
-1.22680321474e-05
-1.22681664034e-05
-1.22685581253e-05
-1.2269175716e-05
-1.22699695581e-05
-1.22708673604e-05
-1.22718141876e-05
-1.22728178161e-05
-1.22715290594e-05
-1.22701873063e-05
-1.2269004259e-05
-1.22679075918e-05
-1.22669617956e-05
-1.22662373046e-05
-1.22657822743e-05
-1.22656269432e-05
-1.226578204e-05
-1.22662368237e-05
-1.22669610493e-05
-1.22679065563e-05
-1.22690029108e-05
-1.2270185676e-05
-1.22715268913e-05
-1.2269967444e-05
-1.22682743069e-05
-1.22668757561e-05
-1.22656079823e-05
-1.22645409809e-05
-1.22637350215e-05
-1.22632331863e-05
-1.2263062661e-05
-1.22632330047e-05
-1.22637346444e-05
-1.2264540387e-05
-1.22656071406e-05
-1.22668746365e-05
-1.22682729185e-05
-1.22699655705e-05
-1.22677755062e-05
-1.22660962255e-05
-1.22645485625e-05
-1.22631729371e-05
-1.22620414937e-05
-1.2261196571e-05
-1.22606741464e-05
-1.22604972988e-05
-1.22606740133e-05
-1.22611962915e-05
-1.22620410438e-05
-1.22631722816e-05
-1.22645476556e-05
-1.22660950498e-05
-1.22677739316e-05
-1.03549700934e-05
-1.0355173976e-05
-1.03553905745e-05
-1.03556008037e-05
-1.03557854206e-05
-1.03559283495e-05
-1.03560187758e-05
-1.03560497869e-05
-1.03560185346e-05
-1.03559278762e-05
-1.03557847334e-05
-1.03555999256e-05
-1.03553894925e-05
-1.0355172746e-05
-1.03549687461e-05
-1.03552510181e-05
-1.03554524374e-05
-1.03556715223e-05
-1.03558845026e-05
-1.03560721673e-05
-1.03562177527e-05
-1.03563100113e-05
-1.03563417143e-05
-1.03563097666e-05
-1.03562172719e-05
-1.03560714693e-05
-1.035588361e-05
-1.0355670432e-05
-1.03554511929e-05
-1.03552496619e-05
-1.03552328732e-05
-1.03554096866e-05
-1.03556086998e-05
-1.03558048162e-05
-1.03559795434e-05
-1.03561159522e-05
-1.0356202757e-05
-1.03562326666e-05
-1.03562025158e-05
-1.0356115478e-05
-1.03559788539e-05
-1.03558039331e-05
-1.03556076276e-05
-1.03554084579e-05
-1.03552315336e-05
-1.0355138225e-05
-1.0355292983e-05
-1.03554730737e-05
-1.03556525632e-05
-1.03558144197e-05
-1.03559416871e-05
-1.03560230556e-05
-1.03560511653e-05
-1.03560228182e-05
-1.03559412211e-05
-1.03558137408e-05
-1.03556516921e-05
-1.03554720209e-05
-1.03552917757e-05
-1.03551369023e-05
-1.03550453361e-05
-1.0355184425e-05
-1.03553508482e-05
-1.03555177672e-05
-1.03556698664e-05
-1.03557902336e-05
-1.03558675211e-05
-1.03558942831e-05
-1.03558672881e-05
-1.03557897763e-05
-1.03556691995e-05
-1.03555169104e-05
-1.03553498143e-05
-1.03551832388e-05
-1.03550440338e-05
-1.03549565209e-05
-1.03550850572e-05
-1.0355241833e-05
-1.03553994798e-05
-1.03555442831e-05
-1.03556594718e-05
-1.0355733692e-05
-1.03557594393e-05
-1.03557334642e-05
-1.03556590246e-05
-1.03555436303e-05
-1.03553986398e-05
-1.03552408207e-05
-1.03550838909e-05
-1.03549552442e-05
-1.03548717715e-05
-1.03549943634e-05
-1.03551448226e-05
-1.03552960444e-05
-1.03554356167e-05
-1.03555470266e-05
-1.03556189762e-05
-1.03556439638e-05
-1.03556187543e-05
-1.03555465911e-05
-1.03554349805e-05
-1.03552952247e-05
-1.03551438348e-05
-1.03549932208e-05
-1.03548705223e-05
-1.0354794437e-05
-1.03549153424e-05
-1.03550623199e-05
-1.03552095781e-05
-1.03553456346e-05
-1.03554543775e-05
-1.03555246608e-05
-1.03555490755e-05
-1.03555244457e-05
-1.03554539552e-05
-1.0355345017e-05
-1.0355208781e-05
-1.03550613587e-05
-1.03549142265e-05
-1.03547932164e-05
-1.03547263779e-05
-1.03548491963e-05
-1.03549948897e-05
-1.03551400781e-05
-1.03552738401e-05
-1.03553806314e-05
-1.03554495962e-05
-1.03554735358e-05
-1.03554493887e-05
-1.03553802239e-05
-1.03552732435e-05
-1.03551393064e-05
-1.03549939573e-05
-1.035484811e-05
-1.03547251888e-05
-1.03546673805e-05
-1.03547948451e-05
-1.03549407845e-05
-1.03550851674e-05
-1.03552173076e-05
-1.0355322424e-05
-1.03553901367e-05
-1.03554136019e-05
-1.03553899374e-05
-1.03553220325e-05
-1.03552167335e-05
-1.03550844232e-05
-1.03549398832e-05
-1.0354793791e-05
-1.03546662247e-05
-1.03546160243e-05
-1.03547499522e-05
-1.03548971155e-05
-1.03550413904e-05
-1.03551720583e-05
-1.0355275348e-05
-1.0355341599e-05
-1.0355364496e-05
-1.03553414085e-05
-1.03552749737e-05
-1.03551715087e-05
-1.03550406763e-05
-1.03548962483e-05
-1.03547489343e-05
-1.03546149043e-05
-1.03545691657e-05
-1.03547110615e-05
-1.03548604625e-05
-1.03550050853e-05
-1.03551340779e-05
-1.03552350651e-05
-1.03552994321e-05
-1.03553215927e-05
-1.03552992511e-05
-1.03552347088e-05
-1.03551335541e-05
-1.03550044035e-05
-1.03548596323e-05
-1.03547100847e-05
-1.03545680872e-05
-1.03545183286e-05
-1.0354672194e-05
-1.03548264894e-05
-1.03549724208e-05
-1.03550997262e-05
-1.03551980433e-05
-1.03552601693e-05
-1.03552814512e-05
-1.03552599979e-05
-1.03551977059e-05
-1.03550992299e-05
-1.03549717733e-05
-1.03548256996e-05
-1.03546712622e-05
-1.0354517294e-05
-1.03544633978e-05
-1.03546362599e-05
-1.03547951296e-05
-1.03549417617e-05
-1.0355066301e-05
-1.03551610748e-05
-1.03552204201e-05
-1.03552406339e-05
-1.03552202584e-05
-1.03551607573e-05
-1.03550658327e-05
-1.03549411508e-05
-1.03547943841e-05
-1.03546353791e-05
-1.03544624105e-05
-1.03545451151e-05
-1.03546661148e-05
-1.0354806184e-05
-1.03549331188e-05
-1.03550392017e-05
-1.03551194344e-05
-1.03551694673e-05
-1.03551864512e-05
-1.03551693171e-05
-1.0355119139e-05
-1.03550387669e-05
-1.03549325506e-05
-1.03548054905e-05
-1.03546652969e-05
-1.03545441842e-05
-1.07920690787e-05
-1.07919257245e-05
-1.07917768762e-05
-1.07916296295e-05
-1.07915004629e-05
-1.07914001842e-05
-1.07913366894e-05
-1.07913148543e-05
-1.07913367602e-05
-1.07914003191e-05
-1.07915006455e-05
-1.0791629832e-05
-1.07917770866e-05
-1.07919259298e-05
-1.07920693456e-05
-1.07919703748e-05
-1.07918310823e-05
-1.07916827036e-05
-1.07915352185e-05
-1.07914052347e-05
-1.07913040246e-05
-1.07912397961e-05
-1.07912176581e-05
-1.07912398684e-05
-1.07913041618e-05
-1.07914054189e-05
-1.07915354193e-05
-1.07916829027e-05
-1.07918312763e-05
-1.07919706144e-05
-1.07920780565e-05
-1.07919571563e-05
-1.07918245728e-05
-1.07916899815e-05
-1.07915699758e-05
-1.07914758261e-05
-1.07914157973e-05
-1.07913950415e-05
-1.07914158659e-05
-1.07914759567e-05
-1.07915701524e-05
-1.07916901786e-05
-1.07918247696e-05
-1.07919573577e-05
-1.07920782913e-05
-1.07922044675e-05
-1.0792098049e-05
-1.0791978938e-05
-1.07918558237e-05
-1.07917448081e-05
-1.07916570592e-05
-1.07916008522e-05
-1.07915813654e-05
-1.07916009162e-05
-1.07916571815e-05
-1.07917449752e-05
-1.07918560143e-05
-1.07919791335e-05
-1.07920982543e-05
-1.0792204701e-05
-1.07923071571e-05
-1.07922103123e-05
-1.07921007209e-05
-1.07919861789e-05
-1.07918819892e-05
-1.07917991464e-05
-1.07917458772e-05
-1.07917273699e-05
-1.07917459379e-05
-1.07917992627e-05
-1.07918821497e-05
-1.0791986365e-05
-1.07921009173e-05
-1.07922105205e-05
-1.07923073905e-05
-1.07923963209e-05
-1.0792306088e-05
-1.0792203619e-05
-1.07920958873e-05
-1.07919972762e-05
-1.07919185239e-05
-1.07918677324e-05
-1.07918500576e-05
-1.07918677898e-05
-1.07919186343e-05
-1.07919974296e-05
-1.0792096068e-05
-1.07922038134e-05
-1.07923063006e-05
-1.07923965487e-05
-1.07924781152e-05
-1.07923922626e-05
-1.07922950961e-05
-1.0792192807e-05
-1.07920988275e-05
-1.07920235687e-05
-1.07919749329e-05
-1.07919579922e-05
-1.07919749875e-05
-1.07920236742e-05
-1.07920989753e-05
-1.0792192984e-05
-1.07922952891e-05
-1.07923924794e-05
-1.07924783397e-05
-1.07925536772e-05
-1.07924702598e-05
-1.07923767862e-05
-1.07922787059e-05
-1.07921885085e-05
-1.07921162177e-05
-1.07920694628e-05
-1.07920531743e-05
-1.07920695148e-05
-1.07921163186e-05
-1.0792188651e-05
-1.07922788791e-05
-1.07923769792e-05
-1.07924704795e-05
-1.07925539016e-05
-1.07926237541e-05
-1.0792541122e-05
-1.07924499623e-05
-1.07923550281e-05
-1.07922679048e-05
-1.07921981643e-05
-1.07921530857e-05
-1.0792137392e-05
-1.07921531356e-05
-1.07921982614e-05
-1.07922680432e-05
-1.07923551986e-05
-1.0792450156e-05
-1.07925413447e-05
-1.07926239769e-05
-1.07926894209e-05
-1.07926062276e-05
-1.0792516239e-05
-1.07924235846e-05
-1.07923390007e-05
-1.07922715295e-05
-1.07922280115e-05
-1.07922128854e-05
-1.07922280594e-05
-1.07922716233e-05
-1.07923391354e-05
-1.0792423753e-05
-1.07925164336e-05
-1.07926064538e-05
-1.07926896426e-05
-1.07927517181e-05
-1.07926668722e-05
-1.07925771164e-05
-1.07924860718e-05
-1.07924036859e-05
-1.07923383652e-05
-1.07922963977e-05
-1.07922818494e-05
-1.0792296444e-05
-1.07923384562e-05
-1.07924038177e-05
-1.07924862379e-05
-1.07925773113e-05
-1.07926670998e-05
-1.07927519365e-05
-1.07928119351e-05
-1.07927243517e-05
-1.07926338957e-05
-1.07925438783e-05
-1.07924635005e-05
-1.07924003553e-05
-1.07923600278e-05
-1.07923461013e-05
-1.07923600728e-05
-1.07924004439e-05
-1.07924636294e-05
-1.07925440425e-05
-1.079263409e-05
-1.07927245787e-05
-1.07928121487e-05
-1.07928739397e-05
-1.07927815523e-05
-1.07926886826e-05
-1.07925986891e-05
-1.07925198935e-05
-1.07924588093e-05
-1.07924201274e-05
-1.07924068412e-05
-1.0792420171e-05
-1.07924588952e-05
-1.07925200198e-05
-1.07925988503e-05
-1.0792688875e-05
-1.07927817762e-05
-1.07928741463e-05
-1.07929397414e-05
-1.07928389595e-05
-1.07927425431e-05
-1.07926518141e-05
-1.07925743363e-05
-1.07925152026e-05
-1.0792478125e-05
-1.07924654664e-05
-1.07924781668e-05
-1.07925152862e-05
-1.07925744583e-05
-1.07926519715e-05
-1.07927427318e-05
-1.0792839178e-05
-1.07929399349e-05
-1.07929365907e-05
-1.07928513819e-05
-1.07927645244e-05
-1.07926851277e-05
-1.07926186028e-05
-1.0792568302e-05
-1.07925369371e-05
-1.07925262745e-05
-1.07925369772e-05
-1.07925683818e-05
-1.07926187212e-05
-1.07926852808e-05
-1.0792764709e-05
-1.07928515973e-05
-1.07929367847e-05
-9.54237518674e-06
-9.54247640247e-06
-9.5425812891e-06
-9.54268523398e-06
-9.54277642104e-06
-9.54284723718e-06
-9.54289206434e-06
-9.54290747535e-06
-9.5428920049e-06
-9.54284712807e-06
-9.54277628076e-06
-9.54268506093e-06
-9.54258105751e-06
-9.54247615749e-06
-9.5423748935e-06
-9.54243710109e-06
-9.54253533054e-06
-9.54263980541e-06
-9.54274389309e-06
-9.54283565828e-06
-9.54290714371e-06
-9.54295250171e-06
-9.54296813138e-06
-9.54295243968e-06
-9.54290702905e-06
-9.54283550881e-06
-9.54274370987e-06
-9.54263956516e-06
-9.5425350659e-06
-9.54243679226e-06
-9.54235359726e-06
-9.54243883246e-06
-9.54253216654e-06
-9.54262722737e-06
-9.54271202295e-06
-9.54277858848e-06
-9.54282102603e-06
-9.54283569545e-06
-9.54282096535e-06
-9.54277847508e-06
-9.54271187225e-06
-9.54262704232e-06
-9.54253193179e-06
-9.54243856964e-06
-9.54235329386e-06
-9.54225961277e-06
-9.54233473377e-06
-9.54241866008e-06
-9.54250576373e-06
-9.54258433102e-06
-9.54264646585e-06
-9.54268626131e-06
-9.5427000538e-06
-9.54268620298e-06
-9.54264635549e-06
-9.54258418081e-06
-9.54250557927e-06
-9.54241843243e-06
-9.54233448021e-06
-9.54225931503e-06
-9.5421839392e-06
-9.54225230423e-06
-9.54232950897e-06
-9.54241057932e-06
-9.54248432449e-06
-9.54254298299e-06
-9.54258069278e-06
-9.54259378924e-06
-9.54258063655e-06
-9.54254287591e-06
-9.54248417688e-06
-9.54241039772e-06
-9.54232928795e-06
-9.54225206115e-06
-9.5421836479e-06
-9.54211803659e-06
-9.54218142946e-06
-9.54225333481e-06
-9.54232933612e-06
-9.5423988894e-06
-9.54245444694e-06
-9.54249026747e-06
-9.54250272719e-06
-9.54249021362e-06
-9.54245434376e-06
-9.54239874543e-06
-9.54232915867e-06
-9.5422531215e-06
-9.54218119289e-06
-9.54211775575e-06
-9.54205649327e-06
-9.54211602612e-06
-9.54218353553e-06
-9.54225505554e-06
-9.54232075629e-06
-9.5423733785e-06
-9.54240737471e-06
-9.54241921168e-06
-9.54240732337e-06
-9.54237327981e-06
-9.54232061757e-06
-9.542254884e-06
-9.54218333139e-06
-9.54211579786e-06
-9.54205622169e-06
-9.54199760873e-06
-9.54205410137e-06
-9.54211791073e-06
-9.54218540186e-06
-9.54224749177e-06
-9.54229727634e-06
-9.54232947112e-06
-9.54234068505e-06
-9.54232942248e-06
-9.54229718252e-06
-9.54224735885e-06
-9.5421852365e-06
-9.54211771475e-06
-9.54205388125e-06
-9.5419973441e-06
-9.54194014132e-06
-9.54199418154e-06
-9.54205482431e-06
-9.54211863483e-06
-9.54217727966e-06
-9.54222427191e-06
-9.54225465572e-06
-9.5422652354e-06
-9.54225460986e-06
-9.54222418314e-06
-9.54217715326e-06
-9.54211847653e-06
-9.54205463644e-06
-9.54199396959e-06
-9.54193988427e-06
-9.54188284575e-06
-9.54193486117e-06
-9.54199275891e-06
-9.54205316705e-06
-9.54210847646e-06
-9.54215268031e-06
-9.54218121831e-06
-9.54219114373e-06
-9.54218117514e-06
-9.5421525966e-06
-9.54210835637e-06
-9.54205301556e-06
-9.54199257832e-06
-9.54193465604e-06
-9.54188259599e-06
-9.54182475204e-06
-9.54187510808e-06
-9.54193063636e-06
-9.54198788554e-06
-9.54203992643e-06
-9.54208130929e-06
-9.54210794164e-06
-9.54211718481e-06
-9.54210790115e-06
-9.54208123047e-06
-9.54203981297e-06
-9.54198774103e-06
-9.54193046349e-06
-9.54187491011e-06
-9.54182450986e-06
-9.54176497882e-06
-9.54181420551e-06
-9.54186785538e-06
-9.54192223999e-06
-9.54197107928e-06
-9.54200959028e-06
-9.54203424388e-06
-9.54204277053e-06
-9.54203420593e-06
-9.5420095163e-06
-9.54197097176e-06
-9.54192210277e-06
-9.54186769024e-06
-9.5418140163e-06
-9.54176474669e-06
-9.54170110587e-06
-9.54175055752e-06
-9.54180347186e-06
-9.54185570295e-06
-9.54190168745e-06
-9.54193747441e-06
-9.54196019262e-06
-9.54196801134e-06
-9.54196015708e-06
-9.54193740431e-06
-9.5419015865e-06
-9.54185557217e-06
-9.54180331507e-06
-9.54175037717e-06
-9.54170088394e-06
-9.54163182165e-06
-9.54168400092e-06
-9.54173716308e-06
-9.54178798265e-06
-9.54183155151e-06
-9.5418649059e-06
-9.54188586896e-06
-9.54189303454e-06
-9.54188583502e-06
-9.54186484056e-06
-9.54183145517e-06
-9.54178785964e-06
-9.54173701439e-06
-9.5416838309e-06
-9.54163161002e-06
-9.54160683033e-06
-9.5416472092e-06
-9.54169179448e-06
-9.54173304611e-06
-9.54176778436e-06
-9.5417941716e-06
-9.54181067796e-06
-9.54181629905e-06
-9.5418106464e-06
-9.5417941095e-06
-9.54176769466e-06
-9.54173292985e-06
-9.54169165559e-06
-9.54164705027e-06
-9.5416066342e-06
-9.48645636714e-06
-9.48638524951e-06
-9.48631171673e-06
-9.48623884336e-06
-9.48617496321e-06
-9.48612537605e-06
-9.48609398996e-06
-9.48608320003e-06
-9.48609403218e-06
-9.48612545429e-06
-9.48617506247e-06
-9.48623893879e-06
-9.48631179188e-06
-9.4863852835e-06
-9.48645642388e-06
-9.48641368585e-06
-9.48634470955e-06
-9.48627152461e-06
-9.48619861176e-06
-9.48613438482e-06
-9.48608437591e-06
-9.48605265032e-06
-9.48604171922e-06
-9.48605269574e-06
-9.48608445988e-06
-9.48613449054e-06
-9.48619871192e-06
-9.48627159836e-06
-9.48634474306e-06
-9.48641372582e-06
-9.4864734117e-06
-9.48641362029e-06
-9.48634835526e-06
-9.48628186988e-06
-9.48622261456e-06
-9.48617611731e-06
-9.48614647862e-06
-9.4861362334e-06
-9.48614652008e-06
-9.48617619407e-06
-9.48622271176e-06
-9.48628196452e-06
-9.48634842579e-06
-9.48641366249e-06
-9.48647345139e-06
-9.48654011204e-06
-9.4864874375e-06
-9.48642883068e-06
-9.48636798423e-06
-9.48631314492e-06
-9.4862697885e-06
-9.48624202408e-06
-9.48623240017e-06
-9.48624206034e-06
-9.48626985576e-06
-9.48631323041e-06
-9.48636806894e-06
-9.48642889652e-06
-9.48648748136e-06
-9.48654015438e-06
-9.4865935764e-06
-9.48654562907e-06
-9.48649175983e-06
-9.48643517225e-06
-9.4863837374e-06
-9.48634283584e-06
-9.48631654452e-06
-9.48630741163e-06
-9.48631657642e-06
-9.486342895e-06
-9.48638381326e-06
-9.48643524863e-06
-9.48649182314e-06
-9.48654567357e-06
-9.486593621e-06
-9.48663998462e-06
-9.48659551335e-06
-9.48654537939e-06
-9.48649236873e-06
-9.48644389354e-06
-9.48640518192e-06
-9.48638022561e-06
-9.48637154202e-06
-9.48638025343e-06
-9.48640523353e-06
-9.48644395991e-06
-9.48649243636e-06
-9.48654543702e-06
-9.48659555981e-06
-9.48664002549e-06
-9.48668328503e-06
-9.48664153581e-06
-9.48659451518e-06
-9.48654468251e-06
-9.48649894099e-06
-9.48646231312e-06
-9.4864386524e-06
-9.48643041045e-06
-9.4864386765e-06
-9.48646235803e-06
-9.48649899914e-06
-9.48654474313e-06
-9.48659456837e-06
-9.48664158413e-06
-9.48668332418e-06
-9.48672478585e-06
-9.48668522584e-06
-9.48664084996e-06
-9.48659389845e-06
-9.48655073701e-06
-9.48651613675e-06
-9.4864937631e-06
-9.48648596581e-06
-9.48649378388e-06
-9.48651617559e-06
-9.48655078781e-06
-9.48659395263e-06
-9.48664089992e-06
-9.48668527455e-06
-9.48672482644e-06
-9.48676544667e-06
-9.48672770396e-06
-9.4866856213e-06
-9.48664132645e-06
-9.48660064461e-06
-9.48656805186e-06
-9.48654697878e-06
-9.48653963652e-06
-9.48654699686e-06
-9.48656808577e-06
-9.48660068978e-06
-9.48664137607e-06
-9.4866856698e-06
-9.4867277543e-06
-9.486765487e-06
-9.48680619448e-06
-9.48677000898e-06
-9.48672994301e-06
-9.48668812416e-06
-9.48664985564e-06
-9.48661927381e-06
-9.48659952976e-06
-9.48659265761e-06
-9.48659954556e-06
-9.48661930383e-06
-9.48664989618e-06
-9.48668817054e-06
-9.48672999099e-06
-9.48677006182e-06
-9.48680623546e-06
-9.48684773915e-06
-9.48681288228e-06
-9.48677458092e-06
-9.48673507463e-06
-9.48669917497e-06
-9.48667062855e-06
-9.48665225489e-06
-9.48664587302e-06
-9.48665226912e-06
-9.48667065572e-06
-9.48669921266e-06
-9.48673511888e-06
-9.48677462918e-06
-9.48681293704e-06
-9.48684777898e-06
-9.48689069728e-06
-9.48685681461e-06
-9.48681993908e-06
-9.4867825367e-06
-9.4867489558e-06
-9.48672247315e-06
-9.4867055182e-06
-9.48669964815e-06
-9.4867055313e-06
-9.48672249872e-06
-9.48674899114e-06
-9.48678258013e-06
-9.48681998777e-06
-9.48685687049e-06
-9.4868907347e-06
-9.48693674929e-06
-9.48690290315e-06
-9.48686664989e-06
-9.48683084329e-06
-9.48679932012e-06
-9.48677478819e-06
-9.48675920913e-06
-9.48675384467e-06
-9.48675922172e-06
-9.48677481182e-06
-9.48679935495e-06
-9.4868308853e-06
-9.48686669909e-06
-9.48690295902e-06
-9.48693678312e-06
-9.48698682474e-06
-9.48695126468e-06
-9.48691492516e-06
-9.48688016248e-06
-9.48685036571e-06
-9.48682755014e-06
-9.48681321101e-06
-9.48680830349e-06
-9.48681322249e-06
-9.48682757378e-06
-9.48685039845e-06
-9.48688020471e-06
-9.48691497378e-06
-9.48695131982e-06
-9.48698684983e-06
-9.48700606314e-06
-9.48697879511e-06
-9.4869485592e-06
-9.48692056754e-06
-9.48689698814e-06
-9.48687907278e-06
-9.48686786043e-06
-9.4868640389e-06
-9.48686787222e-06
-9.48687909554e-06
-9.48689702191e-06
-9.48692060981e-06
-9.48694860968e-06
-9.48697885219e-06
-9.48700609185e-06
-8.58852591776e-06
-8.58857571111e-06
-8.5886272165e-06
-8.58867822013e-06
-8.58872291007e-06
-8.58875759443e-06
-8.58877955099e-06
-8.58878710593e-06
-8.58877954002e-06
-8.58875757208e-06
-8.5887228761e-06
-8.58867818467e-06
-8.58862719357e-06
-8.58857572727e-06
-8.58852591137e-06
-8.58855590784e-06
-8.58860420619e-06
-8.58865548422e-06
-8.58870653521e-06
-8.58875148816e-06
-8.58878648503e-06
-8.58880869051e-06
-8.5888163484e-06
-8.58880867805e-06
-8.58878645961e-06
-8.58875145044e-06
-8.58870649549e-06
-8.58865545787e-06
-8.5886042129e-06
-8.58855589675e-06
-8.58851394948e-06
-8.58855580407e-06
-8.58860154064e-06
-8.58864810012e-06
-8.58868958328e-06
-8.58872212984e-06
-8.58874287844e-06
-8.58875005651e-06
-8.58874286642e-06
-8.58872210572e-06
-8.58868954829e-06
-8.58864806357e-06
-8.58860151788e-06
-8.58855580674e-06
-8.58851394068e-06
-8.58846696328e-06
-8.58850380266e-06
-8.58854486516e-06
-8.58858746877e-06
-8.58862585651e-06
-8.58865620123e-06
-8.58867563457e-06
-8.58868237538e-06
-8.58867562349e-06
-8.58865617959e-06
-8.58862582644e-06
-8.58858743863e-06
-8.58854484733e-06
-8.58850380802e-06
-8.58846695436e-06
-8.58842914084e-06
-8.58846262526e-06
-8.5885003444e-06
-8.58853994571e-06
-8.58857593388e-06
-8.58860454761e-06
-8.5886229407e-06
-8.58862933386e-06
-8.58862293061e-06
-8.5886045283e-06
-8.58857590797e-06
-8.588539921e-06
-8.58850033039e-06
-8.5884626345e-06
-8.58842913308e-06
-8.58839617736e-06
-8.58842717829e-06
-8.58846224586e-06
-8.58849931298e-06
-8.58853320523e-06
-8.58856026742e-06
-8.58857771359e-06
-8.5885837872e-06
-8.58857770468e-06
-8.58856025079e-06
-8.588533184e-06
-8.58849929423e-06
-8.58846223665e-06
-8.5884271881e-06
-8.58839617412e-06
-8.58836532816e-06
-8.58839436957e-06
-8.588427215e-06
-8.58846202321e-06
-8.58849397319e-06
-8.58851955451e-06
-8.58853607917e-06
-8.58854183805e-06
-8.5885360715e-06
-8.58851954057e-06
-8.5884939562e-06
-8.58846200955e-06
-8.58842721071e-06
-8.58839438073e-06
-8.58836532736e-06
-8.58833569226e-06
-8.58836314648e-06
-8.58839409322e-06
-8.58842684673e-06
-8.58845695814e-06
-8.5884810953e-06
-8.58849670296e-06
-8.58850214473e-06
-8.58849669669e-06
-8.58848108427e-06
-8.58845694547e-06
-8.58842683772e-06
-8.5883940925e-06
-8.58836315877e-06
-8.5883356905e-06
-8.58830660643e-06
-8.58833273174e-06
-8.58836202306e-06
-8.58839287674e-06
-8.58842121779e-06
-8.5884439232e-06
-8.58845860348e-06
-8.58846372067e-06
-8.58845859858e-06
-8.5884439149e-06
-8.58842120895e-06
-8.5883928717e-06
-8.58836202511e-06
-8.58833274481e-06
-8.58830660387e-06
-8.58827742456e-06
-8.58830240318e-06
-8.58833023065e-06
-8.58835930947e-06
-8.58838592529e-06
-8.58840719548e-06
-8.5884209282e-06
-8.58842571026e-06
-8.58842092467e-06
-8.58840718981e-06
-8.58838591999e-06
-8.58835930767e-06
-8.58833023455e-06
-8.58830241573e-06
-8.58827742019e-06
-8.58824765195e-06
-8.58827164286e-06
-8.58829818273e-06
-8.58832560172e-06
-8.58835052352e-06
-8.58837034196e-06
-8.58838309837e-06
-8.58838753163e-06
-8.58838309603e-06
-8.58837033868e-06
-8.58835052122e-06
-8.58832560272e-06
-8.58829818848e-06
-8.58827165524e-06
-8.58824764595e-06
-8.58821685642e-06
-8.58824011044e-06
-8.58826560328e-06
-8.58829150991e-06
-8.58831477483e-06
-8.58833312238e-06
-8.58834487013e-06
-8.58834893953e-06
-8.58834486892e-06
-8.58833312086e-06
-8.58831477517e-06
-8.58829151322e-06
-8.58826561056e-06
-8.58824012393e-06
-8.58821685054e-06
-8.58818386289e-06
-8.58820704394e-06
-8.58823205717e-06
-8.58825681123e-06
-8.58827860348e-06
-8.58829556286e-06
-8.58830633253e-06
-8.58831004426e-06
-8.58830633189e-06
-8.58829556314e-06
-8.58827860556e-06
-8.58825681653e-06
-8.58823206627e-06
-8.58820705873e-06
-8.58818385739e-06
-8.58814799905e-06
-8.58817233925e-06
-8.5881973859e-06
-8.58822138242e-06
-8.58824194515e-06
-8.58825768669e-06
-8.58826758121e-06