/*--------------------------------*- C++ -*----------------------------------*\
  =========                 |
  \\      /  F ield         | OpenFOAM: The Open Source CFD Toolbox
   \\    /   O peration     | Website:  https://openfoam.org
    \\  /    A nd           | Version:  7
     \\/     M anipulation  |
\*---------------------------------------------------------------------------*/
FoamFile
{
    version     2.0;
    format      ascii;
    class       volScalarField;
    location    "2";
    object      p;
}
// * * * * * * * * * * * * * * * * * * * * * * * * * * * * * * * * * * * * * //

dimensions      [0 2 -2 0 0 0 0];

internalField   nonuniform List<scalar> 
22500
(
-4.21310954459e-06
-4.21441175406e-06
-4.21572391841e-06
-4.21642915988e-06
-4.21691125836e-06
-4.2171313597e-06
-4.21713684244e-06
-4.21695212726e-06
-4.21660880314e-06
-4.21609231913e-06
-4.2154033269e-06
-4.21452397808e-06
-4.21352728275e-06
-4.21206012324e-06
-4.21069918905e-06
-4.22306851206e-06
-4.22473078673e-06
-4.22666652307e-06
-4.22800091532e-06
-4.229051363e-06
-4.22972112825e-06
-4.23001555242e-06
-4.22993329837e-06
-4.22949150319e-06
-4.22869012421e-06
-4.22755438435e-06
-4.2261067332e-06
-4.22447486863e-06
-4.2223721644e-06
-4.22063433779e-06
-4.23089973202e-06
-4.23281837379e-06
-4.23510681721e-06
-4.23687826467e-06
-4.23835157421e-06
-4.23936561851e-06
-4.23988561256e-06
-4.23988403577e-06
-4.23936528175e-06
-4.23834156698e-06
-4.23686325554e-06
-4.23499185711e-06
-4.23291703668e-06
-4.23045122822e-06
-4.22844456214e-06
-4.23554734532e-06
-4.23753396362e-06
-4.23982208289e-06
-4.24175879954e-06
-4.24342797508e-06
-4.24461952836e-06
-4.24526298159e-06
-4.24530897766e-06
-4.24475174918e-06
-4.24361291417e-06
-4.24196301988e-06
-4.23989744053e-06
-4.23765316049e-06
-4.23517596148e-06
-4.23309132413e-06
-4.23744047729e-06
-4.23918561566e-06
-4.24111572208e-06
-4.24290493598e-06
-4.2444976479e-06
-4.24565919199e-06
-4.246295844e-06
-4.24634632555e-06
-4.24579819371e-06
-4.24467878077e-06
-4.24306887019e-06
-4.24108473653e-06
-4.23898594033e-06
-4.23685386606e-06
-4.23500006349e-06
-4.23636246645e-06
-4.23736471226e-06
-4.23850599179e-06
-4.23972681369e-06
-4.24087269619e-06
-4.24171685099e-06
-4.24216491385e-06
-4.24215815277e-06
-4.24168314792e-06
-4.24076725425e-06
-4.23948673241e-06
-4.23795620497e-06
-4.23642495176e-06
-4.23507009192e-06
-4.23395044177e-06
-4.2317869637e-06
-4.23135310873e-06
-4.23118562865e-06
-4.2313166504e-06
-4.23155851912e-06
-4.2317301821e-06
-4.23176482047e-06
-4.23162413066e-06
-4.23130014627e-06
-4.2308136799e-06
-4.23021893325e-06
-4.22960067426e-06
-4.22916029489e-06
-4.22910352114e-06
-4.22941109598e-06
-4.2231360761e-06
-4.22044310061e-06
-4.21838510243e-06
-4.21684937677e-06
-4.21568549688e-06
-4.21479694458e-06
-4.21417361553e-06
-4.21381539305e-06
-4.21372598532e-06
-4.21391337934e-06
-4.21439216651e-06
-4.21518824656e-06
-4.21641658416e-06
-4.21824185591e-06
-4.22080048658e-06
-4.20988886676e-06
-4.20407739753e-06
-4.19953292855e-06
-4.19576192397e-06
-4.19270149527e-06
-4.19037609303e-06
-4.18885855069e-06
-4.18820202371e-06
-4.18842700105e-06
-4.1895235274e-06
-4.19145181954e-06
-4.194153156e-06
-4.197619543e-06
-4.2019252882e-06
-4.20759245808e-06
-4.191677688e-06
-4.18196121082e-06
-4.1743800124e-06
-4.16787716735e-06
-4.16249339347e-06
-4.15840645472e-06
-4.15579261879e-06
-4.15476854415e-06
-4.15537547731e-06
-4.15758174699e-06
-4.16128303402e-06
-4.16631593116e-06
-4.17251751232e-06
-4.17985621277e-06
-4.18941930596e-06
-4.16837135152e-06
-4.15412863664e-06
-4.14307023616e-06
-4.13346332869e-06
-4.12543584004e-06
-4.1193465464e-06
-4.11548816669e-06
-4.11404619138e-06
-4.11508366789e-06
-4.1185462286e-06
-4.12426009362e-06
-4.1319440656e-06
-4.14125319902e-06
-4.15206702584e-06
-4.16614573227e-06
-4.13999778036e-06
-4.1209383777e-06
-4.10617119391e-06
-4.09325233285e-06
-4.0823937004e-06
-4.07416386935e-06
-4.06897952966e-06
-4.06709213547e-06
-4.06858591725e-06
-4.07338465082e-06
-4.08124760697e-06
-4.09176919181e-06
-4.10439352666e-06
-4.11891525406e-06
-4.13779993799e-06
-4.10655911784e-06
-4.08311597873e-06
-4.06469895537e-06
-4.04841750022e-06
-4.0346793192e-06
-4.02429034059e-06
-4.01777814426e-06
-4.01544647968e-06
-4.01739413186e-06
-4.02352948317e-06
-4.03355899731e-06
-4.04696530993e-06
-4.06295468068e-06
-4.08112605126e-06
-4.10438524439e-06
-4.06945698963e-06
-4.04222937128e-06
-4.02008772471e-06
-4.0003827758e-06
-3.98382566422e-06
-3.97139157306e-06
-3.96364757328e-06
-3.96090751735e-06
-3.96327282881e-06
-3.97064834276e-06
-3.98272962689e-06
-3.99895916321e-06
-4.01837359387e-06
-4.04026682795e-06
-4.06730660158e-06
-4.03621115973e-06
-4.00087208374e-06
-3.97418955973e-06
-3.95067074332e-06
-3.93132867827e-06
-3.91699185002e-06
-3.90813679244e-06
-3.90503455021e-06
-3.90777134989e-06
-3.91626650579e-06
-3.93025716031e-06
-3.94927569852e-06
-3.97250294845e-06
-3.99893101068e-06
-4.0340832405e-06
-1.15246829247e-05
-1.15226496688e-05
-1.1519982584e-05
-1.15175074613e-05
-1.15153471752e-05
-1.15137343883e-05
-1.15127850118e-05
-1.15125724135e-05
-1.15131170613e-05
-1.15143835338e-05
-1.15162787256e-05
-1.1518665689e-05
-1.15212884205e-05
-1.15240119045e-05
-1.15260276673e-05
-1.15184731302e-05
-1.15166197604e-05
-1.15140763704e-05
-1.1511716069e-05
-1.15096403763e-05
-1.15080850837e-05
-1.15071679562e-05
-1.15069630201e-05
-1.15074912958e-05
-1.15087165518e-05
-1.15105456135e-05
-1.15128415903e-05
-1.15153492881e-05
-1.15179567976e-05
-1.15198053414e-05
-1.15168624717e-05
-1.15156775004e-05
-1.15136958857e-05
-1.15118629622e-05
-1.15102196168e-05
-1.15089872908e-05
-1.15082681147e-05
-1.15081285483e-05
-1.15085878076e-05
-1.15096124798e-05
-1.15111178607e-05
-1.15129824052e-05
-1.15149652195e-05
-1.15170134335e-05
-1.15181946966e-05
-1.15201917291e-05
-1.1519886081e-05
-1.15186365163e-05
-1.15174686681e-05
-1.15163656279e-05
-1.15155310831e-05
-1.15150534209e-05
-1.15149924614e-05
-1.15153662321e-05
-1.15161436014e-05
-1.15172475644e-05
-1.15185705015e-05
-1.15198891258e-05
-1.15212081635e-05
-1.1521513093e-05
-1.15257399009e-05
-1.15260844581e-05
-1.152535044e-05
-1.15246238551e-05
-1.15238640932e-05
-1.1523271042e-05
-1.1522934245e-05
-1.15229160739e-05
-1.15232361701e-05
-1.15238629077e-05
-1.15247181349e-05
-1.15256939496e-05
-1.15265711969e-05
-1.15273777563e-05
-1.15270370959e-05
-1.1531312834e-05
-1.15318373918e-05
-1.15312280562e-05
-1.15305725993e-05
-1.15298478411e-05
-1.15292636665e-05
-1.15289232548e-05
-1.15288978264e-05
-1.15292110809e-05
-1.15298284297e-05
-1.15306642803e-05
-1.15315984449e-05
-1.15324031098e-05
-1.15330881232e-05
-1.15325739909e-05
-1.15355871686e-05
-1.15357888231e-05
-1.15349327922e-05
-1.15340151366e-05
-1.1533060357e-05
-1.15322921039e-05
-1.15318310642e-05
-1.1531758575e-05
-1.15321028683e-05
-1.15328260513e-05
-1.15338337863e-05
-1.15349899377e-05
-1.1536054165e-05
-1.15369891975e-05
-1.15368031164e-05
-1.1537920459e-05
-1.15373880288e-05
-1.15360140765e-05
-1.1534603215e-05
-1.15332409506e-05
-1.15321631936e-05
-1.15315067115e-05
-1.15313619333e-05
-1.15317608411e-05
-1.1532663072e-05
-1.15339666435e-05
-1.15355209961e-05
-1.15370752427e-05
-1.15385313714e-05
-1.1539085133e-05
-1.15381409038e-05
-1.15365846174e-05
-1.15345194515e-05
-1.15324768749e-05
-1.15306035949e-05
-1.15291448367e-05
-1.15282509214e-05
-1.15280199114e-05
-1.15284869958e-05
-1.15296099566e-05
-1.15312803806e-05
-1.15333357741e-05
-1.15355176591e-05
-1.15376672731e-05
-1.15392489602e-05
-1.15363417584e-05
-1.1533583729e-05
-1.15307243269e-05
-1.15279745301e-05
-1.15255341465e-05
-1.15236562703e-05
-1.15225029969e-05
-1.15221784686e-05
-1.15227207797e-05
-1.15240859792e-05
-1.15261608088e-05
-1.15287728532e-05
-1.15316572483e-05
-1.15346027308e-05
-1.15373892956e-05
-1.15327292042e-05
-1.15286800198e-05
-1.15249687808e-05
-1.15214768535e-05
-1.15184441157e-05
-1.15161316643e-05
-1.15147105932e-05
-1.1514290158e-05
-1.15149101865e-05
-1.15165259979e-05
-1.15190206961e-05
-1.15222141965e-05
-1.1525835366e-05
-1.15296334394e-05
-1.15337125271e-05
-1.15275505266e-05
-1.15221900553e-05
-1.1517599676e-05
-1.15133582538e-05
-1.15097322038e-05
-1.15069880718e-05
-1.15053032382e-05
-1.15047882823e-05
-1.15054849286e-05
-1.1507347509e-05
-1.15102590957e-05
-1.1514034951e-05
-1.15183997187e-05
-1.15230767592e-05
-1.1528469027e-05
-1.15211040643e-05
-1.15144323408e-05
-1.15089488434e-05
-1.15039737281e-05
-1.14997793451e-05
-1.14966297793e-05
-1.14946979091e-05
-1.14940961577e-05
-1.14948619985e-05
-1.14969549808e-05
-1.15002577438e-05
-1.15045907832e-05
-1.15096826526e-05
-1.15152515373e-05
-1.15219553124e-05
-1.1513553191e-05
-1.15055583493e-05
-1.14992441105e-05
-1.14936124132e-05
-1.14889349301e-05
-1.1485448633e-05
-1.14833176793e-05
-1.14826427134e-05
-1.14834646529e-05
-1.14857406069e-05
-1.14893653183e-05
-1.14941703683e-05
-1.14999128881e-05
-1.15063109197e-05
-1.15143365421e-05
-1.15038731169e-05
-1.14955953474e-05
-1.14886737899e-05
-1.1482580088e-05
-1.14776079848e-05
-1.1473930944e-05
-1.1471687456e-05
-1.14709722043e-05
-1.14718179314e-05
-1.14741911119e-05
-1.14779931542e-05
-1.14830821024e-05
-1.14892789325e-05
-1.14962863557e-05
-1.15045987138e-05
-5.33876877394e-06
-5.33983982241e-06
-5.34091375669e-06
-5.34191067309e-06
-5.34274271053e-06
-5.34334772212e-06
-5.34368781199e-06
-5.34374276002e-06
-5.34350476041e-06
-5.34298931076e-06
-5.34222895109e-06
-5.34127677051e-06
-5.34021060428e-06
-5.33914465641e-06
-5.3381585306e-06
-5.33967549706e-06
-5.34071956398e-06
-5.34179148809e-06
-5.34279536154e-06
-5.34363951398e-06
-5.34425785594e-06
-5.34460889523e-06
-5.34466947597e-06
-5.34443033421e-06
-5.34390867655e-06
-5.34313951524e-06
-5.34217866925e-06
-5.34110766762e-06
-5.34004086384e-06
-5.33907521041e-06
-5.3393571717e-06
-5.34029233107e-06
-5.3412752534e-06
-5.3422114329e-06
-5.34300614186e-06
-5.3435920711e-06
-5.3439259232e-06
-5.34398260871e-06
-5.34375200707e-06
-5.34325204178e-06
-5.34251902842e-06
-5.34161024612e-06
-5.34060875741e-06
-5.33962853736e-06
-5.33876663401e-06
-5.33883461168e-06
-5.33968689542e-06
-5.34059927709e-06
-5.34148095739e-06
-5.34223763239e-06
-5.34280006357e-06
-5.34312266708e-06
-5.34317805084e-06
-5.34295531449e-06
-5.34247284602e-06
-5.34176838172e-06
-5.34090095486e-06
-5.33995530468e-06
-5.33904336641e-06
-5.33825851295e-06
-5.33841287417e-06
-5.33921651716e-06
-5.34008759576e-06
-5.34093962704e-06
-5.34167906502e-06
-5.34223374757e-06
-5.34255499173e-06
-5.34261306389e-06
-5.34239622184e-06
-5.34192338588e-06
-5.34123385287e-06
-5.34038869574e-06
-5.33947454164e-06
-5.33860090404e-06
-5.33785612314e-06
-5.338076981e-06
-5.33886113386e-06
-5.33971244502e-06
-5.34055314379e-06
-5.34129008153e-06
-5.34184780096e-06
-5.34217457942e-06
-5.34223807125e-06
-5.34202577593e-06
-5.3415569739e-06
-5.34087253463e-06
-5.34003554289e-06
-5.33913451118e-06
-5.33827723605e-06
-5.33754421784e-06
-5.3378208671e-06
-5.3386107829e-06
-5.3394611817e-06
-5.34030758087e-06
-5.34105522261e-06
-5.341625536e-06
-5.34196360925e-06
-5.34203479699e-06
-5.34182593628e-06
-5.34135648276e-06
-5.34066869335e-06
-5.33982750268e-06
-5.33892317184e-06
-5.33806296384e-06
-5.33731521733e-06
-5.337660664e-06
-5.33848277165e-06
-5.339350879e-06
-5.34021783609e-06
-5.34098715317e-06
-5.34157757593e-06
-5.34193135939e-06
-5.34201192682e-06
-5.3418055034e-06
-5.34133151915e-06
-5.34063320159e-06
-5.33977691754e-06
-5.33885430354e-06
-5.33797309178e-06
-5.3371850034e-06
-5.33760959319e-06
-5.33848742291e-06
-5.33938893208e-06
-5.34028824725e-06
-5.34108725384e-06
-5.34170262164e-06
-5.34207462339e-06
-5.34216544281e-06
-5.34196082575e-06
-5.34147994851e-06
-5.34076646295e-06
-5.33988737462e-06
-5.33893485704e-06
-5.33801738177e-06
-5.3371655014e-06
-5.33767020513e-06
-5.33862462418e-06
-5.33957136317e-06
-5.34051031959e-06
-5.34134230541e-06
-5.34198343331e-06
-5.34237352683e-06
-5.34247431986e-06
-5.34227161718e-06
-5.34178384694e-06
-5.34105414949e-06
-5.34014883552e-06
-5.33915935718e-06
-5.33819435458e-06
-5.33726003047e-06
-5.3378403025e-06
-5.33888482218e-06
-5.33988366705e-06
-5.3408642954e-06
-5.34172759532e-06
-5.34239136717e-06
-5.34279657449e-06
-5.34290616001e-06
-5.34270623982e-06
-5.34221418698e-06
-5.34147117607e-06
-5.34054108977e-06
-5.3395128171e-06
-5.33849389644e-06
-5.33746436832e-06
-5.33810766759e-06
-5.3392502191e-06
-5.34030484757e-06
-5.34132474699e-06
-5.34221330723e-06
-5.34289239003e-06
-5.34330734498e-06
-5.34342341002e-06
-5.34322805374e-06
-5.34273663474e-06
-5.34198697993e-06
-5.3410380457e-06
-5.33997345624e-06
-5.33889777124e-06
-5.33776624793e-06
-5.33843829617e-06
-5.33968936744e-06
-5.34080555829e-06
-5.34186171925e-06
-5.34276700301e-06
-5.34345259785e-06
-5.34387013598e-06
-5.3439901239e-06
-5.34380124459e-06
-5.34331675083e-06
-5.34256900861e-06
-5.34160918911e-06
-5.34051151852e-06
-5.33937380877e-06
-5.33813027162e-06
-5.33881050319e-06
-5.34019114572e-06
-5.34136747658e-06
-5.34245127237e-06
-5.34336004202e-06
-5.34403899292e-06
-5.34445072597e-06
-5.34457096141e-06
-5.34439121335e-06
-5.34392156026e-06
-5.34318775701e-06
-5.34223046605e-06
-5.34110840249e-06
-5.33991070772e-06
-5.33853556605e-06
-5.33968359594e-06
-5.3409803882e-06
-5.34213499003e-06
-5.34316666629e-06
-5.34400927503e-06
-5.34463070006e-06
-5.34500466496e-06
-5.34511430733e-06
-5.34495352342e-06
-5.34452927432e-06
-5.34386012158e-06
-5.34297430164e-06
-5.34190787702e-06
-5.34073169923e-06
-5.33943618332e-06
-9.32393243022e-06
-9.32324762404e-06
-9.3225131154e-06
-9.32178425136e-06
-9.32115515344e-06
-9.32068166487e-06
-9.32039764534e-06
-9.32032013638e-06
-9.3204530179e-06
-9.3207820439e-06
-9.32128083324e-06
-9.32190910723e-06
-9.32261336805e-06
-9.3233099909e-06
-9.32396656661e-06
-9.32364385275e-06
-9.32298435739e-06
-9.3222621018e-06
-9.3215396083e-06
-9.32091214989e-06
-9.32043683745e-06
-9.32014976006e-06
-9.32006970288e-06
-9.32020158652e-06
-9.32053046965e-06
-9.32102878321e-06
-9.32165482106e-06
-9.32235329318e-06
-9.32304029416e-06
-9.32367294557e-06
-9.32415821132e-06
-9.32357352897e-06
-9.32292169141e-06
-9.32225635131e-06
-9.3216728415e-06
-9.32122700107e-06
-9.32095609997e-06
-9.32088004092e-06
-9.32100479551e-06
-9.32131529291e-06
-9.32178361717e-06
-9.32236751503e-06
-9.32301164082e-06
-9.32363154807e-06
-9.32418806086e-06
-9.32468827016e-06
-9.32415633487e-06
-9.32355828845e-06
-9.32293794175e-06
-9.32238818545e-06
-9.32196451133e-06
-9.32170537327e-06
-9.32163173175e-06
-9.32175036733e-06
-9.32204632248e-06
-9.32249133551e-06
-9.32304262001e-06
-9.32364482253e-06
-9.32421430773e-06
-9.32471889479e-06
-9.32507208127e-06
-9.32456665541e-06
-9.3240011178e-06
-9.32340980354e-06
-9.32288132562e-06
-9.32247097725e-06
-9.32221790822e-06
-9.32214459066e-06
-9.32225854973e-06
-9.32254516176e-06
-9.32297576825e-06
-9.3235071825e-06
-9.32408399898e-06
-9.32462441896e-06
-9.32510340109e-06
-9.32535982257e-06
-9.32486519575e-06
-9.32431914725e-06
-9.32374562114e-06
-9.32322989508e-06
-9.3228269107e-06
-9.32257665068e-06
-9.3225025198e-06
-9.32261278187e-06
-9.32289308234e-06
-9.32331461356e-06
-9.32383400852e-06
-9.32439593805e-06
-9.32492094883e-06
-9.32539086685e-06
-9.32557827274e-06
-9.32508138433e-06
-9.32454419268e-06
-9.32398065422e-06
-9.32347220753e-06
-9.32307311264e-06
-9.32282370901e-06
-9.32274815834e-06
-9.32285539958e-06
-9.32313149287e-06
-9.32354772247e-06
-9.32406086742e-06
-9.32461583621e-06
-9.32513586658e-06
-9.32560957197e-06
-9.32573449961e-06
-9.32522614889e-06
-9.32468885803e-06
-9.32412861171e-06
-9.32362249474e-06
-9.32322435695e-06
-9.32297438179e-06
-9.3228971813e-06
-9.32300197793e-06
-9.3232754415e-06
-9.32368919036e-06
-9.32420054378e-06
-9.3247549001e-06
-9.32527856786e-06
-9.32576641407e-06
-9.32583565645e-06
-9.32530681423e-06
-9.32476240143e-06
-9.32420072697e-06
-9.3236942636e-06
-9.3232958898e-06
-9.32304503303e-06
-9.32296634153e-06
-9.32306909822e-06
-9.32334072168e-06
-9.32375357213e-06
-9.32426596117e-06
-9.32482416153e-06
-9.3253579752e-06
-9.32586821411e-06
-9.32588944857e-06
-9.32533480731e-06
-9.32477870169e-06
-9.3242127981e-06
-9.32370480065e-06
-9.32330600804e-06
-9.32305479617e-06
-9.32297501612e-06
-9.32307587508e-06
-9.32334558606e-06
-9.32375773121e-06
-9.32427219434e-06
-9.32483667307e-06
-9.3253850502e-06
-9.32592309475e-06
-9.32590513666e-06
-9.32532050846e-06
-9.32474976312e-06
-9.32417886721e-06
-9.32367000485e-06
-9.32327253864e-06
-9.32302245633e-06
-9.32294251212e-06
-9.32304126419e-06
-9.32330806733e-06
-9.32371819325e-06
-9.3242338842e-06
-9.32480507397e-06
-9.32537020067e-06
-9.32593971158e-06
-9.3258901785e-06
-9.32527377571e-06
-9.32468726896e-06
-9.32411198461e-06
-9.32360483844e-06
-9.32321117042e-06
-9.32296485243e-06
-9.32288569119e-06
-9.32298199807e-06
-9.32324384537e-06
-9.32364934217e-06
-9.32416385893e-06
-9.324740738e-06
-9.32532366063e-06
-9.32592648088e-06
-9.32586332137e-06
-9.32521049701e-06
-9.32460477208e-06
-9.3240251373e-06
-9.32352128453e-06
-9.3231354385e-06
-9.3228945709e-06
-9.32281799343e-06
-9.32291068005e-06
-9.3231658032e-06
-9.32356365869e-06
-9.32407469826e-06
-9.32465720903e-06
-9.32526068718e-06
-9.32590116588e-06
-9.32583406012e-06
-9.32513376628e-06
-9.32450821836e-06
-9.32392534935e-06
-9.32343000753e-06
-9.32305452494e-06
-9.32282369932e-06
-9.32274975322e-06
-9.32283889919e-06
-9.32308403476e-06
-9.32347047902e-06
-9.32397397858e-06
-9.3245604944e-06
-9.32518537314e-06
-9.32587370555e-06
-9.32551980487e-06
-9.32485906482e-06
-9.32427028903e-06
-9.3237376348e-06
-9.32329494653e-06
-9.32296491278e-06
-9.32276301738e-06
-9.32269989257e-06
-9.32277818465e-06
-9.32299388053e-06
-9.3233357139e-06
-9.32378669859e-06
-9.3243239368e-06
-9.32491332927e-06
-9.32556432989e-06
-6.33514389529e-06
-6.33560196288e-06
-6.33605156832e-06
-6.33647314717e-06
-6.33682710457e-06
-6.33708598096e-06
-6.33722610396e-06
-6.33723669996e-06
-6.33711442931e-06
-6.33686761582e-06
-6.33651222641e-06
-6.33607424422e-06
-6.33558795473e-06
-6.33511068144e-06
-6.3346612685e-06
-6.33527294956e-06
-6.33571264743e-06
-6.33615516738e-06
-6.33657510058e-06
-6.33693031302e-06
-6.33719138915e-06
-6.33733406333e-06
-6.33734646803e-06
-6.33722456174e-06
-6.33697724458e-06
-6.33662143429e-06
-6.33618408853e-06
-6.33570096414e-06
-6.33522979923e-06
-6.33479662592e-06
-6.33485090916e-06
-6.33523783359e-06
-6.33563518401e-06
-6.33602201153e-06
-6.33635173644e-06
-6.33659489946e-06
-6.33672777472e-06
-6.33673794971e-06
-6.33662089375e-06
-6.33638558811e-06
-6.33604933748e-06
-6.3356395697e-06
-6.33519223436e-06
-6.33476592103e-06
-6.33438399783e-06
-6.33443079764e-06
-6.33478155251e-06
-6.33514559397e-06
-6.33550695379e-06
-6.33581763005e-06
-6.3360480002e-06
-6.33617445615e-06
-6.33618381538e-06
-6.33607119207e-06
-6.3358455599e-06
-6.33552461301e-06
-6.3351362025e-06
-6.3347163944e-06
-6.33432370188e-06
-6.33397631211e-06
-6.33411503079e-06
-6.33444508763e-06
-6.33478953131e-06
-6.33513655097e-06
-6.33543714842e-06
-6.33566129197e-06
-6.33578526711e-06
-6.33579546073e-06
-6.33568658823e-06
-6.33546768591e-06
-6.33515672503e-06
-6.33478190943e-06
-6.33437932868e-06
-6.33400665717e-06
-6.33367684774e-06
-6.33386496791e-06
-6.3341854306e-06
-6.33451777029e-06
-6.33485574982e-06
-6.33515054196e-06
-6.33537164419e-06
-6.33549527198e-06
-6.33550718272e-06
-6.33540190906e-06
-6.33518840265e-06
-6.3348848695e-06
-6.33451957525e-06
-6.334128492e-06
-6.33376795507e-06
-6.33344591063e-06
-6.3336580295e-06
-6.33397435069e-06
-6.33429963255e-06
-6.33463269778e-06
-6.33492464442e-06
-6.33514472814e-06
-6.33526915994e-06
-6.33528332283e-06
-6.33518170261e-06
-6.33497306778e-06
-6.33467566507e-06
-6.33431756691e-06
-6.33393442465e-06
-6.33358081184e-06
-6.3332601448e-06
-6.33348562546e-06
-6.33380286047e-06
-6.33412499842e-06
-6.33445505872e-06
-6.33474534285e-06
-6.33496519091e-06
-6.33509084473e-06
-6.3351075127e-06
-6.3350096547e-06
-6.33480581053e-06
-6.3345140059e-06
-6.33416183143e-06
-6.33378437368e-06
-6.3334340402e-06
-6.33311027712e-06
-6.33334041348e-06
-6.33366070638e-06
-6.33398207641e-06
-6.33431018428e-06
-6.33459924568e-06
-6.334818832e-06
-6.33494547987e-06
-6.33496461366e-06
-6.33487072666e-06
-6.33467204822e-06
-6.33438609474e-06
-6.33403962579e-06
-6.33366687492e-06
-6.33331762056e-06
-6.33298831894e-06
-6.33321336594e-06
-6.33353903957e-06
-6.33386071061e-06
-6.3341866602e-06
-6.3344736424e-06
-6.33469183035e-06
-6.33481869586e-06
-6.33483990304e-06
-6.33475033945e-06
-6.33455759978e-06
-6.33427846757e-06
-6.33393844171e-06
-6.33357048737e-06
-6.3332213959e-06
-6.33288547232e-06
-6.33309834866e-06
-6.33342940946e-06
-6.3337515019e-06
-6.33407446189e-06
-6.33435762263e-06
-6.33457274138e-06
-6.33469831377e-06
-6.33472110868e-06
-6.33463617185e-06
-6.33445062065e-06
-6.33417992938e-06
-6.33384789577e-06
-6.33348568903e-06
-6.33313671831e-06
-6.33279437799e-06
-6.33298877092e-06
-6.33332554138e-06
-6.33364825139e-06
-6.33396673961e-06
-6.33424399188e-06
-6.33445328598e-06
-6.33457590141e-06
-6.33459928013e-06
-6.33451963055e-06
-6.33434266868e-06
-6.33408260375e-06
-6.33376067505e-06
-6.33340549257e-06
-6.33305692726e-06
-6.33270835574e-06
-6.3328744895e-06
-6.3332189282e-06
-6.33354405528e-06
-6.33385835508e-06
-6.33412728893e-06
-6.33432914771e-06
-6.33444636107e-06
-6.33447002492e-06
-6.33439552163e-06
-6.33422881077e-06
-6.33398112396e-06
-6.33367072167e-06
-6.33332251564e-06
-6.33297252899e-06
-6.33261626508e-06
-6.33274419936e-06
-6.33310353143e-06
-6.33343492222e-06
-6.33374501654e-06
-6.33400533971e-06
-6.33419666004e-06
-6.33430789669e-06
-6.33433010865e-06
-6.33426165318e-06
-6.33410581494e-06
-6.33387199344e-06
-6.33357407504e-06
-6.33323174688e-06
-6.33287690369e-06
-6.33250623479e-06
-6.33275652385e-06
-6.33309917395e-06
-6.33340621585e-06
-6.33368260805e-06
-6.33390675524e-06
-6.33406928201e-06
-6.33416153127e-06
-6.33417891655e-06
-6.3341193749e-06
-6.33398587164e-06
-6.33378460228e-06
-6.33352475137e-06
-6.33321841181e-06
-6.33288803158e-06
-6.33253369177e-06
-8.04489798248e-06
-8.0445665371e-06
-8.04420281125e-06
-8.0438427971e-06
-8.04353167961e-06
-8.04329694147e-06
-8.04315546041e-06
-8.04311290313e-06
-8.04316854218e-06
-8.04331393615e-06
-8.04353662245e-06
-8.04381816367e-06
-8.04413498484e-06
-8.04444935033e-06
-8.04474758875e-06
-8.04476948997e-06
-8.04444805717e-06
-8.0440901262e-06
-8.04373279456e-06
-8.04342241621e-06
-8.04318726602e-06
-8.04304448024e-06
-8.04300074673e-06
-8.04305588277e-06
-8.04320138293e-06
-8.04342418639e-06
-8.04370527966e-06
-8.04402011577e-06
-8.04433087542e-06
-8.04461910984e-06
-8.04500487953e-06
-8.04471689331e-06
-8.04439239203e-06
-8.04406193389e-06
-8.04377184363e-06
-8.04354972263e-06
-8.04341342587e-06
-8.04337059754e-06
-8.04342183963e-06
-8.04355872521e-06
-8.04376799641e-06
-8.04403034444e-06
-8.04432109317e-06
-8.04460213338e-06
-8.04485663885e-06
-8.04524014924e-06
-8.04497722463e-06
-8.04467839097e-06
-8.04436913168e-06
-8.04409454177e-06
-8.04388218482e-06
-8.04375045267e-06
-8.04370782252e-06
-8.04375553612e-06
-8.0438854251e-06
-8.04408403853e-06
-8.04433184754e-06
-8.04460405772e-06
-8.04486297505e-06
-8.04509473921e-06
-8.04540551115e-06
-8.04515614953e-06
-8.04487422447e-06
-8.04458025514e-06
-8.04431665054e-06
-8.04411070286e-06
-8.04398124761e-06
-8.04393784311e-06
-8.04398245061e-06
-8.04410723912e-06
-8.04429867286e-06
-8.04453704656e-06
-8.04479752399e-06
-8.04504337567e-06
-8.04526344731e-06
-8.04552870073e-06
-8.04528752082e-06
-8.04501772021e-06
-8.04473459221e-06
-8.04447884316e-06
-8.0442774294e-06
-8.0441494936e-06
-8.0441052017e-06
-8.04414711881e-06
-8.04426777261e-06
-8.04445369397e-06
-8.04468521539e-06
-8.04493758746e-06
-8.04517545776e-06
-8.04538986055e-06
-8.04562545016e-06
-8.04538833126e-06
-8.04512720008e-06
-8.04485329076e-06
-8.04460455801e-06
-8.04440732617e-06
-8.04428076699e-06
-8.04423558343e-06
-8.04427492545e-06
-8.04439180287e-06
-8.04457294734e-06
-8.04479897111e-06
-8.04504534876e-06
-8.04527842756e-06
-8.04549096632e-06
-8.04570238402e-06
-8.04546769243e-06
-8.04521263712e-06
-8.04494607522e-06
-8.04470324316e-06
-8.04450987034e-06
-8.04438487774e-06
-8.04433914242e-06
-8.04437619095e-06
-8.04448953333e-06
-8.04466631206e-06
-8.04488761985e-06
-8.04512938305e-06
-8.04535993869e-06
-8.04557316723e-06
-8.04576532884e-06
-8.04553033943e-06
-8.04527954743e-06
-8.04501964922e-06
-8.04478286023e-06
-8.04459393455e-06
-8.04447107708e-06
-8.04442524561e-06
-8.04446016126e-06
-8.0445699238e-06
-8.0447422911e-06
-8.04495906716e-06
-8.04519686936e-06
-8.04542631942e-06
-8.04564185112e-06
-8.04581863242e-06
-8.04558288407e-06
-8.04533534225e-06
-8.04508175152e-06
-8.04485129289e-06
-8.04466732004e-06
-8.04454741577e-06
-8.04450198494e-06
-8.04453491371e-06
-8.04464086645e-06
-8.04480840213e-06
-8.04502032492e-06
-8.04525424214e-06
-8.04548329801e-06
-8.04570197795e-06
-8.04586733704e-06
-8.04562953326e-06
-8.04538436346e-06
-8.04513738418e-06
-8.04491397734e-06
-8.04473632051e-06
-8.04462033344e-06
-8.04457602187e-06
-8.04460698358e-06
-8.04470865841e-06
-8.04487055303e-06
-8.04507681211e-06
-8.04530639652e-06
-8.04553524837e-06
-8.04575761963e-06
-8.04591389148e-06
-8.04567319207e-06
-8.04543031268e-06
-8.04519019955e-06
-8.04497536005e-06
-8.04480485468e-06
-8.04469421181e-06
-8.04465146267e-06
-8.04468055763e-06
-8.04477718581e-06
-8.04493234965e-06
-8.04513182113e-06
-8.04535641713e-06
-8.04558508583e-06
-8.04581185316e-06
-8.04596518664e-06
-8.04571891849e-06
-8.04547644106e-06
-8.04524336367e-06
-8.04503655115e-06
-8.04487533512e-06
-8.04477007181e-06
-8.04473003932e-06
-8.04475684063e-06
-8.04484804881e-06
-8.04499566091e-06
-8.04518771456e-06
-8.04540746655e-06
-8.0456372244e-06
-8.04587075153e-06
-8.04602058366e-06
-8.04576289591e-06
-8.045521639e-06
-8.04529482086e-06
-8.04509902975e-06
-8.04494644508e-06
-8.04484909187e-06
-8.04481132469e-06
-8.0448363566e-06
-8.04492127324e-06
-8.04506024759e-06
-8.04524368203e-06
-8.04545794149e-06
-8.04568833392e-06
-8.0459336222e-06
-8.04593500852e-06
-8.04571015661e-06
-8.04549869571e-06
-8.04530545207e-06
-8.04514014364e-06
-8.04501378012e-06
-8.04493262103e-06
-8.04490147922e-06
-8.04492145142e-06
-8.04499098661e-06
-8.04510588886e-06
-8.04525934901e-06
-8.04544175167e-06
-8.04564248299e-06
-8.04585640724e-06
-6.59002130817e-06
-6.59024228569e-06
-6.59045137206e-06
-6.59063391475e-06
-6.59077612532e-06
-6.59087402324e-06
-6.59092312422e-06
-6.59091935852e-06
-6.5908600592e-06
-6.59074767856e-06
-6.59058794888e-06
-6.59039139792e-06
-6.59017149599e-06
-6.58995251906e-06
-6.58973876389e-06
-6.59005054654e-06
-6.590261993e-06
-6.59046610234e-06
-6.59064772804e-06
-6.59079096227e-06
-6.59089035061e-06
-6.59094081155e-06
-6.5909378877e-06
-6.59087890404e-06
-6.59076654101e-06
-6.59060701986e-06
-6.59041120179e-06
-6.59019326357e-06
-6.58997763488e-06
-6.58977188464e-06
-6.58982694588e-06
-6.59001321971e-06
-6.59019480193e-06
-6.59036075581e-06
-6.59049321621e-06
-6.59058588751e-06
-6.5906328067e-06
-6.59062934209e-06
-6.59057285359e-06
-6.5904662392e-06
-6.59031594153e-06
-6.59013304371e-06
-6.58993177761e-06
-6.58973714188e-06
-6.58955536671e-06
-6.58960971436e-06
-6.58977751588e-06
-6.58994224072e-06
-6.59009671426e-06
-6.59022202157e-06
-6.59031064551e-06
-6.59035578061e-06
-6.59035254604e-06
-6.59029837828e-06
-6.59019633155e-06
-6.59005312882e-06
-6.58988006355e-06
-6.58969145275e-06
-6.58951251364e-06
-6.58934686498e-06
-6.5894431449e-06
-6.58959964147e-06
-6.58975410164e-06
-6.58990211174e-06
-6.59002435496e-06
-6.59011200527e-06
-6.59015743261e-06
-6.59015537854e-06
-6.59010333694e-06
-6.59000453519e-06
-6.58986595571e-06
-6.58969912133e-06
-6.58951839361e-06
-6.58934899701e-06
-6.5891918098e-06
-6.58930903184e-06
-6.5894592068e-06
-6.58960657233e-06
-6.58975095832e-06
-6.58987213845e-06
-6.58996020158e-06
-6.59000675948e-06
-6.59000627835e-06
-6.58995628066e-06
-6.58986012663e-06
-6.58972501189e-06
-6.58956257389e-06
-6.58938717527e-06
-6.58922379659e-06
-6.58907086537e-06
-6.58919647681e-06
-6.58934243439e-06
-6.5894851479e-06
-6.58962744116e-06
-6.58974845804e-06
-6.5898375218e-06
-6.5898856271e-06
-6.58988697548e-06
-6.58983910461e-06
-6.58974543401e-06
-6.58961329941e-06
-6.58945432127e-06
-6.58928281088e-06
-6.58912336292e-06
-6.58897198002e-06
-6.58910104339e-06
-6.58924458245e-06
-6.5893841701e-06
-6.58952506786e-06
-6.58964625294e-06
-6.58973634914e-06
-6.5897859491e-06
-6.58978910139e-06
-6.58974337543e-06
-6.5896521992e-06
-6.58952290509e-06
-6.58936698246e-06
-6.58919858074e-06
-6.58904165473e-06
-6.58889037159e-06
-6.58901873154e-06
-6.58916064835e-06
-6.58929808403e-06
-6.58943771716e-06
-6.58955872284e-06
-6.58964932755e-06
-6.58970003696e-06
-6.58970480017e-06
-6.58966127618e-06
-6.58957279027e-06
-6.58944654096e-06
-6.58929372534e-06
-6.58912821537e-06
-6.5889731605e-06
-6.58882123661e-06
-6.58894505807e-06
-6.58908586026e-06
-6.58922132416e-06
-6.58935933179e-06
-6.58947942391e-06
-6.58956978149e-06
-6.58962091407e-06
-6.58962697491e-06
-6.58958568842e-06
-6.5895002239e-06
-6.58937750858e-06
-6.58922824058e-06
-6.58906587043e-06
-6.58891252217e-06
-6.58876021356e-06
-6.58887639297e-06
-6.58901574197e-06
-6.58914940328e-06
-6.58928518863e-06
-6.58940337023e-06
-6.58949224684e-06
-6.58954292572e-06
-6.58954977267e-06
-6.58951076031e-06
-6.58942878326e-06
-6.58931029651e-06
-6.58916528339e-06
-6.58900656355e-06
-6.58885513432e-06
-6.58870300094e-06
-6.58880921029e-06
-6.58894708429e-06
-6.58907891804e-06
-6.58921181104e-06
-6.5893267541e-06
-6.5894129848e-06
-6.58946201417e-06
-6.58946915397e-06
-6.5894324165e-06
-6.58935447741e-06
-6.58924111931e-06
-6.58910123658e-06
-6.58894673214e-06
-6.58879745403e-06
-6.58864637615e-06
-6.58873835814e-06
-6.58887553522e-06
-6.58900660978e-06
-6.58913655655e-06
-6.5892475931e-06
-6.58932958303e-06
-6.58937626031e-06
-6.58938293042e-06
-6.58934854216e-06
-6.58927514265e-06
-6.58916753831e-06
-6.58903328639e-06
-6.58888280641e-06
-6.58873485234e-06
-6.5885846941e-06
-6.58865586218e-06
-6.58879525132e-06
-6.58892870702e-06
-6.58905696456e-06
-6.58916352688e-06
-6.58924124206e-06
-6.58928441275e-06