/*--------------------------------*- C++ -*----------------------------------*\
  =========                 |
  \\      /  F ield         | OpenFOAM: The Open Source CFD Toolbox
   \\    /   O peration     | Website:  https://openfoam.org
    \\  /    A nd           | Version:  7
     \\/     M anipulation  |
\*---------------------------------------------------------------------------*/
FoamFile
{
    version     2.0;
    format      ascii;
    class       surfaceScalarField;
    location    "2";
    object      phi;
}
// * * * * * * * * * * * * * * * * * * * * * * * * * * * * * * * * * * * * * //

dimensions      [0 3 -1 0 0 0 0];

internalField   nonuniform List<scalar> 
65775
(
-5.51849893479e-12
-5.81348589451e-09
1.30778340055e-10
-2.56218670557e-14
-1.33702053724e-11
-6.1268022694e-09
1.51717790201e-10
-1.61864663712e-11
-6.41994673458e-09
1.74865164202e-10
-1.56913120407e-11
-6.67430154993e-09
1.97810268418e-10
-1.35842774744e-11
-6.8804374152e-09
2.1833335755e-10
-1.06015678979e-11
-7.03281501494e-09
2.34520331823e-10
-7.15002804124e-12
-7.12877715497e-09
2.44942112278e-10
-3.45725681964e-12
-7.16445556384e-09
2.48609607606e-10
2.21607663099e-13
-7.12878190327e-09
2.44847660889e-10
3.6697682525e-12
-7.0328172612e-09
2.34329244264e-10
6.46030098702e-12
-6.88041586938e-09
2.18043728302e-10
7.82332620866e-12
-6.6742354125e-09
1.97419513073e-10
5.99295505552e-12
-6.41986053828e-09
1.74367307328e-10
-7.72965554873e-13
-6.12673976645e-09
1.51100111999e-10
-5.81375318158e-09
1.3002940967e-10
-4.9481494063e-12
-3.27439005026e-11
-1.11176007669e-08
-8.17070458182e-11
-9.16141496177e-13
-5.92259342324e-11
-1.17185696292e-08
-9.49110115586e-11
-6.7978407391e-11
-1.22861596946e-08
-1.01560446263e-10
-6.54860297193e-11
-1.27756698391e-08
-1.03800571652e-10
-5.57115002327e-11
-1.3171535096e-08
-1.03514721152e-10
-4.13867520516e-11
-1.3463517065e-08
-1.02249235076e-10
-2.44589795372e-11
-1.36471055499e-08
-1.01140034873e-10
-6.54645502687e-12
-1.37151981802e-08
-1.00838485615e-10
1.10734249784e-11
-1.36473369547e-08
-1.01399082088e-10
2.68205115753e-11
-1.34639828459e-08
-1.02776754479e-10
3.87423957344e-11
-1.31721881397e-08
-1.04317269083e-10
4.40111144713e-11
-1.27764083096e-08
-1.04887400539e-10
3.85020565934e-11
-1.22869385225e-08
-1.02951230755e-10
1.5622357159e-11
-1.17194819002e-08
-9.6644606707e-11
-1.11189958384e-08
-8.38137037969e-11
-1.41897564456e-11
-7.83233671017e-11
-1.55810985934e-08
-6.08518837972e-10
1.72153283935e-14
-1.25790882394e-10
-1.64102230151e-08
-7.0362608439e-10
-1.42188251887e-10
-1.71867335057e-08
-7.87447221211e-10
-1.36540730074e-10
-1.7851312897e-08
-8.58738245203e-10
-1.14676746028e-10
-1.83864045855e-08
-9.16197449965e-10
-8.15720183249e-11
-1.87796213364e-08
-9.58593310332e-10
-4.17540493562e-11
-1.90263378311e-08
-9.8502166587e-10
3.4701276654e-13
-1.91177632221e-08
-9.94524266374e-10
4.09247066518e-11
-1.90267541492e-08
-9.85432621502e-10
7.55844522851e-11
-1.87804572262e-08
-9.59430705941e-10
9.97960197179e-11
-1.83876012423e-08
-9.17466480496e-10
1.08529693613e-10
-1.78527552612e-08
-8.60446629456e-10
9.58587586541e-11
-1.7188341235e-08
-7.89616016363e-10
5.2791875578e-11
-1.6412183719e-08
-7.06306007847e-10
-1.55837207008e-08
-6.11754395471e-10
-2.05217973612e-11
-1.33859572518e-10
-1.90297538625e-08
-1.29911352765e-09
4.1980169351e-13
-2.07740301624e-10
-2.00139558325e-08
-1.49493845183e-09
-2.35303489979e-10
-2.091873248e-08
-1.67301265278e-09
-2.26743896316e-10
-2.16868428382e-08
-1.82802851732e-09
-1.89706022246e-10
-2.23021973071e-08
-1.9549405288e-09
-1.31693014897e-10
-2.2752838913e-08
-2.04944382308e-09
-6.08059184619e-11
-2.3035117091e-08
-2.10851793013e-09
1.43689302599e-11
-2.31397416767e-08
-2.12956076487e-09
8.59906319272e-11
-2.3035628184e-08
-2.10899909248e-09
1.45511311564e-10
-2.27538734135e-08
-2.05042714715e-09
1.84845288886e-10
-2.23036894486e-08
-1.95643754151e-09
1.964813188e-10
-2.16886827267e-08
-1.83005438739e-09
1.72734958334e-10
-2.09208540255e-08
-1.67559769947e-09
1.03485713637e-10
-2.00166761346e-08
-1.49815028913e-09
-1.90334311874e-08
-1.30302193393e-09
-2.45054374475e-11
-1.92956721416e-10
-2.14226837997e-08
-2.0266243009e-09
4.46034302713e-13
-2.98088981165e-10
-2.24917556486e-08
-2.31926096666e-09
-3.3945736738e-10
-2.3452111905e-08
-2.58578083643e-09
-3.28221728582e-10
-2.42613252785e-08
-2.81785943928e-09
-2.7402561158e-10
-2.4906833745e-08
-3.00764129289e-09
-1.87327900027e-10
-2.53784912291e-08
-3.14868057087e-09
-8.04415369887e-11
-2.56736891635e-08
-3.23663070909e-09
3.31298128489e-11
-2.57831894632e-08
-3.26782193495e-09
1.40681606897e-10
-2.56742491332e-08
-3.23712450069e-09
2.2875112418e-10
-2.53796292144e-08
-3.14969308449e-09
2.85054610178e-10
-2.49084972115e-08
-3.00919113951e-09
2.991537955e-10
-2.42634289458e-08
-2.81997063921e-09
2.61402642387e-10
-2.34546205412e-08
-2.58849329379e-09
1.60710691019e-10
-2.2495030225e-08
-2.32265727289e-09
-2.14271645374e-08
-2.03080121377e-09
-2.64044673229e-11
-2.50558309004e-10
-2.28218678469e-08
-2.69348428211e-09
2.84259392039e-13
-3.89924949215e-10
-2.39175686428e-08
-3.06679017061e-09
-4.46530297261e-10
-2.48791656123e-08
-3.4050080184e-09
-4.32837054841e-10
-2.56840829544e-08
-3.69828575908e-09
-3.60770998816e-10
-2.63242926852e-08
-3.93717606486e-09
-2.4413760318e-10
-2.67917110427e-08
-4.11410248872e-09
-9.97390051299e-11
-2.7084257288e-08
-4.22411704113e-09
5.38338095269e-11
-2.71928222313e-08
-4.26301363779e-09
1.98832360983e-10
-2.70848199776e-08
-4.22459875299e-09
3.16700904669e-10
-2.67928637953e-08
-4.11509134342e-09
3.90672388031e-10
-2.6325993568e-08
-3.93869367788e-09
4.06969625841e-10
-2.56862707873e-08
-3.70035966069e-09
3.53684413221e-10
-2.48818322964e-08
-3.40768104544e-09
2.18395892893e-10
-2.3921111023e-08
-3.07015209411e-09
-2.28268873271e-08
-2.69765148865e-09
-2.68161507096e-11
-3.04091576883e-10
-2.3347421258e-08
-3.24424885554e-09
6.79334074398e-14
-4.78649114845e-10
-2.44248064153e-08
-3.67988046746e-09
-5.50961210632e-10
-2.53512039829e-08
-4.0723438652e-09
-5.35106947469e-10
-2.61221498745e-08
-4.41129958557e-09
-4.4545888001e-10
-2.67344416565e-08
-4.6864947274e-09
-2.99407968874e-10
-2.71816946632e-08
-4.88976686275e-09
-1.18256400255e-10
-2.74617496837e-08
-5.01587837175e-09
7.4475685797e-11
-2.75656298777e-08
-5.06034413168e-09
2.5618711998e-10
-2.74623148937e-08
-5.0163450137e-09
4.03385329164e-10
-2.71828575245e-08
-4.89072472132e-09
4.94796831718e-10
-2.67361727364e-08
-4.68796219053e-09
5.13053254717e-10
-2.61244077783e-08
-4.41330023057e-09
4.43795615778e-10
-2.53539987712e-08
-4.07491216435e-09
2.72965367943e-10
-2.44285131715e-08
-3.68310408379e-09
-2.3352781713e-08
-3.24825514232e-09
-2.63982334138e-11
-3.53249577011e-10
-2.31397046546e-08
-3.65904598996e-09
-1.14445855448e-13
-5.62553769754e-10
-2.4165105866e-08
-4.14184138221e-09
-6.50600304701e-10
-2.5032885362e-08
-4.57508101889e-09
-6.32989192239e-10
-2.57511796293e-08
-4.94833050324e-09
-5.26536596883e-10
-2.63215628315e-08
-5.25080641705e-09
-3.52308793485e-10
-2.67387771523e-08
-5.47389665504e-09
-1.36014593542e-10
-2.70001462821e-08
-5.61207819537e-09
9.41383493465e-11
-2.70969196219e-08
-5.66065375871e-09
3.10980076206e-10
-2.70007254994e-08
-5.61253177743e-09
4.863225335e-10
-2.67399691275e-08
-5.47482708363e-09
5.9447271698e-10
-2.63233458175e-08
-5.25222757547e-09
6.14375320231e-10
-2.57535185207e-08
-4.95025759708e-09
5.29213251683e-10
-2.50358008055e-08
-4.57753810062e-09
3.23393316364e-10
-2.4168940224e-08
-4.14490793398e-09
-2.31453263488e-08
-3.66284192655e-09
-2.56707897192e-11
-3.99099259879e-10
-2.23361427745e-08
-3.9398327046e-09
-2.33691969644e-13
-6.42159317416e-10
-2.32842536776e-08
-4.45898400239e-09
-7.45968619117e-10
-2.40780536455e-08
-4.9239159387e-09
-7.27055384701e-10
-2.47319532986e-08
-5.32409315018e-09
-6.04579352785e-10
-2.52517872712e-08
-5.64818525098e-09
-4.03318313963e-10
-2.56327540358e-08
-5.88707114759e-09
-1.53316539364e-10
-2.58714274448e-08
-6.03484722344e-09
1.12721349159e-10
-2.59594960377e-08
-6.0866136323e-09
3.63279208014e-10
-2.58720472026e-08
-6.03530013571e-09
5.65665985776e-10
-2.56340227278e-08
-5.88800044527e-09
6.89839187504e-10
-2.52536896556e-08
-5.64959559363e-09
7.11015119836e-10
-2.47344562861e-08
-5.32598430589e-09
6.10018469795e-10
-2.40811738855e-08
-4.9262940333e-09
3.70315352695e-10
-2.32882953078e-08
-4.46191425406e-09
-2.23420046029e-08
-3.94342150208e-09
-2.49637884672e-11
-4.43179156668e-10
-2.10609712557e-08
-4.09819500032e-09
-2.7206192256e-13
-7.19262840802e-10
-2.19128115271e-08
-4.64631890489e-09
-8.39150402988e-10
-2.26222290893e-08
-5.13694307815e-09
-8.19322582672e-10
-2.32047089642e-08
-5.55926316957e-09
-6.81245769486e-10
-2.36689799055e-08
-5.90130377129e-09
-4.53530159899e-10
-2.40099331952e-08
-6.15337089441e-09
-1.70570015157e-10
-2.42233661545e-08
-6.30911086217e-09
1.30548059488e-10
-2.43016870216e-08
-6.36344317857e-09
4.14087327417e-10
-2.42240501155e-08
-6.30957331928e-09
6.4296795337e-10
-2.40113282618e-08
-6.15431500809e-09
7.82787093137e-10
-2.36710701583e-08
-5.90272369907e-09
8.04911516536e-10
-2.32074671651e-08
-5.56114320821e-09
6.87843219351e-10
-2.26256648988e-08
-5.1392694133e-09
4.15093457903e-10
-2.19171955078e-08
-4.64914084963e-09
-2.10671787897e-08
-4.1016000534e-09
-2.44479729288e-11
-4.8699147145e-10
-1.94234264883e-08
-4.14769690017e-09
-2.43799437637e-13
-7.96269292119e-10
-2.01648197675e-08
-4.7194522004e-09
-9.32945869079e-10
-2.07832191917e-08
-5.23145444526e-09
-9.12321787425e-10
-2.12913507986e-08
-5.67241275397e-09
-7.58458493331e-10
-2.16981114857e-08
-6.02962944773e-09
-5.04130089281e-10
-2.19973105806e-08
-6.29284119726e-09
-1.88151227115e-10
-2.21841453504e-08
-6.45524263895e-09
1.480633945e-10
-2.22521589496e-08
-6.51163015779e-09
4.64651981688e-10
-2.21849229236e-08
-6.45571914069e-09
7.20203973736e-10
-2.19988882243e-08
-6.29380786191e-09
8.75881609053e-10
-2.17004802297e-08
-6.03107097095e-09
8.98879439422e-10
-2.12944788755e-08
-5.67429811602e-09
7.65085453308e-10
-2.07871140232e-08
-5.23374943754e-09
4.59188112134e-10
-2.01697179966e-08
-4.72219000808e-09
-1.94301085022e-08
-4.15094408822e-09
-2.41835791936e-11
-5.31821498038e-10
-1.75194439326e-08
-4.10028883027e-09
-1.50382572389e-13
-8.76028425409e-10
-1.81397760395e-08
-4.69135324545e-09
-1.03038543606e-09
-1.8664878875e-08
-5.22122924627e-09
-1.00840410797e-09
-1.91001724692e-08
-5.67783559827e-09
-8.3779144537e-10
-1.94503755431e-08
-6.04774090017e-09
-5.559938869e-10
-1.97078251556e-08
-6.320206903e-09
-2.06312247038e-10
-1.98677916505e-08
-6.48804007638e-09
1.65637860649e-10
-1.9925345302e-08
-6.54599957248e-09
5.15965496147e-10
-1.98686963033e-08
-6.4885308943e-09
7.99053496495e-10
-1.97096554558e-08
-6.32119735544e-09
9.71575621072e-10
-1.94531146403e-08
-6.04920766331e-09
9.96037218236e-10
-1.91038009272e-08
-5.67973377437e-09
8.44671725706e-10
-1.86694009452e-08
-5.22350427079e-09
5.03947168378e-10
-1.81454006264e-08
-4.69402077924e-09
-1.75267971657e-08
-4.10339547729e-09
-2.41497882174e-11
-5.79967583521e-10
-1.54334414102e-08
-3.96524126616e-09
-3.23737289678e-15
-9.6281251384e-10
-1.5925324627e-08
-4.57191863538e-09
-1.13440520637e-09
-1.63620375105e-08
-5.11663560563e-09
-1.10893465556e-09
-1.67305028607e-08
-5.58607011091e-09
-9.19743989246e-10
-1.70272340753e-08
-5.96620136495e-09
-6.09283514527e-10
-1.7244273624e-08
-6.24601300361e-09
-2.25037947444e-10
-1.73779417514e-08
-6.41803198598e-09
1.83381402097e-10
-1.74253067693e-08
-6.47707929214e-09
5.68311800306e-10
-1.73790124646e-08
-6.4185340895e-09
8.80144223727e-10
-1.72464260807e-08
-6.24702239668e-09
1.071350314e-09
-1.70304636722e-08
-5.96768914176e-09
1.09943424312e-09
-1.67347805199e-08
-5.58798046998e-09
9.30977250736e-10
-1.63673716059e-08
-5.11889402803e-09
5.51761508883e-10
-1.59319160167e-08
-4.57451720463e-09
-1.54417241358e-08
-3.96820446832e-09
-2.42197103345e-11
-6.39866209099e-10
-1.32346355368e-08
-3.74927740221e-09
2.28744431018e-13
-1.0636372112e-09
-1.36027287539e-08
-4.36893274751e-09
-1.24690223677e-09
-1.3966472715e-08
-4.92581884578e-09
-1.21353453038e-09
-1.42758513796e-08
-5.40522100803e-09
-1.00356291988e-09
-1.4522574783e-08
-5.79302868777e-09
-6.63432985472e-10
-1.47012257157e-08
-6.07821582935e-09
-2.44127181385e-10
-1.4810041548e-08
-6.25314472598e-09
2.0120970539e-10
-1.4847818263e-08
-6.31279098442e-09
6.21249684315e-10
-1.48113223545e-08
-6.25365155422e-09
9.6283608642e-10
-1.47037973765e-08
-6.07923258805e-09
1.17495768136e-09
-1.45264169518e-08
-5.79452416832e-09
1.21109688619e-09
-1.42809449006e-08
-5.40713393685e-09
1.03112827752e-09
-1.39728308606e-08
-4.92805788216e-09
6.11151615431e-10
-1.36105496694e-08
-4.37145551496e-09
-1.32441467602e-08
-3.75206806318e-09
-2.44055281934e-11
-7.34600215286e-10
-3.45625175137e-09
4.96663026669e-13
-1.09653078255e-08
-1.18775828242e-09
-4.089062827e-09
-1.1260419916e-08
-1.37360595448e-09
-4.65517212392e-09
-1.15671435023e-08
-1.32843427577e-09
-5.14162747467e-09
-1.18228599519e-08
-1.09540636678e-09
-5.53470206569e-09
-1.20238016733e-08
-7.22956059686e-10
-5.82348166924e-09
-1.21683347835e-08
-2.65144306641e-10
-6.00018789794e-09
-1.22555581522e-08
2.20814418785e-10
-6.05999977371e-09
-1.22851469461e-08
6.7941080813e-10
-6.00068766682e-09
-1.22571041369e-08
1.05342095959e-09
-5.82448344599e-09
-1.21714343593e-08
1.28873926149e-09
-5.53617513584e-09
-1.20284311022e-08
1.33685547759e-09
-5.14351239011e-09
-1.18289894662e-08
1.15450972777e-09
-4.65736893366e-09
-1.15747660407e-08
7.05311621162e-10
-4.09152142746e-09
-1.12697174929e-08
-3.45877414988e-09
-2.4566652902e-11
-1.0976477883e-08
-1.89663282464e-11
5.73225582823e-10
-4.23828366304e-10
-2.48194794443e-13
-3.19158544949e-11
6.33484548804e-10
-4.6977528286e-10
-3.76959582542e-11
6.91644850332e-10
-5.12072682329e-10
-3.72802033605e-11
7.45790046058e-10
-5.4937440403e-10
-3.10590159852e-11
7.91553503885e-10
-5.80178417691e-10
-2.02157255372e-11
8.26410852776e-10
-6.03235365324e-10
-6.3777702041e-12
8.48518820314e-10
-6.17743553765e-10
8.48727377985e-12
8.56487610762e-10
-6.22980207994e-10
2.22659692885e-11
8.48659642832e-10
-6.17778816419e-10
3.30121158808e-11
8.26721359185e-10
-6.03303743679e-10
3.91399523536e-11
7.92042641851e-10
-5.80276569422e-10
3.94901190109e-11
7.46423417544e-10
-5.49499079051e-10
3.36512717121e-11
6.92291455135e-10
-5.1222330218e-10
2.05665429228e-11
6.34011908978e-10
-4.69961743769e-10
5.73550976431e-10
-4.24090610809e-10
1.00989091138e-12
-3.72558664795e-11
1.61832608201e-09
-1.09085666786e-09
2.71719318679e-13
-6.26821659489e-11
1.76811160789e-09
-1.20572687281e-09
-7.47472585369e-11
1.91083413784e-09
-1.31048337899e-09
-7.38137461658e-11
2.04151881834e-09
-1.40206210765e-09
-6.11234526342e-11
2.15132191344e-09
-1.47716499144e-09
-3.91398125876e-11
2.23446520898e-09
-1.53309577389e-09
-1.11899336962e-11
2.28706889606e-09
-1.56818178028e-09
1.87842821144e-11
2.30610768079e-09
-1.58083249001e-09
4.65032931902e-11
2.28750343818e-09
-1.56828145915e-09
6.80494020468e-11
2.23540962068e-09
-1.53329146446e-09
8.01389318673e-11
2.15282746161e-09
-1.47744783766e-09
8.0400984999e-11
2.04345367299e-09
-1.40242326176e-09
6.7591290104e-11
1.91283801621e-09
-1.31092069475e-09
4.13304169629e-11
1.76967505966e-09
-1.20626618059e-09
1.61910657636e-09
-1.09158348681e-09
3.33887358793e-12
-3.99498998064e-11
2.70770873327e-09
-1.65812284021e-09
-8.0341941313e-13
-6.8374797374e-11
2.92556658169e-09
-1.83398771266e-09
-8.29535499129e-11
3.13036544502e-09
-1.99384186153e-09
-8.26061864448e-11
3.31429097499e-09
-2.1331343873e-09
-6.87014645885e-11
3.46729251696e-09
-2.24705270002e-09
-4.40053071284e-11
3.58218906313e-09
-2.33170247906e-09
-1.23744436396e-11
3.65462351862e-09
-2.38468149809e-09
2.16663300973e-11
3.68090545629e-09
-2.40370985711e-09
5.31335654186e-11
3.6551340597e-09
-2.38480638343e-09
7.75392271111e-11
3.58328185771e-09
-2.33194915933e-09
9.10871513377e-11
3.46900636408e-09
-2.24741388418e-09
9.10464485186e-11
3.31644251449e-09
-2.13360543389e-09
7.59607330593e-11
3.1325359117e-09
-1.99442873093e-09
4.67017610069e-11
2.92717148552e-09
-1.83473446851e-09
2.70838193372e-09
-1.6591493258e-09
4.64987845018e-12
-3.34689216607e-11
3.60227371762e-09
-2.15956496284e-09
-1.54616627116e-12
-5.84260904238e-11
3.84719978654e-09
-2.39288448343e-09
-7.23638558172e-11
4.07455197219e-09
-2.60464032125e-09
-7.28874265509e-11
4.27442316646e-09
-2.78884822142e-09
-6.08524714466e-11
4.43865677963e-09
-2.93926604515e-09
-3.86942051458e-11
4.56082287752e-09
-3.05088669735e-09
-9.97989607859e-12
4.63755036542e-09
-3.12061777469e-09
2.1063464076e-11
4.66553051126e-09
-3.14556714738e-09
4.96651566029e-11
4.63802509748e-09
-3.12076591326e-09
7.16308270168e-11
4.5618337419e-09
-3.05118071752e-09
8.34453384137e-11
4.44023485989e-09
-2.93969919676e-09
8.26640698051e-11
4.2763804921e-09
-2.7894176725e-09
6.8290961839e-11
4.07646982654e-09
-2.6053554327e-09
4.24311288857e-11
3.84849694822e-09
-2.39379650276e-09
3.60255597739e-09
-2.16080726018e-09
5.87227733251e-12
-2.15322713225e-11
4.19108056183e-09
-2.59269909295e-09
-2.02199064624e-12
-3.99141760662e-11
4.42483900708e-09
-2.87955000726e-09
-5.16822518841e-11
4.63911173783e-09
-3.13964075778e-09
-5.33669463579e-11
4.82295680418e-09
-3.36565256105e-09
-4.49414955611e-11
4.97187279182e-09
-3.5500163111e-09
-2.81320661272e-11
5.08148703513e-09
-3.68669652059e-09
-5.78492832879e-12
5.15013158479e-09
-3.77194630166e-09
1.85823122014e-11
5.17538135721e-09
-3.80233288416e-09
4.08514047161e-11
5.15051736121e-09
-3.77211841242e-09
5.75251354048e-11
5.0823020022e-09
-3.68703847448e-09
6.57842154691e-11
4.97311797108e-09
-3.55052010153e-09
6.38640004613e-11
4.82446589182e-09
-3.36631383341e-09
5.1624227475e-11
4.64051551107e-09
-3.14046687607e-09
3.2232693331e-11
4.425664588e-09
-2.88059142381e-09
4.19097774177e-09
-2.59408968674e-09
6.96254291423e-12
-6.97537689287e-12
4.4625457702e-09
-2.95640457772e-09
-2.30712919409e-12
-1.77640381422e-11
4.66069959247e-09
-3.29279791242e-09
-2.67774964252e-11
4.83976159725e-09
-3.59763075071e-09
-2.9760171574e-11
4.98913844495e-09
-3.86235232713e-09
-2.56976828472e-11
5.10811051207e-09
-4.07815920462e-09
-1.54385613899e-11
5.19467115289e-09
-4.23804905939e-09
-9.36523689356e-13
5.24877712084e-09
-4.33763421452e-09
1.51783233582e-11
5.26896567611e-09
-4.37299516685e-09
2.96254744264e-11
5.24907716675e-09
-4.33783257571e-09
3.97772595539e-11
5.19530300893e-09
-4.23844244495e-09
4.36860372066e-11
5.10906906808e-09
-4.07873628129e-09
4.04410594505e-11
4.99028155475e-09
-3.86310368994e-09
3.08891890365e-11
4.84077974084e-09
-3.59855674291e-09
1.89977570612e-11
4.66120074477e-09
-3.29394304524e-09
4.46219304124e-09
-2.95789676494e-09
7.8825737225e-12
8.13037015744e-12
4.4627361558e-09
-3.25077370602e-09
-2.46011951807e-12
4.94103598849e-12
4.61608137483e-09
-3.63282631839e-09
-1.12911430544e-12
4.751662224e-09
-3.97893961615e-09
-5.33938661575e-12
4.86079502166e-09
-4.27941546244e-09
-5.75204754158e-12
4.94578106209e-09
-4.52429448494e-09
-2.31960489982e-12
5.00671143397e-09
-4.70565409387e-09
3.9511447033e-12
5.04477499953e-09
-4.81846450276e-09
1.13824812233e-11
5.05930993116e-09
-4.85836437382e-09
1.76142101237e-11
5.04499177521e-09
-4.81869234472e-09
2.09537213328e-11
5.00716800953e-09
-4.7061028799e-09
2.03786807012e-11
4.94646895171e-09
-4.52494856567e-09
1.5860954459e-11
4.86160409451e-09
-4.28025730918e-09
9.18130359157e-12
4.75236733487e-09
-3.97996096043e-09
4.82190771005e-12
4.61638780252e-09
-3.63406410363e-09
4.46237209612e-09
-3.25233845203e-09
8.61403570439e-12
2.24551383139e-11
4.25967798117e-09
-3.47649472832e-09
-2.51159952251e-12
2.65041244895e-11
4.36992531218e-09
-3.90038344705e-09
2.34201768331e-11
4.4633460017e-09
-4.28434418578e-09
1.81980914739e-11
4.53473199627e-09
-4.61763923726e-09
1.3551406845e-11
4.58837485359e-09
-4.88923632868e-09
1.03681395111e-11
4.62595449475e-09
-5.09033369548e-09
8.58369377121e-12
4.64945333438e-09
-5.21526484668e-09
7.48478831787e-12
4.65879795119e-09
-5.25927267508e-09
5.67031319311e-12
4.64961431802e-09
-5.21552899903e-09
2.397686768e-12
4.6262983065e-09
-5.09084979652e-09
-2.43049541928e-12
4.58889620426e-09
-4.88998048345e-09
-8.00251196294e-12
4.53535594969e-09
-4.6185819534e-09
-1.17531027368e-11
4.46390618327e-09
-4.28546112807e-09
-8.90430133939e-12
4.37021325488e-09
-3.90170063135e-09
4.25946339821e-09
-3.4781109554e-09
9.1515194425e-12
3.51989802962e-11
3.92085622014e-09
-3.63422007395e-09
-2.49994704757e-12
4.60490888882e-11
3.99558472467e-09
-4.09601677281e-09
4.5961049999e-11
4.05325688616e-09
-4.5142577556e-09
4.00319030174e-11
4.09339655518e-09
-4.87728961263e-09
3.15635146401e-11
4.12137513489e-09
-5.17310255862e-09
2.22171267127e-11
4.13999875158e-09
-5.39208317006e-09
1.28373486611e-11
4.1516846033e-09
-5.52794943217e-09
3.66282343682e-12
4.15675793195e-09
-5.57560399681e-09
-5.74367614049e-12
4.15180084915e-09
-5.52824822143e-09
-1.51857031156e-11
4.14025061414e-09
-5.39266085423e-09
-2.38605851364e-11
4.12176506789e-09
-5.17392814878e-09
-3.01826583686e-11
4.09388691198e-09
-4.87832312069e-09
-3.09793592298e-11
4.05375088713e-09
-4.51545990781e-09
-2.1341468962e-11
3.99595302949e-09
-4.09740315759e-09
3.92096916009e-09
-3.63587573531e-09
9.51414831938e-12
4.60007366354e-11
3.50291158635e-09
-3.72422691892e-09
-2.44136334344e-12
6.31867190046e-11
3.55138400121e-09
-4.21972733181e-09
6.60841073845e-11
3.58140691882e-09
-4.66841553102e-09
5.97749321684e-11
3.59791794184e-09
-5.05786057011e-09
4.79716599825e-11
3.60671742397e-09
-5.37517327677e-09
3.30342533165e-11
3.61130257091e-09
-5.6100079704e-09
1.66656919454e-11
3.61422493928e-09
-5.75550767547e-09
3.06532882244e-14
3.61607482692e-09
-5.80630632495e-09
-1.63687094606e-11
3.61431106293e-09
-5.75583882117e-09
-3.1416888547e-11
3.61149377567e-09
-5.61064618584e-09
-4.34548185324e-11
3.60703212438e-09
-5.3760804579e-09
-5.01946239482e-11
3.59834827424e-09
-5.05898424251e-09
-4.80366207177e-11
3.58191396757e-09
-4.66970081655e-09
-3.20527003097e-11
3.55191265417e-09
-4.22117976143e-09
3.50341486321e-09
-3.72591620049e-09
9.71843836151e-12
5.47923146668e-11
3.04879228105e-09
-3.74637537277e-09
-2.3712108924e-12
7.78204019271e-11
3.07958402026e-09
-4.27102414837e-09
8.36800899567e-11
3.08982489259e-09
-4.74606763045e-09
7.73106510644e-11
3.0899569572e-09
-5.15838800076e-09
6.26746947208e-11
3.08575788335e-09
-5.49429595651e-09
4.2754107411e-11
3.08095662678e-09
-5.74280448778e-09
2.00683584642e-11
3.07801712599e-09
-5.89653894476e-09
-3.34358120815e-12
3.07764092282e-09
-5.94994674172e-09
-2.60706535725e-11
3.07808383853e-09
-5.89690120087e-09
-4.61216533958e-11
3.0811134808e-09
-5.74350208361e-09
-6.10247727902e-11
3.08603178013e-09
-5.49528343974e-09
-6.78596012092e-11
3.09037742683e-09
-5.15960070266e-09
-6.27621292831e-11
3.09040482788e-09
-4.74743502653e-09
-4.09228349906e-11
3.08033386141e-09
-4.27254229303e-09
3.04977559743e-09
-3.74809697342e-09
9.7938296829e-12
6.16893526071e-11
2.58904584539e-09
-3.70023220662e-09
-2.30160074581e-12
9.00783400571e-11
2.60875913481e-09
-4.2491850305e-09
9.89006538067e-11
2.60589754873e-09
-4.746385818e-09
9.27592291698e-11
2.59597842735e-09
-5.17795620598e-09
7.57402495991e-11
2.58428065903e-09
-5.52945781961e-09
5.14193022084e-11
2.57427867739e-09
-5.78937427123e-09
2.30706882057e-11
2.56805827259e-09
-5.94988919154e-09
-6.4316800677e-12
2.56637830689e-09
-6.00535384817e-09
-3.48353563023e-11
2.56811975849e-09
-5.95028080954e-09
-5.93132472468e-11
2.57442689048e-09
-5.79012843741e-09
-7.66302438863e-11
2.58456287438e-09
-5.53052303246e-09
-8.32699239767e-11
2.59644460148e-09
-5.17925676922e-09
-7.52294820563e-11
2.6066075591e-09
-4.74783553734e-09
-4.80087162844e-11
2.60978666564e-09
-4.25076980998e-09
2.59052999504e-09
-3.70198738575e-09
9.75165842726e-12
6.6944109785e-11
2.14408010116e-09
-3.5852280986e-09
-2.27530544166e-12
1.00466445398e-10
2.15674716625e-09
-4.153649918e-09
1.12331027225e-10
2.14616896808e-09
-4.6689852734e-09
1.06588258206e-10
2.13170150331e-09
-5.11623259853e-09
8.7486758702e-11
2.11734158597e-09
-5.48030869054e-09
5.91915187662e-11
2.10574926329e-09
-5.74933812382e-09
2.57449768979e-11
2.09853791139e-09
-5.9151610649e-09
-9.26946031525e-12
2.09632922745e-09
-5.9721262474e-09
-4.27891208799e-11
2.0986124567e-09
-5.91557877936e-09
-7.12665890426e-11
2.10592970166e-09
-5.75014364233e-09
-9.07032112372e-11
2.117674727e-09
-5.4814469064e-09
-9.69758730097e-11
2.13227143791e-09
-5.1176193785e-09
-8.59077485646e-11
2.14708584986e-09
-4.67051853008e-09
-5.35413696978e-11
2.15812965009e-09
-4.15530042703e-09
2.14614544187e-09
-3.5870122397e-09
9.59073249901e-12
7.11861238547e-11
1.72647794833e-09
-3.40078234339e-09
-2.30826941523e-12
1.10264721505e-10
1.733276447e-09
-3.98471136074e-09
1.25253560458e-10
1.71980156091e-09
-4.51459147303e-09
1.19745272599e-10
1.70580550788e-09
-4.97397577471e-09
9.85060499808e-11
1.69298327198e-09
-5.34757339423e-09
6.64325840271e-11
1.68290845223e-09
-5.62339762207e-09
2.81882376008e-11
1.67657492172e-09
-5.79304957247e-09
-1.1936175448e-11
1.67455432608e-09
-5.85096066535e-09
-5.02730483786e-11
1.67669094556e-09
-5.79348758975e-09
-8.25673558572e-11
1.683173136e-09
-5.6242446926e-09
-1.04175823814e-10
1.6934531396e-09
-5.34877460824e-09
-1.10240398577e-10
1.70657066278e-09
-4.97544396455e-09
-9.60593026048e-11
1.72098740167e-09
-4.51621056833e-09
-5.81078043956e-11
1.73508702337e-09
-3.98642408548e-09
1.72919507276e-09
-3.40257485231e-09
9.29195409948e-12
7.29856687532e-11
-3.14808580634e-09
-2.42408414697e-12
1.34755634524e-09
1.20949835228e-10
-3.74646831629e-09
1.34257825114e-09
1.38965645549e-10
-4.28659356335e-09
1.3330569765e-09
1.33201609052e-10
-4.75390955142e-09
1.32373846185e-09
1.09569059869e-10
-5.13351683875e-09
1.31531396621e-09
7.3608709477e-11
-5.41352309365e-09
1.3087943749e-09
3.05986013999e-11
-5.58536134381e-09
1.30467476925e-09
-1.46349705203e-11
-5.64361358399e-09
1.30331077814e-09
-5.77586209894e-11
-5.58580836445e-09
1.30487949203e-09
-9.39788979441e-11
-5.41439080081e-09
1.30922084896e-09
-1.18026225045e-10
-5.13475469764e-09
1.31601488126e-09
-1.24387124093e-10
-4.75543617465e-09
1.32479040824e-09
-1.07161491581e-10
-4.28828611724e-09
1.33461774609e-09
-6.0261984659e-11
-3.74826135903e-09
1.34486899259e-09
-3.14980242018e-09
8.82834270044e-12
1.35108022431e-09
1.06787190938e-11
-1.39514040568e-10
-2.95094679996e-10
-4.04388733747e-13
1.64681760036e-11
-1.55394427169e-10
-3.20826225978e-10
1.89009389839e-11
-1.71876248196e-10
-3.43362930482e-10
1.83564559316e-11
-1.86969775591e-10
-3.6251296494e-10
1.51599564782e-11
-1.99722038953e-10
-3.7787279859e-10
9.88331574461e-12
-2.09353098571e-10
-3.89126321167e-10
3.27540285622e-12
-2.15384533178e-10
-3.96133548451e-10
-3.7939920181e-12
-2.17485770974e-10
-3.98689090113e-10
-1.0350155984e-11
-2.15252364951e-10
-3.96154551107e-10
-1.55207435265e-11
-2.09104212855e-10
-3.89169148715e-10
-1.85757484147e-11
-1.99397329492e-10
-3.77938315216e-10
-1.89689828672e-11
-1.86606450683e-10
-3.62602901835e-10
-1.63605570165e-11
-1.7144516404e-10
-3.43481666311e-10
-1.04342063042e-11
-1.549904632e-10
-3.20988903461e-10
-1.39209953959e-10
-2.95346300775e-10
-5.45437650552e-14
2.4832294335e-11
-3.09416309786e-10
-9.45210028137e-10
-1.43779712763e-12
3.91985609859e-11
-3.40562735252e-10
-1.03609253671e-09
4.54114232021e-11
-3.72427793991e-10
-1.11741427178e-09
4.42137700922e-11
-4.01426707786e-10
-1.18756033665e-09
3.64650651433e-11
-4.25655003941e-10
-1.24450396764e-09
2.36024765225e-11
-4.43820697748e-10
-1.28659685984e-09
7.47751709613e-12
-4.55163344034e-10
-1.31288530093e-09
-9.76039994786e-12
-4.59132642876e-10
-1.32237470456e-09
-2.57166127204e-11
-4.54933674095e-10
-1.31294643748e-09
-3.8227240769e-11
-4.43395712607e-10
-1.28672094406e-09
-4.54661056457e-11
-4.25104916167e-10
-1.24469302671e-09
-4.60534116858e-11
-4.00794820045e-10
-1.18781878609e-09
-3.91340926966e-11
-3.71689066181e-10
-1.11775415653e-09
-2.41299814264e-11
-3.39852176257e-10
-1.0365554002e-09
-3.08840057462e-10
-9.45896388713e-10
-3.2117064189e-13
3.24473717334e-11
-4.44190710194e-10
-1.55518052003e-09
-1.35354909947e-12
5.26753846236e-11
-4.84265169316e-10
-1.71140348674e-09
6.18899510542e-11
-5.24539429288e-10
-1.85187795265e-09
6.07269440439e-11
-5.60929113833e-10
-1.97337426233e-09
5.03940110225e-11
-5.91014620848e-10
-2.07218610812e-09
3.28873612741e-11
-6.13384697804e-10
-2.14531630746e-09
1.07944053068e-11
-6.27287633881e-10
-2.19097348009e-09
-1.28750197925e-11
-6.3215307584e-10
-2.20738301009e-09
-3.48031240473e-11
-6.26985275252e-10
-2.19108885126e-09
-5.19793962747e-11
-6.12824286423e-10
-2.145547507e-09
-6.18522385797e-11
-5.90284551033e-10
-2.07253156649e-09
-6.2477808014e-11
-5.60093700033e-10
-1.97383442861e-09
-5.26668519986e-11
-5.23606723832e-10
-1.85246380682e-09
-3.18840715437e-11
-4.83334485796e-10
-1.71216710405e-09
-4.43372676157e-10
-1.55625292303e-09
-3.69568527786e-13
3.59501348661e-11
-5.44452137606e-10
-2.0946703574e-09
-1.25687796743e-12
5.93225973209e-11
-5.89010777633e-10
-2.31237911174e-09
7.03395986344e-11
-6.32638345043e-10
-2.50849926585e-09
6.93544358266e-11
-6.71437967296e-10
-2.67824357423e-09
5.7730194122e-11
-7.03097174407e-10
-2.81633814238e-09
3.77790646407e-11
-7.26400612393e-10
-2.91854598775e-09
1.25040929535e-11
-7.40805936808e-10
-2.98229510349e-09
-1.4603715577e-11
-7.45833835494e-10
-3.00511781525e-09
-3.97193548443e-11
-7.40426888124e-10
-2.98245986834e-09
-5.93601395814e-11
-7.25685819064e-10
-2.9188738276e-09
-7.05599090406e-11
-7.02126634067e-10
-2.81682345315e-09
-7.1051713004e-11
-6.702866385e-10
-2.67888191767e-09
-5.94948364637e-11
-6.31359016606e-10
-2.50929749453e-09
-3.56080977974e-11
-5.8775220681e-10
-2.31339022308e-09
-5.43382309062e-10
-2.09603471711e-09
-4.82770441015e-13
3.65311528758e-11
-6.10700509859e-10
-2.56236684922e-09
-1.18624509376e-12
6.09708806176e-11
-6.56100924959e-10
-2.83752887147e-09
7.27769797239e-11
-6.99141474758e-10
-3.08561599545e-09
7.20066488037e-11
-7.3660332e-10
-3.30037686147e-09
6.00411400704e-11
-7.66657130484e-10
-3.47508418378e-09