/*--------------------------------*- C++ -*----------------------------------*\
  =========                 |
  \\      /  F ield         | OpenFOAM: The Open Source CFD Toolbox
   \\    /   O peration     | Website:  https://openfoam.org
    \\  /    A nd           | Version:  7
     \\/     M anipulation  |
\*---------------------------------------------------------------------------*/
FoamFile
{
    version     2.0;
    format      ascii;
    class       volVectorField;
    location    "2";
    object      U;
}
// * * * * * * * * * * * * * * * * * * * * * * * * * * * * * * * * * * * * * //

dimensions      [0 1 -1 0 0 0 0];

internalField   nonuniform List<vector> 
22500
(
(-2.55152394746e-05 -2.91468986501e-05 0.00013149996025)
(-2.32670857246e-05 -3.35506181993e-05 0.000140149890946)
(-2.03321697899e-05 -3.76481679483e-05 0.00014956079514)
(-1.69306918515e-05 -4.11487370554e-05 0.000158616826499)
(-1.30922965057e-05 -4.39777540165e-05 0.000166487528253)
(-8.95468481252e-06 -4.6050269426e-05 0.000172535913406)
(-4.60997258218e-06 -4.73192891961e-05 0.000176317641606)
(-1.56529601643e-07 -4.77568326827e-05 0.000177577185993)
(4.30065069496e-06 -4.73506596468e-05 0.000176237996759)
(8.65689149308e-06 -4.61116093524e-05 0.000172375456482)
(1.28135323699e-05 -4.40660679948e-05 0.000166245382233)
(1.66773671408e-05 -4.1259005856e-05 0.000158292020548)
(2.01096038426e-05 -3.77742746284e-05 0.000149150229678)
(2.30746238918e-05 -3.36864544139e-05 0.000139646374937)
(2.53637493819e-05 -2.92778854887e-05 0.000130901265322)
(-7.75563845612e-05 -8.79200646512e-05 0.000123081850046)
(-7.06941460207e-05 -0.000100999299093 0.00012086830158)
(-6.18478725128e-05 -0.000113231003212 0.000122079803365)
(-5.15092837487e-05 -0.000123688803695 0.000125014015964)
(-3.98565467105e-05 -0.000132133008024 0.000128384860022)
(-2.72635589098e-05 -0.000138320817263 0.000131287952565)
(-1.40277841252e-05 -0.000142111376004 0.000133162191303)
(-4.57572928305e-07 -0.000143416595878 0.000133725759588)
(1.31237183063e-05 -0.000142200767122 0.000132929294739)
(2.63934881789e-05 -0.000138494802502 0.000130817915718)
(3.90435217939e-05 -0.000132381463901 0.00012767419702)
(5.07744446738e-05 -0.00012399648735 0.000124058621988)
(6.1209211092e-05 -0.000113578186375 0.00012086867669)
(7.0158404203e-05 -0.000101367703811 0.000119377578433)
(7.71472229834e-05 -8.82755000667e-05 0.000121299414029)
(-0.000129243878636 -0.000145329814048 -0.000146530391572)
(-0.000117602971609 -0.000166607695084 -0.000182793732981)
(-0.00010290296503 -0.000186386893619 -0.0002117557453)
(-8.56771017646e-05 -0.000203305057673 -0.000234457642868)
(-6.62900857197e-05 -0.000216957895724 -0.000251737772951)
(-4.53117562681e-05 -0.000226967905575 -0.000264043802611)
(-2.32436367788e-05 -0.000233099618625 -0.000271521099861)
(-6.10887095117e-07 -0.000235203437757 -0.000274156984779)
(2.20343807881e-05 -0.000233221250981 -0.000271874292158)
(4.4140826399e-05 -0.00022720637288 -0.000264759531893)
(6.51834780712e-05 -0.000217302371904 -0.000252824596751)
(8.46591129665e-05 -0.000203738250489 -0.000235925729623)
(0.000101995978868 -0.000186885745225 -0.000213626405066)
(0.000116820953495 -0.000167149385805 -0.000185111319847)
(0.000128623141771 -0.000145868742403 -0.000149329124876)
(-0.000177386617087 -0.000198304030028 -0.000612303052858)
(-0.000161099211514 -0.000226477029801 -0.000691722211701)
(-0.000140849776769 -0.000252399844055 -0.00075836682598)
(-0.000117167012354 -0.000274550177417 -0.000812623114148)
(-9.06056932471e-05 -0.000292403371865 -0.000854937124915)
(-6.18807771989e-05 -0.000305492253584 -0.000885416635558)
(-3.16681091451e-05 -0.000313507815722 -0.000903929983811)
(-6.84819134309e-07 -0.000316249643375 -0.000910286776143)
(3.03105285637e-05 -0.000313641844896 -0.000904346090187)
(6.05601763955e-05 -0.000305756124194 -0.000886265319001)
(8.93476388907e-05 -0.000292787031584 -0.000856235748088)
(0.00011599646116 -0.000275037309051 -0.000814393579139)
(0.000139791174646 -0.000252967911084 -0.000760646621799)
(0.000160172664615 -0.000227103602325 -0.000694582702385)
(0.000176632822225 -0.000198943310876 -0.000615816691933)
(-0.000219779126268 -0.000244706048378 -0.00118530917708)
(-0.000199201090043 -0.000278056179864 -0.00130301435019)
(-0.000173895203299 -0.000308394431693 -0.0014014036497)
(-0.000144453413062 -0.000334276708559 -0.00148116132899)
(-0.000111597062247 -0.000355112047141 -0.00154300529852)
(-7.61384559057e-05 -0.000370387198115 -0.00158726402086)
(-3.88836108998e-05 -0.000379740235618 -0.00161396982834)
(-6.97463518993e-07 -0.000382931946946 -0.00162304591543)
(3.74994414675e-05 -0.000379873225704 -0.00161440364189)
(7.47873702461e-05 -0.000370649817097 -0.00158815462594)
(0.000110302393301 -0.000355495652635 -0.00154437915871)
(0.000143238756476 -0.000334767075251 -0.00148305316577)
(0.000172784546488 -0.000308971709834 -0.00140386796444)
(0.000198217714065 -0.000278700648885 -0.00130614949298)
(0.000218962142745 -0.00024537900486 -0.00118923153458)
(-0.000255437442665 -0.000283668867537 -0.00178502399782)
(-0.000231062940875 -0.000320431783537 -0.00192858918502)
(-0.00020131585512 -0.000353529357238 -0.00204655871372)
(-0.00016695417229 -0.000381720059885 -0.00214094265447)
(-0.000128823336753 -0.000404397422401 -0.00221331992385)
(-8.7793301867e-05 -0.000421029865502 -0.00226464862095)
(-4.47559294629e-05 -0.000431215840488 -0.00229540382272)
(-6.76564663449e-07 -0.000434685852308 -0.00230578972918)
(4.34122469646e-05 -0.000431340607046 -0.00229583181379)
(8.64786629806e-05 -0.000421276759789 -0.00226553174119)
(0.00012755841917 -0.000404759174545 -0.00221469110078)
(0.000165760346834 -0.000382184638555 -0.00214284611257)
(0.000200215161295 -0.000354080067449 -0.00204906159548)
(0.000230079363123 -0.000321052139716 -0.00193181081915)
(0.000254605339321 -0.000284330767582 -0.00178911996845)
(-0.000284213107469 -0.000315127966206 -0.00235667717198)
(-0.000256593007381 -0.000353673214952 -0.00251298384513)
(-0.000223075563083 -0.000388097682132 -0.00263890064413)
(-0.000184676392137 -0.000417370702501 -0.00273826016952)
(-0.000142312858779 -0.000440917059867 -0.00281365408962)
(-9.68796955552e-05 -0.000458201968435 -0.00286670085247)
(-4.93160009056e-05 -0.000468793166698 -0.00289830623216)
(-6.45205038858e-07 -0.000472397319211 -0.00290893647882)
(4.8034100103e-05 -0.000468907464632 -0.00289872257165)
(9.56239052315e-05 -0.000458428406584 -0.00286756236082)
(0.000141101678837 -0.000441249312087 -0.00281499671604)
(0.000183528980912 -0.000417798408917 -0.00274013273703)
(0.000222011435998 -0.00038860682963 -0.00264137647556)
(0.000255635330775 -0.000354250138954 -0.00251619507802)
(0.000283390984997 -0.00031575522606 -0.0023608080637)
(-0.000306446105226 -0.000339457705437 -0.00287273784536)
(-0.000276128326718 -0.000378339853215 -0.00303189259121)
(-0.000239515483119 -0.000412884993038 -0.00315786512143)
(-0.000197939343939 -0.000442208454179 -0.003256208877)
(-0.000152335427968 -0.000465808031298 -0.00333028946124)
(-0.000103594930481 -0.000483154075389 -0.00338214895174)
(-5.26731287754e-05 -0.000493791240656 -0.00341294029609)
(-6.17187054679e-07 -0.000497409113224 -0.00342327568544)
(5.14467539673e-05 -0.000493895689364 -0.00341334881531)
(0.000102393025322 -0.000483361038643 -0.0033829948337)
(0.000151175068869 -0.000466111732396 -0.00333160897625)
(0.000196837961381 -0.000442599555359 -0.00325805126876)
(0.000238490332018 -0.000413351353383 -0.00316030421201)
(0.000275201086035 -0.000378869649477 -0.00303506640833)
(0.00030564134485 -0.000340042351709 -0.00287684794818)
(-0.00032268649281 -0.000357209618769 -0.00332564856804)
(-0.000290184059923 -0.000395152768428 -0.00348184653821)
(-0.000251125373368 -0.00042878157741 -0.00360391836372)
(-0.000207176750016 -0.000457272273148 -0.00369867720195)
(-0.000159243291538 -0.00048022763695 -0.00376984582828)
(-0.000108187755565 -0.000497127396897 -0.00381957992715)
(-5.49581091117e-05 -0.000507500880762 -0.0038490750382)
(-5.98416212003e-07 -0.000511028744942 -0.00385897123403)
(5.37690738448e-05 -0.000507597051736 -0.00384948282765)
(0.000107022504269 -0.00049731785318 -0.0038204235935)
(0.000158118146351 -0.00048050691752 -0.0037711604907)
(0.000206107955665 -0.000457631625709 -0.00370050995061)
(0.00025012844221 -0.000429210040649 -0.00360633986492)
(0.000289279085852 -0.000395639785895 -0.00348499665993)
(0.000321895069696 -0.00035775255517 -0.00332973704086)
(-0.000333512531676 -0.00036894944116 -0.0037189609861)
(-0.000299293805053 -0.000404809810053 -0.00386964785878)
(-0.000258405671344 -0.000436592183981 -0.00398664509826)
(-0.000212823519929 -0.000463473371753 -0.00407745286065)
(-0.000163382799798 -0.000485172608143 -0.00414573103926)
(-0.000110898057452 -0.000501178090587 -0.0041934939366)
(-5.62938883911e-05 -0.00051101251915 -0.00422183666855)
(-5.90102080618e-07 -0.000514357672486 -0.00423135262414)
(5.51214601829e-05 -0.000511101915664 -0.00422225070466)
(0.000109749269815 -0.000501355028007 -0.00419434924547)
(0.000162273643061 -0.000485431853312 -0.00414706113318)
(0.000211769566394 -0.000463806659198 -0.00407930151238)
(0.000257421261127 -0.000436989290043 -0.00398907795691)
(0.000298397680226 -0.00040526114161 -0.00387280531378)
(0.000332724598898 -0.000369455652414 -0.00372305578441)
(-0.000339445414694 -0.000375188550149 -0.0040605148981)
(-0.000303940224037 -0.000407911907616 -0.00420511189168)
(-0.000261812631323 -0.000436984695325 -0.00431737767146)
(-0.000215273166136 -0.000461565653888 -0.00440492654954)
(-0.000165061613708 -0.000481465582057 -0.00447101505326)
(-0.000111935090121 -0.000496173948541 -0.00451736500702)
(-5.67856710807e-05 -0.000505218470267 -0.00454490893241)
(-5.91211294359e-07 -0.000508295857153 -0.00455416742491)
(5.56110511052e-05 -0.000505302067813 -0.00454533471798)
(0.000110784173465 -0.000496339376989 -0.00451824324545)
(0.000163950259206 -0.000481707960536 -0.00447237792052)
(0.000214216590466 -0.000461877209146 -0.00440681433526)
(0.000260824527283 -0.000437355892544 -0.0043198501223)
(0.000303038232191 -0.000408334095087 -0.00420831003341)
(0.000338648966775 -0.000375663568835 -0.00406465425009)
(-0.000340915493742 -0.000376349128331 -0.00435835127563)
(-0.000304543750994 -0.000404939374664 -0.00449724555789)
(-0.000261756375883 -0.000430511008112 -0.00460578409519)
(-0.000214874656323 -0.000452194701777 -0.00469109620934)
(-0.000164544238593 -0.00046981711805 -0.00475581265447)
(-0.000111474125215 -0.00048286168343 -0.00480132485467)
(-5.65199727784e-05 -0.000490883494536 -0.00482840962886)
(-5.99986577023e-07 -0.000493613172611 -0.00483752427032)
(5.53278153032e-05 -0.000490961697954 -0.0048288507519)
(0.000110305667574 -0.000483016533853 -0.00480223373026)
(0.000163415316349 -0.000470044149169 -0.00475722095941)
(0.000213800370983 -0.000452486894246 -0.00469304138577)
(0.000260750148655 -0.000430859631248 -0.00460831927686)
(0.000303622464337 -0.000405336838715 -0.00450051135607)
(0.000340098650715 -0.000376796947701 -0.00436256980753)
(-0.00033827222815 -0.000372666539883 -0.00461868893579)
(-0.000301523942328 -0.000396246965205 -0.00475280080735)
(-0.000258634720001 -0.000417671963187 -0.00485888915166)
(-0.00021193962915 -0.000435983212213 -0.00494294897628)
(-0.000162050354133 -0.000450910835316 -0.00500696370621)
(-0.000109655065119 -0.000461952067229 -0.00505206676156)
(-5.55645736146e-05 -0.000468730448822 -0.00507893120334)
(-6.14583894169e-07 -0.000471036462152 -0.00508797924834)
(5.43431465573e-05 -0.000468803143603 -0.00507938909979)
(0.000108457229898 -0.000462096117968 -0.00505300989423)
(0.000160891845406 -0.000451122496167 -0.00500842463042)
(0.000210835499373 -0.000436256369072 -0.00494496405733)
(0.000257598499696 -0.000417998977326 -0.00486150452371)
(0.000300572162877 -0.00039662179948 -0.00475615064668)
(0.000337425289637 -0.000373088629231 -0.00462300093328)
(-0.000332085476775 -0.000364304168297 -0.00484497761048)
(-0.000295503003808 -0.000382188062534 -0.00497621441632)
(-0.000252865546229 -0.000399021912679 -0.00508124658902)
(-0.000206733430428 -0.000413589874702 -0.00516480502091)
(-0.000157751373938 -0.0004254305529 -0.00522854913746)
(-0.000106586264222 -0.000434140321104 -0.00527349262645)
(-5.39729741092e-05 -0.000439464885072 -0.00530026517067)
(-6.33291413548e-07 -0.000441275102854 -0.00530928527492)
(5.27140647585e-05 -0.000439531591627 -0.00530073861558)
(0.000105350596499 -0.00043427276158 -0.00527446849811)
(0.000156554628746 -0.000425625736684 -0.00523006260684)
(0.000205590813781 -0.000413842828329 -0.00516689506854)
(0.000251790633242 -0.000399326675592 -0.00508395472727)
(0.000294512439238 -0.00038254045973 -0.00497965886177)
(0.000331198674358 -0.000364703051999 -0.00484936488313)
(-0.000323995039936 -0.000352916040379 -0.00503643302424)
(-0.000287574345543 -0.000363185307006 -0.00516970431599)
(-0.000245034090506 -0.000375314931278 -0.00527477594571)
(-0.000199723588598 -0.000385660665622 -0.00535841605642)
(-0.000152026592833 -0.000393951737146 -0.00542228162299)
(-0.000102546601361 -0.000399980836535 -0.00546731787424)
(-5.18929874501e-05 -0.000403642854239 -0.00549413066672)
(-6.54205974231e-07 -0.000404887870341 -0.00550315972181)
(5.05919521168e-05 -0.000403702706415 -0.00549461423678)
(0.000101268104729 -0.000400100250765 -0.00546831642395)
(0.000150786048498 -0.000394128698243 -0.00542383370715)
(0.000198536273743 -0.000385891883027 -0.00536056785188)
(0.000243914160745 -0.000375595952642 -0.00527757154592)
(0.000286541056367 -0.000363515595384 -0.00517328071614)
(0.000323059554237 -0.000353292568982 -0.00504078588282)
(1.15431270708e-06 1.87961022598e-06 -8.56204169373e-05)
(6.48054416446e-07 2.54412623143e-06 -8.89561578382e-05)
(2.41292040394e-07 2.98567949158e-06 -9.13880632242e-05)
(-8.50956149314e-09 3.24616726984e-06 -9.31535073903e-05)
(-1.41772120101e-07 3.39043899117e-06 -9.4398544734e-05)
(-1.56329486518e-07 3.45807488942e-06 -9.5220618865e-05)
(-8.55063476235e-08 3.48491346249e-06 -9.56889998371e-05)
(3.10270011809e-08 3.49396485504e-06 -9.58442232723e-05)
(1.4634019832e-07 3.49283777128e-06 -9.56884117939e-05)
(2.13658748575e-07 3.47393131461e-06 -9.52198298707e-05)
(1.94543985934e-07 3.41413307349e-06 -9.43987875961e-05)
(5.70846032693e-08 3.27693880207e-06 -9.31575928731e-05)
(-1.95917625037e-07 3.02266034404e-06 -9.14008123586e-05)
(-6.04586673215e-07 2.58498071558e-06 -8.89863641885e-05)
(-1.11746282942e-06 1.91788971471e-06 -8.56860754885e-05)
(8.81353065152e-06 1.1250048048e-05 -0.000282602401685)
(7.36140705498e-06 1.39765037266e-05 -0.000295283915472)
(5.86814414563e-06 1.62137564135e-05 -0.000305244163537)
(4.53882252897e-06 1.79327637764e-05 -0.000312973665946)
(3.29839143868e-06 1.92158817663e-05 -0.000318767424174)
(2.16924512091e-06 2.00958204213e-05 -0.00032280032883)
(1.11941858784e-06 2.06126383817e-05 -0.000325184475099)
(1.11760841847e-07 2.07903860813e-05 -0.000325979229948)
(-8.9990845262e-07 2.06363315594e-05 -0.000325180389383)
(-1.96167222724e-06 2.01423700067e-05 -0.000322793525383)
(-3.10916492791e-06 1.92830465697e-05 -0.000318762107999)
(-4.37168582223e-06 1.8016865931e-05 -0.000312978970489)
(-5.72375583024e-06 1.63086330507e-05 -0.000305275279491)
(-7.2383034033e-06 1.40754394313e-05 -0.00029536744747)
(-8.71729266217e-06 1.13398666541e-05 -0.000282784269391)
(1.97607283322e-05 2.39149631792e-05 -0.000501046374462)
(1.72865351795e-05 2.88365320027e-05 -0.000525010476542)
(1.44554982858e-05 3.3101074727e-05 -0.000544351176536)
(1.16352995114e-05 3.65353156549e-05 -0.000559694492239)
(8.75720389008e-06 3.91958315281e-05 -0.000571398455656)
(5.8812267219e-06 4.10817111461e-05 -0.000579657521419)
(3.00764683606e-06 4.22122031412e-05 -0.000584583379486)
(1.36566199533e-07 4.25988119099e-05 -0.000586228714713)
(-2.73798856271e-06 4.22446857747e-05 -0.000584581247561)
(-5.62176874153e-06 4.1146751651e-05 -0.000579655253452)
(-8.51270785396e-06 3.92926373199e-05 -0.000571402460271)
(-1.14074580079e-05 3.66603782952e-05 -0.000559718632934)
(-1.42439897595e-05 3.32476110594e-05 -0.000544418590874)
(-1.70911138649e-05 2.8993850636e-05 -0.000525161089648)
(-1.95939848107e-05 2.40632226665e-05 -0.000501347505279)
(3.13221640059e-05 3.70293984821e-05 -0.000737206229216)
(2.77312707473e-05 4.36762761809e-05 -0.000773677404717)
(2.34725171026e-05 4.95469567013e-05 -0.00080353277946)
(1.90570608672e-05 5.43208528133e-05 -0.000827483040385)
(1.4446966238e-05 5.80456760918e-05 -0.000845900978905)
(9.73919122916e-06 6.07011757312e-05 -0.000858974620204)
(4.9666678589e-06 6.22978756624e-05 -0.00086679955096)
(1.62787264997e-07 6.28421060197e-05 -0.00086941462869)
(-4.64385455259e-06 6.23355128108e-05 -0.000866801397223)
(-9.42445830258e-06 6.07768705554e-05 -0.000858980730772)
(-1.41438789317e-05 5.81592650377e-05 -0.000845919442115)
(-1.87665245026e-05 5.44692852512e-05 -0.000827531076414)
(-2.31944612545e-05 4.97234197377e-05 -0.000803639030955)
(-2.74675210943e-05 4.38689975157e-05 -0.000773890693077)
(-3.10899034003e-05 3.72158800605e-05 -0.000737608311266)
(4.14213613802e-05 4.82791122682e-05 -0.000986485305349)
(3.66634924682e-05 5.58730410211e-05 -0.00103598488237)
(3.10560508814e-05 6.25972601e-05 -0.00107681263909)
(2.51988447082e-05 6.80363822683e-05 -0.00110976479531)
(1.90932420762e-05 7.22611096541e-05 -0.00113521047606)
(1.28585685343e-05 7.52617640049e-05 -0.00115332395867)
(6.54249441618e-06 7.70610384463e-05 -0.00116418283078)
(1.87903130482e-07 7.7672813093e-05 -0.00116781288932)
(-6.16878447925e-06 7.71017440122e-05 -0.00116419219401)
(-1.24910735562e-05 7.53436796338e-05 -0.00115334509799)
(-1.8734910344e-05 7.23841397496e-05 -0.00113525210032)
(-2.4850699984e-05 6.81976884852e-05 -0.00110984537778)
(-3.07188574736e-05 6.27899924845e-05 -0.00107696297414)
(-3.63407763065e-05 5.60853982259e-05 -0.00103625834376)
(-4.11318383658e-05 4.84883638281e-05 -0.000986972424807)
(4.91047940015e-05 5.66228687612e-05 -0.00124477401881)
(4.32254920671e-05 6.44159886984e-05 -0.0013073905204)
(3.64816598674e-05 7.12652973572e-05 -0.00135926579415)
(2.94844424833e-05 7.67391633242e-05 -0.00140130002977)
(2.22699220104e-05 8.09493568641e-05 -0.00143384681875)
(1.49595156814e-05 8.39169235036e-05 -0.00145705769)
(7.59575647496e-06 8.56875390236e-05 -0.0014709872449)
(2.09086982507e-07 8.6288569649e-05 -0.00147564597655)
(-7.17909282035e-06 8.57296026507e-05 -0.00147100888217)
(-1.45475312285e-05 8.40015068468e-05 -0.00145710288307)
(-2.1865213118e-05 8.10762120213e-05 -0.00143392355256)
(-2.90884295626e-05 7.69055471262e-05 -0.00140142560094)
(-3.60959630392e-05 7.14645384312e-05 -0.00135946958318)
(-4.28547348852e-05 6.46369099183e-05 -0.00130772679559)
(-4.87674143338e-05 5.68438607714e-05 -0.00124533780014)
(5.41768919267e-05 6.18907971098e-05 -0.00150904668715)
(4.73238643651e-05 6.93242609822e-05 -0.00158468070862)
(3.97364923599e-05 7.57574971928e-05 -0.00164752825102)
(3.19569253964e-05 8.08227494341e-05 -0.00169860934276)
(2.4044797299e-05 8.46710041688e-05 -0.00173824853026)
(1.6105690607e-05 8.73587968659e-05 -0.00176656035721)
(8.16365589719e-06 8.8953434565e-05 -0.00178356708776)
(2.25113568957e-07 8.94944189526e-05 -0.00178925869341)
(-7.71442822614e-06 8.89954201939e-05 -0.00178360607091)
(-1.56598451202e-05 8.74431714896e-05 -0.00176663945361)
(-2.36047741943e-05 8.47974261592e-05 -0.00173837368617)
(-3.15246426823e-05 8.09885167534e-05 -0.0016987943837)
(-3.93143577654e-05 7.59563460471e-05 -0.00164779793573)
(-4.69170558325e-05 6.95457522008e-05 -0.00158508823173)
(-5.38018212742e-05 6.2115535367e-05 -0.00150968584557)
(5.68698330721e-05 6.44013452116e-05 -0.00177720741609)
(4.92635222267e-05 7.11307126298e-05 -0.00186564899992)
(4.11476366513e-05 7.68174912802e-05 -0.00193928792591)
(3.29311478607e-05 8.12233959656e-05 -0.00199928847436)
(2.46864560097e-05 8.45246621041e-05 -0.00204593478472)
(1.64922228845e-05 8.68077947275e-05 -0.00207929302958)
(8.34868346967e-06 8.81545657505e-05 -0.00209934670043)
(2.35919714514e-07 8.86117633504e-05 -0.00210606266948)
(-7.87742999545e-06 8.81952875206e-05 -0.00209940764104)
(-1.60233248503e-05 8.68896063193e-05 -0.00207941516179)
(-2.4222251e-05 8.46471311453e-05 -0.00204612110861)
(-3.24739169907e-05 8.13840021082e-05 -0.00199954752649)
(-4.07002937789e-05 7.70105365769e-05 -0.001939637577)
(-4.88314459854e-05 7.13467857648e-05 -0.00186613934772)
(-5.64668322742e-05 6.46236551773e-05 -0.00177792948678)
(5.76021211859e-05 6.46792585461e-05 -0.00204758144124)
(4.94913765351e-05 7.05342389358e-05 -0.0021484417025)
(4.11393237075e-05 7.53133337921e-05 -0.0022325080183)
(3.27818818756e-05 7.89524880136e-05 -0.0023011375307)
(2.44957847384e-05 8.16367820974e-05 -0.00235456719857)
(1.63290531099e-05 8.34733853011e-05 -0.00239281009459)
(8.25887118927e-06 8.4550386144e-05 -0.00241581221045)
(2.42299638512e-07 8.49167634547e-05 -0.00242352068382)
(-7.77454538642e-06 8.45889567347e-05 -0.00241590005001)
(-1.58463343641e-05 8.35508462291e-05 -0.00239298514789)
(-2.40169342809e-05 8.17526648052e-05 -0.00235482856555)
(-3.23094511937e-05 7.91045537955e-05 -0.00230148678617)
(-4.06764921539e-05 7.54965169096e-05 -0.00223295406003)
(-4.90434477084e-05 7.07401609294e-05 -0.00214902996333)
(-5.71798010637e-05 6.48943419508e-05 -0.00204840045668)
(5.68241732759e-05 6.32735922476e-05 -0.0023184084802)
(4.84491721098e-05 6.81998130328e-05 -0.00243099968999)
(4.01063198975e-05 7.20244822868e-05 -0.00252486275449)
(3.1841979338e-05 7.48790474792e-05 -0.00260160903151)
(2.37309012032e-05 7.69449659446e-05 -0.00266141669444)
(1.57921222914e-05 7.83407757432e-05 -0.00270424537555)
(7.98364682471e-06 7.91539071311e-05 -0.00273001188003)
(2.45244842225e-07 7.94316286543e-05 -0.00273865206028)
(-7.49323318356e-06 7.9189500839e-05 -0.00273013156358)
(-1.53028077532e-05 7.84122017154e-05 -0.00270448273035)
(-2.32448214119e-05 7.70518663175e-05 -0.00266176630729)
(-3.13617626708e-05 7.50195716024e-05 -0.00260206458722)
(-3.96352795281e-05 7.21943975444e-05 -0.00252542280757)
(-4.79923872278e-05 6.83919233377e-05 -0.00243170465943)
(-5.63894842353e-05 6.34775835317e-05 -0.00231934380014)
(5.49382833268e-05 6.06653849539e-05 -0.00258746947416)
(4.65072535328e-05 6.4672513305e-05 -0.00271071613497)
(3.83658701017e-05 6.75631513672e-05 -0.00281346853883)
(3.03707535561e-05 6.96647211095e-05 -0.00289761175595)
(2.25886052197e-05 7.11480752976e-05 -0.00296322614193)
(1.50135226547e-05 7.21339197403e-05 -0.00301021733946)
(7.58963703103e-06 7.27034722085e-05 -0.00303848698438)
(2.45746754481e-07 7.28993612307e-05 -0.00304797191548)
(-7.09812010446e-06 7.27354307143e-05 -0.00303864307466)
(-1.4522765468e-05 7.21980785008e-05 -0.00301052583238)
(-2.21005894127e-05 7.12442474957e-05 -0.00296367704128)
(-2.98880907224e-05 6.97915900137e-05 -0.00289819051847)
(-3.78918357888e-05 6.77173640843e-05 -0.00281416256046)
(-4.60467528675e-05 6.48480725342e-05 -0.00271156115896)
(-5.44963317061e-05 6.08553593499e-05 -0.00258854702421)
(5.22662106955e-05 5.72367383765e-05 -0.00285180321292)
(4.39482953415e-05 6.0358683563e-05 -0.00298425752686)
(3.61543446134e-05 6.23693182069e-05 -0.00309483218103)
(2.8558091309e-05 6.37756702679e-05 -0.00318554300726)
(2.1211166745e-05 6.47328491534e-05 -0.00325629401216)
(1.40878561007e-05 6.53536805627e-05 -0.00330694524508)
(7.12430598627e-06 6.57077231659e-05 -0.00333740670443)
(2.44585533303e-07 6.58312067102e-05 -0.00334763228754)
(-6.6350562185e-06 6.57355239803e-05 -0.00333760336599)
(-1.35991654364e-05 6.54095771276e-05 -0.00330733344633)
(-2.07247926125e-05 6.48169649181e-05 -0.00325685981405)
(-2.80764802304e-05 6.38872822748e-05 -0.00318626404501)
(-3.56806829576e-05 6.25060275075e-05 -0.00309568410501)
(-4.34872565076e-05 6.05158106127e-05 -0.00298527142176)
(-5.18205232006e-05 5.74104388444e-05 -0.00285305678325)
(4.90353104055e-05 5.32553291524e-05 -0.0031073784945)
(4.09729028038e-05 5.55259162103e-05 -0.00324750177432)
(3.3644629871e-05 5.67300897111e-05 -0.00336495965554)
(2.65435861814e-05 5.75177041762e-05 -0.0034614423997)
(1.97028727563e-05 5.80212386676e-05 -0.00353663680374)
(1.30839091179e-05 5.83327287403e-05 -0.00359041476048)
(6.62192267171e-06 5.85056111851e-05 -0.00362273581328)
(2.42292030403e-07 5.85678508723e-05 -0.00363359072636)
(-6.13725456005e-06 5.85288841875e-05 -0.00362297669342)
(-1.25996275994e-05 5.83797007471e-05 -0.00359089081208)
(-1.92205119823e-05 5.80923093219e-05 -0.00353733184507)
(-2.60653840841e-05 5.76128625269e-05 -0.00346232797836)
(-3.31735266984e-05 5.68481314665e-05 -0.00336599920948)
(-4.05134329601e-05 5.56634841963e-05 -0.00324871877693)
(-4.85881695233e-05 5.3411331414e-05 -0.0031088457498)
(4.53984425405e-05 4.88734881979e-05 -0.00334854958735)
(3.77480800657e-05 5.03685387144e-05 -0.00349578849624)
(3.09909961968e-05 5.08372306924e-05 -0.00361969944986)
(2.44465463245e-05 5.10993266141e-05 -0.00372122951911)
(1.81494888769e-05 5.12317895517e-05 -0.00380015865492)
(1.20568983881e-05 5.1294363439e-05 -0.00385651326369)
(6.10955550401e-06 5.13220098473e-05 -0.00389035369683)
(2.39129752677e-07 5.13349858091e-05 -0.00390172407289)
(-5.63121031053e-06 5.13406157102e-05 -0.00389064120014)
(-1.15789305614e-05 5.13321603831e-05 -0.00385708341919)
(-1.76731324735e-05 5.1289487984e-05 -0.0038009962079)
(-2.39735460486e-05 5.11776625901e-05 -0.00372230446531)
(-3.05239958164e-05 5.09360845037e-05 -0.00362096469255)
(-3.72914937539e-05 5.04867005035e-05 -0.00349724975674)
(-4.49516146441e-05 4.90125944699e-05 -0.00335026313709)
(4.14459143512e-05 4.4682861811e-05 -0.00356789365357)
(3.44792628533e-05 4.50202737496e-05 -0.00372593441441)
(2.83344209972e-05 4.48529848926e-05 -0.0038555210897)
(2.23626764875e-05 4.46776359151e-05 -0.00396102557127)
(1.66149963398e-05 4.44960973603e-05 -0.00404280737142)
(1.1045741317e-05 4.43461099236e-05 -0.00410111779846)
(5.60564161244e-06 4.42486075804e-05 -0.0041361117431)
(2.34999579358e-07 4.42188704026e-05 -0.00414787630936)
(-5.1354898931e-06 4.42628587778e-05 -0.00413644436595)
(-1.05757541961e-05 4.4375182133e-05 -0.00410178062172)
(-1.61462362031e-05 4.45410689477e-05 -0.00404379010498)
(-2.18966133354e-05 4.47395553828e-05 -0.00396230504574)
(-2.78726866664e-05 4.49331396502e-05 -0.00385704679188)
(-3.40262363461e-05 4.51197961238e-05 -0.00372771499768)
(-4.09990312606e-05 4.48071138682e-05 -0.00356982046109)
(-4.41535655406e-07 -8.34377788394e-07 -0.000196825436198)
(-1.84635803331e-07 -1.14265093129e-06 -0.000205813557002)
(-2.26701411513e-08 -1.32253050925e-06 -0.000213460553413)
(8.01618174658e-08 -1.4261930206e-06 -0.000219820442641)
(1.22463217318e-07 -1.4777958466e-06 -0.00022485516037)
(1.11882893634e-07 -1.49804829906e-06 -0.000228507626274)
(6.24832680757e-08 -1.50327901311e-06 -0.000230728394524)
(-7.68628875126e-09 -1.50403903739e-06 -0.000231483763336)
(-7.71152610535e-08 -1.50391109365e-06 -0.00023074096294)
(-1.24180056729e-07 -1.49912293404e-06 -0.000228532739009)
(-1.3104908622e-07 -1.47893623945e-06 -0.000224892591432)
(-8.44658622429e-08 -1.42669446727e-06 -0.000219869891157)
(2.30695829477e-08 -1.32101790216e-06 -0.000213522656935)
(1.88936553153e-07 -1.13853806398e-06 -0.000205893975714)
(4.48171951812e-07 -8.26873928476e-07 -0.000196946128913)
(-1.61249216994e-06 -2.63314014268e-06 -0.000574041728168)
(-9.39812994269e-07 -3.44865303408e-06 -0.000598912351296)
(-4.66357493544e-07 -3.96962179717e-06 -0.000619909942831)
(-1.41478982152e-07 -4.29128215764e-06 -0.000637227846062)
(3.85798206134e-08 -4.47031246115e-06 -0.000650847941745)
(9.26265659266e-08 -4.55704680486e-06 -0.000660682438983)
(5.40997320802e-08 -4.59205249232e-06 -0.000666642485242)
(-3.37855121568e-08 -4.6017411912e-06 -0.000668662325034)
(-1.19393655193e-07 -4.59490994432e-06 -0.000666681493426)
(-1.50766155946e-07 -4.5617874028e-06 -0.000660760295778)
(-8.47369266185e-08 -4.47513660036e-06 -0.00065096382545)
(1.10820518365e-07 -4.29333534906e-06 -0.000637380558607)
(4.53626703247e-07 -3.96383142417e-06 -0.000620100881695)
(9.44913766509e-07 -3.43272406224e-06 -0.000599157261159)
(1.63141527799e-06 -2.60672738971e-06 -0.000574391606617)
(-3.08020045382e-06 -4.54345080923e-06 -0.00093239731595)
(-2.06617080018e-06 -5.78800490548e-06 -0.000971244175002)
(-1.292531006e-06 -6.63956580162e-06 -0.00100379664269)
(-7.19580941025e-07 -7.19711355647e-06 -0.00103045979477)
(-3.41258379278e-07 -7.53356514093e-06 -0.00105131221049)
(-1.32375522594e-07 -7.71752758749e-06 -0.00106630618651)
(-4.82393095717e-08 -7.80418286029e-06 -0.00107536604968)
(-3.08023232005e-08 -7.82954421094e-06 -0.00107842761062)
(-1.11879765578e-08 -7.8057571449e-06 -0.00107542744747)
(7.96419263816e-08 -7.72006639701e-06 -0.00106642875538)
(2.99407525623e-07 -7.53589860299e-06 -0.00105149483867)
(6.91322486413e-07 -7.19689591043e-06 -0.00103070108765)
(1.27938830529e-06 -6.63271295633e-06 -0.00100409920924)
(2.06747134022e-06 -5.7725869561e-06 -0.000971631516849)
(3.09353423643e-06 -4.51813607803e-06 -0.000932942281166)
(-4.42260838305e-06 -6.18141733592e-06 -0.00127235598526)
(-3.14609831433e-06 -7.70743222908e-06 -0.00132356238656)
(-2.12423895749e-06 -8.78194056424e-06 -0.00136617780765)
(-1.33442215544e-06 -9.50031321915e-06 -0.00140087740792)
(-7.70018611933e-07 -9.94507370611e-06 -0.00142788404941)
(-4.01800403437e-07 -1.0196429768e-05 -0.00144723361453)
(-1.7789881724e-07 -1.03192590569e-05 -0.00145889578006)
(-3.10723328462e-08 -1.03555997255e-05 -0.00146282875712)
(1.17760695045e-07 -1.03196875191e-05 -0.00145897886663)
(3.47701594801e-07 -1.01968416997e-05 -0.0014473992881)
(7.25547694648e-07 -9.94462368064e-06 -0.00142813067451)
(1.30186562039e-06 -9.4972370045e-06 -0.00140120313055)
(2.10484782227e-06 -8.77319061345e-06 -0.00136658549636)
(3.13926418199e-06 -7.69165105809e-06 -0.00132407940887)
(4.42737827435e-06 -6.15749528695e-06 -0.00127306726491)
(-5.58042968742e-06 -7.51784688142e-06 -0.00159580882627)
(-4.1090705731e-06 -9.20258041373e-06 -0.00165818092061)
(-2.89215381385e-06 -1.04031677608e-05 -0.00170979179959)