/*--------------------------------*- C++ -*----------------------------------*\
  =========                 |
  \\      /  F ield         | OpenFOAM: The Open Source CFD Toolbox
   \\    /   O peration     | Website:  https://openfoam.org
    \\  /    A nd           | Version:  7
     \\/     M anipulation  |
\*---------------------------------------------------------------------------*/
FoamFile
{
    version     2.0;
    format      ascii;
    class       surfaceScalarField;
    location    "1.02";
    object      phi;
}
// * * * * * * * * * * * * * * * * * * * * * * * * * * * * * * * * * * * * * //

dimensions      [0 3 -1 0 0 0 0];

internalField   nonuniform List<scalar> 
65775
(
-2.09874334514e-11
-5.44396543269e-09
-5.74534143992e-11
-6.6861749047e-15
-3.78165625236e-11
-5.73065356663e-09
-6.08817642094e-11
-4.52044289148e-11
-5.99433003877e-09
-6.38606568566e-11
-4.37771452512e-11
-6.22197152408e-09
-6.65144670259e-11
-3.58794845432e-11
-6.40497539289e-09
-6.87336552864e-11
-2.3294148993e-11
-6.53947529095e-09
-7.04031115948e-11
-7.88465726145e-12
-6.62393046953e-09
-7.14658145434e-11
8.50657139651e-12
-6.65542277853e-09
-7.18648651392e-11
2.38987123857e-11
-6.62391435114e-09
-7.14538367794e-11
3.64510437599e-11
-6.53944329839e-09
-7.03795961266e-11
4.43031828923e-11
-6.40492968809e-09
-6.86995276373e-11
4.5675860005e-11
-6.22191658416e-09
-6.64712218818e-11
3.82271692863e-11
-5.99427294333e-09
-6.3810548296e-11
2.13342733478e-11
-5.73060313963e-09
-6.08282597788e-11
-5.44393511435e-09
-5.74022831027e-11
2.82422655347e-13
-6.98861583226e-11
-1.01681422352e-08
-4.67090583879e-10
-4.05422630719e-14
-1.23007706485e-10
-1.06977137122e-08
-5.25890418153e-10
-1.45995140474e-10
-1.11898687091e-08
-5.83158113525e-10
-1.42779827027e-10
-1.16104269661e-08
-6.36094596885e-10
-1.17939336939e-10
-1.19467556006e-08
-6.81429732259e-10
-7.7045404537e-11
-1.21925742936e-08
-7.1623906849e-10
-2.6216751901e-11
-1.23464239027e-08
-7.38400265062e-10
2.79325561351e-11
-1.24036496896e-08
-7.46312825882e-10
7.87173804964e-11
-1.23463817318e-08
-7.38365809545e-10
1.19528345781e-10
-1.2192492526e-08
-7.16171388064e-10
1.44254628008e-10
-1.19466408183e-08
-6.8133155529e-10
1.47332385344e-10
-1.16102901293e-08
-6.3597032539e-10
1.24190354091e-10
-1.11897256472e-08
-5.83014343084e-10
7.09019472546e-11
-1.06975843016e-08
-5.25737148748e-10
-1.01680609568e-08
-4.66942976582e-10
8.17322484406e-13
-1.25042906916e-10
-1.39906734799e-08
-1.05233938475e-09
-3.9156107347e-14
-2.1206381575e-10
-1.47002385009e-08
-1.19419438567e-09
-2.50850396209e-10
-1.53564768932e-08
-1.33234799043e-09
-2.4623968357e-10
-1.59111496701e-08
-1.459457154e-09
-2.04300643722e-10
-1.63517745827e-08
-1.56781542092e-09
-1.33939835854e-10
-1.66717919123e-08
-1.6507154772e-09
-4.57756055866e-11
-1.68713933989e-08
-1.70332214153e-09
4.83143452736e-11
-1.69455923118e-08
-1.72202121772e-09
1.36418554531e-10
-1.68713286409e-08
-1.70327136272e-09
2.06664238323e-10
-1.66716669859e-08
-1.65061565819e-09
2.48441746015e-10
-1.63516006804e-08
-1.56767033125e-09
2.52854004512e-10
-1.59109442056e-08
-1.45927297272e-09
2.13841265251e-10
-1.53562627641e-08
-1.33213412128e-09
1.26574542322e-10
-1.47000398458e-08
-1.19396522435e-09
-1.39905406402e-08
-1.05211665675e-09
1.25470314091e-12
-1.81948090057e-10
-1.6840864398e-08
-1.70653247559e-09
-4.08002725943e-14
-3.01547464479e-10
-1.76632076275e-08
-1.93884862433e-09
-3.56033597043e-10
-1.8412539914e-08
-2.1632646655e-09
-3.50078365377e-10
-1.90389069404e-08
-2.36801166907e-09
-2.91227818986e-10
-1.95327606318e-08
-2.54129277789e-09
-1.91385125082e-10
-1.98892250728e-08
-2.67311507905e-09
-6.56778708559e-11
-2.0110872811e-08
-2.75642188585e-09
6.86512883614e-11
-2.01933367095e-08
-2.7859450654e-09
1.94295984225e-10
-2.01107929563e-08
-2.75636215869e-09
2.94017269997e-10
-1.98890718869e-08
-2.67299685879e-09
3.52694697292e-10
-1.95325478565e-08
-2.541120169e-09
3.58433163057e-10
-1.9038655287e-08
-2.36779152269e-09
3.03694809109e-10
-1.84122762704e-08
-2.16300759091e-09
1.83816286987e-10
-1.76629589105e-08
-1.93857099321e-09
-1.68406898805e-08
-1.70625958276e-09
1.54595526812e-12
-2.36751931998e-10
-1.87372128362e-08
-2.34432869729e-09
-4.18709816225e-14
-3.88163307186e-10
-1.9611278701e-08
-2.65960497031e-09
-4.57874231985e-10
-2.03919126683e-08
-2.96079183947e-09
-4.50535622458e-10
-2.10373339903e-08
-3.23296229887e-09
-3.75308135349e-10
-2.15424463619e-08
-3.46149757339e-09
-2.46982497162e-10
-2.19050721016e-08
-3.63431362578e-09
-8.50345120711e-11
-2.21300056755e-08
-3.74307218945e-09
8.81375448631e-11
-2.22138328775e-08
-3.78152030533e-09
2.50028038147e-10
-2.21299226439e-08
-3.74300841163e-09
3.78240948429e-10
-2.1904913017e-08
-3.63418725943e-09
4.53305153862e-10
-2.1542225627e-08
-3.46131270078e-09
4.60435365002e-10
-2.10370726443e-08
-3.2327257708e-09
3.90476418856e-10
-2.03916374034e-08
-2.9605143405e-09
2.38785494398e-10
-1.96110141281e-08
-2.65930332306e-09
-1.8737014982e-08
-2.34402923802e-09
1.69787691825e-12
-2.87059291392e-10
-1.97638962774e-08
-2.90244552545e-09
-4.17146392029e-14
-4.69365308518e-10
-2.06403369078e-08
-3.28539935315e-09
-5.53583272668e-10
-2.14065281144e-08
-3.64711260451e-09
-5.44852814461e-10
-2.20333114985e-08
-3.97104792349e-09
-4.54123497077e-10
-2.25205460337e-08
-4.24111862808e-09
-2.99052031924e-10
-2.28688473375e-08
-4.44426462548e-09
-1.03206673314e-10
-2.30845305349e-08
-4.57164406426e-09
1.0625666966e-10
-2.31650537581e-08
-4.61657321054e-09
3.02051655626e-10
-2.30844531933e-08
-4.57157960506e-09
4.57023338498e-10
-2.28686993045e-08
-4.44413688302e-09
5.4760623658e-10
-2.25203403549e-08
-4.24093160454e-09
5.56146771961e-10
-2.20330671773e-08
-3.97080826274e-09
4.71698695124e-10
-2.1406268619e-08
-3.6468305831e-09
2.89129642522e-10
-2.0640084377e-08
-3.28509127572e-09
-1.97636954508e-08
-2.90213740787e-09
1.74235619466e-12
-3.32056255446e-10
-2.00408876276e-08
-3.3459013837e-09
-4.05709302644e-14
-5.43838527908e-10
-2.08829794455e-08
-3.78001234917e-09
-6.41692691046e-10
-2.1604731925e-08
-4.18595397772e-09
-6.31646490627e-10
-2.21891171067e-08
-4.54677622904e-09
-5.26523747739e-10
-2.26408033633e-08
-4.8458847342e-09
-3.46814726204e-10
-2.29627168438e-08
-5.06993912734e-09
-1.1988552842e-10
-2.31618377432e-08
-5.21001012252e-09
1.22808449869e-10
-2.3236264042e-08
-5.25929922979e-09
3.49692938436e-10
-2.31617727411e-08
-5.20994662253e-09
5.2931278081e-10
-2.29625924846e-08
-5.06981337728e-09
6.34303527794e-10
-2.26406303814e-08
-4.8457007642e-09
6.44176827006e-10
-2.21889110925e-08
-4.54654056252e-09
5.46110970303e-10
-2.1604511267e-08
-4.18567646387e-09
3.34085371394e-10
-2.08827618022e-08
-3.77970856536e-09
-2.00407007605e-08
-3.3455963403e-09
1.71902038164e-12
-3.72101638028e-10
-1.96990597251e-08
-3.66343645475e-09
-3.8336147905e-14
-6.11455578393e-10
-2.04811199939e-08
-4.13461914649e-09
-7.22023335334e-10
-2.11405801594e-08
-4.57166641488e-09
-7.10805717271e-10
-2.16692276415e-08
-4.95788749544e-09
-5.92465464942e-10
-2.20760106622e-08
-5.27668567541e-09
-3.90252907408e-10
-2.23654053418e-08
-5.51475729583e-09
-1.35045020297e-10
-2.25442709041e-08
-5.66322908507e-09
1.37837909988e-10
-2.26111169153e-08
-5.71533175153e-09
3.93004066083e-10
-2.25442206829e-08
-5.66316717749e-09
5.95133156496e-10
-2.23653092844e-08
-5.51463488207e-09
7.13349494092e-10
-2.20758768462e-08
-5.27650694272e-09
7.24404541932e-10
-2.16690675548e-08
-4.95765901314e-09
6.13637651933e-10
-2.11404069696e-08
-4.5713977762e-09
3.74055531731e-10
-2.04809470685e-08
-4.13432532355e-09
-1.96988981412e-08
-3.66314124689e-09
1.66292582383e-12
-4.08134906681e-10
-1.88644749732e-08
-3.85892380523e-09
-3.54502462046e-14
-6.7291998633e-10
-1.95695507166e-08
-4.35657404242e-09
-7.9533572484e-10
-2.01570238021e-08
-4.81529269633e-09
-7.8310567011e-10
-2.06235781452e-08
-5.21890367838e-09
-6.52623943815e-10
-2.09815721699e-08
-5.55100563918e-09
-4.29819421666e-10
-2.12361329178e-08
-5.79844313061e-09
-1.48833509427e-10
-2.13933520014e-08
-5.95242473236e-09
1.51528918052e-10
-2.1451983876e-08
-6.00628279581e-09
4.32473508413e-10
-2.13933164221e-08
-5.9523646637e-09
6.55195472178e-10
-2.12360648195e-08
-5.7983245858e-09
7.85554914716e-10
-2.09814770825e-08
-5.55083304023e-09
7.97625180864e-10
-2.06234635291e-08
-5.21868376316e-09
6.75015183987e-10
-2.0156897562e-08
-4.81503497462e-09
4.10009361218e-10
-1.95694219635e-08
-4.35629307789e-09
-1.88643399491e-08
-3.85864217579e-09
1.59922044906e-12
-4.41189640579e-10
-1.76509553454e-08
-3.94356725661e-09
-3.17369442813e-14
-7.29381811143e-10
-1.82686719483e-08
-4.46015383996e-09
-8.62946325085e-10
-1.87796270699e-08
-4.93405568191e-09
-8.49807297317e-10
-1.91823650623e-08
-5.34962185799e-09
-7.0801668471e-10
-1.94912808978e-08
-5.69070154623e-09
-4.66166037372e-10
-1.97111426629e-08
-5.94434086364e-09
-1.61471656526e-10
-1.98467862351e-08
-6.10184645575e-09
1.64112755084e-10
-1.98971237523e-08
-6.15671775464e-09
4.68764335492e-10
-1.98467625856e-08
-6.10178845701e-09
7.10529703891e-10
-1.97110973703e-08
-5.94422665251e-09
8.52194727009e-10
-1.94912170388e-08
-5.69053579294e-09
8.65170823119e-10
-1.91822867421e-08
-5.34941150978e-09
7.3141027867e-10
-1.87795376722e-08
-4.93381025336e-09
4.42997715466e-10
-1.82685766853e-08
-4.45988761791e-09
-1.76508406772e-08
-3.94330160563e-09
1.5427486123e-12
-4.72109087326e-10
-1.61581669532e-08
-3.93068189831e-09
-2.77754446082e-14
-7.82210286948e-10
-1.66828177896e-08
-4.46089841001e-09
-9.26484382373e-10
-1.71161648916e-08
-4.94548339714e-09
-9.12371477602e-10
-1.74568074435e-08
-5.36918635296e-09
-7.59729317297e-10
-1.77189458338e-08
-5.71613110173e-09
-4.99948928835e-10
-1.79059126862e-08
-5.97364456431e-09
-1.73179102597e-10
-1.80210228163e-08
-6.13318574511e-09
1.75806087151e-10
-1.80633645015e-08
-6.18850378575e-09
5.02530400428e-10
-1.80210068177e-08
-6.13313019137e-09
7.62220608366e-10
-1.79058817421e-08
-5.97353541428e-09
9.14730673784e-10
-1.77189014522e-08
-5.71597323799e-09
9.28673715353e-10
-1.74567506132e-08
-5.36898689892e-09
7.84197238277e-10
-1.71160955093e-08
-4.94525186037e-09
4.73870545487e-10
-1.66827371988e-08
-4.46064881406e-09
-1.61580565371e-08
-3.93043435649e-09
1.50052449705e-12
-5.01474314042e-10
-1.44725182436e-08
-3.83294178762e-09
-2.34990647566e-14
-8.33086362231e-10
-1.49010481477e-08
-4.37298142105e-09
-9.87841789491e-10
-1.52587565958e-08
-4.86502082656e-09
-9.72246034329e-10
-1.55421875442e-08
-5.29397808607e-09
-8.08684446432e-10
-1.57618744276e-08
-5.64432199896e-09
-5.31668417357e-10
-1.59188895113e-08
-5.90380695853e-09
-1.84116935328e-10
-1.60151480517e-08
-6.06414526976e-09
1.86760918088e-10
-1.60500521463e-08
-6.11943495793e-09
5.34263577655e-10
-1.60151341182e-08
-6.06409270784e-09
8.11183226729e-10
-1.59188622711e-08
-5.90370392741e-09
9.74604744851e-10
-1.57618338164e-08
-5.64417352893e-09
9.90021730217e-10
-1.55421330293e-08
-5.29379139497e-09
8.3505532261e-10
-1.52586852535e-08
-4.86480531558e-09
5.03209599111e-10
-1.49009578605e-08
-4.37275072805e-09
-1.44723895812e-08
-3.83271468846e-09
1.47396858136e-12
-5.30540207774e-10
-1.26682073202e-08
-3.66130433196e-09
-1.9694061409e-14
-8.85018287244e-10
-1.29985723552e-08
-4.20850098845e-09
-1.04926605537e-09
-1.32873229157e-08
-4.70562736213e-09
-1.03051888721e-09
-1.3521475785e-08
-5.13746866783e-09
-8.55289969117e-10
-1.37042635718e-08
-5.48906337495e-09
-5.61451797717e-10
-1.38348062114e-08
-5.748824791e-09
-1.94314724006e-10
-1.39142200599e-08
-5.9088496092e-09
1.969959622e-10
-1.3942407941e-08
-5.96368650023e-09
5.64080563321e-10
-1.39142015982e-08
-5.90880071371e-09
8.57815959164e-10
-1.38347694067e-08
-5.74872918798e-09
1.0328959679e-09
-1.37042086707e-08
-5.48892616792e-09
1.05145496902e-09
-1.3521400873e-08
-5.13729706991e-09
8.86987172546e-10
-1.3287223729e-08
-4.70543051172e-09
5.32266580247e-10
-1.29984436834e-08
-4.20829185605e-09
-1.26680305781e-08
-3.66110015953e-09
1.4613869237e-12
-5.65907977034e-10
-1.08037632028e-08
-3.42483476495e-09
-1.5727544712e-14
-9.44348656133e-10
-1.10404727671e-08
-3.97784163663e-09
-1.11328504871e-09
-1.12746592231e-08
-4.47824221355e-09
-1.08768281257e-09
-1.14685540608e-08
-4.91078185546e-09
-8.99442922727e-10
-1.16196562029e-08
-5.26160793224e-09
-5.89154415938e-10
-1.17270666848e-08
-5.52006532471e-09
-2.03723404323e-10
-1.17917524776e-08
-5.67875164363e-09
2.06451574753e-10
-1.18140512088e-08
-5.7327487412e-09
5.91826740685e-10
-1.17917217456e-08
-5.67870712996e-09
9.02005622567e-10
-1.17270058071e-08
-5.51997854044e-09
1.0900881576e-09
-1.16195653485e-08
-5.26148398095e-09
1.11549276858e-09
-1.14684326613e-08
-4.91062787109e-09
9.4632781252e-10
-1.12745039023e-08
-4.47806693092e-09
5.67637788655e-10
-1.10402760522e-08
-3.97765693703e-09
-1.0803507382e-08
-3.42465587824e-09
1.46100646744e-12
-6.2903422378e-10
-3.13035018989e-09
-1.15261009483e-14
-8.90944355187e-09
-1.02248555562e-09
-3.6901286098e-09
-9.09275567833e-09
-1.18748619868e-09
-4.1917479835e-09
-9.28850063214e-09
-1.15073237226e-09
-4.62285373098e-09
-9.44896006801e-09
-9.47373240829e-10
-4.971151682e-09
-9.57316032407e-09
-6.19108814865e-10
-5.22701502251e-09
-9.66149026324e-09
-2.13891576321e-10
-5.38355197536e-09
-9.71433745043e-09
2.16668063668e-10
-5.43640502211e-09
-9.73191061221e-09
6.21825969205e-10
-5.38351241753e-09
-9.71428602202e-09
9.49974431728e-10
-5.22693816627e-09
-9.66138869086e-09
1.15316701823e-09
-4.97104255766e-09
-9.57301028201e-09
1.18971277105e-09
-4.62271936682e-09
-9.44876317652e-09
1.02447453724e-09
-4.19159667994e-09
-9.2882563358e-09
6.30769130715e-10
-3.68997147391e-09
-9.09245970232e-09
-3.13019765588e-09
1.46358606672e-12
-8.90907677305e-09
-8.6318174859e-12
4.19618490264e-10
-4.68446643342e-10
-9.92830554658e-15
-1.35615968714e-11
4.63623237703e-10
-5.19602322616e-10
-1.51716329967e-11
5.05833133612e-10
-5.68110832462e-10
-1.46026975298e-11
5.44670804079e-10
-6.11776614419e-10
-1.2058861949e-11
5.77070884592e-10
-6.48361610743e-10
-7.95506724911e-12
6.01497375832e-10
-6.76011181223e-10
-2.81987279175e-12
6.16879528723e-10
-6.93484320986e-10
2.68079686369e-12
6.22395625012e-10
-6.99764318361e-10
7.81868895634e-12
6.16886252695e-10
-6.9348131174e-10
1.19285810968e-11
6.01512059995e-10
-6.76005246451e-10
1.44828748268e-11
5.77095255036e-10
-6.48352975406e-10
1.50676056109e-11
5.44705604673e-10
-6.11765676325e-10
1.34769885024e-11
5.05874206981e-10
-5.68098283811e-10
8.56704031249e-12
4.6366708316e-10
-5.19589542377e-10
4.19655167527e-10
-4.68436897843e-10
-5.74137870152e-14
-1.33767381774e-11
1.19516779389e-09
-1.22925608871e-09
-3.57992815916e-14
-2.05039022272e-11
1.30532865596e-09
-1.36051387412e-09
-2.27470814252e-11
1.40922412683e-09
-1.484352297e-09
-2.15203921771e-11
1.50262862246e-09
-1.5953158503e-09
-1.75686664045e-11
1.57961632253e-09
-1.6879492132e-09
-1.15338191079e-11
1.63698317635e-09
-1.75777172123e-09
-4.14975704069e-12
1.67290114535e-09
-1.80181297028e-09
3.72682318783e-12
1.68581289042e-09
-1.817612623e-09
1.11194666243e-11
1.67292565622e-09
-1.80180388963e-09
1.71736028385e-11
1.6370337992e-09
-1.7577537644e-09
2.11580578655e-11
1.57969556961e-09
-1.68792311733e-09
2.24329477313e-11
1.50273627222e-09
-1.59528288947e-09
2.02490730021e-11
1.40935130531e-09
-1.48431459973e-09
1.3183683207e-11
1.30546401412e-09
-1.36047549727e-09
1.19529086585e-09
-1.22922498399e-09
-1.7650178145e-13
-9.9861480137e-12
2.01108542858e-09
-1.85825486557e-09
-4.37443751749e-14
-1.38721420345e-11
2.17221232438e-09
-2.0572281614e-09
-1.45084100088e-11
2.32185765491e-09
-2.24438101727e-09
-1.30088261636e-11
2.45331085641e-09
-2.41166638671e-09
-1.02556678196e-11
2.56008645056e-09
-2.5510562284e-09
-6.65549892248e-12
2.63863149931e-09
-2.65597425868e-09
-2.51697743591e-12
2.68748789696e-09
-2.72205392322e-09
1.85449730903e-12
2.70511035673e-09
-2.74569543676e-09
6.007411754e-12
2.6875351482e-09
-2.72203895067e-09
9.63846456806e-12
2.63872630505e-09
-2.65594471635e-09
1.24414925296e-11
2.56022986656e-09
-2.55101342648e-09
1.40111203928e-11
2.45350018345e-09
-2.41161249646e-09
1.34601117104e-11
2.32208167388e-09
-2.24431946728e-09
9.66416503553e-12
2.17245398301e-09
-2.05716509492e-09
2.01132119344e-09
-1.85820164505e-09
-2.86438430304e-13
-1.6501999516e-12
2.69154282532e-09
-2.38531465968e-09
-5.04786974677e-14
5.9205117984e-13
2.8746261954e-09
-2.643539778e-09
2.67186388011e-12
3.04219503247e-09
-2.88571681463e-09
3.95128435665e-12
3.18570206385e-09
-3.10170947732e-09
3.89560063164e-12
3.30021708606e-09
-3.28138557742e-09
2.64884468712e-12
3.38321004386e-09
-3.41645757099e-09
6.53435763318e-13
3.43446070646e-09
-3.50140632504e-09
-1.53018541444e-12
3.45305597871e-09
-3.53171267332e-09
-3.50624369575e-12
3.43452870065e-09
-3.5013850991e-09
-4.71212786592e-12
3.38334624909e-09
-3.41641645825e-09
-4.70339315313e-12
3.30042166597e-09
-3.28132649573e-09
-3.33555439097e-12
3.18597039734e-09
-3.10163548196e-09
-1.14880384078e-12
3.04251390765e-09
-2.88563247698e-09
1.20779930214e-12
2.87497368689e-09
-2.6434528599e-09
2.69189244387e-09
-2.38523860206e-09
-3.89799403731e-13
9.17812107498e-12
3.15336640441e-09
-2.81529865853e-09
-5.50466305766e-14
1.82380820628e-11
3.33083387226e-09
-3.1249004741e-09
2.30799220688e-11
3.49094361581e-09
-3.41440805461e-09
2.36467571617e-11
3.62421735667e-09
-3.67206462155e-09
2.00612422667e-11
3.72835410583e-09
-3.88606271245e-09
1.31728225502e-11
3.80252178653e-09
-4.04674606482e-09
4.24261285553e-12
3.84796980678e-09
-4.1476572922e-09
-5.29697066917e-12
3.86462255455e-09
-4.18355237321e-09
-1.42040435059e-11
3.84805348526e-09
-4.14763078313e-09
-2.1044057499e-11
3.80268897723e-09
-4.04669473095e-09
-2.45545173123e-11
3.7286035725e-09
-3.88598904767e-09
-2.38860367965e-11
3.62454360877e-09
-3.67197249027e-09
-1.89216071052e-11
3.49133317283e-09
-3.41430298797e-09
-9.72909405025e-12
3.33126424428e-09
-3.12479119617e-09
3.15381284793e-09
-2.81520019309e-09
-4.82689223572e-13
2.06424902852e-11
3.38372178857e-09
-3.15340690074e-09
-5.74779952464e-14
3.5941185381e-11
3.53732796181e-09
-3.50721747243e-09
4.30654178364e-11
3.6737845149e-09
-3.83710233596e-09
4.25762845787e-11
3.78372915805e-09
-4.13009010355e-09
3.53867006635e-11
3.86748321416e-09
-4.37307191311e-09
2.30644137121e-11
3.92588365226e-09
-4.55531340677e-09
7.61168090923e-12
3.96136840166e-09
-4.66959644821e-09
-8.80152322092e-12
3.97457689007e-09
-4.71011961593e-09
-2.42287478386e-11
3.96146148331e-09
-4.66956514421e-09
-3.64980902961e-11
3.92606948732e-09
-4.55525279973e-09
-4.3606187945e-11
3.8677602849e-09
-4.37298505151e-09
-4.39858208529e-11
3.78409167295e-09
-4.1299815974e-09
-3.67292115411e-11
3.67421969024e-09
-3.83697853763e-09
-2.1285895869e-11
3.53781319297e-09
-3.5070879729e-09
3.38423495226e-09
-3.15328771331e-09
-5.62237731442e-13
3.14608544645e-11
3.41152880106e-09
-3.40512980759e-09
-5.82545126871e-14
5.19071198062e-11
3.53357046533e-09
-3.79672105383e-09
6.06974655394e-11
3.63981392799e-09
-4.16079223784e-09
5.90073342101e-11
3.72212662638e-09
-4.48349812349e-09
4.85341813016e-11
3.78280578248e-09
-4.75074494036e-09
3.14883207851e-11
3.82394908937e-09
-4.95096646017e-09
1.0477416863e-11
3.84869709539e-09
-5.07633381289e-09
-1.17606767421e-11
3.85814565049e-09
-5.12063467348e-09
-3.27450015777e-11
3.84879310682e-09
-5.07629826512e-09
-4.97359580252e-11
3.82414053225e-09
-4.95089764811e-09
-6.01250720402e-11
3.78309081235e-09
-4.75064643162e-09
-6.17027151898e-11
3.72249969609e-09
-4.48337520399e-09
-5.27758530368e-11
3.64026423466e-09
-4.16065197362e-09
-3.21788304593e-11
3.5340774121e-09
-3.79657378892e-09
3.41207554719e-09
-3.40499227975e-09
-6.26809559926e-13
4.08768928195e-11
3.28321857098e-09
-3.57596111275e-09
-5.75642470978e-14
6.53367813045e-11
3.37404405639e-09
-3.99956977488e-09
7.52472318775e-11
3.45052108318e-09
-4.39230032907e-09
7.23812332872e-11
3.50681005446e-09
-4.73971845093e-09
5.91311570182e-11
3.54637704948e-09
-5.02701708188e-09
3.82377980396e-11
3.57209447196e-09
-5.24201689903e-09
1.27727725455e-11
3.5873438976e-09
-5.3764166831e-09
-1.41122195183e-11
3.59342456061e-09
-5.42373041001e-09
-3.9550652036e-11
3.58743767806e-09
-5.37637754487e-09
-6.03892305751e-11
3.57228134174e-09
-5.24194114744e-09
-7.3555730601e-11
3.54665505871e-09
-5.02690875031e-09
-7.63098881594e-11
3.50717423042e-09
-4.73958341979e-09
-6.62631566858e-11
3.4509620977e-09
-4.39214628394e-09
-4.16508924815e-11
3.37454405826e-09
-3.99940774061e-09
3.28376441155e-09
-3.57580833596e-09
-6.76429334599e-13
4.85236387852e-11
3.04692428052e-09
-3.67111108087e-09
-5.60182519373e-14
7.60285295276e-11
3.1114588614e-09
-4.12150727744e-09
8.66633191502e-11
3.16247450467e-09
-4.53789338622e-09
8.27695513956e-11
3.19727459646e-09
-4.90548476621e-09
6.73035659485e-11
3.2198278801e-09
-5.2089986486e-09
4.34214580939e-11
3.23337431683e-09
-5.43584734886e-09
1.45373964816e-11
3.24119337597e-09
-5.57739533938e-09
-1.59032682793e-11
3.24459649823e-09
-5.62701849186e-09
-4.47613870332e-11
3.24128066969e-09
-5.57735339303e-09
-6.85901956473e-11
3.23354802208e-09
-5.43576617562e-09
-8.39750285174e-11
3.2200858765e-09
-5.20888267843e-09
-8.77602264688e-11
3.19761244633e-09
-4.905340378e-09
-7.6992408897e-11
3.16288471398e-09
-4.53772878582e-09
-4.93372460906e-11
3.1119266073e-09
-4.1213340955e-09
3.04744116535e-09
-3.67094683824e-09
-7.12024626365e-13
5.43108546614e-11
2.74445130374e-09
-3.69536250394e-09
-5.35840715228e-14
8.4095853562e-11
2.78924210405e-09
-4.16773274271e-09
9.5217392471e-11
2.82047843541e-09
-4.60319136595e-09
9.05247377697e-11
2.83912700721e-09
-4.986790421e-09
7.33887239207e-11
2.84923232858e-09
-5.30297726691e-09
4.7276815737e-11
2.85409317169e-09
-5.53895363216e-09
1.58537711058e-11
2.85665777073e-09
-5.68589268818e-09
-1.72246317151e-11
2.85812210584e-09
-5.73716899634e-09
-4.86227550544e-11
2.85673555908e-09
-5.68584885072e-09
-7.46835987355e-11
2.85424763976e-09
-5.53886882137e-09
-9.17419431728e-11
2.84946129891e-09
-5.30285622866e-09
-9.6330627745e-11
2.83942626304e-09
-4.98663992319e-09
-8.50810826135e-11
2.82084179357e-09
-4.60302001882e-09
-5.51498366007e-11
2.78965767911e-09
-4.16755267445e-09
2.74491375182e-09
-3.69519123562e-09
-7.35796078781e-13
5.83363950121e-11
2.40855091863e-09
-3.65307676753e-09
-5.08898644978e-14
8.98189923142e-11
2.43982069294e-09
-4.14296815704e-09
1.01338574056e-10
2.45677974696e-09
-4.59331223762e-09
9.61278883056e-11
2.4642452812e-09
-4.9891009109e-09
7.78146025218e-11
2.46609337665e-09
-5.31468463691e-09
5.00934734469e-11
2.46541764624e-09
-5.5572529825e-09
1.68215494835e-11
2.46467902238e-09
-5.70793929374e-09
-1.8183514561e-11
2.46487465097e-09
-5.76025498747e-09
-5.14316852521e-11
2.46474487471e-09
-5.70789460443e-09
-7.91041886476e-11
2.46554813795e-09
-5.55716656244e-09
-9.73437248146e-11
2.46628600902e-09
-5.31456146115e-09
-1.02455566637e-10
2.46449626378e-09
-4.98894801502e-09
-9.0813728475e-11
2.4570838605e-09
-4.59313849393e-09
-5.9190109e-11
2.44016859338e-09
-4.14278603079e-09
2.40894050935e-09
-3.6529034788e-09
-7.49872047515e-13
6.08027102722e-11
2.06313254877e-09
-3.54828593406e-09
-4.78235532971e-14
9.36054757281e-11
2.08567383258e-09
-4.05164381831e-09
1.05603886839e-10
2.09289443391e-09
-4.51314007501e-09
1.00184462222e-10
2.09334733399e-09
-4.91766619345e-09
8.10927081936e-11
2.09049274334e-09
-5.24963438768e-09
5.22069612493e-11
2.08693325285e-09
-5.49644041822e-09
1.75550619803e-11
2.08452440396e-09
-5.64934224845e-09
-1.89003749979e-11
2.08401842824e-09
-5.70212601398e-09
-5.35296093473e-11
2.08457645864e-09
-5.64929784179e-09
-8.23691602311e-11
2.08703599256e-09
-5.49635460961e-09
-1.01390859583e-10
2.0906438256e-09
-5.24951229406e-09
-1.06716494459e-10
2.09354291435e-09
-4.91751498898e-09
-9.4601645535e-11
2.09312995806e-09
-4.51296871607e-09
-6.16631330555e-11
2.08594212829e-09
-4.05146486952e-09
2.06343326407e-09
-3.54811602119e-09
-7.56816170929e-13
6.2028397856e-11
1.72463794364e-09
-3.38480037549e-09
-4.50558606446e-14
9.61659871166e-11
1.74119527159e-09
-3.89816545111e-09
1.08925451604e-10
1.74215236425e-09
-4.36764981883e-09
1.0355664692e-10
1.73907050535e-09
-4.77782715685e-09
8.38972932003e-11
1.73449390159e-09
-5.11340839022e-09
5.40387503841e-11
1.73023074726e-09
-5.36226706739e-09
1.81962271795e-11
1.72747734199e-09
-5.51596206854e-09
-1.9521432589e-11
1.72673225812e-09
-5.568685148e-09
-5.53422361578e-11
1.72751401535e-09
-5.51591913181e-09
-8.51564910425e-11
1.73030283753e-09
-5.36218420005e-09
-1.04749121264e-10
1.73459890317e-09
-5.1132907703e-09
-1.10028692192e-10
1.7392051065e-09
-4.7776819723e-09
-9.71582088081e-11
1.74231271627e-09
-4.36748589484e-09
-6.28902630222e-11
1.74137530817e-09
-3.89799508445e-09
1.7248389494e-09
-3.38463927326e-09
-7.58492121716e-13
6.27023717929e-11
1.40342494527e-09
-3.16628799739e-09
-4.2031303468e-14
9.88914561507e-11
1.41451873392e-09
-3.68735833395e-09
1.12796071808e-10
1.4122715028e-09
-4.16226948441e-09
1.07488963984e-10
1.40883512898e-09
-4.57524312005e-09
8.71337721946e-11
1.4050643414e-09
-4.91182641609e-09
5.61379829394e-11
1.40185127543e-09
-5.16069214019e-09
1.89276600917e-11
1.3997938756e-09
-5.3138603792e-09
-2.02318748919e-11
1.39917745791e-09
-5.36603597303e-09
-5.74210290756e-11
1.3998137996e-09
-5.31382008657e-09
-8.83739683317e-11
1.40189018121e-09
-5.16061452027e-09
-1.08664701103e-10
1.40512016116e-09
-4.91171664059e-09
-1.13886106401e-10
1.4089049175e-09
-4.57510830347e-09
-9.98755523872e-11
1.41235143116e-09
-4.16211812084e-09
-6.35612220043e-11
1.41460431516e-09
-3.68720189758e-09
1.4035174569e-09
-3.16614076709e-09
-7.56438800305e-13
6.23199978392e-11
-2.89748617226e-09
-3.91797555774e-14
1.10827514436e-09
1.03455400834e-10
-3.4263586837e-09
1.10960990888e-09
1.18815186486e-10
-3.90365791357e-09
1.10881794709e-09
1.13291539059e-10
-4.31622985538e-09
1.10773233497e-09
9.18302720733e-11
-4.6510679679e-09
1.10643915183e-09
5.9176443881e-11
-4.8978706794e-09
1.10535805103e-09
1.99847711276e-11
-5.04920694822e-09
1.10463856882e-09
-2.12680094552e-11
-5.10036218061e-09
1.10438520061e-09
-6.04385075937e-11
-5.04917033579e-09
1.10464087912e-09
-9.30499664072e-11
-4.8978003284e-09
1.10536167908e-09
-1.14447879399e-10
-4.65096897619e-09
1.10644278525e-09
-1.19888365371e-10
-4.31610923772e-09
1.10773354097e-09
-1.04426073014e-10
-3.90352372944e-09
1.10881453136e-09
-6.3170718584e-11
-3.42622174772e-09
1.10959763875e-09
-2.89735633966e-09
-7.48393548912e-13
1.10825240027e-09
6.35603957641e-12
-9.11799670662e-11
-3.83629500915e-10
-6.77712108709e-15
9.92115828732e-12
-1.01577420067e-10
-4.21605757878e-10
1.14702256814e-11
-1.12438908064e-10
-4.57238719958e-10
1.12193451269e-11
-1.22465937407e-10
-4.89075176318e-10
9.34970431926e-12
-1.3092368047e-10
-5.15584694147e-10
6.17838371126e-12
-1.37329266274e-10
-5.35525830516e-10
2.15008225874e-12
-1.41368993233e-10
-5.48098578947e-10
-2.18607402716e-12
-1.42806030461e-10
-5.52629992279e-10
-6.21220168517e-12
-1.4136505149e-10
-5.48095363178e-10
-9.37945092336e-12
-1.37322232292e-10
-5.35519524403e-10
-1.12443163279e-11
-1.3091547774e-10
-5.15575559504e-10
-1.14910179891e-11
-1.22457927799e-10
-4.89063639642e-10
-9.93685318774e-12
-1.12429340788e-10
-4.57225469136e-10
-6.36728822575e-12
-1.01569185076e-10
-4.21592180838e-10
-9.11734103229e-11
-3.83618867586e-10
-1.40327046074e-14
1.42787577341e-11
-2.06281319939e-10
-1.12843605495e-09
-1.98669540648e-14
2.30419622983e-11
-2.27135539367e-10
-1.24374807225e-09
2.69703121834e-11
-2.48606427283e-10
-1.35214430169e-09
2.64966053604e-11
-2.6826988394e-10
-1.44906659749e-09
2.21134566604e-11
-2.84677760583e-10
-1.52983956177e-09
1.46159584165e-11
-2.96986062459e-10
-1.59064169164e-09
5.08311357219e-12
-3.04707006943e-10
-1.62896040248e-09
-5.1763998171e-12
-3.07459230404e-10
-1.64271258145e-09
-1.47034095163e-11
-3.04699772342e-10
-1.62895076738e-09
-2.2190063056e-11
-2.96972775801e-10
-1.5906228211e-09
-2.6560183056e-11
-2.84661141134e-10
-1.52981229404e-09
-2.70213343222e-11
-2.68251710187e-10
-1.44903227691e-09
-2.30792973959e-11
-2.48584869809e-10
-1.35210505196e-09
-1.43032512427e-11
-2.27116427037e-10
-1.24370794571e-09
-2.06268340828e-10
-1.1284030237e-09
-3.36028711267e-14
1.85155527467e-11
-3.00788153153e-10
-1.78225723088e-09
-2.47201362659e-14
3.03623350063e-11
-3.28193173832e-10
-1.96803824694e-09
3.57664347214e-11
-3.55966630973e-10
-2.14244606782e-09
3.52019572341e-11
-3.81200386731e-10
-2.29819316647e-09
2.93841309734e-11
-4.02066924416e-10
-2.42787103285e-09
1.94169134259e-11
-4.17591314287e-10
-2.52542105574e-09
6.75539681648e-12
-4.2728034814e-10
-2.5868337391e-09
-6.86481312147e-12
-4.30736745873e-10
-2.60880805215e-09
-1.95199414013e-11
-4.27272539905e-10
-2.58681825548e-09
-2.94753823792e-11
-4.17576672457e-10
-2.52539071638e-09
-3.5278772611e-11
-4.02048330174e-10
-2.42782715936e-09
-3.58286533772e-11
-3.81180242417e-10
-2.29813789816e-09
-3.04092684016e-11
-3.55944457722e-10
-2.14238276367e-09
-1.85477749919e-11
-3.28173239301e-10
-1.96797302825e-09
-3.00774702623e-10
-1.7822015107e-09
-4.45412390793e-14
2.01825883202e-11
-3.74065511127e-10
-2.33220875959e-09
-2.76649711312e-14
3.34435004075e-11
-4.05138214907e-10
-2.57987618246e-09
3.96024553599e-11
-4.35977233474e-10
-2.81188729229e-09
3.90449082908e-11
-4.63644311746e-10
-3.01872968346e-09
3.26008879622e-11
-4.86286902754e-10
-3.19074192132e-09
2.153932493e-11
-5.02984549672e-10
-3.32002013125e-09
7.49617984723e-12
-5.13350385902e-10
-3.40130651606e-09
-7.60530056745e-12
-5.170507399e-10
-3.43030678449e-09
-2.16421918351e-11
-5.13342178484e-10
-3.40128545379e-09
-3.26924125944e-11
-5.02969176656e-10
-3.31997888862e-09
-3.91223252131e-11
-4.86266825613e-10
-3.19068232445e-09
-3.96651936911e-11
-4.63621920526e-10
-3.01865465997e-09
-3.34909663654e-11
-4.35953263406e-10
-2.81180130409e-09
-2.0215501908e-11
-4.05117749427e-10
-2.5797868888e-09
-3.74053437492e-10
-2.33212971891e-09
-4.83961777886e-14
2.00693488237e-11
-4.25784450652e-10
-2.78363364688e-09
-2.88794281246e-14
3.35366457019e-11
-4.58229289689e-10
-3.08529021257e-09
3.98906501146e-11
-4.89586156587e-10
-3.36716763508e-09
3.93981106871e-11
-5.17230665642e-10
-3.61800097111e-09
3.29117826101e-11