/*--------------------------------*- C++ -*----------------------------------*\
  =========                 |
  \\      /  F ield         | OpenFOAM: The Open Source CFD Toolbox
   \\    /   O peration     | Website:  https://openfoam.org
    \\  /    A nd           | Version:  7
     \\/     M anipulation  |
\*---------------------------------------------------------------------------*/
FoamFile
{
    version     2.0;
    format      ascii;
    class       volScalarField;
    location    "0.04";
    object      p;
}
// * * * * * * * * * * * * * * * * * * * * * * * * * * * * * * * * * * * * * //

dimensions      [0 2 -2 0 0 0 0];

internalField   nonuniform List<scalar> 
22500
(
3.31244501934e-05
3.31170532716e-05
3.31148623521e-05
3.3111741043e-05
3.31093977664e-05
3.31075699439e-05
3.31064283821e-05
3.31060138801e-05
3.31063853717e-05
3.31074855772e-05
3.31092763387e-05
3.31115909573e-05
3.31146960223e-05
3.31168864643e-05
3.31242974618e-05
3.30216087387e-05
3.30088995704e-05
3.30022159824e-05
3.29951611519e-05
3.29896354511e-05
3.29854675407e-05
3.29828977902e-05
3.29820059237e-05
3.29828554732e-05
3.29853845498e-05
3.29895159189e-05
3.29950131008e-05
3.30020514089e-05
3.30087341401e-05
3.30214566945e-05
3.29209701005e-05
3.29032076672e-05
3.28926447265e-05
3.28820875874e-05
3.28737773771e-05
3.28675646909e-05
3.28637511901e-05
3.28624437259e-05
3.28637106122e-05
3.28674851547e-05
3.28736629014e-05
3.28819457988e-05
3.28924868849e-05
3.29030483058e-05
3.29208219927e-05
3.28309047686e-05
3.28089348901e-05
3.27954033401e-05
3.278219992e-05
3.27718036337e-05
3.27640744148e-05
3.27593429965e-05
3.27577299138e-05
3.27593045275e-05
3.27639990894e-05
3.27716952967e-05
3.27820656734e-05
3.27952535665e-05
3.28087831267e-05
3.28307622755e-05
3.27467095268e-05
3.27211021164e-05
3.27051326457e-05
3.26898344888e-05
3.26777884859e-05
3.26688744097e-05
3.2663429343e-05
3.2661580018e-05
3.26633932369e-05
3.26688037718e-05
3.26776870085e-05
3.2689708788e-05
3.27049922229e-05
3.27209592955e-05
3.27465739016e-05
3.26674164055e-05
3.26387338613e-05
3.26207638566e-05
3.26038289107e-05
3.25904900299e-05
3.25806590212e-05
3.25746636464e-05
3.2572632892e-05
3.25746299667e-05
3.25805932262e-05
3.25903956258e-05
3.26037120226e-05
3.26206331467e-05
3.26386005602e-05
3.26672886255e-05
3.2593402618e-05
3.25622284882e-05
3.25426488138e-05
3.25244866212e-05
3.25101701425e-05
3.24996556976e-05
3.24932514141e-05
3.24910864471e-05
3.24932203102e-05
3.24995950335e-05
3.25100832677e-05
3.25243791871e-05
3.25425286636e-05
3.25621056311e-05
3.25932834276e-05
3.25246145568e-05
3.2491493038e-05
3.24706218865e-05
3.24515733541e-05
3.24365392526e-05
3.24255316388e-05
3.24188335705e-05
3.24165727739e-05
3.24188050021e-05
3.24254760253e-05
3.24364597925e-05
3.24514752382e-05
3.24705122243e-05
3.2491380739e-05
3.25245044692e-05
3.24607129921e-05
3.24261393376e-05
3.24042400446e-05
3.23845907923e-05
3.23690574495e-05
3.23577145326e-05
3.23508184542e-05
3.23484937629e-05
3.23507923793e-05
3.23576638709e-05
3.23689852619e-05
3.23845018552e-05
3.24041407517e-05
3.24260375207e-05
3.2460611918e-05
3.2401334527e-05
3.23657702715e-05
3.23430853036e-05
3.23230889601e-05
3.23072527022e-05
3.22957145545e-05
3.22887058487e-05
3.22863456898e-05
3.22886821004e-05
3.22956685221e-05
3.23071872711e-05
3.23230085814e-05
3.23429957471e-05
3.2365678387e-05
3.24012422721e-05
3.23461477643e-05
3.23100356982e-05
3.22868159937e-05
3.22667096356e-05
3.22507558792e-05
3.22391535153e-05
3.22321123183e-05
3.2229743575e-05
3.22320907017e-05
3.22391116742e-05
3.22506966058e-05
3.22666369934e-05
3.22867352717e-05
3.23099527977e-05
3.23460634305e-05
3.22948321751e-05
3.2258642216e-05
3.22351779402e-05
3.22151858239e-05
3.21992889756e-05
3.21877453752e-05
3.21807479921e-05
3.21783962578e-05
3.21807282297e-05
3.21877071919e-05
3.21992349512e-05
3.22151198396e-05
3.22351047718e-05
3.22585670388e-05
3.22947547999e-05
3.22469866173e-05
3.22113670627e-05
3.21880202116e-05
3.21683409601e-05
3.21526563905e-05
3.21412868017e-05
3.21344062247e-05
3.21320968244e-05
3.21343879466e-05
3.21412514726e-05
3.21526066326e-05
3.2168280222e-05
3.2187952954e-05
3.22112977651e-05
3.22469143514e-05
3.22023119781e-05
3.21680370798e-05
3.2145136251e-05
3.21259429755e-05
3.21106376025e-05
3.20995845774e-05
3.20929155555e-05
3.2090680409e-05
3.20928983059e-05
3.20995513961e-05
3.21105907288e-05
3.21258859303e-05
3.21450731235e-05
3.21679717163e-05
3.22022429981e-05
3.21623120381e-05
3.21278413562e-05
3.2105788821e-05
3.20872200902e-05
3.20725741136e-05
3.20620885141e-05
3.20557911552e-05
3.20536853749e-05
3.2055774701e-05
3.20620568395e-05
3.20725295375e-05
3.20871657056e-05
3.21057281672e-05
3.21277781033e-05
3.21622448341e-05
2.07849292577e-05
2.07883713511e-05
2.07911369836e-05
2.07938438614e-05
2.07962534398e-05
2.07981276035e-05
2.07993220871e-05
2.07997255299e-05
2.07993020358e-05
2.07980867842e-05
2.07961914128e-05
2.07937617644e-05
2.07910401576e-05
2.07882679269e-05
2.07848301722e-05
2.07980033763e-05
2.08021099397e-05
2.08055124616e-05
2.08087959983e-05
2.08116992004e-05
2.08139479777e-05
2.08153781418e-05
2.0815862722e-05
2.0815358336e-05
2.08139077298e-05
2.08116381129e-05
2.08087151474e-05
2.08054167628e-05
2.08020075121e-05
2.07979046976e-05
2.08166546261e-05
2.08223872626e-05
2.08271611959e-05
2.08317185956e-05
2.0835707882e-05
2.08387795984e-05
2.08407250256e-05
2.08413852841e-05
2.08407054171e-05
2.08387399568e-05
2.08356481101e-05
2.08316399937e-05
2.08270681675e-05
2.08222874476e-05
2.08165573071e-05
2.0842174874e-05
2.08505873244e-05
2.08575012148e-05
2.08640080825e-05
2.08696377005e-05
2.08739425131e-05
2.08766545102e-05
2.0877575043e-05
2.08766352676e-05
2.08739037852e-05
2.08695796191e-05
2.08639320875e-05
2.08574113735e-05
2.08504906491e-05
2.08420799434e-05
2.08749712886e-05
2.08868099135e-05
2.08963305667e-05
2.09051630212e-05
2.09127177713e-05
2.09184542282e-05
2.09220488691e-05
2.09232679392e-05
2.09220302173e-05
2.09184168461e-05
2.09126620504e-05
2.0905090463e-05
2.08962449106e-05
2.08867172912e-05
2.0874879326e-05
2.09138708629e-05
2.09294953589e-05
2.09417595867e-05
2.0952986292e-05
2.09624884627e-05
2.09696554293e-05
2.09741239456e-05
2.0975637227e-05
2.09741059989e-05
2.0969619588e-05
2.09624352316e-05
2.09529172401e-05
2.09416781018e-05
2.09294070872e-05
2.09137824635e-05
2.09571704706e-05
2.0976595721e-05
2.09914859703e-05
2.10049468361e-05
2.10162319774e-05
2.10246910051e-05
2.10299406727e-05
2.10317156504e-05
2.10299235643e-05
2.10246569675e-05
2.10161816593e-05
2.10048818227e-05
2.09914092655e-05
2.09765123597e-05
2.09570860049e-05
2.10031877734e-05
2.10261571887e-05
2.10433858032e-05
2.10587729067e-05
2.10715621715e-05
2.10810938802e-05
2.10869839842e-05
2.10889722562e-05
2.10869677657e-05
2.10810617053e-05
2.1071514782e-05
2.10587118523e-05
2.10433138572e-05
2.10260787907e-05
2.10031078579e-05
2.10504475091e-05
2.10765124683e-05
2.10956947368e-05
2.11126229406e-05
2.11265840207e-05
2.11369343128e-05
2.11433049315e-05
2.11454519502e-05
2.11432896806e-05
2.11369041448e-05
2.11265397491e-05
2.11125660646e-05
2.10956277289e-05
2.10764392455e-05
2.10503720742e-05
2.10977372099e-05
2.11263316373e-05
2.11470407828e-05
2.11651012027e-05
2.11798915546e-05
2.11908031267e-05
2.11974942987e-05
2.11997457147e-05
2.11974800258e-05
2.11907749659e-05
2.1179850328e-05
2.11650483755e-05
2.11469785943e-05
2.11262635401e-05
2.1097666673e-05
2.11441102003e-05
2.11746061397e-05
2.11964078614e-05
2.12152040477e-05
2.12304980904e-05
2.12417290496e-05
2.12485913743e-05
2.12508966584e-05
2.12485781129e-05
2.12417029114e-05
2.12304599366e-05
2.12151551946e-05
2.11963503551e-05
2.11745430125e-05
2.11440442437e-05
2.11888367699e-05
2.12205866342e-05
2.12430673095e-05
2.12622434282e-05
2.12777498326e-05
2.12890830223e-05
2.1295982662e-05
2.12982964002e-05
2.12959703976e-05
2.128905889e-05
2.12777145939e-05
2.12621983707e-05
2.12430142346e-05
2.12205282115e-05
2.11887754623e-05
2.12313383277e-05
2.1263746424e-05
2.12865487093e-05
2.13058018416e-05
2.13212626153e-05
2.13325020232e-05
2.13393171454e-05
2.13415982604e-05
2.13393058465e-05
2.13324797664e-05
2.13212301827e-05
2.13057602944e-05
2.12864996667e-05
2.12636922679e-05
2.12312810399e-05
2.12715241736e-05
2.13041497547e-05
2.13268394172e-05
2.13458311248e-05
2.13609389743e-05
2.13718495089e-05
2.13784368812e-05
2.13806368282e-05
2.13784264475e-05
2.13718289542e-05
2.13609089005e-05
2.13457925783e-05
2.1326793947e-05
2.13040993052e-05
2.12714704938e-05
2.13113044821e-05
2.13419338087e-05
2.13639198893e-05
2.1382257872e-05
2.13966196079e-05
2.14069089475e-05
2.14130933284e-05
2.14151544017e-05
2.14130835759e-05
2.14068897948e-05
2.13965915705e-05
2.13822218966e-05
2.13638771335e-05
2.13418863018e-05
2.13112536253e-05
2.23917368624e-05
2.2390947309e-05
2.23894507609e-05
2.23877895467e-05
2.23861892862e-05
2.23848953486e-05
2.23840528916e-05
2.2383754355e-05
2.23840336223e-05
2.23848578556e-05
2.23861359005e-05
2.23877233681e-05
2.23893738925e-05
2.23908649021e-05
2.23916531386e-05
2.23935117191e-05
2.23928114319e-05
2.23914019066e-05
2.23898204594e-05
2.2388278036e-05
2.23870215506e-05
2.23861992911e-05
2.23859069955e-05
2.23861801022e-05
2.23869842045e-05
2.23882248027e-05
2.23897543546e-05
2.23913253027e-05
2.23927290718e-05
2.23934280079e-05
2.23957395066e-05
2.23951651745e-05
2.23938567849e-05
2.23923782994e-05
2.23909131542e-05
2.2389711209e-05
2.23889207576e-05
2.23886390347e-05
2.23889020773e-05
2.23896748225e-05
2.23908611709e-05
2.23923136209e-05
2.23937820604e-05
2.23950845178e-05
2.23956569524e-05
2.23973495298e-05
2.23969001326e-05
2.23956749826e-05
2.23942979169e-05
2.23929162298e-05
2.23917782613e-05
2.23910277753e-05
2.23907598689e-05
2.23910098285e-05
2.239174325e-05
2.23928660218e-05
2.23942351821e-05
2.23956024349e-05
2.23968216709e-05
2.23972687073e-05
2.23986680411e-05
2.23984125379e-05
2.23973174099e-05
2.23961001851e-05
2.23948589419e-05
2.23938319196e-05
2.23931524109e-05
2.23929092003e-05
2.23931354268e-05
2.23937987467e-05
2.23948112669e-05
2.23960404296e-05
2.23972481588e-05
2.23983372671e-05
2.23985896113e-05
2.24001451965e-05
2.24001986233e-05
2.23993162252e-05
2.23983448938e-05
2.23973217282e-05
2.23964661789e-05
2.23958963578e-05
2.23956911628e-05
2.23958804482e-05
2.23964350691e-05
2.23972768641e-05
2.23982884118e-05
2.23992504665e-05
2.24001266721e-05
2.24000697317e-05
2.24020517091e-05
2.24025319501e-05
2.24019444652e-05
2.24012967333e-05
2.24005594572e-05
2.23999264908e-05
2.23994983087e-05
2.23993420548e-05
2.239948362e-05
2.23998977371e-05
2.24005178751e-05
2.24012441472e-05
2.24018829198e-05
2.24024639455e-05
2.24019795264e-05
2.24045207565e-05
2.24055214207e-05
2.24052917372e-05
2.24050187291e-05
2.2404610742e-05
2.24042316179e-05
2.2403964054e-05
2.24038631483e-05
2.24039506255e-05
2.24042052904e-05
2.24045725311e-05
2.24049701152e-05
2.24052344394e-05
2.24054574959e-05
2.24044522142e-05
2.24075871338e-05
2.24091598319e-05
2.24093234348e-05
2.24094444575e-05
2.24093814245e-05
2.24092659033e-05
2.24091642587e-05
2.24091204229e-05
2.24091521232e-05
2.24092420641e-05
2.24093467011e-05
2.24093999999e-05
2.24092705804e-05
2.24091002199e-05
2.24075223128e-05
2.24112110554e-05
2.24133588714e-05
2.241392288e-05
2.24144277737e-05
2.24147002569e-05
2.24148393166e-05
2.24148972471e-05
2.24149081993e-05
2.24148863681e-05
2.24148179084e-05
2.24146689152e-05
2.24143873684e-05
2.24138743874e-05
2.24133035545e-05
2.24111502725e-05
2.24153031299e-05
2.24179801216e-05
2.24189261486e-05
2.24197825199e-05
2.24203622967e-05
2.24207334466e-05
2.24209362873e-05
2.24209970086e-05
2.24209266239e-05
2.24207143604e-05
2.24203342366e-05
2.24197460285e-05
2.24188819413e-05
2.2417929071e-05
2.24152463323e-05
2.24197348658e-05
2.24228545965e-05
2.24241468319e-05
2.24253105794e-05
2.24261589107e-05
2.24267320521e-05
2.24270607952e-05
2.24271646872e-05
2.24270522658e-05
2.24267151638e-05
2.24261338737e-05
2.2425277793e-05
2.24241066787e-05
2.24228077471e-05
2.24196822026e-05
2.24243410246e-05
2.2427805748e-05
2.24294048526e-05
2.24308278432e-05
2.24319001544e-05
2.24326418049e-05
2.24330753052e-05
2.24332153453e-05
2.24330678186e-05
2.24326268536e-05
2.24318779309e-05
2.24307983692e-05
2.24293684453e-05
2.2427762815e-05
2.24242922646e-05
2.24290831873e-05
2.24328089659e-05
2.24346175874e-05
2.24362223176e-05
2.24374496463e-05
2.24383097559e-05
2.24388184021e-05
2.24389843202e-05
2.243881178e-05
2.24382965513e-05
2.24374297115e-05
2.24361957537e-05
2.24345844261e-05
2.24327696054e-05
2.24290381641e-05
2.24347126921e-05
2.2437737532e-05
2.24395958521e-05
2.24412845508e-05
2.24425794066e-05
2.24434975499e-05
2.24440446635e-05
2.24442243598e-05
2.24440387434e-05
2.24434856271e-05
2.24425613716e-05
2.24412602212e-05
2.24395653143e-05
2.24377011744e-05
2.24346709676e-05
1.86749494859e-05
1.86755378949e-05
1.86763237809e-05
1.86771513378e-05
1.86779141731e-05
1.86785266326e-05
1.86789227749e-05
1.86790614029e-05
1.8678926313e-05
1.86785311714e-05
1.86779151204e-05
1.86771427864e-05
1.86763018221e-05
1.86755017275e-05
1.86749048768e-05
1.86757024571e-05
1.86763128077e-05
1.86771267787e-05
1.86779838885e-05
1.86787764337e-05
1.8679413982e-05
1.86798268417e-05
1.86799712904e-05
1.86798299794e-05
1.86794178204e-05
1.86787765739e-05
1.8677974758e-05
1.86771044784e-05
1.86762767596e-05
1.86756576954e-05
1.86762568866e-05
1.86768756128e-05
1.86777032318e-05
1.86785740443e-05
1.86793824085e-05
1.86800341865e-05
1.8680456705e-05
1.86806043664e-05
1.86804590861e-05
1.86800367323e-05
1.8679381133e-05
1.8678564017e-05
1.86776807616e-05
1.86768402701e-05
1.86762124989e-05
1.8676784309e-05
1.8677414807e-05
1.86782585215e-05
1.86791398052e-05
1.86799593433e-05
1.86806211551e-05
1.86810504332e-05
1.86812002407e-05
1.86810519903e-05
1.86806222605e-05
1.86799563902e-05
1.86791284507e-05
1.86782354902e-05
1.86773796803e-05
1.8676740474e-05
1.86773400949e-05
1.86779877691e-05
1.86788546948e-05
1.86797497092e-05
1.86805822873e-05
1.86812552522e-05
1.86816918023e-05
1.8681843872e-05
1.86816924692e-05
1.86812548368e-05
1.86805777027e-05
1.8679737215e-05
1.86788314769e-05
1.86779532271e-05
1.8677296998e-05
1.86779368163e-05
1.86786143651e-05
1.86795173087e-05
1.86804361741e-05
1.86812900801e-05
1.86819803328e-05
1.86824280163e-05
1.86825836577e-05
1.86824278479e-05
1.86819784814e-05
1.86812838569e-05
1.86804224036e-05
1.86794935406e-05
1.86785801884e-05
1.86778944329e-05
1.8678608359e-05
1.86793379813e-05
1.86802949062e-05
1.86812538173e-05
1.86821420851e-05
1.86828590351e-05
1.86833234863e-05
1.86834845616e-05
1.86833225135e-05
1.86828558393e-05
1.86821344332e-05
1.86812390962e-05
1.86802710212e-05
1.86793045297e-05
1.86785669854e-05
1.86793979895e-05
1.86802086877e-05
1.86812381047e-05
1.86822531238e-05
1.86831876733e-05
1.86839392905e-05
1.86844250519e-05
1.86845930527e-05
1.86844233936e-05
1.86839349395e-05
1.86831787746e-05
1.86822375204e-05
1.86812140778e-05
1.86801758814e-05
1.86793578941e-05
1.86803377914e-05
1.86812577761e-05
1.86823730063e-05
1.86834544263e-05
1.86844414254e-05
1.86852307121e-05
1.86857389586e-05
1.86859142008e-05
1.86857367588e-05
1.86852254762e-05
1.86844316785e-05
1.86834384059e-05
1.86823492797e-05
1.86812259825e-05
1.86802990756e-05
1.86814399851e-05
1.86824915555e-05
1.86836969797e-05
1.86848456867e-05
1.86858825991e-05
1.86867055248e-05
1.86872329804e-05
1.86874142281e-05
1.86872303827e-05
1.86866996763e-05
1.86858722779e-05
1.86848295031e-05
1.8683673733e-05
1.86824609524e-05
1.86814030077e-05
1.86826982479e-05
1.86838928116e-05
1.86851826872e-05
1.8686389829e-05
1.8687465518e-05
1.86883115831e-05
1.86888507852e-05
1.86890354544e-05
1.86888479752e-05
1.86883054227e-05
1.86874550658e-05
1.86863738818e-05
1.86851602935e-05
1.86838636108e-05
1.8682663085e-05
1.86840849717e-05
1.86854241672e-05
1.86867862219e-05
1.86880360756e-05
1.86891334757e-05
1.86899873788e-05
1.86905281183e-05
1.86907125694e-05
1.86905252351e-05
1.868998122e-05
1.86891231359e-05
1.86880207105e-05
1.86867649199e-05
1.86853966665e-05
1.86840519551e-05
1.86855514773e-05
1.8687038822e-05
1.86884611422e-05
1.86897344859e-05
1.86908327647e-05
1.86916772039e-05
1.86922075981e-05
1.86923879337e-05
1.86922048146e-05
1.86916711551e-05
1.86908229462e-05
1.8689719861e-05
1.86884411766e-05
1.86870131306e-05
1.8685520684e-05
1.86871422022e-05
1.86887902003e-05
1.86902215333e-05
1.86914751379e-05
1.86925370372e-05
1.86933429364e-05
1.8693845367e-05
1.86940153e-05
1.86938426874e-05
1.86933373394e-05
1.86925277081e-05
1.86914615634e-05
1.8690202979e-05
1.86887665603e-05
1.8687113731e-05
1.86895640579e-05
1.86908631242e-05
1.86921377859e-05
1.86932539815e-05
1.86941902072e-05
1.86948950741e-05
1.86953317004e-05
1.86954789612e-05
1.86953292911e-05
1.8694889873e-05
1.86941817128e-05
1.86932414599e-05
1.86921208033e-05
1.8690841487e-05
1.86895381703e-05
1.72540426266e-05
1.72538437958e-05
1.72535751484e-05
1.72532428851e-05
1.72529246555e-05
1.72526609023e-05
1.72524859592e-05
1.72524202634e-05
1.72524716328e-05
1.72526329874e-05
1.72528844518e-05
1.72531912155e-05
1.72535126523e-05
1.72537736219e-05
1.7253966938e-05
1.72546153714e-05
1.72544390401e-05
1.72541908918e-05
1.72538747491e-05
1.72535682922e-05
1.72533119166e-05
1.72531408862e-05
1.72530764309e-05
1.72531266882e-05
1.72532842296e-05
1.72535283755e-05
1.72538234601e-05
1.72541288858e-05
1.7254369234e-05
1.72545400441e-05
1.72552586957e-05
1.72551007656e-05
1.72548737984e-05
1.72545719732e-05
1.72542759378e-05
1.72540256237e-05
1.72538577864e-05
1.72537944309e-05
1.72538439465e-05
1.72539985439e-05
1.72542367534e-05
1.72545217289e-05
1.72548134561e-05
1.72550326736e-05
1.7255184958e-05
1.72557295484e-05
1.72555727572e-05
1.7255354497e-05
1.72550544752e-05
1.7254759073e-05
1.72545079742e-05
1.72543393167e-05
1.72542757833e-05
1.7254325977e-05
1.72544818149e-05
1.72547210708e-05
1.72550056804e-05
1.72552959808e-05
1.72555066967e-05
1.72556577537e-05
1.72560529196e-05
1.72558877207e-05
1.72556720126e-05
1.72553685303e-05
1.7255070268e-05
1.72548164028e-05
1.72546459062e-05
1.72545819518e-05
1.72546331939e-05
1.72547914178e-05
1.7255033898e-05
1.72553218582e-05
1.72556161775e-05
1.72558245761e-05
1.72559836968e-05
1.72562809615e-05
1.72561076276e-05
1.72558962055e-05
1.72555916691e-05
1.72552938844e-05
1.72550407123e-05
1.72548709151e-05
1.72548074755e-05
1.7254858917e-05
1.72550171009e-05
1.72552594216e-05
1.72555473577e-05
1.72558431028e-05
1.72560473333e-05
1.72562146389e-05
1.72564549252e-05
1.72562816104e-05
1.72560835264e-05
1.72557879812e-05
1.72555005123e-05
1.72552564845e-05
1.72550930294e-05
1.72550321108e-05
1.72550818182e-05
1.7255234401e-05
1.72554682218e-05
1.72557464093e-05
1.72560336514e-05
1.72562246303e-05
1.72563917362e-05
1.72566158415e-05
1.72564590331e-05
1.72562892965e-05
1.7256018437e-05
1.72557557768e-05
1.72555328526e-05
1.72553835562e-05
1.72553278937e-05
1.72553731692e-05
1.7255512371e-05
1.72557257496e-05
1.72559796343e-05
1.72562425512e-05
1.72564052876e-05
1.72565558972e-05
1.72568049093e-05
1.72566864438e-05
1.725656329e-05
1.72563359368e-05
1.72561147547e-05
1.72559262276e-05
1.72557995841e-05
1.72557521111e-05
1.72557900276e-05
1.72559073537e-05
1.72560870293e-05
1.72562999729e-05
1.72565197566e-05
1.72566360428e-05
1.72567482053e-05
1.72570576534e-05
1.72570018216e-05
1.72569430437e-05
1.72567772929e-05
1.72566130992e-05
1.72564709922e-05
1.72563746289e-05
1.7256337906e-05
1.72563658746e-05
1.72564536897e-05
1.72565875804e-05
1.72567440509e-05
1.72569025503e-05
1.72569546091e-05
1.72570042964e-05
1.72573995176e-05
1.72574279903e-05
1.72574474682e-05
1.72573576527e-05
1.72572622555e-05
1.72571755848e-05
1.72571149997e-05
1.72570909156e-05
1.72571070013e-05
1.72571597318e-05
1.72572388334e-05
1.72573269665e-05
1.72574099067e-05
1.72573838619e-05
1.72573493959e-05
1.72578383685e-05
1.72579676461e-05
1.72580739727e-05
1.72580691549e-05
1.72580499357e-05
1.72580238994e-05
1.7258002353e-05
1.72579918598e-05
1.72579950286e-05
1.72580093757e-05
1.72580283379e-05
1.72580408233e-05
1.72580390757e-05
1.72579264723e-05
1.72577914717e-05
1.72583634033e-05
1.72586058625e-05
1.72588027739e-05
1.72588865097e-05
1.72589460133e-05
1.72589827195e-05
1.72590010252e-05
1.72590045922e-05
1.72589942854e-05
1.72589692374e-05
1.72589260654e-05
1.72588600725e-05
1.72587702255e-05
1.72585673058e-05
1.72583195155e-05
1.72590151583e-05
1.72593784952e-05
1.72596373322e-05
1.72597933268e-05
1.7259920827e-05
1.72600118824e-05
1.72600654021e-05
1.72600809644e-05
1.72600590513e-05
1.72599993156e-05
1.72599019517e-05
1.72597684972e-05
1.72596065071e-05
1.72593421292e-05
1.72589738788e-05
1.72601978766e-05
1.72603683309e-05
1.72605873377e-05
1.72607531127e-05
1.72609030234e-05
1.72610163136e-05
1.72610849642e-05
1.72611061494e-05
1.72610789095e-05
1.72610041874e-05
1.72608849556e-05
1.7260729067e-05
1.72605577229e-05
1.72603334013e-05
1.72601585791e-05
1.51218589965e-05
1.51219530152e-05
1.51220798776e-05
1.51222059081e-05
1.51223228556e-05
1.5122416236e-05
1.51224779063e-05
1.51225008713e-05
1.5122481925e-05
1.51224217837e-05
1.51223255721e-05
1.51222010978e-05
1.51220640155e-05
1.51219243639e-05
1.51218213796e-05
1.51222637116e-05
1.51223740216e-05
1.51225180812e-05
1.5122659793e-05
1.51227907621e-05
1.51228951286e-05
1.51229636862e-05
1.51229889078e-05
1.5122967347e-05
1.51229000713e-05
1.51227928425e-05
1.5122654445e-05
1.51225018648e-05
1.51223454827e-05
1.51222261082e-05
1.51226552919e-05
1.51227800936e-05
1.51229404592e-05
1.51230960193e-05
1.51232395239e-05
1.51233533359e-05
1.51234276478e-05
1.51234545349e-05
1.51234304936e-05
1.51233568701e-05
1.5123240034e-05
1.51230894715e-05
1.51229237348e-05
1.51227519728e-05
1.51226180264e-05
1.51230048185e-05
1.51231433341e-05
1.51233189959e-05
1.51234861322e-05
1.51236399767e-05
1.51237615015e-05
1.51238404548e-05
1.51238686076e-05
1.51238424274e-05
1.51237635185e-05
1.51236387235e-05
1.51234780244e-05
1.51233013008e-05
1.51231150521e-05
1.51229680068e-05
1.51233360055e-05
1.5123488317e-05
1.51236799044e-05
1.51238582982e-05
1.51240220088e-05
1.51241507343e-05
1.51242338947e-05
1.51242630995e-05
1.51242348499e-05
1.51241509891e-05
1.51240187768e-05
1.51238485788e-05
1.5123661424e-05
1.51234601255e-05
1.51232996963e-05
1.51236595365e-05
1.51238271583e-05
1.51240358931e-05
1.5124225594e-05
1.51243991332e-05
1.51245350927e-05
1.5124622543e-05
1.51246528708e-05
1.51246225795e-05
1.5124533753e-05
1.51243940436e-05
1.51242142195e-05
1.51240163316e-05
1.51237987977e-05
1.51236236401e-05
1.51239808032e-05
1.51241663053e-05
1.51243940518e-05
1.51245964651e-05
1.51247809437e-05
1.51249250116e-05
1.51250172741e-05
1.51250489012e-05
1.51250163923e-05
1.51249221099e-05
1.5124774112e-05
1.51245836842e-05
1.51243738072e-05
1.5124138102e-05
1.51239455538e-05
1.51243070403e-05
1.51245149596e-05
1.51247644368e-05
1.51249816825e-05
1.51251788252e-05
1.51253324428e-05
1.51254305008e-05
1.51254638226e-05
1.51254288583e-05
1.51253282456e-05
1.51251705239e-05
1.51249676678e-05
1.51247435258e-05
1.5124486849e-05
1.51242726399e-05
1.51246469473e-05
1.51248827638e-05
1.51251573002e-05
1.51253923596e-05
1.51256045787e-05
1.51257696845e-05
1.51258747376e-05
1.51259102203e-05
1.51258724738e-05
1.51257644441e-05
1.51255951966e-05
1.51253775787e-05
1.51251362037e-05
1.51248551451e-05
1.51246134839e-05
1.51250090513e-05
1.51252795947e-05
1.51255823733e-05
1.51258379893e-05
1.51260673408e-05
1.51262454512e-05
1.51263585071e-05
1.51263965202e-05
1.51263557753e-05
1.51262394676e-05
1.51260571769e-05
1.51258227352e-05
1.51255613121e-05
1.51252526273e-05
1.51249768517e-05
1.51254012719e-05
1.51257129e-05
1.51260457626e-05
1.5126323602e-05
1.51265710093e-05
1.51267628558e-05
1.5126884239e-05
1.51269249796e-05
1.51268812222e-05
1.51267564197e-05
1.51265605124e-05
1.5126308286e-05
1.51260251485e-05
1.51256868405e-05
1.51253703998e-05
1.51258260147e-05
1.51261843574e-05
1.51265478073e-05
1.5126848028e-05
1.5127113326e-05
1.51273182913e-05
1.51274477064e-05
1.51274909892e-05
1.51274445257e-05
1.51273117069e-05
1.51271026943e-05
1.51268329965e-05
1.51265278773e-05
1.51261594883e-05
1.51257967535e-05
1.51262799109e-05
1.51266903857e-05
1.51270836771e-05
1.51274051824e-05
1.51276866306e-05
1.51279037132e-05
1.51280398957e-05
1.51280855601e-05
1.51280367413e-05
1.51278970385e-05
1.51276763143e-05
1.51273905196e-05
1.51270646845e-05
1.51266668325e-05
1.51262523409e-05
1.51268091387e-05
1.51272772004e-05
1.51276768731e-05
1.51280045019e-05
1.51282915613e-05
1.51285116818e-05
1.51286495765e-05
1.5128695503e-05
1.51286464316e-05
1.51285053466e-05
1.51282814588e-05
1.51279906574e-05
1.51276588286e-05
1.51272551906e-05
1.51267832887e-05
1.51277811575e-05
1.51280820798e-05
1.51283949755e-05
1.51286678428e-05
1.51289131211e-05
1.51291020325e-05
1.51292198632e-05
1.51292590786e-05
1.512921697e-05
1.51290959974e-05
1.51289037632e-05
1.51286547587e-05
1.51283782172e-05
1.51280614996e-05
1.51277572773e-05
1.33394723714e-05
1.33394707718e-05
1.33394581556e-05
1.3339423065e-05
1.33393829265e-05
1.33393451972e-05
1.33393172358e-05
1.33393027892e-05
1.33393031386e-05
1.33393168956e-05
1.33393405751e-05
1.33393679955e-05
1.33393935887e-05
1.33394022976e-05
1.33394027391e-05
1.33397891149e-05
1.3339799208e-05
1.33397980103e-05
1.33397732013e-05
1.33397416743e-05
1.3339710237e-05
1.33396860977e-05
1.33396729666e-05
1.33396721671e-05
1.33396823236e-05
1.33397000134e-05
1.33397191521e-05
1.3339734659e-05
1.33397315421e-05
1.33397199739e-05
1.33401072178e-05
1.33401262102e-05
1.33401348253e-05
1.33401179331e-05
1.33400932701e-05
1.33400668615e-05
1.33400458072e-05
1.33400338294e-05
1.33400322966e-05
1.33400398583e-05
1.33400531022e-05
1.334006589e-05
1.33400737318e-05
1.33400604057e-05
1.33400396374e-05
1.33403580289e-05
1.33403800574e-05
1.33403943611e-05
1.33403809571e-05
1.3340359552e-05
1.33403354865e-05
1.33403159015e-05
1.33403045803e-05
1.33403029565e-05
1.33403096765e-05
1.33403212832e-05
1.33403314578e-05
1.33403361141e-05
1.33403167926e-05
1.33402923709e-05
1.33405590531e-05
1.33405811107e-05
1.33405991646e-05
1.3340587091e-05
1.33405672567e-05
1.33405444068e-05
1.33405256835e-05
1.33405148914e-05
1.3340513505e-05
1.33405201852e-05
1.3340531423e-05
1.33405407644e-05
1.33405444187e-05
1.3340521151e-05
1.33404959995e-05
1.33407270665e-05
1.33407487333e-05
1.3340770261e-05
1.33407593149e-05
1.33407409934e-05
1.33407194653e-05
1.33407017291e-05
1.33406915497e-05
1.33406903927e-05
1.33406969614e-05
1.33407077733e-05
1.33407163697e-05
1.33407192849e-05
1.33406922344e-05
1.33406669935e-05
1.33408726377e-05
1.33408952138e-05
1.33409216638e-05
1.33409131866e-05
1.33408976633e-05
1.33408786392e-05
1.33408627306e-05
1.33408534986e-05
1.33408523251e-05
1.33408580037e-05
1.33408672227e-05
1.33408737568e-05
1.33408745884e-05
1.33408424142e-05
1.33408156185e-05
1.33410060409e-05
1.33410330214e-05
1.33410671749e-05
1.33410639149e-05
1.33410537248e-05
1.33410393235e-05
1.33410266444e-05
1.33410188502e-05
1.33410171581e-05
1.33410205259e-05
1.33410259955e-05
1.33410279102e-05
1.33410238795e-05
1.33409838164e-05
1.33409520913e-05
1.33411379191e-05
1.33411744828e-05
1.33412202254e-05
1.33412259796e-05
1.33412244711e-05
1.33412174435e-05
1.33412097931e-05
1.33412040531e-05
1.33412011814e-05
1.33412003768e-05
1.33411992526e-05
1.33411931002e-05
1.33411803837e-05
1.33411286475e-05
1.3341086837e-05
1.3341278393e-05
1.3341330933e-05
1.33413924922e-05
1.33414114397e-05
1.33414223227e-05
1.33414256813e-05
1.33414249925e-05
1.33414219471e-05
1.33414171716e-05
1.3341410164e-05
1.3341399352e-05
1.3341381355e-05
1.33413557348e-05
1.33412881073e-05
1.33412300329e-05
1.33414361987e-05
1.33415113181e-05
1.3341592609e-05
1.33416286252e-05
1.3341655311e-05
1.33416717984e-05
1.33416798185e-05
1.33416800317e-05
1.33416726575e-05
1.33416575755e-05
1.3341634201e-05
1.33416008544e-05
1.33415584579e-05
1.33414711465e-05
1.33413902728e-05
1.33416156658e-05
1.33417196669e-05
1.33418237572e-05
1.33418800558e-05
1.33419255132e-05
1.33419575315e-05
1.33419757389e-05
1.33419796687e-05
1.33419690987e-05
1.33419443046e-05
1.33419058759e-05
1.33418541342e-05
1.33417917074e-05
1.33416817297e-05
1.33415720265e-05
1.33418163168e-05
1.33419549431e-05
1.33420840314e-05
1.33421630021e-05
1.33422298265e-05
1.33422794001e-05
1.33423091177e-05
1.33423171136e-05
1.33423028182e-05
1.33422669245e-05
1.33422111979e-05
1.33421383816e-05
1.33420535371e-05
1.33419187639e-05
1.33417746967e-05
1.3342073769e-05
1.33422519213e-05
1.33423907616e-05
1.33424848772e-05
1.33425686839e-05
1.33426328259e-05
1.3342671945e-05
1.33426832854e-05
1.33426658648e-05
1.33426206731e-05
1.33425506066e-05
1.33424609207e-05
1.33423610457e-05
1.33422167429e-05
1.33420334807e-05
1.33426596023e-05
1.33427147522e-05
1.33427958986e-05
1.33428622197e-05
1.33429307268e-05
1.33429852287e-05
1.33430188361e-05
1.33430283273e-05
1.33430126981e-05
1.33429730388e-05
1.334291252e-05
1.33428380844e-05
1.33427661696e-05
1.33426798252e-05
1.33426200291e-05
1.15804995416e-05
1.15804945052e-05
1.15804994758e-05
1.15805040874e-05
1.15805118354e-05
1.15805198236e-05
1.15805271963e-05
1.15805330654e-05
1.15805370439e-05
1.15805386628e-05
1.15805375376e-05
1.15805326991e-05
1.15805249974e-05
1.15805093978e-05
1.1580499231e-05
1.15807362369e-05
1.15807414158e-05
1.15807565997e-05
1.15807698404e-05
1.15807847801e-05
1.15807980973e-05
1.15808087122e-05
1.15808156122e-05
1.15808183554e-05
1.15808165179e-05
1.15808098883e-05
1.15807977332e-05
1.15807814483e-05
1.15807560892e-05
1.15807358834e-05
1.15809886004e-05
1.15810036658e-05
1.158102976e-05
1.15810514721e-05
1.15810733906e-05
1.15810916452e-05
1.15811052049e-05
1.15811129867e-05
1.1581114512e-05
1.15811093979e-05
1.15810975684e-05
1.15810784483e-05
1.15810540892e-05
1.15810187033e-05
1.15809889437e-05
1.15812014385e-05
1.15812238082e-05
1.15812583151e-05
1.15812857051e-05
1.15813122076e-05
1.15813336213e-05
1.15813489927e-05
1.15813572348e-05
1.15813578617e-05
1.15813505217e-05
1.1581335216e-05
1.15813114154e-05
1.15812816918e-05
1.15812386496e-05
1.15812025798e-05
1.15813850469e-05
1.15814129175e-05