/*--------------------------------*- C++ -*----------------------------------*\
  =========                 |
  \\      /  F ield         | OpenFOAM: The Open Source CFD Toolbox
   \\    /   O peration     | Website:  https://openfoam.org
    \\  /    A nd           | Version:  7
     \\/     M anipulation  |
\*---------------------------------------------------------------------------*/
FoamFile
{
    version     2.0;
    format      ascii;
    class       surfaceScalarField;
    location    "0.04";
    object      phi;
}
// * * * * * * * * * * * * * * * * * * * * * * * * * * * * * * * * * * * * * //

dimensions      [0 3 -1 0 0 0 0];

internalField   nonuniform List<scalar> 
65775
(
5.33351550645e-11
7.97142545266e-09
1.63983279651e-09
9.2508104674e-14
7.5665013923e-11
8.32889932295e-09
1.81397023029e-09
8.82883984501e-11
8.62344767676e-09
1.97929682358e-09
8.59084591358e-11
8.87774582618e-09
2.12759254699e-09
7.13914415783e-11
9.07880527144e-09
2.25145438842e-09
4.70440895454e-11
9.22532481026e-09
2.34481467596e-09
1.64700041689e-11
9.31732673265e-09
2.40371247746e-09
-1.63133636111e-11
9.3524368176e-09
2.42487383833e-09
-4.68957352815e-11
9.31726068426e-09
2.40371468897e-09
-7.12632211671e-11
9.22518923777e-09
2.34481911526e-09
-8.58154092904e-11
9.07860243525e-09
2.25146106377e-09
-8.82431508633e-11
8.87749080345e-09
2.1276009285e-09
-7.5671511698e-11
8.62317589199e-09
1.97930562154e-09
-5.33807697308e-11
8.32865447793e-09
1.81397820718e-09
7.97126958324e-09
1.63984186727e-09
2.71463571919e-14
1.32870631656e-10
1.31359730791e-08
3.90979141476e-09
4.17103433964e-13
2.13712493244e-10
1.36547937935e-08
4.29956195387e-09
2.50597376919e-10
1.4074621401e-08
4.66562080824e-09
2.46128513998e-10
1.44291490228e-08
4.99111511324e-09
2.05001338118e-10
1.4706731339e-08
5.26100052908e-09
1.35282017465e-10
1.49070802011e-08
5.46332327569e-09
4.73912891039e-11
1.50327774272e-08
5.59057472516e-09
-4.66959501511e-11
1.50813904895e-08
5.63629257703e-09
-1.34624350176e-10
1.50326354387e-08
5.5905790803e-09
-2.04430220974e-10
1.49067958081e-08
5.4633323695e-09
-2.45702520864e-10
1.47063105829e-08
5.2610146352e-09
-2.50368547247e-10
1.44286197512e-08
4.99113317391e-09
-2.13698506606e-10
1.40740457783e-08
4.66563982999e-09
-1.33036317819e-10
1.36542715375e-08
4.29957910752e-09
1.31356209135e-08
3.90981020498e-09
1.4878702668e-13
1.92910649655e-10
1.62245199535e-08
5.4685228331e-09
4.3402321851e-13
3.1938047341e-10
1.67780661295e-08
5.99739356908e-09
3.74151175122e-10
1.72216822727e-08
6.48985329388e-09
3.66983074381e-10
1.7584356776e-08
6.92483409871e-09
3.05034563785e-10
1.7864846243e-08
7.28348599243e-09
2.0094013619e-10
1.80647436217e-08
7.55121253127e-09
7.02219139166e-11
1.81900771722e-08
7.71912152039e-09
-6.94917935019e-11
1.8239463928e-08
7.77936307401e-09
-2.00250530638e-10
1.8189879041e-08
7.71912992875e-09
-3.04435587176e-10
1.80643484566e-08
7.55122936218e-09
-3.66534085491e-10
1.78642671346e-08
7.28351095936e-09
-3.7390473028e-10
1.75836378169e-08
6.92486494061e-09
-3.19355951999e-10
1.7220904308e-08
6.48988504605e-09
-1.93073627176e-10
1.67773496169e-08
5.9974214232e-09
1.62239997417e-08
5.46855074208e-09
1.6049515626e-13
2.39404625135e-10
1.77613522385e-08
6.51649952583e-09
4.76261237561e-13
3.99068306904e-10
1.82726887419e-08
7.13375240246e-09
4.67300773727e-10
1.86797236739e-08
7.70350300611e-09
4.57231724681e-10
1.89988796081e-08
8.20331325357e-09
3.79212161674e-10
1.92413476448e-08
8.61306990142e-09
2.49371948766e-10
1.94112104575e-08
8.91761063015e-09
8.70393241465e-11
1.9517681495e-08
9.10802820574e-09
-8.62113238799e-11
1.956079785e-08
9.176223016e-09
-2.48592176389e-10
1.95174397138e-08
9.10803791518e-09
-3.78536194959e-10
1.94107315916e-08
8.9176301437e-09
-4.56722744058e-10
1.92406493772e-08
8.61309858976e-09
-4.67013882152e-10
1.89980141785e-08
8.20334830662e-09
-3.99024078855e-10
1.86787851794e-08
7.70353867961e-09
-2.39567315506e-10
1.82718176742e-08
7.13378291579e-09
1.77606975447e-08
6.51652849017e-09
1.89229464347e-13
2.73911926383e-10
1.81616139021e-08
7.1613267254e-09
5.02365169162e-13
4.57490395628e-10
1.85883815691e-08
7.82962154019e-09
5.35665853732e-10
1.89283960901e-08
8.4409554066e-09
5.23096570107e-10
1.91806363853e-08
8.97342095522e-09
4.33056650637e-10
1.93674063631e-08
9.40739578465e-09
2.8436723706e-10
1.94950752606e-08
9.72849232602e-09
9.9158111136e-11
1.95751416469e-08
9.9286212343e-09
-9.82610160707e-11
1.96089512326e-08
1.00001401736e-08
-2.83523944002e-10
1.95748797623e-08
9.92863074687e-09
-4.32326639809e-10
1.94945577603e-08
9.72851121211e-09
-5.22544096621e-10
1.93666568928e-08
9.40742325247e-09
-5.35345649676e-10
1.91797121078e-08
8.97345417344e-09
-4.5742199112e-10
1.89273952836e-08
8.44098876636e-09
-2.74060797025e-10
1.85874393908e-08
7.82964911034e-09
1.81608698344e-08
7.16135173254e-09
2.15432273194e-13
2.99033303102e-10
1.77545674519e-08
7.48630139262e-09
5.08101115577e-13
4.98926274476e-10
1.80793715107e-08
8.17890523293e-09
5.83955568308e-10
1.83424417001e-08
8.80681484774e-09
5.6927623161e-10
1.85230132147e-08
9.34980010701e-09
4.70570301297e-10
1.86516314665e-08
9.78979515911e-09
3.08621283579e-10
1.87362334329e-08
1.01139142295e-08
1.07528754294e-10
1.87894336511e-08
1.03152681011e-08
-1.06597264156e-10
1.88134989658e-08
1.0387035348e-08
-3.07746831685e-10
1.87891627752e-08
1.03152761791e-08
-4.69813042609e-10
1.87357006203e-08
1.01139301185e-08
-5.68699064897e-10
1.86508629284e-08
9.78981809267e-09
-5.83610495461e-10
1.85220676465e-08
9.34982758476e-09
-4.98832797355e-10
1.83414149934e-08
8.8068419308e-09
-2.99159425109e-10
1.8078397478e-08
8.17892657639e-09
1.77537753207e-08
7.48632010209e-09
2.36025552355e-13
3.17287271615e-10
1.67981816996e-08
7.56019408543e-09
4.97309479632e-13
5.27336718249e-10
1.70208973619e-08
8.2590879473e-09
6.16537819458e-10
1.72098895834e-08
8.88729371615e-09
6.0001690195e-10
1.73250813642e-08
9.42681366522e-09
4.95302014934e-10
1.74019031726e-08
9.86163693824e-09
3.24496864632e-10
1.7448966159e-08
1.0180636134e-08
1.12980898444e-10
1.74788286975e-08
1.03781701863e-08
-1.12045918302e-10
1.74942079895e-08
1.04483466795e-08
-3.23619592997e-10
1.74785642385e-08
1.03781762356e-08
-4.94541299064e-10
1.74484477587e-08
1.01806479282e-08
-5.99431944446e-10
1.74011585623e-08
9.86165385458e-09
-6.16176508733e-10
1.73241681159e-08
9.42683369699e-09
-5.27217084712e-10
1.72088961083e-08
8.88731280859e-09
-3.17381681567e-10
1.7019943509e-08
8.25910171893e-09
1.67973752389e-08
7.5602058648e-09
2.51077018613e-13
3.30407880519e-10
1.54910553463e-08
7.44063083932e-09
4.72167207971e-13
5.45888521691e-10
1.56222597902e-08
8.13471570984e-09
6.37129003339e-10
1.57469397728e-08
8.75373566543e-09
6.18997856434e-10
1.58084126817e-08
9.28205145888e-09
5.10338304431e-10
1.58438577897e-08
9.70579842329e-09
3.34045219273e-10
1.58617269371e-08
1.00155521435e-08
1.16234639366e-10
1.58735175176e-08
1.02067637014e-08
-1.15318243959e-10
1.58819491853e-08
1.02744214289e-08
-3.33185229999e-10
1.58732670926e-08
1.02067676489e-08
-5.09590622025e-10
1.58612377005e-08
1.00155597561e-08
-6.18416488088e-10
1.58431575917e-08
9.70580926269e-09
-6.3675743808e-10
1.58075549683e-08
9.28206401893e-09
-5.45743611446e-10
1.5746005103e-08
8.75374676131e-09
-3.30467320825e-10
1.5621354244e-08
8.13472205621e-09
1.54902700385e-08
7.44063616202e-09
2.6120074759e-13
3.3958361262e-10
1.39828587232e-08
7.1753638898e-09
4.38776208763e-13
5.57087716153e-10
1.40385036583e-08
7.85870294946e-09
6.48840626048e-10
1.41113113085e-08
8.46397885368e-09
6.29358296474e-10
1.41322669612e-08
8.97776218544e-09
5.18320471853e-10
1.41377046706e-08
9.38817820116e-09
3.39015725501e-10
1.41352205479e-08
9.6872821514e-09
1.1790263074e-10
1.41344894615e-08
9.87137040613e-09
-1.17019779934e-10
1.4137867869e-08
9.93619073936e-09
-3.38186468005e-10
1.41342609103e-08
9.87137251425e-09
-5.17596756917e-10
1.41347749641e-08
9.68728613087e-09
-6.28788512508e-10
1.41370697138e-08
9.3881837784e-09
-6.48463170733e-10
1.41314899951e-08
8.9777682715e-09
-5.56918672054e-10
1.41104618766e-08
8.46398300503e-09
-3.3960494599e-10
1.40376722829e-08
7.85870295185e-09
1.3982112107e-08
7.17536387405e-09
2.66363255371e-13
3.45651414307e-10
1.23837136797e-08
6.80308066025e-09
3.97922399257e-13
5.62934420718e-10
1.23812694841e-08
7.47330239855e-09
6.54303628981e-10
1.2414594055e-08
8.06354000656e-09
6.3380255134e-10
1.24075170093e-08
8.56228006326e-09
5.21522124404e-10
1.2393510651e-08
8.95936648626e-09
3.40903156793e-10
1.23787135934e-08
9.24805291561e-09
1.18506515205e-10
1.2370485276e-08
9.42522364051e-09
-1.17665402943e-10
1.23705558259e-08
9.48724920716e-09
-3.40112025442e-10
1.23702819875e-08
9.42522431683e-09
-5.20827893913e-10
1.23783191577e-08
9.24805408046e-09
-6.33248728019e-10
1.2392949205e-08
8.9593679847e-09
-6.53923592006e-10
1.24068319035e-08
8.56228111395e-09
-5.6274337036e-10
1.24138428632e-08
8.06353875127e-09
-3.45636440411e-10
1.23805281551e-08
7.47329759412e-09
1.23830294835e-08
6.80307672465e-09
2.67240143215e-13
3.49149416921e-10
1.07727101725e-08
6.35429181265e-09
3.55220935363e-13
5.65039608047e-10
1.07283738275e-08
7.01126242083e-09
6.55806904136e-10
1.07330141672e-08
7.58709549824e-09
6.34702325841e-10
1.07086972465e-08
8.07185190869e-09
5.21907090497e-10
1.06842997039e-08
8.45680121259e-09
3.4097785635e-10
1.06639029203e-08
8.73612688322e-09
1.18483420748e-10
1.06523141939e-08
8.90707909369e-09
-1.17687654887e-10
1.06505415254e-08
8.96653140215e-09
-3.4022748832e-10
1.06521390076e-08
8.90707875258e-09
-5.21245070973e-10
1.06635631589e-08
8.73612605725e-09
-6.34166064075e-10
1.06838193142e-08
8.45679982451e-09
-6.55426689455e-10
1.07081103581e-08
8.07184939528e-09
-5.64828837176e-10
1.07323696875e-08
7.58709046015e-09
-3.49099734428e-10
1.07277309086e-08
7.01125446862e-09
1.07720966916e-08
6.35428547646e-09
2.63444339341e-13
3.50348077101e-10
9.20525521228e-09
5.85239012255e-09
3.11037143697e-13
5.64945042607e-10
9.13173852462e-09
6.49720126665e-09
6.55609283299e-10
9.11651858906e-09
7.06021117088e-09
6.34255262109e-10
9.08414922946e-09
7.53272997613e-09
5.21185485581e-10
9.05688185045e-09
7.9071937025e-09
3.40292630741e-10
9.03613982134e-09
8.17849588552e-09
1.18189753898e-10
9.02434156738e-09
8.34408374714e-09
-1.17438857499e-10
9.02184648067e-09
8.40124345856e-09
-3.39582816224e-10
9.024195757e-09
8.34408273707e-09
-5.20554298248e-10
9.03585892794e-09
8.178493765e-09
-6.33737412362e-10
9.05648260475e-09
7.90719045346e-09
-6.55230048947e-10
9.08366405044e-09
7.53272520744e-09
-5.64717866972e-10
9.11598407386e-09
7.06020385867e-09
-3.50267866184e-10
9.13120093044e-09
6.4971917584e-09
9.20472599008e-09
5.85238289716e-09
2.55851362446e-13
3.49797827641e-10
7.71878496166e-09
5.31480912969e-09
2.72051646134e-13
5.65058570359e-10
7.62348181151e-09
5.94907299435e-09
6.56365239989e-10
7.5965590675e-09
6.50113436326e-09
6.34479751399e-10
7.56448692291e-09
6.96328319948e-09
5.2065680442e-10
7.54039107499e-09
7.32892403287e-09
3.39567835893e-10
7.52303903401e-09
7.59349976699e-09
1.17851807788e-10
7.513112473e-09
7.75453792981e-09
-1.17141877592e-10
7.51067082879e-09
7.80967602941e-09
-3.38894064105e-10
7.51299699317e-09
7.75453652637e-09
-5.20055271605e-10
7.52281433024e-09
7.59349691207e-09
-6.33977829916e-10
7.54007637182e-09
7.3289197791e-09
-6.55987979374e-10
7.56410200707e-09
6.96327732402e-09
-5.64817526218e-10
7.59613336903e-09
6.50112616077e-09
-3.4969087884e-10
7.62304892506e-09
5.94906337618e-09
7.71834203856e-09
5.31480237769e-09
2.45164821104e-13
3.50968479524e-10
6.3346197232e-09
4.7541755085e-09
2.35292166512e-13
5.70220661578e-10
6.22162830186e-09
5.37959150005e-09
6.60796518611e-10
6.19409054155e-09
5.92247709629e-09
6.36268449403e-10
6.16973547257e-09
6.37592574151e-09
5.20432649481e-10
6.15257908148e-09
6.73418364571e-09
3.38706805277e-10
6.14039699054e-09
6.99313298013e-09
1.17428515726e-10
6.13328802794e-09
7.15030528775e-09
-1.16751894402e-10
6.13128015897e-09
7.20365068462e-09
-3.38064334255e-10
6.13320060599e-09
7.15030373551e-09
-5.19853201963e-10
6.14022881077e-09
6.99312989999e-09
-6.35781519965e-10
6.15234055003e-09
6.73417919405e-09
-6.60421414758e-10
6.16944634058e-09
6.37591990826e-09
-5.69968894402e-10
6.19377242304e-09
5.92246945269e-09
-3.50841483537e-10
6.22130156182e-09
5.37958317541e-09
6.33427379676e-09
4.75417025964e-09
2.30786576678e-13
3.79289891055e-10
4.18038898405e-09
2.01178480743e-13
5.03876460955e-09
5.94354825223e-10
4.79841254432e-09
4.94606028953e-09
6.7419681663e-10
5.33332429623e-09
4.92962208983e-09
6.41075460234e-10
5.77914653483e-09
4.91526882094e-09
5.20633710191e-10
6.13091202193e-09
4.90455939832e-09
3.3753533106e-10
6.38489437788e-09
4.89684546464e-09
1.16812635038e-10
6.53860227365e-09
4.89220408347e-09
-1.16162008715e-10
6.59028874601e-09
4.89063879293e-09
-3.36915322656e-10
6.53860079418e-09
4.89214135054e-09
-5.20072509041e-10
6.38489153294e-09
4.89672591322e-09
-6.40596300555e-10
6.13090811622e-09
4.90439270179e-09
-6.738182423e-10
5.77914185267e-09
4.91506952801e-09
-5.94091500865e-10
5.33331867468e-09
4.92940321383e-09
-3.79145946253e-10
4.79840762776e-09
4.9458380461e-09
4.18038488538e-09
2.09026719615e-13
5.03852796669e-09
-2.01467185599e-11
7.41321353177e-10
9.18760919327e-10
3.02005163463e-14
-2.66313174903e-11
8.09425841843e-10
1.0112404049e-09
-2.93053377045e-11
8.83882016048e-10
1.09830187125e-09
-2.84262260444e-11
9.50727171091e-10
1.1761649095e-09
-2.36927561036e-11
1.00579288799e-09
1.24103846538e-09
-1.57183397588e-11
1.04705199255e-09
1.28984972063e-09
-5.51493577537e-12
1.07292133194e-09
1.32062316459e-09
5.4862547126e-12
1.08219380336e-09
1.33170750677e-09
1.57007211792e-11
1.07290137404e-09
1.32062735639e-09
2.36914476517e-11
1.04700094571e-09
1.28985789481e-09
2.84372298794e-11
1.00569650438e-09
1.24104992878e-09
2.93125262634e-11
9.50579641013e-10
1.17617844743e-09
2.66240672989e-11
8.83710475024e-10
1.09831579895e-09
2.01193180708e-11
8.09261732683e-10
1.01125328815e-09
7.41219237044e-10
9.18775209062e-10
-3.2489770409e-15
-3.00109744321e-11
2.04343683012e-09
2.63774780436e-09
1.68733283502e-13
-3.98766508946e-11
2.20982327871e-09
2.90938165587e-09
-4.29487736345e-11
2.38760900344e-09
3.16532776702e-09
-4.08623205626e-11
2.54580523379e-09
3.39424134452e-09
-3.36503336567e-11
2.67476982677e-09
3.58499465358e-09
-2.21346915604e-11
2.77041840971e-09
3.72854468502e-09
-7.69060266503e-12
2.83012625912e-09
3.81898828415e-09
7.83723495705e-12
2.85156744606e-09
3.8514425528e-09
2.2301436325e-11
2.83006676181e-09
3.81899931207e-09
3.38389981034e-11
2.77028154941e-09
3.72856612118e-09
4.10466476335e-11
2.67453215228e-09
3.58502461684e-09
4.30756005389e-11
2.54546166438e-09
3.3942765414e-09
3.9903205953e-11
2.3872132656e-09
3.16536357491e-09
2.99292684736e-11
2.20945250033e-09
2.90941442142e-09
2.04319946144e-09
2.63778214828e-09
2.66332862059e-14
-2.14391407154e-11
3.42318248518e-09
4.11025281793e-09
1.80495354453e-13
-2.68768311698e-11
3.67480010715e-09
4.53813223059e-09
-2.72165723095e-11
3.93808231921e-09
4.93999618459e-09
-2.46719502853e-11
4.17000844427e-09
5.29830322381e-09
-1.97147242004e-11
4.35733912229e-09
5.59610361723e-09
-1.2748301769e-11
4.49499480921e-09
5.81975833581e-09
-4.40315285637e-12
4.58054774303e-09
5.96041232944e-09
4.51611281308e-12
4.61131457999e-09
6.01074254773e-09
1.28812543201e-11
4.58044583357e-09
5.9604290034e-09
1.98702362795e-11
4.49477555099e-09
5.81979074465e-09
2.48246359653e-11
4.35698507387e-09
5.59614900011e-09
2.73158832842e-11
4.16952512576e-09
5.29835657323e-09
2.68777463424e-11
3.93753201775e-09
4.9400502573e-09
2.13344819733e-11
3.67428080098e-09
4.53818094871e-09
3.42281029391e-09
4.11030137879e-09
1.29952459885e-14
-2.17468047939e-12
4.64267356281e-09
5.29917090558e-09
2.10783764777e-13
1.91326259556e-12
4.95212055647e-09
5.85261246609e-09
6.0392663794e-12
5.26823411801e-09
6.36949430007e-09
8.20442612659e-12
5.54328554648e-09
6.82808399368e-09
7.91891492398e-12
5.76319166428e-09
7.20764682613e-09
5.61174792614e-12
5.92322596277e-09
7.49177586002e-09
2.03324122052e-12
6.02221982771e-09
7.66999444913e-09
-1.86717525423e-12
6.05788871502e-09
7.73359627572e-09
-5.43278875487e-12
6.02207917284e-09
7.67001442356e-09
-7.72966820235e-12
5.92293196113e-09
7.49181434004e-09
-8.03281996285e-12
5.7627312979e-09
7.20770049159e-09
-5.93489101375e-12
5.54267405228e-09
6.828146803e-09
-1.91949109811e-12
5.26754279932e-09
6.36955747041e-09
2.05219908092e-12
4.95146603029e-09
5.85266818008e-09
4.6421893135e-09
5.29922391847e-09
1.83921280477e-14
2.28310616807e-11
5.57830227445e-09
6.20279619334e-09
2.50519484276e-13
3.88122935216e-11
5.91612394675e-09
6.84984844029e-09
4.80744124904e-11
6.25038205658e-09
7.4497431106e-09
4.90907163533e-11
6.5372104598e-09
7.97863819541e-09
4.18906530469e-11
6.76381582146e-09
8.41408219362e-09
2.80150163213e-11
6.92697768211e-09
8.73869232037e-09
9.87033459359e-12
7.02738355767e-09
8.94165491536e-09
-9.60815295456e-12
7.06366078767e-09
9.01388937455e-09
-2.77512031165e-11
7.02721585173e-09
8.94167535253e-09
-4.1636692482e-11
6.9266348835e-09
8.73873173356e-09
-4.88775537008e-11
6.76329651102e-09
8.41413708334e-09
-4.79496986771e-11
6.53653677499e-09
7.97870218463e-09
-3.88141406979e-11
6.24962674745e-09
7.44980690318e-09
-2.29617195547e-11
5.91539544835e-09
6.84990353105e-09
5.57772783834e-09
6.20284668157e-09
3.59700060203e-14
4.96890395139e-11
6.18441780673e-09
6.83037011464e-09
2.87722261796e-13
7.83037400269e-11
6.52566478416e-09
7.54094207343e-09
9.26684046073e-11
6.8488561094e-09
8.1941643438e-09
9.19574328517e-11
7.1219239321e-09
8.76594949648e-09
7.7175069522e-11
7.33459919976e-09
9.23390384735e-09
5.11326855831e-11
7.48588196283e-09
9.58112745084e-09
1.7932835677e-11
7.57844242951e-09
9.7974630674e-09
-1.75708072689e-11
7.61201073451e-09
9.87423244318e-09
-5.07806274595e-11
7.57825837114e-09
9.79748191408e-09
-7.68525910563e-11
7.48551052486e-09
9.58116382137e-09
-9.1699079328e-11
7.33404410873e-09
9.23395440877e-09
-9.25185052589e-11
7.12121316729e-09
8.76600817249e-09
-7.82960235199e-11
6.84806060803e-09
8.19422221715e-09
-4.98216686229e-11
6.52489023662e-09
7.54099087969e-09
6.18378758694e-09
6.83041370464e-09
5.92234548617e-14
7.55798170154e-11
6.46654910615e-09
7.20230966997e-09
3.17146489275e-13
1.16574302402e-10
6.79328988718e-09
7.9506192423e-09
1.35587712231e-10
7.08496231062e-09
8.63231557921e-09
1.32805358941e-10
7.32713223049e-09
9.22450150613e-09
1.10510123348e-10
7.51247898528e-09
9.7061387618e-09
7.28394421893e-11
7.64246215879e-09
1.00617900798e-08
2.54767409409e-11
7.72146969599e-09
1.02825544377e-08
-2.50335741963e-11
7.75026710787e-09
1.03606400552e-08
-7.24162482829e-11
7.72128213783e-09
1.02825703284e-08
-1.10133320354e-10
7.64208787416e-09
1.00618207694e-08
-1.32510938404e-10
7.51192731124e-09
9.70618134796e-09
-1.35415825068e-10
7.32643375102e-09
9.22455065801e-09
-1.16553549465e-10
7.084178908e-09
8.63236336761e-09
-7.57052766443e-11
6.79251519777e-09
7.95065836249e-09
6.46588562986e-09
7.20234411703e-09
8.31685060066e-14
9.86812676493e-11
6.46096582676e-09
7.34731690837e-09
3.34904197621e-13
1.51203487199e-10
6.76245383513e-09
8.11315979522e-09
1.74228720722e-10
7.01132916816e-09
8.80446846097e-09
1.69275915944e-10
7.21377986557e-09
9.40046189531e-09
1.40044334133e-10
7.36535617687e-09
9.88223409184e-09
9.19627155322e-11
7.46984677923e-09
1.02363103673e-08
3.20985123878e-11
7.53287221504e-09
1.04552731421e-08
-3.16014907984e-11
7.55599688814e-09
1.05324302669e-08
-9.14928261152e-11
7.53268972151e-09
1.04552854433e-08
-1.39632424519e-10
7.46948481552e-09
1.0236334151e-08
-1.68957817564e-10
7.36482641182e-09
9.88226702444e-09
-1.74040952533e-10
7.21311219228e-09
9.40049961328e-09
-1.51169335082e-10
7.01057932369e-09
8.80450433438e-09
-9.87960025082e-11
6.76170234045e-09
8.11318789487e-09
6.46030638226e-09
7.34734158914e-09
1.06033889266e-13
1.18005254318e-10
6.21948515731e-09
7.29860299235e-09
3.43306803169e-13
1.80846320225e-10
6.49088035065e-09
8.06753842991e-09
2.07229846929e-10
6.69344374017e-09
8.75557682787e-09
2.00242799572e-10
6.85411547803e-09
9.34449459665e-09
1.64974560972e-10
6.97102947598e-09
9.8178381716e-09
1.08032739078e-10
7.0499157849e-09
1.01642077555e-08
3.76441386696e-11
7.09705664203e-09
1.03776168989e-08
-3.71219128964e-11
7.11450443809e-09
1.04524854925e-08
-1.07542033671e-10
7.09688766832e-09
1.03776255829e-08
-1.64548334682e-10
7.04958207027e-09
1.01642245743e-08
-1.99915311249e-10
6.97054425596e-09
9.81786138419e-09
-2.07033131639e-10
6.85350506423e-09
9.34452084115e-09
-1.80799965379e-10
6.69275396665e-09
8.7556008383e-09
-1.18103615367e-10
6.49017784197e-09
8.06755580656e-09
6.21884322087e-09
7.29861846179e-09
1.24734595457e-13
1.33208945485e-10
5.79872531733e-09
7.09037478986e-09
3.41214020589e-13
2.04961684358e-10
6.0393686268e-09
7.85314320115e-09
2.34147558526e-10
6.19766134785e-09
8.5302158752e-09
2.25482753589e-10
6.31915149037e-09
9.1059778983e-09
1.85256471933e-10
6.40426910021e-09
9.56641179327e-09
1.21081581702e-10
6.46014327647e-09
9.90204725571e-09
4.21366840118e-11
6.49315445252e-09
1.01081110003e-08
-4.16144343138e-11
6.50550886694e-09
1.01800284924e-08
-1.20592691825e-10
6.49300318341e-09
1.01081164341e-08
-1.84833618281e-10
6.4598460103e-09
9.90205780777e-09
-2.25158320211e-10
6.40383683486e-09
9.56642626442e-09
-2.33949206026e-10
6.31860847779e-09
9.10599384659e-09
-2.04905820494e-10
6.1970437241e-09
8.5302293193e-09
-1.33291549713e-10
6.03873032578e-09
7.85315124078e-09
5.79812839253e-09
7.09038239159e-09
1.40037265207e-13
1.44426343671e-10
5.25321877814e-09
6.75511426085e-09
3.33462584354e-13
2.23605265591e-10
5.46487364327e-09
7.50664508252e-09
2.5522925092e-10
5.58411181962e-09
8.16908302718e-09
2.4544822291e-10
5.67163506824e-09
8.72920522112e-09
2.01400192237e-10
5.72995450789e-09
9.17520988149e-09
1.3150166561e-10
5.76693112926e-09
9.49927944338e-09
4.57221880301e-11
5.78847637369e-09
9.69757073357e-09
-4.52207105577e-11
5.79665459545e-09
9.76635936175e-09
-1.31032863207e-10
5.788346581e-09
9.69757346981e-09
-2.00995941429e-10
5.76667550506e-09
9.4992847872e-09
-2.45136859686e-10
5.72958438417e-09
9.17521709503e-09
-2.55035679732e-10
5.67116683831e-09
8.72921265786e-09
-2.23543047209e-10
5.58357442201e-09
8.16908784783e-09
-1.44492338877e-10
5.46430836684e-09
7.50664575588e-09
5.25267161004e-09
6.7551157934e-09
1.49644680117e-13
1.5207357246e-10
4.63147932249e-09
6.32179663628e-09
3.19314831716e-13
2.37290688699e-10
4.81680021594e-09
7.0601082893e-09
2.71337827535e-10
4.90326302817e-09
7.70706190082e-09
2.61195183452e-10
4.96309361522e-09
8.25145737703e-09
2.14390292114e-10
5.00058876549e-09
8.68340412016e-09
1.39972580654e-10
5.02344336608e-09
8.99643039324e-09
4.86451047359e-11
5.03657088219e-09
9.18734653277e-09
-4.81796863842e-11
5.04162283276e-09
9.25312178245e-09
-1.39537908214e-10
5.03646378043e-09
9.18734716042e-09
-2.1401464844e-10
5.02323314543e-09
8.99643166502e-09
-2.60905387707e-10
5.00028080265e-09
8.6834056821e-09
-2.71154248339e-10
4.9627027029e-09
8.25145825798e-09
-2.37225903621e-10
4.90280828767e-09
7.70706025211e-09
-1.5212664713e-10
4.81631259846e-09
7.06010376375e-09
4.6309957482e-09
6.32179410356e-09
1.5474492208e-13
1.56730541491e-10
3.97434219914e-09
5.81496938182e-09
3.03798822025e-13
2.47170072591e-10
4.13529852691e-09
6.54017836989e-09
2.84240949626e-10
4.19480416225e-09
7.1725622607e-09
2.7458526696e-10
4.23354520527e-09
7.70252196732e-09
2.25758340564e-10
4.25657107077e-09
8.12179440537e-09
1.47483687389e-10
4.27026191565e-09
8.42498480873e-09
5.12427236837e-11
4.27804052341e-09
8.60932580198e-09
-5.08236126874e-11
4.28103948958e-09
8.67234778741e-09
-1.47091449432e-10
4.27795644334e-09
8.60932488788e-09
-2.25419711056e-10
4.27009503051e-09
8.42498311197e-09
-2.74321357834e-10
4.25632732391e-09
8.12179189388e-09
-2.84071541304e-10
4.2332297255e-09
7.70251824523e-09
-2.47106326322e-10
4.19442924399e-09
7.17255630783e-09
-1.56772579906e-10
4.13488712396e-09
6.54017076758e-09
3.9739196314e-09
5.81496471503e-09
1.53216578899e-13
1.58434203194e-10
3.31533875981e-09
5.25451024097e-09
2.81626437178e-13
2.54982428863e-10
3.45026509834e-09
5.96810953107e-09
2.96756590314e-10
3.4877785275e-09
6.58775794531e-09
2.88316868685e-10
3.51278191292e-09
7.10515883566e-09
2.37574973868e-10
3.52801492032e-09
7.51350985321e-09
1.55301347222e-10
3.53739893476e-09
7.80828664844e-09
5.39501126351e-11
3.54275339307e-09
7.98696621554e-09
-5.35822831591e-11
3.54469694268e-09
8.04753832744e-09
-1.54956932957e-10
3.54269029312e-09
7.98696431772e-09
-2.37275310535e-10
3.5372726636e-09
7.80828307787e-09
-2.88083297852e-10
3.52782655241e-09
7.51350485408e-09
-2.96605458599e-10
3.51253510405e-09
7.10515250745e-09
-2.54923707761e-10
3.48748157104e-09
6.58774993539e-09
-1.58471180074e-10
3.44992880368e-09
5.96810092833e-09
3.31498213442e-09
5.25450503366e-09
1.43239048123e-13
1.44437833527e-10
4.65522756487e-09
2.56243086622e-13
2.69584598157e-09
2.59578866473e-10
5.35987106532e-09
2.77369423187e-09
3.1034777628e-10
5.96884658741e-09
2.80151721171e-09
3.04271646562e-10
6.47575720133e-09
2.82226983286e-09
2.5157694908e-10
6.87507587215e-09
2.83656856073e-09
1.64672829623e-10
7.16293815551e-09
2.84628273062e-09
5.72108051665e-11
7.33690812646e-09
2.85192586566e-09
-5.68968673851e-11
7.3953499979e-09
2.85376235429e-09
-1.64378484371e-10
7.33690578154e-09
2.85187770444e-09
-2.51319393958e-10
7.16293377129e-09
2.84618833272e-09
-3.04068293982e-10
6.87506992526e-09
2.83642712907e-09
-3.10212029884e-10
6.47575024546e-09
2.82208388532e-09
-2.59524343872e-10
5.96883878538e-09
2.80128626928e-09
-1.44469261879e-10
5.35986416458e-09
2.7734289116e-09
4.65522218048e-09
1.20304137711e-13
2.6955654831e-09
8.14090197504e-12
4.04155441595e-11
8.70295184451e-10
2.31837692588e-14
1.57772716126e-11
4.15047044445e-11
9.62233428275e-10
2.00435209844e-11
4.49753568268e-11
1.04920808922e-09
2.06571346967e-11
4.83590655616e-11
1.12731909031e-09
1.7706789974e-11
5.15111043609e-11
1.19260674631e-09
1.19007286228e-11
5.39214950651e-11
1.24185128596e-09
4.2233983488e-12
5.54504913541e-11
1.27293769268e-09
-4.12363632141e-12
5.59930456763e-11
1.28412125968e-09
-1.18099144536e-11
5.54134884878e-11
1.27294062922e-09
-1.76330721548e-11
5.3853940156e-11
1.24185702799e-09
-2.06018556209e-11
5.14275458012e-11
1.19261498378e-09
-2.00014094438e-11
4.8270150678e-11
1.12732927537e-09
-1.57564922845e-11
4.48711832095e-11
1.04921924397e-09
-8.13745279775e-12
4.14082272253e-11
9.62244753423e-10
4.03352149594e-11
8.70309320066e-10
1.06469491974e-14
1.9141139062e-11
2.60766627682e-10
2.39841251452e-09
3.33309111628e-14
3.6322183211e-11
2.82625805208e-10
2.65132416557e-09
4.61721411469e-11
3.10646032499e-10
2.89006609026e-09
4.74394367669e-11
3.37604868975e-10
3.10396047586e-09
4.05910277598e-11
3.61159658668e-10
3.28241135539e-09
2.72358423386e-11
3.79175506243e-10
3.41683137266e-09
9.6636745669e-12
3.90574045069e-10
3.5015747796e-09
-9.40085659211e-12
3.94617278211e-10
3.53197864578e-09
-2.69947525449e-11
3.90489920983e-10
3.50158293973e-09
-4.03907974586e-11
3.7901823463e-10
3.41684729726e-09
-4.72841755515e-11
3.60951718136e-10
3.28243415663e-09
-4.60550238538e-11
3.3736482103e-10
3.10398855023e-09
-3.62558879561e-11
3.10371928714e-10
2.89009671677e-09
-1.91271513316e-11
2.82369315714e-10
2.65135510185e-09
2.60568432888e-10
2.39844865492e-09
1.24239473222e-15
2.67761787372e-11
6.44551824215e-10
3.6998138979e-09
3.42716781031e-14
4.9710351349e-11
7.043244583e-10
4.09367551152e-09
6.27739119407e-11
7.73157214007e-10
4.46459836114e-09
6.41819673901e-11
8.38473778992e-10
4.79620227433e-09
5.4736007003e-11
8.94486538697e-10
5.07239297086e-09
3.66245947973e-11
9.37025156514e-10
5.28016773378e-09
1.29405598511e-11
9.63813717901e-10
5.41096797493e-09
-1.26927831733e-11
9.73308948943e-10
5.45776280576e-09
-3.63974569754e-11
9.63697120586e-10
5.41098197811e-09
-5.45470276705e-11
9.36805831509e-10
5.28019479191e-09
-6.40355970493e-11
8.94192849031e-10
5.07243103004e-09
-6.26659833864e-11
8.38134717807e-10
4.79624799179e-09
-4.9649089347e-11
7.72786847441e-10
4.46464683502e-09
-2.67651276764e-11
7.03970199657e-10
4.09372261066e-09
6.44263148126e-10
3.69986547e-09
1.38397487362e-17
3.36119335435e-11
1.12176908862e-09
4.78845071174e-09
3.22919153824e-14
6.07809457262e-11
1.22612767129e-09
5.30381328255e-09
7.59237559937e-11
1.34021340675e-09
5.78747909629e-09
7.71712316785e-11
1.44691217026e-09
6.21857362775e-09
6.55898482091e-11
1.53712688993e-09
6.57674744326e-09
4.37878888005e-11
1.60506251799e-09
6.84567314295e-09
1.54312663416e-11
1.64761510385e-09
7.01465066716e-09
-1.51980666712e-11
1.66267654691e-09
7.07493028719e-09
-4.35738735463e-11
1.64747121609e-09
7.01466881907e-09
-6.54109401091e-11
1.60478944587e-09
6.84570805715e-09
-7.70330137827e-11
1.53675319132e-09
6.57679613755e-09
-7.58248430165e-11
1.44647235105e-09
6.21863129279e-09
-6.07277375882e-11
1.33973619296e-09
5.7875389732e-09
-3.36063534626e-11
1.22567275481e-09
5.30386947553e-09
1.12139949701e-09
4.78850871036e-09
-4.27492367431e-15
4.13365352456e-11
1.61982278387e-09
5.66348237366e-09
3.93384878761e-14
7.25487691582e-11
1.76561683498e-09
6.27926252938e-09
8.9430301024e-11
1.91883334721e-09
6.85436311697e-09
9.02944455003e-11
2.05998918709e-09
7.36482053514e-09
7.64754554155e-11
2.17767893918e-09
7.78746540058e-09
5.09557877019e-11
2.2654521773e-09
8.10392251401e-09
1.79278505936e-11
2.32009087181e-09
8.3022840128e-09
-1.76876070992e-11
2.33940400315e-09
8.37283480568e-09
-5.07350648609e-11
2.31993216034e-09
8.30230433238e-09
-7.62909170242e-11
2.26514929303e-09
8.10396153926e-09
-9.015401019e-11
2.177262502e-09
7.78751953226e-09
-8.93352001403e-11
2.05949776336e-09
7.3648839359e-09
-7.25023457414e-11
1.91830632037e-09
6.8544277353e-09
-4.13367756178e-11
1.76511145343e-09
6.27932123833e-09
1.61939286571e-09
5.66353995714e-09
-4.09971418718e-15
5.06254926291e-11
2.07451237196e-09
6.32509381296e-09
5.3027255463e-14
8.6438636981e-11
2.25168232227e-09
7.01916890881e-09
1.05156853927e-10
2.43103003606e-09
7.66336441346e-09
1.0544981195e-10
2.59363650461e-09
8.23212100719e-09
8.89891519041e-11