/*--------------------------------*- C++ -*----------------------------------*\
  =========                 |
  \\      /  F ield         | OpenFOAM: The Open Source CFD Toolbox
   \\    /   O peration     | Website:  https://openfoam.org
    \\  /    A nd           | Version:  7
     \\/     M anipulation  |
\*---------------------------------------------------------------------------*/
FoamFile
{
    version     2.0;
    format      ascii;
    class       volVectorField;
    location    "0.34";
    object      U;
}
// * * * * * * * * * * * * * * * * * * * * * * * * * * * * * * * * * * * * * //

dimensions      [0 1 -1 0 0 0 0];

internalField   nonuniform List<vector> 
22500
(
(-1.43439910759e-05 -1.61609112582e-05 -1.61171302702e-05)
(-1.33111446402e-05 -1.83967984387e-05 -1.6763518927e-05)
(-1.17448735596e-05 -2.05827192867e-05 -1.73098208563e-05)
(-9.89758926318e-06 -2.24788293876e-05 -1.78115966519e-05)
(-7.71020708398e-06 -2.40508410753e-05 -1.82460446857e-05)
(-5.2844451764e-06 -2.52212454001e-05 -1.85818149038e-05)
(-2.68666016231e-06 -2.59434343553e-05 -1.8795653756e-05)
(9.4902517745e-12 -2.61879056792e-05 -1.88714890934e-05)
(2.68667375632e-06 -2.59434295869e-05 -1.87951444861e-05)
(5.28444517349e-06 -2.52212380581e-05 -1.85808171613e-05)
(7.71019104182e-06 -2.40508342928e-05 -1.82446018791e-05)
(9.8975584798e-06 -2.24788266861e-05 -1.78097902665e-05)
(1.17448326057e-05 -2.05827244148e-05 -1.73077994577e-05)
(1.33110755052e-05 -1.83968296467e-05 -1.67615630848e-05)
(1.4343974764e-05 -1.61609386852e-05 -1.61157271901e-05)
(-4.27062072648e-05 -4.7922816153e-05 -0.00011782692797)
(-3.95652474528e-05 -5.44467193314e-05 -0.000126659662889)
(-3.49737169194e-05 -6.08188557023e-05 -0.000134899608867)
(-2.94632914718e-05 -6.63725827762e-05 -0.000142312665478)
(-2.29716548111e-05 -7.09750376015e-05 -0.000148542075329)
(-1.57504946466e-05 -7.44045887554e-05 -0.000153254766489)
(-8.00973758245e-06 -7.65227798014e-05 -0.000156196404225)
(2.58244681113e-11 -7.72397008686e-05 -0.000157202652487)
(8.00977481922e-06 -7.65227156251e-05 -0.000156194874704)
(1.57504967847e-05 -7.44044663811e-05 -0.000153251771663)
(2.29716207639e-05 -7.09748677313e-05 -0.000148537749596)
(2.94632362811e-05 -6.63723790531e-05 -0.000142307259475)
(3.49736656895e-05 -6.08186351833e-05 -0.00013489357523)
(3.95651936797e-05 -5.44465335726e-05 -0.000126653841391)
(4.27063307347e-05 -4.79226351376e-05 -0.000117822654003)
(-6.89068443163e-05 -7.6953532374e-05 -0.000280041402083)
(-6.36182556868e-05 -8.72251121222e-05 -0.00030217588686)
(-5.62035477919e-05 -9.71741292531e-05 -0.000322879590707)
(-4.72838188756e-05 -0.000105842519032 -0.000341366754817)
(-3.68436176354e-05 -0.000113005958044 -0.00035678289875)
(-2.52488598731e-05 -0.000118337514423 -0.000368375244498)
(-1.28359839193e-05 -0.000121627987254 -0.000375576747357)
(3.23735623807e-10 -0.000122741153172 -0.000378027590754)
(1.28366021038e-05 -0.000121627853895 -0.000375574330613)
(2.52493992088e-05 -0.000118337261263 -0.000368370509621)
(3.68440509905e-05 -0.000113005609208 -0.000356776052284)
(4.72841419531e-05 -0.000105842108016 -0.000341358184935)
(5.62037793195e-05 -9.71736950988e-05 -0.000322870002049)
(6.36184114612e-05 -8.72247417369e-05 -0.000302166592053)
(6.89071889318e-05 -7.69532259271e-05 -0.000280034473741)
(-9.24598124958e-05 -0.000102851625088 -0.000488358568801)
(-8.50813759955e-05 -0.000116198765321 -0.00052624282958)
(-7.50594727434e-05 -0.000129010612366 -0.000561440429503)
(-6.30326849732e-05 -0.000140149517858 -0.000592582822363)
(-4.90600957692e-05 -0.000149324896293 -0.000618337410008)
(-3.35921940035e-05 -0.000156141124546 -0.000637577833504)
(-1.70688487255e-05 -0.000160342865096 -0.000649473769514)
(5.91163336142e-10 -0.000161763316183 -0.000653507743039)
(1.70699936153e-05 -0.000160342679146 -0.000649470662797)
(3.35932353416e-05 -0.000156140770176 -0.000637571740379)
(4.90609900542e-05 -0.000149324405374 -0.000618328582062)
(6.30334153683e-05 -0.00014014893584 -0.000592571737514)
(7.50600527559e-05 -0.000129009992408 -0.000561427964353)
(8.50818365959e-05 -0.000116198216794 -0.000526230642408)
(9.24604529198e-05 -0.00010285118522 -0.000488349320924)
(-0.000113008697565 -0.00012533152772 -0.000725754386038)
(-0.000103666405412 -0.000141009591735 -0.000779154442054)
(-9.12764433135e-05 -0.000155919045581 -0.000828221694006)
(-7.64887076218e-05 -0.0001688423723 -0.000871182369447)
(-5.94466597756e-05 -0.000179449935195 -0.000906391668313)
(-4.06603032551e-05 -0.000187313454558 -0.000932511453923)
(-2.0647057964e-05 -0.000192154086651 -0.000948580757468)
(8.08334399619e-10 -0.000193789266656 -0.00095401259392)
(2.06486348949e-05 -0.000192153875694 -0.000948577192667)
(4.06617690025e-05 -0.000187313051126 -0.000932504452466)
(5.94479633293e-05 -0.000179449373291 -0.00090638149706)
(7.64898237004e-05 -0.000168841700558 -0.00087116954212)
(9.12773778126e-05 -0.000155918323316 -0.000828207168454)
(0.00010366719411 -0.000141008939738 -0.000779140088035)
(0.000113009646608 -0.000125331012641 -0.000725743296049)
(-0.000130328972741 -0.000144209699964 -0.000975813068199)
(-0.000119193527029 -0.000161448771986 -0.00104248427288)
(-0.000104703313912 -0.000177693585839 -0.00110294176893)
(-8.7537031114e-05 -0.000191723546155 -0.00115529496867)
(-6.79200118706e-05 -0.000203197031146 -0.00119781045319)
(-4.63994383325e-05 -0.000211684376353 -0.00122912889936)
(-2.3544302743e-05 -0.000216901774326 -0.00124830230068)
(9.61917996122e-10 -0.000218662932541 -0.00125476450425)
(2.35461892955e-05 -0.000216901567195 -0.0012482985003)
(4.64012192959e-05 -0.000211683979082 -0.00122912142366)
(6.79216357222e-05 -0.000203196475474 -0.00119779956015)
(8.75384686432e-05 -0.00019172287761 -0.00115528116134)
(0.000104704563447 -0.000177692861383 -0.00110292600581)
(0.000119194621646 -0.000161448113003 -0.00104246851827)
(0.000130330209736 -0.000144209189905 -0.000975800704652)
(-0.000144364203599 -0.000159454431949 -0.00122493704681)
(-0.000131633557077 -0.0001775077446 -0.00130156240021)
(-0.000115333226309 -0.000194375830118 -0.00137008654931)
(-9.61903418046e-05 -0.000208885215785 -0.00142879137459)
(-7.45012147253e-05 -0.00022070741386 -0.00147605117665)
(-5.08297752843e-05 -0.00022943540081 -0.00151063492714)
(-2.57725673234e-05 -0.000234793927497 -0.0015317112504)
(1.05631690963e-09 -0.000236601560215 -0.00153879629976)
(2.57746479175e-05 -0.000234793749057 -0.00153170740143)
(5.08317643285e-05 -0.000229435058141 -0.00151062734494)
(7.45030650671e-05 -0.000220706932962 -0.0014760400955)
(9.6192023655e-05 -0.000208884634646 -0.00142877725504)
(0.000115334730228 -0.000194375197493 -0.00137007029165)
(0.000131634910022 -0.000177507175541 -0.0013015459777)
(0.000144365690942 -0.000159454011074 -0.00122492400833)
(-0.000155196596913 -0.000171163739226 -0.0014633018211)
(-0.000141081842068 -0.000189340216041 -0.00154633846879)
(-0.00012327283449 -0.000206194478235 -0.00161959945468)
(-0.000102557668138 -0.000220628292449 -0.00168175238737)
(-7.92874137425e-05 -0.00023234782927 -0.00173139996058)
(-5.40240178458e-05 -0.00024098514477 -0.00176751874611)
(-2.73706342809e-05 -0.000246282334156 -0.00178944262488)
(1.10385018471e-09 -0.000248068337766 -0.00179679601574)
(2.73728165724e-05 -0.000246282204833 -0.00178943887244)
(5.4026126916e-05 -0.00024098489661 -0.00176751134592)
(7.92894098228e-05 -0.000232347481005 -0.00173138911765)
(0.000102559523617 -0.000220627871222 -0.00168173850315)
(0.000123274534345 -0.000206194020644 -0.00161958333606)
(0.000141083406447 -0.00018933982346 -0.00154632204677)
(0.000155198296854 -0.00017116348663 -0.00146328870695)
(-0.000162998947653 -0.00017952108237 -0.00168479150872)
(-0.000147713740964 -0.000197200800489 -0.00177104417148)
(-0.000128698572587 -0.000213484368183 -0.00184621458546)
(-0.00010680450328 -0.000227364268718 -0.00190946099051)
(-8.24182945544e-05 -0.000238597949025 -0.00195965043161)
(-5.60830970937e-05 -0.000246865833378 -0.00199598249073)
(-2.83913230028e-05 -0.000251932229954 -0.00201796115965)
(1.11890789434e-09 -0.000253639728889 -0.00202531900405)
(2.83935422605e-05 -0.000251932163808 -0.00201795761375)
(5.60852623925e-05 -0.0002468657075 -0.00199597549424)
(8.24203751296e-05 -0.000238597774361 -0.00195964016197)
(0.000106806475254 -0.000227364059798 -0.00190944778557)
(0.000128700417133 -0.000213484147101 -0.00184619914316)
(0.000147715473308 -0.000197200652455 -0.00177102835944)
(0.000163000826449 -0.00017952106291 -0.00168477891741)
(-0.000167994180808 -0.000184759125743 -0.00188633738816)
(-0.000151747543611 -0.000201395999455 -0.00197324170668)
(-0.000131822528911 -0.00021662561516 -0.00204819991285)
(-0.000109123232995 -0.000229545177586 -0.0021108559912)
(-8.40519546245e-05 -0.000239973290654 -0.00216030958778)
(-5.71189832764e-05 -0.000247641039978 -0.00219596011239)
(-2.88925442593e-05 -0.000252336836272 -0.00221746478085)
(1.11184276515e-09 -0.000253918935244 -0.00222465250441)
(2.88947558671e-05 -0.000252336842147 -0.00221746152858)
(5.71211592747e-05 -0.000247641054432 -0.00219595369812)
(8.40540738329e-05 -0.000239973316413 -0.00216030016813)
(0.000109125277225 -0.000229545216649 -0.00211084384424)
(0.000131824477456 -0.000216625673233 -0.00204818562465)
(0.000151749409616 -0.000201396143695 -0.00197322708252)
(0.000167996209415 -0.000184759388943 -0.00188632593768)
(-0.000170426182777 -0.000187136218641 -0.00206704458274)
(-0.000153418159153 -0.000202249177731 -0.0021527383762)
(-0.00013286999998 -0.000216003389452 -0.00222607275058)
(-0.00010971448508 -0.000227621148468 -0.00228707010864)
(-8.43497775918e-05 -0.00023698107476 -0.00233499418127)
(-5.72439188172e-05 -0.000243859932904 -0.00236941408438)
(-2.89317092012e-05 -0.000248070507622 -0.00239012317592)
(1.08831092607e-09 -0.000249488673415 -0.00239703524764)
(2.8933879238e-05 -0.000248070588907 -0.00239012029349)
(5.72460696825e-05 -0.000243860094776 -0.00236940841127)
(8.43518976259e-05 -0.000236981312832 -0.00233498586445)
(0.000109716563011 -0.000227621452218 -0.00228705937589)
(0.000132872016112 -0.000216003748527 -0.00222606007797)
(0.000153420126445 -0.000202249640099 -0.00215272551783)
(0.000170428333222 -0.000187136794289 -0.00206703493958)
(-0.000170535257699 -0.000186914345389 -0.00222735540873)
(-0.000152960693549 -0.000200069945051 -0.00231065236181)
(-0.000132068571983 -0.000211982929399 -0.00238157810912)
(-0.000108777467117 -0.000222020327317 -0.00244032741563)
(-8.34676335807e-05 -0.000230101578057 -0.00248627029082)
(-5.65638555329e-05 -0.000236038374618 -0.00251914113087)
(-2.85623014352e-05 -0.000239669461671 -0.0025388671271)
(1.04895706206e-09 -0.000240891781327 -0.00254544205911)
(2.8564397358e-05 -0.000239669617118 -0.00253886468788)
(5.65659458384e-05 -0.000236038682172 -0.00251913635484)
(8.34697161706e-05 -0.000230102026521 -0.00248626333203)
(0.00010877953945 -0.000222020896005 -0.0024403184679)
(0.000132070618758 -0.000211983592274 -0.00238156753793)
(0.000152962730406 -0.000200070729257 -0.00231064186583)
(0.000170537498292 -0.000186915239054 -0.00222734829076)
(-0.000168540469253 -0.000184302949782 -0.00236835769296)
(-0.000150619796315 -0.000195123650759 -0.00244876247662)
(-0.00012965382766 -0.000204903913644 -0.00251702069532)
(-0.000106506695446 -0.000213152493888 -0.00257323860268)
(-8.15498348944e-05 -0.000219792511494 -0.00261693421552)
(-5.51737144266e-05 -0.000224662667983 -0.00264805517401)
(-2.78315196336e-05 -0.000227635463768 -0.00266667758087)
(9.90900179337e-10 -0.000228635001368 -0.00267287574589)
(2.78335026645e-05 -0.000227635686895 -0.00266667565679)
(5.5175702992e-05 -0.00022466310792 -0.00264805145148)
(8.15518349808e-05 -0.000219793153674 -0.00261692888106)
(0.000106508713946 -0.000213153309472 -0.002573231848)
(0.000129655859427 -0.000204904863244 -0.00251701277493)
(0.000150621865174 -0.000195124740444 -0.00244875496404)
(0.000168542772394 -0.000184304135224 -0.00236835376093)
(-0.000164740336749 -0.000179460369945 -0.00249123891756)
(-0.000146734608658 -0.000187677009353 -0.00256923033409)
(-0.000125883920069 -0.000195105834989 -0.00263491869964)
(-0.000103082378437 -0.000201424224507 -0.00268840155168)
(-7.87201496851e-05 -0.000206490505264 -0.00272961785215)
(-5.31530137972e-05 -0.00021018602379 -0.00275881487089)
(-2.67789036453e-05 -0.000212431723628 -0.00277623133654)
(9.09409941758e-10 -0.000213185057596 -0.00278201942265)
(2.67807265808e-05 -0.000212432000384 -0.00277622998897)
(5.3154849058e-05 -0.000210186569668 -0.00275881234028)
(7.87220102017e-05 -0.000206491303625 -0.00272961439357)
(0.000103084282047 -0.00020142524444 -0.00268839742144)
(0.000125885874644 -0.000195107033532 -0.00263491408012)
(0.000146736656144 -0.000187678369854 -0.00256922652132)
(0.000164742649906 -0.000179461820865 -0.00249123863787)
(-0.000159813404427 -0.00017338947584 -0.00259661180259)
(-0.000141846471036 -0.000177884629064 -0.00267460905616)
(-0.000121039905185 -0.000182914188356 -0.00273755771026)
(-9.87237045069e-05 -0.000187140115222 -0.00278797548696)
(-7.51508099236e-05 -0.000190480263595 -0.00282647849519)
(-5.06257025851e-05 -0.000192886979372 -0.00285361533315)
(-2.54699358077e-05 -0.00019433818262 -0.00286975648031)
(8.01353496226e-10 -0.000194823225982 -0.00287511335153)
(2.54715434042e-05 -0.000194338487046 -0.0028697557181)
(5.06273258928e-05 -0.000192887582237 -0.00285361402526)
(7.51524635842e-05 -0.000190481149344 -0.00282647699717)
(9.87254113356e-05 -0.000187141260951 -0.00278797422117)
(0.000121041690859 -0.000182915554909 -0.0027375569142)
(0.000141848423924 -0.000177886211893 -0.00267461020824)
(0.000159815618463 -0.000173391121828 -0.00259661452987)
(3.14934397726e-07 4.51947168659e-07 -9.51002531463e-05)
(2.38223105026e-07 5.86916276039e-07 -9.9779806857e-05)
(1.74596625848e-07 6.85826582615e-07 -0.0001039968365)
(1.29911470462e-07 7.5656745841e-07 -0.000107631856816)
(8.91619917964e-08 8.08880406648e-07 -0.000110579234116)
(5.55743414667e-08 8.44202979223e-07 -0.000112749467243)
(2.64550265753e-08 8.64639045087e-07 -0.00011407973632)
(-3.8420278887e-11 8.71360470153e-07 -0.000114531148571)
(-2.65322070693e-08 8.64632909477e-07 -0.000114079614681)
(-5.56505020639e-08 8.44192927382e-07 -0.000112749226144)
(-8.92298084864e-08 8.08872216414e-07 -0.000110578880196)
(-1.29953843044e-07 7.56572408407e-07 -0.000107631409408)
(-1.74595223541e-07 6.85856299168e-07 -0.000103996346556)
(-2.38174239541e-07 5.86981322159e-07 -9.97794211863e-05)
(-3.14861528901e-07 4.52032072628e-07 -9.5100418161e-05)
(2.53327079949e-06 3.05131126298e-06 -0.000281227226226)
(2.28424260152e-06 3.71922176948e-06 -0.000294663608252)
(1.98396863711e-06 4.31016416934e-06 -0.000306770840351)
(1.66319501223e-06 4.80712454148e-06 -0.000317200541919)
(1.29190718544e-06 5.21122334072e-06 -0.00032565199567)
(8.84325612354e-07 5.50845403147e-06 -0.000331873665951)
(4.49120164062e-07 5.69070848986e-06 -0.000335685748868)
(-2.24881530671e-10 5.75224391106e-06 -0.000336975835702)
(-4.49568417477e-07 5.69069676009e-06 -0.00033568536042)
(-8.84763249681e-07 5.50844094436e-06 -0.000331872897542)
(-1.29230762373e-06 5.21122948409e-06 -0.0003256508717)
(-1.66350768509e-06 4.80718223768e-06 -0.000317199126758)
(-1.98413562726e-06 4.31030093944e-06 -0.000306769292971)
(-2.2842477486e-06 3.71945827156e-06 -0.000294662368954)
(-2.53316780136e-06 3.05160762948e-06 -0.000281227394345)
(5.84785625099e-06 6.82192096858e-06 -0.000462083348791)
(5.379171236e-06 8.13715343423e-06 -0.000483701889735)
(4.74517605813e-06 9.3466765718e-06 -0.000503157178761)
(4.00760817577e-06 1.03871994736e-05 -0.000519903467584)
(3.13388920727e-06 1.12414263831e-05 -0.000533463718535)
(2.15427162812e-06 1.18746448723e-05 -0.000543442168187)
(1.09707258649e-06 1.22645598602e-05 -0.0005495531024)
(-3.269422816e-10 1.23963972171e-05 -0.000551617799131)
(-1.09772192336e-06 1.22645619156e-05 -0.000549552444746)
(-2.15490194347e-06 1.18746623632e-05 -0.000543440868594)
(-3.13446986772e-06 1.12414850898e-05 -0.000533461819668)
(-4.00808615315e-06 1.03873341163e-05 -0.000519901074885)
(-4.74548972271e-06 9.346914096e-06 -0.000503154539914)
(-5.37930416116e-06 8.13750381324e-06 -0.00048369966958)
(-5.84786552086e-06 6.82233704586e-06 -0.000462083146851)
(9.60306001318e-06 1.10391281231e-05 -0.000637327977942)
(8.86138329289e-06 1.29558382599e-05 -0.000666495250373)
(7.83122086653e-06 1.47415071346e-05 -0.0006926876685)
(6.60659683869e-06 1.62812051616e-05 -0.00071520724199)
(5.16184322472e-06 1.75433198557e-05 -0.000733425038037)
(3.5448664666e-06 1.84773987755e-05 -0.000746822240068)
(1.80417441822e-06 1.90516327777e-05 -0.000755022001785)
(-4.56896926638e-10 1.92455476875e-05 -0.000757789093135)
(-1.80508047656e-06 1.90516542504e-05 -0.000755021056281)
(-3.54574451624e-06 1.84774562696e-05 -0.000746820373225)
(-5.16265867014e-06 1.75434407218e-05 -0.000733422311728)
(-6.60729555998e-06 1.6281422754e-05 -0.000715203798178)
(-7.83174170665e-06 1.47418464338e-05 -0.000692683821275)
(-8.86171060912e-06 1.2956299356e-05 -0.00066649181443)
(-9.60325077014e-06 1.10396623515e-05 -0.000637326875272)
(1.32272011266e-05 1.50627853085e-05 -0.000806499225529)
(1.21688443476e-05 1.74255046636e-05 -0.000842513264623)
(1.07222001549e-05 1.96306325637e-05 -0.000874763114624)
(9.00832801827e-06 2.15209682552e-05 -0.000902450693285)
(7.01453197595e-06 2.30606924205e-05 -0.000924824036148)
(4.80419852352e-06 2.41941259187e-05 -0.000941264302033)
(2.44104122961e-06 2.48881314749e-05 -0.000951320015153)
(-5.8771980193e-10 2.51219504676e-05 -0.000954710159388)
(-2.44220598132e-06 2.48881744401e-05 -0.000951318771294)
(-4.80532720092e-06 2.41942263299e-05 -0.00094126184691)
(-7.0155878581e-06 2.3060876048e-05 -0.000924820448862)
(-9.00925938316e-06 2.15212651182e-05 -0.000902446143056)
(-1.07229502787e-05 1.96310629349e-05 -0.000874757955477)
(-1.21694011264e-05 1.74260615044e-05 -0.000842508404986)
(-1.32276133042e-05 1.50634225228e-05 -0.000806496793709)
(1.63778500922e-05 1.85136733513e-05 -0.000969149940295)
(1.49784441885e-05 2.11301356039e-05 -0.0010112636699)
(1.31305602832e-05 2.35601239652e-05 -0.00104885303593)
(1.09719817278e-05 2.56230068604e-05 -0.00108107386555)
(8.50565709499e-06 2.7288260629e-05 -0.00110708002299)
(5.80565800858e-06 2.85051890324e-05 -0.00112617421525)
(2.94370473885e-06 2.92464499913e-05 -0.0011378457382)
(-7.05591856075e-10 2.94954840645e-05 -0.00114177757898)
(-2.94510326959e-06 2.92465148151e-05 -0.00113784419343)
(-5.80701575519e-06 2.85053318143e-05 -0.00112617116562)
(-8.50693706905e-06 2.72885037851e-05 -0.00110707556062)
(-1.09731362733e-05 2.56233757034e-05 -0.0010810681753)
(-1.31315385111e-05 2.35606338373e-05 -0.00104884648686)
(-1.49792383265e-05 2.11307745515e-05 -0.00101125722909)
(-1.63785002286e-05 1.85143991451e-05 -0.000969145895085)
(1.88760590975e-05 2.11997407024e-05 -0.00112493138612)
(1.71354749877e-05 2.38854731614e-05 -0.0011723847971)
(1.49301817897e-05 2.63548001062e-05 -0.00121459356711)
(1.24012018019e-05 2.84264260874e-05 -0.00125071834635)
(9.56695889371e-06 3.00810893828e-05 -0.00127984366199)
(6.50621514622e-06 3.12801383727e-05 -0.00130121164325)
(3.29151107501e-06 3.20062196987e-05 -0.00131426533686)
(-8.02197684552e-10 3.22493992935e-05 -0.00131865999891)
(-3.29310189033e-06 3.20063049605e-05 -0.00131426349748)
(-6.50776345427e-06 3.12803202163e-05 -0.00130120800968)
(-9.56842990298e-06 3.00813869133e-05 -0.00127983833385)
(-1.24025538985e-05 2.84268588623e-05 -0.00125071151198)
(-1.49313718432e-05 2.6355378839e-05 -0.00121458558991)
(-1.71364990516e-05 2.38861797729e-05 -0.00117237668572)
(-1.88769465252e-05 2.12005400895e-05 -0.00112492556528)
(2.06604649146e-05 2.30625898783e-05 -0.00127361165882)
(1.86026335009e-05 2.56646425707e-05 -0.00132565518153)
(1.61038186466e-05 2.80213861839e-05 -0.00137178504833)
(1.32941037814e-05 2.99729424518e-05 -0.00141121120926)
(1.02052593751e-05 3.15134023286e-05 -0.00144296713032)
(6.91487157146e-06 3.26194985878e-05 -0.00146624829949)
(3.49040527335e-06 3.3285074727e-05 -0.00148046275783)
(-8.74038132548e-10 3.35072677203e-05 -0.00148524557456)
(-3.49213996731e-06 3.32851772476e-05 -0.00148046064184)
(-6.91656517577e-06 3.261971296e-05 -0.00146624411555)
(-1.02068807793e-05 3.1513743848e-05 -0.00144296097946)
(-1.32956177886e-05 2.99734258016e-05 -0.00141120327178)
(-1.61051901076e-05 2.8022017718e-05 -0.00137177566592)
(-1.86038623281e-05 2.56654009602e-05 -0.00132564540055)
(-2.06615724197e-05 2.30634451597e-05 -0.00127360402487)
(2.17515167397e-05 2.4136519291e-05 -0.00141504512259)
(1.94197966687e-05 2.65422182795e-05 -0.00147094797813)
(1.67020311109e-05 2.86765712563e-05 -0.00152033155088)
(1.37048192516e-05 3.04193314749e-05 -0.00156248970665)
(1.04700188063e-05 3.1777303698e-05 -0.00159641498074)
(7.06918521726e-06 3.27428656624e-05 -0.0016212675628)
(3.56061166789e-06 3.33200408351e-05 -0.00163643208097)
(-9.20706097958e-10 3.35120819399e-05 -0.00164153185436)
(-3.56244065441e-06 3.33201564186e-05 -0.00163642972253)
(-7.07097679037e-06 3.27431044117e-05 -0.00162126289441)
(-1.04717466171e-05 3.17776774781e-05 -0.00159640809911)
(-1.37064553758e-05 3.04198509283e-05 -0.00156248077368)
(-1.67035483027e-05 2.86772386725e-05 -0.00152032087432)
(-1.9421199025e-05 2.65430102257e-05 -0.00147093664646)
(-2.17528170964e-05 2.41374118401e-05 -0.0014150357801)
(2.22191147207e-05 2.4511149928e-05 -0.00154911611936)
(1.96692091724e-05 2.66464058901e-05 -0.00160816418345)
(1.68093166457e-05 2.84885353186e-05 -0.00166016747777)
(1.37131006535e-05 2.99696402422e-05 -0.00170452102615)
(1.04286197735e-05 3.11074221109e-05 -0.00174017684701)
(7.01787000565e-06 3.19080515267e-05 -0.00176627134142)
(3.52765545805e-06 3.23833580759e-05 -0.00178218069931)
(-9.44914360724e-10 3.25409724113e-05 -0.00178752773749)
(-3.52953437458e-06 3.23834815438e-05 -0.0017821781539)
(-7.01971668074e-06 3.19083042591e-05 -0.00176626629793)
(-1.04304129568e-05 3.11078133157e-05 -0.00174016939349)
(-1.3714819053e-05 2.99701770899e-05 -0.00170451129743)
(-1.68109407141e-05 2.84892177485e-05 -0.00166015573738)
(-1.9670746616e-05 2.66472108244e-05 -0.00160815157032)
(-2.2220574272e-05 2.45120584021e-05 -0.00154910534468)
(2.21565370891e-05 2.43013239279e-05 -0.00167567386525)
(1.94491054335e-05 2.61227694725e-05 -0.00173717025496)
(1.65200282419e-05 2.76348401311e-05 -0.00179120307)
(1.3403857491e-05 2.8829124749e-05 -0.00183725044852)
(1.01504470612e-05 2.97322173289e-05 -0.00187421456187)
(6.80993873306e-06 3.03607691427e-05 -0.00190122557298)
(3.41686844733e-06 3.07312977941e-05 -0.00191767383729)
(-9.50706932122e-10 3.08537531939e-05 -0.00192319770549)
(-3.41876082139e-06 3.07314236274e-05 -0.00191767118672)
(-6.81180460726e-06 3.03610253108e-05 -0.00190122031824)
(-1.01522703519e-05 2.97326106017e-05 -0.00187420678101)
(-1.34056232637e-05 2.88296601948e-05 -0.00183724024322)
(-1.65217235075e-05 2.76355159982e-05 -0.00179119064851)
(-1.94507414912e-05 2.6123564462e-05 -0.0017371568135)
(-2.21581183168e-05 2.43022256089e-05 -0.0016756621455)
(2.16612327547e-05 2.36256650041e-05 -0.00179446228006)
(1.88563361814e-05 2.51097346064e-05 -0.00185775773481)
(1.59243694888e-05 2.62760899321e-05 -0.00191330967796)
(1.28563053496e-05 2.717807695e-05 -0.0019605926761)
(9.69894910125e-06 2.78485322889e-05 -0.00199845185677)
(6.48950639057e-06 2.83099355872e-05 -0.00202604805431)
(3.25082288063e-06 2.85799907616e-05 -0.00204282162835)
(-9.4317662882e-10 2.86689412803e-05 -0.00204844876103)
(-3.25270193893e-06 2.8580112863e-05 -0.00204281898415)
(-6.49136469064e-06 2.83101832356e-05 -0.00202604281491)
(-9.70077490769e-06 2.78489111812e-05 -0.00199844409493)
(-1.28580890234e-05 2.71785908721e-05 -0.00196058245948)
(-1.59261042095e-05 2.62767365741e-05 -0.00191329714346)
(-1.88580356048e-05 2.51104965102e-05 -0.00185774412689)
(-2.16628991467e-05 2.3626534841e-05 -0.00179445034472)
(2.08202487449e-05 2.25878994348e-05 -0.00190503394427)
(1.79778275907e-05 2.37208169277e-05 -0.00196965486062)
(1.51040593939e-05 2.45417671202e-05 -0.00202636929595)
(1.21412884406e-05 2.51608017891e-05 -0.00207447142761)
(9.12981806397e-06 2.56130886342e-05 -0.00211280043424)
(6.09465594063e-06 2.59208328062e-05 -0.00214062749375)
(3.04879516341e-06 2.6099580054e-05 -0.00215749564069)
(-9.27212802151e-10 2.61582390466e-05 -0.00216314640402)
(-3.05064388147e-06 2.60996923809e-05 -0.00215749314315)
(-6.0964881544e-06 2.59210606235e-05 -0.00214062255892)
(-9.13162577751e-06 2.56134369059e-05 -0.00211279314554)
(-1.21430668801e-05 2.51612746491e-05 -0.00207446183171)
(-1.51058067436e-05 2.45423639606e-05 -0.00202635743615)
(-1.79795604898e-05 2.37215234552e-05 -0.00196964196411)
(-2.08219665046e-05 2.25887128141e-05 -0.0019050227114)
(1.97116883483e-05 2.1265014044e-05 -0.00200662255566)
(1.69003191719e-05 2.20544666344e-05 -0.00207269653641)
(1.41400595477e-05 2.25359076751e-05 -0.00213042652524)
(1.13248763461e-05 2.28933729474e-05 -0.00217889858536)
(8.49283371406e-06 2.31496560557e-05 -0.00221720393782)
(5.65842605726e-06 2.3321409079e-05 -0.00224485527491)
(2.82722783239e-06 2.34199732793e-05 -0.00226155723875)
(-9.06931650072e-10 2.34521220018e-05 -0.00226714235993)
(-2.82903663651e-06 2.34200706089e-05 -0.00226155504653)
(-5.66022103297e-06 2.33216075401e-05 -0.00224485097657)
(-8.49460844801e-06 2.3149960751e-05 -0.00221719766102)
(-1.1326628419e-05 2.28937899516e-05 -0.00217889040577)
(-1.41417929124e-05 2.25364369875e-05 -0.0021304163952)
(-1.69020545771e-05 2.20551001938e-05 -0.00207268547993)
(-1.97134265287e-05 2.12657498553e-05 -0.00200661301155)
(1.84084520146e-05 1.98939335154e-05 -0.00209828849962)
(1.57260904404e-05 2.01759411757e-05 -0.00216772619617)
(1.31043422894e-05 2.0342883896e-05 -0.00222596710497)
(1.04613447676e-05 2.04620531617e-05 -0.00227405471467)
(7.82688808473e-06 2.05393940582e-05 -0.00231166838256)
(5.20599492032e-06 2.05868355014e-05 -0.00233864787019)
(2.59852173606e-06 2.06120710779e-05 -0.00235488102296)
(-8.84089828879e-10 2.06199716787e-05 -0.00236029899456)
(-2.60028404974e-06 2.06121517754e-05 -0.00235487927078)
(-5.20774205324e-06 2.0586999411e-05 -0.00233864449197)
(-7.82861426143e-06 2.05396471907e-05 -0.00231166359374)
(-1.04630500294e-05 2.04624001123e-05 -0.00227404872449)
(-1.31060319504e-05 2.0343328704e-05 -0.00222595985441)
(-1.57277919333e-05 2.01764842966e-05 -0.00216771881477)
(-1.84101605412e-05 1.98945733343e-05 -0.00209828078494)
(-1.12636835708e-07 -1.94189790066e-07 -0.000116970012753)
(-5.93172911089e-08 -2.63815657147e-07 -0.00012276731564)
(-2.55325864555e-08 -3.06482077414e-07 -0.000128005485849)
(-2.75062387389e-09 -3.33531053497e-07 -0.000132535297773)
(9.48448224998e-09 -3.4947431701e-07 -0.000136213429755)
(1.22977755282e-08 -3.57935342566e-07 -0.000138924726364)
(8.05647309061e-09 -3.61782437356e-07 -0.000140587531898)
(-9.52544812759e-11 -3.62859836586e-07 -0.000141151772806)
(-8.24061665396e-09 -3.6179620679e-07 -0.000140587436848)
(-1.24630474146e-08 -3.57960500785e-07 -0.000138924540166)
(-9.62235688248e-09 -3.49507604123e-07 -0.000136213161381)
(2.637494624e-09 -3.33569976433e-07 -0.000132534967177)
(2.54448248002e-08 -3.06516866537e-07 -0.000128005141113)
(5.92579287098e-08 -2.63844729877e-07 -0.000122767103975)
(1.12606102854e-07 -1.94205515279e-07 -0.000116970390156)
(-4.5376473767e-07 -6.68777526462e-07 -0.000340485214759)
(-3.10564318856e-07 -8.66377836823e-07 -0.000356567335439)
(-2.05538375464e-07 -1.00342295915e-06 -0.000371075504609)
(-1.26310323553e-07 -1.09874169319e-06 -0.000383593347541)
(-6.99789901495e-08 -1.16155392859e-06 -0.000393740870021)
(-3.38873806421e-08 -1.19982985409e-06 -0.000401212801691)
(-1.29118760199e-08 -1.22000922677e-06 -0.00040579089262)
(-2.9257589011e-10 -1.22626389273e-06 -0.000407340012607)
(1.23442326976e-08 -1.22003143493e-06 -0.000405790578993)
(3.33712686223e-08 -1.19987030072e-06 -0.000401212187896)
(6.95392642032e-08 -1.16160808022e-06 -0.000393739987009)
(1.25949697729e-07 -1.0988038971e-06 -0.000383592261129)
(2.0525802579e-07 -1.00346992199e-06 -0.000371074365906)
(3.10372856818e-07 -8.66406725641e-07 -0.000356566584129)
(4.53665657106e-07 -6.68775478445e-07 -0.000340485967663)
(-9.01462964223e-07 -1.22701289768e-06 -0.000551932774527)
(-6.82878645174e-07 -1.5436833853e-06 -0.000577059072565)
(-5.06479629605e-07 -1.78028187296e-06 -0.000599668235209)
(-3.61246938594e-07 -1.95421086488e-06 -0.000619135787599)
(-2.42557907783e-07 -2.07603467556e-06 -0.000634893128713)
(-1.47125565094e-07 -2.15513258029e-06 -0.000646483578864)
(-6.89741813138e-08 -2.19925000778e-06 -0.000653578880444)
(-3.66205209084e-10 -2.2133992763e-06 -0.000655975549767)
(6.82609251327e-08 -2.19927425276e-06 -0.000653578340299)
(1.46468375207e-07 -2.15517711633e-06 -0.00064648252065)
(2.41984524735e-07 -2.07609467668e-06 -0.000634891603213)
(3.60764160851e-07 -1.95427932669e-06 -0.000619133901321)
(5.06090385271e-07 -1.78033633687e-06 -0.000599666225103)
(6.82592707036e-07 -1.54372212562e-06 -0.000577057601336)
(9.01294635747e-07 -1.2270258031e-06 -0.000551933464135)
(-1.352423706e-06 -1.76105086731e-06 -0.000751686564935)
(-1.07143156497e-06 -2.16966808737e-06 -0.000784715821975)
(-8.2984932366e-07 -2.48700349343e-06 -0.000814344771993)
(-6.20258741351e-07 -2.72662254999e-06 -0.000839806171902)
(-4.37144131086e-07 -2.89908230043e-06 -0.00086038550711)
(-2.77092790336e-07 -3.01394461071e-06 -0.000875507798638)
(-1.34064287265e-07 -3.07934994975e-06 -0.000884757783855)
(-4.14119038627e-10 -3.10057080281e-06 -0.00088787826416)
(1.3325534638e-07 -3.07937210535e-06 -0.000884756993917)
(2.76340048427e-07 -3.01398542135e-06 -0.000875506249338)
(4.36476237535e-07 -2.89913723825e-06 -0.000860383268343)
(6.1968698372e-07 -2.72668510356e-06 -0.000839803386384)
(8.29380752083e-07 -2.48705512553e-06 -0.000814341743213)
(1.07107528446e-06 -2.16970685042e-06 -0.000784713363045)
(1.35219884398e-06 -1.76107015888e-06 -0.000751686621881)
(-1.78359560669e-06 -2.25218166239e-06 -0.00094024979437)
(-1.45155319001e-06 -2.7283826268e-06 -0.000980146582607)