/*--------------------------------*- C++ -*----------------------------------*\
  =========                 |
  \\      /  F ield         | OpenFOAM: The Open Source CFD Toolbox
   \\    /   O peration     | Website:  https://openfoam.org
    \\  /    A nd           | Version:  7
     \\/     M anipulation  |
\*---------------------------------------------------------------------------*/
FoamFile
{
    version     2.0;
    format      ascii;
    class       volScalarField;
    location    "1.88";
    object      p;
}
// * * * * * * * * * * * * * * * * * * * * * * * * * * * * * * * * * * * * * //

dimensions      [0 2 -2 0 0 0 0];

internalField   nonuniform List<scalar> 
22500
(
3.71329674425e-05
3.71274830968e-05
3.71251520057e-05
3.71222207668e-05
3.7119911554e-05
3.71181429138e-05
3.71170648313e-05
3.71167320849e-05
3.71171908773e-05
3.71183900522e-05
3.71202725884e-05
3.71226731375e-05
3.71256718623e-05
3.71280077704e-05
3.71334495281e-05
3.70676350544e-05
3.70588314802e-05
3.70536708999e-05
3.7048258288e-05
3.70439361757e-05
3.70406827357e-05
3.7038697838e-05
3.7038062871e-05
3.70388270079e-05
3.70409363027e-05
3.70443058854e-05
3.70487236337e-05
3.70542036553e-05
3.70593710457e-05
3.70681340836e-05
3.70046135368e-05
3.69927420784e-05
3.69851903565e-05
3.69776142024e-05
3.69715638454e-05
3.6967035337e-05
3.69642719674e-05
3.69633740864e-05
3.69643944793e-05
3.69672756535e-05
3.69719133122e-05
3.69780548526e-05
3.69856950577e-05
3.69932570485e-05
3.70051000155e-05
3.69484935282e-05
3.69341033931e-05
3.6924722529e-05
3.69155198144e-05
3.6908178081e-05
3.69027065407e-05
3.68993693316e-05
3.68982764517e-05
3.68994820366e-05
3.6902927595e-05
3.69084987829e-05
3.6915924171e-05
3.69251878148e-05
3.69345824831e-05
3.69489602846e-05
3.68963129507e-05
3.68797757536e-05
3.68689012489e-05
3.68584274048e-05
3.68500785517e-05
3.68438820366e-05
3.68401057349e-05
3.68388638854e-05
3.68402089378e-05
3.68440843505e-05
3.68503718973e-05
3.68587974802e-05
3.6869329198e-05
3.68802200365e-05
3.68967565771e-05
3.68473974186e-05
3.68290804818e-05
3.68170008315e-05
3.68055583105e-05
3.67964427533e-05
3.67897031919e-05
3.67855997006e-05
3.67842463789e-05
3.67856932151e-05
3.67898866928e-05
3.67967087671e-05
3.68058944341e-05
3.68173905786e-05
3.68294904157e-05
3.6847817668e-05
3.68019220091e-05
3.67822043563e-05
3.67691801242e-05
3.67570441269e-05
3.67473775477e-05
3.6740256121e-05
3.67359238556e-05
3.67344922665e-05
3.6736008259e-05
3.67404218232e-05
3.67476179193e-05
3.67573485132e-05
3.67695344505e-05
3.67825804777e-05
3.68023187221e-05
3.67598529375e-05
3.67390882943e-05
3.67253395538e-05
3.67127412727e-05
3.67027036155e-05
3.66953329576e-05
3.66908526373e-05
3.66893700158e-05
3.66909284633e-05
3.66954818611e-05
3.67029200052e-05
3.67130159926e-05
3.6725660752e-05
3.67394329178e-05
3.67602278673e-05
3.67209950564e-05
3.66995017487e-05
3.66852124187e-05
3.6672344204e-05
3.66620857063e-05
3.66545745239e-05
3.66500125397e-05
3.66485013571e-05
3.66500805941e-05
3.66547082818e-05
3.66622804284e-05
3.66725924567e-05
3.66855039778e-05
3.66998184721e-05
3.67213492548e-05
3.66851222418e-05
3.66631902981e-05
3.66485250121e-05
3.66355533503e-05
3.66252046547e-05
3.6617646358e-05
3.66130597765e-05
3.66115392985e-05
3.66131208574e-05
3.66177665656e-05
3.66253800357e-05
3.66357779377e-05
3.66487904167e-05
3.66634824279e-05
3.66854597738e-05
3.66520129991e-05
3.66299069862e-05
3.66150285849e-05
3.66021043674e-05
3.65917852681e-05
3.65842645133e-05
3.65797051525e-05
3.65781930437e-05
3.65797601164e-05
3.65843727594e-05
3.65919436878e-05
3.66023082141e-05
3.66152710532e-05
3.66301776468e-05
3.66523358028e-05
3.66214266697e-05
3.65994139736e-05
3.65845067538e-05
3.65717725237e-05
3.65615953669e-05
3.65541914795e-05
3.65497082889e-05
3.65482214643e-05
3.65497578701e-05
3.65542894509e-05
3.65617390014e-05
3.65719584101e-05
3.65847293438e-05
3.65996659365e-05
3.66217358553e-05
3.65930204016e-05
3.65714841216e-05
3.6556785077e-05
3.65443745411e-05
3.65344437492e-05
3.65272336231e-05
3.6522875898e-05
3.65214307681e-05
3.6522921011e-05
3.65273225333e-05
3.65345748157e-05
3.65445449985e-05
3.65569907454e-05
3.6571720534e-05
3.65933181098e-05
3.65664852634e-05
3.65459030596e-05
3.653163353e-05
3.65196753524e-05
3.65101100095e-05
3.65031942739e-05
3.6499026564e-05
3.64976470502e-05
3.64990676939e-05
3.65032756339e-05
3.65102304011e-05
3.65198332394e-05
3.65318252784e-05
3.65461269019e-05
3.65667743643e-05
3.65428594538e-05
3.6521957652e-05
3.6508399921e-05
3.64970183353e-05
3.64880203548e-05
3.64815759827e-05
3.64777130871e-05
3.64764366117e-05
3.64777507827e-05
3.64816504364e-05
3.64881310053e-05
3.64971645745e-05
3.6508580187e-05
3.6522170138e-05
3.65431316662e-05
2.86280247109e-05
2.86299340015e-05
2.86313252417e-05
2.86326318145e-05
2.86337705853e-05
2.86346321231e-05
2.86351540265e-05
2.86352869929e-05
2.86350171305e-05
2.86343669571e-05
2.86333971562e-05
2.86321856442e-05
2.86308352899e-05
2.86294484141e-05
2.86275636454e-05
2.86356069207e-05
2.86378886208e-05
2.86396460975e-05
2.86412878e-05
2.86427049378e-05
2.86437752756e-05
2.86444269363e-05
2.86446038272e-05
2.86442883616e-05
2.86435069079e-05
2.86423271073e-05
2.86408359034e-05
2.86391541663e-05
2.86374000597e-05
2.86351460066e-05
2.86455040424e-05
2.86486168834e-05
2.86510856297e-05
2.86533993787e-05
2.86553887901e-05
2.86568959196e-05
2.86578224905e-05
2.86580943612e-05
2.86576869464e-05
2.8656633368e-05
2.86550186473e-05
2.86529542953e-05
2.86506010604e-05
2.86481317893e-05
2.86450455525e-05
2.8658696964e-05
2.86632047507e-05
2.86668092289e-05
2.86701734448e-05
2.86730544356e-05
2.86752391474e-05
2.86765906064e-05
2.86770088877e-05
2.86764600504e-05
2.86749861454e-05
2.86726968003e-05
2.86697403916e-05
2.86663351328e-05
2.86627269331e-05
2.86582419308e-05
2.86757409054e-05
2.86820907254e-05
2.86871335804e-05
2.86918020215e-05
2.86957773249e-05
2.86987857707e-05
2.87006500431e-05
2.87012443789e-05
2.87005255173e-05
2.86985443923e-05
2.86954352872e-05
2.8691385665e-05
2.86866743973e-05
2.86816246597e-05
2.86752923068e-05
2.86962247428e-05
2.87046764023e-05
2.87112882336e-05
2.87173541715e-05
2.87224851968e-05
2.87263552187e-05
2.87287520213e-05
2.87295288611e-05
2.87286348401e-05
2.87261279101e-05
2.8722162296e-05
2.87169587708e-05
2.87108490205e-05
2.87042247375e-05
2.86957871024e-05
2.87193684588e-05
2.87299908786e-05
2.87381594326e-05
2.87455803462e-05
2.87518150575e-05
2.87564988495e-05
2.87593947565e-05
2.87603423875e-05
2.87592859322e-05
2.87562875258e-05
2.87515141345e-05
2.87452097588e-05
2.87377447895e-05
2.87295589112e-05
2.87189448987e-05
2.87443339713e-05
2.87570375359e-05
2.87666413005e-05
2.87752752048e-05
2.87824816901e-05
2.87878729481e-05
2.87911989254e-05
2.87922936688e-05
2.87910991644e-05
2.87876789973e-05
2.87822046681e-05
2.87749320372e-05
2.87662538024e-05
2.87566286075e-05
2.87439264553e-05
2.87703329144e-05
2.87849052102e-05
2.87957492009e-05
2.88053926839e-05
2.88133915982e-05
2.88193506547e-05
2.88230178158e-05
2.88242292598e-05
2.88229274384e-05
2.88191747049e-05
2.88131394402e-05
2.88050784327e-05
2.87953909899e-05
2.87845217931e-05
2.87699447277e-05
2.87966757058e-05
2.88128164707e-05
2.88246632974e-05
2.8835082221e-05
2.88436732172e-05
2.88500469129e-05
2.88539589052e-05
2.88552540676e-05
2.88538779117e-05
2.88498889466e-05
2.88434459836e-05
2.88347971731e-05
2.88243350531e-05
2.88124598679e-05
2.87963080925e-05
2.88227845046e-05
2.88401380495e-05
2.88527317935e-05
2.88636869786e-05
2.8872668844e-05
2.88793046122e-05
2.88833659138e-05
2.88847121444e-05
2.88832940023e-05
2.88791640516e-05
2.88724658659e-05
2.88634306933e-05
2.88524336751e-05
2.88398094067e-05
2.88224395106e-05
2.88481806047e-05
2.88663656471e-05
2.88794540936e-05
2.88907236101e-05
2.8899909141e-05
2.89066643445e-05
2.8910785571e-05
2.89121521358e-05
2.89107222014e-05
2.89065401442e-05
2.88997290296e-05
2.88904947661e-05
2.88791853655e-05
2.88660656302e-05
2.88478605373e-05
2.88724585391e-05
2.88911171805e-05
2.89044815949e-05
2.89158740627e-05
2.89250943174e-05
2.89318375573e-05
2.89359350755e-05
2.89372937107e-05
2.89358794417e-05
2.89317282648e-05
2.89249352993e-05
2.89156707822e-05
2.89042407992e-05
2.88908450481e-05
2.88721636953e-05
2.88955107805e-05
2.89143821759e-05
2.89277612871e-05
2.89390633621e-05
2.89481177766e-05
2.8954691341e-05
2.89586683642e-05
2.89599846807e-05
2.89586196919e-05
2.89545954663e-05
2.89479775076e-05
2.89388832699e-05
2.8927546594e-05
2.89141375641e-05
2.88952410945e-05
2.8918595775e-05
2.89362918647e-05
2.89493035723e-05
2.89602395087e-05
2.89688556705e-05
2.89750556257e-05
2.89787869895e-05
2.89800205903e-05
2.89787444562e-05
2.8974971812e-05
2.89687326499e-05
2.89600807251e-05
2.8949112966e-05
2.89360742696e-05
2.89183521317e-05
2.95269652278e-05
2.95263430874e-05
2.9525365962e-05
2.95242988717e-05
2.9523287431e-05
2.95224865795e-05
2.95219825583e-05
2.95218224956e-05
2.95220213815e-05
2.95225590889e-05
2.95233835496e-05
2.9524409255e-05
2.95254963461e-05
2.95264825051e-05
2.95271201168e-05
2.9527675196e-05
2.95271003707e-05
2.95261726896e-05
2.95251443634e-05
2.95241614258e-05
2.95233776242e-05
2.95228819519e-05
2.95227242344e-05
2.95229208569e-05
2.95234503327e-05
2.95242578593e-05
2.95252551235e-05
2.95263010892e-05
2.95272402339e-05
2.95278291024e-05
2.95287739468e-05
2.95282689571e-05
2.95274060796e-05
2.95264350684e-05
2.95254969385e-05
2.95247433529e-05
2.95242641492e-05
2.95241114074e-05
2.95243026612e-05
2.95248157069e-05
2.95255939202e-05
2.95265477154e-05
2.95275349176e-05
2.95284095391e-05
2.95289269751e-05
2.95295373161e-05
2.95290856812e-05
2.95282660733e-05
2.95273412741e-05
2.95264426558e-05
2.95257182299e-05
2.952525595e-05
2.95251084035e-05
2.95252936567e-05
2.95257895513e-05
2.95265395911e-05
2.95274552381e-05
2.95283951199e-05
2.95292252134e-05
2.95296896804e-05
2.95300602943e-05
2.95296775446e-05
2.95289127267e-05
2.95280537117e-05
2.95272148628e-05
2.95265373582e-05
2.95261044075e-05
2.95259664823e-05
2.95261411e-05
2.95266070995e-05
2.95273105771e-05
2.95281674723e-05
2.95290414655e-05
2.95298157069e-05
2.95302116636e-05
2.9530573187e-05
2.95303024183e-05
2.95296289701e-05
2.95288744561e-05
2.95281317785e-05
2.95275306171e-05
2.95271461301e-05
2.9527024349e-05
2.95271814299e-05
2.9527598048e-05
2.95282252424e-05
2.95289866695e-05
2.95297559842e-05
2.95304391171e-05
2.95307221561e-05
2.95312287952e-05
2.9531124522e-05
2.95305839231e-05
2.95299750937e-05
2.95293654948e-05
2.95288692844e-05
2.95285515562e-05
2.95284521492e-05
2.95285852372e-05
2.95289338863e-05
2.95294557924e-05
2.95300846247e-05
2.95307083337e-05
2.95312592058e-05
2.95313754874e-05
2.95321169782e-05
2.95322291066e-05
2.95318572182e-05
2.95314266496e-05
2.9530978616e-05
2.95306088862e-05
2.95303713525e-05
2.95302988473e-05
2.95304031993e-05
2.95306702384e-05
2.95310651084e-05
2.95315327098e-05
2.95319784099e-05
2.95323611054e-05
2.95322616547e-05
2.95332812231e-05
2.95336434619e-05
2.95334649878e-05
2.95332317177e-05
2.95329612489e-05
2.95327295786e-05
2.95325792792e-05
2.95325360283e-05
2.95326091815e-05
2.95327874354e-05
2.95330434629e-05
2.95333336272e-05
2.95335825238e-05
2.95337724639e-05
2.95334234951e-05
2.95347242789e-05
2.95353492815e-05
2.95353749112e-05
2.95353431385e-05
2.95352535056e-05
2.95351617109e-05
2.95350994879e-05
2.95350857127e-05
2.953512741e-05
2.95352159674e-05
2.95353312307e-05
2.95354405765e-05
2.953548844e-05
2.95354751511e-05
2.9534864048e-05
2.95364177308e-05
2.95372943206e-05
2.95375205776e-05
2.95376820968e-05
2.95377658139e-05
2.95378076462e-05
2.95378293121e-05
2.95378435498e-05
2.95378552537e-05
2.95378582583e-05
2.95378388938e-05
2.9537774731e-05
2.95376296769e-05
2.95374165643e-05
2.95365546063e-05
2.95383043843e-05
2.95393997738e-05
2.95398127911e-05
2.95401520402e-05
2.95403949363e-05
2.95405591902e-05
2.95406574314e-05
2.95406971735e-05
2.95406814155e-05
2.95406061856e-05
2.9540463321e-05
2.9540239649e-05
2.95399170909e-05
2.95395177461e-05
2.95384376375e-05
2.95403008366e-05
2.95415736252e-05
2.9542157543e-05
2.95426558834e-05
2.95430400502e-05
2.9543312484e-05
2.95434781779e-05
2.95435402852e-05
2.9543500221e-05
2.95433558909e-05
2.95431036408e-05
2.95427382269e-05
2.95422565844e-05
2.95416867412e-05
2.95404298367e-05
2.95423852721e-05
2.95438030914e-05
2.95445139678e-05
2.95451360386e-05
2.95456281753e-05
2.95459833158e-05
2.95462004565e-05
2.95462794184e-05
2.95462206e-05
2.95460229909e-05
2.95456867851e-05
2.95452126337e-05
2.95446071544e-05
2.95439107707e-05
2.9542508601e-05
2.95449400774e-05
2.95460529622e-05
2.95468051933e-05
2.95474923712e-05
2.95480395239e-05
2.95484375472e-05
2.95486812937e-05
2.95487687583e-05
2.95486994614e-05
2.95484736113e-05
2.95480930159e-05
2.95475630175e-05
2.95468923062e-05
2.95461556434e-05
2.95450578482e-05
2.61890402803e-05
2.61894044828e-05
2.61898859202e-05
2.61903803177e-05
2.61908347274e-05
2.61911930995e-05
2.6191420621e-05
2.61914939144e-05
2.61914050097e-05
2.61911635974e-05
2.6190795207e-05
2.61903388474e-05
2.61898470518e-05
2.6189380134e-05
2.61890219844e-05
2.61893002245e-05
2.61896738483e-05
2.61901665136e-05
2.61906761705e-05
2.61911444279e-05
2.61915145923e-05
2.6191749723e-05
2.61918253844e-05
2.619173296e-05
2.61914828383e-05
2.61911018559e-05
2.61906309873e-05
2.61901253099e-05
2.61896463898e-05
2.61892822892e-05
2.61893352071e-05
2.6189699751e-05
2.61901851302e-05
2.61906927187e-05
2.61911614989e-05
2.61915344349e-05
2.61917721878e-05
2.61918491992e-05
2.61917562498e-05
2.61915043107e-05
2.61911212691e-05
2.61906496152e-05
2.61901463224e-05
2.61896720668e-05
2.61893178799e-05
2.61893746354e-05
2.61897308706e-05
2.61902111301e-05
2.61907133958e-05
2.61911799898e-05
2.61915532683e-05
2.61917922176e-05
2.6191870282e-05
2.61917777379e-05
2.61915259854e-05
2.61911436746e-05
2.6190674277e-05
2.6190175712e-05
2.61897048089e-05
2.61893578604e-05
2.618945199e-05
2.61898018325e-05
2.619028014e-05
2.61907762685e-05
2.61912395402e-05
2.61916116123e-05
2.6191850724e-05
2.6191929396e-05
2.61918376099e-05
2.61915869756e-05
2.61912067576e-05
2.61907409724e-05
2.6190247815e-05
2.6189777953e-05
2.61894360692e-05
2.61895494007e-05
2.61898967202e-05
2.61903746866e-05
2.61908660099e-05
2.61913263231e-05
2.61916975504e-05
2.619193695e-05
2.61920163801e-05
2.61919254074e-05
2.6191675881e-05
2.61912975415e-05
2.61908348716e-05
2.61903460858e-05
2.61898744407e-05
2.61895353946e-05
2.61896695405e-05
2.61900189941e-05
2.61905021262e-05
2.6190992758e-05
2.61914532332e-05
2.61918257662e-05
2.6192066707e-05
2.61921472968e-05
2.61920567322e-05
2.61918070442e-05
2.61914283975e-05
2.61909657739e-05
2.6190477413e-05
2.61899988547e-05
2.61896572287e-05
2.61898258169e-05
2.61901853613e-05
2.61906806469e-05
2.61911757334e-05
2.61916406335e-05
2.61920173578e-05
2.61922615774e-05
2.61923438666e-05
2.61922532186e-05
2.61920016856e-05
2.61916197876e-05
2.6191152946e-05
2.61906594399e-05
2.61901674789e-05
2.61898144765e-05
2.61900298473e-05
2.61904098018e-05
2.61909230786e-05
2.61914276424e-05
2.61919003683e-05
2.61922833331e-05
2.61925317842e-05
2.61926160137e-05
2.61925249421e-05
2.61922705014e-05
2.61918832646e-05
2.61914088141e-05
2.61909052445e-05
2.61903941166e-05
2.61900197358e-05
2.61902891527e-05
2.61906987579e-05
2.61912331623e-05
2.61917496438e-05
2.61922311026e-05
2.61926202687e-05
2.61928725413e-05
2.61929584624e-05
2.61928670837e-05
2.61926100271e-05
2.61922173914e-05
2.61917343603e-05
2.61912183029e-05
2.61906849144e-05
2.61902800318e-05
2.61906035529e-05
2.61910488903e-05
2.61916043439e-05
2.6192132127e-05
2.61926204358e-05
2.61930134059e-05
2.61932675183e-05
2.6193354295e-05
2.61932632428e-05
2.61930053873e-05
2.61926096641e-05
2.61921200068e-05
2.61915922555e-05
2.61910369787e-05
2.619059564e-05
2.61909627652e-05
2.61914469383e-05
2.61920211321e-05
2.61925575628e-05
2.61930488276e-05
2.61934415081e-05
2.61936943635e-05
2.61937807428e-05
2.61936910332e-05
2.6193435274e-05
2.61930404248e-05
2.61925480607e-05
2.6192011492e-05
2.61914371092e-05
2.61909565267e-05
2.61913448118e-05
2.61918704604e-05
2.61924625014e-05
2.61930051533e-05
2.61934953666e-05
2.61938834484e-05
2.61941315607e-05
2.61942162602e-05
2.61941289238e-05
2.61938785018e-05
2.61934887647e-05
2.61929976956e-05
2.61924549538e-05
2.6191862628e-05
2.61913402276e-05
2.61917658706e-05
2.61923444303e-05
2.61929389932e-05
2.61934757362e-05
2.61939530848e-05
2.61943258767e-05
2.61945621435e-05
2.61946423651e-05
2.61945599368e-05
2.61943217504e-05
2.61939475473e-05
2.61934696618e-05
2.61929330739e-05
2.61923387607e-05
2.61917631519e-05
2.61926168476e-05
2.61930495589e-05
2.61935566665e-05
2.61940172113e-05
2.61944246248e-05
2.61947392052e-05
2.61949366912e-05
2.61950034777e-05
2.61949347161e-05
2.61947355477e-05
2.61944197863e-05
2.61940120561e-05
2.6193552174e-05
2.61930464384e-05
2.61926161854e-05
2.49455165053e-05
2.49453251226e-05
2.494505115e-05
2.49447421986e-05
2.49444474441e-05
2.49442087497e-05
2.49440584485e-05
2.49440109706e-05
2.49440702884e-05
2.49442295594e-05
2.4944471761e-05
2.49447684769e-05
2.49450827232e-05
2.49453573841e-05
2.49455628067e-05
2.49456761105e-05
2.49454961117e-05
2.49452356572e-05
2.49449354221e-05
2.49446466265e-05
2.49444117599e-05
2.49442631341e-05
2.49442160126e-05
2.49442748073e-05
2.49444322704e-05
2.49446706734e-05
2.4944960829e-05
2.49452655977e-05
2.49455285115e-05
2.49457216061e-05
2.49459313921e-05
2.4945764008e-05
2.49455204546e-05
2.49452318607e-05
2.4944952845e-05
2.4944724532e-05
2.49445791983e-05
2.49445329564e-05
2.49445907461e-05
2.49447451117e-05
2.49449777405e-05
2.49452587017e-05
2.49455510679e-05
2.49457976723e-05
2.49459764008e-05
2.4946118577e-05
2.49459548362e-05
2.49457192543e-05
2.49454355333e-05
2.49451609326e-05
2.4944935672e-05
2.49447915516e-05
2.49447454763e-05
2.49448029119e-05
2.49449562851e-05
2.49451868091e-05
2.49454638859e-05
2.49457507336e-05
2.49459887883e-05
2.49461632594e-05
2.49462318934e-05
2.49460657037e-05
2.49458329786e-05
2.49455507627e-05
2.49452778902e-05
2.4945053743e-05
2.49449098726e-05
2.49448637089e-05
2.49449210018e-05
2.49450741624e-05
2.49453041247e-05
2.49455799717e-05
2.49458652043e-05
2.49460996519e-05
2.49462764458e-05
2.49462980431e-05
2.49461263468e-05
2.49458966513e-05
2.4945615995e-05
2.49453455951e-05
2.49451236438e-05
2.49449809113e-05
2.49449349635e-05
2.49449916826e-05
2.49451436025e-05
2.49453717775e-05
2.49456455195e-05
2.49459290352e-05
2.49461605943e-05
2.4946341543e-05
2.49463351601e-05
2.49461602507e-05
2.49459362771e-05
2.49456606004e-05
2.49453964133e-05
2.49451799164e-05
2.49450406566e-05
2.49449957535e-05
2.49450509889e-05
2.49451992102e-05
2.49454221141e-05
2.49456900218e-05
2.49459684957e-05
2.49461946297e-05
2.49463779808e-05
2.49463598057e-05
2.49461872393e-05
2.49459739652e-05
2.4945709433e-05
2.49454574871e-05
2.49452516305e-05
2.49451193418e-05
2.49450767096e-05
2.49451291591e-05
2.49452701034e-05
2.49454824717e-05
2.49457385222e-05
2.49460059953e-05
2.49462215374e-05
2.49464023767e-05
2.49463888921e-05
2.49462256737e-05
2.4946029979e-05
2.49457844287e-05
2.49455520855e-05
2.49453630649e-05
2.49452418926e-05
2.49452029802e-05
2.49452511673e-05
2.49453806378e-05
2.49455761797e-05
2.49458129506e-05
2.49460617805e-05
2.49462598804e-05
2.49464311047e-05
2.49464365612e-05
2.49462905166e-05
2.49461197401e-05
2.49459012507e-05
2.49456962392e-05
2.49455304449e-05
2.49454246111e-05
2.49453908929e-05
2.49454333514e-05
2.4945547125e-05
2.49457194249e-05
2.4945929216e-05
2.49461513457e-05
2.49463248163e-05
2.49464783835e-05
2.49465126816e-05
2.49463908969e-05
2.49462512461e-05
2.49460671007e-05
2.49458963609e-05
2.49457595153e-05
2.49456727731e-05
2.49456455614e-05
2.49456810065e-05
2.49457753421e-05
2.49459186413e-05
2.49460944571e-05
2.49462825958e-05
2.49464252341e-05
2.49465540724e-05
2.4946619468e-05
2.49465265978e-05
2.49464223688e-05
2.49462786527e-05
2.49461481074e-05
2.49460450602e-05
2.49459805189e-05
2.4945960887e-05
2.49459882921e-05
2.49460600933e-05
2.49461695622e-05
2.49463054331e-05
2.49464534697e-05
2.49465608109e-05
2.49466602114e-05
2.49467505842e-05
2.49466875484e-05
2.49466218904e-05
2.49465236598e-05
2.49464384124e-05
2.49463730977e-05
2.4946333173e-05
2.49463219802e-05
2.49463404986e-05
2.49463874092e-05
2.49464590469e-05
2.49465498331e-05
2.49466526768e-05
2.49467215999e-05
2.49467906444e-05
2.49469118746e-05
2.49468801566e-05
2.49468477916e-05
2.49467944476e-05
2.49467545417e-05
2.49467264926e-05
2.49467106285e-05
2.49467075268e-05
2.49467175307e-05
2.49467400265e-05
2.49467742956e-05
2.49468198496e-05
2.49468781068e-05
2.49469140109e-05
2.49469505669e-05
2.49472305044e-05
2.49471528987e-05
2.49471213698e-05
2.49470902475e-05
2.49470765982e-05
2.49470701893e-05
2.49470681176e-05
2.49470696991e-05
2.49470746355e-05
2.49470830927e-05
2.49470956007e-05
2.49471150377e-05
2.49471515987e-05
2.49471877473e-05
2.49472690017e-05
2.27713728768e-05
2.27714462282e-05
2.27715426806e-05
2.27716370462e-05
2.27717235784e-05
2.27717911033e-05
2.27718327634e-05
2.27718445108e-05
2.2771825522e-05
2.27717776032e-05
2.27717056665e-05
2.27716168555e-05
2.27715213864e-05
2.27714298362e-05
2.27713565663e-05
2.2771461431e-05
2.27715416696e-05
2.27716442683e-05
2.27717463864e-05
2.27718397151e-05
2.27719126051e-05
2.27719576174e-05
2.27719703992e-05
2.27719498868e-05
2.27718981398e-05
2.27718205094e-05
2.27717248289e-05
2.27716222041e-05
2.27715239741e-05
2.2771446188e-05
2.2771501705e-05
2.27715840815e-05
2.27716881865e-05
2.27717945572e-05
2.2771892112e-05
2.27719689763e-05
2.27720168474e-05
2.27720308693e-05
2.27720096942e-05
2.27719556089e-05
2.27718744041e-05
2.27717745574e-05
2.2771668065e-05
2.27715666561e-05
2.27714876052e-05
2.27715424545e-05
2.27716263409e-05
2.27717328484e-05
2.27718424088e-05
2.277194365e-05
2.27720239516e-05
2.27720744278e-05
2.2772089724e-05
2.27720681859e-05
2.27720122958e-05
2.27719282118e-05
2.27718249511e-05
2.27717152202e-05
2.27716105222e-05
2.2771529385e-05
2.27715934639e-05
2.27716796707e-05
2.27717895467e-05
2.27719018172e-05
2.27720062707e-05
2.27720894188e-05
2.27721420766e-05
2.27721584172e-05
2.27721366212e-05
2.27720792516e-05
2.27719927966e-05
2.27718866462e-05
2.2771774039e-05
2.27716656992e-05
2.27715816623e-05
2.27716505889e-05
2.27717406234e-05
2.27718529532e-05
2.27719675317e-05
2.27720743894e-05
2.27721597489e-05
2.27722141312e-05
2.27722313986e-05
2.2772209519e-05
2.27721511462e-05
2.27720629894e-05
2.27719547209e-05
2.27718399137e-05
2.27717280675e-05
2.27716408835e-05
2.27717128395e-05
2.27718063619e-05
2.27719210977e-05
2.27720373179e-05
2.27721457697e-05
2.27722326837e-05
2.27722883282e-05
2.27723063379e-05
2.27722844957e-05
2.27722255368e-05
2.27721363084e-05
2.2772026693e-05
2.27719104248e-05
2.2771795401e-05
2.27717050111e-05
2.27717801547e-05
2.27718766748e-05
2.27719938277e-05
2.27721108284e-05
2.27722202225e-05
2.27723081533e-05
2.27723647438e-05
2.2772383358e-05
2.27723616687e-05
2.27723024248e-05
2.27722126134e-05
2.27721022712e-05
2.27719851738e-05
2.27718673326e-05
2.27717736533e-05
2.27718518883e-05
2.27719517618e-05
2.27720710836e-05
2.27721883707e-05
2.27722982608e-05
2.27723868941e-05
2.27724441873e-05
2.27724632922e-05
2.27724417828e-05
2.27723824143e-05
2.2772292301e-05
2.27721816404e-05
2.27720641766e-05
2.27719438657e-05
2.27718468054e-05
2.27719283474e-05
2.27720316853e-05
2.27721527595e-05
2.27722699796e-05
2.2772380077e-05
2.27724692186e-05
2.27725270608e-05
2.2772546574e-05
2.27725252292e-05
2.27724658092e-05
2.27723755229e-05
2.27722647776e-05
2.27721472756e-05
2.27720248901e-05
2.27719244374e-05
2.27720088546e-05
2.2772115408e-05
2.27722378848e-05
2.27723548667e-05
2.27724650851e-05
2.27725546455e-05
2.27726129179e-05
2.27726327456e-05
2.27726115428e-05
2.27725520984e-05
2.27724616776e-05
2.27723509464e-05
2.27722336283e-05
2.27721096896e-05
2.27720061286e-05
2.27720909527e-05
2.2772200078e-05
2.27723237552e-05
2.27724407875e-05
2.27725514008e-05
2.27726414668e-05
2.27727001305e-05
2.27727201815e-05
2.27726990829e-05
2.2772639544e-05
2.27725488368e-05
2.27724378539e-05
2.27723205265e-05
2.27721954682e-05
2.27720895579e-05
2.2772169397e-05
2.27722796265e-05
2.27724052788e-05
2.27725238174e-05
2.27726359669e-05
2.27727271695e-05
2.27727863623e-05
2.2772806635e-05
2.27727855117e-05
2.27727256134e-05
2.27726339426e-05
2.27725215484e-05
2.27724028707e-05
2.27722760833e-05
2.27721692061e-05
2.27722472999e-05
2.27723617348e-05
2.27724876412e-05
2.27726071929e-05
2.27727200217e-05
2.27728108219e-05
2.27728692877e-05
2.27728891996e-05
2.27728684853e-05
2.27728093767e-05
2.27727181356e-05
2.27726052258e-05
2.27724857849e-05
2.27723593367e-05
2.2772248443e-05
2.27724465898e-05
2.27725220573e-05
2.27726214254e-05
2.2772719728e-05
2.27728135054e-05
2.27728880843e-05
2.2772935527e-05
2.27729515499e-05
2.27729347285e-05
2.27728866485e-05
2.27728116885e-05
2.27727179439e-05
2.27726201848e-05
2.27725211344e-05
2.27724485254e-05
2.10660571807e-05
2.10660114121e-05
2.10659284237e-05
2.10658332888e-05
2.10657452159e-05
2.10656753419e-05
2.10656305587e-05
2.10656152343e-05
2.106563065e-05
2.10656748531e-05
2.10657428725e-05
2.10658264829e-05
2.10659146926e-05
2.10659911323e-05
2.10660451809e-05
2.10661084681e-05
2.10660662994e-05
2.10659891532e-05
2.10658986473e-05
2.10658141819e-05
2.10657467637e-05
2.10657034526e-05
2.1065688603e-05
2.10657035591e-05
2.10657462875e-05
2.10658117029e-05
2.10658915218e-05
2.10659749381e-05
2.10660461379e-05
2.10660958001e-05
2.10661730388e-05
2.10661336202e-05
2.10660629992e-05
2.1065977631e-05
2.10658972484e-05
2.10658325039e-05
2.10657907204e-05
2.1065776386e-05
2.10657908744e-05
2.10658321044e-05
2.1065894898e-05
2.10659709202e-05
2.10660496082e-05
2.10661153519e-05
2.1066160958e-05
2.10662183742e-05
2.10661797446e-05
2.10661122533e-05
2.10660300704e-05
2.1065951889e-05
2.10658884125e-05
2.10658473164e-05
2.10658331846e-05
2.10658474251e-05
2.106588791e-05
2.10659493906e-05
2.10660234736e-05
2.10660997698e-05
2.1066162612e-05
2.10662070713e-05
2.10662452229e-05
2.10662060873e-05
2.10661399855e-05
2.10660595548e-05
2.10659825323e-05
2.10659197415e-05
2.10658790111e-05
2.10658649552e-05
2.10658790211e-05
2.10659190726e-05
2.10659798392e-05
2.10660529457e-05
2.10661281588e-05
2.10661896661e-05
2.10662347195e-05
2.10662609969e-05
2.10662198798e-05
2.10661551479e-05
2.1066076177e-05
2.10660002681e-05
2.10659382662e-05
2.10658979678e-05
2.10658839963e-05
2.10658977914e-05
2.10659372631e-05
2.10659972046e-05
2.10660693837e-05
2.10661437886e-05
2.10662044628e-05
2.10662506922e-05
2.10662695599e-05
2.10662271056e-05
2.1066164064e-05
2.10660867678e-05
2.10660125949e-05
2.10659520175e-05
2.10659126218e-05
2.10658988955e-05
2.10659122406e-05
2.10659506633e-05
2.10660091681e-05
2.10660798319e-05
2.10661529933e-05
2.10662126266e-05
2.10662598223e-05
2.10662745655e-05
2.10662320333e-05
2.10661711609e-05
2.10660966595e-05
2.10660254574e-05
2.10659673861e-05
2.10659296278e-05
2.10659164004e-05
2.10659290257e-05
2.10659656716e-05
2.10660217078e-05
2.10660897525e-05
2.10661606789e-05
2.10662185386e-05
2.10662658856e-05
2.10662797741e-05
2.10662382638e-05
2.10661806102e-05
2.10661103258e-05
2.10660435793e-05
2.10659894059e-05
2.10659542525e-05
2.10659418828e-05
2.10659534673e-05
2.10659874182e-05
2.10660396428e-05
2.10661035706e-05
2.10661708638e-05
2.106622585e-05
2.10662722305e-05
2.10662877501e-05
2.10662481488e-05
2.10661949876e-05
2.10661305392e-05
2.10660701109e-05
2.10660214643e-05
2.10659900256e-05
2.10659789265e-05
2.10659891269e-05
2.10660193367e-05
2.10660662031e-05
2.10661242548e-05
2.1066186269e-05
2.10662371541e-05
2.10662814109e-05
2.10662997441e-05
2.1066262744e-05
2.10662152692e-05
2.10661583704e-05
2.10661061747e-05
2.10660647538e-05
2.1066038204e-05
2.10660288125e-05
2.1066037276e-05
2.10660626491e-05
2.10661025036e-05
2.10661527599e-05
2.1066207718e-05
2.10662532937e-05
2.10662947177e-05
2.10663148132e-05
2.10662803443e-05
2.10662395159e-05
2.10661921378e-05
2.10661503223e-05
2.10661179916e-05
2.10660975466e-05
2.10660903215e-05
2.10660966806e-05
2.10661160871e-05
2.10661471362e-05
2.10661874546e-05
2.10662333476e-05
2.10662724568e-05
2.10663110656e-05
2.10663286179e-05
2.1066295516e-05
2.10662629928e-05
2.10662277065e-05
2.10661988675e-05
2.10661776141e-05
2.10661645725e-05
2.10661599596e-05
2.10661638523e-05
2.10661760828e-05
2.10661963392e-05
2.10662241216e-05
2.10662583239e-05
2.10662893244e-05
2.10663262694e-05
2.10663371486e-05
2.10663064962e-05
2.10662837014e-05
2.10662626931e-05
2.10662485292e-05
2.10662394066e-05
2.10662341821e-05
2.10662323526e-05
2.10662337057e-05
2.10662383407e-05
2.10662468331e-05
2.10662603081e-05
2.10662805914e-05
2.10663020637e-05
2.10663357449e-05
2.10663785034e-05
2.106633746e-05
2.10663179487e-05
2.10663046724e-05
2.10662986656e-05
2.10662958696e-05
2.10662946513e-05
2.10662943003e-05
2.10662945375e-05
2.10662955957e-05
2.10662981417e-05
2.10663039162e-05
2.1066317028e-05
2.10663358083e-05
2.10663784556e-05
1.9191988601e-05
1.9191992822e-05
1.91919950404e-05
1.91919907643e-05
1.91919848904e-05
1.91919786206e-05
1.91919733796e-05
1.91919693911e-05
1.91919667909e-05
1.91919655377e-05
1.91919654679e-05
1.91919661312e-05
1.91919667231e-05
1.91919654159e-05
1.9191961616e-05
1.919200307e-05
1.91920111053e-05
1.91920158017e-05
1.91920147499e-05
1.91920115639e-05
1.91920073757e-05
1.91920034267e-05
1.91919998187e-05
1.91919966656e-05
1.91919939429e-05
1.91919916146e-05
1.91919894046e-05
1.91919868491e-05
1.91919825604e-05
1.91919767119e-05
1.91920118102e-05
1.9192021708e-05
1.91920279198e-05
1.91920298724e-05
1.91920293722e-05
1.91920274765e-05
1.91920249757e-05
1.91920219425e-05
1.91920184297e-05
1.91920144982e-05
1.91920102312e-05
1.91920055649e-05
1.91920003765e-05
1.91919936174e-05
1.91919863071e-05
1.91920211889e-05
1.91920316613e-05
1.91920393212e-05
1.91920432783e-05
1.91920449231e-05
1.91920449302e-05
1.91920436835e-05
1.91920411882e-05
1.9192037447e-05
1.91920326008e-05
1.91920268457e-05
1.91920202998e-05
1.9192013124e-05
1.9192004422e-05
1.9191995996e-05
1.91920315684e-05
1.91920425458e-05
1.91920516037e-05