/*--------------------------------*- C++ -*----------------------------------*\
  =========                 |
  \\      /  F ield         | OpenFOAM: The Open Source CFD Toolbox
   \\    /   O peration     | Website:  https://openfoam.org
    \\  /    A nd           | Version:  7
     \\/     M anipulation  |
\*---------------------------------------------------------------------------*/
FoamFile
{
    version     2.0;
    format      ascii;
    class       surfaceScalarField;
    location    "1.88";
    object      phi;
}
// * * * * * * * * * * * * * * * * * * * * * * * * * * * * * * * * * * * * * //

dimensions      [0 3 -1 0 0 0 0];

internalField   nonuniform List<scalar> 
65775
(
4.45290372521e-11
5.75579150276e-09
1.08431518088e-09
-1.15391277346e-12
6.55509588672e-11
6.01641366273e-09
1.20127991185e-09
7.63551764207e-11
6.23500388134e-09
1.31304997741e-09
7.41769254763e-11
6.42382456296e-09
1.41365465685e-09
6.12769087406e-11
6.5736690919e-09
1.49783054761e-09
3.9899845183e-11
6.6832207928e-09
1.56134115371e-09
1.31587131811e-11
6.75217992789e-09
1.60142051506e-09
-1.54300300222e-11
6.77865048398e-09
1.61581035895e-09
-4.20425806678e-11
6.75284306453e-09
1.60142340049e-09
-6.31659824743e-11
6.68452141129e-09
1.56134670753e-09
-7.56434978392e-11
6.57557312782e-09
1.49783658333e-09
-7.72791378532e-11
6.42610726831e-09
1.41365940488e-09
-6.57801077199e-11
6.23749002732e-09
1.31305279053e-09
-4.42047728346e-11
6.01854688835e-09
1.20127146584e-09
5.75704361769e-09
1.08424708352e-09
-5.72914866298e-13
1.11928730267e-10
9.57757444971e-09
2.62541779179e-09
-2.70455886329e-12
1.8130411731e-10
9.96377592525e-09
2.89326194001e-09
2.12546378898e-10
1.02848202577e-08
3.1470299025e-09
2.08213251795e-10
1.05566945941e-08
3.37378854013e-09
1.72565357301e-10
1.07708125e-08
3.56231634713e-09
1.12678317696e-10
1.09261264128e-08
3.70387274372e-09
3.74572555739e-11
1.10239268916e-08
3.79294944379e-09
-4.28910243691e-11
1.10620503072e-08
3.82491224005e-09
-1.17800324184e-10
1.10254152574e-08
3.79294511119e-09
-1.77059881677e-10
1.09290474796e-08
3.7038642703e-09
-2.11717248776e-10
1.07750547859e-08
3.56230127905e-09
-2.14737242486e-10
1.05618643664e-08
3.37376698231e-09
-1.81938065092e-10
1.02904073031e-08
3.14700387072e-09
-1.11268299215e-10
9.96877049704e-09
2.89321036159e-09
9.58091939178e-09
2.62523934371e-09
-1.36480140113e-12
1.63266019674e-10
1.19445623138e-08
3.70442898111e-09
-3.71302429157e-12
2.70397092693e-10
1.23672340699e-08
4.07280207291e-09
3.17258555896e-10
1.2718044098e-08
4.4194945731e-09
3.10797248347e-10
1.3007022452e-08
4.72762069238e-09
2.57415906343e-10
1.32323797599e-08
4.98260990081e-09
1.68023843099e-10
1.33941471188e-08
5.17338193558e-09
5.59761331182e-11
1.34960142855e-08
5.29312750203e-09
-6.35926194922e-11
1.35364493898e-08
5.33602552795e-09
-1.7519591755e-10
1.34980769583e-08
5.2931179983e-09
-2.6369308899e-10
1.33981822055e-08
5.17336174833e-09
-3.15698117397e-10
1.32382061064e-08
4.98257716883e-09
-3.20340258461e-10
1.30141537784e-08
4.72757780595e-09
-2.71393623029e-10
1.27257256145e-08
4.4194478525e-09
-1.62495251624e-10
1.23742394906e-08
4.07272819428e-09
1.1949527341e-08
3.70419483875e-09
-1.95170201838e-12
2.03743574152e-10
1.32019642675e-08
4.44863193715e-09
-4.34473048388e-12
3.38992522726e-10
1.3604856868e-08
4.88401157639e-09
3.9800911549e-10
1.39392434934e-08
5.29096166138e-09
3.89472967049e-10
1.42056923598e-08
5.65066509756e-09
3.22236535013e-10
1.441050641e-08
5.94695667973e-09
2.10194604362e-10
1.45555357273e-08
6.16782660675e-09
7.01340716269e-11
1.46468648724e-08
6.30609604147e-09
-7.91874151675e-11
1.46839905917e-08
6.35553082237e-09
-2.18711130747e-10
1.46492537153e-08
6.30608213836e-09
-3.2967592338e-10
1.4560203788e-08
6.16779950768e-09
-3.95287067225e-10
1.44172094733e-08
5.94691707707e-09
-4.01711758637e-10
1.42138975622e-08
5.65061882401e-09
-3.40315711723e-10
1.39481092855e-08
5.29091908945e-09
-2.03035842013e-10
1.36130937784e-08
4.88395168152e-09
1.32081895286e-08
4.44841259376e-09
-2.40931004012e-12
2.34767869216e-10
1.36263442672e-08
4.92553380976e-09
-4.7042661893e-12
3.90960142165e-10
1.39761231899e-08
5.40283865485e-09
4.59314117884e-10
1.42677691204e-08
5.84577025726e-09
4.49054696833e-10
1.44908959885e-08
6.23503662536e-09
3.71209057406e-10
1.46589972942e-08
6.554150234e-09
2.42008914455e-10
1.47758696197e-08
6.79114459989e-09
8.08620444734e-11
1.48494840142e-08
6.93908839396e-09
-9.08032550085e-11
1.48804295683e-08
6.99185755139e-09
-2.51353347458e-10
1.48520175783e-08
6.93907428795e-09
-3.79365137549e-10
1.47808078311e-08
6.79111939263e-09
-4.55444006917e-10
1.46660642587e-08
6.55411764324e-09
-4.63448732605e-10
1.44995436274e-08
6.23500596837e-09
-3.92586632365e-10
1.42771726003e-08
5.84575562269e-09
-2.34231517394e-10
1.39849820918e-08
5.40282293594e-09
1.36333658968e-08
4.92537618757e-09
-2.77659280652e-12
2.58234508912e-10
1.34402918528e-08
5.18719284163e-09
-4.86229676165e-12
4.29530662716e-10
1.37206931403e-08
5.68782569727e-09
5.04741110158e-10
1.39577554624e-08
6.14899507137e-09
4.93049081955e-10
1.41298248737e-08
6.55192766228e-09
4.07277180373e-10
1.42558486018e-08
6.88066938046e-09
2.65410382451e-10
1.43412084073e-08
7.12390416641e-09
8.8800980746e-11
1.43950307593e-08
7.27529699648e-09
-9.921669931e-11
1.44187993852e-08
7.32914643067e-09
-2.75198962999e-10
1.43975412196e-08
7.27528637562e-09
-4.15822973722e-10
1.43460969632e-08
7.12388813309e-09
-4.99773035214e-10
1.42628250617e-08
6.88065452005e-09
-5.09172580687e-10
1.41383626705e-08
6.55192646698e-09
-4.31453378159e-10
1.39670832201e-08
6.14902485288e-09
-2.57954988602e-10
1.37296533912e-08
5.68787233193e-09
1.34477017575e-08
5.18711738285e-09
-3.06874701532e-12
2.75898081231e-10
1.28221014938e-08
5.27620903585e-09
-4.8750543793e-12
4.57543583531e-10
1.30292667199e-08
5.78685512812e-09
5.37415602387e-10
1.3209637352e-08
6.25385032023e-09
5.24484134691e-10
1.33314662943e-08
6.65955153645e-09
4.32947776313e-10
1.34169766113e-08
6.98904096844e-09
2.82043441277e-10
1.34725799875e-08
7.23196260103e-09
9.44900384436e-11
1.35077518777e-08
7.38271146311e-09
-1.05075288442e-10
1.35245648844e-08
7.43615489429e-09
-2.91994548548e-10
1.35101200233e-08
7.38270680973e-09
-4.41649993664e-10
1.34771876857e-08
7.23196030545e-09
-5.3137615025e-10
1.34235400261e-08
6.98905003866e-09
-5.42059984978e-10
1.33395055269e-08
6.65958714768e-09
-4.59752300728e-10
1.32184713214e-08
6.25393233429e-09
-2.75940569186e-10
1.30378858598e-08
5.78697017586e-09
1.28295031533e-08
5.27621836385e-09
-3.31658560412e-12
2.88979088312e-10
1.19131554528e-08
5.22827920601e-09
-4.77664436099e-12
4.7719278117e-10
1.20515480627e-08
5.73990201078e-09
5.59918455326e-10
1.21792965429e-08
6.20458960758e-09
5.45903090538e-10
1.22566581133e-08
6.6061392342e-09
4.50341366779e-10
1.2307119244e-08
6.93089746958e-09
2.93299235111e-10
1.23375224759e-08
7.16955846272e-09
9.83868535856e-11
1.23569377054e-08
7.31722977755e-09
-1.08922796737e-10
1.23676952407e-08
7.36937683931e-09
-3.03213520338e-10
1.23590715203e-08
7.31723209996e-09
-4.59039964227e-10
1.23416711017e-08
7.16957142297e-09
-5.52854609311e-10
1.23130267659e-08
6.93093196253e-09
-5.64725477054e-10
1.22639026856e-08
6.60621254692e-09
-4.79692449162e-10
1.21873097977e-08
6.20472329478e-09
-2.89394399532e-10
1.20594859189e-08
5.74008090991e-09
1.1920239561e-08
5.22836372858e-09
-3.52925879522e-12
2.98305675226e-10
1.08240999501e-08
5.07337905507e-09
-4.59957313394e-12
4.90155847451e-10
1.09030536374e-08
5.58028986154e-09
5.74329280824e-10
1.09855693529e-08
6.03782070266e-09
5.59400277204e-10
1.10265864116e-08
6.43129749478e-09
4.61216741277e-10
1.10492123882e-08
6.74836906913e-09
3.00328529169e-10
1.10601320528e-08
6.98072987644e-09
1.00868674467e-10
1.10674090639e-08
7.12409483682e-09
-1.11210533895e-10
1.10733188849e-08
7.17448721366e-09
-3.10077312632e-10
1.10692504258e-08
7.12410376302e-09
-4.69812014789e-10
1.10637113579e-08
6.98075684711e-09
-5.6635177786e-10
1.10543116778e-08
6.74842630378e-09
-5.79277345479e-10
1.10328588292e-08
6.43140377703e-09
-4.92958604827e-10
1.09925563175e-08
6.03799830078e-09
-2.99125955163e-10
1.0910082832e-08
5.58051947278e-09
1.0830582512e-08
5.07352084696e-09
-3.72206420619e-12
3.04429179469e-10
9.6400339967e-09
4.83645624971e-09
-4.37408396672e-12
4.9769900347e-10
9.67115100853e-09
5.33547009635e-09
5.82311773653e-10
9.71707048471e-09
5.78337588602e-09
5.66691860017e-10
9.73046820805e-09
6.16696806305e-09
4.67014007081e-10
9.73279990618e-09
6.4751257457e-09
3.04069232029e-10
9.73006340078e-09
6.70042622844e-09
1.0224139788e-10
9.72887303144e-09
6.83905394947e-09
-1.12306009601e-10
9.73119845447e-09
6.88751962863e-09
-3.13581246843e-10
9.73039004056e-09
6.83906790287e-09
-4.7545599164e-10
9.73301469243e-09
6.70046356288e-09
-5.7361884481e-10
9.73701024168e-09
6.47519940633e-09
-5.87401779828e-10
9.73566989457e-09
6.16709765051e-09
-5.00818894038e-10
9.72291837687e-09
5.78358344759e-09
-3.05686953044e-10
9.67712800329e-09
5.33573043159e-09
9.64575284013e-09
4.83663148364e-09
-3.90303136233e-12
3.07670844644e-10
8.42532545065e-09
4.53800610013e-09
-4.11962922854e-12
5.00750201929e-10
8.42034327825e-09
5.02772517017e-09
5.85207875453e-10
8.43812553228e-09
5.4651511723e-09
5.69173079646e-10
8.43221837962e-09
5.83840151122e-09
4.68886838964e-10
8.42136478857e-09
6.13747549229e-09
3.05257301959e-10
8.41033021466e-09
6.35570921995e-09
1.02740257297e-10
8.40401649269e-09
6.48962900982e-09
-1.12495546559e-10
8.40393350653e-09
6.53616184759e-09
-3.14507894412e-10
8.40520253123e-09
6.48964534932e-09
-4.77164875686e-10
8.41263816894e-09
6.35575110853e-09
-5.76078831887e-10
8.4246684141e-09
6.13755589119e-09
-5.90452415733e-10
8.43632326786e-09
5.83854011546e-09
-5.04201793806e-10
8.4427923335e-09
5.46536915751e-09
-3.09381090626e-10
8.42519459735e-09
5.02799065228e-09
8.43015908068e-09
4.53818627927e-09
-4.08393787118e-12
3.08110067597e-10
7.22768195473e-09
4.19466392302e-09
-3.84101249555e-12
5.00102882657e-10
7.19655043997e-09
4.67492056919e-09
5.84248499259e-10
7.19376467856e-09
5.10201697479e-09
5.68036752764e-10
7.17617359321e-09
5.46521987763e-09
4.67742583223e-10
7.15853633082e-09
5.75556631449e-09
3.04434783165e-10
7.14383162293e-09
5.9670693139e-09
1.02530770389e-10
7.13521684287e-09
6.09650909861e-09
-1.11984366948e-10
7.1337450648e-09
6.14117594376e-09
-3.13437034771e-10
7.13608110142e-09
6.09652419186e-09
-4.75873637672e-10
7.1455214863e-09
5.96710787387e-09
-5.74943516031e-10
7.16096065423e-09
5.75564039282e-09
-5.89666988851e-10
7.17921021584e-09
5.46534848469e-09
-5.03897091371e-10
7.19726261206e-09
5.10222045005e-09
-3.10278268246e-10
7.20025015067e-09
4.67516128335e-09
7.23154176802e-09
4.19481714742e-09
-4.27208125344e-12
3.05926967082e-10
6.08118856866e-09
3.81983842042e-09
-3.54855046178e-12
4.97107278304e-10
6.03028811336e-09
4.29130697593e-09
5.80931899452e-10
6.01408363142e-09
4.70876507078e-09
5.64355792156e-10
5.99203350323e-09
5.06250294579e-09
4.64208592252e-10
5.97318372486e-09
5.34460700507e-09
3.0190364615e-10
5.95852523155e-09
5.54975931768e-09
1.01697407169e-10
5.94982079443e-09
5.67495917164e-09
-1.10887602652e-10
5.94775199902e-09
5.71783403156e-09
-3.1069303637e-10
5.95039158387e-09
5.67496857297e-09
-4.72231643189e-10
5.95964100654e-09
5.54978487865e-09
-5.71294696472e-10
5.97479379992e-09
5.3446586158e-09
-5.86545518928e-10
5.99406588361e-09
5.06259785244e-09
-5.01250812398e-10
6.01646613228e-09
4.70892377025e-09
-3.08551006698e-10
6.0328603989e-09
4.29149061708e-09
6.08403408826e-09
3.81993426609e-09
-4.46350833644e-12
3.03284002155e-10
5.00691138966e-09
3.42435385824e-09
-3.25949778592e-12
4.94956595081e-10
4.9396162054e-09
3.88830663764e-09
5.77064415265e-10
4.91899158724e-09
4.29697541935e-09
5.58670177584e-10
4.89922731108e-09
4.64176776806e-09
4.58262146376e-10
4.88335242538e-09
4.9159791507e-09
2.97530951071e-10
4.87126763453e-09
5.11502150591e-09
1.00158875839e-10
4.86393486531e-09
5.2361232915e-09
-1.09139888147e-10
4.86186631013e-09
5.27724876052e-09
-3.06161994805e-10
4.86424543221e-09
5.23612234444e-09
-4.66221486713e-10
4.87188010448e-09
5.1150239014e-09
-5.65675926747e-10
4.88424257042e-09
4.91599090395e-09
-5.82885009816e-10
4.90036575972e-09
4.641802194e-09
-4.99440610782e-10
4.92035288433e-09
4.29705383732e-09
-3.06344922748e-10
4.94112912283e-09
3.88839959618e-09
5.00880476867e-09
3.42436992209e-09
-4.66033811574e-12
3.1719054821e-10
3.01785136579e-09
-2.94850610214e-12
3.99931277321e-09
5.03926693035e-10
3.47582519525e-09
3.93940622075e-09
5.77142997765e-10
3.8760692481e-09
3.92473481756e-09
5.52730737443e-10
4.21196780213e-09
3.91100482504e-09
4.50542143516e-10
4.47822549576e-09
3.8996686978e-09
2.91495943273e-10
4.67106849037e-09
3.89111954536e-09
9.79651434068e-11
4.78799880177e-09
3.88585913391e-09
-1.06797948211e-10
4.82734552215e-09
3.88411440712e-09
-3.00022035541e-10
4.78798486852e-09
3.88595478112e-09
-4.58481838439e-10
4.67104187464e-09
3.89130810617e-09
-5.59829896053e-10
4.47818688829e-09
3.8999501205e-09
-5.83181958067e-10
4.21192294397e-09
3.91137513923e-09
-5.08729181691e-10
3.87603866415e-09
3.92520627642e-09
-3.20638946478e-10
3.47577976947e-09
3.93997220642e-09
3.01780599837e-09
-4.83670779079e-12
4.00031173236e-09
-9.4520909194e-12
4.46052561723e-10
6.47047874194e-10
6.62024932139e-13
-1.02101106616e-11
4.88137978816e-10
7.13899024798e-10
-9.70250181508e-12
5.34972508504e-10
7.77999881897e-10
-8.57071760607e-12
5.77120231635e-10
8.35936478562e-10
-6.56872009285e-12
6.12040140209e-10
8.84507535928e-10
-3.84859848005e-12
6.38037066821e-10
9.21184777437e-10
-6.30762891647e-13
6.54212659217e-10
9.44337920082e-10
2.71175469728e-12
6.5991931413e-10
9.52659987655e-10
5.73892283342e-12
6.54012402705e-10
9.44336580022e-10
8.07865524096e-12
6.376834871e-10
9.21181336135e-10
9.55795461623e-12
6.11657858663e-10
8.84501400921e-10
1.01816982764e-11
5.76881464184e-10
8.35925982537e-10
1.02099288854e-11
5.34795011769e-10
7.77981495076e-10
9.2010006615e-12
4.88165514133e-10
7.13860996966e-10
4.45951625517e-10
6.46945764307e-10
2.99302239376e-13
-1.12192183841e-11
1.24320470705e-09
1.83796088704e-09
1.43963330738e-12
-9.01067671122e-12
1.3484897656e-09
2.03086974246e-09
-5.29159519329e-12
1.46308743941e-09
2.21585449176e-09
-2.37749151662e-12
1.56592441593e-09
2.38302926691e-09
-2.93292956301e-13
1.65016551916e-09
2.5231876774e-09
1.05036426283e-12
1.71237188122e-09
2.62903685026e-09
1.89883568478e-12
1.75095998574e-09
2.69581952186e-09
2.47629176825e-12
1.76463800088e-09
2.71974712386e-09
2.91102543318e-12
1.75060197103e-09
2.69582206833e-09
3.4415326293e-12
1.71173857081e-09
2.62904046248e-09
4.42665738779e-12
1.6494653752e-09
2.52318851311e-09
6.23323321741e-12
1.56545481448e-09
2.3830202397e-09
8.98789384114e-12
1.46282650625e-09
2.21582470049e-09
1.06506307995e-11
1.34852900666e-09
2.03078461864e-09
1.24306033433e-09
1.83772132571e-09
6.6858155981e-13
-2.43095925891e-12
2.10404805086e-09
2.8441305856e-09
1.78171258093e-12
6.52288034466e-12
2.26701997014e-09
3.14550352189e-09
1.4762398684e-11
2.44118184929e-09
3.43372633812e-09
1.8841850257e-11
2.59673579128e-09
3.69360373138e-09
1.8311494301e-11
2.72315746537e-09
3.91107750178e-09
1.38217678947e-11
2.81588075932e-09
4.07507372401e-09
6.67811349028e-12
2.87322449946e-09
4.17838719517e-09
-1.49864579241e-12
2.89362595302e-09
4.21530548963e-09
-9.14416796807e-12
2.8728653098e-09
4.17839185416e-09
-1.46118206925e-11
2.81525487402e-09
4.07508295475e-09
-1.64520091463e-11
2.72249442309e-09
3.91108647758e-09
-1.37141501111e-11
2.5963491687e-09
3.69360329119e-09
-6.60519625031e-12
2.44109960955e-09
3.43370117219e-09
1.68922085071e-12
2.26718942032e-09
3.14540480028e-09
2.10395876342e-09
2.84382188462e-09
8.10531867059e-13
1.24223067333e-11
2.88664784293e-09
3.65171471497e-09
1.81605623705e-12
3.03756627624e-11
3.09245965005e-09
4.04080244529e-09
4.35939537572e-11
3.3081783521e-09
4.41128944204e-09
4.81152733059e-11
3.49950255707e-09
4.74415298651e-09
4.33018305344e-11
3.65380377743e-09
5.02188611243e-09
3.05396944632e-11
3.76619377837e-09
5.23083435041e-09
1.24897602163e-11
3.83546226353e-09
5.3621958667e-09
-7.49304717239e-12
3.86017633426e-09
5.40901582523e-09
-2.60413713428e-11
3.83518009969e-09
5.36220452142e-09
-3.97667459594e-11
3.76571228364e-09
5.23085139432e-09
-4.58647551373e-11
3.65332485794e-09
5.02190710192e-09
-4.2669245563e-11
3.49928840974e-09
4.74416941702e-09
-3.05600497639e-11
3.30828974618e-09
4.4112858484e-09
-1.32494325639e-11
3.09276826829e-09
4.04072505306e-09
2.88663086731e-09
3.65140804254e-09
7.56433914282e-13
3.04346312134e-11
3.51177006743e-09
4.26826811164e-09
1.65973414794e-12
5.8137694464e-11
3.74311446287e-09
4.72460808535e-09
7.62079547848e-11
3.97970328536e-09
5.15665993804e-09
8.05040203296e-11
4.18781094117e-09
5.54306644333e-09
7.05324721791e-11
4.35427138536e-09
5.86426340096e-09
4.85123402101e-11
4.4745961867e-09
6.10519052316e-09
1.8533608188e-11
4.54845456253e-09
6.25628014065e-09
-1.42713598691e-11
4.5748643127e-09
6.30998744452e-09
-4.4693043617e-11
4.54825998499e-09
6.25629262693e-09
-6.75628449575e-11
4.47427604195e-09
6.10521585913e-09
-7.86663406121e-11
4.35398471049e-09
5.86429934536e-09
-7.55405206863e-11
4.18776872638e-09
5.54310772286e-09
-5.84539259376e-11
3.9799573219e-09
5.15669415314e-09
-3.13101053315e-11
3.74355815959e-09
4.72458083559e-09
3.51181211234e-09
4.26801387944e-09
5.74099455826e-13
4.92686495858e-11
3.94414735258e-09
4.70407708138e-09
1.39627397696e-12
8.65978685659e-11
4.18520287709e-09
5.2085781402e-09
1.09007217176e-10
4.42364668847e-09
5.68304474268e-09
1.12548107508e-10
4.63156229625e-09
6.10514403659e-09
9.71466163293e-11
4.79630618023e-09
6.45449889758e-09
6.59061628067e-11
4.91439679722e-09
6.71565626961e-09
2.42719197754e-11
4.98654532743e-09
6.87897557066e-09
-2.09893447113e-11
5.01239319378e-09
6.93686285476e-09
-6.2987510042e-11
4.98642569272e-09
6.87899220153e-09
-9.49222343558e-11
4.91421055073e-09
6.71569114165e-09
-1.11246917178e-10
4.79616895941e-09
6.4545530673e-09
-1.08665911313e-10
4.63162924095e-09
6.10521688958e-09
-8.70595348145e-11
4.42396617578e-09
5.68312874105e-09
-5.01963973144e-11
4.18566713807e-09
5.20861968537e-09
3.94424341595e-09
4.70390277308e-09
3.12392669924e-13
6.72092014583e-11
4.17880956442e-09
4.97318094695e-09
1.09609946499e-12
1.1346540629e-10
4.41683103569e-09
5.50910644365e-09
1.3949948187e-10
4.64230900081e-09
6.009455099e-09
1.41903362778e-10
4.83705291498e-09
6.45203900247e-09
1.21251333009e-10
4.98966603921e-09
6.81666692069e-09
8.15226573066e-11
5.09803872729e-09
7.08826199959e-09
2.93554128071e-11
5.16389456881e-09
7.25760253598e-09
-2.71014046106e-11
5.18752469547e-09
7.31743238324e-09
-7.95494196137e-11
5.16382251068e-09
7.25762359701e-09
-1.1981177176e-10
5.09793301345e-09
7.08830727317e-09
-1.41172150316e-10
4.98961000498e-09
6.81674110998e-09
-1.39509460013e-10
4.83715765954e-09
6.45214655237e-09
-1.14092443061e-10
4.64262910916e-09
6.00959377768e-09
-6.81953602536e-11
4.41725960132e-09
5.50922312363e-09
4.17892053258e-09
4.97309536042e-09
6.31611449837e-15
8.30934814853e-11
4.23040633355e-09
5.09278364597e-09
7.96277662232e-13
1.37231954521e-10
4.45636169334e-09
5.64635500729e-09
1.66084932351e-10
4.65901730935e-09
6.15926704508e-09
1.67120425013e-10
4.83212895641e-09
6.61030436895e-09
1.41713268762e-10
4.96602498167e-09
6.98017599577e-09
9.46606869672e-11
5.06009576982e-09
7.25468752232e-09
3.35808652284e-11
5.11690906296e-09
7.42532080821e-09
-3.22936496715e-11
5.13731882558e-09
7.48538958333e-09
-9.35785433751e-11
5.11685732343e-09
7.42534594773e-09
-1.41018904659e-10
5.06001966504e-09
7.25474246022e-09
-1.66940464404e-10
4.96598299399e-09
6.98026883802e-09
-1.66444334445e-10
4.83220080011e-09
6.61044426699e-09
-1.38040553027e-10
4.65925580019e-09
6.15945661898e-09
-8.41537616552e-11
4.45668155426e-09
5.64654045265e-09
4.23044205248e-09
5.09278005059e-09
-3.19438826446e-13
9.62342394054e-11
4.12499264096e-09
5.08205675924e-09
5.17726026606e-13
1.56984593637e-10
4.3333620573e-09
5.64264561664e-09
1.8783694165e-10
4.50802266514e-09
6.15813610229e-09
1.87423560133e-10
4.65521389802e-09
6.60881324689e-09
1.57969600086e-10
4.76726266528e-09
6.97673028583e-09
1.04992298537e-10
4.84502048626e-09
7.24885102349e-09
3.6856969875e-11
4.89164956497e-09
7.41747455631e-09
-3.6423714973e-11
4.90841074372e-09
7.47658990714e-09
-1.04701159197e-10
4.89159545648e-09
7.41750227618e-09
-1.57945279111e-10
4.8449321403e-09
7.24891234038e-09
-1.87752581485e-10
4.76718103216e-09
6.97683607804e-09
-1.88535745865e-10
4.65519846746e-09
6.60897659303e-09
-1.57986894482e-10
4.50812484801e-09
6.15836360936e-09
-9.73946431262e-11
4.33351288536e-09
5.64288161266e-09
4.12489893595e-09
5.08211554923e-09
-6.47277986299e-13
1.06337935199e-10
3.89404589978e-09
4.96085330129e-09
2.75146667307e-13
1.72272882e-10
4.08216258163e-09
5.52084586763e-09
2.04358483359e-10
4.22742498814e-09
6.03202012784e-09
2.02557286135e-10
4.3476873691e-09
6.47641919295e-09
1.69895848328e-10
4.4374652142e-09
6.83766566322e-09
1.12474442812e-10
4.49889727756e-09
7.10399044545e-09
3.91795237598e-11
4.53544336945e-09
7.26851080507e-09
-3.94747666257e-11
4.54857269156e-09
7.32591209191e-09
-1.12862760669e-10
4.53537269214e-09
7.26853814178e-09
-1.7045720827e-10
4.49877009956e-09
7.10405174891e-09
-2.03345977032e-10
4.43730932661e-09
6.83777372609e-09
-2.05381840819e-10
4.34754652586e-09
6.47659010087e-09
-1.73480322315e-10
4.22734565271e-09
6.03226366696e-09
-1.07620053238e-10
4.0820891585e-09
5.5211038345e-09
3.89374726975e-09
4.96094444993e-09
-9.68416959521e-13
1.13408250474e-10
3.57007029505e-09
4.74860235386e-09
6.8412548353e-14
1.83027449228e-10
3.73730646878e-09
5.30306175797e-09
2.1570623536e-10
3.85433456563e-09
5.80565712847e-09
2.12723541799e-10
3.94891515476e-09
6.24022812821e-09
1.77751307298e-10
4.01789753026e-09
6.59204774938e-09
1.17312758961e-10
4.0643949834e-09
6.85063326337e-09
4.06226283773e-11
4.09182471694e-09
7.00987113037e-09
-4.15294376461e-11
4.10165478203e-09
7.06512314647e-09
-1.18276362635e-10
4.09173164649e-09
7.00989355025e-09
-1.78819057589e-10
4.06421844677e-09
6.8506848949e-09
-2.13924937707e-10
4.01765536373e-09
6.59214231132e-09
-2.17039305396e-10
3.94863725385e-09
6.2403838642e-09
-1.84449574943e-10
3.85405893818e-09
5.80588672001e-09
-1.14833523725e-10
3.73698330745e-09
5.30330482403e-09
3.56952426929e-09
4.74868779813e-09
-1.2757520783e-12
1.17658405046e-10
3.18376874008e-09
4.46350156926e-09
-1.09545482604e-13
1.89554190275e-10
3.3306589067e-09
5.00975278923e-09
2.22452968806e-10
3.42191902833e-09
5.50159651024e-09
2.18653085423e-10
3.49341502115e-09
5.9245542146e-09
1.82224843643e-10
3.54431110511e-09
6.26557814824e-09
1.19983448048e-10
3.57817895343e-09
6.51547823635e-09
4.1350267116e-11
3.59802037016e-09
6.66886443232e-09
-4.27688205021e-11
3.60508069502e-09
6.72174907165e-09
-1.21432411501e-10
3.5979071228e-09
6.66887601296e-09
-1.83728326505e-10
3.57795684027e-09
6.51550764686e-09
-2.20222390474e-10
3.54398789645e-09
6.26563890872e-09
-2.24076996701e-10
3.49300926884e-09
5.92466599577e-09
-1.91193342432e-10
3.42145749396e-09
5.50177560557e-09
-1.19239392641e-10
3.33009826941e-09
5.00993895792e-09
3.18298164883e-09
4.46353862496e-09
-1.56686036642e-12
1.19509914375e-10
2.76240623497e-09
4.12202437011e-09
-2.5856807889e-13
1.92770548272e-10
2.8894980239e-09
4.65926398937e-09
2.26025006885e-10
2.95773972579e-09
5.13972452793e-09
2.218796057e-10
3.00961763911e-09
5.55044961212e-09
1.84604788047e-10
3.0459984583e-09
5.88016086552e-09
1.21327218292e-10
3.0701460236e-09
6.12101272031e-09
4.16429836472e-11
3.08423627688e-09
6.26832553366e-09
-4.34900752357e-11
3.08918776163e-09
6.31874927849e-09
-1.23185203822e-10
3.08410774762e-09
6.26831961513e-09
-1.86480805319e-10
3.06988971334e-09
6.12100577849e-09
-2.23769568715e-10
3.0456166978e-09
5.88016482515e-09
-2.27910570119e-10
3.00911251803e-09
5.55048458995e-09
-1.94610635154e-10
2.95712366129e-09
5.13981228046e-09
-1.21239122294e-10
2.88872665176e-09
4.6593508894e-09
2.76139746462e-09
4.12197442624e-09
-1.82441543937e-12
1.19381891411e-10
2.32911512354e-09
3.73869059188e-09
-3.86488881144e-13
1.94415895995e-10
2.43509792009e-09
4.26769869054e-09
2.29002962311e-10
2.4830262034e-09
4.73710778015e-09
2.24929086195e-10
2.51986193145e-09
5.13558320886e-09
1.86896913573e-10
2.54608837199e-09
5.45388366822e-09
1.22596029674e-10
2.5637870788e-09
5.68560447096e-09
4.19347131912e-11
2.57415004542e-09
5.82678643524e-09
-4.41400664667e-11
2.57767507538e-09
5.87471681073e-09
-1.24795188377e-10
2.5740129456e-09
5.82675704174e-09
-1.89080764227e-10
2.56350959805e-09
5.68554840084e-09
-2.27085309808e-10
2.54566530279e-09
5.45380941646e-09
-2.31104719844e-10
2.51928822306e-09
5.13550894235e-09
-1.96422941994e-10
2.48230081369e-09
4.73706174519e-09
-1.21232078794e-10
2.43416465832e-09
4.26764727818e-09
2.32794217177e-09
3.73852988806e-09
-2.05051190396e-12
1.09782996142e-10
3.32563932548e-09
-5.03251884026e-13
1.91205804774e-09
1.94589451712e-10
3.84863702195e-09
1.97748390549e-09
2.33492644131e-10
4.30748021585e-09
2.0127065404e-09
2.3025598433e-10
4.69395920932e-09
2.04107514963e-09
1.91283475938e-10
5.00106059665e-09
2.06217551612e-09
1.2531419565e-10
5.22382392436e-09
2.07693738145e-09
4.27490298052e-11
5.35898146727e-09
2.08564271789e-09
-4.52468866082e-11
5.40444766261e-09
2.08847568063e-09
-1.27787935586e-10
5.35892656949e-09
2.08549308288e-09
-1.93706573562e-10
5.22371433431e-09
2.07663968882e-09
-2.32603328403e-10
5.00089988087e-09
2.06172052457e-09
-2.35732918393e-10
4.69375914362e-09
2.04045372689e-09
-1.96686552585e-10
4.30727289195e-09
2.01189731682e-09
-1.1168578583e-10
3.848397207e-09
1.97643148076e-09
3.32539923018e-09
-2.20185459002e-12
1.91075827488e-09
7.47493664635e-12
-5.61490794091e-13
6.39896681226e-10
1.1282953469e-14
1.37013070012e-11
-1.84569755789e-12
7.09456553949e-10
1.72814505249e-11
-2.25714644755e-12
7.76609484613e-10
1.78176285266e-11
-2.21771506517e-12
8.37713509776e-10
1.52283507663e-11
-2.20326183871e-12
8.89230906583e-10
1.01213336914e-11
-2.2305656816e-12
9.2830292039e-10
3.41246439318e-12
-2.23434054016e-12
9.53027212554e-10
-3.8367588823e-12
-2.22285313893e-12
9.61905734393e-10
-1.0490873093e-11
-2.23796737662e-12
9.53030671673e-10
-1.55139826471e-11
-2.28136799659e-12
9.28309130222e-10
-1.80563497334e-11
-2.35737264121e-12
8.89237797e-10
-1.75545811185e-11
-2.44623049437e-12
8.3771669897e-10
-1.39585846903e-11
-2.36427684274e-12
7.76602216017e-10
-7.72456259136e-12
-1.93828094124e-12
7.09424826202e-10
-5.57503498079e-13
6.39802380367e-10
-1.56578408099e-13
1.82617865101e-11
8.4036917361e-11
1.73469619873e-09
1.29315354338e-13
3.37426239871e-11
9.17145370381e-11
1.92169973667e-09
4.29618721513e-11
1.02429878449e-10
2.10195288746e-09
4.44704895974e-11
1.13651415978e-10
2.26571352082e-09
3.81843148102e-11
1.23498608982e-10
2.40361602076e-09
2.55061652978e-11
1.31038696889e-10
2.50810947263e-09
8.71592280122e-12
1.35833365349e-10
2.57416625025e-09
-9.47935453024e-12
1.37541593103e-10
2.59783239952e-09
-2.61847629417e-11
1.35804772494e-10
2.57417659169e-09
-3.87458812946e-11
1.3091309019e-10
2.50812825871e-09
-4.50001343141e-11
1.231887778e-10
2.40363747748e-09
-4.35958009139e-11
1.13199197349e-10
2.26572544493e-09
-3.44245200913e-11
1.02119433265e-10
2.10193575873e-09
-1.89204885126e-11
9.15062007589e-11
1.92161474192e-09
8.39532052473e-11
1.73445818595e-09
-3.74065316117e-13
2.59996025105e-11
2.58285837222e-10
2.64336521881e-09
2.92662197723e-13
4.81533148617e-11
2.85188723225e-10
2.92973887251e-09
6.15382238676e-11
3.17556103275e-10
3.20523126713e-09
6.38479469492e-11
3.49829945163e-10
3.45514243318e-09
5.49859891611e-11
3.77927762764e-10
3.66536018068e-09
3.68632493073e-11
3.99417707293e-10
3.82451318552e-09
1.27269790694e-11
4.13003103539e-10
3.92501263033e-09
-1.34842588369e-11
4.17812036296e-10
3.96092889323e-09
-3.7557392918e-11
4.12953169231e-10
3.92503033778e-09
-5.56128536868e-11
3.99245268441e-10
3.82454544562e-09
-6.45208348159e-11
3.7754178983e-10
3.66539822725e-09
-6.23989479029e-11
3.49282023182e-10
3.45516844636e-09
-4.91489538291e-11
3.17134361387e-10
3.20521681692e-09
-2.69894436304e-11
2.84916090017e-10
2.9296286904e-09
2.58076742975e-10
2.64304195776e-09
-5.23423661685e-13
3.22301665621e-11
4.90065504852e-10
3.38706972366e-09
4.46268239622e-13
5.95580903111e-11
5.41426442879e-10
3.75717276737e-09
7.61421977968e-11
6.00101840392e-10
4.1121897608e-09
7.90870622397e-11
6.57465229778e-10
4.4335677519e-09
6.8244276882e-11
7.07040192469e-10
4.70347222166e-09
4.58734588373e-11
7.44808838264e-10
4.90755869177e-09
1.5948291894e-11
7.68583110044e-10
5.03625342557e-09
-1.66050571574e-11
7.76975632162e-10
5.08212853018e-09
-4.65073150927e-11
7.68525793591e-10
5.0362783819e-09
-6.8884456447e-11
7.44631483305e-10
4.90760457376e-09
-7.98551989641e-11
7.06667416942e-10
4.70352850534e-09
-7.7167001795e-11
6.56936008181e-10
4.4336139002e-09
-6.07861085332e-11
5.99642518284e-10
4.11219328245e-09
-3.34939423824e-11
5.4108783737e-10
3.75706972277e-09
4.89738764615e-10
3.38672481124e-09
-6.48198108035e-13
3.79816774167e-11
7.45321511124e-10
3.97430342586e-09
5.59546973441e-13
6.96064249283e-11
8.21363114412e-10
4.41302487693e-09
8.87224243265e-11
9.05422176764e-10
4.832236436e-09
9.20903312718e-11
9.86504730514e-10
5.21064406412e-09
7.95158940853e-11
1.05600894692e-09
5.52773980888e-09
5.35203615034e-11
1.10868113703e-09
5.76709131142e-09
1.86643911457e-11
1.14170428582e-09
5.91776146037e-09
-1.92903909527e-11
1.15334406905e-09
5.97132485238e-09
-5.41587253326e-11
1.14166005593e-09
5.91779232454e-09
-8.02192949299e-11
1.10853900964e-09
5.76714881317e-09
-9.29770219597e-11
1.05570229839e-09
5.52781331519e-09
-8.99022944922e-11
9.86056145817e-10
5.21071343142e-09
-7.10233252549e-11
9.04998052764e-10
4.8322696741e-09
-3.9468433825e-11
8.20981491836e-10
4.41295420523e-09
7.44908259243e-10
3.97398197096e-09
-7.70685828509e-13
4.37962622334e-11
9.92106444436e-10
4.41277453775e-09
6.20849027203e-13
7.92190816811e-11
1.08901826652e-09
4.90549164595e-09
1.00383469558e-10
1.19331237178e-09
5.37401447276e-09