/*--------------------------------*- C++ -*----------------------------------*\
  =========                 |
  \\      /  F ield         | OpenFOAM: The Open Source CFD Toolbox
   \\    /   O peration     | Website:  https://openfoam.org
    \\  /    A nd           | Version:  7
     \\/     M anipulation  |
\*---------------------------------------------------------------------------*/
FoamFile
{
    version     2.0;
    format      ascii;
    class       volVectorField;
    location    "1.88";
    object      U;
}
// * * * * * * * * * * * * * * * * * * * * * * * * * * * * * * * * * * * * * //

dimensions      [0 1 -1 0 0 0 0];

internalField   nonuniform List<vector> 
22500
(
(2.53339935187e-05 2.80748700383e-05 0.000512907451861)
(2.37972643857e-05 3.14457861065e-05 0.00053876249945)
(2.09423954515e-05 3.49768474256e-05 0.000562495934335)
(1.7693342722e-05 3.8020044672e-05 0.0005829763581)
(1.38013403582e-05 4.05695045881e-05 0.000599546781555)
(9.46497171017e-06 4.24804973533e-05 0.000611718427966)
(4.80075275189e-06 4.36644379612e-05 0.00061916073872)
(-3.37614160528e-08 4.40651197892e-05 0.000621675288211)
(-4.86670907643e-06 4.36623450268e-05 0.000619156858073)
(-9.52646865221e-06 4.24770730877e-05 0.000611710894643)
(-1.38546486007e-05 4.05667568975e-05 0.000599536080715)
(-1.77346819035e-05 3.80199116249e-05 0.000582963939472)
(-2.09672476412e-05 3.4983557449e-05 0.000562483474918)
(-2.38037305842e-05 3.14600542127e-05 0.000538749687637)
(-2.53255931518e-05 2.80935874698e-05 0.000512874808703)
(7.2749080113e-05 8.09584557835e-05 0.00127263200697)
(6.80859623817e-05 9.04845361847e-05 0.00132482125399)
(6.00288404501e-05 0.000100282779393 0.00137216430381)
(5.05981011334e-05 0.000108781283282 0.00141254146849)
(3.94453196586e-05 0.000115886584971 0.00144486108202)
(2.70330541007e-05 0.000121207533784 0.00146840140134)
(1.37117588569e-05 0.000124504229322 0.00148271127936)
(-8.08173669163e-08 0.000125620753287 0.00148752539001)
(-1.38699630999e-05 0.000124502940843 0.00148269728847)
(-2.71811619375e-05 0.000121206570044 0.00146837451195)
(-3.95753638548e-05 0.000115889894602 0.00144482339218)
(-5.07011156098e-05 0.000108792520931 0.00141249782483)
(-6.00949233031e-05 0.000100309301544 0.00137212056826)
(-6.81109252089e-05 9.05261673028e-05 0.00132477707701)
(-7.27373678929e-05 8.10088768852e-05 0.00127254675238)
(0.000106465979507 0.000118494088702 0.00183669549424)
(9.90704886181e-05 0.000131532546661 0.00190027084027)
(8.70760780973e-05 0.000144850565907 0.00195733749634)
(7.31138087401e-05 0.000156347374493 0.00200553026402)
(5.68409350204e-05 0.000165916026985 0.00204375122914)
(3.88725794603e-05 0.000173057751757 0.00207138653548)
(1.96925210941e-05 0.000177474269415 0.0020880993232)
(-1.13296922596e-07 0.000178970275101 0.0020937015205)
(-1.99147487362e-05 0.000177478222659 0.00208807760549)
(-3.90817779959e-05 0.000173067552364 0.00207134504014)
(-5.70270663319e-05 0.000165935939604 0.00204369357572)
(-7.32652958792e-05 0.000156381337562 0.00200546385913)
(-8.71797045458e-05 0.000144904588095 0.00195727203309)
(-9.91204032044e-05 0.000131603931715 0.00190020747955)
(-0.000106463699114 0.000118573499323 0.00183658013657)
(0.000130073837806 0.000144706790378 0.00225802502396)
(0.000120358270691 0.000159409249179 0.00232402605085)
(0.00010538886248 0.000174406212741 0.00238261166847)
(8.81416097777e-05 0.000187239940842 0.0024315902582)
(6.83199378424e-05 0.000197869797701 0.00247006722284)
(4.66175417576e-05 0.000205771098043 0.00249767569473)
(2.35837179124e-05 0.000210645731968 0.00251428237447)
(-1.34673873348e-07 0.000212296141798 0.0025198296615)
(-2.38481463069e-05 0.000210654682921 0.00251425718198)
(-4.68671527098e-05 0.000205790861135 0.00249762794694)
(-6.85435706125e-05 0.000197904239151 0.00247000164931)
(-8.83266954471e-05 0.000187292640141 0.00243151581224)
(-0.000105520825591 0.000174481218024 0.00238254082053)
(-0.000120430748592 0.000159501794527 0.00232396264079)
(-0.000130085321634 0.000144806877272 0.00225791209162)
(0.000146181208109 0.000162581389866 0.0025726182756)
(0.000134545005736 0.000177700468005 0.00263568452617)
(0.000117354678066 0.000193168970205 0.00269100020017)
(9.77787019934e-05 0.000206274349294 0.00273674711384)
(7.5571483425e-05 0.000217075305647 0.00277232080118)
(5.14536443284e-05 0.000225070689729 0.00279763423267)
(2.599584438e-05 0.000229991247053 0.00281277103788)
(-1.47881892624e-07 0.000231656170761 0.00281780958282)
(-2.62863780158e-05 0.000230004152755 0.00281274624129)
(-5.17283804457e-05 0.000225098136812 0.0027975877705)
(-7.58187803381e-05 0.000217120466941 0.00277225807515)
(-9.7985867088e-05 0.000206340063094 0.00273667789355)
(-0.00011750730718 0.000193257904527 0.00269093882522)
(-0.000134636682369 0.000177806128246 0.00263563765266)
(-0.000146208181678 0.000162695001671 0.00257253138832)
(0.000156249992508 0.000173728984533 0.00280624873937)
(0.000143071861035 0.000188349870003 0.00286334127747)
(0.00012429994838 0.000203421290433 0.00291279766026)
(0.000103186611869 0.000216056331234 0.00295322718158)
(7.95295352384e-05 0.000226417030565 0.00298432093423)
(5.40358704156e-05 0.000234056039123 0.00300624447846)
(2.72658353727e-05 0.000238746048767 0.00301926930988)
(-1.54934026781e-07 0.000240332105889 0.00302358909463)
(-2.75703968322e-05 0.000238761894805 0.00301924766631)
(-5.43243600732e-05 0.000234089044502 0.00300620462265)
(-7.97903527414e-05 0.000226469580174 0.00298426862518)
(-0.000103407474047 0.000216130379046 0.00295317263244)
(-0.000124467594496 0.000203518279085 0.00291275657229)
(-0.000143180260837 0.000188462353844 0.00286332249181)
(-0.000156292790732 0.000173849958263 0.00280619992133)
(0.000161419676641 0.00017938402482 0.00297807352608)
(0.000147058747892 0.000192855270558 0.00302770979448)
(0.000127257174076 0.000206914311983 0.00307018224849)
(0.000105264551119 0.000218575151947 0.00310448773579)
(8.09141567704e-05 0.000228088865134 0.00313056288933)
(5.4867530274e-05 0.000235077585211 0.00314876487845)
(2.76520136801e-05 0.00023935889015 0.00315950187256)
(-1.57435587271e-07 0.000240806111677 0.00316304940108)
(-2.79616630881e-05 0.000239376519225 0.00315948495562)
(-5.51613855747e-05 0.000235113844509 0.0031487346376)
(-8.11810422802e-05 0.000228145329538 0.00313052530972)
(-0.000105492964714 0.000218652953368 0.00310445340456)
(-0.000127435258566 0.000207013842027 0.00307016803644)
(-0.000147181343997 0.00019296898517 0.00302772560492)
(-0.000161477873202 0.000179506862009 0.00297806717033)
(0.000162705556982 0.00018066346014 0.00310267888807)
(0.000147496433539 0.000192562257491 0.00314442389829)
(0.000127134932771 0.000205202792108 0.00317975811989)
(0.000104798170915 0.00021557700875 0.00320796903876)
(8.03501177239e-05 0.000223999813518 0.0032291549563)
(5.43830020817e-05 0.000230167675683 0.00324378795657)
(2.73765712734e-05 0.000233939015309 0.00325235381785)
(-1.56666515372e-07 0.000235213549182 0.00325517300437)
(-2.76848943728e-05 0.000233957284388 0.00325234221263)
(-5.46762371865e-05 0.000230204895105 0.00324376843943)
(-8.06177951159e-05 0.000224056884834 0.0032291337602)
(-0.000105029770257 0.000215654331992 0.00320795725463)
(-0.000127320149746 0.000205300031865 0.00317977372468)
(-0.000147630911741 0.000192672041674 0.00314447649666)
(-0.000162778222675 0.00018078333957 0.00310271425352)
(0.000160975229676 0.000178533056049 0.00319131747643)
(0.000145220127753 0.000188617386702 0.00322542097305)
(0.000124691498124 0.000199593017244 0.00325407697485)
(0.000102437221241 0.000208508195752 0.00327673703396)
(7.83497522643e-05 0.000215713953019 0.00329356226938)
(5.2936082156e-05 0.000220978300232 0.00330506086127)
(2.66196473866e-05 0.00022419281511 0.0033117393759)
(-1.53726707675e-07 0.000225279210246 0.00331392905523)
(-2.69224051452e-05 0.000224210621181 0.00331173297293)
(-5.32247558266e-05 0.000221014309058 0.00330505184525)
(-7.8614785719e-05 0.000215768569121 0.00329355722283)
(-0.000102669172635 0.000208581285053 0.00327674774753)
(-0.000124881564942 0.000199683793921 0.00325412245263)
(-0.000145364564062 0.000188719105121 0.00322550899546)
(-0.000161061085861 0.000178645835994 0.00319139015505)
(0.000156947534227 0.000173799582622 0.00325271503531)
(0.000140909246773 0.000181960854976 0.0032798466283)
(0.000120535608079 0.000191138340504 0.00330263677371)
(9.86986941171e-05 0.00019851685857 0.00332056479293)
(7.53170157751e-05 0.000204458538241 0.00333375744546)
(5.08035052817e-05 0.000208794626361 0.00334268894161)
(2.55213963063e-05 0.000211440836036 0.00334783898232)
(-1.49532246695e-07 0.000212335523231 0.00334952194574)
(-2.58161543971e-05 0.000211457232283 0.0033478372224)
(-5.10853974846e-05 0.000208827612862 0.00334268931755)
(-7.55774953171e-05 0.000204508167935 0.00333376697792)
(-9.89294685724e-05 0.000198582728314 0.00332059610403)
(-0.000120729221793 0.000191219482312 0.00330270971486)
(-0.000141062416611 0.000182051398217 0.00327996551994)
(-0.00015704547205 0.000173902077413 0.00325281749408)
(0.000151212942902 0.000167134258396 0.00329364936875)
(0.00013510897792 0.000173353529739 0.003314711752)
(0.000115148741257 0.00018067404907 0.00333261009386)
(9.39881555606e-05 0.000186499302418 0.00334672141268)
(7.15654459225e-05 0.000191181120443 0.00335705915992)
(4.81978568054e-05 0.000194600524228 0.003364012236)
(2.41886745236e-05 0.000196688399299 0.00336799980482)
(-1.44844112458e-07 0.000197394893253 0.00336930007657)
(-2.44744880005e-05 0.00019670264719 0.00336800179872)
(-4.8472153046e-05 0.000194629070072 0.00336402018366)
(-7.18207207727e-05 0.000191223851028 0.00335708047909)
(-9.42172130861e-05 0.000186555738523 0.00334676951311)
(-0.000115345304416 0.000180743355466 0.00333270537676)
(-0.000135270009162 0.000173430844236 0.00331485343291)
(-0.000151322184367 0.000167224508224 0.00329377033599)
(0.000144251519746 0.000159098231066 0.00331942378053)
(0.000128252591273 0.000163400132956 0.00333543704964)
(0.000108910832945 0.000168848651856 0.00334944135079)
(8.86227664677e-05 0.000173143973314 0.0033606082806)
(6.73359503134e-05 0.000176603721523 0.00336879916686)
(4.52794982433e-05 0.000179139485494 0.00337429605609)
(2.27010705481e-05 0.000180690393922 0.00337744138919)
(-1.40258169425e-07 0.000181215890971 0.00337846665472)
(-2.29781822743e-05 0.000180701990363 0.00337744587237)
(-4.55464928577e-05 0.000179162700748 0.00337430887026)
(-6.75863321683e-05 0.000176638339365 0.00336882780754)
(-8.88503430545e-05 0.000173189630033 0.00336066659303)
(-0.00010911025055 0.000168904819194 0.00334954997869)
(-0.000128420837836 0.000163462989168 0.00333558885677)
(-0.000144371426113 0.000159174622185 0.00331954673105)
(0.000136440518115 0.000150134228633 0.00333432663293)
(0.000120693386533 0.000152551500964 0.00334637758452)
(0.000102133513461 0.000156150602203 0.00335739440759)
(8.28539799675e-05 0.000158974228896 0.00336631666376)
(6.28107906229e-05 0.000161273077235 0.00337288935987)
(4.21649736119e-05 0.000162968208056 0.00337730712093)
(2.11150804948e-05 0.000164006987994 0.0033798381858)
(-1.36231553601e-07 0.000164359349014 0.00338066445654)
(-2.13845697804e-05 0.000164015743302 0.00337984334533)
(-4.24257501921e-05 0.000162985723231 0.00337732076049)
(-6.30573009467e-05 0.000161299129658 0.00337291825107)
(-8.30808339824e-05 0.000159008616164 0.00336637414147)
(-0.000102336078425 0.000156193217086 0.00335750116784)
(-0.000120868496709 0.000152599540899 0.00334652069923)
(-0.000136570599768 0.000150195846783 0.00333442988496)
(0.000128113173778 0.000140543510478 0.00334216673056)
(0.000112788577508 0.000141129176219 0.00335139209598)
(9.50935842816e-05 0.000142930777306 0.00336008168506)
(7.68718008525e-05 0.000144391351737 0.00336713070005)
(5.81126893348e-05 0.00014560570828 0.00337231820142)
(3.89272685275e-05 0.000146504926004 0.00337581066911)
(1.94648085176e-05 0.000147055060007 0.00337781825775)
(-1.33011705187e-07 0.000147241825712 0.00337847522049)
(-1.97283122842e-05 0.000147061079662 0.00337782160776)
(-3.91833991318e-05 0.000146516961626 0.00337581944474)
(-5.83567447795e-05 0.000145623624408 0.00337233690732)
(-7.7098992004e-05 0.000144415067544 0.00336716988337)
(-9.5299673548e-05 0.000142960480718 0.00336016117664)
(-0.000112970297977 0.000141163227221 0.00335149822819)
(-0.000128253240641 0.000140591247224 0.00334222499412)
(0.000119747608681 0.000130541973081 0.00334705796226)
(0.00010498547258 0.000128620548456 0.0033544861853)
(8.79474999386e-05 0.00012904071896 0.00336091180039)
(7.07611768149e-05 0.000129347564793 0.00336594089179)
(5.32864394072e-05 0.000129621200614 0.00336957084544)
(3.55927858186e-05 0.000129819454222 0.00337200145256)
(1.77634637642e-05 0.000129938306827 0.00337340108734)
(-1.30700477344e-07 0.000129979034843 0.00337385992703)
(-1.80227369946e-05 0.000129941886598 0.00337340035423)
(-3.58458913312e-05 0.000129826614978 0.00337199997807)
(-5.35294591028e-05 0.000129631907554 0.00336956892409)
(-7.09898861316e-05 0.000129361799561 0.00336594213134)
(-8.81575918176e-05 0.000129058979909 0.00336093214503)
(-0.0001051727961 0.000128641594815 0.00335449952814)
(-0.000119897731331 0.000130576706708 0.00334707453816)
(8.22317241441e-07 1.23429132193e-06 0.000340423003156)
(6.18496823238e-07 1.54789444672e-06 0.000357975080456)
(5.60359512595e-07 1.74640123741e-06 0.000374217952866)
(4.63015555728e-07 1.92500542379e-06 0.000388362235879)
(3.55824181556e-07 2.06778519921e-06 0.000399868245021)
(2.47624192212e-07 2.16926844466e-06 0.000408346890892)
(1.39093567729e-07 2.2302547031e-06 0.000413542745034)
(3.11656863232e-08 2.25197826381e-06 0.000415304547188)
(-7.94396377818e-08 2.23434461692e-06 0.000413546338147)
(-1.96142984051e-07 2.17616525339e-06 0.000408353287269)
(-3.17893866205e-07 2.07525440436e-06 0.000399875992036)
(-4.40699393729e-07 1.93094879128e-06 0.000388369501875)
(-5.52901597986e-07 1.74726506882e-06 0.000374223267193)
(-6.22547618093e-07 1.54394161822e-06 0.000357972429781)
(-8.30259205508e-07 1.22562143408e-06 0.000340391025771)
(6.93635524189e-06 8.25841688585e-06 0.000957888320579)
(6.27904114947e-06 9.92763435239e-06 0.00100405483099)
(5.76391581973e-06 1.14203846669e-05 0.00104677141568)
(4.99013502408e-06 1.27962036961e-05 0.00108391955182)
(3.98172177374e-06 1.39537005772e-05 0.00111408595938)
(2.78873508046e-06 1.4825207899e-05 0.00113628262519)
(1.46186897044e-06 1.53676967848e-05 0.00114986799249)
(6.56604721862e-08 1.5554835837e-05 0.00115446270121)
(-1.33637823973e-06 1.53762100589e-05 0.00114987679814)
(-2.6809182597e-06 1.48397256695e-05 0.0011362980814)
(-3.90273742059e-06 1.39698030666e-05 0.00111410424123)
(-4.94517034063e-06 1.28094420817e-05 0.00108393614886)
(-5.75067001939e-06 1.14235349714e-05 0.00104678259989)
(-6.28985360702e-06 9.92035190865e-06 0.00100404442361)
(-6.95452777453e-06 8.24037628913e-06 0.000957806275251)
(1.57493409304e-05 1.79439644915e-05 0.00151484335489)
(1.44852261078e-05 2.12542241809e-05 0.00158355760624)
(1.32488017303e-05 2.43558980274e-05 0.00164694235378)
(1.14613621117e-05 2.72075706357e-05 0.0017018725118)
(9.13968049761e-06 2.96106182061e-05 0.001746322342)
(6.38331643039e-06 3.14246529059e-05 0.0017789321983)
(3.31242653258e-06 3.25547991984e-05 0.00179884497468)
(7.78201103757e-08 3.29419580727e-05 0.00180556382414)
(-3.16379288326e-06 3.25638660744e-05 0.00179885640508)
(-6.25583284676e-06 3.14400643943e-05 0.00177895214547)
(-9.0464893271e-06 2.96277739171e-05 0.00174634600159)
(-1.14092973563e-05 2.72217178615e-05 0.0017018945427)
(-1.32354430387e-05 2.43596543657e-05 0.00164695822517)
(-1.45006541041e-05 2.12454594665e-05 0.00158354588945)
(-1.57732975743e-05 1.79219495767e-05 0.00151473240285)
(2.55240339857e-05 2.84246997725e-05 0.00201105176894)
(2.3491837006e-05 3.33166235327e-05 0.00209577123887)
(2.13796548899e-05 3.79163483282e-05 0.00217348425991)
(1.84218241807e-05 4.21299931738e-05 0.00224046312987)
(1.46439832709e-05 4.56691923237e-05 0.0022943778404)
(1.01941653747e-05 4.83347617952e-05 0.00233375694225)
(5.26040984441e-06 4.99922693209e-05 0.00235772375335)
(7.51361281231e-08 5.05578376372e-05 0.00236579013121)
(-5.11710538903e-06 5.00007255245e-05 0.0023577356861)
(-1.00717738978e-05 4.83491755722e-05 0.00233377806615)
(-1.45553153844e-05 4.56854597419e-05 0.00229440399234)
(-1.83739986795e-05 4.21436148007e-05 0.00224049014472)
(-2.13707981971e-05 3.79208687382e-05 0.00217350861146)
(-2.35114431417e-05 3.33083889759e-05 0.00209577042598)
(-2.55515576405e-05 2.84022008331e-05 0.00201094181176)
(3.51034047136e-05 3.8487646315e-05 0.00244473080478)
(3.21894181412e-05 4.47246853793e-05 0.0025388165632)
(2.91419726531e-05 5.05113561172e-05 0.00262448237238)
(2.4991095903e-05 5.57902532636e-05 0.00269780412798)
(1.97913074231e-05 6.02029881269e-05 0.00275643672358)
(1.37322433237e-05 6.35137646829e-05 0.00279902512939)
(7.05768376426e-06 6.55667701757e-05 0.00282483941437)
(6.41520337035e-08 6.62650876655e-05 0.00283350431254)
(-6.93560702226e-06 6.55739461562e-05 0.00282485106148)
(-1.36287473197e-05 6.35260473321e-05 0.00279904658444)
(-1.97176454517e-05 6.02169680081e-05 0.0027564656842)
(-2.49537971286e-05 5.58020589756e-05 0.00269783904113)
(-2.91398263438e-05 5.05156816675e-05 0.00262452228674)
(-3.22130243335e-05 4.47176441081e-05 0.00253884013591)
(-3.51332380691e-05 3.84661005546e-05 0.00244464681869)
(4.37944937457e-05 4.74503674439e-05 0.00281580198147)
(3.99413483498e-05 5.47122299299e-05 0.00291315535763)
(3.59629064669e-05 6.12944226408e-05 0.00300103897283)
(3.06826755906e-05 6.72717488747e-05 0.0030756713383)
(2.41997082872e-05 7.22389781524e-05 0.00313490938358)
(1.67355514647e-05 7.59481737385e-05 0.00317766715946)
(8.57289961606e-06 7.8240510672e-05 0.00320346430266)
(4.94765886216e-08 7.90179716451e-05 0.00321209930475)
(-8.47909192029e-06 7.82459690673e-05 0.00320347597212)
(-1.66570297359e-05 7.59575305252e-05 0.00317768998955)
(-2.41456471586e-05 7.22496046867e-05 0.00313494358448)
(-3.0658678601e-05 6.7280631547e-05 0.00307571875381)
(-3.59682693171e-05 6.12974514052e-05 0.00300110223635)
(-3.996875521e-05 5.47057717595e-05 0.00291321500701)
(-4.38263502737e-05 4.74301400587e-05 0.002815760694)
(5.11722245639e-05 5.49218046232e-05 0.00312650978172)
(4.63794194213e-05 6.28543830904e-05 0.00322203920942)
(4.15226536931e-05 6.9827907357e-05 0.00330750010948)
(3.52366557522e-05 7.6128908289e-05 0.00337948686016)
(2.76724605753e-05 8.13290666237e-05 0.00343617991628)
(1.90731761649e-05 8.51911157255e-05 0.00347682691852)
(9.74197920405e-06 8.75688015957e-05 0.0035012294777)
(3.40640273811e-08 8.83729032589e-05 0.00350937463701)
(-9.67783803107e-06 8.75723664707e-05 0.00350124201427)
(-1.90208479159e-05 8.51971575291e-05 0.00347685296458)
(-2.7639003346e-05 8.13357310644e-05 0.00343622238689)
(-3.52266220515e-05 7.61340306345e-05 0.00337955126532)
(-4.15358134359e-05 6.98286699078e-05 0.00330759306587)
(-4.64103914631e-05 6.28473675731e-05 0.00322214280173)
(-5.12062641537e-05 5.49026601453e-05 0.00312652040875)
(5.70105460719e-05 6.07166899742e-05 0.00338107154267)
(5.13287882652e-05 6.89681033994e-05 0.00347091407363)
(4.56842679124e-05 7.59619945469e-05 0.00355058924093)
(3.85552109053e-05 8.22447694734e-05 0.00361718351675)
(3.01445722641e-05 8.73889208781e-05 0.00366922865341)
(2.07069035884e-05 9.11860840727e-05 0.00370629280241)
(1.05481814572e-05 9.35139846146e-05 0.00372843313438)
(1.95829997508e-08 9.4298958864e-05 0.00373580289059)
(-1.05119301123e-05 9.35156358511e-05 0.00372844736935)
(-2.06792642809e-05 9.11886962291e-05 0.00370632367271)
(-3.01306951736e-05 8.73913342148e-05 0.00366928166099)
(-3.8558601883e-05 8.22456164902e-05 0.00361726773116)
(-4.5705110086e-05 7.59596186806e-05 0.00355071517758)
(-5.1363340893e-05 6.89595062163e-05 0.0034710642813)
(-5.70467911073e-05 6.0697562134e-05 0.00338113606648)
(6.12382012062e-05 6.48045467735e-05 0.00358504138742)
(5.4759033968e-05 7.30507661532e-05 0.0036665807229)
(4.84432509154e-05 7.97530388057e-05 0.00373835567312)
(4.06548454715e-05 8.5730811788e-05 0.00379795160971)
(3.16422410107e-05 9.05806341572e-05 0.00384420488391)
(2.16617910868e-05 9.41361505966e-05 0.0038769370926)
(1.10067943427e-05 9.63059607062e-05 0.00389639661276)
(6.80520190369e-09 9.70354392231e-05 0.00390285755337)
(-1.09951936406e-05 9.63057804305e-05 0.00389641293514)
(-2.16561094493e-05 9.41354151744e-05 0.00387697337035)
(-3.16460322912e-05 9.05787252298e-05 0.00384426888124)
(-4.06706648095e-05 8.57270472203e-05 0.00379805559026)
(-4.84714804129e-05 7.97466809283e-05 0.00373851360902)
(-5.47972471553e-05 7.30394010871e-05 0.00366677412656)
(-6.12766697467e-05 6.47840382715e-05 0.00358515447244)
(6.38970014728e-05 6.72641523041e-05 0.00374468577943)
(5.67395282611e-05 7.52227147252e-05 0.00381644023258)
(4.98831071933e-05 8.13891489719e-05 0.0038792880546)
(4.16253569319e-05 8.68373451966e-05 0.00393123056222)
(3.22485738881e-05 9.12101360253e-05 0.00397131707332)
(2.20016050581e-05 9.43915120944e-05 0.00399953136552)
(1.11524295514e-05 9.63235231698e-05 0.00401623447348)
(-4.07767722482e-09 9.69710301827e-05 0.00402176807514)
(-1.11618801443e-05 9.63216692036e-05 0.00401625250042)
(-2.20148582684e-05 9.4387655457e-05 0.00399957197734)
(-3.22679143669e-05 9.12040350178e-05 0.00397138979727)
(-4.16525012842e-05 8.68288377562e-05 0.00393135029038)
(-4.99184365537e-05 8.13781806625e-05 0.00387947156543)
(-5.67814363809e-05 7.52074379343e-05 0.00381666636031)
(-6.3937725511e-05 6.72408336586e-05 0.00374483417862)
(6.51044461708e-05 6.82448428858e-05 0.00386649778684)
(5.74018295447e-05 7.56785114019e-05 0.00392795041232)
(5.01398934135e-05 8.11281195566e-05 0.0039817085551)
(4.15985349477e-05 8.58807097834e-05 0.0040260446684)
(3.20784371344e-05 8.96464982034e-05 0.00406012205284)
(2.18112280159e-05 9.2363268484e-05 0.00408400386587)
(1.10300441102e-05 9.40047836782e-05 0.00409809399644)
(-1.3194530633e-08 9.45531472901e-05 0.00410275372847)
(-1.10571976153e-05 9.40014971415e-05 0.0040981122826)
(-2.18406211005e-05 9.23566789503e-05 0.00408404548362)
(-3.21113960178e-05 8.96365814882e-05 0.00406019758306)
(-4.1636045575e-05 8.5867609153e-05 0.00402617088235)
(-5.01821454706e-05 8.11122095594e-05 0.00398190438272)
(-5.7447547143e-05 7.56584005534e-05 0.00392819052797)
(-6.51473663172e-05 6.82173514042e-05 0.00386665903798)
(6.50183869007e-05 6.79319714096e-05 0.00395690076174)
(5.69077921816e-05 7.4643307996e-05 0.00400833230002)
(4.93762601014e-05 7.92443393332e-05 0.00405346335523)
(4.0727996855e-05 8.31856979065e-05 0.00409067217231)
(3.12632372451e-05 8.62622676648e-05 0.00411917980627)
(2.11862537255e-05 8.84625205987e-05 0.00413908844695)
(1.06897086063e-05 8.97855131982e-05 0.00415080300139)
(-2.08054857422e-08 9.02259788903e-05 0.00415467153226)
(-1.07317089642e-05 8.97811362833e-05 0.00415081876769)
(-2.1229392878e-05 8.84537911062e-05 0.00413912489129)
(-3.13081498022e-05 8.62492253971e-05 0.00411924753021)
(-4.07750584746e-05 8.31686041631e-05 0.00409078882453)
(-4.94253489647e-05 7.92237508533e-05 0.00405364966242)
(-5.69575755781e-05 7.46181844906e-05 0.00400855820251)
(-6.50636288182e-05 6.78997767771e-05 0.00395704175372)
(6.38014588762e-05 6.65079363874e-05 0.00402216296556)
(5.54269573956e-05 7.23274346817e-05 0.00406453251497)
(4.77712358151e-05 7.59858028014e-05 0.00410187767114)
(3.91840675354e-05 7.90448602684e-05 0.00413258510207)
(2.99471112206e-05 8.13959820557e-05 0.00415599297127)
(2.02301384978e-05 8.3064755028e-05 0.00417227335976)
(1.01850697103e-05 8.406403833e-05 0.0041818281506)
(-2.71672177939e-08 8.43957054595e-05 0.00418497840559)
(-1.02395409543e-05 8.40589966499e-05 0.00418183714569)
(-2.02850065169e-05 8.30546719886e-05 0.00417229524881)
(-3.00025050386e-05 8.1380881597e-05 0.00415603681684)
(-3.92398455774e-05 7.90249071384e-05 0.00413266782906)
(-4.78268822177e-05 7.59615138924e-05 0.00410202193752)
(-5.54808242169e-05 7.22979370912e-05 0.00406470593228)
(-6.38490316789e-05 6.6471454759e-05 0.00402224232121)
(6.16227724837e-05 6.41333875446e-05 0.00406853735312)
(5.3160852383e-05 6.89907690905e-05 0.00410343380698)
(4.55492640326e-05 7.16034608751e-05 0.00413389277243)
(3.71695195073e-05 7.37420824704e-05 0.00415855025135)
(2.82943583966e-05 7.53660015151e-05 0.00417712070971)
(1.90568272232e-05 7.65130416077e-05 0.00418994292068)
(9.57410151172e-06 7.71977602109e-05 0.00419743892009)
(-3.24830077729e-08 7.74241400797e-05 0.00419990349322)
(-9.63901825476e-06 7.71925583373e-05 0.00419743573839)
(-1.91215710801e-05 7.65025836642e-05 0.00418993831452)
(-2.83587240843e-05 7.53502007443e-05 0.00417711986542)
(-3.72329820617e-05 7.37208997446e-05 0.00415856613822)
(-4.56108906287e-05 7.15771531897e-05 0.00413394915457)
(-5.32184764478e-05 6.89583590936e-05 0.0041035047235)
(-6.16725628554e-05 6.40934315422e-05 0.00406851153369)
(5.8573902052e-05 6.18804974932e-05 0.00410281867573)
(5.03612697591e-05 6.50522917692e-05 0.00413235856736)
(4.2946062336e-05 6.64361481008e-05 0.00415618035091)
(3.48821056506e-05 6.75947853094e-05 0.00417471332732)
(2.64588197298e-05 6.84552616723e-05 0.00418832688148)
(1.77704118632e-05 6.90582721522e-05 0.00419759432444)
(8.90918827919e-06 6.94154527756e-05 0.00420297055186)
(-3.68340247422e-08 6.9532406143e-05 0.00420472754258)
(-8.98265551916e-06 6.9410784191e-05 0.00420295058954)
(-1.78432418663e-05 6.90488827906e-05 0.00419755304072)
(-2.65304762007e-05 6.84408924882e-05 0.00418826307295)
(-3.49517502374e-05 6.75751842638e-05 0.0041746304234)
(-4.30125864964e-05 6.6411075778e-05 0.004156098941)
(-5.04214589788e-05 6.50202019981e-05 0.00413224511548)
(-5.86258156504e-05 6.1840709161e-05 0.00410268760021)
(-9.00685570931e-08 -3.13533497181e-07 0.000242989051651)
(1.1457757329e-07 -4.97751561844e-07 0.00025586722355)
(2.79509448466e-07 -5.96243844132e-07 0.000268008970893)
(3.68547855352e-07 -6.17999607409e-07 0.000278760209679)
(3.72978271153e-07 -5.9341292248e-07 0.0002876056893)
(2.95994853098e-07 -5.5010662019e-07 0.000294172638784)
(1.60230532408e-07 -5.13374674305e-07 0.000298214507815)
(-6.38934260102e-09 -4.99569780241e-07 0.000299586744134)
(-1.72141762984e-07 -5.1442244552e-07 0.000298212457889)
(-3.05546412939e-07 -5.52138918671e-07 0.000294168878454)
(-3.79948916199e-07 -5.96541605583e-07 0.00028760058147)
(-3.75229386871e-07 -6.22621510697e-07 0.00027875334507)
(-2.8678974e-07 -6.01155003608e-07 0.000267998267341)
(-1.21603911527e-07 -5.03459625259e-07 0.000255847670129)
(8.43508189575e-08 -3.18224311997e-07 0.00024294273948)
(4.53983756025e-07 -2.12419834461e-09 0.000716632510977)
(9.28228170007e-07 -2.74493824114e-07 0.000753465999956)
(1.2984568764e-06 -3.33585747148e-07 0.000788295695249)
(1.45220120999e-06 -2.1115845544e-07 0.000819171259239)
(1.36429663194e-06 4.53637679353e-09 0.00084459358407)
(1.04742307053e-06 2.31752871502e-07 0.000863478269218)
(5.6242025543e-07 3.98751718414e-07 0.000875103066734)
(-1.14836498172e-08 4.59164319918e-07 0.000879042082773)
(-5.83952467901e-07 3.96409840985e-07 0.000875099585108)
(-1.06518056841e-06 2.26957346707e-07 0.000863472021643)
(-1.37841051051e-06 -3.20084079736e-09 0.000844585081213)
(-1.46694971739e-06 -2.22620577697e-07 0.000819158664663)
(-1.31623239434e-06 -3.46548697805e-07 0.000788272544457)
(-9.46753056149e-07 -2.89757138309e-07 0.000753416689172)
(-4.69527700872e-07 -1.57384727037e-08 0.000716514232921)
(1.8038302561e-06 1.31027586521e-06 0.00117246848758)
(2.42312077702e-06 1.22432345661e-06 0.00123112100983)
(2.87199392716e-06 1.44680125645e-06 0.00128658715139)
(2.96681804483e-06 1.90877734212e-06 0.00133573414008)
(2.66986082677e-06 2.46330926468e-06 0.00137617747976)
(2.00537412304e-06 2.97567374817e-06 0.00140620420643)
(1.06917888174e-06 3.33184919073e-06 0.00142467677326)
(-1.13321969183e-08 3.45845105987e-06 0.0014309276293)
(-1.09066836519e-06 3.32917277338e-06 0.00142467411969)
(-2.02393214149e-06 2.96977682169e-06 0.00140619966096)
(-2.68630231727e-06 2.45299303257e-06 0.00137617130214)
(-2.98594846036e-06 1.89289915388e-06 0.00133572317607)
(-2.89667235661e-06 1.42763548997e-06 0.00128656174058)
(-2.45067897267e-06 1.20186305765e-06 0.00123105714478)
(-1.82754825627e-06 1.28842352107e-06 0.00117230392025)
(4.07984503018e-06 3.71454327004e-06 0.00160709768263)
(4.73639231235e-06 4.06885194177e-06 0.00168473601385)
(5.13793898859e-06 4.79850667714e-06 0.0017579950296)
(5.03864632751e-06 5.78491054717e-06 0.00182277738034)
(4.39394035193e-06 6.81867181005e-06 0.00187598314726)
(3.24289537192e-06 7.71316802284e-06 0.00191541859758)
(1.71651225744e-06 8.31496504443e-06 0.00193964621306)
(-9.71517101839e-09 8.52632749675e-06 0.00194783327886)
(-1.7353557797e-06 8.31234863885e-06 0.00193964600004)
(-3.260508888e-06 7.70706546686e-06 0.00191541884907)
(-4.41180827373e-06 6.80741047838e-06 0.00187598388372)
(-5.06134110803e-06 5.76701935991e-06 0.00182277486574)
(-5.16803928552e-06 4.77559753442e-06 0.00175797823671)
(-4.77125762385e-06 4.04125146144e-06 0.00168467553513)
(-4.11065334787e-06 3.68562558662e-06 0.00160691779413)
(7.06982339732e-06 6.93331215627e-06 0.00201575746936)
(7.6641933364e-06 7.87780689232e-06 0.00210870838715)
(7.90582577728e-06 9.2318838129e-06 0.00219604164014)
(7.4981039556e-06 1.08269015781e-05 0.00227299651045)
(6.39728090105e-06 1.23934365098e-05 0.00233599160001)
(4.65995555503e-06 1.37004176501e-05 0.00238255224007)
(2.45100256373e-06 1.45623985829e-05 0.00241109624825)
(-9.13242012003e-09 1.48626947396e-05 0.00242072702424)
(-2.46923751392e-06 1.45599278815e-05 0.00241109926094)
(-4.6785166597e-06 1.36944419975e-05 0.00238255898964)
(-6.41809324478e-06 1.23820604211e-05 0.00233600229285)
(-7.52519236256e-06 1.08083677641e-05 0.00227300789877)
(-7.94116061623e-06 9.20695776683e-06 0.00219604318384)
(-7.7051230135e-06 7.84650483952e-06 0.00210866760256)
(-7.10686133982e-06 6.89892123524e-06 0.00201558780776)
(1.05099175737e-05 1.06479577519e-05 0.00239336766441)
(1.09510478101e-05 1.22311777873e-05 0.00249728256671)
(1.09372156168e-05 1.42219570409e-05 0.00259433290379)
(1.01339657309e-05 1.64122410441e-05 0.0026794399284)