/*--------------------------------*- C++ -*----------------------------------*\
  =========                 |
  \\      /  F ield         | OpenFOAM: The Open Source CFD Toolbox
   \\    /   O peration     | Website:  https://openfoam.org
    \\  /    A nd           | Version:  7
     \\/     M anipulation  |
\*---------------------------------------------------------------------------*/
FoamFile
{
    version     2.0;
    format      ascii;
    class       volScalarField;
    location    "2.5";
    object      p;
}
// * * * * * * * * * * * * * * * * * * * * * * * * * * * * * * * * * * * * * //

dimensions      [0 2 -2 0 0 0 0];

internalField   nonuniform List<scalar> 
22500
(
3.70625426513e-05
3.70570946587e-05
3.70547707518e-05
3.70518500949e-05
3.7049547257e-05
3.7047783043e-05
3.70467069784e-05
3.70463739562e-05
3.70468299624e-05
3.70480241005e-05
3.70498994049e-05
3.70522910942e-05
3.70552775296e-05
3.70576053461e-05
3.70630110831e-05
3.69977458641e-05
3.69890064809e-05
3.69838766631e-05
3.69784952862e-05
3.69741962716e-05
3.69709595193e-05
3.69689841366e-05
3.69683514303e-05
3.69691103405e-05
3.6971207211e-05
3.69745574109e-05
3.69789497256e-05
3.69843968728e-05
3.69895326113e-05
3.69982316645e-05
3.69352548201e-05
3.69234748206e-05
3.69159745318e-05
3.69084482312e-05
3.69024357362e-05
3.68979347085e-05
3.68951874122e-05
3.68942939758e-05
3.68953069351e-05
3.68981691066e-05
3.69027765582e-05
3.69088778934e-05
3.69164665776e-05
3.6923976251e-05
3.69357280327e-05
3.68796122965e-05
3.6865336634e-05
3.68560229357e-05
3.6846884151e-05
3.68395913265e-05
3.68341552853e-05
3.68308390075e-05
3.68297521881e-05
3.68309487208e-05
3.68343704224e-05
3.68399033755e-05
3.68472774944e-05
3.68564755204e-05
3.68658021128e-05
3.68800658165e-05
3.68278803176e-05
3.68114776158e-05
3.6800683121e-05
3.67902843909e-05
3.67819932541e-05
3.67758385929e-05
3.67720870721e-05
3.67708525915e-05
3.67721873667e-05
3.67760351548e-05
3.67822781796e-05
3.67906437206e-05
3.6801098622e-05
3.68119084572e-05
3.68283108401e-05
3.67793888361e-05
3.67612234749e-05
3.67492343968e-05
3.67378757915e-05
3.67288249609e-05
3.67221322813e-05
3.67180566364e-05
3.67167117452e-05
3.67181473801e-05
3.67223103038e-05
3.67290829381e-05
3.67382016183e-05
3.67496121114e-05
3.67616203004e-05
3.6779796223e-05
3.67343104862e-05
3.67147584186e-05
3.67018332884e-05
3.66897879495e-05
3.66801915575e-05
3.66731209155e-05
3.6668818896e-05
3.66673965954e-05
3.66689007144e-05
3.66732815005e-05
3.6680424399e-05
3.66900826333e-05
3.67021761552e-05
3.67151218698e-05
3.67346946343e-05
3.66926117378e-05
3.66720238591e-05
3.66583812123e-05
3.66458786562e-05
3.6635915399e-05
3.66285985313e-05
3.66241503195e-05
3.66226776777e-05
3.66242237708e-05
3.66287427221e-05
3.66361248257e-05
3.66461443348e-05
3.66586915929e-05
3.66723563194e-05
3.66929744563e-05
3.66540993561e-05
3.66327913835e-05
3.66186139098e-05
3.66058451053e-05
3.65956641998e-05
3.65882090779e-05
3.65836806271e-05
3.65821799785e-05
3.65837465398e-05
3.65883385713e-05
3.65958525834e-05
3.66060850513e-05
3.6618895369e-05
3.66330965279e-05
3.66544417242e-05
3.66185491211e-05
3.65968086598e-05
3.6582259857e-05
3.65693900694e-05
3.65591212273e-05
3.65516206027e-05
3.65470685834e-05
3.65455590642e-05
3.65471277724e-05
3.65517370282e-05
3.65592909435e-05
3.65696071443e-05
3.65825159554e-05
3.65970898717e-05
3.66188753058e-05
3.65857411984e-05
3.65638303907e-05
3.65490718828e-05
3.65362508473e-05
3.65260129756e-05
3.65185508858e-05
3.65140267347e-05
3.65125258886e-05
3.65140800731e-05
3.65186558647e-05
3.65261664601e-05
3.653644805e-05
3.65493059298e-05
3.65640908968e-05
3.65860532359e-05
3.65554362365e-05
3.65336198317e-05
3.6518834507e-05
3.65062036945e-05
3.64961083241e-05
3.64887635162e-05
3.64843158266e-05
3.64828404494e-05
3.64843640598e-05
3.64888587678e-05
3.64962478053e-05
3.65063838921e-05
3.65190496787e-05
3.65338625542e-05
3.65557354117e-05
3.65272926041e-05
3.6505950272e-05
3.64913734551e-05
3.64790657149e-05
3.6469216582e-05
3.64620654479e-05
3.64577431808e-05
3.64563095682e-05
3.64577872298e-05
3.64621521979e-05
3.64693443304e-05
3.64792315294e-05
3.64915728556e-05
3.65061785797e-05
3.65275813488e-05
3.65010019479e-05
3.64806075084e-05
3.64664590991e-05
3.64546024435e-05
3.64451179291e-05
3.64382604461e-05
3.64341277186e-05
3.64327596333e-05
3.64341680497e-05
3.64383401958e-05
3.64452358357e-05
3.64547567918e-05
3.64666458686e-05
3.64808246371e-05
3.65012835156e-05
3.6477596999e-05
3.6456881452e-05
3.64434418812e-05
3.64321600606e-05
3.64232407372e-05
3.64168526624e-05
3.64130234677e-05
3.64117580363e-05
3.64130605728e-05
3.64169259427e-05
3.64233496095e-05
3.64323037514e-05
3.64436184433e-05
3.64570887355e-05
3.64778632022e-05
2.86189639085e-05
2.86208528091e-05
2.86222264064e-05
2.8623514765e-05
2.86246370699e-05
2.8625485607e-05
2.86259991367e-05
2.86261291306e-05
2.86258619203e-05
2.86252197831e-05
2.86242626658e-05
2.86230674804e-05
2.86217353237e-05
2.86203665922e-05
2.86185028688e-05
2.8626470761e-05
2.86287281731e-05
2.86304643129e-05
2.86320845346e-05
2.86334823322e-05
2.86345374559e-05
2.86351793317e-05
2.86353527537e-05
2.86350404105e-05
2.86342683835e-05
2.86331034692e-05
2.86316314703e-05
2.86299712684e-05
2.8628238987e-05
2.86260099342e-05
2.86362542636e-05
2.8639332608e-05
2.86417714267e-05
2.86440558117e-05
2.86460191573e-05
2.86475060016e-05
2.86484196149e-05
2.86486869408e-05
2.8648283744e-05
2.86472427898e-05
2.86456480553e-05
2.86436096343e-05
2.86412858332e-05
2.86388469332e-05
2.86357959229e-05
2.86492886836e-05
2.86537452466e-05
2.86573065052e-05
2.8660629321e-05
2.86634741614e-05
2.86656310576e-05
2.86669648995e-05
2.86673770674e-05
2.86668340529e-05
2.86653774692e-05
2.86631156704e-05
2.86601952728e-05
2.86568314773e-05
2.86532669259e-05
2.86488338831e-05
2.86661287333e-05
2.8672406247e-05
2.86773899927e-05
2.86820029672e-05
2.86859305715e-05
2.86889026782e-05
2.86907441065e-05
2.86913305747e-05
2.86906193195e-05
2.86886607783e-05
2.86855877784e-05
2.86815857354e-05
2.86769300001e-05
2.86719398025e-05
2.8665680481e-05
2.86863718461e-05
2.86947283484e-05
2.8701264687e-05
2.87072610447e-05
2.87123330145e-05
2.87161584381e-05
2.87185273871e-05
2.87192946876e-05
2.87184099729e-05
2.87159306704e-05
2.87120094593e-05
2.87068648974e-05
2.87008248152e-05
2.86942764352e-05
2.86859347185e-05
2.87092494014e-05
2.87197541132e-05
2.87278318944e-05
2.87351704476e-05
2.87413360576e-05
2.87459680675e-05
2.87488318199e-05
2.87497684853e-05
2.87487227898e-05
2.87457563463e-05
2.87410345862e-05
2.87347992613e-05
2.87274167804e-05
2.87193220839e-05
2.87088265424e-05
2.87339341989e-05
2.87464994469e-05
2.8755999234e-05
2.87645401317e-05
2.87716693828e-05
2.87770031649e-05
2.87802936364e-05
2.87813763149e-05
2.87801936966e-05
2.87768088772e-05
2.87713919161e-05
2.87641965134e-05
2.87556114527e-05
2.87460906612e-05
2.87335275785e-05
2.87596471143e-05
2.87740635066e-05
2.87847928616e-05
2.87943351864e-05
2.88022508623e-05
2.88081483605e-05
2.88117776722e-05
2.88129762944e-05
2.88116871402e-05
2.88079721294e-05
2.88019983551e-05
2.87940206262e-05
2.87844345535e-05
2.87736804435e-05
2.87592600303e-05
2.87857059318e-05
2.88016768093e-05
2.88134010191e-05
2.8823713145e-05
2.8832216972e-05
2.88385265658e-05
2.88423993141e-05
2.88436812161e-05
2.88423181859e-05
2.88383683628e-05
2.8831989466e-05
2.88234279033e-05
2.88130728348e-05
2.88013207497e-05
2.87853396127e-05
2.88115383118e-05
2.88287118055e-05
2.88411775599e-05
2.88520226443e-05
2.88609152915e-05
2.88674857898e-05
2.88715072904e-05
2.88728401031e-05
2.88714352578e-05
2.88673450223e-05
2.88607120935e-05
2.88517662463e-05
2.88408796188e-05
2.88283838613e-05
2.88111947721e-05
2.88366695213e-05
2.88546681724e-05
2.88676256625e-05
2.88787838069e-05
2.88878796885e-05
2.88945696308e-05
2.88986512156e-05
2.89000044417e-05
2.88985877308e-05
2.88944452344e-05
2.88876993745e-05
2.88785548802e-05
2.88673571682e-05
2.88543689509e-05
2.88363510227e-05
2.88606970276e-05
2.88791663493e-05
2.88923988902e-05
2.89036804139e-05
2.89128119903e-05
2.89194910213e-05
2.89235496798e-05
2.89248952724e-05
2.89234939272e-05
2.89193815227e-05
2.89126527499e-05
2.89034770238e-05
2.88921583066e-05
2.88788950133e-05
2.88604037489e-05
2.88835134105e-05
2.89021951126e-05
2.89154438931e-05
2.89266373295e-05
2.89356056844e-05
2.89421173053e-05
2.8946057002e-05
2.8947360799e-05
2.89460082059e-05
2.89420212037e-05
2.89354651461e-05
2.8926457056e-05
2.89152293344e-05
2.89019512197e-05
2.88832451673e-05
2.89063677435e-05
2.89238856372e-05
2.89367715213e-05
2.89476029023e-05
2.89561374872e-05
2.8962279148e-05
2.89659755069e-05
2.89671974024e-05
2.89659328567e-05
2.89621951186e-05
2.89560141952e-05
2.89474439156e-05
2.89365809939e-05
2.89236686776e-05
2.89061253596e-05
2.95094862904e-05
2.95088667717e-05
2.95078974321e-05
2.95068399722e-05
2.95058381452e-05
2.95050454044e-05
2.95045469602e-05
2.95043893103e-05
2.95045872378e-05
2.95051208388e-05
2.95059386034e-05
2.95069558752e-05
2.95080342652e-05
2.95090126472e-05
2.95096469628e-05
2.95101829786e-05
2.95096102568e-05
2.95086898887e-05
2.9507670632e-05
2.95066969182e-05
2.95059209649e-05
2.95054307387e-05
2.95052754025e-05
2.95054711173e-05
2.95059966209e-05
2.95067976879e-05
2.95077868771e-05
2.95088246332e-05
2.95097565451e-05
2.95103426734e-05
2.95112671173e-05
2.95107635473e-05
2.95099074855e-05
2.95089449429e-05
2.95080156088e-05
2.95072695571e-05
2.95067956128e-05
2.95066451867e-05
2.95068355845e-05
2.95073448264e-05
2.95081168732e-05
2.95090630094e-05
2.9510042562e-05
2.95109104815e-05
2.9511425895e-05
2.951201986e-05
2.95115689281e-05
2.95107556578e-05
2.95098386586e-05
2.95089482915e-05
2.95082309641e-05
2.95077736578e-05
2.95076283152e-05
2.95078127823e-05
2.95083051151e-05
2.95090493865e-05
2.95099578942e-05
2.95108907548e-05
2.95117146445e-05
2.95121779066e-05
2.95125335731e-05
2.95121502568e-05
2.95113909084e-05
2.95105385798e-05
2.95097069878e-05
2.95090357747e-05
2.9508607266e-05
2.95084713436e-05
2.95086453182e-05
2.95091082253e-05
2.95098066844e-05
2.95106573982e-05
2.9511525463e-05
2.95122943985e-05
2.95126905301e-05
2.95130357054e-05
2.95127622633e-05
2.95120928436e-05
2.95113432869e-05
2.95106063183e-05
2.9510010213e-05
2.95096293619e-05
2.95095092832e-05
2.95096659484e-05
2.95100802048e-05
2.95107035478e-05
2.95114602943e-05
2.95122253858e-05
2.95129047119e-05
2.95131901312e-05
2.95136773648e-05
2.95135675065e-05
2.95130289324e-05
2.95124228145e-05
2.95118169249e-05
2.95113241972e-05
2.95110090883e-05
2.9510911009e-05
2.95110439747e-05
2.95113911954e-05
2.95119107481e-05
2.95125368492e-05
2.95131585646e-05
2.9513707696e-05
2.95138293802e-05
2.95145476329e-05
2.95146506615e-05
2.95142783826e-05
2.95138479606e-05
2.95134013708e-05
2.95130333649e-05
2.95127973219e-05
2.95127257296e-05
2.95128302842e-05
2.95130969342e-05
2.95134911311e-05
2.95139582148e-05
2.95144044735e-05
2.95147879069e-05
2.95146975042e-05
2.95156898974e-05
2.9516039191e-05
2.9515857702e-05
2.95156219266e-05
2.95153505709e-05
2.95151188336e-05
2.95149688824e-05
2.95149261234e-05
2.95149998033e-05
2.95151787165e-05
2.95154357798e-05
2.95157277042e-05
2.95159798057e-05
2.95161731744e-05
2.95158372261e-05
2.95171072664e-05
2.9517715493e-05
2.95177354726e-05
2.95176986551e-05
2.95176059115e-05
2.95175123553e-05
2.95174494033e-05
2.95174357191e-05
2.95174782408e-05
2.95175684353e-05
2.95176863434e-05
2.95177996186e-05
2.95178532228e-05
2.95178460694e-05
2.95172519495e-05
2.9518772013e-05
2.95196283221e-05
2.95198464477e-05
2.95200006414e-05
2.95200792536e-05
2.95201178135e-05
2.95201377916e-05
2.95201517585e-05
2.95201645397e-05
2.95201700353e-05
2.95201547351e-05
2.95200964359e-05
2.95199593973e-05
2.95197549711e-05
2.95189136292e-05
2.95206278378e-05
2.95217000163e-05
2.95221026809e-05
2.9522432656e-05
2.95226687507e-05
2.9522828453e-05
2.95229241932e-05
2.95229633515e-05
2.95229488704e-05
2.95228768338e-05
2.95227392132e-05
2.95225230309e-05
2.95222104203e-05
2.95218220405e-05
2.95207655917e-05
2.95225924322e-05
2.95238396878e-05
2.95244113125e-05
2.95248987923e-05
2.95252747981e-05
2.9525541654e-05
2.95257041915e-05
2.95257654539e-05
2.95257268104e-05
2.95255862122e-05
2.95253401206e-05
2.95249834679e-05
2.95245133198e-05
2.95239564133e-05
2.95227255807e-05
2.9524644162e-05
2.95260346844e-05
2.95267320121e-05
2.952734219e-05
2.95278252925e-05
2.95281741711e-05
2.95283876996e-05
2.95284656222e-05
2.9528408302e-05
2.95282147567e-05
2.95278852699e-05
2.95274206395e-05
2.95268276097e-05
2.95261454019e-05
2.95247711149e-05
2.95271604419e-05
2.95282509106e-05
2.952898938e-05
2.9529664227e-05
2.95302019841e-05
2.9530593394e-05
2.95308332661e-05
2.95309195651e-05
2.95308517836e-05
2.95306301447e-05
2.95302564909e-05
2.95297362427e-05
2.95290782982e-05
2.95283559427e-05
2.95272811221e-05
2.61832179014e-05
2.61835774474e-05
2.61840538789e-05
2.61845434907e-05
2.61849938702e-05
2.61853491946e-05
2.61855749783e-05
2.61856480728e-05
2.61855606078e-05
2.61853221766e-05
2.61849580663e-05
2.61845068891e-05
2.61840206364e-05
2.61835589939e-05
2.61832047583e-05
2.6183472049e-05
2.61838409819e-05
2.61843284665e-05
2.61848331841e-05
2.6185297206e-05
2.61856641443e-05
2.61858974114e-05
2.61859728171e-05
2.61858818469e-05
2.6185634787e-05
2.61852582167e-05
2.61847926944e-05
2.61842927332e-05
2.61838192714e-05
2.61834592781e-05
2.61835012607e-05
2.61838609986e-05
2.61843409922e-05
2.61848434964e-05
2.61853078735e-05
2.61856774562e-05
2.61859132632e-05
2.61859899892e-05
2.61858985165e-05
2.61856497117e-05
2.61852711937e-05
2.61848050226e-05
2.61843075896e-05
2.6183838971e-05
2.61834890819e-05
2.61835352472e-05
2.61838865574e-05
2.61843612488e-05
2.618485829e-05
2.61853203353e-05
2.61856901484e-05
2.61859270807e-05
2.61860048316e-05
2.6185913777e-05
2.61856652107e-05
2.61852875066e-05
2.61848236964e-05
2.61843311074e-05
2.61838660256e-05
2.61835235554e-05
2.61836072723e-05
2.61839520653e-05
2.61844246179e-05
2.61849153661e-05
2.61853739311e-05
2.61857424027e-05
2.61859794057e-05
2.61860577201e-05
2.61859674286e-05
2.61857200306e-05
2.61853445069e-05
2.61848844218e-05
2.61843973697e-05
2.61839335466e-05
2.61835963346e-05
2.61836992297e-05
2.61840413477e-05
2.61845132707e-05
2.61849989871e-05
2.61854543607e-05
2.61858217934e-05
2.61860589503e-05
2.61861379601e-05
2.61860484913e-05
2.61858022791e-05
2.61854287695e-05
2.61849719772e-05
2.61844895019e-05
2.61840241996e-05
2.61836900942e-05
2.61838135131e-05
2.61841574501e-05
2.6184634132e-05
2.61851188173e-05
2.61855740209e-05
2.61859424862e-05
2.6186180997e-05
2.61862610806e-05
2.61861720378e-05
2.61859257825e-05
2.61855521724e-05
2.61850957024e-05
2.61846139768e-05
2.61841421941e-05
2.61838059305e-05
2.6183963212e-05
2.61843167122e-05
2.61848050151e-05
2.61852936861e-05
2.61857528888e-05
2.61861252052e-05
2.61863667684e-05
2.61864484492e-05
2.61863593491e-05
2.61861114002e-05
2.61857348064e-05
2.61852744854e-05
2.61847880597e-05
2.61843034423e-05
2.61839564219e-05
2.61841596823e-05
2.61845328596e-05
2.61850385222e-05
2.61855361265e-05
2.61860026851e-05
2.61863808787e-05
2.61866264341e-05
2.6186709947e-05
2.61866204475e-05
2.61863697482e-05
2.61859881037e-05
2.61855205855e-05
2.61850246182e-05
2.61845214996e-05
2.61841539265e-05
2.61844103392e-05
2.61848122685e-05
2.61853383894e-05
2.61858473597e-05
2.61863222011e-05
2.61867062625e-05
2.61869554241e-05
2.61870405273e-05
2.61869507319e-05
2.61866975455e-05
2.61863107564e-05
2.61858350469e-05
2.61853271196e-05
2.618480244e-05
2.61844053536e-05
2.61847150193e-05
2.61851516725e-05
2.61856982119e-05
2.61862180024e-05
2.61866993343e-05
2.6187086951e-05
2.61873377941e-05
2.61874236707e-05
2.61873341894e-05
2.61870802714e-05
2.61866905628e-05
2.61862085258e-05
2.61856893619e-05
2.61851434515e-05
2.61847109978e-05
2.61850635915e-05
2.61855380261e-05
2.61861027668e-05
2.61866308502e-05
2.61871149199e-05
2.61875021188e-05
2.61877516288e-05
2.61878370528e-05
2.61877488714e-05
2.61874970323e-05
2.61871082408e-05
2.61866236529e-05
2.61860959999e-05
2.61855315467e-05
2.6185060972e-05
2.61854343673e-05
2.61859491377e-05
2.61865312825e-05
2.61870654027e-05
2.61875483776e-05
2.61879310012e-05
2.61881757857e-05
2.61882595099e-05
2.61881736239e-05
2.61879270073e-05
2.61875432205e-05
2.61870599017e-05
2.61865262273e-05
2.61859442826e-05
2.61854330757e-05
2.61858430006e-05
2.61864094748e-05
2.61869941344e-05
2.61875225174e-05
2.61879928953e-05
2.61883604733e-05
2.6188593576e-05
2.61886728484e-05
2.6188591751e-05
2.61883571164e-05
2.61879885285e-05
2.61875180548e-05
2.6186990312e-05
2.6186406376e-05
2.61858431873e-05
2.61866757008e-05
2.61870990364e-05
2.61875973746e-05
2.61880504641e-05
2.61884516935e-05
2.61887616716e-05
2.6188956367e-05
2.61890223114e-05
2.61889546998e-05
2.6188758632e-05
2.61884477975e-05
2.61880466121e-05
2.61875945991e-05
2.61870980535e-05
2.61866774869e-05
2.49460241532e-05
2.49458326279e-05
2.49455589967e-05
2.49452513428e-05
2.49449579853e-05
2.49447206253e-05
2.49445715056e-05
2.49445248965e-05
2.49445846845e-05
2.49447440487e-05
2.49449860399e-05
2.49452823867e-05
2.49455962419e-05
2.49458708391e-05
2.49460764065e-05
2.49461785789e-05
2.49459983124e-05
2.49457381467e-05
2.49454390747e-05
2.4945151584e-05
2.49449180077e-05
2.49447705378e-05
2.49447242768e-05
2.49447835491e-05
2.4944941124e-05
2.4945179351e-05
2.49454691927e-05
2.49457736489e-05
2.49460366127e-05
2.49462299854e-05
2.494642889e-05
2.49462611726e-05
2.49460178726e-05
2.49457303951e-05
2.49454526796e-05
2.49452256727e-05
2.49450815027e-05
2.49450361202e-05
2.49450943797e-05
2.4945248844e-05
2.49454812842e-05
2.49457619297e-05
2.49460539927e-05
2.49463007073e-05
2.49464797698e-05
2.49466125063e-05
2.49464485092e-05
2.49462131942e-05
2.4945930614e-05
2.49456573581e-05
2.49454334583e-05
2.49452905278e-05
2.49452453101e-05
2.49453031914e-05
2.49454566185e-05
2.49456868944e-05
2.49459635919e-05
2.49462500706e-05
2.49464882244e-05
2.49466629828e-05
2.4946723279e-05
2.49465569758e-05
2.49463245542e-05
2.49460435438e-05
2.49457720734e-05
2.49455493364e-05
2.49454066748e-05
2.49453613599e-05
2.49454190653e-05
2.49455722241e-05
2.49458018643e-05
2.49460772481e-05
2.49463620186e-05
2.49465965301e-05
2.49467735196e-05
2.49467876044e-05
2.49466159175e-05
2.49463865626e-05
2.49461071559e-05
2.49458381851e-05
2.49456176613e-05
2.4945476132e-05
2.49454310103e-05
2.49454881074e-05
2.49456399798e-05
2.49458677773e-05
2.49461409935e-05
2.49464239735e-05
2.49466555829e-05
2.49468366409e-05
2.49468233375e-05
2.4946648516e-05
2.4946424859e-05
2.49461504146e-05
2.49458876184e-05
2.49456725031e-05
2.49455343978e-05
2.49454902793e-05
2.49455458655e-05
2.49456940251e-05
2.49459165473e-05
2.49461839296e-05
2.49464618619e-05
2.49466880997e-05
2.49468715344e-05
2.49468467672e-05
2.49466742719e-05
2.4946461181e-05
2.49461977626e-05
2.49459470728e-05
2.49457424703e-05
2.49456112327e-05
2.49455693221e-05
2.49456221078e-05
2.4945763023e-05
2.49459750811e-05
2.49462307016e-05
2.49464977344e-05
2.49467135405e-05
2.49468945493e-05
2.49468745419e-05
2.49467112173e-05
2.49465154442e-05
2.49462707677e-05
2.49460394356e-05
2.49458514517e-05
2.49457311688e-05
2.49456928929e-05
2.49457414172e-05
2.49458709433e-05
2.4946066331e-05
2.49463028768e-05
2.49465514954e-05
2.49467501483e-05
2.49469217843e-05
2.49469205513e-05
2.49467740395e-05
2.49466027965e-05
2.49463848184e-05
2.49461804723e-05
2.4946015418e-05
2.49459102624e-05
2.49458770772e-05
2.49459198883e-05
2.4946033848e-05
2.49462062254e-05
2.49464160968e-05
2.4946638367e-05
2.49468128064e-05
2.4946967203e-05
2.49469944767e-05
2.49468716792e-05
2.49467310692e-05
2.49465469776e-05
2.49463764821e-05
2.49462400241e-05
2.49461537144e-05
2.49461269199e-05
2.4946162742e-05
2.49462574256e-05
2.49464010866e-05
2.494657736e-05
2.49467660841e-05
2.49469102061e-05
2.49470404668e-05
2.49470984464e-05
2.49470038497e-05
2.49468980959e-05
2.4946753918e-05
2.4946623156e-05
2.49465201158e-05
2.49464557454e-05
2.49464364089e-05
2.494646422e-05
2.49465365443e-05
2.4946646684e-05
2.49467834258e-05
2.49469325439e-05
2.49470419435e-05
2.49471435124e-05
2.4947226131e-05
2.49471604928e-05
2.4947092717e-05
2.4946993501e-05
2.49469075694e-05
2.49468418789e-05
2.4946801861e-05
2.49467908433e-05
2.49468097941e-05
2.49468574036e-05
2.49469300191e-05
2.49470220873e-05
2.49471265075e-05
2.49471980773e-05
2.49472701835e-05
2.49473827684e-05
2.49473475018e-05
2.49473127301e-05
2.4947258049e-05
2.49472171092e-05
2.4947188378e-05
2.49471722065e-05
2.49471691723e-05
2.49471796236e-05
2.49472029441e-05
2.49472384166e-05
2.49472855395e-05
2.4947345679e-05
2.49473844965e-05
2.49474250525e-05
2.49476914967e-05
2.49476123507e-05
2.49475791787e-05
2.49475469802e-05
2.49475323606e-05
2.49475252601e-05
2.49475228414e-05
2.49475244502e-05
2.49475297931e-05
2.49475390343e-05
2.49475526795e-05
2.49475735507e-05
2.49476116795e-05
2.49476499397e-05
2.4947733152e-05
2.27763764965e-05
2.27764488098e-05
2.27765446038e-05
2.27766385071e-05
2.27767247095e-05
2.2776791974e-05
2.27768334822e-05
2.27768452631e-05
2.27768265492e-05
2.27767791451e-05
2.27767079374e-05
2.27766200239e-05
2.27765255189e-05
2.277643496e-05
2.27763623882e-05
2.27764611868e-05
2.27765403519e-05
2.27766421485e-05
2.27767437003e-05
2.27768365935e-05
2.27769091478e-05
2.27769539602e-05
2.27769667556e-05
2.27769465223e-05
2.2776895321e-05
2.27768184747e-05
2.27767237687e-05
2.27766222015e-05
2.27765250804e-05
2.27764481359e-05
2.27764970889e-05
2.27765782634e-05
2.27766813757e-05
2.27767870619e-05
2.27768840713e-05
2.27769605299e-05
2.27770081636e-05
2.27770221908e-05
2.27770013122e-05
2.27769478165e-05
2.27768674646e-05
2.27767686865e-05
2.27766633633e-05
2.27765632132e-05
2.27764851729e-05
2.27765339655e-05
2.27766165179e-05
2.27767218643e-05
2.27768306191e-05
2.27769312146e-05
2.27770110476e-05
2.27770612566e-05
2.27770765553e-05
2.27770553309e-05
2.27770000692e-05
2.27769168968e-05
2.27768147852e-05
2.27767063191e-05
2.27766030208e-05
2.27765230391e-05
2.27765814591e-05
2.27766662123e-05
2.27767747747e-05
2.27768861182e-05
2.27769898269e-05
2.27770724401e-05
2.27771247977e-05
2.27771411333e-05
2.27771196648e-05
2.2777062957e-05
2.27769774671e-05
2.27768725398e-05
2.27767612858e-05
2.27766544853e-05
2.27765717385e-05
2.27766352663e-05
2.27767237583e-05
2.2776834599e-05
2.27769481298e-05
2.27770541362e-05
2.2777138888e-05
2.27771929314e-05
2.27772101832e-05
2.27771886431e-05
2.27771309655e-05
2.27770438275e-05
2.27769368569e-05
2.27768234924e-05
2.27767133322e-05
2.27766275751e-05
2.27766943501e-05
2.27767862236e-05
2.27768992905e-05
2.27770143379e-05
2.27771218236e-05
2.27772080478e-05
2.27772633061e-05
2.27772812835e-05
2.27772597904e-05
2.2777201561e-05
2.27771134089e-05
2.27770051712e-05
2.27768904423e-05
2.27767772628e-05
2.277668845e-05
2.27767585976e-05
2.27768533271e-05
2.27769686216e-05
2.27770843059e-05
2.27771926064e-05
2.27772797525e-05
2.27773359003e-05
2.27773544602e-05
2.27773331294e-05
2.27772746534e-05
2.27771859836e-05
2.27770771091e-05
2.27769616605e-05
2.27768458401e-05
2.27767539138e-05
2.2776827277e-05
2.27769251826e-05
2.27770424372e-05
2.27771582486e-05
2.27772669049e-05
2.2777354647e-05
2.2777411431e-05
2.27774304535e-05
2.27774093115e-05
2.27773507533e-05
2.27772618561e-05
2.27771527649e-05
2.27770370764e-05
2.27769189849e-05
2.27768238933e-05
2.27769006209e-05
2.27770017638e-05
2.27771205406e-05
2.27772361122e-05
2.27773448268e-05
2.27774329615e-05
2.27774902206e-05
2.27775096189e-05
2.27774886486e-05
2.27774300839e-05
2.2777341094e-05
2.27772320286e-05
2.27771164425e-05
2.2776996496e-05
2.27768982794e-05
2.27769778636e-05
2.2777081932e-05
2.27772018736e-05
2.27773170351e-05
2.27774257247e-05
2.2777514164e-05
2.27775717779e-05
2.27775914555e-05
2.27775706316e-05
2.27775120848e-05
2.2777423038e-05
2.27773140949e-05
2.2777198836e-05
2.27770775667e-05
2.27769765694e-05
2.27770564844e-05
2.27771627676e-05
2.27772836812e-05
2.27773987371e-05
2.2777507693e-05
2.27775965323e-05
2.27776544673e-05
2.27776743322e-05
2.27776536125e-05
2.27775950047e-05
2.27775057379e-05
2.27773966371e-05
2.27772814989e-05
2.2777159336e-05
2.27770563819e-05
2.27771311878e-05
2.27772381439e-05
2.27773608339e-05
2.27774772814e-05
2.27775876686e-05
2.27776775605e-05
2.27777359613e-05
2.27777560154e-05
2.27777352645e-05
2.2777676319e-05
2.27775861357e-05
2.27774756908e-05
2.27773592956e-05
2.27772355998e-05
2.27771321395e-05
2.27772043935e-05
2.27773151181e-05
2.27774381745e-05
2.27775557049e-05
2.27776668005e-05
2.27777562885e-05
2.27778139573e-05
2.27778336334e-05
2.27778132677e-05
2.27777550781e-05
2.27776652821e-05
2.2777554261e-05
2.27774370054e-05
2.2777313535e-05
2.27772065231e-05
2.27773944371e-05
2.27774680563e-05
2.2777565682e-05
2.27776626373e-05
2.27777551376e-05
2.27778287269e-05
2.27778755596e-05
2.27778913997e-05
2.27778748399e-05
2.27778274548e-05
2.27777535827e-05
2.27776612312e-05
2.27775649556e-05
2.27774677528e-05
2.27773971584e-05
2.10771773517e-05
2.10771308609e-05
2.10770468483e-05
2.1076950953e-05
2.10768624106e-05
2.10767923173e-05
2.10767475034e-05
2.10767323375e-05
2.10767481006e-05
2.10767928331e-05
2.10768615425e-05
2.10769459808e-05
2.10770350983e-05
2.1077112546e-05
2.10771674979e-05
2.10772252815e-05
2.10771822623e-05
2.10771040196e-05
2.10770126524e-05
2.10769276229e-05
2.1076859915e-05
2.10768165333e-05
2.1076801827e-05
2.10768171391e-05
2.10768604269e-05
2.10769265828e-05
2.10770072986e-05
2.10770917061e-05
2.10771640141e-05
2.10772146814e-05
2.10772866713e-05
2.10772463062e-05
2.10771745448e-05
2.1077088264e-05
2.10770072646e-05
2.1076942187e-05
2.10769003052e-05
2.10768861027e-05
2.10769009511e-05
2.10769427589e-05
2.10770063247e-05
2.10770832886e-05
2.10771630203e-05
2.10772299464e-05
2.10772766211e-05
2.10773295081e-05
2.10772899003e-05
2.10772212384e-05
2.10771381376e-05
2.10770593134e-05
2.10769954752e-05
2.10769542601e-05
2.10769402478e-05
2.10769548436e-05
2.10769959076e-05
2.10770581673e-05
2.10771332054e-05
2.10772105603e-05
2.10772746266e-05
2.10773201757e-05
2.10773543129e-05
2.10773142072e-05
2.10772469174e-05
2.10771655794e-05
2.10770878987e-05
2.10770247251e-05
2.1076983858e-05
2.1076969907e-05
2.10769843164e-05
2.10770249371e-05
2.1077086475e-05
2.10771605314e-05
2.10772367982e-05
2.10772995559e-05
2.10773457004e-05
2.10773683875e-05
2.10773263031e-05
2.10772603806e-05
2.1077180524e-05
2.10771039494e-05
2.10770415478e-05
2.10770010939e-05
2.10769872093e-05
2.10770013302e-05
2.10770413535e-05
2.10771020485e-05
2.10771751611e-05
2.10772506032e-05
2.10773125478e-05
2.10773598626e-05
2.10773755e-05
2.10773320902e-05
2.10772678582e-05
2.10771896945e-05
2.1077114851e-05
2.10770538578e-05
2.10770142868e-05
2.10770006267e-05
2.10770142765e-05
2.1077053229e-05
2.10771124657e-05
2.10771840424e-05
2.10772582218e-05
2.10773191468e-05
2.10773674283e-05
2.10773792239e-05
2.10773357405e-05
2.1077273661e-05
2.10771983075e-05
2.10771264305e-05
2.10770679251e-05
2.10770299689e-05
2.10770167842e-05
2.10770296916e-05
2.10770668457e-05
2.10771235939e-05
2.10771925339e-05
2.10772644647e-05
2.10773236477e-05
2.10773721002e-05
2.10773832454e-05
2.10773407559e-05
2.10772818598e-05
2.10772107263e-05
2.10771432918e-05
2.10770886601e-05
2.10770532817e-05
2.10770409291e-05
2.1077052774e-05
2.10770872156e-05
2.1077140139e-05
2.10772049535e-05
2.10772732503e-05
2.1077329608e-05
2.10773771476e-05
2.10773900495e-05
2.10773493889e-05
2.10772949269e-05
2.10772296156e-05
2.10771684778e-05
2.10771193423e-05
2.1077087647e-05
2.10770765385e-05
2.107708698e-05
2.10771176691e-05
2.10771652308e-05
2.10772241722e-05
2.10772872046e-05
2.10773395296e-05
2.10773850419e-05
2.10774008081e-05
2.10773626123e-05
2.10773137581e-05
2.10772559666e-05
2.10772030299e-05
2.10771610818e-05
2.10771342407e-05
2.1077124813e-05
2.1077133502e-05
2.10771593497e-05
2.10771999058e-05
2.10772510655e-05
2.10773070689e-05
2.1077354169e-05
2.10773969967e-05
2.10774145294e-05
2.10773786678e-05
2.10773363599e-05
2.10772880458e-05
2.10772454473e-05
2.10772125462e-05
2.10771917717e-05
2.10771844852e-05
2.10771910582e-05
2.10772109431e-05
2.10772427101e-05
2.10772839562e-05
2.10773309308e-05
2.10773716598e-05
2.10774118731e-05
2.1077426834e-05
2.10773920847e-05
2.10773579738e-05
2.10773216989e-05
2.10772920235e-05
2.10772701433e-05
2.10772567321e-05
2.10772520321e-05
2.10772561346e-05
2.10772688579e-05
2.10772898637e-05
2.10773186117e-05
2.10773539365e-05
2.10773866531e-05
2.10774254547e-05
2.10774331981e-05
2.10774006053e-05
2.10773763134e-05
2.10773543684e-05
2.10773393739e-05
2.10773296187e-05
2.10773240115e-05
2.10773220864e-05
2.10773236399e-05
2.10773287607e-05
2.10773379949e-05
2.10773524137e-05
2.1077373752e-05
2.10773968286e-05
2.10774326449e-05
2.10774683633e-05
2.10774269659e-05
2.10774069103e-05
2.10773932862e-05
2.10773868519e-05
2.10773837079e-05
2.10773822841e-05
2.10773818952e-05
2.10773822712e-05
2.10773836363e-05
2.10773866325e-05
2.10773929407e-05
2.10774065076e-05
2.10774259135e-05
2.10774690816e-05
1.92064361218e-05
1.92064405338e-05
1.92064431272e-05
1.92064392053e-05
1.9206433601e-05
1.92064274983e-05
1.92064223419e-05
1.92064183637e-05
1.92064157075e-05
1.92064143408e-05
1.92064141096e-05
1.92064145888e-05
1.92064149897e-05
1.92064136038e-05
1.92064097457e-05
1.92064480981e-05
1.92064562468e-05
1.92064611418e-05
1.92064603025e-05
1.92064572643e-05
1.9206453157e-05
1.92064492391e-05
1.92064456211e-05
1.92064424254e-05
1.92064396356e-05
1.92064372251e-05
1.92064349391e-05
1.9206432323e-05
1.92064280989e-05
1.92064223229e-05
1.92064540993e-05
1.92064639839e-05
1.92064702056e-05
1.92064722295e-05
1.92064717567e-05
1.92064698581e-05
1.92064673365e-05
1.92064642763e-05
1.92064607385e-05
1.92064567924e-05
1.92064525291e-05
1.92064479031e-05
1.92064427899e-05
1.92064362521e-05
1.92064291462e-05
1.92064612237e-05
1.92064715816e-05
1.92064791094e-05
1.92064830268e-05
1.92064846095e-05
1.92064845532e-05
1.92064832489e-05
1.92064807148e-05
1.92064769617e-05
1.92064721395e-05
1.92064664498e-05
1.92064600262e-05
1.92064530188e-05
1.92064446527e-05
1.92064365135e-05
1.9206469727e-05
1.92064805125e-05
1.9206489325e-05