/*--------------------------------*- C++ -*----------------------------------*\
  =========                 |
  \\      /  F ield         | OpenFOAM: The Open Source CFD Toolbox
   \\    /   O peration     | Website:  https://openfoam.org
    \\  /    A nd           | Version:  7
     \\/     M anipulation  |
\*---------------------------------------------------------------------------*/
FoamFile
{
    version     2.0;
    format      ascii;
    class       volScalarField;
    location    "2.46";
    object      p;
}
// * * * * * * * * * * * * * * * * * * * * * * * * * * * * * * * * * * * * * //

dimensions      [0 2 -2 0 0 0 0];

internalField   nonuniform List<scalar> 
22500
(
1.41042676641e-05
1.41026480625e-05
1.41019722573e-05
1.41010659664e-05
1.41003520705e-05
1.40998007382e-05
1.40994609121e-05
1.4099347216e-05
1.4099475238e-05
1.4099828994e-05
1.41003937883e-05
1.41011196308e-05
1.41020365864e-05
1.41027179985e-05
1.41043457152e-05
1.40857171473e-05
1.40831621365e-05
1.4081692803e-05
1.40800896693e-05
1.40788060134e-05
1.40778334274e-05
1.40772355072e-05
1.40770357369e-05
1.40772503025e-05
1.40778626353e-05
1.40788490725e-05
1.40801451966e-05
1.40817591419e-05
1.40832343642e-05
1.40857974604e-05
1.40680793393e-05
1.4064687723e-05
1.40625577605e-05
1.40603576244e-05
1.4058594882e-05
1.4057268014e-05
1.40564535067e-05
1.40561811232e-05
1.40564679156e-05
1.40572964565e-05
1.4058636745e-05
1.40604116555e-05
1.40626223168e-05
1.40647582511e-05
1.40681586802e-05
1.40524917728e-05
1.40484249455e-05
1.40457779341e-05
1.40431219864e-05
1.40409949342e-05
1.40394012833e-05
1.40384242652e-05
1.40380974122e-05
1.4038438036e-05
1.40394284728e-05
1.40410348943e-05
1.40431735279e-05
1.40458396241e-05
1.4048492522e-05
1.40525689634e-05
1.40380828174e-05
1.40334514397e-05
1.40303737442e-05
1.40273573727e-05
1.40249416501e-05
1.40231395426e-05
1.4022036165e-05
1.40216671301e-05
1.40220493222e-05
1.40231655114e-05
1.40249797869e-05
1.40274065224e-05
1.40304326028e-05
1.40335160082e-05
1.40381574075e-05
1.40246232269e-05
1.40195326745e-05
1.40161020447e-05
1.4012810064e-05
1.4010173234e-05
1.40082143378e-05
1.40070165766e-05
1.40066161513e-05
1.40070291179e-05
1.40082390971e-05
1.40102095612e-05
1.40128568572e-05
1.40161579916e-05
1.40195942947e-05
1.4024695265e-05
1.40121396346e-05
1.40066972833e-05
1.40029893772e-05
1.39995023256e-05
1.39967086928e-05
1.39946415688e-05
1.39933793728e-05
1.39929576532e-05
1.39933913431e-05
1.39946651943e-05
1.39967433315e-05
1.39995469176e-05
1.40030426028e-05
1.40067560338e-05
1.40122092841e-05
1.40006263941e-05
1.39949339102e-05
1.39910179495e-05
1.39874079471e-05
1.39845152672e-05
1.39823829102e-05
1.39810827144e-05
1.39806485997e-05
1.39810941688e-05
1.39824055036e-05
1.39845483838e-05
1.39874505538e-05
1.39910687093e-05
1.3994990127e-05
1.40006939972e-05
1.39900416601e-05
1.39841917082e-05
1.39801300486e-05
1.3976460369e-05
1.39735196216e-05
1.39713593332e-05
1.3970044022e-05
1.39696052021e-05
1.39700550394e-05
1.39713810608e-05
1.3973551458e-05
1.39765013398e-05
1.39801787655e-05
1.39842459246e-05
1.39901077018e-05
1.39803330037e-05
1.39744083611e-05
1.39702586345e-05
1.3966585395e-05
1.3963642028e-05
1.39614865236e-05
1.39601760741e-05
1.39597392584e-05
1.39601867502e-05
1.39615075803e-05
1.39636728918e-05
1.39666251363e-05
1.39703058563e-05
1.39744612364e-05
1.39803982753e-05
1.39714411291e-05
1.39655145206e-05
1.3961333132e-05
1.39577075342e-05
1.39548029573e-05
1.39526815215e-05
1.39513937779e-05
1.39509649485e-05
1.39514042183e-05
1.39527021236e-05
1.39548331912e-05
1.39577465394e-05
1.39613795037e-05
1.39655668498e-05
1.39715065621e-05
1.39632858264e-05
1.39574304594e-05
1.3953280903e-05
1.39497520151e-05
1.39469245434e-05
1.39448640142e-05
1.39436152981e-05
1.39432000006e-05
1.39436256032e-05
1.39448843975e-05
1.39469545227e-05
1.39497908277e-05
1.39533271685e-05
1.39574831427e-05
1.39633523909e-05
1.395572932e-05
1.39500670668e-05
1.39460351176e-05
1.39426501249e-05
1.39399347046e-05
1.3937960154e-05
1.39367662181e-05
1.39363697057e-05
1.39367765015e-05
1.39379805034e-05
1.39399647836e-05
1.3942689295e-05
1.39460820924e-05
1.39501210989e-05
1.3955798036e-05
1.39486836819e-05
1.3943380836e-05
1.39395289691e-05
1.39363237087e-05
1.39337512369e-05
1.39318895222e-05
1.39307679478e-05
1.39303965433e-05
1.3930778254e-05
1.39319099958e-05
1.39337816938e-05
1.39363637629e-05
1.39395774849e-05
1.39434374399e-05
1.39487550739e-05
1.39428943423e-05
1.39371696209e-05
1.39335375479e-05
1.39305191774e-05
1.39281283919e-05
1.39264188896e-05
1.39253961592e-05
1.39250587384e-05
1.39254065983e-05
1.39264396669e-05
1.39281594949e-05
1.39305605834e-05
1.39335888326e-05
1.39372306449e-05
1.39429680247e-05
1.17311879743e-05
1.17315444695e-05
1.17317627588e-05
1.17319427832e-05
1.1732088952e-05
1.17321983507e-05
1.17322665864e-05
1.17322885285e-05
1.17322623347e-05
1.17321903714e-05
1.17320785352e-05
1.17319318126e-05
1.17317520549e-05
1.17315351419e-05
1.17311810007e-05
1.17328956527e-05
1.17333206897e-05
1.17336124438e-05
1.17338597155e-05
1.17340617514e-05
1.17342124476e-05
1.17343060851e-05
1.17343367146e-05
1.17343019412e-05
1.17342047024e-05
1.17340516941e-05
1.17338492478e-05
1.17336026917e-05
1.17333120896e-05
1.17328894835e-05
1.17346935404e-05
1.17352356488e-05
1.1735631446e-05
1.17359785694e-05
1.17362662885e-05
1.17364822853e-05
1.17366169202e-05
1.17366616499e-05
1.17366130165e-05
1.17364749717e-05
1.17362567056e-05
1.1735968391e-05
1.17356219951e-05
1.17352269568e-05
1.17346875609e-05
1.17368044979e-05
1.17375504399e-05
1.17381153184e-05
1.17386214805e-05
1.17390462412e-05
1.17393672919e-05
1.17395680853e-05
1.17396355276e-05
1.1739564465e-05
1.17393604821e-05
1.17390372004e-05
1.17386116199e-05
1.17381060155e-05
1.17375416651e-05
1.17367986819e-05
1.17394691318e-05
1.17405082496e-05
1.17413078447e-05
1.17420306978e-05
1.17426407225e-05
1.1743103081e-05
1.17433925106e-05
1.17434902714e-05
1.17433891717e-05
1.17430967879e-05
1.1742632285e-05
1.17420213356e-05
1.17412988302e-05
1.1740499584e-05
1.17394636047e-05
1.17427247687e-05
1.17441276221e-05
1.17452090057e-05
1.17461880271e-05
1.17470148318e-05
1.1747641442e-05
1.17480333822e-05
1.17481661122e-05
1.1748030357e-05
1.17476357315e-05
1.17470071199e-05
1.1746179342e-05
1.17452005184e-05
1.17441191508e-05
1.17427198349e-05
1.17465159736e-05
1.17483269573e-05
1.17497154938e-05
1.17509687073e-05
1.17520250811e-05
1.17528243032e-05
1.17533233651e-05
1.17534925219e-05
1.1753320662e-05
1.17528191956e-05
1.17520181563e-05
1.17509608282e-05
1.17497077274e-05
1.17483189177e-05
1.17465117697e-05
1.17507533858e-05
1.1752989441e-05
1.17546895344e-05
1.17562146962e-05
1.17574962142e-05
1.17584632497e-05
1.17590657906e-05
1.17592700207e-05
1.17590634188e-05
1.17584587711e-05
1.17574901247e-05
1.17562077229e-05
1.17546825769e-05
1.1752982046e-05
1.17507499369e-05
1.17553319037e-05
1.17579836565e-05
1.17599810926e-05
1.17617588918e-05
1.1763246889e-05
1.17643662356e-05
1.17650619483e-05
1.17652976264e-05
1.17650598886e-05
1.17643623573e-05
1.1763241618e-05
1.17617528577e-05
1.17599750303e-05
1.17579770432e-05
1.17553294376e-05
1.17601411143e-05
1.17631754257e-05
1.17654406341e-05
1.17674387036e-05
1.17691039204e-05
1.17703522657e-05
1.17711260344e-05
1.17713879053e-05
1.17711242578e-05
1.17703489353e-05
1.17690994148e-05
1.17674335722e-05
1.17654354699e-05
1.17631696698e-05
1.17601396734e-05
1.17650721183e-05
1.17684357978e-05
1.17709275774e-05
1.17731052298e-05
1.17749118203e-05
1.17762609743e-05
1.17770946942e-05
1.17773764747e-05
1.1777093145e-05
1.17762580875e-05
1.17749079551e-05
1.17731009053e-05
1.17709232746e-05
1.17684309505e-05
1.17650718654e-05
1.1770017132e-05
1.1773642257e-05
1.17763134734e-05
1.17786276737e-05
1.17805375998e-05
1.17819575508e-05
1.17828319026e-05
1.17831269094e-05
1.17828304974e-05
1.17819549597e-05
1.17805341742e-05
1.17786239545e-05
1.17763098833e-05
1.17736383057e-05
1.1770018075e-05
1.17748657151e-05
1.17786833602e-05
1.17814902503e-05
1.17839005625e-05
1.17858762765e-05
1.17873367288e-05
1.17882321419e-05
1.17885335461e-05
1.17882307798e-05
1.17873342042e-05
1.17858730065e-05
1.1783897116e-05
1.17814871038e-05
1.17786800998e-05
1.17748676446e-05
1.17795862658e-05
1.1783545305e-05
1.17864236167e-05
1.17888767477e-05
1.17908674126e-05
1.17923277967e-05
1.17932185427e-05
1.17935175444e-05
1.17932170983e-05
1.17923251341e-05
1.17908639485e-05
1.17888732011e-05
1.17864205276e-05
1.17835426368e-05
1.17795886874e-05
1.17846273798e-05
1.17883076566e-05
1.1791130402e-05
1.17935304212e-05
1.17954473961e-05
1.17968407369e-05
1.17976857753e-05
1.17979685505e-05
1.17976842676e-05
1.17968379109e-05
1.17954437099e-05
1.17935266398e-05
1.17911274468e-05
1.17883059737e-05
1.17846299116e-05
1.20492733444e-05
1.20490993169e-05
1.20488954543e-05
1.20486793823e-05
1.20484810423e-05
1.20483242118e-05
1.20482243176e-05
1.2048190055e-05
1.20482246483e-05
1.20483245849e-05
1.2048480893e-05
1.20486783321e-05
1.20488952217e-05
1.20490987097e-05
1.20492745119e-05
1.20492566577e-05
1.20490889621e-05
1.20488901182e-05
1.20486778215e-05
1.20484821981e-05
1.20483268619e-05
1.20482276119e-05
1.20481935358e-05
1.20482281194e-05
1.20483275952e-05
1.2048482585e-05
1.20486774813e-05
1.20488903929e-05
1.20490892055e-05
1.20492585446e-05
1.20494140087e-05
1.20492622164e-05
1.20490793255e-05
1.20488799082e-05
1.20486944914e-05
1.2048546193e-05
1.20484509642e-05
1.20484181831e-05
1.20484514998e-05
1.20485470222e-05
1.20486951346e-05
1.20488800309e-05
1.20490799188e-05
1.20492628556e-05
1.20494163703e-05
1.20495241493e-05
1.2049379006e-05
1.20492046234e-05
1.20490122029e-05
1.20488324231e-05
1.20486880128e-05
1.20485949571e-05
1.20485628582e-05
1.20485954747e-05
1.20486888599e-05
1.20488332483e-05
1.20490127107e-05
1.20492055062e-05
1.20493798011e-05
1.20495270764e-05
1.20495601801e-05
1.20494149848e-05
1.20492439303e-05
1.20490549896e-05
1.20488784361e-05
1.20487364875e-05
1.20486449235e-05
1.20486133228e-05
1.20486454403e-05
1.2048737366e-05
1.20488793991e-05
1.20490557906e-05
1.20492451127e-05
1.20494159374e-05
1.20495636883e-05
1.20495534118e-05
1.20494068865e-05
1.20492389531e-05
1.20490542039e-05
1.20488821995e-05
1.20487441471e-05
1.20486551501e-05
1.20486244475e-05
1.20486556643e-05
1.2048745053e-05
1.20488832909e-05
1.20490552713e-05
1.20492403955e-05
1.2049408117e-05
1.2049557415e-05
1.20495288361e-05
1.20493835931e-05
1.20492212306e-05
1.2049043837e-05
1.20488796988e-05
1.20487484242e-05
1.20486639693e-05
1.20486348698e-05
1.20486644862e-05
1.20487493565e-05
1.20488808916e-05
1.20490451252e-05
1.20492229037e-05
1.2049385088e-05
1.20495334176e-05
1.20495042836e-05
1.2049364947e-05
1.20492119176e-05
1.20490460695e-05
1.20488938906e-05
1.20487728031e-05
1.20486951505e-05
1.20486684488e-05
1.20486956717e-05
1.20487737656e-05
1.20488951891e-05
1.20490475871e-05
1.20492138558e-05
1.20493667296e-05
1.20495095279e-05
1.20494938528e-05
1.20493656672e-05
1.20492260531e-05
1.2049075939e-05
1.20489396555e-05
1.20488319604e-05
1.20487632101e-05
1.20487396401e-05
1.20487637376e-05
1.20488329568e-05
1.2048941052e-05
1.20490776702e-05
1.20492282734e-05
1.20493677785e-05
1.20494997653e-05
1.20495075098e-05
1.20493951263e-05
1.20492723974e-05
1.20491414013e-05
1.20490241818e-05
1.20489324366e-05
1.20488742373e-05
1.20488543733e-05
1.20488747771e-05
1.20489334752e-05
1.2049025691e-05
1.20491433646e-05
1.20492749306e-05
1.20493976402e-05
1.20495141107e-05
1.2049550442e-05
1.20494568394e-05
1.20493532128e-05
1.20492435463e-05
1.20491474957e-05
1.20490733821e-05
1.20490268159e-05
1.20490110224e-05
1.20490273676e-05
1.20490744609e-05
1.20491491078e-05
1.20492457323e-05
1.20493560542e-05
1.20494597782e-05
1.20495577427e-05
1.20496221897e-05
1.20495478831e-05
1.20494642524e-05
1.20493771609e-05
1.20493035224e-05
1.20492480517e-05
1.20492137127e-05
1.20492022037e-05
1.20492142689e-05
1.20492491608e-05
1.20493052249e-05
1.20493795415e-05
1.2049467385e-05
1.20495512189e-05
1.20496301031e-05
1.20497180245e-05
1.20496609823e-05
1.20495973755e-05
1.20495333496e-05
1.20494827144e-05
1.20494462376e-05
1.20494243242e-05
1.20494171054e-05
1.20494248728e-05
1.20494473446e-05
1.20494844429e-05
1.20495358563e-05
1.20496007227e-05
1.20496646718e-05
1.20497264538e-05
1.20498418149e-05
1.2049800675e-05
1.20497523953e-05
1.20497085402e-05
1.20496782939e-05
1.20496584819e-05
1.20496472289e-05
1.20496437275e-05
1.20496477586e-05
1.20496595318e-05
1.20496799902e-05
1.20497110549e-05
1.20497558515e-05
1.20498046904e-05
1.20498504837e-05
1.20500421617e-05
1.20499696112e-05
1.20499237564e-05
1.2049891636e-05
1.20498739457e-05
1.20498639127e-05
1.20498587535e-05
1.20498573086e-05
1.20498593105e-05
1.20498650397e-05
1.20498757312e-05
1.20498943296e-05
1.2049927595e-05
1.20499743939e-05
1.20500507432e-05
1.0723485615e-05
1.07235848529e-05
1.07236969424e-05
1.07238096612e-05
1.07239097744e-05
1.07239872066e-05
1.07240356136e-05
1.07240509473e-05
1.07240316588e-05
1.07239795554e-05
1.07238990414e-05
1.0723797119e-05
1.07236834346e-05
1.07235717847e-05
1.07234719266e-05
1.07235017065e-05
1.07235981157e-05
1.07237094369e-05
1.07238226485e-05
1.0723923663e-05
1.07240021555e-05
1.07240513642e-05
1.07240669927e-05
1.07240473349e-05
1.07239943715e-05
1.07239127878e-05
1.07238099868e-05
1.07236961093e-05
1.07235851825e-05
1.07234887532e-05
1.07233885645e-05
1.07234729958e-05
1.07235737864e-05
1.07236790233e-05
1.07237740837e-05
1.07238487012e-05
1.07238957603e-05
1.07239107786e-05
1.07238919378e-05
1.0723841314e-05
1.07237637508e-05
1.07236668724e-05
1.07235610109e-05
1.07234602433e-05
1.07233761284e-05
1.07232754954e-05
1.07233501841e-05
1.07234420664e-05
1.07235398573e-05
1.07236292935e-05
1.0723700153e-05
1.07237451035e-05
1.07237595302e-05
1.07237415476e-05
1.07236932811e-05
1.07236196667e-05
1.07235284337e-05
1.07234299343e-05
1.07233378432e-05
1.07232635624e-05
1.07231830616e-05
1.07232503641e-05
1.07233353106e-05
1.07234266008e-05
1.07235109526e-05
1.07235782402e-05
1.07236211428e-05
1.07236349671e-05
1.07236178186e-05
1.0723571819e-05
1.07235019275e-05
1.07234158309e-05
1.07233237279e-05
1.07232384613e-05
1.07231716627e-05
1.07231000224e-05
1.07231609631e-05
1.07232394884e-05
1.07233244471e-05
1.07234035627e-05
1.07234670657e-05
1.07235077205e-05
1.07235208753e-05
1.07235046336e-05
1.07234611003e-05
1.07233951691e-05
1.07233143621e-05
1.07232285612e-05
1.07231494491e-05
1.0723089366e-05
1.07230205924e-05
1.07230754517e-05
1.07231480189e-05
1.07232266758e-05
1.07233003962e-05
1.07233598895e-05
1.07233981159e-05
1.07234105266e-05
1.07233952507e-05
1.07233543463e-05
1.07232925826e-05
1.07232172243e-05
1.07231377184e-05
1.07230643599e-05
1.07230106475e-05
1.07229432499e-05
1.07229923117e-05
1.07230595114e-05
1.07231320563e-05
1.07232004848e-05
1.07232559738e-05
1.07232917577e-05
1.07233034062e-05
1.07232891099e-05
1.07232508495e-05
1.07231932398e-05
1.07231232389e-05
1.07230497928e-05
1.07229816867e-05
1.07229339325e-05
1.07228673261e-05
1.07229112443e-05
1.07229737277e-05
1.07230406479e-05
1.07231041173e-05
1.07231558085e-05
1.07231892499e-05
1.07232001589e-05
1.07231867993e-05
1.07231510623e-05
1.0723097385e-05
1.07230324073e-05
1.07229645482e-05
1.07229010688e-05
1.07228586904e-05
1.07227926888e-05
1.07228322167e-05
1.0722890695e-05
1.07229526403e-05
1.07230116503e-05
1.07230599017e-05
1.07230911925e-05
1.07231014212e-05
1.07230889256e-05
1.07230555037e-05
1.07230053953e-05
1.07229449309e-05
1.0722882014e-05
1.07228224607e-05
1.07227846986e-05
1.07227192114e-05
1.07227552412e-05
1.07228104835e-05
1.07228682083e-05
1.07229233742e-05
1.07229685922e-05
1.07229979643e-05
1.07230075686e-05
1.07229958581e-05
1.07229645034e-05
1.0722917539e-05
1.07228609886e-05
1.07228022755e-05
1.07227459382e-05
1.07227119082e-05
1.07226464217e-05
1.07226799047e-05
1.07227327297e-05
1.07227871449e-05
1.07228391764e-05
1.07228818608e-05
1.0722909554e-05
1.07229186135e-05
1.07229075883e-05
1.07228780385e-05
1.07228337187e-05
1.07227803583e-05
1.07227249684e-05
1.0722671076e-05
1.07226398362e-05
1.07225719698e-05
1.07226037918e-05
1.07226555595e-05
1.072270817e-05
1.07227583135e-05
1.07227992194e-05
1.07228256792e-05
1.07228342868e-05
1.07228238342e-05
1.07227956402e-05
1.07227531712e-05
1.07227017824e-05
1.07226482124e-05
1.07225954485e-05
1.07225660853e-05
1.07224944029e-05
1.07225271577e-05
1.07225791026e-05
1.07226313198e-05
1.07226805007e-05
1.07227201465e-05
1.07227454889e-05
1.07227537234e-05
1.07227437711e-05
1.07227167746e-05
1.07226756753e-05
1.07226252861e-05
1.07225721593e-05
1.07225193248e-05
1.07224892563e-05
1.07224720217e-05
1.07224962191e-05
1.07225361919e-05
1.07225768099e-05
1.07226155606e-05
1.0722646537e-05
1.07226662012e-05
1.07226724711e-05
1.07226646394e-05
1.07226434931e-05
1.07226111561e-05
1.0722571301e-05
1.07225298525e-05
1.07224890583e-05
1.07224670255e-05
1.04461141734e-05
1.04460426836e-05
1.04459587457e-05
1.04458726632e-05
1.04457937502e-05
1.04457308806e-05
1.0445690718e-05
1.04456767312e-05
1.04456901393e-05
1.04457294402e-05
1.04457909141e-05
1.04458686025e-05
1.04459544261e-05
1.04460372991e-05
1.04461096093e-05
1.04460658438e-05
1.04459954738e-05
1.04459117806e-05
1.04458252379e-05
1.04457456145e-05
1.04456820777e-05
1.04456413892e-05
1.04456272037e-05
1.04456408611e-05
1.0445680748e-05
1.0445742974e-05
1.04458213666e-05
1.0445907588e-05
1.04459905451e-05
1.04460616067e-05
1.04460998078e-05
1.04460359966e-05
1.04459582958e-05
1.04458763242e-05
1.04458002992e-05
1.04457392831e-05
1.04457000104e-05
1.04456862624e-05
1.04456994685e-05
1.04457379762e-05
1.04457978044e-05
1.04458726695e-05
1.04459541574e-05
1.0446031232e-05
1.04460955697e-05
1.04461389019e-05
1.04460800734e-05
1.04460071017e-05
1.04459291162e-05
1.0445856286e-05
1.04457975681e-05
1.04457595811e-05
1.04457462246e-05
1.04457590025e-05
1.0445796247e-05
1.04458539114e-05
1.04459256439e-05
1.04460030173e-05
1.04460752922e-05
1.04461346926e-05
1.04461666692e-05
1.04461109891e-05
1.04460412178e-05
1.04459663242e-05
1.04458960354e-05
1.04458391609e-05
1.04458022303e-05
1.04457892008e-05
1.04458016167e-05
1.04458378072e-05
1.04458936995e-05
1.04459629403e-05
1.04460371651e-05
1.04461061275e-05
1.04461625031e-05
1.04461884126e-05
1.04461347435e-05
1.04460676443e-05
1.04459955297e-05
1.04459276686e-05
1.04458726415e-05
1.04458368051e-05
1.04458241232e-05
1.04458361486e-05
1.04458712345e-05
1.04459253368e-05
1.04459921915e-05
1.04460635914e-05
1.04461299151e-05
1.04461842039e-05
1.04462073975e-05
1.0446155362e-05
1.04460906544e-05
1.04460212944e-05
1.04459559946e-05
1.04459029862e-05
1.0445868403e-05
1.04458561329e-05
1.04458677019e-05
1.04459015125e-05
1.0445953622e-05
1.0446017953e-05
1.04460865591e-05
1.04461505341e-05
1.04462032318e-05
1.04462248707e-05
1.04461742801e-05
1.04461118557e-05
1.04460454116e-05
1.04459829514e-05
1.04459322613e-05
1.04458991638e-05
1.04458873936e-05
1.04458984169e-05
1.04459307171e-05
1.044598053e-05
1.04460420696e-05
1.04461077627e-05
1.04461694765e-05
1.04462208631e-05
1.04462419076e-05
1.04461926777e-05
1.04461326216e-05
1.04460693684e-05
1.04460101166e-05
1.04459621172e-05
1.04459307919e-05
1.04459196289e-05
1.0445930003e-05
1.04459605076e-05
1.04460076392e-05
1.04460660131e-05
1.04461285464e-05
1.04461879204e-05
1.04462380888e-05
1.04462594986e-05
1.04462116148e-05
1.04461541538e-05
1.04460944416e-05
1.04460388546e-05
1.0445993994e-05
1.04459647608e-05
1.04459543312e-05
1.04459639403e-05
1.04459923333e-05
1.04460363437e-05
1.04460911005e-05
1.04461501389e-05
1.04462069729e-05
1.04462559084e-05
1.04462784131e-05
1.04462319254e-05
1.04461773109e-05
1.04461215066e-05
1.04460700737e-05
1.04460288058e-05
1.04460020095e-05
1.04459924333e-05
1.04460011676e-05
1.04460271161e-05
1.04460675433e-05
1.04461181966e-05
1.04461733648e-05
1.04462274185e-05
1.04462750805e-05
1.04462993524e-05
1.04462540644e-05
1.04462023851e-05
1.04461508081e-05
1.0446103963e-05
1.04460667552e-05
1.04460426993e-05
1.04460341138e-05
1.04460418515e-05
1.04460650588e-05
1.04461014579e-05
1.04461475489e-05
1.04461985314e-05
1.04462496746e-05
1.04462962447e-05
1.044632357e-05
1.04462785011e-05
1.04462294213e-05
1.0446182097e-05
1.04461401384e-05
1.04461072206e-05
1.04460861619e-05
1.04460786094e-05
1.0446085324e-05
1.04461055692e-05
1.04461376737e-05
1.04461789418e-05
1.04462256688e-05
1.04462742438e-05
1.04463206935e-05
1.04463491981e-05
1.04463028092e-05
1.04462568372e-05
1.04462142473e-05
1.04461774864e-05
1.04461492127e-05
1.04461312287e-05
1.04461248395e-05
1.0446130443e-05
1.04461476217e-05
1.04461751644e-05
1.0446211215e-05
1.04462532423e-05
1.04462986783e-05
1.04463465447e-05
1.04463365963e-05
1.04463057434e-05
1.04462706946e-05
1.04462389021e-05
1.04462119112e-05
1.04461912439e-05
1.0446178189e-05
1.04461734956e-05
1.04461774844e-05
1.04461898483e-05
1.04462098185e-05
1.0446236189e-05
1.04462673953e-05
1.04463018459e-05
1.04463338767e-05
9.48550735088e-06
9.48555240533e-06
9.48560525158e-06
9.48565947657e-06
9.48570816563e-06
9.48574612657e-06
9.48576983761e-06
9.48577724669e-06
9.48576764698e-06
9.48574195633e-06
9.48570246349e-06
9.48565289384e-06
9.48559825042e-06
9.48554598715e-06
9.48550010239e-06
9.48551497943e-06
9.48555868992e-06
9.4856105578e-06
9.48566433357e-06
9.48571280141e-06
9.48575070689e-06
9.48577442174e-06
9.48578181733e-06
9.48577212855e-06
9.48574634661e-06
9.48570686457e-06
9.48565753495e-06
9.48560348514e-06
9.48555214955e-06
9.48550806213e-06
9.48546978301e-06
9.48550839472e-06
9.48555517721e-06
9.48560507179e-06
9.48565053331e-06
9.4856864373e-06
9.48570903268e-06
9.4857161096e-06
9.48570684554e-06
9.48568227099e-06
9.48564483438e-06
9.4855984568e-06
9.48554826276e-06
9.4855016948e-06
9.48546290313e-06
9.4854246717e-06
9.48545923441e-06
9.48550194452e-06
9.48554847432e-06
9.48559136933e-06
9.48562554608e-06
9.48564718175e-06
9.48565400122e-06
9.48564513774e-06
9.48562164277e-06
9.48558600313e-06
9.4855421787e-06
9.48549525684e-06
9.48545259435e-06
9.48541776665e-06
9.48538873002e-06
9.48542049605e-06
9.48546020641e-06
9.48550401092e-06
9.48554478347e-06
9.48557747655e-06
9.48559827999e-06
9.48560486681e-06
9.48559635751e-06
9.48557379913e-06
9.48553969178e-06
9.48549798046e-06
9.48545366915e-06
9.48541393136e-06
9.48538181748e-06
9.48535736971e-06
9.48538703512e-06
9.48542400138e-06
9.48546532567e-06
9.48550402439e-06
9.48553520574e-06
9.48555511678e-06
9.48556144607e-06
9.48555330754e-06
9.48553173694e-06
9.48549920011e-06
9.48545956709e-06
9.48541769679e-06
9.48538050896e-06
9.4853506136e-06
9.48532799287e-06
9.48535566146e-06
9.48539003445e-06
9.48542884306e-06
9.48546531743e-06
9.48549480931e-06
9.48551368753e-06
9.48551970307e-06
9.48551198281e-06
9.4854915297e-06
9.4854607305e-06
9.48542331209e-06
9.4853839264e-06
9.48534918278e-06
9.48532135474e-06
9.48529940569e-06
9.4853249624e-06
9.48535680359e-06
9.48539295707e-06
9.48542702009e-06
9.48545461093e-06
9.48547229811e-06
9.48547793437e-06
9.48547068874e-06
9.48545150701e-06
9.48542265354e-06
9.48538764594e-06
9.48535086799e-06
9.48531857633e-06
9.48529281766e-06
9.48527056654e-06
9.48529400122e-06
9.48532326191e-06
9.48535659986e-06
9.48538802512e-06
9.48541348066e-06
9.48542980384e-06
9.48543499194e-06
9.4854282774e-06
9.48541052935e-06
9.48538384354e-06
9.48535146684e-06
9.4853174562e-06
9.48528768039e-06
9.48526408735e-06
9.48524079514e-06
9.48526201151e-06
9.48528862381e-06
9.48531900245e-06
9.48534757409e-06
9.48537068749e-06
9.48538548066e-06
9.48539016157e-06
9.48538402991e-06
9.48536786984e-06
9.48534356229e-06
9.4853140251e-06
9.48528293093e-06
9.48525573894e-06
9.48523441036e-06
9.48520957541e-06
9.48522858549e-06
9.48525257344e-06
9.4852798891e-06
9.48530544429e-06
9.48532601372e-06
9.48533913923e-06
9.48534324942e-06
9.4853377517e-06
9.48532331353e-06
9.48530157011e-06
9.4852750498e-06
9.48524697883e-06
9.48522238079e-06
9.48520333939e-06
9.48517681901e-06
9.48519381147e-06
9.48521528919e-06
9.48523952133e-06
9.48526190066e-06
9.48527979264e-06
9.48529111075e-06
9.48529461607e-06
9.4852897836e-06
9.48527719154e-06
9.48525816746e-06
9.48523480193e-06
9.48520979736e-06
9.48518769828e-06
9.48517077311e-06
9.48514224359e-06
9.48515777699e-06
9.48517711344e-06
9.48519836371e-06
9.48521761328e-06
9.48523271319e-06
9.48524221821e-06
9.48524506207e-06
9.48524094399e-06
9.48523023855e-06
9.48521399709e-06
9.48519380062e-06
9.48517173498e-06
9.48515178725e-06
9.48513642206e-06
9.48510515697e-06
9.48512020524e-06
9.48513805353e-06
9.48515677186e-06
9.48517303648e-06
9.4851856108e-06
9.48519334115e-06
9.48519562657e-06
9.48519215091e-06
9.48518324063e-06
9.4851696137e-06
9.48515236017e-06
9.48513284648e-06
9.48511436428e-06
9.4850996961e-06
9.4850768213e-06
9.48509082891e-06
9.48510566425e-06
9.48511994648e-06
9.48513188455e-06
9.48514088213e-06
9.48514636646e-06
9.48514786696e-06
9.4851452442e-06
9.48513867901e-06
9.48512863465e-06
9.48511576207e-06
9.48510062473e-06
9.48508509e-06
9.48507141687e-06
8.96223145002e-06
8.96220403481e-06
8.962171124e-06
8.96213773554e-06
8.96210798114e-06
8.9620847648e-06
8.9620700296e-06
8.96206509903e-06
8.9620704844e-06
8.96208563843e-06
8.96210920304e-06
8.96213898757e-06
8.9621720507e-06
8.96220426603e-06
8.96223294346e-06
8.96221688223e-06
8.96218989898e-06
8.9621570889e-06
8.96212343776e-06
8.96209330515e-06
8.96206970558e-06
8.96205470047e-06
8.96204967036e-06
8.96205516831e-06
8.96207060547e-06
8.96209454217e-06
8.96212469062e-06
8.96215797959e-06
8.96219024161e-06
8.96221833869e-06
8.96223663217e-06
8.96221233227e-06
8.96218216566e-06
8.96215043106e-06
8.96212169263e-06
8.96209898853e-06
8.96208448501e-06
8.96207960654e-06
8.9620849254e-06
8.96209982585e-06
8.96212282295e-06
8.96215156925e-06
8.96218294325e-06
8.96221275736e-06
8.96223794252e-06
8.96225789668e-06
8.96223579468e-06
8.96220773641e-06
8.9621777683e-06
8.96215028997e-06
8.96212840388e-06
8.96211436407e-06
8.96210962349e-06
8.96211476256e-06
8.96212914616e-06
8.96215125758e-06
8.96217871257e-06
8.96220837303e-06
8.96223613371e-06
8.96225910741e-06
8.96227435686e-06
8.96225376893e-06
8.96222722686e-06
8.96219869864e-06
8.96217228277e-06
8.96215111766e-06
8.96213748992e-06
8.96213287022e-06
8.96213784021e-06
8.96215175963e-06
8.96217309458e-06
8.96219945683e-06
8.962227728e-06
8.96225397076e-06
8.96227542036e-06
8.96228851066e-06
8.96226895826e-06
8.96224382727e-06
8.9622166568e-06
8.96219131032e-06
8.9621709063e-06
8.96215772796e-06
8.96215324163e-06
8.96215802254e-06
8.96217143483e-06
8.96219194931e-06
8.96221721084e-06
8.96224416329e-06
8.96226909992e-06
8.96228932906e-06
8.96230168273e-06
8.96228310536e-06
8.96225929633e-06
8.96223347929e-06
8.96220929185e-06
8.9621897538e-06
8.9621771031e-06
8.96217277694e-06
8.96217734111e-06
8.96219017066e-06
8.96220977229e-06
8.96223385608e-06
8.96225946718e-06
8.9622831734e-06
8.96230231256e-06
8.96231434846e-06
8.9622967517e-06
8.96227420054e-06
8.96224980587e-06
8.96222688419e-06
8.96220832018e-06
8.96219627488e-06
8.96219213847e-06
8.96219645636e-06
8.96220862736e-06
8.96222721591e-06
8.96225003149e-06
8.96227425686e-06
8.96229676317e-06
8.96231488706e-06
8.96232693908e-06
8.96231028365e-06
8.96228897557e-06
8.96226606166e-06
8.96224450354e-06
8.96222702429e-06
8.96221566681e-06
8.96221175487e-06
8.96221579905e-06
8.96222723968e-06
8.96224471768e-06
8.96226617426e-06
8.96228895997e-06
8.96231026567e-06
8.96232740031e-06
8.962339754e-06
8.96232401163e-06
8.96230397106e-06
8.96228259338e-06
8.96226249965e-06
8.96224620364e-06
8.96223561219e-06
8.96223195352e-06
8.96223570404e-06
8.96224634625e-06
8.9622626248e-06
8.96228263739e-06
8.96230393256e-06
8.96232402021e-06
8.96234017949e-06
8.96235305497e-06
8.96233822141e-06
8.96231944318e-06
8.96229962657e-06
8.96228106387e-06
8.96226603933e-06
8.96225628262e-06
8.96225290957e-06
8.96225634835e-06
8.962266133e-06
8.962281138e-06
8.96229963895e-06
8.96231940774e-06
8.96233827059e-06
8.96235346129e-06
8.96236713468e-06
8.96235312257e-06
8.96233552237e-06
8.96231723883e-06
8.96230024047e-06
8.96228653961e-06
8.96227767568e-06
8.96227461297e-06
8.96227772615e-06
8.96228661716e-06
8.96230029422e-06
8.96231725581e-06
8.96233552079e-06
8.9623532007e-06
8.96236750257e-06
8.96238261695e-06
8.96236914716e-06
8.96235245645e-06
8.9623355113e-06
8.96231996677e-06
8.96230757173e-06
8.96229958961e-06
8.96229684987e-06
8.96229964626e-06
8.96230764634e-06
8.96232004219e-06
8.96233555995e-06
8.96235249976e-06
8.96236926333e-06
8.96238295347e-06
8.96239950887e-06
8.96238589471e-06
8.96236993092e-06
8.96235416313e-06
8.96234001215e-06
8.96232887665e-06
8.96232179595e-06
8.9623193814e-06
8.96232186612e-06
8.96232898806e-06
8.96234013067e-06
8.96235428274e-06
8.96237004645e-06
8.96238605653e-06
8.96239984044e-06
8.96240235109e-06
8.96239309833e-06
8.96238074756e-06
8.96236873207e-06
8.96235805106e-06
8.96234973544e-06
8.96234448383e-06
8.96234272252e-06
8.96234457846e-06
8.9623498942e-06
8.96235824522e-06
8.96236894579e-06
8.96238094806e-06
8.96239330695e-06
8.96240269878e-06
8.15636080652e-06
8.15638007351e-06
8.15640275893e-06
8.15642550843e-06
8.15644579036e-06
8.15646161783e-06
8.15647165553e-06
8.15647494729e-06
8.15647112058e-06
8.15646053687e-06
8.15644415529e-06
8.15642353894e-06
8.1564008045e-06
8.15637898321e-06
8.15635994352e-06
8.15636734251e-06
8.15638641951e-06
8.15640875934e-06
8.15643139056e-06
8.15645162547e-06
8.15646746694e-06
8.15647752819e-06
8.15648081508e-06
8.15647693546e-06
8.15646627429e-06
8.15644983369e-06
8.15642923011e-06
8.1564066364e-06
8.15638507841e-06
8.15636665e-06
8.1563530539e-06
8.15637024647e-06
8.15639058301e-06
8.15641179014e-06
8.15643095205e-06
8.15644610377e-06
8.15645576488e-06
8.15645892962e-06
8.15645519003e-06
8.15644495171e-06
8.15642924126e-06
8.15640970561e-06
8.15638852874e-06
8.1563687327e-06
8.15635228697e-06
8.15633848041e-06
8.15635406656e-06
8.15637283787e-06
8.15639275667e-06
8.15641099104e-06
8.15642554443e-06
8.15643486343e-06
8.15643792907e-06
8.15643432427e-06
8.15642446776e-06
8.15640940368e-06
8.15639079804e-06
8.15637082978e-06
8.15635246757e-06
8.156337495e-06
8.15632724626e-06
8.15634170586e-06
8.15635933158e-06