/*--------------------------------*- C++ -*----------------------------------*\
  =========                 |
  \\      /  F ield         | OpenFOAM: The Open Source CFD Toolbox
   \\    /   O peration     | Website:  https://openfoam.org
    \\  /    A nd           | Version:  7
     \\/     M anipulation  |
\*---------------------------------------------------------------------------*/
FoamFile
{
    version     2.0;
    format      ascii;
    class       surfaceScalarField;
    location    "2.46";
    object      phi;
}
// * * * * * * * * * * * * * * * * * * * * * * * * * * * * * * * * * * * * * //

dimensions      [0 3 -1 0 0 0 0];

internalField   nonuniform List<scalar> 
65775
(
1.65377428343e-11
2.24947770567e-09
3.2464660814e-10
-1.16035199958e-13
2.59555570169e-11
2.35521601878e-09
3.59932902991e-10
3.08439988757e-11
2.44646456156e-09
3.93827674127e-10
3.03190246176e-11
2.52515486768e-09
4.24485949674e-10
2.52491687586e-11
2.58786271832e-09
4.50228259951e-10
1.65936861938e-11
2.6337247276e-09
4.69697191295e-10
5.66997659793e-12
2.66254210236e-09
4.81998098279e-10
-6.04684661085e-12
2.67346770341e-09
4.86413647568e-10
-1.69571504445e-11
2.66260568116e-09
4.81998044439e-10
-2.55870863863e-11
2.63384893467e-09
4.69696941578e-10
-3.06165531646e-11
2.58804505948e-09
4.50227496239e-10
-3.1090273001e-11
2.52537865728e-09
4.24484066762e-10
-2.61379960891e-11
2.4467150444e-09
3.93823267579e-10
-1.66713345208e-11
2.35544313183e-09
3.59920595919e-10
2.24959896541e-09
3.2460708052e-10
-1.84629476649e-13
4.37290492293e-11
3.8520733951e-09
8.2179474517e-10
-2.87290421766e-13
7.37103422503e-11
4.01873549984e-09
9.07812111258e-10
8.79752183868e-11
4.16339223623e-09
9.89973029844e-10
8.7110615498e-11
4.28632971337e-09
1.06394143449e-09
7.27661414695e-11
4.38379610699e-09
1.12579488626e-09
4.79147735277e-11
4.45464497909e-09
1.17242804554e-09
1.63910667537e-11
4.49910539152e-09
1.20183163921e-09
-1.7402139484e-11
4.51605634205e-09
1.21237315609e-09
-4.88901687994e-11
4.49924854606e-09
1.20183093022e-09
-7.3671730354e-11
4.45492552771e-09
1.1724264348e-09
-8.79102126847e-11
4.38420554781e-09
1.12579157782e-09
-8.86367755743e-11
4.28683916599e-09
1.06393490912e-09
-7.42115214473e-11
4.16396175344e-09
9.8995944634e-10
-4.40847095943e-11
4.01926872922e-09
9.07776769134e-10
3.85240442996e-09
8.21695247032e-10
-4.80980066154e-13
6.63307105611e-11
4.93685571157e-09
1.19458139361e-09
-3.91467881739e-13
1.13025202163e-10
5.13242055486e-09
1.31791688317e-09
1.34940862312e-10
5.30367505332e-09
1.43520696072e-09
1.33698472879e-10
5.44674906499e-09
1.54045108495e-09
1.11694532384e-10
5.55953875895e-09
1.62821313858e-09
7.35483728356e-11
5.64095111519e-09
1.6942373331e-09
2.51695731304e-11
5.69195183545e-09
1.735794738e-09
-2.66674334141e-11
5.71150994194e-09
1.75066377901e-09
-7.49945797822e-11
5.69214784999e-09
1.73579325336e-09
-1.13039146121e-10
5.64133492686e-09
1.69423421556e-09
-1.34891397324e-10
5.56009704982e-09
1.62820740706e-09
-1.35936373008e-10
5.44744727545e-09
1.54044075726e-09
-1.13795584913e-10
5.30445669505e-09
1.43518685258e-09
-6.68842696882e-11
5.13316369393e-09
1.31786700122e-09
4.93734669982e-09
1.19444518494e-09
-7.16708423391e-13
8.56914368447e-11
5.60282652259e-09
1.47156548462e-09
-4.60892550739e-13
1.45707993684e-10
5.80497278752e-09
1.62271869169e-09
1.73957666076e-10
5.98326428799e-09
1.76581314879e-09
1.72256627106e-10
6.12967918765e-09
1.89378673484e-09
1.43855028972e-10
6.24424703293e-09
2.00021777137e-09
9.46961916215e-11
6.32628926167e-09
2.08012132159e-09
3.24104219602e-11
6.37756758131e-09
2.13032484182e-09
-3.42972746726e-11
6.39736194008e-09
2.14824713639e-09
-9.65189358839e-11
6.37778953142e-09
2.13032328125e-09
-1.45551545864e-10
6.32672424884e-09
2.08011819445e-09
-1.7376679595e-10
6.24487801674e-09
2.00021211603e-09
-1.75228328128e-10
6.13046980649e-09
1.89377648977e-09
-1.46706987131e-10
5.98415500301e-09
1.76579281769e-09
-8.64239487017e-11
5.80583101694e-09
1.62266656588e-09
5.60342871625e-09
1.47141969612e-09
-9.18002652466e-13
1.01952289604e-10
5.93370396705e-09
1.66791297823e-09
-5.03072116017e-13
1.72717695796e-10
6.12716266333e-09
1.83932008964e-09
2.06149538112e-10
6.29891878031e-09
2.00080615325e-09
2.03993216126e-10
6.43750859522e-09
2.14472371884e-09
1.70287671932e-10
6.54495914031e-09
2.26408571981e-09
1.12060060604e-10
6.62121220889e-09
2.35350671037e-09
3.83549027851e-11
6.66873576751e-09
2.40958288221e-09
-4.05516650795e-11
6.68722042034e-09
2.42955118285e-09
-1.14183390041e-10
6.66896167207e-09
2.40958176953e-09
-1.72266836619e-10
6.62165465563e-09
2.35350472686e-09
-2.05761341676e-10
6.54560030597e-09
2.26408216514e-09
-2.07649834375e-10
6.43831310754e-09
2.1447169018e-09
-1.73915812689e-10
6.29983270514e-09
2.00079120849e-09
-1.02851066596e-10
6.12805079198e-09
1.83927556278e-09
5.93435226447e-09
1.6677763168e-09
-1.0950445715e-12
1.15495834175e-10
6.00054310513e-09
1.7959010414e-09
-5.24382144436e-13
1.94856791011e-10
6.17556116794e-09
1.98149986966e-09
2.32405139191e-10
6.33204459527e-09
2.15546182609e-09
2.29779041331e-10
6.45598663199e-09
2.30992381618e-09
1.91713431564e-10
6.55101954777e-09
2.43766416086e-09
1.26113425655e-10
6.61776316813e-09
2.53315044146e-09
4.31625444384e-11
6.65921442961e-09
2.59290754017e-09
-4.56092692532e-11
6.67547877267e-09
2.61412568537e-09
-1.28480316024e-10
6.65942422054e-09
2.59290710744e-09
-1.93923854338e-10
6.61817427963e-09
2.53315016246e-09
-2.31762334822e-10
6.5516148443e-09
2.43766383654e-09
-2.34102977335e-10
6.45673517e-09
2.30992255654e-09
-1.96235647642e-10
6.33290096327e-09
2.15545608689e-09
-1.16555054279e-10
6.17640329e-09
1.98146919779e-09
6.00117338118e-09
1.79578324302e-09
-1.25371739786e-12
1.26720579835e-10
5.86367999217e-09
1.86585576428e-09
-5.3035622052e-13
2.12827711882e-10
6.01487989828e-09
2.06081752515e-09
2.5350780698e-10
6.1511559174e-09
2.24257870393e-09
2.50371349644e-10
6.25693324329e-09
2.40333902124e-09
2.08754037109e-10
6.33696382807e-09
2.53589431237e-09
1.37261745115e-10
6.39249950359e-09
2.6347541603e-09
4.69686652771e-11
6.42684391101e-09
2.69648692593e-09
-4.96232367053e-11
6.44045703473e-09
2.71833489192e-09
-1.39832475469e-10
6.42702206918e-09
2.69648707033e-09
-2.11160947055e-10
6.39284872638e-09
2.63475545492e-09
-2.52542008692e-10
6.33746921545e-09
2.5358972672e-09
-2.55384208769e-10
6.25757047291e-09
2.40334389406e-09
-2.14377155843e-10
6.15189121165e-09
2.24258367509e-09
-1.27939595568e-10
6.0156069077e-09
2.0608031104e-09
5.86422893078e-09
1.86576023708e-09
-1.40137646927e-12
1.35904978275e-10
5.57427159685e-09
1.88667938495e-09
-5.24273831598e-13
2.27159629251e-10
5.699628866e-09
2.08721717362e-09
2.70091960774e-10
5.81367138824e-09
2.27315097904e-09
2.6640252105e-10
5.90019777073e-09
2.43694227757e-09
2.21937903967e-10
5.96461981071e-09
2.57158771442e-09
1.45851848987e-10
6.00870436154e-09
2.67177304857e-09
4.98890218013e-11
6.03582793364e-09
2.73418731992e-09
-5.27251990034e-11
6.04670585756e-09
2.75619363811e-09
-1.48602242044e-10
6.03596255239e-09
2.73418756331e-09
-2.24521314478e-10
6.00896798908e-09
2.67177500581e-09
-2.68746165777e-10
5.96500128691e-09
2.57159275576e-09
-2.72139009551e-10
5.90068001829e-09
2.43695204375e-09
-2.28878148229e-10
5.81423386973e-09
2.27316553427e-09
-1.37287061652e-10
5.70018361762e-09
2.08721759707e-09
5.57468222147e-09
1.88660464536e-09
-1.54250995449e-12
1.43235047237e-10
5.17550363624e-09
1.8661615542e-09
-5.09536906318e-13
2.38243942246e-10
5.27543461294e-09
2.06937715559e-09
2.8266487172e-10
5.36732184321e-09
2.25674962223e-09
2.78398684362e-10
5.4352115922e-09
2.42113190801e-09
2.31713837471e-10
5.48479115249e-09
2.55584683126e-09
1.52180234268e-10
5.51817358699e-09
2.65584680189e-09
5.20226204061e-11
5.53858757095e-09
2.71799014454e-09
-5.50284465609e-11
5.54688490177e-09
2.73980662533e-09
-1.55100136947e-10
5.53867085854e-09
2.7179896063e-09
-2.34466835244e-10
5.51833618271e-09
2.65584766771e-09
-2.80912898693e-10
5.4850256812e-09
2.55585140911e-09
-2.84884380528e-10
5.43550915767e-09
2.42114334688e-09
-2.40136853371e-10
5.36767407186e-09
2.25676987372e-09
-1.44786729666e-10
5.27577291453e-09
2.06938738091e-09
5.17572553322e-09
1.86610213322e-09
-1.68168536625e-12
1.48834132091e-10
4.70356753069e-09
1.81117159067e-09
-4.88776565879e-13
2.46374695774e-10
4.78012590376e-09
2.01492527323e-09
2.91646349301e-10
4.85133122658e-09
2.20175508979e-09
2.86814312618e-10
4.90230493017e-09
2.36497531263e-09
2.38474875795e-10
4.9386982197e-09
2.49831508077e-09
1.56507263424e-10
4.9627578122e-09
2.59705323793e-09
5.34563152453e-11
4.9773642824e-09
2.65824760641e-09
-5.66322688703e-11
4.98338810808e-09
2.67962493277e-09
-1.59598530228e-10
4.97739252688e-09
2.65824499282e-09
-2.41401818687e-10
4.96281177769e-09
2.59705038367e-09
-2.89506310039e-10
4.93877392836e-09
2.49831522503e-09
-2.9404809358e-10
4.90240045135e-09
2.36498314721e-09
-2.48452471017e-10
4.85144954596e-09
2.2017744152e-09
-1.50565330945e-10
4.78021611783e-09
2.01493698106e-09
4.7035628088e-09
1.81111869101e-09
-1.82265118561e-12
1.52766633783e-10
4.18851670549e-09
1.72778830218e-09
-4.64270627411e-13
2.51784431616e-10
4.24463868446e-09
1.93058835443e-09
2.9742041976e-10
4.2974206838e-09
2.11552103555e-09
2.92074313545e-10
4.33385970086e-09
2.27638045647e-09
2.42585038225e-10
4.35926352509e-09
2.40735280694e-09
1.59070257922e-10
4.37573925824e-09
2.50408748267e-09
5.42689900352e-11
4.38565455715e-09
2.56386418947e-09
-5.76256068617e-11
4.38979719653e-09
2.58462850766e-09
-1.62344311587e-10
4.38562799531e-09
2.56385782239e-09
-2.45698847997e-10
4.37568433456e-09
2.50407744893e-09
-2.94958530495e-10
4.35917880428e-09
2.40734316924e-09
-3.00019203421e-10
4.3337483377e-09
2.27637741623e-09
-2.5406064693e-10
4.29729421735e-09
2.11553029393e-09
-1.54688585452e-10
4.24446211953e-09
1.93059049686e-09
4.18825933528e-09
1.72773040373e-09
-1.96891654817e-12
1.55034463584e-10
3.65502099173e-09
1.62139995845e-09
-4.362554218e-13
2.54737814872e-10
3.69369690611e-09
1.82231542084e-09
3.00444799666e-10
3.73065575737e-09
2.00451097474e-09
2.94647092782e-10
3.75535666846e-09
2.16223843849e-09
2.44415655642e-10
3.77228176674e-09
2.29018472871e-09
1.60099876503e-10
3.78307798478e-09
2.3844147998e-09
5.45358150327e-11
3.78949579976e-09
2.44245393069e-09
-5.8090457277e-11
3.79218590803e-09
2.4624852762e-09
-1.63574464904e-10
3.78941763467e-09
2.4424418558e-09
-2.47734235669e-10
3.78292081804e-09
2.38439349408e-09
-2.9774123865e-10
3.77204443296e-09
2.29015883128e-09
-3.03256879497e-10
3.75504478475e-09
2.16221554198e-09
-2.57225602894e-10
3.73028560092e-09
2.00449898249e-09
-1.57156842328e-10
3.693247104e-09
1.82229525574e-09
3.65449645088e-09
1.62132390592e-09
-2.1230429329e-12
1.55742357915e-10
3.12285616236e-09
1.49679096312e-09
-4.05649639338e-13
2.55859280346e-10
3.14621705192e-09
1.69539540766e-09
3.01460334737e-10
3.17028816573e-09
1.87442254997e-09
2.95125417698e-10
3.18642768033e-09
2.02854765681e-09
2.44367072187e-10
3.1975221691e-09
2.15303022657e-09
1.59822195648e-10
3.20452899352e-09
2.24441072906e-09
5.43300494423e-11
3.20860942452e-09
2.30048885284e-09
-5.81028756419e-11
3.21026429819e-09
2.31970285254e-09
-1.63516484114e-10
3.20848572673e-09
2.30046909556e-09
-2.47908653522e-10
3.20428023918e-09
2.24437392064e-09
-2.9844541939e-10
3.19714713068e-09
2.15298112101e-09
-3.04498378042e-10
3.18593070213e-09
2.02849487841e-09
-2.58566672671e-10
3.16968615782e-09
1.87437680972e-09
-1.58068555835e-10
3.14549834562e-09
1.69534016372e-09
3.12206095283e-09
1.49668517776e-09
-2.27536041668e-12
1.55901887773e-10
2.60652600199e-09
1.35821824916e-09
-3.71900017296e-13
2.56682579333e-10
2.61584342679e-09
1.55457847874e-09
3.01548829249e-10
2.63099571605e-09
1.73028293749e-09
2.94105148726e-10
2.64199744433e-09
1.88049864154e-09
2.427554422e-10
2.64971812466e-09
2.00120225282e-09
1.58400491647e-10
2.65460066787e-09
2.08948028882e-09
5.3701454249e-11
2.6573580461e-09
2.14343349596e-09
-5.77097683549e-11
2.65835962481e-09
2.16176875794e-09
-1.6233031784e-10
2.65719495817e-09
2.14340455753e-09
-2.46532285087e-10
2.65427355037e-09
2.08942462623e-09
-2.9765902337e-10
2.64922512196e-09
2.00112398538e-09
-3.04815471304e-10
2.64133997498e-09
1.88040637637e-09
-2.59608336291e-10
2.63018513132e-09
1.73019039269e-09
-1.58426575182e-10
2.61487039035e-09
1.55447652501e-09
2.60547864895e-09
1.35807659497e-09
-2.43023837767e-12
1.60524269151e-10
1.20977429277e-09
-3.36820418215e-13
2.11143721587e-09
2.60786966372e-10
1.40444613302e-09
2.11306776546e-09
3.0260534613e-10
1.57659372853e-09
2.12463441719e-09
2.92675141759e-10
1.72256210904e-09
2.13332952304e-09
2.40288904702e-10
1.8391827159e-09
2.13950437079e-09
1.56257095451e-10
1.92412896264e-09
2.14357420939e-09
5.279804572e-11
1.97581309259e-09
2.14586287561e-09
-5.70508268971e-11
1.99321776654e-09
2.14654185368e-09
-1.60427821914e-10
1.97577513591e-09
2.14566492425e-09
-2.44300127992e-10
1.92405452697e-09
2.14317754409e-09
-2.96453936327e-10
1.83907454219e-09
2.13890830589e-09
-3.06084606131e-10
1.72242684582e-09
2.1325336187e-09
-2.63905401389e-10
1.57644689503e-09
2.12364218718e-09
-1.63218293913e-10
1.40428062119e-09
2.11187096202e-09
1.20961249821e-09
-2.57205297896e-12
2.11015510001e-09
-1.53982652187e-12
1.06843517326e-10
2.1927105584e-10
-8.04021418451e-15
-1.21091923497e-12
1.17415444168e-10
2.42058237455e-10
-6.77446760555e-13
1.29145502303e-10
2.64037962808e-10
-2.94889119711e-13
1.39986625789e-10
2.84023473445e-10
-8.71922235956e-14
1.49102100709e-10
3.008640571e-10
-2.4515665305e-14
1.55965695486e-10
3.13630006846e-10
-4.76909007586e-14
1.60271871613e-10
3.21706436433e-10
-9.98680106864e-14
1.61805419599e-10
3.24608046956e-10
-1.28892807988e-13
1.60266451643e-10
3.21701841456e-10
-7.68593975622e-14
1.55961893519e-10
3.13620812701e-10
1.22107548894e-13
1.49115076182e-10
3.00850209689e-10
5.09720487948e-13
1.40028274889e-10
2.84004653626e-10
1.0580985389e-12
1.29198916733e-10
2.64012933072e-10
1.41534198385e-12
1.17479209846e-10
2.42022498892e-10
1.06851752887e-10
2.19209670651e-10
-9.80365911576e-14
-1.26080954278e-12
3.06794670393e-10
6.22969251822e-10
-1.71016887258e-14
4.50330841952e-13
3.3471114968e-10
6.88610169749e-10
2.33161030641e-12
3.65140163533e-10
7.51919306999e-10
3.34831553591e-12
3.93291958572e-10
8.09484857617e-10
3.29532762962e-12
4.16859289466e-10
8.58005028703e-10
2.29552325654e-12
4.34527180553e-10
8.94797151884e-10
6.69813445536e-13
4.45588571333e-10
9.18064530644e-10
-1.17149844748e-12
4.49533461569e-10
9.26397845802e-10
-2.80736574961e-12
4.45584637312e-10
9.18051305123e-10
-3.8237994366e-12
4.34532641062e-10
8.9477060235e-10
-3.88565236044e-12
4.16900694923e-10
8.57964980075e-10
-2.84737598333e-12
3.93391960088e-10
8.09430371127e-10
-9.13548127826e-13
3.65276373228e-10
7.51847017929e-10
8.81559993296e-13
3.34855780444e-10
6.88507551752e-10
3.06831828255e-10
6.22803581956e-10
-2.98568897828e-13
1.23985415064e-12
5.34761957722e-10
9.65264476545e-10
-3.59282842377e-14
5.10021344361e-12
5.80440691189e-10
1.0681531901e-09
8.53206435571e-12
6.29543374008e-10
1.16720900596e-09
1.00295285199e-11
6.74955948786e-10
1.25717030681e-09
9.19157126423e-12
7.12892738432e-10
1.33293720379e-09
6.26962593107e-12
7.41259704268e-10
1.3903590912e-09
1.94584530703e-12
7.58992354385e-10
1.42664078875e-09
-2.86170590055e-12
7.6531790407e-10
1.43960245673e-09
-7.19178481754e-12
7.58996196204e-10
1.4266200263e-09
-1.01206201911e-11
7.41282995488e-10
1.39031742824e-09
-1.09485187951e-11
7.12965379015e-10
1.33287440251e-09
-9.39913288366e-12
6.75102452003e-10
1.25708506302e-09
-5.86845497009e-12
6.29741668384e-10
1.16709674004e-09
-1.86791798258e-12
5.80635169103e-10
1.0679965933e-09
5.34814490332e-10
9.6501960265e-10
-5.09238034884e-13
5.15304798931e-12
7.57219242836e-10
1.24387255642e-09
-5.53363516865e-14
1.17114571641e-11
8.1849210394e-10
1.37795023345e-09
1.67703896966e-11
8.83468677885e-10
1.50668432964e-09
1.85670320697e-11
9.43446105088e-10
1.62339295362e-09
1.65723625078e-11
9.93460586594e-10
1.72156602221e-09
1.12002792766e-11
1.03078228965e-09
1.79590134248e-09
3.54565817476e-12
1.0540817743e-09
1.84281589735e-09
-4.8967859253e-12
1.06239184061e-09
1.85953388863e-09
-1.25490836598e-11
1.05409582199e-09
1.84278885608e-09
-1.79098758836e-11
1.03082511924e-09
1.79584717305e-09
-1.98667985251e-11
9.93559491245e-10
1.72148460747e-09
-1.79825032505e-11
9.43621836756e-10
1.62328305794e-09
-1.2779830694e-11
8.83702685628e-10
1.50654122524e-09
-6.0297182241e-12
8.1871311341e-10
1.3777548176e-09
7.57279967329e-10
1.24357608116e-09
-7.29075006448e-13
9.9516866385e-12
9.52110905135e-10
1.46301979087e-09
-7.55881145373e-14
1.94588597105e-11
1.02552576512e-09
1.62263452166e-09
2.6104297081e-11
1.10215089092e-09
1.77535254672e-09
2.80100211627e-11
1.17268423716e-09
1.91348231817e-09
2.46163095636e-11
1.2313850713e-09
2.02948010694e-09
1.65317502226e-11
1.2751032465e-09
2.1172018497e-09
5.27737953995e-12
1.30235963628e-09
2.17248743208e-09
-7.06966443328e-12
1.31207576001e-09
2.19213644533e-09
-1.83103555771e-11
1.30238122689e-09
2.17245521497e-09
-2.6360846322e-11
1.27515910403e-09
2.11713750966e-09
-2.96847241379e-11
1.23149763169e-09
2.02938391104e-09
-2.7652942388e-11
1.17287017331e-09
1.91335361939e-09
-2.08211165978e-11
1.10239360092e-09
1.77518748409e-09
-1.10759299147e-11
1.02575246935e-09
1.62241401184e-09
9.52168887649e-10
1.46269361543e-09
-9.53767465101e-13
1.5160771051e-11
1.10618177619e-09
1.62664576838e-09
-9.62921090152e-14
2.76611376772e-11
1.18784174853e-09
1.80655845681e-09
3.57604695405e-11
1.27142378353e-09
1.977976367e-09
3.75964721597e-11
1.34810562022e-09
2.13257548711e-09
3.26754070264e-11
1.41176376697e-09
2.26213237966e-09
2.182983802e-11
1.45907660881e-09
2.35995354738e-09
6.99175569603e-12
1.48853150425e-09
2.42150250719e-09
-9.21919765839e-12
1.49902214531e-09
2.44331527557e-09
-2.4031092525e-11
1.4885566721e-09
2.42146588973e-09
-3.48182182862e-11
1.45913696115e-09
2.35988073626e-09
-3.96360443903e-11
1.41187620746e-09
2.26202432794e-09
-3.76360958535e-11
1.34828234077e-09
2.13243266816e-09
-2.93097655202e-11
1.27165135552e-09
1.97779661753e-09
-1.65315299949e-11
1.18804893918e-09
1.80632356542e-09
1.10622829964e-09
1.62630495417e-09
-1.17931395191e-12
2.03854280512e-11
1.21292504802e-09
1.73873297992e-09
-1.15926060491e-13
3.57662258653e-11
1.2989923941e-09
1.93417642794e-09
4.51204447101e-11
1.38504504637e-09
2.11950089074e-09
4.6727111226e-11
1.46367236366e-09
2.28608153511e-09
4.02482689068e-11
1.52873152988e-09
2.42533377455e-09
2.67619197995e-11
1.57697109912e-09
2.53027850774e-09
8.57480374577e-12
1.6069525539e-09
2.59618411096e-09
-1.12233528814e-11
1.61761634214e-09
2.61946741642e-09
-2.93718460537e-11
1.60697575689e-09
2.59614342971e-09
-4.27759586984e-11
1.57702483105e-09
2.53019804851e-09
-4.91193882139e-11
1.5288280816e-09
2.42521548083e-09
-4.73130892836e-11
1.46382036214e-09
2.28592749345e-09
-3.76945450665e-11
1.38523587749e-09
2.11931124732e-09
-2.19997046848e-11
1.29915774955e-09
1.93393409918e-09
1.21294535794e-09
1.73838699066e-09
-1.40394656634e-12
2.5322425631e-11
1.27088727827e-09
1.80343203234e-09
-1.33564471624e-13
4.33519490586e-11
1.35790768846e-09
2.01017625995e-09
5.37186264878e-11
1.44255641008e-09
2.2051822218e-09
5.49617400539e-11
1.51949245561e-09
2.3798006149e-09
4.69751025941e-11
1.58287742036e-09
2.52535896116e-09
3.1093030985e-11
1.62973977802e-09
2.63482012381e-09
9.9462057036e-12
1.65880647914e-09
2.70341340558e-09
-1.29974893608e-11
1.66912481025e-09
2.72756068743e-09
-3.4094136437e-11
1.65882257951e-09
2.70336847484e-09
-4.9871972936e-11
1.6297768599e-09
2.63473177945e-09
-5.76937533561e-11
1.58294367112e-09
2.52523041513e-09
-5.62182460155e-11
1.51959380768e-09
2.37963599451e-09
-4.55538791491e-11
1.44268832006e-09
2.20498441433e-09
-2.71763694908e-11
1.35800873588e-09
2.00992927034e-09
1.27085725373e-09
1.80308531235e-09
-1.62555888654e-12
2.97562168247e-11
1.28227975552e-09
1.82507614585e-09
-1.49313473674e-13
5.01140107656e-11
1.36736381336e-09
2.03948001345e-09
6.12298743732e-11
1.44754450487e-09
2.24056539822e-09
6.20082934096e-11
1.51990093022e-09
2.41987277351e-09
5.26286921073e-11
1.57917342108e-09
2.56886456075e-09
3.46801425302e-11
1.62283687367e-09
2.68063459057e-09
1.10578568089e-11
1.64985207203e-09
2.75050303528e-09
-1.44914080512e-11
1.65941566544e-09
2.77500057987e-09
-3.80532613125e-11
1.64985620423e-09
2.75045311815e-09
-5.58781308723e-11
1.6228479175e-09
2.68053698943e-09
-6.50668834586e-11
1.57919610079e-09
2.56872398267e-09
-6.40269143582e-11
1.51993937205e-09
2.41969574043e-09
-5.25831301808e-11
1.44759755836e-09
2.2403578597e-09
-3.18463166171e-11
1.36737715129e-09
2.03922695212e-09
1.28217603389e-09
1.82472858086e-09
-1.84243547851e-12
3.35545798002e-11
1.25184667667e-09
1.80813791654e-09
-1.62409888622e-13
5.58586443951e-11
1.33273344478e-09
2.02718122008e-09
6.74653522364e-11
1.40622942151e-09
2.23139335139e-09
6.77192929736e-11
1.47190446159e-09
2.41265212593e-09
5.71112676222e-11
1.52530644373e-09
2.56272794602e-09
3.74697906746e-11
1.56447110013e-09
2.67499986424e-09
1.18933209006e-11
1.58862915036e-09
2.74498630915e-09
-1.56876113314e-11
1.59714832527e-09
2.76941247111e-09
-4.11947702201e-11
1.58861754224e-09
2.74493015768e-09
-6.06958135162e-11
1.56444877035e-09
2.67489056133e-09
-7.10904579236e-11
1.52527490967e-09
2.56257184053e-09
-7.05494273454e-11
1.47186571624e-09
2.41245841406e-09
-5.85876588672e-11
1.4061845884e-09
2.2311713377e-09
-3.58755599159e-11
1.33263514591e-09
2.02691684121e-09
1.25163981264e-09
1.80778535349e-09
-2.05338203498e-12
3.6659688546e-11
1.18592403169e-09
1.75715885181e-09
-1.73598885571e-13
6.05033046417e-11
1.26096047898e-09
1.97845783119e-09
7.23811059012e-11
1.3263174516e-09
2.18349386869e-09
7.21033891799e-11
1.38394332934e-09
2.3645598971e-09
6.04639297849e-11
1.43037474797e-09
2.51386641388e-09
3.95035537194e-11
1.4642543758e-09
2.62520750112e-09
1.24700789336e-11
1.48507836948e-09
2.69439158423e-09
-1.66019601195e-11
1.49238189358e-09
2.7184099576e-09
-4.35584527362e-11
1.48504800656e-09
2.69432757076e-09
-6.43640491526e-11
1.46419267454e-09
2.62508321648e-09
-7.57708608032e-11
1.43028036374e-09
2.51368987584e-09
-7.57392735414e-11
1.38381571075e-09
2.36434317148e-09
-6.34821590874e-11
1.32615830063e-09
2.18324998279e-09
-3.92042726878e-11
1.26072793493e-09
1.97817389785e-09
1.18558646053e-09
1.75679389779e-09
-2.25658345467e-12
3.90826733172e-11
1.09169393156e-09
1.67667097794e-09
-1.82705623188e-13
6.40964084591e-11
1.15972307164e-09
1.89848747661e-09
7.61165024073e-11
1.21608178655e-09
2.10267320215e-09
7.53638446374e-11
1.26493593594e-09
2.28194525172e-09
6.28934729573e-11
1.30390949363e-09
2.42906774273e-09
4.09331377442e-11
1.33220565213e-09
2.53837144166e-09
1.28442618539e-11
1.34953011163e-09
2.606038354e-09
-1.72873528071e-11
1.35555984924e-09
2.62938673943e-09
-4.5292439158e-11
1.34947815623e-09
2.60596473006e-09
-6.70852542979e-11
1.33209959556e-09
2.53822854637e-09
-7.93062298573e-11
1.30374473602e-09
2.42886509855e-09
-7.97302478584e-11
1.26470931519e-09
2.2816978393e-09
-6.73096580682e-11
1.21579341202e-09
2.10239834794e-09
-4.18381528613e-11
1.15933627853e-09
1.89817434825e-09
1.09119905628e-09
1.67628462025e-09
-2.44991378236e-12
4.09424023417e-11
9.76557423594e-10
1.57112138662e-09
-1.89547759826e-13
6.69207780771e-11
1.03670934604e-09
1.79238573048e-09
7.91101153359e-11
1.08363938715e-09
1.99462858113e-09
7.79880337584e-11
1.12359939134e-09
2.17095942764e-09
6.48282596696e-11
1.15521330139e-09
2.31483848284e-09
4.20482975026e-11
1.17808516096e-09
2.42126337229e-09
1.31198261043e-11
1.19203258639e-09
2.48686716654e-09
-1.78424212648e-11
1.19683209861e-09
2.50934505696e-09
-4.66802896891e-11
1.19195591969e-09
2.48678250049e-09
-6.92809128239e-11
1.17792833661e-09
2.4210987349e-09
-8.21756275317e-11
1.15497031839e-09
2.31460442891e-09
-8.29521280242e-11
1.12326333543e-09
2.17067351043e-09
-7.03439214955e-11
1.08320813947e-09
1.99431321905e-09
-4.38878662987e-11
1.03614816609e-09
1.79203471844e-09
9.75878151083e-10
1.57070724979e-09
-2.62289792612e-12
4.25516018143e-11
8.47564965543e-10
1.44480160033e-09
-1.93914561956e-13
6.96046847322e-11
8.99003054556e-10
1.66519156928e-09
8.21996972072e-11
9.3642290577e-10
1.86486350296e-09
8.08066179301e-11
9.68031395155e-10
2.03741701699e-09
6.69495086034e-11
9.92977840147e-10
2.17725217718e-09
4.32931923024e-11
1.01101383601e-09
2.28016477783e-09
1.3452538146e-11
1.02196578335e-09
2.34329765226e-09
-1.84155988832e-11
1.02567023146e-09
2.36475616692e-09
-4.81586216447e-11
1.02185930548e-09
2.34320150926e-09
-7.16226384341e-11
1.0107977957e-09
2.27997714564e-09
-8.5199267329e-11
9.92645380508e-10
2.17698374963e-09
-8.6230473249e-11
9.67574573594e-10
2.03708661999e-09
-7.32030900303e-11
9.35835406748e-10
1.86449874282e-09
-4.5657611438e-11
8.98249558349e-10
1.66479646304e-09
8.46683654774e-10
1.44436084137e-09
-2.77766360966e-12
4.16858480887e-11
1.30172914752e-09
-1.99145603163e-13
7.14074205248e-10
7.18564880569e-11
1.52186502939e-09
7.51376635539e-10
8.58632639747e-11
1.7183992778e-09
7.80572654395e-10
8.45821890914e-11
1.88650759558e-09
8.05329124292e-10
7.0022167145e-11
2.02173384114e-09
8.249475164e-10
4.52236395307e-11
2.12072303826e-09
8.391789912e-10
1.40473839352e-11
2.18113192369e-09
8.47784473992e-10
-1.9204106622e-11
2.20148019191e-09
8.5062094489e-10
-5.02739908021e-11
2.18102626673e-09
8.4764056992e-10
-7.48650383503e-11
2.12051605372e-09
8.38888996231e-10
-8.91252973834e-11
2.0214353712e-09
8.24506917651e-10
-9.00267586185e-11
1.88613521371e-09
8.04731154891e-10
-7.55719681749e-11
1.71798395139e-09
7.79809554403e-10
-4.49041787925e-11
1.52141415663e-09
7.50416643804e-10
1.30128963611e-09
-2.89281834033e-12
7.12965944199e-10
2.03155177541e-12
-1.45071011507e-11
2.31681861494e-10
-4.55337772581e-15
3.3645664634e-12
-1.62805537156e-11
2.56942403642e-10
4.08197228593e-12
-1.81274563643e-11
2.81374794985e-10
4.1248914996e-12
-1.97334589912e-11
3.0366410608e-10
3.49397029735e-12
-2.1076683204e-11
3.22506414747e-10
2.30528170125e-12
-2.20854434694e-11
3.36828209012e-10
7.51041036695e-13
-2.27140433533e-11
3.45902195891e-10
-9.30586380147e-13
-2.2930910147e-11
3.49157755839e-10
-2.47677391709e-12
-2.26994175118e-11
3.45892656577e-10
-3.65183896021e-12
-2.20625120554e-11
3.36809275219e-10
-4.2702379709e-12
-2.10548180897e-11
3.22478283806e-10
-4.22087994787e-12
-1.97140681839e-11
3.0362685393e-10
-3.48539994041e-12
-1.80909324811e-11
2.81327974003e-10
-2.13538347285e-12
-1.62487729144e-11
2.56882833928e-10
-1.44802480982e-11
2.31597824751e-10
-7.95517341904e-14
4.90333528982e-12
-2.11495085942e-11
6.24608011693e-10
-5.45496331471e-15
8.39742945364e-12
-2.3255711587e-11
6.91983153518e-10
1.03286670174e-11
-2.52863789794e-11
7.57044358215e-10
1.05078683744e-11
-2.68343044489e-11
8.16315283647e-10
8.93643925035e-12
-2.79798669759e-11
8.66370935122e-10
5.89934871316e-12
-2.87616414617e-11
9.04391646212e-10
1.89421245316e-12
-2.92175765509e-11
9.28461155058e-10
-2.44816401688e-12
-2.93667715035e-11
9.37077174892e-10
-6.43277480798e-12
-2.91837427452e-11
9.28432889814e-10
-9.43450221035e-12
-2.87045934378e-11
9.04335635826e-10
-1.09688693457e-11
-2.79161491296e-11
8.66287891606e-10
-1.07572834094e-11
-2.67693521752e-11
8.16205659265e-10
-8.77561339671e-12
-2.51975096823e-11
7.56907114963e-10
-5.22051049761e-12
-2.31671128175e-11
6.91809904963e-10
-2.10814720881e-11
6.24374071184e-10
-2.45947811071e-13
6.85411537239e-12
-1.15068462835e-11
9.48680187484e-10
-5.92049291475e-15
1.19596516708e-11
-1.17080637572e-11
1.05140054902e-09
1.4839956817e-11
-1.14583986906e-11
1.15041121963e-09
1.51665725304e-11
-1.05809784982e-11
1.24050477108e-09
1.29307442391e-11
-9.44255961303e-12
1.31653611023e-09
8.53186531725e-12
-8.3707153806e-12
1.37425873519e-09
2.69609781774e-12
-7.6138281945e-12
1.41077006997e-09
-3.63996741269e-12
-7.32768268311e-12
1.42380788246e-09
-9.44492077451e-12
-7.56470163922e-12
1.4107244215e-09
-1.37894597341e-11
-8.28490274315e-12
1.37416837104e-09
-1.59622927809e-11
-9.33975745055e-12
1.31640240172e-09
-1.55700985671e-11
-1.04697850954e-11
1.24032891362e-09
-1.26030900688e-11
-1.13211581798e-11
1.1501925036e-09
-7.39092485336e-12
-1.15679297768e-11
1.05112827962e-09
-1.14051671305e-11
9.48322381231e-10
-4.22405458096e-13
8.21085573154e-12
1.09087538773e-11
1.21316635892e-09
-5.45684390731e-15
1.45180335854e-11
1.41637590254e-11
1.34568799828e-09
1.81435126763e-11
1.84013773307e-11
1.47311988321e-09
1.86168418784e-11
2.33482170461e-11
1.58890933632e-09
1.59053636232e-11
2.82049709782e-11
1.68653889764e-09
1.04856083247e-11
3.22416168183e-11
1.76061289572e-09
3.25708143524e-12
3.49168964134e-11
1.80742228698e-09
-4.6010403637e-12
3.58854358362e-11
1.82409581505e-09
-1.17898622997e-11
3.49769337923e-11
1.80736097839e-09
-1.71378477717e-11
3.23497662724e-11
1.76049168335e-09
-1.97594589698e-11
2.8342334142e-11
1.68635998432e-09
-1.91846149977e-11
2.35028074918e-11
1.58867509331e-09
-1.54329877482e-11
1.85803229429e-11
1.47283095382e-09
-8.9760899279e-12
1.43428936575e-11
1.34533398861e-09
1.10413244844e-11
1.21271337735e-09
-6.07965218312e-13
9.19835620917e-12
4.22940819983e-11
1.42236480203e-09
-5.4323655961e-15
1.63993074484e-11
4.98719670882e-11
1.57965807391e-09
2.05894943496e-11
5.90215366486e-11
1.73047234152e-09
2.11832159372e-11
6.88990430218e-11
1.86726611861e-09
1.81193523702e-11
7.81942590288e-11
1.98247436139e-09
1.19262820997e-11
8.57368469652e-11
2.06981482033e-09
3.63432284991e-12
9.06683723049e-11
2.12494605049e-09
-5.3875950722e-12
9.24360102712e-11
2.14453221593e-09
-1.36313511706e-11
9.07360086147e-11
2.1248707363e-09
-1.97352868201e-11
8.58610828613e-11
2.06966616045e-09
-2.26817044778e-11
7.83570965719e-11
1.98225562808e-09
-2.19494748274e-11
6.90862154193e-11
1.86698135587e-09
-1.75918739107e-11
5.92323620699e-11
1.73012450398e-09
-1.01987669089e-11
5.00757828673e-11
1.57923858544e-09
4.24512450802e-11
1.4218404873e-09
-8.01011811675e-13
9.98856712997e-12
7.85975904073e-11
1.58029711102e-09
-5.9256873401e-15
1.78572254068e-11
9.07138969705e-11
1.75778941681e-09