/*--------------------------------*- C++ -*----------------------------------*\
  =========                 |
  \\      /  F ield         | OpenFOAM: The Open Source CFD Toolbox
   \\    /   O peration     | Website:  https://openfoam.org
    \\  /    A nd           | Version:  7
     \\/     M anipulation  |
\*---------------------------------------------------------------------------*/
FoamFile
{
    version     2.0;
    format      ascii;
    class       surfaceScalarField;
    location    "1.86";
    object      phi;
}
// * * * * * * * * * * * * * * * * * * * * * * * * * * * * * * * * * * * * * //

dimensions      [0 3 -1 0 0 0 0];

internalField   nonuniform List<scalar> 
65775
(
-1.13915941859e-11
-4.12147086848e-09
-6.19142847099e-11
1.1596025548e-14
-2.05166849397e-11
-4.33704699891e-09
-6.58277657658e-11
-2.48865217798e-11
-4.53437471808e-09
-6.86365540323e-11
-2.43532608803e-11
-4.70550171699e-09
-7.06393259026e-11
-2.02961799844e-11
-4.84341459102e-09
-7.2004873484e-11
-1.36515253844e-11
-4.94498455614e-09
-7.28719290944e-11
-5.44383928444e-12
-5.00883533542e-09
-7.33767357399e-11
3.32874055319e-12
-5.03265810927e-09
-7.35839748641e-11
1.15791054646e-11
-5.00882635927e-09
-7.33968845465e-11
1.83092236844e-11
-4.94496288119e-09
-7.29124977077e-11
2.2489782585e-11
-4.8433751377e-09
-7.20662182076e-11
2.31784188742e-11
-4.70544177633e-09
-7.07221769988e-11
1.89867179163e-11
-4.53430606817e-09
-6.87422968923e-11
1.00600859915e-11
-4.33698458586e-09
-6.59592377865e-11
-4.12150857148e-09
-6.20752337427e-11
-1.03633761887e-12
-4.08112710094e-11
-7.70934362503e-09
-3.67454421006e-10
-2.69655346405e-13
-7.2060122927e-11
-8.10917927051e-09
-4.0946638252e-10
-8.55943092973e-11
-8.47975957863e-09
-4.48103629445e-10
-8.40990019698e-11
-8.79858148981e-09
-4.82262368153e-10
-7.02414759918e-11
-9.05497263927e-09
-5.1058171956e-10
-4.72410242966e-11
-9.24318049039e-09
-5.31851817275e-10
-1.85797597787e-11
-9.36126015357e-09
-5.45250624234e-10
1.20125369672e-11
-9.4052046944e-09
-5.50072908097e-10
4.08283753352e-11
-9.36130198365e-09
-5.45303227601e-10
6.41410393725e-11
-9.24325781879e-09
-5.31958630945e-10
7.84624437247e-11
-9.05506922e-09
-5.10744842064e-10
8.05492290343e-11
-8.79867293833e-09
-4.82485510637e-10
6.76956954751e-11
-8.47984029817e-09
-4.48392727129e-10
3.71935705947e-11
-8.1092798827e-09
-4.09831286393e-10
-7.70960256898e-09
-3.67904658285e-10
-3.06670834903e-12
-7.75998253424e-11
-1.06513506551e-08
-7.78250792111e-10
-1.00206900095e-13
-1.30889924374e-10
-1.1193221237e-08
-8.76211169129e-10
-1.53955718501e-10
-1.16949592222e-08
-9.68223754817e-10
-1.51067967499e-10
-1.21227685367e-08
-1.05063742125e-09
-1.26081967028e-10
-1.24654774863e-08
-1.11956891849e-09
-8.44304770609e-11
-1.27159853148e-08
-1.17164545588e-09
-3.2378100909e-11
-1.28727741793e-08
-1.20449933558e-09
2.31625905842e-11
-1.29310464395e-08
-1.21623709306e-09
7.5398171952e-11
-1.28728663883e-08
-1.20459098053e-09
1.17417907839e-10
-1.27161593707e-08
-1.17183008041e-09
1.42951323614e-10
-1.24657093419e-08
-1.11984762301e-09
1.46549007423e-10
-1.21230262355e-08
-1.05101261234e-09
1.2432714684e-10
-1.16952243383e-08
-9.68700471233e-10
7.20183981441e-11
-1.11935456627e-08
-8.76800453258e-10
-1.06518755666e-08
-7.78964292107e-10
-4.5717167654e-12
-1.18289467911e-10
-1.28985242837e-08
-1.2340230681e-09
-3.12577028147e-14
-1.94406311423e-10
-1.35366227949e-08
-1.39476915398e-09
-2.27775213317e-10
-1.41213801983e-08
-1.546225023e-09
-2.23335548814e-10
-1.46153261582e-08
-1.68195521989e-09
-1.8635947813e-10
-1.50089551885e-08
-1.79542038361e-09
-1.24447587694e-10
-1.52954080351e-08
-1.88105973681e-09
-4.68881497673e-11
-1.54742667208e-08
-1.93499278232e-09
3.59003096321e-11
-1.55407184303e-08
-1.95417846841e-09
1.13656825106e-10
-1.54743985528e-08
-1.93511036233e-09
1.75965320533e-10
-1.52956604401e-08
-1.8812964294e-09
2.13535077835e-10
-1.50092983335e-08
-1.7957772129e-09
2.18756338927e-10
-1.46157237272e-08
-1.68243431739e-09
1.86336851676e-10
-1.41218095225e-08
-1.54683120252e-09
1.11344270722e-10
-1.35371616875e-08
-1.39551465766e-09
-1.28993115293e-08
-1.23492212847e-09
-5.69493127142e-12
-1.5990142916e-10
-1.4453279698e-08
-1.68640510138e-09
-7.85020594076e-15
-2.59712577326e-10
-1.51437496822e-08
-1.90805621616e-09
-3.0386535595e-10
-1.57665949653e-08
-2.11612629838e-09
-2.97819131451e-10
-1.62876892773e-08
-2.30185609042e-09
-2.48419319648e-10
-1.67005525243e-08
-2.45653370783e-09
-1.65498272826e-10
-1.69997495857e-08
-2.5729053855e-09
-6.14802442856e-11
-1.71861720223e-08
-2.64598724497e-09
4.95785105321e-11
-1.72554552832e-08
-2.67189764158e-09
1.53791563056e-10
-1.71863353695e-08
-2.64611958512e-09
2.37107016151e-10
-1.70000650117e-08
-2.5731720826e-09
2.87102125448e-10
-1.67009913046e-08
-2.45693588918e-09
2.9394185674e-10
-1.6288217103e-08
-2.30239584773e-09
2.50768155226e-10
-1.5767189889e-08
-2.11680815377e-09
1.52125661257e-10
-1.51444960926e-08
-1.90889321098e-09
-1.44543036573e-08
-1.68741398748e-09
-6.4342279003e-12
-2.00182004804e-10
-1.53599209965e-08
-2.09579684478e-09
-6.45301926783e-15
-3.24092560512e-10
-1.60648264295e-08
-2.37074421013e-09
-3.79192202594e-10
-1.66893225303e-08
-2.62718745194e-09
-3.7158324164e-10
-1.72067719592e-08
-2.85483018459e-09
-3.09793705974e-10
-1.76143902984e-08
-3.04351541912e-09
-2.05965676214e-10
-1.79087366104e-08
-3.18493767037e-09
-7.56635962103e-11
-1.80918288174e-08
-3.27348331463e-09
6.34659424524e-11
-1.81599022017e-08
-3.30478164981e-09
1.93953439897e-10
-1.80920097349e-08
-3.27362197374e-09
2.98157581984e-10
-1.79090892862e-08
-3.18521814643e-09
3.60518799039e-10
-1.76148893115e-08
-3.04393877497e-09
3.68896227701e-10
-1.72073884827e-08
-2.85539789891e-09
3.14755845942e-10
-1.66900381172e-08
-2.62790296115e-09
1.91993772857e-10
-1.60657318785e-08
-2.37162063352e-09
-1.5361142109e-08
-2.0968529208e-09
-6.85206793004e-12
-2.37865449266e-10
-1.56901375531e-08
-2.43608811244e-09
-1.45547030089e-14
-3.85622809633e-10
-1.63791044363e-08
-2.75441714027e-09
-4.51545130545e-10
-1.69786663327e-08
-3.04924385506e-09
-4.42506504956e-10
-1.7470727349e-08
-3.30949910802e-09
-3.68741681316e-10
-1.78562992809e-08
-3.52423768887e-09
-2.44743855212e-10
-1.81339677361e-08
-3.68462388875e-09
-8.91394212469e-11
-1.83064656755e-08
-3.78476011289e-09
7.69934209054e-11
-1.83705994424e-08
-3.82005089987e-09
2.32773313717e-10
-1.83066567073e-08
-3.78490243212e-09
3.57127447872e-10
-1.81343437302e-08
-3.68491137384e-09
4.31435185049e-10
-1.7856841036e-08
-3.52467051215e-09
4.41206015918e-10
-1.74714139401e-08
-3.3100771179e-09
3.76201737342e-10
-1.69794844666e-08
-3.04996814622e-09
2.29543403883e-10
-1.6380140093e-08
-2.75529955217e-09
-1.56915169842e-08
-2.4371481965e-09
-7.03950034527e-12
-2.7257625838e-10
-1.55289159217e-08
-2.69436252616e-09
-2.1800730107e-14
-4.43357665385e-10
-1.61791389536e-08
-3.04637209084e-09
-5.19799598691e-10
-1.6735953684e-08
-3.37029614498e-09
-5.09531673416e-10
-1.71886944152e-08
-3.65484602488e-09
-4.24430173515e-10
-1.75418765078e-08
-3.88873661745e-09
-2.81331523992e-10
-1.77957720342e-08
-4.06292170484e-09
-1.01805267321e-10
-1.79533439861e-08
-4.17140178906e-09
8.98410804865e-11
-1.80118706329e-08
-4.20951255335e-09
2.69536604268e-10
-1.79535393172e-08
-4.17154654285e-09
4.12978361263e-10
-1.77961603768e-08
-4.06321327077e-09
4.98601288524e-10
-1.75424460193e-08
-3.88917354628e-09
5.09571210227e-10
-1.71894319578e-08
-3.65542551954e-09
4.34007954658e-10
-1.67368531967e-08
-3.37101577961e-09
2.64275167827e-10
-1.61802804646e-08
-3.04724133399e-09
-1.55304326611e-08
-2.69540030924e-09
-7.08620175753e-12
-3.04553263734e-10
-1.49638877968e-08
-2.86775303874e-09
-2.48826064108e-14
-4.97216395156e-10
-1.55591771892e-08
-3.24521722776e-09
-5.83830654708e-10
-1.60621725016e-08
-3.59070111697e-09
-5.72565643329e-10
-1.6467619978e-08
-3.89300660564e-09
-4.76816673537e-10
-1.67829125147e-08
-4.14075097383e-09
-3.15733183416e-10
-1.70094158948e-08
-4.32483342508e-09
-1.13709754887e-10
-1.71498575572e-08
-4.43922126505e-09
1.01917060121e-10
-1.72018899975e-08
-4.47926473508e-09
3.04108561988e-10
-1.71500579346e-08
-4.43936843675e-09
4.6553137819e-10
-1.70098178921e-08
-4.3251287186e-09
5.61792950152e-10
-1.67835122957e-08
-4.14119080566e-09
5.73743386296e-10
-1.64684119374e-08
-3.89358480664e-09
4.87981620997e-10
-1.60631562032e-08
-3.59141091525e-09
2.96329042371e-10
-1.55604254916e-08
-3.24606502557e-09
-1.49655296066e-08
-2.86875549053e-09
-7.06490992356e-12
-3.34333136729e-10
-1.40787685157e-08
-2.95962486645e-09
-1.95867779665e-14
-5.47742669479e-10
-1.46083370925e-08
-3.35608488501e-09
-6.44273156529e-10
-1.50512634894e-08
-3.71742818056e-09
-6.32224404569e-10
-1.54058060211e-08
-4.03265950813e-09
-5.26403965029e-10
-1.56812047879e-08
-4.29039843541e-09
-3.48282131918e-10
-1.58791436558e-08
-4.48155698362e-09
-1.24991854619e-10
-1.60017309533e-08
-4.60008995766e-09
1.13285134389e-10
-1.60469297744e-08
-4.64141481295e-09
3.36747081701e-10
-1.60019398495e-08
-4.60023984874e-09
5.15213353269e-10
-1.58795666928e-08
-4.48185647702e-09
6.21550643744e-10
-1.56818440966e-08
-4.2908415984e-09
6.34284035712e-10
-1.54066646943e-08
-4.03323645269e-09
5.38596794184e-10
-1.50523459807e-08
-3.71812736869e-09
3.26179583726e-10
-1.46097098514e-08
-3.35690937591e-09
-1.40805523226e-08
-2.96058758092e-09
-7.02767818522e-12
-3.62512636939e-10
-1.29502932383e-08
-2.97637792812e-09
-7.88277414871e-15
-5.95895685735e-10
-1.34074224427e-08
-3.38692405119e-09
-7.02284428952e-10
-1.37875105317e-08
-3.75992996915e-09
-6.89552543199e-10
-1.4090900784e-08
-4.08456446525e-09
-5.73971053117e-10
-1.43270108047e-08
-4.34947603935e-09
-3.79454142007e-10
-1.44969594166e-08
-4.54563541079e-09
-1.35818627472e-10
-1.4601993648e-08
-4.66700518436e-09
1.24083697991e-10
-1.46404124119e-08
-4.70911954345e-09
3.67898085308e-10
-1.46022187373e-08
-4.66715790091e-09
5.62772662126e-10
-1.44974173056e-08
-4.54593936242e-09
6.78885882375e-10
-1.43277108804e-08
-4.34992302913e-09
6.92316119215e-10
-1.40918510068e-08
-4.08514089663e-09
5.86777653114e-10
-1.37887209183e-08
-3.76061941297e-09
3.54386632844e-10
-1.34089520814e-08
-3.38772617886e-09
-1.29522444729e-08
-2.97730107941e-09
-7.00707530778e-12
-3.89631174693e-10
-1.16473646788e-08
-2.92529102749e-09
1.0572371723e-14
-6.43037732022e-10
-1.20279315601e-08
-3.34621495711e-09
-7.59402318326e-10
-1.23454301466e-08
-3.72780031485e-09
-7.45744501165e-10
-1.26004159329e-08
-4.05920167646e-09
-6.20292746313e-10
-1.27998807426e-08
-4.32911700836e-09
-4.09672176396e-10
-1.29436299041e-08
-4.52865022622e-09
-1.46325993496e-10
-1.30321175724e-08
-4.65181622425e-09
1.34447449096e-10
-1.30640789029e-08
-4.69432339775e-09
3.97983051215e-10
-1.30323697691e-08
-4.65197140984e-09
6.08980074127e-10
-1.2944144313e-08
-4.52895812766e-09
7.3498867063e-10
-1.2800668575e-08
-4.32956753775e-09
7.49370244742e-10
-1.26014928165e-08
-4.0597778783e-09
6.33878167994e-10
-1.23468092947e-08
-3.7284808499e-09
3.81480233691e-10
-1.20296660168e-08
-3.34699578027e-09
-1.16495283047e-08
-2.92617586706e-09
-7.0178667895e-12
-4.16814688381e-10
-1.02308203505e-08
-2.81331424628e-09
3.23422299125e-14
-6.91598240401e-10
-1.05321256547e-08
-3.24189558083e-09
-8.17479308551e-10
-1.07913538629e-08
-3.62980205483e-09
-8.01730798288e-10
-1.10034795684e-08
-3.9658782313e-09
-6.65734234072e-10
-1.11702545039e-08
-4.23898807944e-09
-4.39058848015e-10
-1.1290276128e-08
-4.44050600413e-09
-1.56533970938e-10
-1.13636204112e-08
-4.56457016838e-09
1.44410162118e-10
-1.13896390882e-08
-4.60712627946e-09
4.2713742591e-10
-1.13639140826e-08
-4.56472682211e-09
6.54215008774e-10
-1.12908722379e-08
-4.440816197e-09
7.90800188739e-10
-1.11711688834e-08
-4.23944050321e-09
8.07308779977e-10
-1.1004727216e-08
-3.96645336155e-09
6.82334872846e-10
-1.0792951691e-08
-3.6304737045e-09
4.08591664371e-10
-1.05341248308e-08
-3.24265442896e-09
-1.02332594757e-08
-2.81415886285e-09
-7.04590624699e-12
-4.48860488129e-10
-8.75060516509e-09
-2.6465311891e-09
6.20026771543e-14
-7.46087311945e-10
-8.97530818438e-09
-3.08120633393e-09
-8.78137207554e-10
-9.18668653819e-09
-3.47374514567e-09
-8.57590119612e-10
-9.36272374708e-09
-3.81263434651e-09
-7.09977049734e-10
-9.50080052909e-09
-4.08727526595e-09
-4.67339842706e-10
-9.59965953691e-09
-4.28949743951e-09
-1.66345552874e-10
-9.65949973779e-09
-4.41363449758e-09
1.53895532909e-10
-9.68021254986e-09
-4.45592558089e-09
4.55108935584e-10
-9.65985191327e-09
-4.4137907544e-09
6.98176953265e-10
-9.6003719541e-09
-4.28980662847e-09
8.46420346591e-10
-9.50188390728e-09
-4.08772579842e-09
8.67772764653e-10
-9.36419447152e-09
-3.81320564691e-09
7.36672157576e-10
-9.18856256884e-09
-3.47440697888e-09
4.40526560667e-10
-8.97764281054e-09
-3.08194094191e-09
-8.75339375263e-09
-2.64732757854e-09
-7.10992462596e-12
-4.99006880127e-10
-2.42968144988e-09
8.78946107316e-14
-7.23868582218e-09
-8.1288265909e-10
-2.87094211376e-09
-7.4128510383e-09
-9.45228559738e-10
-3.26628328502e-09
-7.58871489552e-09
-9.17103631439e-10
-3.6061462455e-09
-7.73417049757e-09
-7.56642818336e-10
-3.88081066811e-09
-7.84749552984e-09
-4.97145484827e-10
-4.08263361114e-09
-7.92854966509e-09
-1.7669960417e-10
-4.20614897794e-09
-7.9772758104e-09
1.63867986864e-10
-4.24791197503e-09
-7.99365638957e-09
4.84550475204e-10
-4.20630157554e-09
-7.97770711042e-09
7.44513481233e-10
-4.08293561317e-09
-7.92941819415e-09
9.05650981448e-10
-3.8812510379e-09
-7.84880754055e-09
9.34635754594e-10
-3.60670546806e-09
-7.73593527562e-09
8.03299723757e-10
-3.26692931119e-09
-7.59094422555e-09
4.90552030457e-10
-2.87165575857e-09
-7.41559299783e-09
-2.4304031205e-09
-7.17876676564e-12
-7.24192905569e-09
-7.00580807254e-12
2.74942141036e-10
-3.29876656747e-10
-1.08190388717e-13
-1.15819055898e-11
3.03912829631e-10
-3.65382327196e-10
-1.34259232773e-11
3.31671929633e-10
-3.98706954588e-10
-1.31656765932e-11
3.57375220277e-10
-4.28495032426e-10
-1.09455276338e-11
3.78941343284e-10
-4.5333066096e-10
-7.16921401252e-12
3.95280313011e-10
-4.7203938814e-10
-2.37702189916e-12
4.05603990229e-10
-4.83845530716e-10
2.76823931895e-12
4.09314369023e-10
-4.88096290993e-10
7.55318292792e-12
4.05631110644e-10
-4.83855090655e-10
1.13211315674e-11
3.9534026004e-10
-4.72057999438e-10
1.3542039608e-11
3.79036401591e-10
-4.53357370787e-10
1.38171037584e-11
3.57498831121e-10
-4.28528832727e-10
1.19913671143e-11
3.3179979631e-10
-3.98747476474e-10
7.41156560303e-12
3.04022145687e-10
-3.65431892703e-10
2.7502240804e-10
-3.29945487457e-10
2.31213185707e-13
-1.27534286721e-11
7.95028844207e-10
-8.75067272527e-10
4.52735875852e-14
-2.09488854358e-11
8.69792109653e-10
-9.67516632176e-10
-2.44651197487e-11
9.40478328138e-10
-1.05380011979e-09
-2.38734540355e-11
1.00468354083e-09
-1.13052166565e-09
-1.97000315061e-11
1.05814156654e-09
-1.19422097062e-09
-1.27114897364e-11
1.09831950434e-09
-1.24205866654e-09
-3.90877294391e-12
1.12361318409e-09
-1.27218255176e-09
5.52286153542e-12
1.13273040617e-09
-1.28300961522e-09
1.42813099178e-11
1.12371378436e-09
-1.27221604073e-09
2.11863390578e-11
1.09853692714e-09
-1.24212353579e-09
2.52458836203e-11
1.05848753483e-09
-1.19431346136e-09
2.57108921722e-11
1.00513041463e-09
-1.1306371979e-09
2.20517267907e-11
9.40949018406e-10
-1.05393534903e-09
1.36845274491e-11
8.70184133768e-10
-9.67675526911e-10
7.95279588253e-10
-8.75270269564e-10
7.46712462469e-13
-1.21873889163e-11
1.36361904013e-09
-1.33466548646e-09
-2.10026191607e-13
-1.99793956285e-11
1.47767931951e-09
-1.4766107064e-09
-2.35330644009e-11
1.58417559291e-09
-1.60869621597e-09
-2.29783473279e-11
1.67904469759e-09
-1.72584238916e-09
-1.89247070669e-11
1.75720522039e-09
-1.82290626632e-09
-1.2126376455e-11
1.8154080986e-09
-1.89568629105e-09
-3.56236262441e-12
1.85188367526e-09
-1.94143985225e-09
5.63177326918e-12
1.86505455695e-09
-1.95783343687e-09
1.41645385352e-11
1.85200984832e-09
-1.94148234502e-09
2.09099335064e-11
1.815676029e-09
-1.89576936701e-09
2.49028353393e-11
1.75762296467e-09
-1.82302626197e-09
2.53939756068e-11
1.67957392964e-09
-1.72599526235e-09
2.1749762608e-11
1.58472718475e-09
-1.60887999248e-09
1.3785627149e-11
1.47813784717e-09
-1.47683329795e-09
1.36392195547e-09
-1.33495545068e-09
1.0957227572e-12
-7.6402136817e-12
1.86440716221e-09
-1.72702265793e-09
-3.5460873362e-13
-1.23066171663e-11
2.00070429407e-09
-1.91341830796e-09
-1.4636712423e-11
2.12639917807e-09
-2.08643284626e-09
-1.43078147e-11
2.23604957404e-09
-2.23956334189e-09
-1.17034626423e-11
2.32520740229e-09
-2.36623540148e-09
-7.29831929238e-12
2.39089202972e-09
-2.46109471841e-09
-1.71686166684e-12
2.43184304326e-09
-2.52063657726e-09
4.30909725827e-12
2.44667801845e-09
-2.54190416944e-09
9.86488330055e-12
2.4319692893e-09
-2.52068785697e-09
1.42277123311e-11
2.39115828291e-09
-2.4611953725e-09
1.67855771721e-11
2.32561946164e-09
-2.3663815654e-09
1.70608326594e-11
2.23656802968e-09
-2.23975087956e-09
1.46363004563e-11
2.12693554591e-09
-2.0866599384e-09
9.76688924724e-12
2.00114555296e-09
-1.91369402157e-09
1.86468626512e-09
-1.72737831537e-09
1.42020071096e-12
-6.01337967976e-13
2.23285818183e-09
-2.05399550209e-09
-4.47925229768e-13
-8.54774908644e-13
2.37265631427e-09
-2.27999259967e-09
-1.42973571616e-12
2.49985986143e-09
-2.48925744957e-09
-1.56385142514e-12
2.60823209092e-09
-2.67412000431e-09
-1.20093912848e-12
2.69495850409e-09
-2.82681406811e-09
-3.62914000131e-13
2.75805199225e-09
-2.94102591426e-09
8.44015331939e-13
2.79716733563e-09
-3.01260611737e-09
2.2353360745e-12
2.81141424831e-09
-3.03809186797e-09
3.42043862364e-12
2.79727744374e-09
-3.01266613662e-09
4.2209684253e-12
2.75828256099e-09
-2.94114367844e-09
4.53779923383e-12
2.69530897225e-09
-2.82698521038e-09
4.34061636027e-12
2.6086680459e-09
-2.67433955907e-09
3.64747545029e-12
2.50030467987e-09
-2.48952253533e-09
3.15354986673e-12
2.37302182942e-09
-2.28031159713e-09
2.23308600818e-09
-2.05439917737e-09
1.70792444554e-12
7.66211403776e-12
2.44747294809e-09
-2.3177349206e-09
-5.08883387908e-13
1.21393398602e-11
2.5759611185e-09
-2.57874179267e-09
1.33958247612e-11
2.69104217159e-09
-2.81985250137e-09
1.26074555237e-11
2.78645719582e-09
-3.03246482144e-09
1.03813637702e-11
2.8613535957e-09
-3.20783937719e-09
7.22765450564e-12
2.91502733951e-09
-3.33887326589e-09
3.60316709683e-12
2.948097399e-09
-3.42087273853e-09
-1.06823824773e-13
2.96024919682e-09
-3.44997098872e-09
-3.75020492919e-12
2.94818936322e-09
-3.42094253181e-09
-6.94018444194e-12
2.9152178973e-09
-3.33900911819e-09
-9.21743365664e-12
2.86164118451e-09
-3.20803579904e-09
-1.00851583991e-11
2.78681330469e-09
-3.0327152774e-09
-8.97372574629e-12
2.69140482838e-09
-2.82015197604e-09
-4.76932903827e-12
2.57626034435e-09
-2.57909695728e-09
2.44765002233e-09
-2.31817378193e-09
1.95446020849e-12
1.6149716737e-11
2.51630801978e-09
-2.52067829005e-09
-5.48004858389e-13
2.5120767335e-11
2.62481125805e-09
-2.81241258728e-09
2.80590105581e-11
2.71997291062e-09
-3.08128947141e-09
2.65186218838e-11
2.79632827574e-09
-3.31798351579e-09
2.16821065302e-11
2.85480316238e-09
-3.5129744476e-09
1.45945463092e-11
2.89591335198e-09
-3.65851677649e-09
6.25460488973e-12
2.92106112669e-09
-3.74945635108e-09
-2.42207388479e-12
2.93043061444e-09
-3.78161173917e-09
-1.07790133192e-11
2.92113252037e-09
-3.749534938e-09
-1.79030836051e-11
2.89606000909e-09
-3.65866950649e-09
-2.27983497413e-11
2.8550230679e-09
-3.51319440237e-09
-2.44360372945e-11
2.79660077816e-09
-3.31826194895e-09
-2.16685312949e-11
2.72025529495e-09
-3.08161843852e-09
-1.29960336654e-11
2.62505448265e-09
-2.8127964085e-09
2.51646469007e-09
-2.52114248441e-09
2.15811479947e-12
2.41637312512e-11
2.46364349493e-09
-2.66542215024e-09
-5.70121694848e-13
3.71437755727e-11
2.54921345247e-09
-2.98390454031e-09
4.15369765066e-11
2.62191106618e-09
-3.27678050709e-09
3.92440554768e-11
2.67782330425e-09
-3.53418437819e-09
3.19821306888e-11
2.71919981852e-09
-3.74598171921e-09
2.12871541891e-11
2.74751302314e-09
-3.90391246687e-09
8.64554950686e-12
2.76466992094e-09
-4.00243593664e-09
-4.55763139288e-12
2.7712070206e-09
-4.03713849506e-09
-1.72155392054e-11
2.76472359451e-09
-4.00252328379e-09
-2.79487852667e-11
2.74762379965e-09
-3.90408187412e-09
-3.52780490093e-11
2.7193678634e-09
-3.74622452794e-09
-3.7684435761e-11
2.67803755982e-09
-3.53448915607e-09
-3.34833037159e-11
2.62214335335e-09
-3.27713584942e-09
-2.08178473758e-11
2.54943284015e-09
-2.98431219127e-09
2.46380511506e-09
-2.66590486002e-09
2.31852241186e-12
3.12532605341e-11
2.31966109087e-09
-2.75456025328e-09
-5.81739068979e-13
4.76988846982e-11
2.38349631822e-09
-3.09606714887e-09
5.33338606508e-11
2.43489205135e-09
-3.40943728339e-09
5.03737901853e-11
2.47209289481e-09
-3.68442250835e-09
4.09854397921e-11
2.49816700466e-09
-3.91041829765e-09
2.7130941921e-11
2.5152283229e-09
-4.07876629597e-09
1.07209680084e-11
2.52541126871e-09
-4.1836101443e-09
-6.4499789597e-12
2.52944999914e-09
-4.22038394138e-09
-2.28765923338e-11
2.52544913796e-09
-4.18370610118e-09
-3.67724321682e-11
2.51530828645e-09
-4.07895201124e-09
-4.623685834e-11
2.49829272855e-09
-3.91068318866e-09
-4.93252937895e-11
2.47226350337e-09
-3.68475217275e-09
-4.389882512e-11
2.43509555166e-09
-3.40981658134e-09
-2.77782223717e-11
2.38371718285e-09
-3.09649530967e-09
2.31986802722e-09
-2.7550567804e-09
2.43915817281e-12
3.71738132964e-11
2.11390746439e-09
-2.79055780831e-09
-5.84363435406e-13
5.65661099501e-11
2.15948230267e-09
-3.15156154624e-09
6.32836201801e-11
2.19278151476e-09
-3.48213375908e-09
5.98058651911e-11
2.21459034586e-09
-3.77176808725e-09
4.8641366788e-11
2.22836763464e-09
-4.0095106957e-09
3.21078022363e-11
2.23655788389e-09
-4.18641510251e-09
1.24800686638e-11
2.2412800999e-09
-4.29638284536e-09
-8.08658919156e-12
2.2433370377e-09
-4.33477686267e-09
-2.77324498706e-11
2.24130659914e-09
-4.29648712412e-09
-4.43119541232e-11
2.23661650968e-09
-4.18661656111e-09
-5.55613132633e-11
2.22846792894e-09
-4.00979679363e-09
-5.91801310804e-11
2.21473981698e-09
-3.77212135785e-09
-5.26835204974e-11
2.19298164175e-09
-3.48253524765e-09
-3.36197106503e-11
2.15973051019e-09
-3.15200816889e-09
2.11418104165e-09
-2.79106520341e-09
2.52237421029e-12
4.18381684627e-11
1.87187929186e-09
-2.77569222105e-09
-5.83351320242e-13
6.37181424691e-11
1.90341992345e-09
-3.15282177806e-09
7.14323920571e-11
1.92256189946e-09
-3.49750254038e-09
6.7631149224e-11
1.93278891495e-09
-3.79903271851e-09
5.50477854204e-11
1.9376188815e-09
-4.04620430385e-09
3.62901198476e-11
1.93952100084e-09
-4.22989389694e-09
1.39537471265e-11
1.9404100132e-09
-4.34384231961e-09
-9.48510871412e-12
1.94104454737e-09
-4.38342566837e-09
-3.18425076523e-11
1.940429244e-09
-4.34395448134e-09
-5.06517391107e-11
1.93956781455e-09
-4.23011032797e-09
-6.33296542192e-11
1.93770683106e-09
-4.04651064309e-09
-6.72831102018e-11
1.93293612688e-09
-3.79940852263e-09
-5.97988647601e-11
1.922780874e-09
-3.49792505044e-09
-3.82480719888e-11
1.90371851448e-09
-3.15328578372e-09
1.87224989898e-09
-2.77620894658e-09
2.57399811745e-12
4.52717373918e-11
1.6138728753e-09
-2.71204908206e-09
-5.78009454691e-13
6.92879073626e-11
1.63523474795e-09
-3.10210845066e-09
7.80110005555e-11
1.64402257648e-09
-3.45804518972e-09
7.41005812576e-11
1.64635115366e-09
-3.76890920804e-09
6.04139169169e-11
1.64545853954e-09
-4.02331953989e-09
3.98162663325e-11
1.64353431685e-09
-4.21210423724e-09
1.51921722548e-11
1.64211984669e-09
-4.32893825459e-09
-1.06843272516e-11
1.64186885581e-09
-4.3692986478e-09
-3.53333925419e-11
1.64213732941e-09
-4.3290576565e-09
-5.59904910236e-11
1.6435794014e-09
-4.21233457672e-09
-6.97811505817e-11
1.64555171161e-09
-4.02364498442e-09
-7.38541918394e-11
1.64651610728e-09
-3.76930663368e-09
-6.53679602462e-11
1.6442818069e-09
-3.45848800591e-09
-4.16781741806e-11
1.63560510262e-09
-3.10258913809e-09
1.61435550078e-09
-2.71257431001e-09
2.59731622506e-12
4.76253418121e-11
1.35498506396e-09
-2.60154524334e-09
-5.72760735172e-13
7.36842300487e-11
1.36889057711e-09
-3.00166203458e-09
8.35391662974e-11
1.37065797e-09
-3.36634207276e-09
7.96798555458e-11
1.36846437022e-09
-3.6841748776e-09
6.50878442465e-11
1.36477248701e-09
-3.94374432571e-09
4.28928722885e-11
1.36119216688e-09
-4.13600378797e-09
1.62694428901e-11
1.35882315466e-09
-4.25467227375e-09
-1.17493730213e-11
1.35815098443e-09
-4.29541534049e-09
-3.84033608056e-11
1.35884589612e-09
-4.25479792078e-09
-6.06660624669e-11
1.36125020136e-09
-4.13624639913e-09
-7.53736655782e-11
1.36488714185e-09
-3.94408723003e-09
-7.94051232171e-11
1.36866782487e-09
-3.68459292296e-09
-6.97917962973e-11
1.37098183219e-09
-3.36680472865e-09
-4.40571551702e-11
1.36935753335e-09
-3.00215811509e-09
1.35560728194e-09
-2.60207642816e-09
2.59523990613e-12
4.93787167212e-11
1.10554400526e-09
-2.44595774037e-09
-5.65060799332e-13
7.78406215466e-11
1.1132415519e-09
-2.85405913015e-09
8.8947569054e-11
1.11113747984e-09
-3.22536730905e-09
8.50867102211e-11
1.10756162713e-09
-3.54790764947e-09
6.95545624269e-11
1.10360255979e-09
-3.81060645693e-09
4.58100181839e-11
1.10018199108e-09
-4.00476505349e-09
1.72768266319e-11
1.09794908828e-09
-4.12425338031e-09
-1.27652606086e-11
1.09725299542e-09
-4.16500146999e-09
-4.13351235132e-11
1.09798676278e-09
-4.12438361847e-09
-6.51591585439e-11
1.10027026125e-09
-4.00501709096e-09
-8.08174058693e-11
1.10376496801e-09
-3.81096376454e-09
-8.48584386831e-11
1.10783053135e-09
-3.54834443955e-09
-7.39963209773e-11
1.11154652089e-09
-3.22584955618e-09
-4.58535577523e-11
1.11382898853e-09
-2.85456846545e-09
1.10633089769e-09
-2.44648784844e-09
2.57034466979e-12
5.04447460369e-11
-2.2478292623e-09
-5.57346374332e-13
8.73758652338e-10
8.29939652897e-11
-2.66378093522e-09
8.7349812263e-10
9.52526143934e-11
-3.03918493249e-09
8.71745483687e-10
9.10776915345e-11
-3.36383689181e-09
8.69400463936e-10
7.43887021323e-11
-3.62745648055e-09
8.66910268958e-10
4.89286322154e-11
-3.82185597375e-09
8.64837548743e-10
1.8349074415e-11
-3.94111786904e-09
8.63478183861e-10
-1.38639159981e-11
-3.98148830849e-09
8.6302127493e-10
-4.44862591097e-11
-3.94124959511e-09
8.63544319754e-10
-7.00367801901e-11
-3.8221116245e-09
8.64978500581e-10
-8.68641818536e-11
-3.62782074599e-09
8.67147257391e-10
-9.1229548485e-11
-3.36428565243e-09
8.69761405511e-10
-7.92139327013e-11
-3.03968252885e-09
8.7227039449e-10
-4.69742687288e-11
-2.66430724802e-09
8.74227797119e-10
-2.24833381809e-09
2.52276276026e-12
8.74752893964e-10
4.35384874317e-12
-6.52492497632e-11
-2.69056737753e-10
-3.02672709895e-14
6.77295724137e-12
-7.27600282012e-11
-2.95174161738e-10
7.7951870692e-12
-8.05728307188e-11
-3.19304582375e-10
7.59705121056e-12
-8.7793739638e-11
-3.40633633992e-10
6.30784941674e-12
-9.39081615247e-11
-3.58258438831e-10
4.1541290607e-12
-9.85464527218e-11
-3.71447759692e-10
1.43975368197e-12
-1.01467871585e-10
-3.79744037267e-10
-1.47392963053e-12
-1.02497363435e-10
-3.82741408285e-10
-4.18265972805e-12
-1.01435388873e-10
-3.79750374579e-10
-6.32589900339e-12
-9.84843310903e-11
-3.71460510989e-10
-7.60578746897e-12
-9.38242006451e-11
-3.58277770045e-10
-7.80136617909e-12
-8.76954933809e-11
-3.40659947451e-10
-6.77447871329e-12
-8.04557304721e-11
-3.19338948661e-10
-4.35302294523e-12
-7.26524765092e-11
-2.95220315151e-10
-6.51759956383e-11
-2.69125989053e-10
-1.47575430979e-14
1.00904991152e-11
-1.49353187605e-10
-8.0089628085e-10
-3.36866337525e-13
1.60260415333e-11
-1.64657623624e-10
-8.8179259437e-10
1.85866844274e-11
-1.80370324426e-10
-9.56820117013e-10
1.81258894364e-11
-1.94823256172e-10
-1.0232642244e-09
1.50072837011e-11
-2.06961759613e-10
-1.07825825782e-09
9.8011544456e-12
-2.161096332e-10
-1.11946288155e-09
3.249160551e-12
-2.21853736999e-10
-1.14537297897e-09
-3.7738557316e-12
-2.23887840283e-10
-1.15468699767e-09
-1.0292492221e-11
-2.2180888072e-10
-1.14538866093e-09
-1.54266625797e-11
-2.1602860639e-10
-1.1194948364e-09
-1.84377317219e-11
-2.06860395278e-10
-1.07830744067e-09
-1.87667146095e-11
-1.94707989221e-10
-1.02333253402e-09
-1.60493549922e-11
-1.80230793979e-10
-9.56911560179e-10
-9.96591005896e-12
-1.6452439184e-10
-8.81918442675e-10
-1.49258527434e-10
-8.01082277294e-10
-1.00026254801e-13
1.31238970667e-11
-2.20972448269e-10
-1.27606388626e-09
-2.58771293635e-13
2.13962593029e-11
-2.41522038122e-10
-1.40819892886e-09
2.51386717501e-11
-2.62288249471e-10
-1.53070783034e-09
2.46802111109e-11
-2.81269707971e-10
-1.63911996764e-09
2.05303538396e-11
-2.97090819493e-10
-1.72879670289e-09
1.34828563193e-11
-3.08935299138e-10
-1.79595586234e-09
4.56952583919e-12
-3.16344423243e-10
-1.83814325076e-09
-4.99906741823e-12
-3.1896982486e-10
-1.85326006641e-09
-1.38851120559e-11
-3.16285736532e-10
-1.83817555157e-09
-2.08776623616e-11
-3.08828766562e-10
-1.79602030975e-09
-2.49518324571e-11
-2.96956070541e-10
-1.72889297989e-09
-2.53214881703e-11
-2.81117999488e-10
-1.63924850491e-09
-2.14733440561e-11
-2.62117411478e-10
-1.53087181739e-09
-1.30901007561e-11
-2.41357379108e-10
-1.40841173123e-09
-2.20852012344e-10
-1.27635846493e-09
-1.19401525908e-13
1.445767139e-11
-2.78785147444e-10
-1.68357847841e-09
-2.28268604638e-13
2.39218732123e-11
-3.0264859154e-10
-1.86193194394e-09
2.83443949003e-11
-3.26259167202e-10
-2.02707416442e-09
2.79437873047e-11
-3.47582027842e-10
-2.17303064044e-09
2.32960451089e-11
-3.65194133281e-10
-2.29364432891e-09
1.53200166532e-11
-3.78283524027e-10
-2.38390096073e-09
5.20512039939e-12
-3.86438369095e-10
-2.44052690489e-09
-5.66055040192e-12
-3.8932659378e-10
-2.46075383026e-09
-1.57497152163e-11
-3.86363751657e-10
-2.44057443659e-09
-2.36759040131e-11
-3.78144852393e-10
-2.38399510561e-09
-2.82567236336e-11
-3.65009184245e-10
-2.2937834073e-09
-2.85786383201e-11
-3.47365676296e-10
-2.17321335324e-09
-2.40618603193e-11
-3.26021622071e-10
-2.02730203243e-09
-1.44934823621e-11
-3.02428561542e-10
-1.86221790673e-09
-2.78634440805e-10
-1.68395729789e-09
-1.56043039271e-13
1.45418108123e-11
-3.21882334306e-10
-2.02534914856e-09
-2.08316955793e-13
2.43297365175e-11
-3.47429461113e-10
-2.24512552073e-09
2.90215323085e-11
-3.7207298113e-10
-2.44826975263e-09
2.87092370745e-11
-3.93968292502e-10
-2.62755450447e-09