/*--------------------------------*- C++ -*----------------------------------*\
  =========                 |
  \\      /  F ield         | OpenFOAM: The Open Source CFD Toolbox
   \\    /   O peration     | Website:  https://openfoam.org
    \\  /    A nd           | Version:  7
     \\/     M anipulation  |
\*---------------------------------------------------------------------------*/
FoamFile
{
    version     2.0;
    format      ascii;
    class       volVectorField;
    location    "1.52";
    object      U;
}
// * * * * * * * * * * * * * * * * * * * * * * * * * * * * * * * * * * * * * //

dimensions      [0 1 -1 0 0 0 0];

internalField   nonuniform List<vector> 
22500
(
(5.25649935995e-06 5.94796996409e-06 6.06130620141e-05)
(4.84705742824e-06 6.74534997623e-06 6.35348918184e-05)
(4.21857410941e-06 7.52347753711e-06 6.61411090102e-05)
(3.52705985543e-06 8.17558484174e-06 6.83711170115e-05)
(2.7300440654e-06 8.70797017649e-06 7.01702347311e-05)
(1.86371266495e-06 9.09974529976e-06 7.14909785564e-05)
(9.46102008788e-07 9.33984678447e-06 7.22988278783e-05)
(1.95432623152e-09 9.42093653222e-06 7.25724251145e-05)
(-9.4223823562e-07 9.34017052113e-06 7.22987843154e-05)
(-1.85997467664e-06 9.10037759383e-06 7.14909061366e-05)
(-2.72651331923e-06 8.70887203724e-06 7.01701585103e-05)
(-3.52380013156e-06 8.17671419218e-06 6.83711003912e-05)
(-4.21569047172e-06 7.52475596741e-06 6.61413574564e-05)
(-4.84441337504e-06 6.74685824257e-06 6.35362713616e-05)
(-5.25458418253e-06 5.94947100936e-06 6.06189743371e-05)
(1.55089939439e-05 1.75149403026e-05 0.000167140522514)
(1.42914170118e-05 1.98121152439e-05 0.000174364283058)
(1.24860265837e-05 2.20440818301e-05 0.000180731378501)
(1.04367039306e-05 2.39354611084e-05 0.000186129305358)
(8.08680116229e-06 2.54824646321e-05 0.000190452864316)
(5.52251885823e-06 2.66233609826e-05 0.000193610479529)
(2.80393266948e-06 2.73237118261e-05 0.000195535009478)
(5.40103223927e-09 2.75602408053e-05 0.000196184426663)
(-2.79324428198e-06 2.73245486294e-05 0.000195534866726)
(-5.51215817799e-06 2.66249946277e-05 0.000193610234421)
(-8.07697533875e-06 2.54847973927e-05 0.00019045258815)
(-1.04275907181e-05 2.39383809981e-05 0.000186129183619)
(-1.24778543644e-05 2.20473973223e-05 0.000180732018015)
(-1.42840395442e-05 1.98159819794e-05 0.000174368201422)
(-1.5503618887e-05 1.7518867526e-05 0.000167155643522)
(2.40008817498e-05 2.70194461108e-05 0.0002602289641)
(2.20280821789e-05 3.04304425392e-05 0.000270551243423)
(1.92252274884e-05 3.37202875937e-05 0.00027954942602)
(1.60338750694e-05 3.6508370885e-05 0.00028711609967)
(1.24062283951e-05 3.8782348881e-05 0.000293138442099)
(8.46243415746e-06 4.04567455407e-05 0.000297516675935)
(4.29356107626e-06 4.1483441181e-05 0.000300176709619)
(8.35513388772e-09 4.18299547349e-05 0.000301071821224)
(-4.27701298455e-06 4.14846463333e-05 0.000300176410274)
(-8.44635951376e-06 4.04590978904e-05 0.00029751613955)
(-1.23909259769e-05 3.87857124183e-05 0.000293137775452)
(-1.60196054663e-05 3.65125757274e-05 0.000287115579731)
(-1.92123096233e-05 3.37250810571e-05 0.000279549934179)
(-2.20164471281e-05 3.04360072438e-05 0.000270556384437)
(-2.39922752652e-05 2.70252395003e-05 0.000260249872604)
(3.10256102103e-05 3.48219725958e-05 0.000341611295745)
(2.8367195277e-05 3.90326519074e-05 0.000354077487309)
(2.47167359117e-05 4.30710026116e-05 0.000364819867583)
(2.05659330095e-05 4.64856344878e-05 0.000373777159505)
(1.58871054337e-05 4.92625035677e-05 0.000380859627767)
(1.0822978441e-05 5.13030356097e-05 0.000385984116335)
(5.48700663559e-06 5.25525186665e-05 0.000389087340233)
(1.0877776496e-08 5.29739067739e-05 0.000390128945352)
(-5.46545198721e-06 5.25540377586e-05 0.000389086783395)
(-1.08020153878e-05 5.13059999824e-05 0.000385983078394)
(-1.58671084986e-05 4.92667470599e-05 0.00038085823102)
(-2.05472278193e-05 4.6490936277e-05 0.000373775717676)
(-2.46997012804e-05 4.30770552226e-05 0.000364819363898)
(-2.83518478223e-05 3.90396395252e-05 0.000354082011421)
(-3.10140045941e-05 3.48293393553e-05 0.000341633614098)
(3.68021997105e-05 4.11973021216e-05 0.000412747267142)
(3.35324057257e-05 4.59493649967e-05 0.000426594996427)
(2.91624113151e-05 5.04854339413e-05 0.000438381287452)
(2.42099839548e-05 5.43096560264e-05 0.000448119594869)
(1.86714356681e-05 5.74101040393e-05 0.000455765138598)
(1.27036732234e-05 5.96836774574e-05 0.00046126847063)
(6.43559985871e-06 6.10738809015e-05 0.000464589324354)
(1.30484578301e-08 6.15423907187e-05 0.000465701234345)
(-6.40973629392e-06 6.10756864625e-05 0.000464588434498)
(-1.26784999441e-05 5.96872007823e-05 0.000461266766206)
(-1.86473906087e-05 5.7415153223e-05 0.000455762724962)
(-2.41874474663e-05 5.43159669487e-05 0.000448116746177)
(-2.91417938262e-05 5.04926449051e-05 0.000438378906024)
(-3.35137967056e-05 4.59576540602e-05 0.000426597265543)
(-3.67877954485e-05 4.12061069678e-05 0.000412767652939)
(4.14347286958e-05 4.62723302899e-05 0.000474874759462)
(3.76284367055e-05 5.13361894291e-05 0.000489492962231)
(3.2656862171e-05 5.61488973218e-05 0.00050176927568)
(2.70492908174e-05 6.019292874e-05 0.000511810917835)
(2.0826202848e-05 6.34606210259e-05 0.000519632943018)
(1.41516539039e-05 6.58517243253e-05 0.000525230924048)
(7.16372937989e-06 6.73116471709e-05 0.000528595659613)
(1.49498170673e-08 6.78033245788e-05 0.00052971942412)
(-7.13409060548e-06 6.731372586e-05 0.000528594399792)
(-1.41227893674e-05 6.58557821858e-05 0.000525228461649)
(-2.07986038441e-05 6.34664442616e-05 0.000519629326124)
(-2.70233842099e-05 6.02002150623e-05 0.000511806297082)
(-3.26330678416e-05 5.61572395281e-05 0.000501764315545)
(-3.76068944562e-05 5.13457448677e-05 0.000489491749098)
(-4.14177031811e-05 4.628253348e-05 0.000474891209199)
(4.50100777459e-05 5.01476312691e-05 0.000529060975658)
(4.07413651982e-05 5.53192092218e-05 0.000543961126152)
(3.52792234465e-05 6.02129732058e-05 0.00055629194497)
(2.91537111248e-05 6.43101447713e-05 0.000566266024602)
(2.24079001137e-05 6.76087199687e-05 0.000573967302229)
(1.52068222463e-05 7.00171770037e-05 0.000579443026005)
(7.69208353996e-06 7.14855165674e-05 0.000582719734323)
(1.66583633833e-08 7.19797338419e-05 0.000583811162657)
(-7.65905176961e-06 7.14878687123e-05 0.000582718112143)
(-1.51746375148e-05 7.00217720269e-05 0.000579439802101)
(-2.23770998141e-05 6.76153267099e-05 0.000573962425427)
(-2.91247615761e-05 6.43184259821e-05 0.000566259443523)
(-3.52525424901e-05 6.02224825771e-05 0.000556283971761)
(-4.07171243521e-05 5.5330066229e-05 0.000543955715558)
(-4.49905723582e-05 5.01592550799e-05 0.000529072483711)
(4.76175713525e-05 5.2925848589e-05 0.000576237472119)
(4.29585644517e-05 5.8026794829e-05 0.000591032377734)
(3.71103188313e-05 6.28310535907e-05 0.000603080118643)
(3.05945343172e-05 6.68372339526e-05 0.000612704511651)
(2.34742158584e-05 7.00500307432e-05 0.000620062313738)
(1.59099084497e-05 7.23908311128e-05 0.000625255046445)
(8.04176608217e-06 7.38158928295e-05 0.000628346740811)
(1.8243270885e-08 7.42953122468e-05 0.000629373518472)
(-8.00558565532e-06 7.38185263345e-05 0.000628344820019)
(-1.58746384663e-05 7.23959825542e-05 0.000625251171826)
(-2.34404342412e-05 7.00574552909e-05 0.000620056297958)
(-3.05627430165e-05 6.68465642015e-05 0.00061269603781)
(-3.70809282344e-05 6.28418060196e-05 0.000603069077789)
(-4.2931778753e-05 5.80390389835e-05 0.000591022665678)
(-4.75956969616e-05 5.29389602334e-05 0.000576243913716)
(4.9343807221e-05 5.47063403562e-05 0.000617223316013)
(4.4363923414e-05 5.95821091072e-05 0.00063161043181)
(3.82278998963e-05 6.41492961787e-05 0.000643120051345)
(3.14404652447e-05 6.79411203223e-05 0.000652188249471)
(2.40808152275e-05 7.09698677264e-05 0.000659043712094)
(1.63002021176e-05 7.31722076563e-05 0.000663841020908)
(8.23312070789e-06 7.45112923126e-05 0.000666680769664)
(1.97669251042e-08 7.49616501714e-05 0.000667620798502)
(-8.19391077191e-06 7.45142155774e-05 0.000666678688061)
(-1.62619567742e-05 7.31779364865e-05 0.000663836760443)
(-2.40441483649e-05 7.0978149386e-05 0.000659036924383)
(-3.14059134599e-05 6.79515627695e-05 0.000652178309738)
(-3.81958704142e-05 6.41613814559e-05 0.000643106400697)
(-4.43346660283e-05 5.95958436297e-05 0.000631597045916)
(-4.93196379438e-05 5.47210318901e-05 0.000617225460594)
(5.02707171282e-05 5.5583036176e-05 0.000652738372815)
(4.50363309576e-05 6.0100022469e-05 0.000666485651856)
(3.87053654078e-05 6.43029916431e-05 0.000677272968434)
(3.17566740796e-05 6.77759319525e-05 0.000685644681612)
(2.42805838361e-05 7.05393642868e-05 0.000691895384607)
(1.64149791371e-05 7.25455816633e-05 0.000696227682933)
(8.28541472775e-06 7.37642578796e-05 0.000698775246121)
(2.12838203047e-08 7.41740994212e-05 0.00069961550679)
(-8.24318479793e-06 7.37674702104e-05 0.000698773240124)
(-1.6373756825e-05 7.25518916361e-05 0.000696223509655)
(-2.42410156773e-05 7.05485203531e-05 0.000691888529398)
(-3.17193328576e-05 6.7787526845e-05 0.000685634194584)
(-3.86706678132e-05 6.43164780216e-05 0.000677257839541)
(-4.50045947186e-05 6.01153367219e-05 0.000666470109141)
(-5.02442741306e-05 5.55993982456e-05 0.00065273800684)
(5.047607303e-05 5.56458376423e-05 0.00068340644103)
(4.5050462916e-05 5.96875406044e-05 0.000696339791595)
(3.86128530315e-05 6.34168716637e-05 0.000706283500853)
(3.16058038257e-05 6.64838721317e-05 0.000713878856002)
(2.41242500692e-05 6.89167607394e-05 0.0007194742268)
(1.62897731803e-05 7.06813986623e-05 0.000723311321758)
(8.21692119294e-06 7.17527529146e-05 0.000725550994352)
(2.28376545006e-08 7.21131450853e-05 0.000726286818324)
(-8.1715924459e-06 7.17562338972e-05 0.000725549427529)
(-1.62454816037e-05 7.06882559844e-05 0.000723307980764)
(-2.40816708391e-05 6.89267564868e-05 0.000719468456135)
(-3.15655507787e-05 6.6496600009e-05 0.000713869393383)
(-3.85753717376e-05 6.34317653916e-05 0.000706268890925)
(-4.50161645078e-05 5.97044692373e-05 0.000696324684327)
(-5.04473079553e-05 5.56639175416e-05 0.000683406587578)
(5.00329270173e-05 5.49807435061e-05 0.00070974604279)
(4.44777275291e-05 5.84425608729e-05 0.00072173989662)
(3.80191203622e-05 6.16049278851e-05 0.000730779215063)
(3.10492868642e-05 6.4196595439e-05 0.000737577049303)
(2.36608187747e-05 6.62493550285e-05 0.00074251638752)
(1.59583238823e-05 6.77381655068e-05 0.000745865705692)
(8.04479055621e-06 6.86418553319e-05 0.000747805128369)
(2.44572378126e-08 6.89460081767e-05 0.000748439789204)
(-7.99622568538e-06 6.86455548139e-05 0.000747804515656)
(-1.59108100569e-05 6.77454762808e-05 0.000745864272397)
(-2.36150554985e-05 6.62600705193e-05 0.000742513412379)
(-3.1005934844e-05 6.421033463e-05 0.000737571016016)
(-3.797867939e-05 6.16211278014e-05 0.000730768202395)
(-4.44407288269e-05 5.84610316843e-05 0.00072172904364)
(-5.00017171293e-05 5.50004973786e-05 0.000709751167722)
(4.90077175047e-05 5.36600526124e-05 0.000732143870428)
(4.3391274086e-05 5.64480979011e-05 0.000743123842826)
(3.69962895033e-05 5.89722764606e-05 0.000751265959527)
(3.01489412579e-05 6.10395377723e-05 0.000757305928989)
(2.29371968956e-05 6.26779578383e-05 0.000761638054165)
(1.54517502575e-05 6.38662240066e-05 0.000764543784826)
(7.78451388997e-06 6.45870059502e-05 0.000766213272237)
(2.61521026043e-08 6.48297320406e-05 0.000766757739943)
(-7.73255820193e-06 6.4590834279e-05 0.000766214279933)
(-1.54008445203e-05 6.3873816792e-05 0.000764545676837)
(-2.2888057667e-05 6.26891573967e-05 0.000761640202055)
(-3.01022821037e-05 6.10540238698e-05 0.000757306722819)
(-3.69526942666e-05 5.89895274816e-05 0.00075126294805)
(-4.33514248919e-05 5.64678920135e-05 0.000743122328668)
(-4.89739471568e-05 5.36812463555e-05 0.00073215949706)
(4.74861317823e-05 5.17351127944e-05 0.000750801804927)
(4.1891640433e-05 5.38042645437e-05 0.000760792695152)
(3.56279050453e-05 5.56344678788e-05 0.000768130559391)
(2.89643645547e-05 5.71493227567e-05 0.000773513211013)
(2.19940295153e-05 5.8348840968e-05 0.000777334478581)
(1.47954585987e-05 5.92161259514e-05 0.000779875859609)
(7.44841387929e-06 5.97406715826e-05 0.000781327294872)
(2.79064557095e-08 5.99173408027e-05 0.000781799833567)
(-7.39294470923e-06 5.97445007108e-05 0.000781330676541)
(-1.47410285895e-05 5.9223748926e-05 0.000779882712773)
(-2.19413642352e-05 5.83601618747e-05 0.000777344552205)
(-2.89142298632e-05 5.71641224535e-05 0.00077352522106)
(-3.55809930303e-05 5.56523389982e-05 0.000768141624631)
(-4.18488163205e-05 5.38249922378e-05 0.000760807077624)
(-4.74496056561e-05 5.17574623664e-05 0.000750833639851)
(4.560166907e-05 4.95591162391e-05 0.000765679342391)
(4.010496574e-05 5.05447650327e-05 0.000774999960942)
(3.39579984651e-05 5.16832221914e-05 0.000781672544063)
(2.75209527457e-05 5.26179809628e-05 0.000786539085229)
(2.08470137973e-05 5.3348655449e-05 0.000789983376429)
(1.39997835271e-05 5.38703635989e-05 0.000792269041445)
(7.04184886344e-06 5.41834261403e-05 0.00079357271791)
(2.96799681154e-08 5.42888721385e-05 0.000793997755106)
(-6.98282851797e-06 5.41870450748e-05 0.000793579019065)
(-1.39417902068e-05 5.3877593693e-05 0.000792282069278)
(-2.07907710698e-05 5.33594650843e-05 0.000790003597313)
(-2.74672577695e-05 5.26322776393e-05 0.000786566329686)
(-3.390765403e-05 5.17007629747e-05 0.000781704103216)
(-4.00592286005e-05 5.05655895829e-05 0.000775041419353)
(-4.55619592007e-05 4.95817532274e-05 0.000765726223541)
(7.55433057703e-08 1.31424622051e-07 4.45984889486e-05)
(3.73828131435e-08 1.75953504922e-07 4.66863705207e-05)
(1.63565200409e-08 2.00589842042e-07 4.85026946757e-05)
(2.33834433136e-09 2.15772564746e-07 5.00319850767e-05)
(-5.22239099749e-09 2.24374766354e-07 5.12530328607e-05)
(-6.80954418399e-09 2.28689741503e-07 5.21432599395e-05)
(-4.06046198156e-09 2.3056099469e-07 5.26857943888e-05)
(1.06350659633e-09 2.31137400159e-07 5.28696292277e-05)
(6.18746956336e-09 2.3077434805e-07 5.26860550026e-05)
(8.93731105857e-09 2.29108126838e-07 5.2143805367e-05)
(7.32866248015e-09 2.24972330528e-07 5.12539172707e-05)
(-3.3912418532e-10 2.16504202183e-07 5.00333285472e-05)
(-1.45992917769e-08 2.01408510112e-07 4.85047970562e-05)
(-3.59119091461e-08 1.76805038459e-07 4.66901911859e-05)
(-7.45660806079e-08 1.322355166e-07 4.46070995842e-05)
(7.18984039666e-07 9.07011885649e-07 0.000131289271566)
(5.98116890475e-07 1.12089289385e-06 0.000137220896124)
(4.95954015669e-07 1.29052195565e-06 0.000142361236873)
(3.95992054308e-07 1.42762131219e-06 0.000146671829296)
(2.96076686493e-07 1.53295339697e-06 0.00015010192511)
(1.97536445514e-07 1.60737741765e-06 0.000152597031762)
(1.00073193649e-07 1.6518397034e-06 0.000154114937548)
(3.36131860215e-09 1.66685565282e-06 0.00015462743566)
(-9.33679213356e-08 1.65245710741e-06 0.000154115737737)
(-1.90886728205e-07 1.60857938966e-06 0.000152598704704)
(-2.89572235005e-07 1.5346613757e-06 0.000150104637722)
(-3.8984978021e-07 1.42971646673e-06 0.000146675945824)
(-4.90521719336e-07 1.29287556311e-06 0.000142367651091)
(-5.93566068919e-07 1.12338833044e-06 0.000137232422389)
(-7.15869666104e-07 9.09458102792e-07 0.000131313266889)
(1.78311960265e-06 2.12080301203e-06 0.000215256094287)
(1.56761374548e-06 2.56363622273e-06 0.000224753235625)
(1.35027224552e-06 2.94472978225e-06 0.000232952146847)
(1.11316239045e-06 3.26687260399e-06 0.000239805103351)
(8.54883320679e-07 3.52375532668e-06 0.000245242845008)
(5.81018474822e-07 3.71057885691e-06 0.000249190326091)
(2.96144616755e-07 3.82429403347e-06 0.000251587985313)
(5.73557946951e-09 3.8628430792e-06 0.000252395637306)
(-2.84721813401e-07 3.82527358743e-06 0.000251589290031)
(-5.69748321543e-07 3.7124779807e-06 0.000249193053118)
(-8.43934807357e-07 3.52644367389e-06 0.000245247265008)
(-1.1028513255e-06 3.27016661147e-06 0.000239811794909)
(-1.34109727951e-06 2.94843526143e-06 0.000232962478025)
(-1.55988926528e-06 2.56764095879e-06 0.000224771399438)
(-1.77769221891e-06 2.12483532958e-06 0.000215292704325)
(3.13327270609e-06 3.62546114142e-06 0.000296395298572)
(2.81090552468e-06 4.32503793493e-06 0.000309155760861)
(2.45384250184e-06 4.94650138496e-06 0.000320122335902)
(2.04361240515e-06 5.48146409629e-06 0.000329255317945)
(1.58206371719e-06 5.91403481792e-06 0.000336479392744)
(1.08087638606e-06 6.23179171263e-06 0.000341711279859)
(5.51690981265e-07 6.42638603684e-06 0.000344883418627)
(8.13426847232e-09 6.49240516702e-06 0.000345949896273)
(-5.35511402049e-07 6.42769122789e-06 0.00034488513786)
(-1.06497496382e-06 6.2343231564e-06 0.000341714873579)
(-1.56669854611e-06 5.91762710501e-06 0.000336485213901)
(-2.02918516402e-06 5.4858904444e-06 0.000329264100113)
(-2.44095277523e-06 4.95150840038e-06 0.000320135749007)
(-2.7999862696e-06 4.33052661087e-06 0.000309178848608)
(-3.12538745958e-06 3.63108047484e-06 0.000296440724913)
(4.64696539525e-06 5.2860305764e-06 0.000374480041614)
(4.20822327061e-06 6.24456295597e-06 0.000390160994489)
(3.69669640991e-06 7.10662827175e-06 0.000403564180503)
(3.09201145681e-06 7.85511695066e-06 0.00041467875732)
(2.40142297785e-06 8.46412270086e-06 0.000423437892332)
(1.64391533637e-06 8.91339723167e-06 0.000429763656041)
(8.39340955183e-07 9.18920961542e-06 0.000433591100942)
(1.05144082055e-08 9.28278631958e-06 0.000434875625535)
(-8.18446130627e-07 9.19080667135e-06 0.000433593160311)
(-1.62343657414e-06 8.91650141346e-06 0.000429767957283)
(-2.38170947902e-06 8.46854807388e-06 0.00042344483304)
(-3.07354224012e-06 7.86060789374e-06 0.000414689138448)
(-3.68013821018e-06 7.11288279911e-06 0.000403579777828)
(-4.19408740568e-06 6.25148081001e-06 0.000390187336969)
(-4.636488137e-06 5.2931928186e-06 0.000374531115724)
(6.23267948227e-06 7.00394163719e-06 0.000449225659807)
(5.67085017976e-06 8.20526506254e-06 0.000467441745445)
(4.99738828471e-06 9.28834073361e-06 0.000482911322001)
(4.1880679113e-06 1.02324457758e-05 0.00049567555546)
(3.25705411648e-06 1.10025957713e-05 0.000505691875753)
(2.23126187044e-06 1.15717074337e-05 0.000512901711833)
(1.13914228076e-06 1.19213910836e-05 0.000517253710146)
(1.28394676495e-08 1.20399993831e-05 0.000518711773962)
(-1.11364265884e-06 1.19232465105e-05 0.000517256080031)
(-2.20631563736e-06 1.15753223434e-05 0.000512906649634)
(-3.23309703158e-06 1.10077739659e-05 0.00050569977463)
(-4.16564571763e-06 1.02389127681e-05 0.00049568717899)
(-4.97721364927e-06 9.29575908887e-06 0.000482928363169)
(-5.65347855834e-06 8.21352679099e-06 0.000467470017075)
(-6.21949002897e-06 7.01255635164e-06 0.000449280217176)
(7.81356393983e-06 8.69789734845e-06 0.000520342960256)
(7.12479908145e-06 1.01108887349e-05 0.000540674328924)
(6.28802992162e-06 1.13802978444e-05 0.000557811444119)
(5.27339421277e-06 1.24880866368e-05 0.000571871488528)
(4.10270990525e-06 1.33921286548e-05 0.000582851549617)
(2.81087576185e-06 1.40603014138e-05 0.00059072544827)
(1.43469007894e-06 1.44708359609e-05 0.00059546559119)
(1.50797116202e-08 1.46100251529e-05 0.000597050975314)
(-1.40475236127e-06 1.4472913504e-05 0.000595468335471)
(-2.78161810897e-06 1.40643590627e-05 0.000590731120676)
(-4.07464480927e-06 1.33979679021e-05 0.000582860478303)
(-5.24712335274e-06 1.24954236325e-05 0.000571884287528)
(-6.26429463202e-06 1.13887687753e-05 0.000557829555407)
(-7.10418460139e-06 1.01203825943e-05 0.000540703752607)
(-7.79755575042e-06 8.70784073144e-06 0.000520399774935)
(9.32388406083e-06 1.02990815164e-05 0.000587570782013)
(8.50732733241e-06 1.18805519342e-05 0.000609575569048)
(7.51127052834e-06 1.32905060227e-05 0.000627967670466)
(6.29892251285e-06 1.45198886587e-05 0.000642963384946)
(4.89972417078e-06 1.55220583483e-05 0.000654612448177)
(3.35608504711e-06 1.6262120971e-05 0.000662931556471)
(1.71236771606e-06 1.67165290288e-05 0.00066792505434)
(1.72119540214e-08 1.68705111561e-05 0.000669592302965)
(-1.67820207196e-06 1.67187876325e-05 0.000667928343768)
(-3.32270809184e-06 1.62665442858e-05 0.000662938275804)
(-4.86771220395e-06 1.55284530368e-05 0.000654622797722)
(-6.26892274323e-06 1.45279706991e-05 0.00064297771914)
(-7.48403819471e-06 1.32998961449e-05 0.000627987038137)
(-8.48347378452e-06 1.18911376459e-05 0.000609606150206)
(-9.30497912666e-06 1.03102152493e-05 0.000587629614052)
(1.07089555609e-05 1.17508755427e-05 0.000650691137407)
(9.76673821454e-06 1.34484565026e-05 0.000673918765688)
(8.62014064289e-06 1.49457696429e-05 0.00069315598513)
(7.22471051236e-06 1.62480807606e-05 0.000708737843296)
(5.61679637238e-06 1.73072809425e-05 0.000720774936182)
(3.84539601144e-06 1.80881526196e-05 0.000729333244058)
(1.96123364678e-06 1.85670777056e-05 0.000734454283108)
(1.92168475177e-08 1.87292667623e-05 0.000736161207564)
(-1.92308682748e-06 1.85694704001e-05 0.000734458428075)
(-3.8081225912e-06 1.80928522804e-05 0.000729341605844)
(-5.58102146529e-06 1.73141079154e-05 0.000720787530087)
(-7.19111604089e-06 1.62567602827e-05 0.000708754663223)
(-8.58948756616e-06 1.49559209958e-05 0.000693177567158)
(-9.73966167353e-06 1.34599676151e-05 0.000673951518183)
(-1.06870992809e-05 1.17630417015e-05 0.00065075289981)
(1.1924830355e-05 1.30083370902e-05 0.000709529209857)
(1.0861970525e-05 1.47632510823e-05 0.000733532591213)
(9.57763832016e-06 1.62906057822e-05 0.000753224561716)
(8.01948542977e-06 1.76137511307e-05 0.000769070774664)
(6.22955664521e-06 1.86863254182e-05 0.000781243302878)
(4.2621463668e-06 1.94751777974e-05 0.000789858570244)
(2.1728277666e-06 1.9958254818e-05 0.000794997036246)
(2.10771788027e-08 2.01217341338e-05 0.000796706984213)
(-2.13097993184e-06 1.99607271827e-05 0.000795002517501)
(-4.22122968455e-06 1.94800492963e-05 0.000789869520991)
(-6.19022905249e-06 1.86934386461e-05 0.000781259512428)
(-7.98245209478e-06 1.76228524884e-05 0.000769091791152)
(-9.54365991297e-06 1.63013286912e-05 0.000753250301343)
(-1.08317095486e-05 1.47754923021e-05 0.000733569769388)
(-1.18999886141e-05 1.30213543691e-05 0.000709596206347)
(1.29377232687e-05 1.4037491817e-05 0.000763938285818)
(1.17619886112e-05 1.57870600408e-05 0.000788285295134)
(1.03561096576e-05 1.72857202095e-05 0.000808079827428)
(8.66001998905e-06 1.8576833801e-05 0.000823913869831)
(6.71999902082e-06 1.96188960138e-05 0.000836011162445)
(4.594068001e-06 2.03829641519e-05 0.000844534379226)
(2.34093106164e-06 2.08499585266e-05 0.00084960146567)
(2.27742749354e-08 2.10078689833e-05 0.000851285184987)
(-2.2956993892e-06 2.08524464404e-05 0.000849608956903)
(-4.54979729422e-06 2.03878838182e-05 0.000844549271139)
(-6.67736278895e-06 1.96261209709e-05 0.000836033009894)
(-8.61973503497e-06 1.85861460999e-05 0.000823941716073)
(-1.03189321756e-05 1.72967856008e-05 0.000808112854019)
(-1.17286118372e-05 1.5799799908e-05 0.000788330597005)
(-1.290988879e-05 1.4051146515e-05 0.000764014487582)
(1.37228591375e-05 1.48137789004e-05 0.000813766633659)
(1.244478899e-05 1.64936554273e-05 0.000838056958388)
(1.09364338244e-05 1.79058475986e-05 0.000857665382303)
(9.13042760921e-06 1.91137050877e-05 0.000873274331367)
(7.07588943785e-06 2.00832232845e-05 0.00088513907601)
(4.83285185188e-06 2.07914046936e-05 0.000893461518744)
(2.46133366582e-06 2.1223209774e-05 0.000898393679027)
(2.42865920178e-08 2.13690850446e-05 0.000900030598747)
(-2.41307901717e-06 2.12256410238e-05 0.000898404047125)
(-4.78556211733e-06 2.07962302183e-05 0.000893482124486)
(-7.0302372112e-06 2.00903570039e-05 0.000885169293012)
(-9.08712776873e-06 1.9122978791e-05 0.000873312693376)
(-1.08962329233e-05 1.79169821168e-05 0.000857710178298)
(-1.24084145704e-05 1.65066141042e-05 0.000838115600842)
(-1.36920599271e-05 1.48278152742e-05 0.000813857825684)
(1.42629776638e-05 1.53179872161e-05 0.000858798796335)
(1.28969637934e-05 1.68651761456e-05 0.00088270940957)
(1.13079483452e-05 1.81376451405e-05 0.000901945731993)
(9.42201677369e-06 1.92150088756e-05 0.000917195981128)
(7.29054944091e-06 2.00738607304e-05 0.000928730086203)
(4.97396312799e-06 2.06982565385e-05 0.000936786088238)
(2.53173109314e-06 2.10778396797e-05 0.000941546470647)
(2.55904806004e-08 2.12059311324e-05 0.000943125142427)
(-2.48086477274e-06 2.10801369862e-05 0.000941560726685)
(-4.92404531596e-06 2.0702835888e-05 0.000936814520172)
(-7.24223659802e-06 2.00806801849e-05 0.000928772051709)
(-9.37600850824e-06 1.92239659494e-05 0.000917249641413)
(-1.12649739093e-05 1.81485373194e-05 0.00090200827521)
(-1.2857784762e-05 1.68780354891e-05 0.000882787981778)
(-1.42293273161e-05 1.53320847039e-05 0.000858911822223)
(1.45567534545e-05 1.55353980019e-05 0.000898657645673)
(1.31197506578e-05 1.69101708601e-05 0.000922094204667)
(1.14719800361e-05 1.79894117719e-05 0.000940918220501)
(9.53446143374e-06 1.88920991199e-05 0.000955750397536)
(7.36326966865e-06 1.96051698042e-05 0.000966907798804)
(5.01674302537e-06 2.01203677722e-05 0.000974670483493)
(2.55173341106e-06 2.0432321429e-05 0.000979246768332)
(2.66625785504e-08 2.05374413727e-05 0.00098076414959)
(-2.49871445821e-06 2.04344121499e-05 0.000979265921793)
(-4.96464520694e-06 2.01245539172e-05 0.00097470890835)
(-7.31272230997e-06 1.96114534201e-05 0.0009669651763)
(-9.48613570016e-06 1.89004517033e-05 0.000955825017989)
(-1.14265745732e-05 1.7999736801e-05 0.000941006219027)
(-1.30780467375e-05 1.69225919243e-05 0.000922200727067)
(-1.45203883022e-05 1.554926987e-05 0.000898798930108)
(1.46099109905e-05 1.56592432972e-05 0.000932757246206)
(1.31190870655e-05 1.67059932735e-05 0.000956308706443)
(1.14253348335e-05 1.75160814125e-05 0.000974683090348)
(9.46502158138e-06 1.81835033173e-05 0.00098904248645)
(7.29255993736e-06 1.87028965983e-05 0.000999799408066)
(4.96049452696e-06 1.90744202745e-05 0.00100726709513)
(2.52107120319e-06 1.92979122108e-05 0.00101166501312)
(2.74870795435e-08 1.93730590684e-05 0.00101312434642)
(-2.46639448226e-06 1.92997018502e-05 0.00101168962093)
(-4.90670729166e-06 1.90780210715e-05 0.00100731676565)
(-7.24025967098e-06 1.87083479223e-05 0.000999874574189)
(-9.41483710652e-06 1.81908471454e-05 0.000989142590967)
(-1.13779145395e-05 1.75253215151e-05 0.000974804005648)
(-1.30753120212e-05 1.67174388147e-05 0.000956456641739)
(-1.45709012782e-05 1.56722746454e-05 0.000932923294103)
(-2.59389275246e-08 -4.43026437126e-08 3.33535071131e-05)
(-1.48552046242e-08 -5.98785332881e-08 3.48929554396e-05)
(-8.79501255045e-09 -6.96547474557e-08 3.62077755405e-05)
(-3.80275231152e-09 -7.66972126388e-08 3.73035397269e-05)
(-7.931120773e-10 -8.12585696566e-08 3.81715168723e-05)
(7.59706800898e-10 -8.40503209691e-08 3.8801016375e-05)
(1.07465709653e-09 -8.55059748427e-08 3.9183560452e-05)
(6.70842966478e-10 -8.59215180933e-08 3.93133797265e-05)
(2.41951453323e-10 -8.54047029e-08 3.91844939864e-05)
(4.83790068611e-10 -8.38506003251e-08 3.8802896148e-05)
(1.93134491391e-09 -8.09636899517e-08 3.81743753812e-05)
(4.8605851119e-09 -7.63074071573e-08 3.73074648721e-05)
(9.73167618469e-09 -6.92392494865e-08 3.62130031843e-05)
(1.56218861505e-08 -5.94362877706e-08 3.49002322431e-05)
(2.64718574265e-08 -4.39182161009e-08 3.33651743662e-05)
(-2.46996967564e-08 -6.43852749141e-08 0.000101162823701)
(3.09876233225e-09 -9.24257563816e-08 0.000105812667804)
(1.70385697131e-08 -1.08181769831e-07 0.000109795224537)
(2.50653992889e-08 -1.1744008138e-07 0.000113112619311)
(2.61547749749e-08 -1.21507039714e-07 0.000115738871937)
(2.17867409891e-08 -1.22721061688e-07 0.000117642895977)
(1.31448562812e-08 -1.22665950566e-07 0.000118799220285)
(2.10420200485e-09 -1.22417925952e-07 0.000119190181802)
(-9.00308715213e-09 -1.22373511866e-07 0.000118802083011)
(-1.78395078183e-08 -1.22143437831e-07 0.00011764866024)
(-2.24955347991e-08 -1.20657633886e-07 0.000115747637828)
(-2.16957416206e-08 -1.16337372114e-07 0.000113124649819)
(-1.40497922714e-08 -1.06977388193e-07 0.000109811215319)
(-6.17014370353e-10 -9.11354707623e-08 0.000105834797472)
(2.64760410016e-08 -6.32160078354e-08 0.00010119664676)
(3.4474551293e-08 -1.23663364512e-08 0.000169424403752)
(7.35991688335e-08 -3.49448493671e-08 0.000177198530108)
(8.98546012506e-08 -4.2134146545e-08 0.000183862658461)
(9.36160101562e-08 -4.10179845489e-08 0.000189411693686)
(8.41514929305e-08 -3.44199611705e-08 0.000193802176867)
(6.41041416575e-08 -2.65125587932e-08 0.000196983837442)
(3.60514134485e-08 -2.03186574107e-08 0.000198914894547)
(3.60304653649e-09 -1.78574979961e-08 0.000199566430412)
(-2.89462915039e-08 -1.98624485358e-08 0.000198919693761)
(-5.72942028087e-08 -2.56104103725e-08 0.000196993500484)
(-7.77916053186e-08 -3.30910179196e-08 0.000193816865533)
(-8.77671684458e-08 -3.93025780672e-08 0.000189431817771)
(-8.4662100406e-08 -4.02211796299e-08 0.000183889265775)
(-6.92266658672e-08 -3.28898245952e-08 0.000177234854181)
(-3.12640955068e-08 -1.04261815583e-08 0.000169478414652)
(1.75541059997e-07 1.36569875599e-07 0.000237872231883)
(2.20729087186e-07 1.41005538898e-07 0.000248748068735)
(2.32226501368e-07 1.62343058239e-07 0.00025806963907)
(2.21971700615e-07 1.91415382501e-07 0.000265827028436)
(1.89628145067e-07 2.23272085328e-07 0.00027196032769)
(1.39377167552e-07 2.51276863991e-07 0.000276402208013)
(7.58529308174e-08 2.70433259643e-07 0.000279096331767)
(5.15241370237e-09 2.77424163126e-07 0.000280003969512)
(-6.56800487859e-08 2.71053568611e-07 0.000279103029898)
(-1.29590659109e-07 2.52501107878e-07 0.000276415690764)
(-1.8044506469e-07 2.250682284e-07 0.000271980802909)
(-2.13526819325e-07 1.93719620104e-07 0.000265855000235)
(-2.24724120123e-07 1.64951945277e-07 0.000258106356161)
(-2.14347894091e-07 1.43831121198e-07 0.000248797405441)
(-1.70735665529e-07 1.39308846653e-07 0.000237943672003)
(3.92029214684e-07 3.72643325e-07 0.000306211831489)
(4.38203503429e-07 4.21164240346e-07 0.00032012291406)
(4.38131165105e-07 4.87349175049e-07 0.000332033247831)
(4.04821502772e-07 5.58712228584e-07 0.000341935884503)
(3.38302140993e-07 6.27660840147e-07 0.000349757606733)
(2.44615988968e-07 6.84604931579e-07 0.00035541754143)
(1.31013656817e-07 7.22191533018e-07 0.000358847800776)
(6.74307753963e-09 7.35562258884e-07 0.000360002094329)
(-1.1768895393e-07 7.22973678941e-07 0.000358856374116)
(-2.31765073597e-07 6.86144609539e-07 0.000355434786176)
(-3.26203146219e-07 6.29909521786e-07 0.000349783745965)