/*--------------------------------*- C++ -*----------------------------------*\
  =========                 |
  \\      /  F ield         | OpenFOAM: The Open Source CFD Toolbox
   \\    /   O peration     | Website:  https://openfoam.org
    \\  /    A nd           | Version:  7
     \\/     M anipulation  |
\*---------------------------------------------------------------------------*/
FoamFile
{
    version     2.0;
    format      ascii;
    class       volScalarField;
    location    "0.8";
    object      p;
}
// * * * * * * * * * * * * * * * * * * * * * * * * * * * * * * * * * * * * * //

dimensions      [0 2 -2 0 0 0 0];

internalField   nonuniform List<scalar> 
22500
(
-9.70315044309e-06
-9.7027569944e-06
-9.70307074041e-06
-9.70308063731e-06
-9.70315689854e-06
-9.70320663192e-06
-9.70324045846e-06
-9.70324553649e-06
-9.70323028575e-06
-9.70318647738e-06
-9.70312730505e-06
-9.7030426707e-06
-9.70302594167e-06
-9.70270775045e-06
-9.70309695958e-06
-9.69846410811e-06
-9.69775130828e-06
-9.69787052822e-06
-9.69770569214e-06
-9.69763834245e-06
-9.69758118801e-06
-9.69754944619e-06
-9.69753331788e-06
-9.69753909914e-06
-9.69756070648e-06
-9.69760828264e-06
-9.69766710606e-06
-9.69782490397e-06
-9.69770102136e-06
-9.6984093959e-06
-9.69340432538e-06
-9.69234681862e-06
-9.69221314953e-06
-9.69181811131e-06
-9.69156827014e-06
-9.69137360431e-06
-9.69125729098e-06
-9.69121308465e-06
-9.69124682914e-06
-9.69135290408e-06
-9.69153789812e-06
-9.6917791153e-06
-9.69216695761e-06
-9.69229578491e-06
-9.69334859294e-06
-9.68798906387e-06
-9.68654952187e-06
-9.68606331695e-06
-9.68536546348e-06
-9.68486877081e-06
-9.6844889729e-06
-9.68425795906e-06
-9.68417525408e-06
-9.68424745443e-06
-9.68446819592e-06
-9.68483828524e-06
-9.68532628404e-06
-9.68601680588e-06
-9.68649797607e-06
-9.68793258553e-06
-9.68182630686e-06
-9.679917693e-06
-9.67895659745e-06
-9.67786257771e-06
-9.67703540264e-06
-9.67640825383e-06
-9.67602337172e-06
-9.67588881382e-06
-9.67601289758e-06
-9.67638753878e-06
-9.67700500337e-06
-9.67782346346e-06
-9.67891005222e-06
-9.67986586973e-06
-9.68176928639e-06
-9.67474845598e-06
-9.67225659771e-06
-9.6707008074e-06
-9.66911430367e-06
-9.6678714369e-06
-9.66693313828e-06
-9.66635437807e-06
-9.66615432519e-06
-9.66634397419e-06
-9.66691256355e-06
-9.66784122823e-06
-9.66907537272e-06
-9.67065435187e-06
-9.67220461546e-06
-9.67469108583e-06
-9.66670512055e-06
-9.66350294474e-06
-9.66124416559e-06
-9.65907571934e-06
-9.65733903762e-06
-9.65603092208e-06
-9.65522165743e-06
-9.65494363856e-06
-9.65521136427e-06
-9.65601056329e-06
-9.65730912867e-06
-9.6590371097e-06
-9.66119797015e-06
-9.66345096049e-06
-9.66664757293e-06
-9.65768601335e-06
-9.65364584977e-06
-9.65059272089e-06
-9.64776701663e-06
-9.64547179643e-06
-9.64374528164e-06
-9.64267542727e-06
-9.64230922195e-06
-9.64266525799e-06
-9.64372516281e-06
-9.64544221924e-06
-9.64772876598e-06
-9.65054683955e-06
-9.6535939426e-06
-9.65762844102e-06
-9.6477127125e-06
-9.6427207037e-06
-9.63880451804e-06
-9.63526753083e-06
-9.63236844866e-06
-9.63018970909e-06
-9.62883867709e-06
-9.62837733751e-06
-9.62882864019e-06
-9.63016984485e-06
-9.63233922249e-06
-9.63522966924e-06
-9.63875899468e-06
-9.64266894103e-06
-9.64765516316e-06
-9.63684088447e-06
-9.63081119724e-06
-9.6259916432e-06
-9.62171665742e-06
-9.61819252653e-06
-9.61554617998e-06
-9.61390521078e-06
-9.61334586014e-06
-9.61389530024e-06
-9.61552655812e-06
-9.61816362733e-06
-9.62167915783e-06
-9.62594646113e-06
-9.63075959147e-06
-9.63678339947e-06
-9.62515811085e-06
-9.61804471072e-06
-9.6123169631e-06
-9.60730919439e-06
-9.60316587888e-06
-9.60005722662e-06
-9.59813078881e-06
-9.59747513942e-06
-9.59812099985e-06
-9.60003783013e-06
-9.60313728277e-06
-9.60727201804e-06
-9.61227208189e-06
-9.61799323605e-06
-9.62510059304e-06
-9.6127408901e-06
-9.60457415726e-06
-9.59799027621e-06
-9.5922916511e-06
-9.5875631221e-06
-9.58401903049e-06
-9.58182554479e-06
-9.58108014394e-06
-9.5818158741e-06
-9.58399985127e-06
-9.58753479643e-06
-9.59225475453e-06
-9.59794563658e-06
-9.6045227707e-06
-9.61268324764e-06
-9.59957246904e-06
-9.59058895781e-06
-9.58328412201e-06
-9.57696693326e-06
-9.5717117969e-06
-9.56778137703e-06
-9.56535448665e-06
-9.56453133292e-06
-9.56534494212e-06
-9.56776241943e-06
-9.57168374964e-06
-9.576930294e-06
-9.58323966924e-06
-9.59053760651e-06
-9.59951464676e-06
-9.58605145296e-06
-9.57654039952e-06
-9.56855866566e-06
-9.56165941899e-06
-9.55593720575e-06
-9.55168572428e-06
-9.54907313404e-06
-9.54818936558e-06
-9.5490637399e-06
-9.55166704081e-06
-9.55590947386e-06
-9.56162306345e-06
-9.56851438466e-06
-9.57648896038e-06
-9.58599356118e-06
-9.5751631509e-06
-9.56302099117e-06
-9.55413533993e-06
-9.54652952531e-06
-9.5403487073e-06
-9.53582066715e-06
-9.53305968209e-06
-9.53212928046e-06
-9.53305043386e-06
-9.53580224546e-06
-9.54032129208e-06
-9.54649342105e-06
-9.55409103955e-06
-9.56296909459e-06
-9.57510516947e-06
-1.0667800112e-05
-1.06674859532e-05
-1.06670706667e-05
-1.06667085079e-05
-1.06663895313e-05
-1.06661477897e-05
-1.06659965851e-05
-1.06659463595e-05
-1.06660002701e-05
-1.06661549885e-05
-1.06663999039e-05
-1.0666721611e-05
-1.06670861201e-05
-1.06675033369e-05
-1.06678197376e-05
-1.06659888851e-05
-1.06656804784e-05
-1.0665262762e-05
-1.06649036922e-05
-1.06645882397e-05
-1.06643498826e-05
-1.06642010927e-05
-1.0664151691e-05
-1.06642047711e-05
-1.06643570533e-05
-1.06645985365e-05
-1.06649166606e-05
-1.06652780421e-05
-1.0665697762e-05
-1.06660085111e-05
-1.06650377592e-05
-1.06648301914e-05
-1.06644905603e-05
-1.06642093039e-05
-1.06639581554e-05
-1.06637686419e-05
-1.06636502136e-05
-1.06636111073e-05
-1.06636539528e-05
-1.06637759544e-05
-1.06639687056e-05
-1.06642226494e-05
-1.0664506293e-05
-1.06648479321e-05
-1.06650577121e-05
-1.06651348998e-05
-1.06650860874e-05
-1.06648706398e-05
-1.06647056884e-05
-1.0664548694e-05
-1.06644287136e-05
-1.06643527779e-05
-1.06643279382e-05
-1.06643565362e-05
-1.06644360864e-05
-1.06645593782e-05
-1.06647192642e-05
-1.06648866791e-05
-1.06651041611e-05
-1.0665155133e-05
-1.06658198943e-05
-1.066591933e-05
-1.0665815101e-05
-1.06657482441e-05
-1.06656673902e-05
-1.06656012261e-05
-1.06655571817e-05
-1.06655428463e-05
-1.06655609023e-05
-1.0665608548e-05
-1.06656780563e-05
-1.06657618754e-05
-1.06658312805e-05
-1.06659375804e-05
-1.06658402631e-05
-1.06667270692e-05
-1.06669158179e-05
-1.06668717245e-05
-1.06668499004e-05
-1.06667988892e-05
-1.06667501866e-05
-1.06667149282e-05
-1.06667031459e-05
-1.06667185522e-05
-1.06667573401e-05
-1.06668093562e-05
-1.06668633581e-05
-1.06668877954e-05
-1.06669340308e-05
-1.06667474095e-05
-1.06675989949e-05
-1.06677915619e-05
-1.06677398019e-05
-1.06676969889e-05
-1.06676205345e-05
-1.06675473998e-05
-1.06674948892e-05
-1.06674768196e-05
-1.06674983781e-05
-1.06675543106e-05
-1.06676307021e-05
-1.06677101542e-05
-1.06677556331e-05
-1.0667809611e-05
-1.0667619135e-05
-1.06682506732e-05
-1.06683547384e-05
-1.06682275031e-05
-1.06681009469e-05
-1.06679483035e-05
-1.06678134403e-05
-1.06677209636e-05
-1.06676889842e-05
-1.06677242781e-05
-1.06678200282e-05
-1.06679580519e-05
-1.06681136637e-05
-1.06682429251e-05
-1.06683724467e-05
-1.06682704789e-05
-1.06685661891e-05
-1.06684981285e-05
-1.06682384199e-05
-1.06679783504e-05
-1.06677108357e-05
-1.06674868273e-05
-1.06673381048e-05
-1.06672868292e-05
-1.06673412202e-05
-1.06674930444e-05
-1.06677200941e-05
-1.06679905273e-05
-1.0668253317e-05
-1.06685153639e-05
-1.06685854694e-05
-1.0668492158e-05
-1.06681871089e-05
-1.06677537437e-05
-1.06673270423e-05
-1.06669203608e-05
-1.06665909951e-05
-1.06663768336e-05
-1.06663032932e-05
-1.06663797225e-05
-1.06665967866e-05
-1.06669290437e-05
-1.06673385676e-05
-1.0667767983e-05
-1.06682037239e-05
-1.06685107693e-05
-1.06680234968e-05
-1.06674399288e-05
-1.06668080979e-05
-1.06661977214e-05
-1.06656411189e-05
-1.06652005417e-05
-1.06649182048e-05
-1.06648216365e-05
-1.06649208471e-05
-1.06652058637e-05
-1.06656491635e-05
-1.06662085014e-05
-1.06668215553e-05
-1.06674557735e-05
-1.06680412355e-05
-1.0667192534e-05
-1.0666310844e-05
-1.06654687742e-05
-1.06646705264e-05
-1.06639644566e-05
-1.06634153985e-05
-1.06630675343e-05
-1.06629489814e-05
-1.06630699071e-05
-1.06634202051e-05
-1.06639717837e-05
-1.0664680459e-05
-1.06654813185e-05
-1.0666325758e-05
-1.06672092673e-05
-1.06660676247e-05
-1.06648746605e-05
-1.06638160706e-05
-1.06628355398e-05
-1.06619900837e-05
-1.06613428004e-05
-1.06609366342e-05
-1.0660798734e-05
-1.0660938709e-05
-1.06613470343e-05
-1.06619966196e-05
-1.0662844516e-05
-1.0663827554e-05
-1.06648884641e-05
-1.06660831238e-05
-1.0664685217e-05
-1.06631652344e-05
-1.06619078187e-05
-1.06607689095e-05
-1.06598106376e-05
-1.06590869395e-05
-1.0658636601e-05
-1.06584841385e-05
-1.06586383509e-05
-1.06590905495e-05
-1.06598162791e-05
-1.06607767966e-05
-1.06619181084e-05
-1.06631777729e-05
-1.06646992957e-05
-1.06627038436e-05
-1.06612009641e-05
-1.06598059161e-05
-1.06585658817e-05
-1.06575456536e-05
-1.06567834644e-05
-1.06563121841e-05
-1.06561531027e-05
-1.06563136081e-05
-1.06567864552e-05
-1.06575504184e-05
-1.06585726813e-05
-1.06598149279e-05
-1.06612122262e-05
-1.06627165258e-05
-8.93460480526e-06
-8.93479390501e-06
-8.9349922651e-06
-8.93518239169e-06
-8.93534788026e-06
-8.93547467347e-06
-8.93555361237e-06
-8.93557895104e-06
-8.9355483312e-06
-8.93546433617e-06
-8.93533303945e-06
-8.93516393977e-06
-8.93497127816e-06
-8.93477219881e-06
-8.93458404826e-06
-8.93486736505e-06
-8.93505419994e-06
-8.93525495241e-06
-8.93544782386e-06
-8.93561631333e-06
-8.93574572674e-06
-8.93582648115e-06
-8.93585252055e-06
-8.93582125981e-06
-8.93573551733e-06
-8.93560166906e-06
-8.93542962017e-06
-8.93523427742e-06
-8.93503274531e-06
-8.93484675057e-06
-8.93485481826e-06
-8.93501883253e-06
-8.93520110277e-06
-8.93537853693e-06
-8.93553519028e-06
-8.93565623375e-06
-8.93573204627e-06
-8.93575649551e-06
-8.93572692802e-06
-8.93564622591e-06
-8.93552082431e-06
-8.93536066465e-06
-8.93518082801e-06
-8.93499772761e-06
-8.93483442993e-06
-8.934769814e-06
-8.93491301613e-06
-8.93507758874e-06
-8.93523949172e-06
-8.93538412861e-06
-8.93549666389e-06
-8.93556745742e-06
-8.93559029986e-06
-8.93556250513e-06
-8.93548697594e-06
-8.93537019886e-06
-8.93522212448e-06
-8.93505785977e-06
-8.93489241803e-06
-8.93474979001e-06
-8.93468367635e-06
-8.934811482e-06
-8.93496284967e-06
-8.93511267676e-06
-8.93524796795e-06
-8.93535393396e-06
-8.93542089127e-06
-8.9354425448e-06
-8.9354161703e-06
-8.93534469634e-06
-8.93523467332e-06
-8.93509606837e-06
-8.93494393274e-06
-8.9347916308e-06
-8.93466418006e-06
-8.93459820694e-06
-8.93471502064e-06
-8.93485661203e-06
-8.93499716414e-06
-8.93512520599e-06
-8.93522607624e-06
-8.9352900801e-06
-8.93531084895e-06
-8.93528563569e-06
-8.93521737635e-06
-8.93511266252e-06
-8.9349814469e-06
-8.9348386305e-06
-8.93469602197e-06
-8.93457939364e-06
-8.93451345677e-06
-8.93462324154e-06
-8.93475794222e-06
-8.93489172913e-06
-8.9350143494e-06
-8.93511137684e-06
-8.93517314835e-06
-8.93519327737e-06
-8.93516902148e-06
-8.93510329415e-06
-8.93500267489e-06
-8.93487704937e-06
-8.93474106012e-06
-8.93460524416e-06
-8.93449543875e-06
-8.93443282059e-06
-8.9345394098e-06
-8.93466979296e-06
-8.93479905265e-06
-8.93491781986e-06
-8.93501203451e-06
-8.93507214245e-06
-8.93509181699e-06
-8.93506835497e-06
-8.93500460864e-06
-8.93490706621e-06
-8.93478546611e-06
-8.93465406503e-06
-8.93452249182e-06
-8.93441571027e-06
-8.93435851351e-06
-8.93446523756e-06
-8.93459337803e-06
-8.93471992694e-06
-8.93483604181e-06
-8.93492816697e-06
-8.9349869763e-06
-8.93500630755e-06
-8.93498354282e-06
-8.93492142501e-06
-8.93482624863e-06
-8.9347074875e-06
-8.93457886557e-06
-8.9344494753e-06
-8.93434238698e-06
-8.93429087425e-06
-8.9344004555e-06
-8.93452790256e-06
-8.9346530534e-06
-8.93476725732e-06
-8.93485764099e-06
-8.93491527673e-06
-8.93493428605e-06
-8.93491219888e-06
-8.93485158579e-06
-8.93475842471e-06
-8.93464176273e-06
-8.93451461856e-06
-8.93438588375e-06
-8.934275837e-06
-8.93422923796e-06
-8.93434361569e-06
-8.93447146391e-06
-8.93459605456e-06
-8.93470864111e-06
-8.93479726653e-06
-8.9348536077e-06
-8.93487223583e-06
-8.93485088261e-06
-8.93479188918e-06
-8.93470076048e-06
-8.93458590376e-06
-8.93445941302e-06
-8.93433025861e-06
-8.93421533465e-06
-8.9341712542e-06
-8.93429217568e-06
-8.93442160154e-06
-8.9345462568e-06
-8.93465721088e-06
-8.93474375686e-06
-8.93479849704e-06
-8.93481660875e-06
-8.93479611559e-06
-8.93473904148e-06
-8.93465025191e-06
-8.93453721985e-06
-8.93441076497e-06
-8.93428004746e-06
-8.93415853785e-06
-8.9341095837e-06
-8.934241182e-06
-8.93437486675e-06
-8.93450066287e-06
-8.93461012396e-06
-8.93469439137e-06
-8.93474726777e-06
-8.93476476392e-06
-8.9347452173e-06
-8.93469030509e-06
-8.93460405485e-06
-8.93449269396e-06
-8.93436521184e-06
-8.93423026649e-06
-8.9340980523e-06
-8.93404475223e-06
-8.93419389209e-06
-8.93433156681e-06
-8.93445804195e-06
-8.93456517372e-06
-8.93464646578e-06
-8.93469708341e-06
-8.93471379557e-06
-8.93469533724e-06
-8.93464297287e-06
-8.93455992325e-06
-8.93445108201e-06
-8.93432303881e-06
-8.93418415637e-06
-8.93403441559e-06
-8.93410940616e-06
-8.93420869308e-06
-8.93432846941e-06
-8.93443674308e-06
-8.93452714381e-06
-8.93459543587e-06
-8.93463781053e-06
-8.93465176243e-06
-8.93463632672e-06
-8.93459244204e-06
-8.93452261285e-06
-8.9344306686e-06
-8.93432095465e-06
-8.93420002095e-06
-8.93410011329e-06
-9.37839400941e-06
-9.37826028995e-06
-9.37812212429e-06
-9.37798629347e-06
-9.37786787978e-06
-9.37777664635e-06
-9.37771942323e-06
-9.37770032157e-06
-9.37772100597e-06
-9.37777946799e-06
-9.37787129431e-06
-9.3779894295e-06
-9.3781242773e-06
-9.37826109393e-06
-9.37839398461e-06
-9.37830019686e-06
-9.37817019599e-06
-9.37803242007e-06
-9.37789627924e-06
-9.37777703197e-06
-9.3776848466e-06
-9.37762686985e-06
-9.37760744087e-06
-9.37762838906e-06
-9.3776875481e-06
-9.37778028852e-06
-9.37789926341e-06
-9.37803443171e-06
-9.37817092578e-06
-9.37830009137e-06
-9.37839781559e-06
-9.37828484058e-06
-9.37816177684e-06
-9.37803764104e-06
-9.37792768276e-06
-9.37784202678e-06
-9.37778790041e-06
-9.3777697022e-06
-9.37778932816e-06
-9.37784457334e-06
-9.37793077392e-06
-9.37804053177e-06
-9.37816379211e-06
-9.3782856948e-06
-9.3783977777e-06
-9.37851357169e-06
-9.37841414882e-06
-9.37830371481e-06
-9.37819035061e-06
-9.37808880397e-06
-9.37800909417e-06
-9.37795848293e-06
-9.37794140973e-06
-9.37795979685e-06
-9.3780114409e-06
-9.37809166108e-06
-9.37819305381e-06
-9.37830565203e-06
-9.37841504282e-06
-9.37851360648e-06
-9.37860797498e-06
-9.37851758405e-06
-9.3784161671e-06
-9.37831094917e-06
-9.37821585752e-06
-9.37814074372e-06
-9.37809283526e-06
-9.37807661225e-06
-9.37809401236e-06
-9.3781428517e-06
-9.37821844722e-06
-9.37831344329e-06
-9.37841802997e-06
-9.37851852507e-06
-9.37860808149e-06
-9.37869044446e-06
-9.37860640759e-06
-9.37851183779e-06
-9.37841312859e-06
-9.37832333146e-06
-9.37825204971e-06
-9.37820641936e-06
-9.37819090822e-06
-9.3782074539e-06
-9.37825390585e-06
-9.37832561926e-06
-9.37841535641e-06
-9.3785135393e-06
-9.37860733375e-06
-9.37869058409e-06
-9.37876660247e-06
-9.37868685901e-06
-9.37859745751e-06
-9.37850400497e-06
-9.37841863797e-06
-9.37835064487e-06
-9.37830699602e-06
-9.37829210405e-06
-9.37830788582e-06
-9.3783522494e-06
-9.37842063436e-06
-9.37850598831e-06
-9.37859902788e-06
-9.37868779137e-06
-9.37876678907e-06
-9.37883743534e-06
-9.3787602306e-06
-9.37867449053e-06
-9.37858512131e-06
-9.37850335969e-06
-9.37843814358e-06
-9.37839620881e-06
-9.3783818607e-06
-9.37839696247e-06
-9.3784395076e-06
-9.37850506991e-06
-9.37858684617e-06
-9.37867590228e-06
-9.37876112892e-06
-9.37883767349e-06
-9.37890357889e-06
-9.37882733259e-06
-9.37874393718e-06
-9.37865762179e-06
-9.37857877647e-06
-9.3785159276e-06
-9.3784755042e-06
-9.37846164701e-06
-9.37847613595e-06
-9.37851707767e-06
-9.37858023857e-06
-9.37865913041e-06
-9.37874522337e-06
-9.37882821308e-06
-9.37890385261e-06
-9.3789659103e-06
-9.37888936111e-06
-9.37880720211e-06
-9.37872306969e-06
-9.37864658239e-06
-9.37858578886e-06
-9.37854674552e-06
-9.37853334933e-06
-9.37854726878e-06
-9.37858674958e-06
-9.37864781688e-06
-9.37872437408e-06
-9.37880835966e-06
-9.37889021495e-06
-9.37896622377e-06
-9.37902533543e-06
-9.37894740503e-06
-9.37886553483e-06
-9.37878288716e-06
-9.3787083686e-06
-9.37864947634e-06
-9.3786117736e-06
-9.37859884703e-06
-9.37861220692e-06
-9.37865027705e-06
-9.37870941594e-06
-9.37878401745e-06
-9.37886658101e-06
-9.37894822113e-06
-9.37902566042e-06
-9.37908292702e-06
-9.37900256852e-06
-9.37892005908e-06
-9.37883827128e-06
-9.37876548238e-06
-9.37870844487e-06
-9.37867214191e-06
-9.37865971433e-06
-9.37867249827e-06
-9.37870911303e-06
-9.37876635767e-06
-9.37883924591e-06
-9.37892099382e-06
-9.37900334517e-06
-9.37908326629e-06
-9.37914229112e-06
-9.37905750057e-06
-9.37897267543e-06
-9.37889075081e-06
-9.37881920044e-06
-9.37876388861e-06
-9.37872893047e-06
-9.37871702984e-06
-9.37872922399e-06
-9.37876442528e-06
-9.3788199357e-06
-9.37889156837e-06
-9.37897349702e-06
-9.37905821189e-06
-9.37914261426e-06
-9.37920526935e-06
-9.37911260339e-06
-9.37902438598e-06
-9.37894154313e-06
-9.37887096706e-06
-9.37881717083e-06
-9.37878352969e-06
-9.37877210156e-06
-9.37878375536e-06
-9.37881761148e-06
-9.3788715465e-06
-9.37894222656e-06
-9.37902509056e-06
-9.37911325633e-06
-9.37920556187e-06
-9.37920351813e-06
-9.3791258492e-06
-9.37904641169e-06
-9.37897387934e-06
-9.37891317493e-06
-9.37886732331e-06
-9.37883876194e-06
-9.37882910962e-06
-9.37883894882e-06
-9.37886767253e-06
-9.37891366481e-06
-9.37897445724e-06
-9.37904703449e-06
-9.37912645378e-06
-9.37920384885e-06
-8.24919191549e-06
-8.24928629794e-06
-8.24938252311e-06
-8.24947670523e-06
-8.24955865627e-06
-8.24962172942e-06
-8.24966092835e-06
-8.2496733144e-06
-8.24965765468e-06
-8.24961533208e-06
-8.2495494277e-06
-8.249464949e-06
-8.24936866373e-06
-8.24927129738e-06
-8.24917662785e-06
-8.2492512869e-06
-8.2493428684e-06
-8.24943876372e-06
-8.24953318588e-06
-8.24961577328e-06
-8.24967953902e-06
-8.24971928571e-06
-8.24973190914e-06
-8.2497160559e-06
-8.24967322699e-06
-8.24960666645e-06
-8.24952159556e-06
-8.24942511182e-06
-8.24932804794e-06
-8.24923613738e-06
-8.24917427463e-06
-8.2492536582e-06
-8.24933915755e-06
-8.2494252443e-06
-8.24950138072e-06
-8.24956057541e-06
-8.24959762411e-06
-8.24960938475e-06
-8.24959446119e-06
-8.24955438228e-06
-8.24949242591e-06
-8.24941386219e-06
-8.24932580671e-06
-8.24923913749e-06
-8.2491593982e-06
-8.24908686326e-06
-8.2491567167e-06
-8.24923342246e-06
-8.24931211059e-06
-8.24938246052e-06
-8.24943754383e-06
-8.24947216764e-06
-8.24948315754e-06
-8.24946910361e-06
-8.24943153603e-06
-8.24937375221e-06
-8.24930103398e-06
-8.24922044104e-06
-8.24914258558e-06
-8.24907234443e-06
-8.24901612589e-06
-8.24907953942e-06
-8.24914995723e-06
-8.24922306937e-06
-8.24928898246e-06
-8.24934088113e-06
-8.24937362267e-06
-8.24938403053e-06
-8.24937068901e-06
-8.24933512207e-06
-8.24928062481e-06
-8.24921244221e-06
-8.24913751583e-06
-8.2490659712e-06
-8.24900208971e-06
-8.24895420235e-06
-8.24901289716e-06
-8.24907834864e-06
-8.24914677591e-06
-8.24920885422e-06
-8.2492579455e-06
-8.24928901656e-06
-8.24929891374e-06
-8.24928623768e-06
-8.24925248654e-06
-8.24920091922e-06
-8.24913667376e-06
-8.24906650259e-06
-8.24899992854e-06
-8.24894073611e-06
-8.24889612117e-06
-8.2489511214e-06
-8.24901245986e-06
-8.24907678918e-06
-8.24913538775e-06
-8.2491818623e-06
-8.24921134897e-06
-8.24922076343e-06
-8.24920874471e-06
-8.24917674405e-06
-8.24912793988e-06
-8.2490672976e-06
-8.24900131382e-06
-8.2489388517e-06
-8.24888329097e-06
-8.24884036687e-06
-8.2488924882e-06
-8.2489503922e-06
-8.249011059e-06
-8.24906642397e-06
-8.24911040073e-06
-8.2491383465e-06
-8.24914729098e-06
-8.2491359299e-06
-8.24910564833e-06
-8.24905949709e-06
-8.24900220788e-06
-8.24893996179e-06
-8.24888094111e-06
-8.24882821803e-06
-8.24878585175e-06
-8.24883565346e-06
-8.2488906542e-06
-8.24894801729e-06
-8.24900033933e-06
-8.24904189098e-06
-8.24906830585e-06
-8.2490767795e-06
-8.24906608371e-06
-8.24903751697e-06
-8.2489939547e-06
-8.2489398363e-06
-8.24888097288e-06
-8.24882486963e-06
-8.24877441412e-06
-8.24873142772e-06
-8.2487793781e-06
-8.24883190141e-06
-8.24888624887e-06
-8.24893565752e-06
-8.24897480794e-06
-8.24899967807e-06
-8.2490076662e-06
-8.24899765119e-06
-8.24897081532e-06
-8.24892981403e-06
-8.24887873479e-06
-8.24882296241e-06
-8.24876935662e-06
-8.24872074279e-06
-8.24867625692e-06
-8.24872271596e-06
-8.248773144e-06
-8.24882474058e-06
-8.24887132324e-06
-8.24890806743e-06
-8.24893134534e-06
-8.24893882844e-06
-8.24892951046e-06
-8.24890444653e-06
-8.24886601279e-06
-8.24881788099e-06
-8.24876494256e-06
-8.24871345621e-06
-8.24866632973e-06
-8.24861951376e-06
-8.24866500857e-06
-8.2487138415e-06
-8.24876298669e-06
-8.24880683721e-06
-8.24884113294e-06
-8.24886276616e-06
-8.24886970545e-06
-8.24886111549e-06
-8.24883787106e-06
-8.24880203041e-06
-8.24875675803e-06
-8.24870634883e-06
-8.2486565014e-06
-8.24861035168e-06
-8.24855892406e-06
-8.24860475092e-06
-8.24865309036e-06
-8.24870049116e-06
-8.24874192948e-06
-8.24877394936e-06
-8.24879396233e-06
-8.24880038287e-06
-8.24879248554e-06
-8.24877101327e-06
-8.24873760392e-06
-8.24869483799e-06
-8.24864626509e-06
-8.24859695502e-06
-8.24855050352e-06
-8.24849319581e-06
-8.24854174885e-06
-8.24859055263e-06
-8.24863689645e-06
-8.24867639102e-06
-8.24870637771e-06
-8.2487249776e-06
-8.24873089267e-06
-8.24872364975e-06
-8.24870374924e-06
-8.24867247365e-06
-8.2486317769e-06
-8.24858431305e-06
-8.2485346017e-06
-8.24848546791e-06
-8.24846933794e-06
-8.24850665615e-06
-8.24854761917e-06
-8.24858529338e-06
-8.24861677552e-06
-8.24864051098e-06
-8.2486551174e-06
-8.24865970959e-06
-8.24865391972e-06
-8.2486381161e-06
-8.24861321114e-06
-8.24858058158e-06
-8.24854187205e-06
-8.24850002218e-06
-8.24846215083e-06
-8.24332217695e-06
-8.24325400275e-06
-8.24318376039e-06
-8.24311468075e-06
-8.24305453864e-06
-8.2430082202e-06
-8.24297923204e-06
-8.24296955431e-06
-8.24297994e-06
-8.24300930812e-06
-8.24305543094e-06
-8.24311474761e-06
-8.24318250442e-06
-8.24325113423e-06
-8.24331817853e-06
-8.24328068591e-06
-8.24321450837e-06
-8.2431446037e-06
-8.24307545795e-06
-8.24301496181e-06
-8.24296822337e-06
-8.24293888011e-06
-8.24292903895e-06
-8.2429395394e-06
-8.24296922904e-06
-8.24301576765e-06
-8.24307544864e-06
-8.24314328842e-06
-8.24321164844e-06
-8.243276687e-06
-8.24333595532e-06
-8.24327845666e-06
-8.24321613272e-06
-8.24315313116e-06
-8.24309737255e-06
-8.24305394272e-06
-8.24302652539e-06
-8.24301727532e-06
-8.24302707685e-06
-8.24305476278e-06
-8.24309797275e-06
-8.24315296849e-06
-8.24321475931e-06
-8.2432756729e-06
-8.24333202149e-06
-8.24339817693e-06
-8.24334751781e-06
-8.24329160586e-06
-8.24323402185e-06
-8.24318247835e-06
-8.24314201327e-06
-8.24311632555e-06
-8.24310760394e-06
-8.24311675575e-06
-8.24314262216e-06
-8.24318283202e-06
-8.24323364195e-06
-8.24329010337e-06
-8.24334472865e-06
-8.24339432486e-06
-8.24344814708e-06
-8.24340205666e-06
-8.24335076601e-06
-8.24329733478e-06
-8.24324907819e-06
-8.24321093785e-06
-8.24318659407e-06
-8.24317826607e-06
-8.24318688086e-06
-8.24321129707e-06
-8.24324914893e-06
-8.24329672129e-06
-8.24334915061e-06
-8.24339928913e-06
-8.2434443841e-06
-8.24349163261e-06
-8.24344895097e-06
-8.24340133461e-06
-8.24335137329e-06
-8.24330595281e-06
-8.2432698706e-06
-8.24324673968e-06
-8.24323876999e-06
-8.24324689332e-06
-8.24326999716e-06
-8.2433057492e-06
-8.24335051297e-06
-8.24339956028e-06
-8.24344616809e-06
-8.24348794157e-06
-8.24353226806e-06
-8.24349225544e-06
-8.24344770664e-06
-8.24340084285e-06
-8.24335804805e-06
-8.24332392384e-06
-8.24330196582e-06
-8.24329434572e-06
-8.24330198717e-06
-8.24332382363e-06
-8.24335758745e-06
-8.24339977045e-06
-8.24344582623e-06
-8.24348949971e-06
-8.24352867965e-06
-8.24357124586e-06
-8.24353341091e-06
-8.24349145887e-06
-8.24344737068e-06
-8.24340702221e-06
-8.24337478416e-06
-8.24335398861e-06
-8.24334672802e-06
-8.24335389832e-06
-8.24337449177e-06
-8.24340634051e-06
-8.24344610837e-06
-8.24348947457e-06
-8.24353067091e-06
-8.24356778222e-06
-8.24360945291e-06
-8.24357338493e-06
-8.24353366474e-06
-8.24349211648e-06
-8.2434541067e-06
-8.24342373206e-06
-8.24340411051e-06
-8.24339722617e-06
-8.24340392791e-06
-8.24342328298e-06
-8.24345325718e-06
-8.24349072787e-06
-8.2435316391e-06
-8.243570709e-06
-8.24360611987e-06
-8.2436477146e-06
-8.24361316657e-06
-8.24357538556e-06
-8.24353617092e-06
-8.24350040909e-06
-8.24347187841e-06
-8.24345345589e-06
-8.24344696732e-06
-8.24345320161e-06
-8.24347131238e-06
-8.24349943213e-06
-8.24353469378e-06
-8.24357334503e-06
-8.24361056954e-06
-8.24364454253e-06
-8.24368672176e-06
-8.24365343816e-06
-8.24361731478e-06
-8.24358025141e-06
-8.24354666624e-06
-8.24351999727e-06
-8.24350280702e-06
-8.24349674311e-06
-8.24350250491e-06
-8.24351935318e-06
-8.2435456193e-06
-8.24357873815e-06
-8.24361530693e-06
-8.24365094265e-06
-8.24368370578e-06
-8.24372702888e-06
-8.24369466381e-06
-8.24365986172e-06
-8.24362471595e-06
-8.24359325072e-06
-8.24356843652e-06
-8.24355252866e-06
-8.24354690746e-06
-8.24355219489e-06
-8.24356775222e-06
-8.24359215912e-06
-8.24362320626e-06
-8.24365791074e-06
-8.24369229329e-06
-8.24372418847e-06
-8.24377028175e-06
-8.24373792707e-06
-8.24370364645e-06
-8.24366993131e-06
-8.24364027389e-06
-8.24361723189e-06
-8.24360252779e-06
-8.24359736723e-06
-8.24360218598e-06
-8.24361651443e-06
-8.24363919251e-06
-8.24366843397e-06
-8.24370177553e-06
-8.24373568351e-06
-8.24376761033e-06
-8.24381739825e-06
-8.24378335058e-06
-8.24374892982e-06
-8.24371605374e-06
-8.24368793667e-06
-8.24366636055e-06
-8.24365277485e-06
-8.24364799877e-06
-8.24365242404e-06
-8.24366566838e-06
-8.24368685651e-06
-8.24371462839e-06
-8.24374714304e-06
-8.24378125527e-06
-8.24381488773e-06
-8.243835106e-06
-8.24380911395e-06
-8.24378035583e-06
-8.24375378645e-06
-8.24373139078e-06
-8.24371436065e-06
-8.24370363806e-06
-8.24369987958e-06
-8.24370331617e-06
-8.24371369978e-06
-8.24373039751e-06
-8.24375244638e-06
-8.24377870776e-06
-8.24380715617e-06
-8.24383279746e-06
-7.43833858355e-06
-7.43838668726e-06
-7.43843516057e-06
-7.43848190972e-06
-7.43852208721e-06
-7.43855275065e-06
-7.43857166625e-06
-7.43857740689e-06
-7.43856931728e-06
-7.43854803729e-06
-7.43851504347e-06
-7.43847278015e-06
-7.43842454192e-06
-7.43837561497e-06
-7.43832771389e-06
-7.4383677207e-06
-7.43841436052e-06
-7.43846260635e-06
-7.43850947965e-06
-7.43854999938e-06
-7.43858103076e-06
-7.43860023081e-06
-7.43860609425e-06
-7.43859791649e-06
-7.43857639489e-06
-7.4385430891e-06
-7.43850054617e-06
-7.43845222694e-06
-7.43840346907e-06
-7.43835697222e-06
-7.4383281338e-06
-7.43836858052e-06
-7.43841151612e-06
-7.43845416768e-06
-7.43849147072e-06
-7.43852025527e-06
-7.43853813147e-06
-7.43854357927e-06
-7.43853588316e-06
-7.4385157613e-06
-7.43848479095e-06
-7.43844554259e-06
-7.43840148376e-06
-7.43835797893e-06
-7.43831762997e-06
-7.43828344521e-06
-7.43831900141e-06
-7.43835744174e-06
-7.43839637261e-06
-7.43843082101e-06
-7.43845760233e-06
-7.43847429972e-06
-7.43847938313e-06
-7.43847213984e-06
-7.43845329452e-06
-7.43842443685e-06
-7.43838814242e-06
-7.43834785047e-06
-7.43830879727e-06
-7.43827324481e-06
-7.43824721459e-06
-7.43827943772e-06
-7.43831465561e-06
-7.43835077794e-06
-7.43838304886e-06
-7.43840829554e-06
-7.43842409807e-06
-7.43842891997e-06
-7.43842205578e-06
-7.43840423199e-06
-7.43837704117e-06
-7.43834304104e-06
-7.43830561126e-06
-7.43826975276e-06
-7.43823742243e-06
-7.43821544977e-06
-7.43824519106e-06
-7.43827783831e-06
-7.43831161402e-06
-7.4383420096e-06
-7.43836590622e-06
-7.43838091343e-06
-7.43838550923e-06
-7.43837900139e-06
-7.43836210955e-06
-7.43833641057e-06
-7.43830440956e-06
-7.43826939117e-06
-7.43823606066e-06
-7.4382061298e-06
-7.43818560451e-06
-7.43821335533e-06
-7.43824385925e-06
-7.43827556134e-06
-7.43830423605e-06
-7.43832686127e-06
-7.43834111008e-06
-7.43834549407e-06
-7.43833934231e-06
-7.43832335605e-06
-7.43829907455e-06
-7.43826891632e-06
-7.43823603846e-06
-7.43820482273e-06
-7.43817677782e-06
-7.43815687681e-06
-7.43818301309e-06
-7.4382116964e-06
-7.43824152976e-06
-7.43826859335e-06
-7.43828999005e-06
-7.4383034906e-06
-7.43830766328e-06
-7.43830186827e-06
-7.43828677731e-06
-7.4382638675e-06
-7.43823544043e-06
-7.43820449517e-06
-7.43817507565e-06
-7.43814855308e-06
-7.43812867953e-06
-7.43815346603e-06
-7.43818058306e-06
-7.43820870651e-06
-7.43823422721e-06
-7.43825440846e-06
-7.43826715328e-06
-7.43827110741e-06
-7.43826567293e-06
-7.438251479e-06
-7.43822991676e-06
-7.4382031414e-06
-7.4381739667e-06
-7.43814610199e-06
-7.43812084099e-06
-7.43810041948e-06
-7.43812406041e-06
-7.43814980707e-06
-7.43817634969e-06
-7.43820037578e-06
-7.43821934276e-06
-7.43823131167e-06
-7.43823503517e-06
-7.43822996497e-06
-7.4382166769e-06
-7.43819645251e-06
-7.43817127074e-06
-7.4381437334e-06
-7.43811722838e-06
-7.43809305248e-06
-7.43807164756e-06
-7.43809431063e-06
-7.43811887934e-06
-7.43814396259e-06
-7.43816652873e-06
-7.43818426146e-06
-7.43819542484e-06
-7.43819889775e-06
-7.43819419644e-06
-7.43818183046e-06
-7.43816294545e-06
-7.43813931243e-06
-7.43811328893e-06
-7.43808796661e-06
-7.43806471747e-06
-7.43804194714e-06
-7.43806389543e-06
-7.43808753098e-06
-7.43811130485e-06
-7.43813244613e-06
-7.43814893101e-06
-7.43815924929e-06
-7.43816245283e-06
-7.43815812353e-06
-7.43814669791e-06
-7.43812915787e-06
-7.4381070237e-06
-7.43808236051e-06
-7.43805798484e-06
-7.43803543205e-06
-7.43801017877e-06
-7.43803207e-06
-7.43805533239e-06
-7.43807814628e-06
-7.43809804656e-06
-7.43811334475e-06
-7.43812285351e-06
-7.43812577804e-06
-7.43812180809e-06
-7.43811128279e-06
-7.4380949929e-06
-7.43807416835e-06
-7.43805050954e-06
-7.43802653004e-06
-7.43800404137e-06
-7.43797569635e-06
-7.4379987179e-06
-7.43802210302e-06
-7.43804433674e-06
-7.4380632144e-06
-7.43807750736e-06
-7.4380862791e-06