/*--------------------------------*- C++ -*----------------------------------*\
  =========                 |
  \\      /  F ield         | OpenFOAM: The Open Source CFD Toolbox
   \\    /   O peration     | Website:  https://openfoam.org
    \\  /    A nd           | Version:  7
     \\/     M anipulation  |
\*---------------------------------------------------------------------------*/
FoamFile
{
    version     2.0;
    format      ascii;
    class       volScalarField;
    location    "0.68";
    object      p;
}
// * * * * * * * * * * * * * * * * * * * * * * * * * * * * * * * * * * * * * //

dimensions      [0 2 -2 0 0 0 0];

internalField   nonuniform List<scalar> 
22500
(
7.9477502895e-06
7.94430664973e-06
7.94436748311e-06
7.94385621213e-06
7.94369467285e-06
7.94356757255e-06
7.94349750237e-06
7.94345416975e-06
7.94345720481e-06
7.94348829778e-06
7.94357796156e-06
7.94370687897e-06
7.94419034507e-06
7.94411862652e-06
7.94755347954e-06
7.89018831752e-06
7.88375223832e-06
7.881310037e-06
7.87861846773e-06
7.87669726891e-06
7.87528022109e-06
7.87442378008e-06
7.87411751548e-06
7.87438210887e-06
7.87519813416e-06
7.87657665648e-06
7.87846380396e-06
7.88112739442e-06
7.88355792945e-06
7.88998430442e-06
7.83384605261e-06
7.82455980773e-06
7.81992969496e-06
7.81526827128e-06
7.81178553441e-06
7.80922343873e-06
7.80767142855e-06
7.80713329884e-06
7.8076315036e-06
7.80914479467e-06
7.81167023548e-06
7.81512036307e-06
7.819755119e-06
7.82437305822e-06
7.83364609074e-06
7.78330946195e-06
7.77161536552e-06
7.76524927408e-06
7.75904448187e-06
7.75434343809e-06
7.75089479219e-06
7.74880610283e-06
7.74808990443e-06
7.74876885901e-06
7.75082139831e-06
7.75423602538e-06
7.75890683524e-06
7.76508642438e-06
7.77144030962e-06
7.78311757362e-06
7.73585103066e-06
7.72205031466e-06
7.7142158974e-06
7.70675286125e-06
7.70105500802e-06
7.69688822356e-06
7.69436621252e-06
7.69350685263e-06
7.69433158902e-06
7.69681999951e-06
7.70095520959e-06
7.70662504625e-06
7.71406440281e-06
7.7218869242e-06
7.73566888141e-06
7.69094961857e-06
7.67535438774e-06
7.66629263843e-06
7.6578290304e-06
7.65133370083e-06
7.64659890318e-06
7.6437349332e-06
7.64276308376e-06
7.6437029228e-06
7.64653577883e-06
7.65124140583e-06
7.65771079404e-06
7.66615253627e-06
7.67520225635e-06
7.69077704759e-06
7.64888274099e-06
7.63183046883e-06
7.62177479218e-06
7.61255556395e-06
7.60545160805e-06
7.60028880319e-06
7.59716763298e-06
7.59611149707e-06
7.5971380503e-06
7.60023045149e-06
7.60536628352e-06
7.61244619645e-06
7.62164515969e-06
7.63168908997e-06
7.64871908018e-06
7.60969756196e-06
7.59151289607e-06
7.58066500185e-06
7.57090367144e-06
7.56335433952e-06
7.55788262952e-06
7.55457615841e-06
7.55345956308e-06
7.55454879013e-06
7.55782865292e-06
7.56327534364e-06
7.57080234555e-06
7.5805448586e-06
7.59138106182e-06
7.6095417042e-06
7.57326518716e-06
7.55424850475e-06
7.54278118773e-06
7.53265970843e-06
7.52480352268e-06
7.51912216249e-06
7.51569006152e-06
7.5145327143e-06
7.51566462817e-06
7.51907198073e-06
7.52473003717e-06
7.53256526905e-06
7.54266918419e-06
7.55412459694e-06
7.57311580279e-06
7.53941934418e-06
7.51984955304e-06
7.5079206476e-06
7.49759755202e-06
7.48955537115e-06
7.48374889379e-06
7.48024194942e-06
7.47906057944e-06
7.48021814949e-06
7.48370190776e-06
7.48948648678e-06
7.49750886426e-06
7.50781530263e-06
7.51973188513e-06
7.53927449845e-06
7.50799073811e-06
7.48813370971e-06
7.47590126434e-06
7.46551852737e-06
7.45739748202e-06
7.4515391019e-06
7.44800124193e-06
7.44681037736e-06
7.44797876745e-06
7.4514947081e-06
7.4573322876e-06
7.46543435097e-06
7.47580105486e-06
7.48802050496e-06
7.507848513e-06
7.47879838432e-06
7.4589417923e-06
7.4465847879e-06
7.43626897758e-06
7.42816061051e-06
7.42231161261e-06
7.41878014109e-06
7.41759205686e-06
7.4187587166e-06
7.42226917354e-06
7.42809816497e-06
7.43618804523e-06
7.44648808224e-06
7.45883116934e-06
7.47865711192e-06
7.45159835949e-06
7.43217091896e-06
7.41991327723e-06
7.40976190906e-06
7.40173273348e-06
7.39593997562e-06
7.3924445145e-06
7.39126971131e-06
7.39242379189e-06
7.39589897811e-06
7.40167208797e-06
7.40968289496e-06
7.41981827619e-06
7.43206076791e-06
7.45145581178e-06
7.4263436383e-06
7.40788121171e-06
7.39586675204e-06
7.38591949244e-06
7.37801153769e-06
7.3723190685e-06
7.36889210193e-06
7.3677414008e-06
7.36887188651e-06
7.37227890133e-06
7.37795174722e-06
7.38584083739e-06
7.39577144674e-06
7.40776907869e-06
7.42619808611e-06
7.40487212608e-06
7.385751362e-06
7.37406858962e-06
7.36428606881e-06
7.35657877078e-06
7.35107840673e-06
7.347782083e-06
7.34667777783e-06
7.34776208943e-06
7.35103862541e-06
7.35651914944e-06
7.36420668613e-06
7.37397034805e-06
7.38563426971e-06
7.40472578085e-06
1.77296566311e-06
1.77487156382e-06
1.7763600297e-06
1.77776853517e-06
1.77897190723e-06
1.7798915047e-06
1.78047557781e-06
1.78068343678e-06
1.78050168118e-06
1.77994121176e-06
1.77903953789e-06
1.7778468535e-06
1.77644594082e-06
1.77496096952e-06
1.77305772288e-06
1.7802301803e-06
1.78243209377e-06
1.7842087637e-06
1.78587943137e-06
1.78730961258e-06
1.78840217072e-06
1.78909514445e-06
1.78934044054e-06
1.78912106512e-06
1.78845140972e-06
1.7873764287e-06
1.7859562758e-06
1.78429153279e-06
1.78251891064e-06
1.78031946853e-06
1.78957375303e-06
1.79247675128e-06
1.7948327768e-06
1.79704616729e-06
1.79894142637e-06
1.8003873385e-06
1.80130168871e-06
1.80162239598e-06
1.80132725783e-06
1.80043608387e-06
1.79900815705e-06
1.7971239373e-06
1.79491658142e-06
1.79256555293e-06
1.78966398188e-06
1.80158325133e-06
1.80569676179e-06
1.8089982684e-06
1.81207684864e-06
1.81470237e-06
1.81669835894e-06
1.8179548738e-06
1.81839159114e-06
1.81797990108e-06
1.81674631026e-06
1.81476873669e-06
1.81215546012e-06
1.80908361648e-06
1.80578747249e-06
1.8016745632e-06
1.81696274688e-06
1.82272334724e-06
1.827260309e-06
1.83144533343e-06
1.83498961679e-06
1.83767054293e-06
1.83934980348e-06
1.83992924931e-06
1.83937409613e-06
1.8377172464e-06
1.83505477232e-06
1.83152337887e-06
1.82734587154e-06
1.82281451541e-06
1.81705422038e-06
1.83553429322e-06
1.84322858838e-06
1.84916191137e-06
1.85457196975e-06
1.85911783225e-06
1.86253717375e-06
1.86466847898e-06
1.8653998394e-06
1.86469173301e-06
1.86258198524e-06
1.8591807538e-06
1.85464807225e-06
1.84924604686e-06
1.84331905377e-06
1.83562402438e-06
1.85671117076e-06
1.86646762157e-06
1.87383532936e-06
1.88047564238e-06
1.88601140904e-06
1.89015186634e-06
1.89272072165e-06
1.89359839077e-06
1.89274264671e-06
1.89019422357e-06
1.88607116874e-06
1.88054849492e-06
1.87391640884e-06
1.8665557138e-06
1.85679789518e-06
1.87980641469e-06
1.8916071264e-06
1.90034751145e-06
1.90813345425e-06
1.91457504932e-06
1.91936643649e-06
1.92232608659e-06
1.92333360657e-06
1.92234642439e-06
1.91940581263e-06
1.914630866e-06
1.90820198853e-06
1.90042443327e-06
1.89169131103e-06
1.87988928992e-06
1.90414312466e-06
1.91784752028e-06
1.92782559726e-06
1.93660880598e-06
1.94382342283e-06
1.94916133257e-06
1.95244483723e-06
1.95355911126e-06
1.95246345964e-06
1.94919744323e-06
1.94387480923e-06
1.93667223675e-06
1.92789735875e-06
1.91792668345e-06
1.90422078455e-06
1.92910210582e-06
1.94447639127e-06
1.95550740998e-06
1.96510089815e-06
1.97292835514e-06
1.9786902695e-06
1.98222053349e-06
1.98341521352e-06
1.98223737502e-06
1.97872297775e-06
1.972975057e-06
1.96515885762e-06
1.95557348199e-06
1.94454984296e-06
1.92917392375e-06
1.95414777849e-06
1.97089087274e-06
1.9827587672e-06
1.99295819671e-06
2.00122778898e-06
2.0072854139e-06
2.01098260816e-06
2.01223062207e-06
2.01099772435e-06
2.00731482318e-06
2.00126988501e-06
1.99301061994e-06
1.98281891253e-06
1.97095820938e-06
1.95421301095e-06
1.97881867552e-06
1.99658673844e-06
2.00906357018e-06
2.0196679252e-06
2.02821293971e-06
2.03444149816e-06
2.03822852824e-06
2.03950373103e-06
2.03824209545e-06
2.03446789296e-06
2.02825084095e-06
2.01971521276e-06
2.00911806471e-06
1.99664789713e-06
1.97887725465e-06
2.0027031635e-06
2.02116097647e-06
2.0340333594e-06
2.04485632512e-06
2.0535182321e-06
2.05979815575e-06
2.06360123271e-06
2.0648789127e-06
2.06361347012e-06
2.05982211474e-06
2.05355260312e-06
2.04489931139e-06
2.03408291239e-06
2.02121655964e-06
2.0027554405e-06
2.02572557679e-06
2.0445992603e-06
2.05756430672e-06
2.06837529157e-06
2.0769516464e-06
2.08313235488e-06
2.08686078127e-06
2.08811052082e-06
2.08687201555e-06
2.08315432493e-06
2.07698332749e-06
2.0684148032e-06
2.0576099888e-06
2.04464983654e-06
2.02577230382e-06
2.04932786779e-06
2.0669194739e-06
2.07952749127e-06
2.0900354959e-06
2.09825729201e-06
2.10414370303e-06
2.10768182648e-06
2.10886567e-06
2.10769213178e-06
2.10416406303e-06
2.09828676106e-06
2.09007252383e-06
2.07956998605e-06
2.06696587685e-06
2.04937122738e-06
3.41793526956e-06
3.41759184457e-06
3.41706311443e-06
3.41645456957e-06
3.41587114412e-06
3.41539390257e-06
3.41508026198e-06
3.41496851865e-06
3.41507373972e-06
3.41538210554e-06
3.41585647246e-06
3.41643871697e-06
3.41703998658e-06
3.41756546071e-06
3.41790013202e-06
3.41902569389e-06
3.41873037888e-06
3.41824295272e-06
3.4176740624e-06
3.41712082459e-06
3.41666495022e-06
3.41636368161e-06
3.41625583377e-06
3.41635676834e-06
3.41665233134e-06
3.41710491148e-06
3.41765648691e-06
3.41821897614e-06
3.41870187612e-06
3.41898929184e-06
3.42045374229e-06
3.42022269569e-06
3.41979197332e-06
3.4192754428e-06
3.41876257034e-06
3.41833612297e-06
3.41805267729e-06
3.41795091415e-06
3.41804607243e-06
3.41832395921e-06
3.41874690377e-06
3.41925767092e-06
3.41976862483e-06
3.42019448596e-06
3.42041790724e-06
3.42148866912e-06
3.42129708745e-06
3.42090057004e-06
3.42041886613e-06
3.41993370068e-06
3.41952838451e-06
3.41925834728e-06
3.41916139425e-06
3.41925226756e-06
3.41951705143e-06
3.41991867363e-06
3.42040135033e-06
3.42087817011e-06
3.42127028488e-06
3.42145339642e-06
3.42222749593e-06
3.42208220592e-06
3.42172298348e-06
3.42128427763e-06
3.42083703527e-06
3.42046217643e-06
3.42021196014e-06
3.42012204986e-06
3.42020632074e-06
3.42045158231e-06
3.42082273421e-06
3.42126725783e-06
3.42170137716e-06
3.42205676076e-06
3.42219293936e-06
3.42288441455e-06
3.42282302361e-06
3.4225273351e-06
3.42216134158e-06
3.42177947444e-06
3.42145685167e-06
3.4212404957e-06
3.42116245017e-06
3.4212352646e-06
3.42144694633e-06
3.42176585191e-06
3.42214482969e-06
3.42250659439e-06
3.42279843212e-06
3.42285100639e-06
3.42361273227e-06
3.42368679803e-06
3.42349150457e-06
3.42323468655e-06
3.42295047807e-06
3.42270484363e-06
3.42253786772e-06
3.42247694873e-06
3.42253297742e-06
3.42269553277e-06
3.42293748855e-06
3.42321867576e-06
3.4234715255e-06
3.42366297149e-06
3.42358012109e-06
3.42451772621e-06
3.42478148156e-06
3.42472369861e-06
3.42460942073e-06
3.42445139392e-06
3.42430389912e-06
3.42419934554e-06
3.42415993352e-06
3.42419472795e-06
3.42429505071e-06
3.42443885641e-06
3.42459368856e-06
3.42470413265e-06
3.42475815111e-06
3.42448543941e-06
3.42566647533e-06
3.42616663091e-06
3.42627669773e-06
3.42632890335e-06
3.42631675621e-06
3.42628136779e-06
3.42624754991e-06
3.42623238483e-06
3.42624312636e-06
3.4262728297e-06
3.42630450928e-06
3.42631327748e-06
3.42625721581e-06
3.42614343093e-06
3.42563428536e-06
3.42709028378e-06
3.42785748506e-06
3.42815458127e-06
3.42838466182e-06
3.42852676924e-06
3.4286086423e-06
3.42864831465e-06
3.42865823621e-06
3.42864399552e-06
3.42860025638e-06
3.42851458593e-06
3.4283688754e-06
3.42813484218e-06
3.42783396328e-06
3.42705785211e-06
3.42878866715e-06
3.4298323475e-06
3.43032239858e-06
3.43072884574e-06
3.43102238633e-06
3.43121835352e-06
3.43132904965e-06
3.43136316881e-06
3.43132477932e-06
3.43121001986e-06
3.43101015988e-06
3.43071277253e-06
3.43030224813e-06
3.42980830568e-06
3.42875574671e-06
3.43072986412e-06
3.43203844194e-06
3.43271576699e-06
3.43328697274e-06
3.43372029203e-06
3.43402065351e-06
3.43419608586e-06
3.43425214746e-06
3.43419184475e-06
3.43401231601e-06
3.43370795e-06
3.43327058761e-06
3.43269514681e-06
3.4320139042e-06
3.430696584e-06
3.43285435095e-06
3.43440815956e-06
3.43525979776e-06
3.43597532779e-06
3.43652909611e-06
3.43691929896e-06
3.43715020517e-06
3.43722522702e-06
3.43714598615e-06
3.43691098315e-06
3.43651673247e-06
3.43595872159e-06
3.43523885644e-06
3.43438319902e-06
3.43282073951e-06
3.43520817978e-06
3.43697973908e-06
3.43793541976e-06
3.43874359913e-06
3.43937605554e-06
3.43982674086e-06
3.44009604529e-06
3.44018409208e-06
3.44009185794e-06
3.43981856376e-06
3.43936375255e-06
3.43872701985e-06
3.43791441422e-06
3.43695451876e-06
3.43517476276e-06
3.43841399032e-06
3.43972139291e-06
3.44063548168e-06
3.44145259657e-06
3.44210094811e-06
3.44257014768e-06
3.44285285746e-06
3.44294584689e-06
3.44284874202e-06
3.44256202553e-06
3.4420888315e-06
3.44143613561e-06
3.44061442906e-06
3.43969562485e-06
3.43838096172e-06
1.47503004821e-06
1.47537498685e-06
1.47582152777e-06
1.47628139695e-06
1.47669945992e-06
1.47703084562e-06
1.47724393704e-06
1.47731945091e-06
1.47724980085e-06
1.47704136714e-06
1.47671192191e-06
1.47629094525e-06
1.47582578305e-06
1.47536974992e-06
1.4750232041e-06
1.47556909046e-06
1.47592213795e-06
1.4763814517e-06
1.47685297e-06
1.47728443372e-06
1.47762774754e-06
1.47784923698e-06
1.47792795401e-06
1.4778555955e-06
1.47763918933e-06
1.47729804238e-06
1.47686369613e-06
1.47638585879e-06
1.47591736115e-06
1.47556056857e-06
1.47592174577e-06
1.47627034196e-06
1.47673068158e-06
1.47720157993e-06
1.47763572979e-06
1.47798204948e-06
1.47820591931e-06
1.47828537362e-06
1.4782117683e-06
1.47799255184e-06
1.4776481703e-06
1.47721156953e-06
1.47673446458e-06
1.47626649821e-06
1.47591311699e-06
1.47622556047e-06
1.47657225867e-06
1.47703547835e-06
1.47750506516e-06
1.47793971952e-06
1.47828680723e-06
1.47851131961e-06
1.47859077655e-06
1.47851640351e-06
1.4782958808e-06
1.47795034476e-06
1.47751351164e-06
1.47703834446e-06
1.47656846277e-06
1.4762170089e-06
1.47652425302e-06
1.47687058189e-06
1.47733921493e-06
1.47780761641e-06
1.47824187871e-06
1.47858888508e-06
1.47881331047e-06
1.4788925505e-06
1.47881771588e-06
1.47859669082e-06
1.4782509674e-06
1.47781466826e-06
1.47734140135e-06
1.47686661491e-06
1.4765157839e-06
1.47681182547e-06
1.47715887934e-06
1.47763694064e-06
1.47810537611e-06
1.47854004241e-06
1.47888725643e-06
1.47911172618e-06
1.47919071572e-06
1.47911537606e-06
1.47889367312e-06
1.47854736424e-06
1.47811081432e-06
1.47763798426e-06
1.47715493869e-06
1.47680272906e-06
1.4770936878e-06
1.47744844664e-06
1.47794206925e-06
1.47841543608e-06
1.47885432442e-06
1.47920453949e-06
1.47943071701e-06
1.47951001023e-06
1.47943363163e-06
1.47920962371e-06
1.47885997655e-06
1.4784193576e-06
1.47794198354e-06
1.47744437739e-06
1.47708421635e-06
1.47739008896e-06
1.47776539462e-06
1.47828349317e-06
1.47877003579e-06
1.47921926967e-06
1.4795769191e-06
1.47980739124e-06
1.47988785905e-06
1.47980956352e-06
1.4795806368e-06
1.47922323933e-06
1.47877239534e-06
1.47828243789e-06
1.47776103602e-06
1.47738066648e-06
1.47772570159e-06
1.47813796238e-06
1.47869080494e-06
1.47919940267e-06
1.4796654491e-06
1.48003498836e-06
1.48027234787e-06
1.48035484991e-06
1.4802738476e-06
1.48003747993e-06
1.47966791996e-06
1.47920037293e-06
1.47868889355e-06
1.47813337372e-06
1.47771615687e-06
1.47812201663e-06
1.47858978108e-06
1.47918634895e-06
1.479724224e-06
1.48021170606e-06
1.48059588645e-06
1.48084158509e-06
1.48092656508e-06
1.48084248297e-06
1.4805972975e-06
1.48021284718e-06
1.47972400987e-06
1.47918374423e-06
1.47858511485e-06
1.47811246687e-06
1.4785959244e-06
1.47913675785e-06
1.47978226958e-06
1.48035277312e-06
1.4808626827e-06
1.48126148621e-06
1.48151514719e-06
1.48160248884e-06
1.48151557298e-06
1.48126203859e-06
1.48086278991e-06
1.48035158737e-06
1.47977908553e-06
1.47913191264e-06
1.47858618769e-06
1.47915353284e-06
1.47978262043e-06
1.48047828808e-06
1.48108044928e-06
1.48161014435e-06
1.4820205892e-06
1.48228011934e-06
1.482369036e-06
1.48228021269e-06
1.48202054886e-06
1.48160950445e-06
1.4810786089e-06
1.48047467986e-06
1.47977753993e-06
1.47914343539e-06
1.47978886653e-06
1.48052219331e-06
1.48126630153e-06
1.48189464055e-06
1.48243797061e-06
1.48285494982e-06
1.48311671231e-06
1.48320612023e-06
1.4831166156e-06
1.48285454229e-06
1.48243696027e-06
1.48189240434e-06
1.48126246674e-06
1.48051688027e-06
1.4797784361e-06
1.48057355749e-06
1.48142209751e-06
1.48217471857e-06
1.4828017186e-06
1.48333802921e-06
1.48374627301e-06
1.48400124888e-06
1.48408787588e-06
1.48400105083e-06
1.48374581717e-06
1.48333688594e-06
1.48279946166e-06
1.48217086005e-06
1.4814165166e-06
1.48056261337e-06
1.48206242055e-06
1.4826553414e-06
1.48327575913e-06
1.48380985197e-06
1.48427288431e-06
1.48462604265e-06
1.48484624473e-06
1.48492105736e-06
1.48484609344e-06
1.48462559871e-06
1.48427192314e-06
1.48380777669e-06
1.48327201736e-06
1.48264941893e-06
1.48205162449e-06
1.45493604751e-06
1.45482333679e-06
1.45469990091e-06
1.45454515646e-06
1.4544022358e-06
1.45428433649e-06
1.45420478007e-06
1.45417409604e-06
1.45419718511e-06
1.45427076176e-06
1.45438571297e-06
1.45452600386e-06
1.45467514591e-06
1.45479727479e-06
1.45490153286e-06
1.45532158319e-06
1.45522518994e-06
1.45511336312e-06
1.45496890405e-06
1.45483368601e-06
1.4547207191e-06
1.45464401395e-06
1.45461424109e-06
1.45463633281e-06
1.45470693279e-06
1.45481672112e-06
1.45494944934e-06
1.45508867174e-06
1.45519790924e-06
1.45528647012e-06
1.45580504904e-06
1.45572673505e-06
1.45563197288e-06
1.45550044686e-06
1.45537455344e-06
1.45526757685e-06
1.45519449054e-06
1.45516601629e-06
1.45518700512e-06
1.45525397239e-06
1.4553573984e-06
1.45548063243e-06
1.45560771418e-06
1.4556995126e-06
1.45577082434e-06
1.45618481455e-06
1.45611225802e-06
1.45602739064e-06
1.45590108589e-06
1.45577836864e-06
1.45567273544e-06
1.45560048068e-06
1.45557241924e-06
1.45559329212e-06
1.45565947435e-06
1.45576113803e-06
1.45588108003e-06
1.4560036236e-06
1.45608588986e-06
1.45615144912e-06
1.45646662739e-06
1.45639177747e-06
1.45631156301e-06
1.45618526656e-06
1.45606193548e-06
1.45595522581e-06
1.45588229411e-06
1.45585412651e-06
1.45587540974e-06
1.45594240921e-06
1.45604498973e-06
1.45616546699e-06
1.45628836568e-06
1.4563665069e-06
1.45643414925e-06
1.45667977819e-06
1.45660041226e-06
1.4565225669e-06
1.45639493259e-06
1.45627028332e-06
1.45616228316e-06
1.45608866187e-06
1.45606041793e-06
1.45608214388e-06
1.45615004738e-06
1.45625383131e-06
1.4563755902e-06
1.45650015562e-06
1.45657583538e-06
1.45664868993e-06
1.45684417744e-06
1.45676076986e-06
1.45668675535e-06
1.45655956106e-06
1.45643555874e-06
1.45632823598e-06
1.45625525217e-06
1.45622741156e-06
1.45624913153e-06
1.45631668025e-06
1.4564198379e-06
1.45654092254e-06
1.45666532708e-06
1.45673704805e-06
1.45681425149e-06
1.45697782038e-06
1.45689506285e-06
1.4568295555e-06
1.4567074831e-06
1.45658858386e-06
1.4564857409e-06
1.45641590864e-06
1.45638935467e-06
1.45641020758e-06
1.45647491618e-06
1.4565736711e-06
1.4566895847e-06
1.45680896912e-06
1.45687215255e-06
1.45694869139e-06
1.45710044958e-06
1.45702735984e-06
1.45697753669e-06
1.45686776795e-06
1.45676047783e-06
1.45666742733e-06
1.45660415439e-06
1.45658006711e-06
1.45659887367e-06
1.45665734026e-06
1.45674643385e-06
1.45685068671e-06
1.45695773805e-06
1.45700519112e-06
1.45707210558e-06
1.45723292897e-06
1.45718175888e-06
1.45715611948e-06
1.45706710036e-06
1.45697877011e-06
1.45690136335e-06
1.45684842028e-06
1.45682806831e-06
1.45684352684e-06
1.45689196906e-06
1.4569655198e-06
1.45705073364e-06
1.45713693805e-06
1.45716007027e-06
1.45720526605e-06
1.45739453929e-06
1.45737887666e-06
1.45738571106e-06
1.45732553473e-06
1.45726311153e-06
1.45720690219e-06
1.4571677681e-06
1.45715236493e-06
1.45716322483e-06
1.45719811984e-06
1.45725060287e-06
1.45730981482e-06
1.45736709646e-06
1.45735759197e-06
1.45736748231e-06
1.45759861138e-06
1.45763207179e-06
1.45767818138e-06
1.4576532882e-06
1.45762256403e-06
1.45759203059e-06
1.45756968252e-06
1.45756014814e-06
1.45756543425e-06
1.45758378233e-06
1.45761063339e-06
1.45763813792e-06
1.45766002596e-06
1.4576112504e-06
1.45757229006e-06
1.45785381265e-06
1.45794880451e-06
1.45803747771e-06
1.45805120861e-06
1.45805574909e-06
1.45805432837e-06
1.45805071728e-06
1.45804791723e-06
1.45804672252e-06
1.45804645118e-06
1.45804437918e-06
1.45803646213e-06
1.45801975187e-06
1.45792837232e-06
1.45782822822e-06
1.45821799207e-06
1.45837937676e-06
1.45848686694e-06
1.45852712757e-06
1.45856096695e-06
1.45858458061e-06
1.45859786047e-06
1.45860081781e-06
1.45859401177e-06
1.45857712088e-06
1.45854991816e-06
1.45851285954e-06
1.458469446e-06
1.45835928474e-06
1.45819333276e-06
1.4589975196e-06
1.4590049223e-06
1.45904892546e-06
1.45907001741e-06
1.45910183973e-06
1.45912893863e-06
1.45914564093e-06
1.45915015581e-06
1.45914195311e-06
1.45912162475e-06
1.45909112391e-06
1.45905587479e-06
1.45903159181e-06
1.45898444852e-06
1.45897331506e-06
6.10715652579e-07
6.10811621005e-07
6.10933231734e-07
6.11058484623e-07
6.11173195419e-07
6.11264635812e-07
6.11324622402e-07
6.11347477234e-07
6.1133074678e-07
6.11275884337e-07
6.11187542474e-07
6.11073245856e-07
6.109466566e-07
6.10820001483e-07
6.10724443706e-07
6.10994216396e-07
6.11096239671e-07
6.11225758783e-07
6.11357206693e-07
6.11478058776e-07
6.11574643561e-07
6.11638152179e-07
6.11662381539e-07
6.11644680987e-07
6.1158664587e-07
6.11493343487e-07
6.11372845922e-07
6.1123949322e-07
6.11105195387e-07
6.11001717939e-07
6.11236771909e-07
6.1134283336e-07
6.11478704453e-07
6.11613960293e-07
6.11738812956e-07
6.11838341076e-07
6.11903652153e-07
6.11928330734e-07
6.11909715381e-07
6.11849489042e-07
6.11753039302e-07
6.11628748578e-07
6.11491674853e-07
6.11352403937e-07
6.11244057522e-07
6.11445232175e-07
6.1155587043e-07
6.11697521103e-07
6.11836014034e-07
6.11963799353e-07
6.12065366048e-07
6.12131804576e-07
6.1215662285e-07
6.12137218884e-07
6.12075323751e-07
6.11976523438e-07
6.11849345323e-07
6.11709412431e-07
6.11565120272e-07
6.11452511774e-07
6.11638944775e-07
6.11754251128e-07
6.11901902718e-07
6.12043527012e-07
6.12173852926e-07
6.12277157733e-07
6.12344474582e-07
6.12369387312e-07
6.12349310871e-07
6.12286048954e-07
6.12185276445e-07
6.12055574968e-07
6.11912975733e-07
6.11763047202e-07
6.11646112277e-07
6.11821893051e-07
6.1194116889e-07
6.12095774371e-07
6.1224006518e-07
6.1237255847e-07
6.12477224252e-07
6.12545192663e-07
6.12570102622e-07
6.12549455894e-07
6.1248507015e-07
6.12382658492e-07
6.12250762202e-07
6.12105673295e-07
6.11949660456e-07
6.11828280587e-07
6.11994175885e-07
6.12118336362e-07
6.12280302531e-07
6.12427327055e-07
6.12561939714e-07
6.12667868105e-07
6.12736398309e-07
6.12761279666e-07
6.12740115151e-07
6.1267473059e-07
6.12570814072e-07
6.12436824558e-07
6.12289146535e-07
6.12126454429e-07
6.11999978604e-07
6.12158558146e-07
6.122896761e-07
6.12459696703e-07
6.12610080602e-07
6.12747029834e-07
6.12854377161e-07
6.12923530007e-07
6.12948424045e-07
6.1292673397e-07
6.12860306185e-07
6.12754747306e-07
6.12618423021e-07
6.12467622475e-07
6.12297267468e-07
6.12164133837e-07
6.12319950488e-07
6.12460458011e-07
6.12639854192e-07
6.12794547436e-07
6.12934411332e-07
6.13043606776e-07
6.13113637436e-07
6.13138652295e-07
6.13116392754e-07
6.13048721501e-07
6.1294114351e-07
6.12801934687e-07
6.12647071494e-07
6.1246766296e-07
6.12325147699e-07
6.12483546857e-07
6.12637350463e-07
6.12827729077e-07
6.12987782787e-07
6.1313122435e-07
6.13242712015e-07
6.13313934291e-07
6.13339176978e-07
6.13316299487e-07
6.13247138894e-07
6.1313710073e-07
6.12994379607e-07
6.12834383474e-07
6.12644304921e-07
6.12488513036e-07
6.12656046324e-07
6.12827975786e-07
6.13030537305e-07
6.13196665707e-07
6.13343992863e-07
6.13458100382e-07
6.13530681559e-07
6.13556268043e-07
6.13532748001e-07
6.13461980223e-07
6.13349230144e-07
6.13202633324e-07
6.13036759696e-07
6.12834652049e-07
6.12660642102e-07
6.12842708481e-07
6.13038480206e-07
6.13253957384e-07
6.13426278682e-07
6.1357760489e-07
6.13694314534e-07
6.13768384459e-07
6.13794315637e-07
6.13770223448e-07
6.13697822637e-07
6.13582326248e-07
6.13431813756e-07
6.13259828735e-07
6.13044835901e-07
6.12846821677e-07
6.13048191411e-07
6.13274282259e-07
6.13502329624e-07
6.13680128387e-07
6.13834978174e-07
6.13954443226e-07
6.14029838729e-07
6.14056267274e-07
6.14031554331e-07
6.1395762374e-07
6.13839447881e-07
6.13685280709e-07
6.13507947206e-07
6.13280286936e-07
6.13051848832e-07
6.13320165177e-07
6.13579759392e-07
6.13801368913e-07
6.13973311311e-07
6.14124913634e-07
6.14241901177e-07
6.14315907133e-07
6.14341628821e-07
6.14317486158e-07
6.14245017806e-07
6.14129107844e-07
6.13978358346e-07
6.1380672013e-07
6.13585338592e-07
6.13323104641e-07
6.13932744782e-07
6.14066065158e-07
6.14208577465e-07
6.1432962789e-07
6.14444564987e-07
6.14535285184e-07
6.14592910483e-07
6.14613166333e-07
6.14594479805e-07
6.14538241252e-07
6.1444872544e-07
6.14334470865e-07
6.14213730747e-07
6.14071011898e-07
6.13935484102e-07
2.10399452029e-07
2.10393294087e-07
2.1039816267e-07
2.10392415446e-07
2.10383733974e-07
2.10373574595e-07
2.10365747939e-07
2.10361967132e-07
2.10363121377e-07
2.1036867992e-07
2.10377232004e-07
2.10386029783e-07
2.10393577262e-07
2.10391940935e-07
2.10391895113e-07
2.1061943006e-07
2.106214474e-07
2.10632190529e-07
2.10631707137e-07
2.10627197468e-07
2.1062004285e-07
2.10613954539e-07
2.10610725851e-07
2.10611246033e-07
2.10614986258e-07
2.10620557912e-07
2.10625222723e-07
2.10627629308e-07
2.10619508297e-07
2.10611887672e-07
2.10852849124e-07
2.10862042624e-07
2.10878298181e-07
2.10882008431e-07
2.10880919401e-07
2.10876263156e-07
2.10871668107e-07
2.10868953897e-07
2.10869031882e-07
2.10871383155e-07
2.10874595631e-07
2.10875828749e-07
2.10873978872e-07
2.10859531745e-07
2.10845610478e-07
2.1103804623e-07
2.11049306715e-07
2.11068783651e-07
2.1107347745e-07
2.1107339533e-07
2.11069443894e-07
2.11065232899e-07
2.11062686555e-07
2.11062756791e-07
2.11064926969e-07
2.11067689644e-07
2.11068006958e-07
2.11064894471e-07
2.11047000107e-07
2.11030967285e-07
2.11184467847e-07
2.11194846274e-07
2.11215911359e-07
2.1121973912e-07
2.11219111916e-07
2.11214673786e-07
2.11210137892e-07
2.11207542341e-07
2.11207880818e-07
2.1121060153e-07
2.11214075286e-07
2.11215035413e-07
2.11212524733e-07
2.11193025802e-07
2.1117775135e-07
2.11302337193e-07
2.11311128217e-07
2.11332509419e-07
2.11334662652e-07
2.11332799368e-07
2.1132741447e-07
2.11322299196e-07
2.11319595878e-07
2.11320328815e-07
2.11323909085e-07
2.11328584178e-07
2.11330881699e-07
2.11329815778e-07
2.11309532785e-07
2.11296424595e-07
2.11398094744e-07
2.11404749322e-07
2.11426462908e-07
2.11427056469e-07
2.11423933715e-07
2.11417640579e-07
2.11411999725e-07
2.11409231447e-07
2.11410346586e-07
2.11414742457e-07
2.11420540434e-07
2.11424144698e-07
2.11424516642e-07
2.11403455833e-07
2.11392766234e-07
2.1147738315e-07
2.11482645379e-07
2.11505653141e-07
2.11505416816e-07
2.11501679931e-07
2.11495064453e-07
2.11489308433e-07
2.114866255e-07
2.11487989439e-07
2.11492792736e-07
2.11499095127e-07
2.11503279778e-07
2.11504247815e-07
2.11481580239e-07
2.11472239237e-07
2.11546126306e-07
2.1155244336e-07
2.11578378607e-07
2.11578835932e-07
2.11575773099e-07
2.11569863044e-07
2.11564665129e-07
2.11562287287e-07
2.11563651102e-07
2.11568142688e-07
2.11573861451e-07
2.11577301448e-07
2.11577315048e-07
2.11551460701e-07
2.11541104495e-07
2.11611122414e-07
2.11622206549e-07
2.11653118937e-07
2.11656223864e-07
2.11655442455e-07
2.11651572812e-07
2.1164779085e-07
2.11646012638e-07
2.11647030093e-07
2.11650295381e-07
2.11654038143e-07
2.11655045212e-07
2.11652130316e-07
2.11621008534e-07
2.11606037172e-07
2.11679081105e-07
2.11699464818e-07
2.1173757684e-07
2.11745353163e-07
2.11748613362e-07
2.11748207844e-07
2.11746775175e-07
2.11745888855e-07
2.11746183683e-07
2.11747224811e-07
2.11747494076e-07
2.11744300261e-07
2.11736477224e-07
2.11697912984e-07
2.11673832469e-07
2.11755135227e-07
2.11790113747e-07
2.11837509647e-07
2.11851770942e-07
2.11860801955e-07
2.11865375847e-07
2.11867266413e-07
2.11867590776e-07
2.11866765945e-07
2.11864494925e-07
2.11859756834e-07
2.1185060241e-07
2.11836081652e-07
2.11788171134e-07
2.117497674e-07
2.11843977347e-07
2.1189907521e-07
2.11956817021e-07
2.11978670702e-07
2.11995198275e-07
2.12006305726e-07
2.12012635269e-07
2.12014504184e-07
2.12012111211e-07
2.12005408434e-07
2.11993990637e-07
2.11977197418e-07
2.11954932501e-07
2.11896626779e-07
2.11838472686e-07
2.11980429647e-07
2.12058317164e-07
2.12113542879e-07
2.12136680661e-07
2.12157626945e-07
2.12173624084e-07
2.12183367332e-07
2.12186453109e-07
2.1218275676e-07
2.12172513593e-07
2.12156106228e-07
2.12134691299e-07
2.12111017879e-07
2.12055196635e-07
2.11974808671e-07
2.12353898612e-07
2.12338931254e-07
2.12342035075e-07
2.12337373566e-07
2.12342426252e-07
2.12348555331e-07
2.12352772266e-07
2.12353981998e-07
2.1235196901e-07
2.12347051319e-07
2.12340291522e-07
2.12334551662e-07
2.12338490465e-07
2.12334582335e-07
2.12347751058e-07
-2.68470308138e-07
-2.68454436514e-07
-2.68428787555e-07
-2.68401512119e-07
-2.68375015476e-07
-2.6835346433e-07
-2.68339127056e-07
-2.68333027849e-07
-2.68335466481e-07
-2.68346209339e-07
-2.68364358741e-07
-2.68388673305e-07
-2.68415596647e-07
-2.68444671621e-07
-2.68462143502e-07
-2.68309830389e-07
-2.68290014337e-07
-2.68259181048e-07
-2.68228035783e-07
-2.68198055441e-07
-2.68173809655e-07
-2.6815772732e-07
-2.68150958129e-07
-2.68153870473e-07
-2.6816617331e-07
-2.68186860004e-07
-2.68214529854e-07
-2.682454139e-07
-2.68279303486e-07
-2.68302406092e-07
-2.68137179977e-07
-2.68112242156e-07
-2.68075172583e-07
-2.68040259568e-07
-2.68007053615e-07
-2.67980602927e-07
-2.6796313398e-07
-2.67955938959e-07
-2.67959405891e-07
-2.67973244003e-07
-2.67996360317e-07
-2.68027299867e-07
-2.68061994286e-07
-2.68101123049e-07
-2.68129744449e-07
-2.67991421014e-07
-2.6796243082e-07
-2.67920726933e-07
-2.67883153977e-07
-2.6784796787e-07
-2.67820289258e-07
-2.67802096109e-07
-2.67794727056e-07
-2.67798573481e-07
-2.67813359243e-07
-2.67837964703e-07
-2.67870959862e-07
-2.67908054174e-07
-2.67951257752e-07
-2.67983422524e-07
-2.6786608847e-07