/*--------------------------------*- C++ -*----------------------------------*\
  =========                 |
  \\      /  F ield         | OpenFOAM: The Open Source CFD Toolbox
   \\    /   O peration     | Website:  https://openfoam.org
    \\  /    A nd           | Version:  7
     \\/     M anipulation  |
\*---------------------------------------------------------------------------*/
FoamFile
{
    version     2.0;
    format      ascii;
    class       surfaceScalarField;
    location    "0.68";
    object      phi;
}
// * * * * * * * * * * * * * * * * * * * * * * * * * * * * * * * * * * * * * //

dimensions      [0 3 -1 0 0 0 0];

internalField   nonuniform List<scalar> 
65775
(
2.64212459438e-11
5.40320311749e-09
9.24248406e-10
4.22602007064e-13
3.64746908843e-11
5.65259482928e-09
1.0210034717e-09
4.25084347797e-11
5.86158098353e-09
1.11211719777e-09
4.12747921579e-11
6.0420891993e-09
1.19359321085e-09
3.43642755342e-11
6.18533462453e-09
1.2615553202e-09
2.27795205622e-11
6.28991376484e-09
1.31275465774e-09
8.24342345491e-12
6.35555752633e-09
1.34505639696e-09
-7.3624787383e-12
6.38044109089e-09
1.35667511694e-09
-2.19416695887e-11
6.35536085137e-09
1.34505747406e-09
-3.36089265723e-11
6.28953063575e-09
1.31275713187e-09
-4.06506932403e-11
6.18477232374e-09
1.26155957043e-09
-4.20543635857e-11
6.04139696472e-09
1.19359899851e-09
-3.62342119648e-11
5.86080554534e-09
1.11212464071e-09
-2.63396482485e-11
5.65189404906e-09
1.02102243027e-09
5.40277187889e-09
9.24333101044e-10
3.777218004e-13
7.00320189334e-11
9.11081163805e-09
2.27563628579e-09
9.54749906966e-13
1.12396086104e-10
9.49110580063e-09
2.5015553195e-09
1.31393928201e-10
9.8073901998e-09
2.71187058404e-09
1.28984328658e-10
1.00754871073e-08
2.89827908617e-09
1.07567883467e-10
1.02868227256e-08
3.05266620049e-09
7.12857623632e-11
1.04399787489e-08
3.16837434431e-09
2.5535062896e-11
1.0535997033e-08
3.24115981462e-09
-2.34590109895e-11
1.05726545216e-08
3.26733068279e-09
-6.93103046568e-11
1.0535547751e-08
3.24116620863e-09
-1.05789895243e-10
1.0439100565e-08
3.16838729413e-09
-1.2750836046e-10
1.02855421245e-08
3.05268576026e-09
-1.30315973309e-10
1.00738928546e-08
2.89830334137e-09
-1.11781008606e-10
9.80561029519e-09
2.71189873116e-09
-6.9796730113e-11
9.48942950617e-09
2.50161338273e-09
9.10962615713e-09
2.27583979991e-09
8.82124047366e-13
1.06715741956e-10
1.14988809248e-08
3.25745977646e-09
1.33523366351e-12
1.761557038e-10
1.19282801709e-08
3.57385357666e-09
2.05526769311e-10
1.22849487418e-08
3.86590841643e-09
2.01403625889e-10
1.25798502651e-08
4.12311092296e-09
1.67559632966e-10
1.28105015508e-08
4.33503495502e-09
1.10815776771e-10
1.29761721292e-08
4.49326085711e-09
3.95664716388e-11
1.30799120626e-08
4.59253220803e-09
-3.65954081257e-11
1.31199025235e-08
4.62816701927e-09
-1.07989946923e-10
1.3079289244e-08
4.59254089603e-09
-1.65021041518e-10
1.2974956522e-08
4.49327842065e-09
-1.99296675392e-10
1.28087375415e-08
4.3350607446e-09
-2.0398431573e-10
1.25776483437e-08
4.12314132234e-09
-1.75248630038e-10
1.22824927788e-08
3.86594076366e-09
-1.06353117515e-10
1.19259160675e-08
3.57392038235e-09
1.14970914329e-08
3.25771370906e-09
1.25817569183e-12
1.38372830376e-10
1.28512231222e-08
3.96066817272e-09
1.57017681949e-12
2.29158460906e-10
1.32753610179e-08
4.34062105562e-09
2.67030591912e-10
1.36275675794e-08
4.68849319746e-09
2.6084589678e-10
1.39105313972e-08
4.99290980511e-09
2.16434389904e-10
1.41294535593e-08
5.24245367576e-09
1.42820002772e-10
1.4284993067e-08
5.42805305631e-09
5.08515986934e-11
1.43822514085e-08
5.544176264e-09
-4.72909309082e-11
1.44202338087e-08
5.58577277955e-09
-1.39434710351e-10
1.43815312845e-08
5.54418353605e-09
-2.1339639548e-10
1.42835871669e-08
5.42806757337e-09
-2.58323011741e-10
1.41274222809e-08
5.24247372366e-09
-2.651690106e-10
1.3907997552e-08
4.99292992039e-09
-2.28029588668e-10
1.36247306238e-08
4.68850792323e-09
-1.37880281084e-10
1.32725804134e-08
4.34066129977e-09
1.28489791742e-08
3.96089700944e-09
1.53819484366e-12
1.64628725347e-10
1.34029694027e-08
4.43422535935e-09
1.70235032909e-12
2.72325455188e-10
1.37874806314e-08
4.85670709952e-09
3.17044963769e-10
1.41076931582e-08
5.24031153629e-09
3.08873391827e-10
1.43564258117e-08
5.57376568188e-09
2.55701217282e-10
1.45461116078e-08
5.84565195838e-09
1.68403912711e-10
1.46790563643e-08
6.04705274306e-09
5.98183802127e-11
1.47620572184e-08
6.1726843654e-09
-5.58881015916e-11
1.47950367838e-08
6.21757475906e-09
-1.6466826682e-10
1.47612997645e-08
6.17268721304e-09
-2.52349602025e-10
1.46775795264e-08
6.04705798837e-09
-3.0608513481e-10
1.4543983367e-08
5.84565654613e-09
-3.14966950305e-10
1.43537738936e-08
5.57376204047e-09
-2.71023722865e-10
1.41047076535e-08
5.24029061138e-09
-1.64006739534e-10
1.37845186713e-08
4.85669471896e-09
1.34004687742e-08
4.43438157626e-09
1.75289499074e-12
1.86155433918e-10
1.33498198182e-08
4.71688968868e-09
1.76073620695e-12
3.06850514509e-10
1.36758010757e-08
5.16555740351e-09
3.56773889282e-10
1.39495801245e-08
5.56951081524e-09
3.46723120151e-10
1.41538290757e-08
5.9182257356e-09
2.86446861693e-10
1.43066911435e-08
6.20098247631e-09
1.88328962467e-10
1.44119997849e-08
6.40955956314e-09
6.67592524216e-11
1.4477643348e-08
6.5392513503e-09
-6.26173605997e-11
1.45043463911e-08
6.58545648684e-09
-1.84391815914e-10
1.44769030476e-08
6.53924861802e-09
-2.82912591033e-10
1.44105569695e-08
6.4095524402e-09
-3.43772916136e-10
1.430461713e-08
6.20096636003e-09
-3.54549112094e-10
1.41512463594e-08
5.9181906339e-09
-3.05404485652e-10
1.39466621488e-08
5.5694436351e-09
-1.85398399016e-10
1.36728625662e-08
5.16547879782e-09
1.33472500369e-08
4.71695477094e-09
1.91998613249e-12
2.03850023781e-10
1.28535255835e-08
4.84169064454e-09
1.76744514154e-12
3.34128787407e-10
1.31138660983e-08
5.30428105164e-09
3.87701092311e-10
1.33362408494e-08
5.71728418268e-09
3.75842293018e-10
1.34940612872e-08
6.07131326058e-09
3.09896944822e-10
1.36093058636e-08
6.35677920293e-09
2.03427518245e-10
1.36869615957e-08
6.56646828174e-09
7.19839139936e-11
1.3735308506e-08
6.69641510779e-09
-6.77397301242e-11
1.37556301675e-08
6.74254938576e-09
-1.99391165518e-10
1.37346272524e-08
6.69640574031e-09
-3.06267541846e-10
1.36856346668e-08
6.56644707918e-09
-3.72796787264e-10
1.36074025401e-08
6.35673993153e-09
-3.85369977695e-10
1.34916917709e-08
6.07124341659e-09
-3.32554140518e-10
1.33335529924e-08
5.71716684121e-09
-2.02947417244e-10
1.31111311205e-08
5.30413356448e-09
1.28510611048e-08
4.84166473901e-09
2.05945824597e-12
2.18343061704e-10
1.20462129215e-08
4.83761326201e-09
1.7356387421e-12
3.55395156518e-10
1.22421012854e-08
5.30540979266e-09
4.11298036482e-10
1.24143876992e-08
5.71967968486e-09
3.97726534323e-10
1.25290915564e-08
6.07235158709e-09
3.2733280465e-10
1.26101483861e-08
6.35517578148e-09
2.14567765039e-10
1.26632007782e-08
6.56207112204e-09
7.58104500882e-11
1.26962357956e-08
6.68984399111e-09
-7.15347927609e-11
1.27107938248e-08
6.73501712776e-09
-2.10497252616e-10
1.26956463808e-08
6.68982838711e-09
-3.2366135341e-10
1.26620542199e-08
6.56203663141e-09
-3.94622710602e-10
1.260850589e-08
6.35511455458e-09
-4.08879047959e-10
1.25270479528e-08
6.07224871132e-09
-3.53692390615e-10
1.24120596281e-08
5.7195151252e-09
-2.17281679769e-10
1.22397118977e-08
5.30520036891e-09
1.2044001199e-08
4.83750860435e-09
2.18112585217e-12
2.30095671612e-10
1.10340882194e-08
4.73010110867e-09
1.6776384935e-12
3.71754173611e-10
1.11718828885e-08
5.19734948956e-09
4.29015609213e-10
1.12990946741e-08
5.60799315531e-09
4.13901844829e-10
1.13768635946e-08
5.95529442533e-09
3.4007335812e-10
1.14294065337e-08
6.23238170649e-09
2.22641640088e-10
1.14624774202e-08
6.43429455278e-09
7.85623996154e-11
1.14831584796e-08
6.55855280787e-09
-7.42940614177e-11
1.149294851e-08
6.60226559262e-09
-2.18570786394e-10
1.14826833678e-08
6.55853206476e-09
-3.36384664255e-10
1.14615545616e-08
6.43424905301e-09
-4.10751646276e-10
1.14280869285e-08
6.23230218693e-09
-4.26508564994e-10
1.13752211234e-08
5.95516397423e-09
-3.69912792254e-10
1.12972161794e-08
5.6077897833e-09
-2.28860183468e-10
1.11699414031e-08
5.19709237533e-09
1.1032249805e-08
4.7299376644e-09
2.29486261615e-12
2.39497777317e-10
9.90098624495e-09
4.5411392769e-09
1.60270989176e-12
3.84258868472e-10
9.98959892979e-09
5.00442199469e-09
4.4234371003e-10
1.00784414923e-08
5.40878333349e-09
4.25969053142e-10
1.01266209807e-08
5.74872700434e-09
3.4950466632e-10
1.01572034574e-08
6.01867980913e-09
2.28578702724e-10
1.01754472856e-08
6.21469886911e-09
8.05735762647e-11
1.01870438461e-08
6.33490534661e-09
-7.63244686713e-11
1.01931958517e-08
6.37694701032e-09
-2.24515502989e-10
1.01866958671e-08
6.33488111046e-09
-3.45799450198e-10
1.01747728908e-08
6.2146458764e-09
-4.22764723528e-10
1.01562419334e-08
6.01858782031e-09
-4.39732767194e-10
1.01254251472e-08
5.74857781429e-09
-3.82259999444e-10
1.00770669333e-08
5.40855433526e-09
-2.38068761915e-10
9.98817259464e-09
5.00413715612e-09
9.89960201526e-09
4.54094213122e-09
2.40841438516e-12
2.46880065091e-10
8.71186184459e-09
4.28926046774e-09
1.51874145156e-12
3.93984334831e-10
8.76064274107e-09
4.74687149131e-09
4.52898190497e-10
8.81810463491e-09
5.14390583151e-09
4.35663407269e-10
8.84418878599e-09
5.47594735885e-09
3.57102061424e-10
8.85942501496e-09
5.73856262124e-09
2.33351951597e-10
8.86788709473e-09
5.92866557904e-09
8.21882908142e-11
8.87354833189e-09
6.04483809252e-09
-7.79477254696e-11
8.87716775752e-09
6.08519732604e-09
-2.29282701496e-10
8.87333094792e-09
6.04481260026e-09
-3.53361336313e-10
8.86746890863e-09
5.92860995751e-09
-4.32380308657e-10
8.85883293527e-09
5.7384663599e-09
-4.50156089279e-10
8.8434554576e-09
5.47579187568e-09
-3.91802469682e-10
8.81725759823e-09
5.14366905871e-09
-2.452368098e-10
8.75976625062e-09
4.74658365934e-09
8.71097904444e-09
4.28905859284e-09
2.52929643321e-12
2.5253448219e-10
7.51621658979e-09
3.98960487178e-09
1.42714117053e-12
4.02251773189e-10
7.53310928847e-09
4.44096783883e-09
4.62629333731e-10
7.56579361374e-09
4.83069532618e-09
4.44938245606e-10
7.57709760036e-09
5.1552447515e-09
3.64434023055e-10
7.58326613259e-09
5.41110642776e-09
2.3795617808e-10
7.58648233324e-09
5.59585223165e-09
8.37525285979e-11
7.58896022855e-09
5.70836953321e-09
-7.94913543837e-11
7.59101242408e-09
5.74716528742e-09
-2.33849163479e-10
7.58886959692e-09
5.70834578435e-09
-3.60623209595e-10
7.58631069047e-09
5.59580055983e-09
-4.41539436252e-10
7.58303233404e-09
5.41101705234e-09
-4.59720502817e-10
7.57681655138e-09
5.15509975901e-09
-3.99857775181e-10
7.5654696367e-09
4.83047366684e-09
-2.50656984824e-10
7.53278808305e-09
4.44070568456e-09
7.51585806455e-09
3.98943016145e-09
2.66539236617e-12
2.57126113136e-10
6.35101169591e-09
3.6540603649e-09
1.33239861643e-12
4.11302559694e-10
6.34099335441e-09
4.09923092298e-09
4.74089577329e-10
6.35574954507e-09
4.48230852246e-09
4.55887201206e-10
6.35958821162e-09
4.80036368612e-09
3.72976411887e-10
6.3623031933e-09
5.05054326897e-09
2.43269016935e-10
6.36393635172e-09
5.23085010893e-09
8.55588678071e-11
6.36532915414e-09
5.34031371849e-09
-8.12334166025e-11
6.36656933761e-09
5.37774598701e-09
-2.39080723923e-10
6.36535205627e-09
5.34029558445e-09
-3.69049716252e-10
6.36398926226e-09
5.23081090184e-09
-4.52328427043e-10
6.36239609796e-09
5.05047529341e-09
-4.70974919192e-10
6.35972588456e-09
4.80025099052e-09
-4.08667959112e-10
6.35591778272e-09
4.48213049777e-09
-2.54997023178e-10
6.34120539323e-09
4.09902565384e-09
6.35116753591e-09
3.65394318754e-09
2.81185768566e-12
2.6350334739e-10
5.24151893868e-09
3.29147648721e-09
1.23772622236e-12
4.25188602195e-10
5.20794789864e-09
3.73079869402e-09
4.89912179922e-10
5.21413476386e-09
4.10823913403e-09
4.69805135467e-10
5.21742088345e-09
4.42113096277e-09
3.83345121878e-10
5.22069807052e-09
4.66697362674e-09
2.49580858303e-10
5.22296194813e-09
4.84395960669e-09
8.77059909283e-11
5.22449420377e-09
4.95109528299e-09
-8.32654200229e-11
5.22537414491e-09
4.98740992559e-09
-2.45260014526e-10
5.22461266618e-09
4.95108716557e-09
-3.7925406792e-10
5.22320175474e-09
4.84394254213e-09
-4.66041597952e-10
5.22106432188e-09
4.66694375729e-09
-4.86557073707e-10
5.2179129202e-09
4.42107655896e-09
-4.22291189454e-10
5.21473534457e-09
4.10813953477e-09
-2.61115426808e-10
5.2086442145e-09
3.73068354661e-09
5.24213343811e-09
3.29143952872e-09
2.97160401059e-12
2.86326750525e-10
2.90849835899e-09
1.13855990627e-12
4.19168873538e-09
4.52197063486e-10
3.3425489411e-09
4.15712943508e-09
5.12986425571e-10
3.71542553546e-09
4.16558291801e-09
4.87325110657e-10
4.0244767652e-09
4.17167110198e-09
3.95548534496e-10
4.26728172807e-09
4.17634654836e-09
2.568182851e-10
4.44201359581e-09
4.17954210379e-09
9.01527151592e-11
4.54751242495e-09
4.18143704682e-09
-8.55460882302e-11
4.58294505239e-09
4.18212175527e-09
-2.52317886238e-10
4.54751718997e-09
4.18162768057e-09
-3.91252030235e-10
4.44202497774e-09
4.17992521864e-09
-4.83324545563e-10
4.26730116018e-09
4.1769224222e-09
-5.0936666023e-10
4.02450034208e-09
4.17243895738e-09
-4.49031814544e-10
3.71543409384e-09
4.16652821431e-09
-2.83697468491e-10
3.34257266158e-09
4.15822795783e-09
2.90852417649e-09
3.13728429146e-12
4.19270744507e-09
-1.4231126837e-11
4.24005158213e-10
5.14809258105e-10
4.86912257669e-14
-1.98671584913e-11
4.62688633223e-10
5.64587071148e-10
-2.219433532e-11
5.04819059816e-10
6.10236163913e-10
-2.14701409575e-11
5.42970497155e-10
6.50439473251e-10
-1.78340095378e-11
5.7467504757e-10
6.83621214915e-10
-1.18170395982e-11
5.98567847063e-10
7.0844769004e-10
-4.2013263885e-12
6.13628932308e-10
7.24068709322e-10
3.9909494558e-12
6.19033003215e-10
7.29714813726e-10
1.16488932559e-11
6.13597484702e-10
7.24073148902e-10
1.7742281005e-11
5.98480038893e-10
7.08456309884e-10
2.14563742693e-11
5.74481244156e-10
6.83633258269e-10
2.22164732013e-11
5.42650242307e-10
6.50454256906e-10
1.98960955189e-11
5.04450314444e-10
6.10255233793e-10
1.42329471075e-11
4.62315904478e-10
5.64622753386e-10
4.23862901536e-10
5.14913629169e-10
3.08682756759e-14
-2.54588103204e-11
1.21484126889e-09
1.51079543591e-09
1.80796752495e-13
-3.75118496562e-11
1.31511314024e-09
1.66215391826e-09
-4.24618422963e-11
1.42115257119e-09
1.80145207034e-09
-4.12196987885e-11
1.5164965947e-09
1.9243114078e-09
-3.4262488485e-11
1.5951305561e-09
2.02583142998e-09
-2.26687388312e-11
1.65394781897e-09
2.10185665995e-09
-8.0045193923e-12
1.6908834943e-09
2.14966954355e-09
7.78073738007e-12
1.70414557903e-09
2.16686803696e-09
2.25250561124e-11
1.69078055257e-09
2.14967988522e-09
3.42573328102e-11
1.65369760675e-09
2.10187679431e-09
4.13468325627e-11
1.59465100372e-09
2.02585957794e-09
4.26337473263e-11
1.51574567132e-09
1.92434596552e-09
3.76449985414e-11
1.42025533876e-09
1.80149725927e-09
2.5494694645e-11
1.3142325271e-09
1.66224461786e-09
1.21439554138e-09
1.51104807475e-09
1.25625676623e-13
-2.52527325068e-11
2.10430116097e-09
2.3936033983e-09
3.28201802682e-13
-3.86354755182e-11
2.26464404761e-09
2.63857273739e-09
-4.43741704493e-11
2.42992757535e-09
2.86374845233e-09
-4.33024981621e-11
2.57725394559e-09
3.06199419364e-09
-3.60633051264e-11
2.69791143988e-09
3.22554274958e-09
-2.3843629584e-11
2.78755416148e-09
3.34786174715e-09
-8.34616149764e-12
2.8436512702e-09
3.42466980569e-09
8.36761951698e-12
2.86380157843e-09
3.45220392007e-09
2.39500955064e-11
2.84346651173e-09
3.42468255631e-09
3.63109158664e-11
2.78713673625e-09
3.3478861992e-09
4.36713649355e-11
2.6971765814e-09
3.225576079e-09
4.47543699411e-11
2.57616398077e-09
3.06203364842e-09
3.89099879162e-11
2.42862460982e-09
2.86379905296e-09
2.53550980168e-11
2.26339168976e-09
2.63868234013e-09
2.10360256021e-09
2.39393097143e-09
2.71075274588e-13
-1.717093938e-11
2.94464997145e-09
3.13764859143e-09
4.8301891432e-13
-2.77065221e-11
3.1531568427e-09
3.46342859677e-09
-3.27330696304e-11
3.36238745748e-09
3.76183376891e-09
-3.24071515411e-11
3.54683532744e-09
4.02363082847e-09
-2.71900398401e-11
3.69668474034e-09
4.23894959801e-09
-1.8003015733e-11
3.80722943622e-09
4.39959851796e-09
-6.19502377345e-12
3.87615376007e-09
4.50025135279e-09
6.61711076162e-12
3.90092757163e-09
4.53621886588e-09
1.84925340904e-11
3.87589646006e-09
4.50026171095e-09
2.77844758879e-11
3.8066744294e-09
4.39961757882e-09
3.30713821167e-11
3.69576328193e-09
4.23897341652e-09
3.33490568006e-11
3.5455267e-09
4.02365513625e-09
2.81475434735e-11
3.3608265009e-09
3.76186253635e-09
1.73697189499e-11
3.15165289978e-09
3.46351409398e-09
2.94373788361e-09
3.13797027589e-09
4.70726651912e-13
-3.68871948647e-12
3.64587200341e-09
3.73664369313e-09
6.31517320418e-13
-8.47979393874e-12
3.88666494195e-09
4.12869807687e-09
-1.164726806e-11
4.12059774895e-09
4.48594344518e-09
-1.2505207661e-11
4.32417424712e-09
4.79784482095e-09
-1.09672205693e-11
4.48793774894e-09
5.0533053295e-09
-7.37224798549e-12
4.60779248257e-09
5.24327654827e-09
-2.36492155053e-12
4.68222016634e-09
5.36197226443e-09
3.24242059588e-12
4.70900079865e-09
5.4042524977e-09
8.28960675102e-12
4.68191623859e-09
5.36197584479e-09
1.19370461998e-11
4.60715456428e-09
5.24328142468e-09
1.34785697297e-11
4.48691651912e-09
5.05330631519e-09
1.25053384679e-11
4.32276288971e-09
4.79783574039e-09
9.1017864608e-12
4.11892015647e-09
4.48592576109e-09
4.01100800036e-12
3.88502206291e-09
4.12872405127e-09
3.64481473656e-09
3.73690166902e-09
6.99955370637e-13
1.30044483726e-11
4.1608398076e-09
4.18870366823e-09
7.64638546643e-13
1.59384515737e-11
4.41789326174e-09
4.63200967735e-09
1.54628028662e-11
4.65783332491e-09
5.03334519392e-09
1.31460579467e-11
4.86354576094e-09
5.38167441508e-09
9.91819838037e-12
5.02702419495e-09
5.6655378275e-09
6.27059307243e-12
5.14557066834e-09
5.87579316706e-09
2.50241801774e-12
5.21884560069e-09
6.00673913705e-09
-1.17871015652e-12
5.24525084202e-09
6.05322577668e-09
-4.93625932568e-12
5.21852385928e-09
6.00673205209e-09
-8.58563953022e-12
5.14490684414e-09
5.87577695698e-09
-1.18753496162e-11
5.02598777086e-09
5.66550600528e-09
-1.43672269668e-11
4.86213998926e-09
5.38161865974e-09
-1.51289491885e-11
4.65616309574e-09
5.03326371042e-09
-1.25321197025e-11
4.41623269954e-09
4.63195352455e-09
4.15969656413e-09
4.1888665814e-09
9.38207809478e-13
3.10615922815e-11
4.47375587566e-09
4.4973424972e-09
8.74261857254e-13
4.29929282172e-11
4.73313486647e-09
4.97764342799e-09
4.5771023368e-11
4.96358613478e-09
5.4092796764e-09
4.18856613798e-11
5.15777593939e-09
5.78141952817e-09
3.3299574712e-11
5.30979026641e-09
6.08298106485e-09
2.15093529348e-11
5.41881700663e-09
6.3053533649e-09
7.90420246497e-12
5.48584293464e-09
6.44334703721e-09
-6.17759459604e-12
5.51004442072e-09
6.49215418586e-09
-1.9798471058e-11
5.48553217767e-09
6.44332869622e-09
-3.16375632592e-11
5.41818309432e-09
6.30531424227e-09
-4.03404202862e-11
5.30881498424e-09
6.08291328581e-09
-4.44469696876e-11
5.15646682767e-09
5.78131243555e-09
-4.19901997922e-11
4.96202158383e-09
5.40912803215e-09
-3.04211786573e-11
4.73155883716e-09
4.97749764342e-09
4.47260238888e-09
4.49740044262e-09
1.17727492378e-12
4.9071696298e-11
4.59077222704e-09
4.67101382595e-09
9.56926337788e-13
7.068971271e-11
4.84161797402e-09
5.1757749371e-09
7.70729703698e-11
5.0514980806e-09
5.62584314421e-09
7.16661638972e-11
5.22480397037e-09
6.01113556195e-09
5.75387992556e-11
5.35794918e-09
6.32149820435e-09
3.7291342851e-11
5.45217174026e-09
6.54928597048e-09
1.34741536683e-11
5.50971758058e-09
6.6900929776e-09
-1.14004086153e-11
5.5305466377e-09
6.73968731857e-09
-3.52540535579e-11
5.50944065779e-09
6.69006408382e-09
-5.55866911336e-11
5.45161118759e-09
6.54922528026e-09
-6.98710678499e-11
5.35709496509e-09
6.32139650108e-09
-7.55302211e-11
5.22366365592e-09
6.0109799552e-09
-6.94874074763e-11
5.05012449137e-09
5.62562537446e-09
-4.82499305371e-11
4.84021293679e-09
5.17554619072e-09
4.58970145618e-09
4.67097412856e-09
1.40914051144e-12
6.60480795311e-11
4.53229670266e-09
4.72191291672e-09
1.01513984973e-12
9.7562551333e-11
4.7669820754e-09
5.24087348871e-09
1.07761208457e-10
4.94974778369e-09
5.69994373334e-09
1.01025290675e-10
5.09705474767e-09
6.09014184104e-09
8.14962254771e-11
5.20760646881e-09
6.40257745832e-09
5.29004885771e-11
5.28455912689e-09
6.63080293008e-09
1.89690253902e-11
5.331178359e-09
6.77131013969e-09
-1.66025588941e-11
5.34809939273e-09
6.82056251061e-09
-5.05846784703e-11
5.33095272315e-09
6.77127309627e-09
-7.92898205532e-11
5.28410431915e-09
6.63072551366e-09
-9.90008882773e-11
5.20691665999e-09
6.40244933104e-09
-1.06005984095e-10
5.09613313134e-09
6.08994822497e-09
-9.61558969921e-11
4.94862495282e-09
5.69967407718e-09
-6.50321285298e-11
4.76581901036e-09
5.24058123519e-09
4.53138280564e-09
4.72179676242e-09
1.62968473146e-12
8.13848429784e-11
4.32683817216e-09
4.6645165629e-09
1.04946263752e-12
1.22628244317e-10
4.54065314929e-09
5.189849512e-09
1.36772495944e-10
4.6936948353e-09
5.65103594076e-09
1.2903252486e-10
4.81348558516e-09
6.04035704941e-09
1.04480224551e-10
4.90081889847e-09
6.35031590018e-09
6.7919754486e-11
4.9603881419e-09
6.57570882765e-09
2.42529344605e-11
4.99611538475e-09
6.71390309197e-09
-2.16387646614e-11
5.00911868283e-09
6.7620789038e-09
-6.53644707075e-11
4.99595043991e-09
6.71386180953e-09
-1.02047639431e-10
4.96005634408e-09
6.57562269745e-09
-1.26794271882e-10
4.9003166859e-09
6.35017390149e-09
-1.34808689341e-10
4.81281236401e-09
6.04014304323e-09
-1.21013385466e-10
4.69286259289e-09
5.65073780484e-09
-8.01671195764e-11
4.53978528078e-09
5.18952390395e-09
4.32615168393e-09
4.66435600997e-09
1.83793015356e-12
9.47998118581e-11
4.00639441893e-09
4.51415522949e-09
1.06618180513e-12
1.45328314346e-10
4.19697127533e-09
5.0403155796e-09
1.63532359975e-10
4.32061741799e-09
5.4990760002e-09
1.55232651833e-10
4.41404416103e-09
5.88397213929e-09
1.26188186313e-10
4.47984217191e-09
6.18885176202e-09
8.21850202306e-11
4.52366338709e-09
6.40965042016e-09
2.9277944911e-11
4.54962559247e-09
6.54448273409e-09
-2.64495264107e-11
4.55909279827e-09
6.59119233709e-09
-7.94190556133e-11
4.54952374153e-09
6.54444248815e-09
-1.23549773846e-10
4.52345924523e-09
6.4095664925e-09
-1.52791290189e-10
4.47953264232e-09
6.18871311072e-09
-1.61363473367e-10
4.41362613889e-09
5.8837618581e-09
-1.43504882321e-10
4.32009026878e-09
5.49878070148e-09
-9.33766714901e-11
4.19642851751e-09
5.03999506525e-09
4.0059790161e-09
4.51399050122e-09
2.03266737612e-12
1.06243367276e-10
3.60318719291e-09
4.28578521032e-09
1.0678746542e-12
1.65471243021e-10
3.76980206607e-09
4.80915879223e-09
1.87925954731e-10
3.86619432775e-09
5.26291864798e-09
1.7960585379e-10
3.93616737789e-09
5.64169105672e-09
1.46652371987e-10
3.98366530811e-09
5.94047696419e-09
9.5735124095e-11
4.01452933472e-09
6.15613574282e-09
3.4064162512e-11
4.03256461823e-09
6.28732884697e-09
-3.10448861281e-11
4.03912843157e-09
6.33245840837e-09
-9.27787813515e-11
4.03252313512e-09
6.2872961029e-09
-1.43824027321e-10
4.01444516232e-09
6.15606749114e-09
-1.76972044748e-10
3.98353870402e-09
5.94036304369e-09
-1.85559570526e-10
3.93599295375e-09
5.64151438591e-09
-1.63445348978e-10
3.86596605382e-09
5.26266396167e-09
-1.04620885793e-10
3.76958759752e-09
4.80888698551e-09
3.60306632091e-09
4.28566125371e-09
2.21457607803e-12
1.15866349778e-10
3.14753573386e-09
3.99304232931e-09
1.05838638655e-12
1.83352021803e-10
3.29023091925e-09
4.5115319812e-09
2.10439783955e-10
3.36237711611e-09
4.95925917825e-09
2.02627775996e-10
3.41294086419e-09
5.33161836268e-09
1.66225484849e-10
3.4463453358e-09
5.62447969957e-09
1.08778880202e-10
3.46768963948e-09
5.8353463069e-09
3.86805858308e-11
3.47999470637e-09
5.96318547155e-09
-3.54872509619e-11
3.48442125479e-09
6.00682226395e-09
-1.05649311293e-10
3.48000590047e-09
5.9631674409e-09
-1.63222274835e-10
3.46771308951e-09
5.83530885092e-09
-1.99817366778e-10
3.44638036354e-09
5.62441475885e-09
-2.07892007949e-10
3.41298641416e-09
5.33150953444e-09
-1.81141967046e-10
3.36242304869e-09
4.95908754476e-09
-1.14061417503e-10
3.29033036275e-09
4.51135331597e-09
3.14771126606e-09
3.99300054088e-09
2.37302295472e-12
1.23644624033e-10
2.66695737073e-09
3.64761158326e-09
1.04248534712e-12
1.99592451694e-10
2.78490420697e-09
4.1603666538e-09
2.3204852096e-10
2.83617428046e-09
4.60217585903e-09
2.2511263733e-10
2.87241253376e-09
4.96878889939e-09
1.85434436137e-10
2.89652151959e-09
5.25666548988e-09
1.21597552333e-10
2.91201832043e-09
5.46365483288e-09
4.32179095833e-11
2.92087662491e-09
5.58877819506e-09
-3.98661082548e-11
2.92395726871e-09
5.63113595449e-09
-1.18310859759e-10
2.92093338787e-09
5.58878170816e-09
-1.82277497347e-10
2.91213160062e-09
5.46366256165e-09
-2.22149459706e-10
2.8966934347e-09
5.25667311596e-09
-2.29350173205e-10
2.8726422236e-09
4.9687828466e-09
-1.97229086383e-10
2.83645903538e-09
4.60213239211e-09
-1.21687977732e-10
2.78528416624e-09
4.16032325591e-09
2.66739458831e-09
3.64767957279e-09
2.51166317642e-12
1.20768270973e-10
3.25859519415e-09
1.02117695326e-12
2.19530058872e-09
2.12051922948e-10
3.7663204939e-09
2.27001966105e-09
2.52176924135e-10
4.20299882628e-09
2.30864883139e-09
2.46916175213e-10
4.5651021591e-09
2.33721752824e-09
2.04346615535e-10
4.8493863898e-09
2.35715862509e-09
1.34319273912e-10
5.05373765293e-09
2.37049166298e-09
4.77316439462e-11
5.17698177005e-09
2.37815931332e-09
-4.42391948616e-11
5.21834497251e-09
2.38068940979e-09
-1.30898455107e-10
5.17701021405e-09
2.37825454507e-09
-2.01064746561e-10
5.05379760673e-09
2.37068295463e-09
-2.438404138e-10
4.84947856685e-09
2.35744638823e-09
-2.49373310724e-10
4.56521985327e-09
2.33760409475e-09
-2.09591683407e-10
4.20311567764e-09
2.30913377898e-09
-1.1871226478e-10
3.76646664151e-09
2.27063897547e-09
3.25874759842e-09
2.5970099713e-12
2.1959807087e-09
2.95486821057e-12
1.85549699457e-11
4.93618971233e-10
-2.06949995924e-14
5.16663684491e-12
1.87220735879e-11
5.43953807513e-10
6.40499987305e-12
1.91152013299e-11
5.90231370387e-10
6.50963915772e-12
1.9546368204e-11
6.31044666591e-10
5.56725812592e-12
2.01067382245e-11
6.64757559342e-10
3.76511862168e-12
2.05782720639e-11
6.8999829365e-10
1.37514641677e-12
2.0880589751e-11
7.05882523973e-10
-1.23742866246e-12
2.0975310397e-11
7.11614025745e-10
-3.64213204853e-12
2.08213943252e-11
7.05884426139e-10
-5.4645085976e-12
2.04808618821e-11
6.90002000449e-10
-6.40874703385e-12
2.00018930812e-11
6.64763120407e-10
-6.27181770513e-12
1.9440575479e-11
6.31053125214e-10
-5.03832037365e-12
1.89430090494e-11
5.90246224608e-10
-2.82867469377e-12
1.85835203659e-11
5.43988653229e-10
1.84468698957e-11
4.93720241453e-10
6.78236746017e-14
6.81657669216e-12
1.42498347588e-10
1.38055200173e-09
-5.21909874316e-14
1.18304238008e-11
1.54341995935e-10
1.52202424003e-09
1.44804744098e-11
1.66621534747e-10
1.65179319723e-09
1.45534716511e-11
1.7835430733e-10
1.76587557894e-09
1.23351801733e-11
1.88777208139e-10
1.85986969115e-09
8.2927676221e-12
1.96875463993e-10
1.93011017897e-09
3.03928676396e-12
2.02037805326e-10
1.97423499475e-09
-2.66243882552e-12
2.03852225747e-10
1.99010381216e-09
-7.94234706793e-12
2.01904107658e-10
1.97423914568e-09
-1.20192891362e-11
1.96642594095e-10
1.93011813286e-09
-1.42380511626e-11
1.88499724185e-10
1.85988156584e-09
-1.41176240702e-11
1.78054488669e-10
1.76589430861e-09
-1.14695730588e-11
1.66230720899e-10
1.65182909399e-09
-6.49065715592e-12
1.53985116473e-10
1.52211532222e-09
1.42249423048e-10
1.38080228394e-09
1.84243447599e-13
9.53343339531e-12
3.67378622191e-10
2.15967747988e-09
-7.50715976036e-14
1.62863494166e-11
4.01896293029e-10
2.38472892529e-09
1.95799296041e-11
4.36650650459e-10
2.59086367115e-09
1.93812446707e-11
4.69216690949e-10
2.77174417122e-09
1.62314497185e-11
4.9737907778e-10
2.92053815423e-09
1.08261524802e-11
5.19014147037e-10
3.03159039759e-09
3.97231652908e-12
5.32746577398e-10
3.10124347218e-09
-3.40351157573e-12
5.37603650543e-10
3.12620701061e-09
-1.02852285455e-11
5.32557493784e-10
3.10124694743e-09
-1.57247140126e-11
5.18675614203e-10
3.03159687762e-09
-1.88712167405e-11
4.96955951177e-10
2.920547789e-09
-1.90233936508e-11
4.68743781479e-10
2.77176108832e-09
-1.57310188943e-11
4.36084806489e-10
2.5909026091e-09
-9.03953389871e-12
4.01366540777e-10
2.38484333103e-09
3.67048913085e-10
2.16000995452e-09
2.97082177106e-13
1.22264820226e-11
6.58033605834e-10
2.835216056e-09
-7.19958411114e-14
2.04777011425e-11
7.21138672305e-10
3.1363252498e-09
2.41640092958e-11
7.83585779273e-10
3.41159564653e-09
2.35540909994e-11
8.41215692667e-10
3.65262340831e-09
1.94910478327e-11
8.90276282048e-10
3.85051881631e-09
1.28973015407e-11
9.27625429809e-10
3.99798777624e-09
4.73717520948e-12
9.51221968676e-10
4.09031579952e-09
-3.96819798525e-12
9.59576989781e-10
4.12329281818e-09
-1.21543410282e-11
9.50998311232e-10
4.09031470414e-09
-1.87799294186e-11
9.27215223623e-10
3.99798505226e-09
-2.28445137673e-11
8.89741503766e-10
3.85051455727e-09
-2.34242732794e-11
8.40603773523e-10
3.65262209371e-09
-1.97528449624e-11
7.82895572481e-10
3.41161377636e-09
-1.15813183821e-11
7.20502365182e-10
3.13642367561e-09
6.57649494248e-10
2.83555752357e-09
4.27361503958e-13
1.57913639713e-11
9.7660035051e-10
3.40266943828e-09
-4.47032154702e-14
2.59222892012e-11
1.06899298696e-09
3.77103362225e-09
3.0125225981e-11
1.1588342154e-09
4.10682890078e-09
2.9024630624e-11
1.24049453068e-09
4.40000198187e-09
2.38052063585e-11
1.30906243127e-09
4.64009309339e-09
1.56567680624e-11
1.36078334096e-09
4.81862602387e-09
5.74774424655e-12
1.39328291907e-09
4.93015931832e-09
-4.75369556984e-12
1.40478370705e-09
4.96985687649e-09
-1.46883885494e-11
1.39304051076e-09
4.93015038719e-09
-2.28712409189e-11
1.36033217808e-09
4.81860752764e-09
-2.81058824387e-11
1.30846114225e-09
4.64006481278e-09
-2.92023799652e-11
1.23979807895e-09
4.39996784124e-09
-2.50388050827e-11
1.15806950452e-09
4.1068048618e-09
-1.50058747657e-11
1.06831083338e-09
3.7710835362e-09
9.76188744621e-10
3.40296723664e-09
5.74148634719e-13
2.07623073459e-11
1.28652284551e-09
3.85829931763e-09
-4.95969511162e-16
3.36029839796e-11
1.40446476804e-09
4.28397390878e-09
3.8727600955e-11
1.5168432248e-09
4.67049564419e-09
3.7119383654e-11
1.61739162445e-09
5.00667861553e-09
3.03288029157e-11
1.70063002124e-09
5.28107085143e-09