/*--------------------------------*- C++ -*----------------------------------*\
  =========                 |
  \\      /  F ield         | OpenFOAM: The Open Source CFD Toolbox
   \\    /   O peration     | Website:  https://openfoam.org
    \\  /    A nd           | Version:  7
     \\/     M anipulation  |
\*---------------------------------------------------------------------------*/
FoamFile
{
    version     2.0;
    format      ascii;
    class       volScalarField;
    location    "0.94";
    object      p;
}
// * * * * * * * * * * * * * * * * * * * * * * * * * * * * * * * * * * * * * //

dimensions      [0 2 -2 0 0 0 0];

internalField   nonuniform List<scalar> 
22500
(
9.59570280299e-06
9.59443534116e-06
9.5941107531e-06
9.5935719988e-06
9.59317739411e-06
9.59287075313e-06
9.59268249036e-06
9.59261688488e-06
9.5926854219e-06
9.59287657004e-06
9.59318611805e-06
9.59358342441e-06
9.59412487008e-06
9.59445102537e-06
9.59572124064e-06
9.57925167966e-06
9.57714392311e-06
9.57611492087e-06
9.57496081033e-06
9.57406558194e-06
9.57339026642e-06
9.57297663678e-06
9.5728359301e-06
9.57297976429e-06
9.57339647774e-06
9.57407486241e-06
9.57497298547e-06
9.57612984009e-06
9.57716048001e-06
9.57927093922e-06
9.56352511779e-06
9.56065749955e-06
9.55903406652e-06
9.55734489326e-06
9.55602281381e-06
9.55503300066e-06
9.55442763336e-06
9.55422282897e-06
9.55443067447e-06
9.55503903912e-06
9.55603181258e-06
9.55735671039e-06
9.55904854026e-06
9.56067362929e-06
9.56354416083e-06
9.54956264258e-06
9.54607414247e-06
9.54397768083e-06
9.54187264757e-06
9.54021971146e-06
9.53898829312e-06
9.53823608879e-06
9.53798226601e-06
9.53823897098e-06
9.53899401938e-06
9.54022822721e-06
9.54188381971e-06
9.54399140039e-06
9.54608948722e-06
9.54958114077e-06
9.53658176998e-06
9.53256695899e-06
9.53006960753e-06
9.52762939439e-06
9.52570868811e-06
9.52428418084e-06
9.52341508301e-06
9.52312239034e-06
9.52341782435e-06
9.52428962525e-06
9.52571677638e-06
9.52763999223e-06
9.53008263045e-06
9.53258154806e-06
9.5365996192e-06
9.52438792712e-06
9.51993818606e-06
9.51710629927e-06
9.51440424782e-06
9.51227356208e-06
9.51070007008e-06
9.50974126745e-06
9.50941886857e-06
9.50974387425e-06
9.51070525051e-06
9.51228124825e-06
9.51441431023e-06
9.51711863134e-06
9.51995207274e-06
9.52440517234e-06
9.51301761138e-06
9.50822790696e-06
9.50512792601e-06
9.5022352303e-06
9.49995097673e-06
9.49827097664e-06
9.49724858159e-06
9.49690525539e-06
9.49725107405e-06
9.49827592859e-06
9.49995831627e-06
9.50224482863e-06
9.50513965477e-06
9.50824114175e-06
9.51303432494e-06
9.5024766565e-06
9.49743865133e-06
9.49413269503e-06
9.49111439779e-06
9.48872825813e-06
9.48698006237e-06
9.48591755368e-06
9.48556117631e-06
9.48591995226e-06
9.48698482374e-06
9.48873531218e-06
9.4911236111e-06
9.49414391449e-06
9.49745135508e-06
9.50249295995e-06
9.49273756099e-06
9.48753659825e-06
9.48408184288e-06
9.48099593562e-06
9.47855412004e-06
9.47677132998e-06
9.47568921805e-06
9.47532665003e-06
9.47569154872e-06
9.47677595518e-06
9.47856096723e-06
9.48100487744e-06
9.48409269052e-06
9.48754894415e-06
9.49275360915e-06
9.48376340226e-06
9.47847768011e-06
9.4749279565e-06
9.47182624061e-06
9.4693699836e-06
9.46758192733e-06
9.46649800195e-06
9.4661351779e-06
9.46650029345e-06
9.46758647478e-06
9.46937671585e-06
9.47183503207e-06
9.47493859774e-06
9.47848986854e-06
9.48377944028e-06
9.47551171967e-06
9.47021242309e-06
9.46662098147e-06
9.46355032529e-06
9.46111640742e-06
9.45934858296e-06
9.45827821674e-06
9.45792025426e-06
9.45828049919e-06
9.45935311389e-06
9.46112312208e-06
9.46355910705e-06
9.46663160179e-06
9.47022468554e-06
9.47552802126e-06
9.46792203359e-06
9.46268418101e-06
9.45911104341e-06
9.45611486641e-06
9.45373552104e-06
9.45200978504e-06
9.45096613075e-06
9.45061743979e-06
9.45096843092e-06
9.45201436398e-06
9.45374232024e-06
9.4561237879e-06
9.45912185013e-06
9.4626967713e-06
9.46793887247e-06
9.46088499885e-06
9.45583503458e-06
9.45235965231e-06
9.44947569258e-06
9.44717671699e-06
9.44551106201e-06
9.44450537625e-06
9.44416975159e-06
9.4445077246e-06
9.44551573519e-06
9.44718369448e-06
9.44948490089e-06
9.4523708677e-06
9.45584822675e-06
9.46090265868e-06
9.45437564251e-06
9.44968092177e-06
9.44634445854e-06
9.44358874511e-06
9.44138475807e-06
9.43979418259e-06
9.43883706277e-06
9.43851833056e-06
9.43883946893e-06
9.43979899176e-06
9.44139198681e-06
9.44359838472e-06
9.44635631145e-06
9.44969505275e-06
9.45439425778e-06
9.44928969804e-06
9.44409666291e-06
9.44089234098e-06
9.43824009884e-06
9.4361454463e-06
9.43465217592e-06
9.43375972832e-06
9.43346347683e-06
9.43376222627e-06
9.4346571753e-06
9.43615300754e-06
9.43825030765e-06
9.44090519086e-06
9.44411225485e-06
9.4493090977e-06
7.66344843567e-06
7.66379965279e-06
7.66404827739e-06
7.66426074558e-06
7.66443436515e-06
7.6645635916e-06
7.66464398656e-06
7.66467109355e-06
7.66464336189e-06
7.66456246544e-06
7.66443305376e-06
7.66425969379e-06
7.66404751505e-06
7.6637993067e-06
7.66344847499e-06
7.66507503653e-06
7.66548496975e-06
7.66579544822e-06
7.66606415971e-06
7.66628507858e-06
7.66644956995e-06
7.66655177091e-06
7.66658632694e-06
7.66655114746e-06
7.66644845305e-06
7.66628379022e-06
7.66606316279e-06
7.66579488615e-06
7.66548476951e-06
7.66507527896e-06
7.66677558222e-06
7.66728411077e-06
7.66768067365e-06
7.66803105042e-06
7.6683222712e-06
7.66854031865e-06
7.66867612049e-06
7.66872218188e-06
7.66867554448e-06
7.6685392839e-06
7.6683210576e-06
7.66803005665e-06
7.66768011824e-06
7.66728380685e-06
7.666775828e-06
7.66869724404e-06
7.66937779407e-06
7.66991464841e-06
7.6703954082e-06
7.67079871448e-06
7.67110238845e-06
7.67129197242e-06
7.67135641965e-06
7.67129145277e-06
7.67110144872e-06
7.6707975822e-06
7.67039440771e-06
7.66991402899e-06
7.66937737097e-06
7.66869746655e-06
7.67107107952e-06
7.67200290067e-06
7.67273798364e-06
7.67339969712e-06
7.67395700505e-06
7.67437765496e-06
7.67464038518e-06
7.67472975977e-06
7.67463991587e-06
7.6743768039e-06
7.67395595919e-06
7.67339873076e-06
7.67273732797e-06
7.6720024037e-06
7.67107130016e-06
7.67395163038e-06
7.67520074847e-06
7.67617879951e-06
7.67705899961e-06
7.67780024373e-06
7.67835961932e-06
7.67870863756e-06
7.67882733391e-06
7.67870822533e-06
7.67835887073e-06
7.67779931222e-06
7.67705810977e-06
7.67617816776e-06
7.67520018657e-06
7.67395193157e-06
7.67730686197e-06
7.67891907634e-06
7.68016775479e-06
7.68128716796e-06
7.68222760989e-06
7.68293604808e-06
7.68337724726e-06
7.68352716924e-06
7.68337689329e-06
7.68293540526e-06
7.68222680755e-06
7.681286389e-06
7.68016720077e-06
7.67891851591e-06
7.67730727421e-06
7.6810722956e-06
7.68307088455e-06
7.68460055021e-06
7.68596316303e-06
7.68710382186e-06
7.68796078364e-06
7.68849323468e-06
7.68867396195e-06
7.68849294221e-06
7.68796025527e-06
7.68710316368e-06
7.68596252477e-06
7.68460009793e-06
7.68307038749e-06
7.68107281867e-06
7.68516691394e-06
7.68755249284e-06
7.68935736037e-06
7.69095216408e-06
7.69228155875e-06
7.69327712168e-06
7.69389406881e-06
7.69410320192e-06
7.69389383388e-06
7.69327670255e-06
7.69228104429e-06
7.69095168204e-06
7.68935704094e-06
7.68755210296e-06
7.68516761665e-06
7.68950178101e-06
7.69225370415e-06
7.69431378118e-06
7.69611743298e-06
7.69761404419e-06
7.69873088459e-06
7.69942102895e-06
7.69965463371e-06
7.69942084578e-06
7.69873056461e-06
7.6976136651e-06
7.69611710445e-06
7.69431360324e-06
7.69225344934e-06
7.68950267707e-06
7.69398646731e-06
7.69706515058e-06
7.69934863466e-06
7.70132886737e-06
7.70296405967e-06
7.70417963517e-06
7.70492849652e-06
7.70518156306e-06
7.7049283522e-06
7.70417939023e-06
7.70296378866e-06
7.70132867562e-06
7.69934859916e-06
7.69706505528e-06
7.69398761044e-06
7.69852832792e-06
7.70187932056e-06
7.7043470328e-06
7.70646746554e-06
7.70820906378e-06
7.70949810157e-06
7.7102894955e-06
7.71055644325e-06
7.71028936955e-06
7.70949789629e-06
7.70820885269e-06
7.70646736422e-06
7.70434710921e-06
7.70187939329e-06
7.69852972915e-06
7.7030301872e-06
7.70659658172e-06
7.70920939281e-06
7.711433172e-06
7.71324748546e-06
7.71458320846e-06
7.71540000801e-06
7.71567492653e-06
7.71539987575e-06
7.71458298461e-06
7.71324726496e-06
7.71143307947e-06
7.70920951803e-06
7.70659677485e-06
7.70303179606e-06
7.70748245453e-06
7.71121690964e-06
7.71390596572e-06
7.7161785728e-06
7.71801603834e-06
7.71935999614e-06
7.72017820298e-06
7.72045294036e-06
7.72017803336e-06
7.71935970614e-06
7.71801572211e-06
7.71617840129e-06
7.71390604746e-06
7.71121721187e-06
7.70748414664e-06
7.71236761644e-06
7.71581174812e-06
7.71843806935e-06
7.72066137948e-06
7.7224353786e-06
7.72372327528e-06
7.72450381829e-06
7.72476528132e-06
7.72450362124e-06
7.72372292013e-06
7.72243497278e-06
7.72066110655e-06
7.71843814755e-06
7.71581228597e-06
7.71236932503e-06
8.04753003645e-06
8.04739896716e-06
8.04725647234e-06
8.04710436161e-06
8.0469659382e-06
8.04685618484e-06
8.04678610346e-06
8.04676208684e-06
8.04678667804e-06
8.04685723415e-06
8.04696725723e-06
8.04710577734e-06
8.04725846215e-06
8.0474010638e-06
8.04753277866e-06
8.04758724333e-06
8.04746317658e-06
8.047325484e-06
8.0471770506e-06
8.04704124917e-06
8.04693309382e-06
8.04686380517e-06
8.04684001242e-06
8.04686442629e-06
8.04693423798e-06
8.04704270796e-06
8.04717865239e-06
8.04732758661e-06
8.04746549776e-06
8.04759016444e-06
8.04779688116e-06
8.04768774372e-06
8.04756456115e-06
8.04742749749e-06
8.04730063592e-06
8.04719870934e-06
8.04713305362e-06
8.04711044222e-06
8.04713367105e-06
8.04719985803e-06
8.04730213714e-06
8.04742919717e-06
8.04756670514e-06
8.04769013139e-06
8.04779988347e-06
8.04795329549e-06
8.04785002164e-06
8.04773466159e-06
8.0476033393e-06
8.0474809447e-06
8.04738205364e-06
8.04731811625e-06
8.04729605191e-06
8.0473187129e-06
8.04738317763e-06
8.04748245868e-06
8.04760510427e-06
8.04773682969e-06
8.04785239042e-06
8.04795639844e-06
8.04803504775e-06
8.04793083223e-06
8.04781820136e-06
8.04768880125e-06
8.04756811088e-06
8.04747046253e-06
8.04740725669e-06
8.04738543145e-06
8.04740783706e-06
8.04747156396e-06
8.04756962002e-06
8.04769059741e-06
8.04782039246e-06
8.04793317758e-06
8.04803824525e-06
8.04806992011e-06
8.0479628662e-06
8.04785203937e-06
8.04772445369e-06
8.04760591749e-06
8.04751017715e-06
8.04744824902e-06
8.04742687257e-06
8.04744881093e-06
8.04751125162e-06
8.04760741417e-06
8.04772626594e-06
8.04785423247e-06
8.04796521931e-06
8.0480731726e-06
8.0480797707e-06
8.04797152823e-06
8.04786414398e-06
8.04774059637e-06
8.04762658406e-06
8.04753483807e-06
8.04747561652e-06
8.04745519847e-06
8.0474761606e-06
8.04753588318e-06
8.04762805656e-06
8.04774240598e-06
8.04786632521e-06
8.04797387839e-06
8.04808309581e-06
8.04808109661e-06
8.04797565981e-06
8.04787487373e-06
8.04775883483e-06
8.0476526783e-06
8.04756768925e-06
8.04751299807e-06
8.04749417766e-06
8.04751352388e-06
8.04756870432e-06
8.04765412522e-06
8.0477606406e-06
8.04787704937e-06
8.04797800814e-06
8.04808451453e-06
8.04808812933e-06
8.04799080582e-06
8.04790044723e-06
8.04779575858e-06
8.04770096675e-06
8.04762555901e-06
8.04757723184e-06
8.0475606465e-06
8.04757773946e-06
8.04762654419e-06
8.04770238421e-06
8.04779755344e-06
8.0479026204e-06
8.04799316104e-06
8.04809163463e-06
8.04811232763e-06
8.04802866193e-06
8.04795236868e-06
8.0478624409e-06
8.04778205038e-06
8.04771862931e-06
8.04767820636e-06
8.04766438856e-06
8.04767869743e-06
8.04771958671e-06
8.04778344227e-06
8.04786422952e-06
8.04795454755e-06
8.04803104399e-06
8.04811592326e-06
8.04816154228e-06
8.04809626625e-06
8.04803675512e-06
8.04796402184e-06
8.04790018215e-06
8.04785043894e-06
8.0478189973e-06
8.04780831466e-06
8.0478194719e-06
8.04785136814e-06
8.04790154566e-06
8.04796580112e-06
8.04803893775e-06
8.04809867938e-06
8.04816522785e-06
8.04823878925e-06
8.04819507446e-06
8.04815386854e-06
8.04809973808e-06
8.04805374807e-06
8.04801873255e-06
8.04799692384e-06
8.04798960245e-06
8.04799738063e-06
8.04801963232e-06
8.04805508133e-06
8.0481015013e-06
8.04815605104e-06
8.04819750906e-06
8.04824253522e-06
8.04834415413e-06
8.04832335505e-06
8.04830057222e-06
8.04826516442e-06
8.04823743891e-06
8.04821752977e-06
8.04820559428e-06
8.04820169594e-06
8.04820602965e-06
8.04821839064e-06
8.04823872405e-06
8.04826689367e-06
8.0483027346e-06
8.04832580048e-06
8.04834793277e-06
8.04849716339e-06
8.04849857015e-06
8.04848449912e-06
8.04846203881e-06
8.04844857124e-06
8.04844077523e-06
8.04843674289e-06
8.04843560155e-06
8.04843715367e-06
8.0484415822e-06
8.0484497941e-06
8.04846370361e-06
8.04848661492e-06
8.04850102196e-06
8.04850089519e-06
8.04879795537e-06
8.04873864143e-06
8.04870567283e-06
8.04868045485e-06
8.04866945461e-06
8.0486646772e-06
8.04866277758e-06
8.04866238953e-06
8.04866317505e-06
8.04866546693e-06
8.0486706474e-06
8.0486821037e-06
8.04870782212e-06
8.04874123823e-06
8.04880160582e-06
7.01318138517e-06
7.01326992604e-06
7.01336931867e-06
7.01346878274e-06
7.01355717711e-06
7.01362593733e-06
7.01366945621e-06
7.01368420064e-06
7.0136687644e-06
7.01362461325e-06
7.01355537059e-06
7.01346682909e-06
7.01336737872e-06
7.01326833773e-06
7.0131796663e-06
7.01323619257e-06
7.01332315265e-06
7.0134228428e-06
7.01352322577e-06
7.01361285701e-06
7.01368283688e-06
7.01372723654e-06
7.01374230658e-06
7.01372650696e-06
7.01368144241e-06
7.01361096433e-06
7.01352118359e-06
7.01342090842e-06
7.01332155645e-06
7.01323466818e-06
7.01317929894e-06
7.01325674963e-06
7.01334841762e-06
7.01344242151e-06
7.01352732101e-06
7.01359412466e-06
7.01363671673e-06
7.01365122653e-06
7.01363604393e-06
7.01359283856e-06
7.01352557475e-06
7.01344050808e-06
7.01334662195e-06
7.01325517031e-06
7.01317789934e-06
7.01311591461e-06
7.01318567028e-06
7.01327056116e-06
7.01335859345e-06
7.01343894314e-06
7.0135026025e-06
7.01354337153e-06
7.01355730977e-06
7.01354277508e-06
7.01350146332e-06
7.01343739594e-06
7.01335687741e-06
7.01326893012e-06
7.01318417951e-06
7.01311462714e-06
7.01306607445e-06
7.01313006667e-06
7.0132098628e-06
7.01329276426e-06
7.01336904117e-06
7.01342976956e-06
7.01346880192e-06
7.01348218212e-06
7.01346826927e-06
7.01342875383e-06
7.01336765583e-06
7.01329121802e-06
7.01320836121e-06
7.01312866865e-06
7.01306490074e-06
7.01302130529e-06
7.01308024245e-06
7.01315552275e-06
7.01323341908e-06
7.01330551389e-06
7.01336313718e-06
7.0134002789e-06
7.01341304449e-06
7.01339981093e-06
7.01336224467e-06
7.01330429681e-06
7.0132320477e-06
7.01315417861e-06
7.01307891248e-06
7.01302030368e-06
7.01297681479e-06
7.01303097043e-06
7.01310214969e-06
7.01317507093e-06
7.01324285678e-06
7.01329720289e-06
7.01333231476e-06
7.01334441011e-06
7.01333190531e-06
7.01329642054e-06
7.01324178829e-06
7.01317385407e-06
7.01310094945e-06
7.0130297146e-06
7.01297596577e-06
7.01293160169e-06
7.01298137522e-06
7.01304899115e-06
7.01311716203e-06
7.01318073833e-06
7.01323183246e-06
7.01326491117e-06
7.0132763277e-06
7.0132645579e-06
7.01323115731e-06
7.01317981176e-06
7.01311609572e-06
7.01304791469e-06
7.0129802018e-06
7.01293086885e-06
7.0128856746e-06
7.01293181378e-06
7.01299653956e-06
7.01306044657e-06
7.01312014192e-06
7.01316820409e-06
7.01319936817e-06
7.01321013983e-06
7.01319906362e-06
7.01316762126e-06
7.0131193371e-06
7.01305950988e-06
7.01299557023e-06
7.01293071297e-06
7.01288506899e-06
7.01283957921e-06
7.01288314289e-06
7.01294575587e-06
7.01300605392e-06
7.01306235996e-06
7.01310774953e-06
7.01313720643e-06
7.01314739928e-06
7.01313694521e-06
7.0131072476e-06
7.01306166302e-06
7.0130052294e-06
7.01294487785e-06
7.01288210117e-06
7.01283908429e-06
7.01279418301e-06
7.01283654734e-06
7.0128978468e-06
7.0129552486e-06
7.01300872983e-06
7.01305185402e-06
7.01307984458e-06
7.01308953033e-06
7.01307961784e-06
7.01305141833e-06
7.0130081201e-06
7.01295452118e-06
7.01289705111e-06
7.01283557427e-06
7.01279380974e-06
7.01275004523e-06
7.01279286287e-06
7.01285364304e-06
7.01290892811e-06
7.01296022451e-06
7.01300155676e-06
7.01302834559e-06
7.01303760938e-06
7.01302814418e-06
7.01300116939e-06
7.01295968393e-06
7.01290827682e-06
7.01285292066e-06
7.01279196658e-06
7.01274980534e-06
7.01270647327e-06
7.01275150681e-06
7.01281279327e-06
7.0128670721e-06
7.0129172115e-06
7.0129574736e-06
7.01298348565e-06
7.01299244938e-06
7.01298330222e-06
7.01295712481e-06
7.01291671804e-06
7.01286648336e-06
7.01281213319e-06
7.01275069214e-06
7.01270636307e-06
7.01267016543e-06
7.01271968591e-06
7.01277957161e-06
7.0128323676e-06
7.01288123478e-06
7.01292027442e-06
7.01294532036e-06
7.01295392266e-06
7.01294515385e-06
7.01291994705e-06
7.01288078e-06
7.01283181985e-06
7.01277896678e-06
7.0127189652e-06
7.01267019695e-06
7.01272579995e-06
7.01275015441e-06
7.01278831039e-06
7.01282440274e-06
7.01286006041e-06
7.0128888948e-06
7.0129074384e-06
7.0129137937e-06
7.01290729119e-06
7.01288861302e-06
7.01285965914e-06
7.01282392883e-06
7.01278780597e-06
7.01274958466e-06
7.01272583963e-06
6.90961764624e-06
6.9095581642e-06
6.90949151648e-06
6.90942301138e-06
6.90936115985e-06
6.90931226506e-06
6.90928109981e-06
6.90927036222e-06
6.90928108761e-06
6.9093121401e-06
6.90936073008e-06
6.90942230615e-06
6.90949082408e-06
6.90955717753e-06
6.90961699621e-06
6.90959555428e-06
6.90953791788e-06
6.90947203147e-06
6.90940378629e-06
6.90934186142e-06
6.90929276055e-06
6.90926137798e-06
6.90925054474e-06
6.90926138241e-06
6.90929267186e-06
6.90934149582e-06
6.90940314321e-06
6.90947138174e-06
6.90953708308e-06
6.90959501615e-06
6.90964619272e-06
6.90959511801e-06
6.90953514545e-06
6.90947155572e-06
6.90941323783e-06
6.90936665227e-06
6.90933672556e-06
6.90932636083e-06
6.90933672802e-06
6.9093665761e-06
6.90941292774e-06
6.90947099458e-06
6.90953452781e-06
6.90959435157e-06
6.90964567166e-06
6.90969768432e-06
6.90965132903e-06
6.90959599286e-06
6.90953622769e-06
6.90948090778e-06
6.90943643542e-06
6.9094077293e-06
6.90939775735e-06
6.90940772328e-06
6.90943636162e-06
6.90948064741e-06
6.90953573935e-06
6.90959540792e-06
6.90965057048e-06
6.90969719002e-06
6.90973637927e-06
6.90969282815e-06
6.90964059692e-06
6.90958359238e-06
6.90953048674e-06
6.90948759298e-06
6.90945980811e-06
6.90945013536e-06
6.90945979519e-06
6.90948751728e-06
6.90953025146e-06
6.90958314831e-06
6.90964003948e-06
6.90969205768e-06
6.90973591671e-06
6.90976761585e-06
6.90972580809e-06
6.90967597864e-06
6.90962126368e-06
6.90957009626e-06
6.9095286462e-06
6.90950172714e-06
6.90949234078e-06
6.90950170522e-06
6.90952856274e-06
6.90956987565e-06
6.9096208502e-06
6.90967543694e-06
6.90972506127e-06
6.90976715387e-06
6.9097946975e-06
6.90975412647e-06
6.90970631778e-06
6.90965371056e-06
6.90960444474e-06
6.90956447753e-06
6.90953848408e-06
6.90952941158e-06
6.90953845275e-06
6.90956438218e-06
6.90960422435e-06
6.90965331191e-06
6.90970577786e-06
6.90975339181e-06
6.90979426144e-06
6.90981903085e-06
6.90977944367e-06
6.90973347165e-06
6.90968296649e-06
6.90963570904e-06
6.9095973798e-06
6.90957244331e-06
6.90956373621e-06
6.90957240185e-06
6.90959727063e-06
6.90963548528e-06
6.90968258213e-06
6.90973294587e-06
6.90977872606e-06
6.90981865501e-06
6.90984185319e-06
6.90980319917e-06
6.90975906671e-06
6.90971079873e-06
6.90966577465e-06
6.90962933134e-06
6.90960564506e-06
6.90959737628e-06
6.90960559398e-06
6.90962920871e-06
6.90966554359e-06
6.90971042278e-06
6.90975855837e-06
6.90980250401e-06
6.90984154334e-06
6.90986438975e-06
6.90982677818e-06
6.90978462568e-06
6.90973883211e-06
6.90969636759e-06
6.90966214103e-06
6.90963994714e-06
6.90963220841e-06
6.90963988868e-06
6.90966200763e-06
6.909696134e-06
6.90973847124e-06
6.90978414631e-06
6.90982612614e-06
6.90986415633e-06
6.90988767962e-06
6.9098513178e-06
6.90981133348e-06
6.90976829949e-06
6.90972878209e-06
6.90969714998e-06
6.9096767273e-06
6.9096696185e-06
6.90967666342e-06
6.90969701027e-06
6.90972854747e-06
6.90976795626e-06
6.90981088416e-06
6.90985071452e-06
6.90988753027e-06
6.90991254592e-06
6.90987752157e-06
6.90983980054e-06
6.90979980391e-06
6.90976364565e-06
6.90973503069e-06
6.90971667216e-06
6.90971030713e-06
6.90971660636e-06
6.90973488898e-06
6.90976342048e-06
6.90979948145e-06
6.90983938716e-06
6.90987696158e-06
6.90991247023e-06
6.9099403737e-06
6.90990613001e-06
6.90987038062e-06
6.90983349941e-06
6.90980104052e-06
6.90977577659e-06
6.90975974737e-06
6.90975420525e-06
6.90975968138e-06
6.90977564315e-06
6.90980082254e-06
6.90983320773e-06
6.90987000273e-06
6.90990561873e-06
6.90994037373e-06
6.90997283103e-06
6.9099381891e-06
6.90990370827e-06
6.90986975473e-06
6.90984102392e-06
6.90981918678e-06
6.9098054839e-06
6.90980079226e-06
6.90980542635e-06
6.90981905794e-06
6.90984083276e-06
6.90986948665e-06
6.90990337388e-06
6.9099377256e-06
6.90997289781e-06
6.90999378643e-06
6.90996313892e-06
6.90993194546e-06
6.90990335354e-06
6.90988022952e-06
6.90986294639e-06
6.9098522126e-06
6.90984854857e-06
6.90985216768e-06
6.90986285458e-06
6.90988007872e-06
6.90990315384e-06
6.90993168701e-06
6.90996276771e-06
6.90999383231e-06
6.20161480581e-06
6.20165232259e-06
6.20169412592e-06
6.20173669131e-06
6.20177472254e-06
6.20180447927e-06
6.2018232816e-06
6.2018295147e-06
6.2018225585e-06
6.20180309605e-06
6.20177281437e-06
6.20173445433e-06
6.20169170067e-06
6.20165002982e-06
6.20161225139e-06
6.20162888849e-06
6.20166541157e-06
6.20170691281e-06
6.20174949173e-06
6.20178770887e-06
6.2018177094e-06
6.20183670854e-06
6.20184301487e-06
6.20183595687e-06
6.20181627342e-06
6.20178573707e-06
6.20174720048e-06
6.20170448405e-06
6.2016631006e-06
6.20162646728e-06
6.20159588221e-06
6.20162817924e-06
6.20166586497e-06
6.20170548733e-06
6.20174146101e-06
6.20176994521e-06
6.20178807999e-06
6.20179412285e-06
6.20178736983e-06
6.20176858638e-06
6.20173958796e-06
6.20170328483e-06
6.20166352538e-06
6.20162585542e-06
6.20159351826e-06
6.20156174858e-06
6.20159081799e-06
6.20162540837e-06
6.20166247869e-06
6.2016965127e-06
6.20172367356e-06
6.20174105419e-06
6.20174687088e-06
6.20174039811e-06
6.20172241529e-06
6.20169477015e-06
6.20166040973e-06
6.2016231797e-06
6.20158855112e-06
6.20155942256e-06
6.20153507086e-06
6.20156202275e-06
6.2015944135e-06
6.20162951169e-06
6.20166201254e-06
6.20168810088e-06
6.20170486633e-06
6.20171049598e-06
6.20170425682e-06
6.20168693022e-06
6.20166038066e-06
6.2016275577e-06
6.20159226921e-06
6.2015598163e-06
6.20153278986e-06
6.20151231459e-06
6.20153772152e-06
6.20156825673e-06
6.20160161253e-06
6.20163267755e-06
6.20165772124e-06
6.20167386598e-06
6.20167930357e-06
6.20167330054e-06
6.20165663282e-06
6.20163115395e-06
6.20159977496e-06
6.20156622199e-06
6.2015355603e-06
6.20151013246e-06
6.2014913716e-06
6.20151545689e-06
6.20154432642e-06
6.20157598936e-06
6.20160558231e-06
6.20162951053e-06
6.20164497131e-06
6.20165019055e-06
6.20164444678e-06
6.20162849754e-06
6.20160415673e-06
6.20157425348e-06
6.20154238883e-06
6.20151334346e-06
6.20148927612e-06
6.20147140447e-06
6.20149424835e-06
6.20152156018e-06
6.20155151105e-06
6.20157955892e-06
6.20160227311e-06
6.20161697085e-06
6.20162193911e-06
6.2016164841e-06
6.20160133079e-06
6.20157822513e-06
6.2015498732e-06
6.20151970982e-06
6.20149219543e-06
6.20146937283e-06
6.20145173328e-06
6.20147339096e-06
6.20149917679e-06
6.20152736619e-06
6.20155376787e-06
6.20157515278e-06
6.20158899791e-06
6.20159367951e-06
6.20158854456e-06
6.20157427295e-06
6.20155251375e-06
6.20152581229e-06
6.201497399e-06
6.20147138926e-06
6.20144978427e-06
6.20143180205e-06
6.20145226047e-06
6.20147651876e-06
6.20150288997e-06
6.20152754044e-06
6.20154748502e-06
6.2015603879e-06
6.20156474941e-06
6.201559965e-06
6.20154666062e-06
6.20152635969e-06
6.20150141152e-06
6.20147480657e-06
6.20145030383e-06
6.20142993093e-06
6.20141116642e-06
6.2014304286e-06
6.20145317956e-06
6.2014776919e-06
6.20150050594e-06
6.20151890316e-06
6.20153078375e-06
6.20153479063e-06
6.20153038658e-06
6.20151812768e-06
6.20149938703e-06
6.20147628214e-06
6.20145152786e-06
6.20142852421e-06
6.20140939144e-06
6.20138952031e-06
6.20140767353e-06
6.20142900415e-06
6.20145168127e-06
6.20147260131e-06
6.20148938035e-06
6.20150016623e-06
6.20150379491e-06
6.2014997926e-06
6.20148864594e-06
6.20147154251e-06
6.2014503326e-06
6.20142741359e-06
6.20140583077e-06
6.20138785728e-06
6.20136615975e-06
6.20138354443e-06
6.20140379976e-06
6.2014248478e-06
6.201443984e-06
6.20145915061e-06
6.2014688492e-06
6.20147208279e-06
6.2014684948e-06
6.20145846173e-06
6.20144297354e-06
6.20142356679e-06
6.20140227155e-06
6.20138177467e-06
6.20136461994e-06
6.20134056834e-06
6.20135805024e-06
6.20137768855e-06
6.20139744042e-06
6.20141493263e-06
6.20142859997e-06
6.20143722857e-06
6.20144009501e-06
6.20143689939e-06
6.20142794363e-06
6.20141398429e-06
6.20139621569e-06
6.20137623319e-06
6.20135636234e-06
6.20133919409e-06
6.20132860461e-06
6.20134313847e-06
6.20135941675e-06
6.20137511562e-06
6.2013887346e-06
6.20139921955e-06
6.20140579175e-06
6.20140793822e-06
6.20140548054e-06
6.20139860975e-06
6.20138783555e-06
6.20137396141e-06
6.20135802846e-06
6.20134151958e-06
6.2013272581e-06
5.88347377882e-06
5.88344972261e-06
5.88342210327e-06
5.88339384612e-06
5.88336855666e-06
5.88334870247e-06
5.88333602757e-06
5.88333164049e-06
5.88333597976e-06
5.88334859905e-06
5.8833683816e-06
5.88339350486e-06
5.88342149378e-06
5.88344874714e-06
5.8834731296e-06
5.88346227418e-06
5.88343881504e-06
5.88341138807e-06
5.8833831215e-06
5.88335769667e-06
5.88333766433e-06
5.88332484721e-06
5.88332040414e-06
5.88332480725e-06
5.88333757647e-06
5.88335753677e-06
5.88338279364e-06
5.88341078339e-06
5.8834378934e-06
5.88346163242e-06
5.88348005926e-06
5.88345911951e-06
5.88343401444e-06
5.88340755847e-06
5.88338349133e-06
5.8833643768e-06
5.88335208925e-06
5.88334781679e-06
5.88335204629e-06
5.88336428053e-06
5.88338331498e-06
5.88340721799e-06
5.88343340435e-06
5.88345825806e-06
5.883479407e-06
5.88349876143e-06
5.88347971721e-06
5.8834564482e-06
5.88343154267e-06
5.88340863765e-06
5.88339031407e-06
5.88337848593e-06
5.88337436175e-06
5.88337843516e-06
5.88339019868e-06
5.88340842641e-06
5.88343116377e-06
5.88345582392e-06
5.88347886023e-06
5.88349811524e-06
5.88351290638e-06
5.88349506938e-06
5.88347306428e-06
5.88344933424e-06
5.88342733516e-06
5.8834096452e-06
5.88339818843e-06
5.88339418423e-06
5.88339812795e-06
5.88340950917e-06
5.88342709119e-06
5.88344891872e-06
5.88347242574e-06
5.88349419858e-06
5.88351225438e-06
5.88352466065e-06
5.88350765023e-06
5.88348669122e-06
5.88346400061e-06
5.88344284848e-06
5.88342577736e-06
5.88341469382e-06
5.88341081158e-06
5.8834146212e-06
5.88342561632e-06
5.88344256617e-06
5.88346354237e-06
5.88348602837e-06
5.88350678958e-06
5.88352397304e-06
5.88353532348e-06
5.88351900365e-06
5.88349896826e-06
5.88347727556e-06
5.88345699477e-06
5.88344059056e-06
5.883429922e-06
5.88342617753e-06
5.88342983709e-06
5.88344040532e-06
5.88345667879e-06
5.88347678314e-06
5.88349828019e-06
5.88351814875e-06
5.88353462165e-06
5.88354540009e-06
5.88352970883e-06
5.8835105233e-06
5.8834898435e-06
5.88347049052e-06
5.88345482181e-06
5.88344462194e-06
5.883441036e-06
5.88344452473e-06
5.88345461296e-06
5.88347014403e-06
5.88348932553e-06
5.88350982646e-06
5.88352886502e-06
5.88354471839e-06
5.88355529102e-06
5.88354018598e-06
5.88352182404e-06
5.88350219256e-06
5.88348384042e-06
5.88346899107e-06
5.88345932413e-06
5.88345592222e-06
5.883459217e-06
5.88346876444e-06
5.88348347348e-06
5.88350166119e-06
5.88352113195e-06
5.8835393625e-06
5.88355463673e-06
5.8835653177e-06
5.88355077399e-06
5.88353324227e-06
5.88351471038e-06
5.88349744854e-06
5.88348350986e-06
5.88347444567e-06
5.88347125376e-06
5.8834743316e-06
5.88348327179e-06
5.88349707079e-06
5.8835141807e-06
5.88353257136e-06
5.88354999054e-06
5.88356470694e-06
5.88357570498e-06
5.88356169596e-06
5.88354500214e-06
5.88352762369e-06
5.88351154317e-06
5.88349861289e-06
5.88349022421e-06
5.88348727142e-06
5.88349010795e-06
5.88349837144e-06
5.88351116734e-06
5.88352710833e-06
5.88354436169e-06
5.88356095919e-06
5.88357514675e-06
5.88358661558e-06
5.88357304291e-06
5.88355716052e-06
5.88354097499e-06
5.88352616255e-06
5.88351433259e-06
5.88350669211e-06
5.88350400616e-06
5.88350657751e-06
5.88351409878e-06
5.88352579951e-06
5.88354048692e-06
5.88355656196e-06
5.88357235153e-06
5.88358610755e-06
5.88359840518e-06
5.88358499144e-06
5.88356977695e-06
5.88355473466e-06
5.88354120212e-06
5.88353051865e-06
5.88352366185e-06
5.88352126151e-06
5.88352355595e-06
5.88353029769e-06
5.88354086605e-06
5.88355428369e-06
5.8835692255e-06
5.88358435109e-06
5.88359795293e-06
5.88361071263e-06
5.88359698194e-06
5.88358247116e-06
5.88356859802e-06
5.88355639843e-06
5.88354690205e-06
5.88354086925e-06
5.88353876665e-06
5.88354077513e-06
5.88354670708e-06
5.88355609723e-06
5.88356819711e-06
5.88358197637e-06
5.88359639721e-06
5.88361032647e-06
5.88361108108e-06
5.88360089666e-06
5.88358963018e-06
5.88357906872e-06
5.88356987885e-06
5.88356278434e-06
5.88355829828e-06
5.88355674069e-06
5.88355822108e-06
5.88356262258e-06
5.88356962762e-06
5.88357873049e-06
5.88358920351e-06
5.88360036948e-06
5.88361072255e-06
5.3211591413e-06
5.32117350093e-06
5.32118974723e-06
5.32120629185e-06
5.32122108456e-06
5.3212326822e-06
5.321240043e-06
5.3212424876e-06
5.32123974645e-06
5.32123208709e-06
5.32122019047e-06
5.32120517149e-06
5.32118851702e-06
5.32117245355e-06
5.32115810923e-06
5.3211626846e-06
5.32117668287e-06
5.32119270955e-06
5.32120917197e-06
5.3212239587e-06
5.32123559451e-06
5.32124299708e-06
5.32124545586e-06
5.32124268365e-06
5.32123496671e-06
5.32122301866e-06
5.32120799564e-06
5.32119143169e-06
5.32117556201e-06
5.32116171247e-06
5.32114931833e-06
5.32116175527e-06
5.32117630509e-06
5.32119165696e-06
5.32120560566e-06
5.32121668172e-06
5.32122375989e-06
5.32122611652e-06
5.3212234542e-06
5.32121607103e-06
5.32120469816e-06
5.32119051484e-06
5.32117506366e-06
5.32116059575e-06
5.32114833841e-06
5.32113608372e-06
5.32114733477e-06
5.32116073112e-06
5.32117514558e-06
5.32118839754e-06
5.32119900739e-06
5.32120581689e-06
5.32120809015e-06
5.32120552409e-06
5.32119842401e-06
5.321187535e-06
5.3211740525e-06
5.32115951777e-06
5.32114616353e-06
5.32113505078e-06
5.3211259289e-06
5.32113642655e-06
5.32114902083e-06