/*--------------------------------*- C++ -*----------------------------------*\
  =========                 |
  \\      /  F ield         | OpenFOAM: The Open Source CFD Toolbox
   \\    /   O peration     | Website:  https://openfoam.org
    \\  /    A nd           | Version:  7
     \\/     M anipulation  |
\*---------------------------------------------------------------------------*/
FoamFile
{
    version     2.0;
    format      ascii;
    class       surfaceScalarField;
    location    "1.84";
    object      phi;
}
// * * * * * * * * * * * * * * * * * * * * * * * * * * * * * * * * * * * * * //

dimensions      [0 3 -1 0 0 0 0];

internalField   nonuniform List<scalar> 
65775
(
-1.57542395794e-11
-7.31434263861e-09
1.93282732287e-10
7.48211903826e-13
-3.12863133872e-11
-7.71092837775e-09
2.21488619296e-10
-3.57533283257e-11
-8.0837541129e-09
2.51154282818e-10
-3.32669226479e-11
-8.40550047493e-09
2.79676598374e-10
-2.69138034184e-11
-8.66557649546e-09
3.0471087527e-10
-1.84315025429e-11
-8.8575086336e-09
3.2422336497e-10
-8.83436772828e-12
-8.97833375168e-09
3.36712761215e-10
1.17579735998e-12
-9.02337054941e-09
3.41115724415e-10
1.08650671873e-11
-8.97877304283e-09
3.36613614994e-10
1.95276100677e-11
-8.85838250262e-09
3.24024781827e-10
2.61201695513e-11
-8.66683604444e-09
3.04416412921e-10
2.8942241307e-11
-8.40695304485e-09
2.7929034826e-10
2.48936487904e-11
-8.08526169604e-09
2.50676250581e-10
9.96116596399e-12
-7.71222574089e-09
2.20910252993e-10
-7.3153371094e-09
1.92593564326e-10
-4.02883541713e-12
-6.5955162599e-11
-1.39500888317e-08
-9.9505851924e-11
3.2254325573e-12
-1.12121874115e-10
-1.47062805614e-08
-1.23788187372e-10
-1.26424472579e-10
-1.54210187274e-08
-1.43689104623e-10
-1.18953335232e-10
-1.60323882825e-08
-1.5976562431e-10
-9.68289789729e-11
-1.65237339838e-08
-1.72283393264e-10
-6.53337006485e-11
-1.688457339e-08
-1.81362685967e-10
-2.85236320035e-11
-1.71110386594e-08
-1.87010529146e-10
9.98316567986e-12
-1.71952475058e-08
-1.89112825632e-10
4.68952304746e-11
-1.71119052247e-08
-1.87312634198e-10
7.85674241433e-11
-1.68862751813e-08
-1.81966994386e-10
1.00893826409e-10
-1.65261424838e-08
-1.73176489383e-10
1.08675041946e-10
-1.60352042651e-08
-1.60930888268e-10
9.48980149195e-11
-1.54239282289e-08
-1.45119213882e-10
4.98925413537e-11
-1.47089799501e-08
-1.25499409396e-10
-1.39524632582e-08
-1.01518111772e-10
-1.06143335766e-11
-1.31088725988e-10
-1.94413215154e-08
-8.41468015549e-10
3.29886683878e-12
-2.09796209216e-10
-2.04704192742e-08
-9.83690032185e-10
-2.38387040222e-10
-2.14300423284e-08
-1.1168705732e-09
-2.28078076301e-10
-2.22431757339e-08
-1.23558271763e-09
-1.88073489246e-10
-2.28920951305e-08
-1.33460755619e-09
-1.26867503019e-10
-2.33660827293e-08
-1.40938655613e-09
-5.28722221045e-11
-2.36627120297e-08
-1.45652740381e-09
2.52747046762e-11
-2.3773029792e-08
-1.47333951624e-09
9.94866532642e-11
-2.36639488354e-08
-1.45690568466e-09
1.6111452354e-10
-2.33685024689e-08
-1.4101507227e-09
2.01721124159e-10
-2.28955128503e-08
-1.33575306309e-09
2.12878341796e-10
-2.22472214748e-08
-1.2371064008e-09
1.85510349797e-10
-2.14342594118e-08
-1.11878518525e-09
1.08827139957e-10
-2.04745068081e-08
-9.86043655324e-10
-1.94450728807e-08
-8.44311979665e-10
-1.57856567644e-11
-2.04007629302e-10
-2.3571356062e-08
-1.792153981e-09
3.23465756473e-12
-3.19155195038e-10
-2.47727055208e-08
-2.07035147566e-09
-3.65149764605e-10
-2.58667946333e-08
-2.33098514219e-09
-3.5277048728e-10
-2.67856908659e-08
-2.56283627738e-09
-2.92671123145e-10
-2.75142848141e-08
-2.75552385319e-09
-1.96601049898e-10
-2.80441923111e-08
-2.90040198233e-09
-7.82243720748e-11
-2.83752198701e-08
-2.99136522998e-09
4.74587299649e-11
-2.84985335976e-08
-3.02363430147e-09
1.66029215139e-10
-2.83766882366e-08
-2.99176238531e-09
2.62492006027e-10
-2.80470623052e-08
-2.90120961933e-09
3.23190130124e-10
-2.75183375242e-08
-2.75674746284e-09
3.36452330099e-10
-2.6790529465e-08
-2.56448722647e-09
2.91782627523e-10
-2.58719032234e-08
-2.33309522895e-09
1.78813441041e-10
-2.477779485e-08
-2.07299664838e-09
-2.35762314063e-08
-1.7954218485e-09
-1.8548520904e-11
-2.76648967214e-10
-2.63276282404e-08
-2.7554897378e-09
2.94791355258e-12
-4.31910275315e-10
-2.76117544415e-08
-3.15469655445e-09
-4.97063836996e-10
-2.87498193343e-08
-3.52475589489e-09
-4.82846531715e-10
-2.96986256869e-08
-3.85111032804e-09
-4.01568680482e-10
-3.04474806692e-08
-4.12029546528e-09
-2.6859587271e-10
-3.09908930581e-08
-4.32143793335e-09
-1.03223868557e-10
-3.13301955606e-08
-4.44717385187e-09
7.2807297852e-11
-3.14568457579e-08
-4.49165509266e-09
2.38317919512e-10
-3.13317728354e-08
-4.44755724384e-09
3.71583695304e-10
-3.09939739752e-08
-4.32222054762e-09
4.53336156209e-10
-3.045183384e-08
-4.12148959036e-09
4.68296309655e-10
-2.97038509047e-08
-3.85273695073e-09
4.04319613498e-10
-2.87553985704e-08
-3.52685847372e-09
2.51034188493e-10
-2.76173897623e-08
-3.15736847375e-09
-2.63332244408e-08
-2.75884853802e-09
-1.94484309114e-11
-3.43701791805e-10
-2.78360525851e-08
-3.59836934349e-09
2.54044798102e-12
-5.40877962603e-10
-2.91339778853e-08
-4.09080363523e-09
-6.25548591328e-10
-3.0254983894e-08
-4.54230169168e-09
-6.09504562914e-10
-3.11840167019e-08
-4.93730520587e-09
-5.0721763758e-10
-3.19154966323e-08
-5.26105199961e-09
-3.38037810995e-10
-3.24461486905e-08
-5.50178757512e-09
-1.26847064097e-10
-3.27776527581e-08
-5.65177202555e-09
9.8185910507e-11
-3.29015563753e-08
-5.70472429203e-09
3.09478896043e-10
-3.27792521941e-08
-5.6521332104e-09
4.78883019573e-10
-3.24492709489e-08
-5.5025271731e-09
5.81550432368e-10
-3.19199077406e-08
-5.26218276182e-09
5.98211742641e-10
-3.11893256973e-08
-4.93884992989e-09
5.14553156852e-10
-3.02606891343e-08
-4.54430512412e-09
3.19078820568e-10
-2.91397995055e-08
-4.0933627267e-09
-2.78420354815e-08
-3.60161876217e-09
-1.92216351859e-11
-4.03481304894e-10
-2.82847020953e-08
-4.2604257272e-09
2.11557579201e-12
-6.42311375817e-10
-2.95461472468e-08
-4.82039403432e-09
-7.46025344192e-10
-3.06128947344e-08
-5.32965902771e-09
-7.28263065581e-10
-3.14924139177e-08
-5.77279660215e-09
-6.0600514989e-10
-3.21845163222e-08
-6.13455082675e-09
-4.02774215735e-10
-3.26871632977e-08
-6.40275616596e-09
-1.48777606168e-10
-3.30014530709e-08
-6.56948559603e-09
1.21945406693e-10
-3.31189228037e-08
-6.62822428819e-09
3.76038284614e-10
-3.30030339775e-08
-6.56982155395e-09
5.79483382882e-10
-3.26902438202e-08
-6.40344879646e-09
7.02104686578e-10
-3.21888628588e-08
-6.13561324387e-09
7.20446168017e-10
-3.14976478166e-08
-5.77424805829e-09
6.17659197551e-10
-3.06185418325e-08
-5.33153715169e-09
3.80340285198e-10
-2.95519317674e-08
-4.82279277769e-09
-2.82908145813e-08
-4.263481913e-09
-1.85095939388e-11
-4.57003845033e-10
-2.78697653118e-08
-4.73256457733e-09
1.72866469889e-12
-7.35897966067e-10
-2.90580248391e-08
-5.34177389825e-09
-8.57985336836e-10
-3.00480560945e-08
-5.89314511823e-09
-8.38768474976e-10
-3.08602582517e-08
-6.37154371438e-09
-6.9784070603e-10
-3.14999377416e-08
-6.76131582292e-09
-4.62921207098e-10
-3.19654045297e-08
-7.04986751803e-09
-1.69263566955e-10
-3.22566600618e-08
-7.22897273336e-09
1.43734426066e-10
-3.2365336429e-08
-7.29190406953e-09
4.37507112201e-10
-3.2258201578e-08
-7.2292989017e-09
6.72679895591e-10
-3.19684002756e-08
-7.05054370229e-09
8.14022911009e-10
-3.15041601452e-08
-6.76234765598e-09
8.33866757623e-10
-3.08653448286e-08
-6.37293995802e-09
7.12719640518e-10
-3.00535641134e-08
-5.89493036051e-09
4.3526819209e-10
-2.90636882232e-08
-5.34403046504e-09
-2.78758995089e-08
-4.73542070282e-09
-1.77437916497e-11
-5.064262492e-10
-2.67693282296e-08
-5.03077698437e-09
1.40118957277e-12
-8.23432509518e-10
-2.7857032174e-08
-5.67764859755e-09
-9.6343694098e-10
-2.87558157584e-08
-6.26169937762e-09
-9.43077459751e-10
-2.94896614167e-08
-6.76783043986e-09
-7.84544395558e-10
-3.00688893573e-08
-7.17986113898e-09
-5.19749238686e-10
-3.04913499153e-08
-7.48467018916e-09
-1.88801921538e-10
-3.07557331611e-08
-7.67361895907e-09
1.63906163097e-10
-3.08540263338e-08
-7.73978695289e-09
4.95003601528e-10
-3.07572278502e-08
-7.67394746184e-09
7.60121438108e-10
-3.04942508252e-08
-7.48534692086e-09
9.19166503993e-10
-3.00729787569e-08
-7.18088462173e-09
9.4026040071e-10
-2.94945990266e-08
-6.769198103e-09
8.01285769498e-10
-2.8761191994e-08
-6.26342030491e-09
4.85751894179e-10
-2.78626023887e-08
-5.67979105907e-09
-2.67754475866e-08
-5.03345452243e-09
-1.71448294164e-11
-5.53934265798e-10
-2.51362823305e-08
-5.17803344461e-09
1.13528493611e-12
-9.07572913915e-10
-2.61029764158e-08
-5.85516598513e-09
-1.06545223805e-09
-2.69005297511e-08
-6.46590386179e-09
-1.04414153138e-09
-2.75496177879e-08
-6.99490063581e-09
-8.68516587724e-10
-2.80638830909e-08
-7.42535424104e-09
-5.74808124286e-10
-2.84398788952e-08
-7.74361153866e-09
-2.07908599693e-10
-2.86749752642e-08
-7.94061147763e-09
1.83038432589e-10
-2.876186795e-08
-8.00931493121e-09
5.50131388305e-10
-2.86764268095e-08
-7.9409477016e-09
8.4424749823e-10
-2.84426966881e-08
-7.74429921273e-09
1.02050466755e-09
-2.80678639852e-08
-7.42638477445e-09
1.04269163458e-09
-2.75544490069e-08
-6.99625972798e-09
8.85978269829e-10
-2.69058395868e-08
-6.46758455583e-09
5.33915006439e-10
-2.61085469076e-08
-5.85722243805e-09
-2.51424748938e-08
-5.18056130577e-09
-1.68017199618e-11
-6.01265420212e-10
-2.31006685174e-08
-5.19547746529e-09
9.20745788124e-13
-9.91207472742e-10
-2.39313704687e-08
-5.89748712725e-09
-1.16736999549e-09
-2.46214800459e-08
-6.53039482767e-09
-1.14494379237e-09
-2.51838565916e-08
-7.0783819074e-09
-9.51999503544e-10
-2.56319405358e-08
-7.52403284949e-09
-6.29459922869e-10
-2.59601677884e-08
-7.8532789041e-09
-2.27003092796e-10
-2.6164861878e-08
-8.05672379091e-09
2.01673790713e-10
-2.62398578605e-08
-8.12733097981e-09
6.0437056962e-10
-2.61662826894e-08
-8.05707016885e-09
9.27409037954e-10
-2.5962929465e-08
-7.85398274189e-09
1.12111593832e-09
-2.56358595017e-08
-7.52507905329e-09
1.14457671321e-09
-2.51886525717e-08
-7.07974497794e-09
9.69743331467e-10
-2.46268222492e-08
-6.53205197955e-09
5.81516098412e-10
-2.39370744237e-08
-5.89947886966e-09
-2.31070437344e-08
-5.19788094643e-09
-1.67236580593e-11
-6.49702867987e-10
-2.07746660324e-08
-5.0996964652e-09
7.4285636466e-13
-1.07751856571e-09
-2.14584125177e-08
-5.82202848807e-09
-1.27251277389e-09
-2.20398196948e-08
-6.47316739524e-09
-1.24798705673e-09
-2.25186484476e-08
-7.03655743993e-09
-1.03661372051e-09
-2.29025804002e-08
-7.49428472491e-09
-6.84594680737e-10
-2.31837177462e-08
-7.83208485488e-09
-2.46332673312e-10
-2.3358091011e-08
-8.04037542709e-09
2.20182091878e-10
-2.34211868141e-08
-8.11226448257e-09
6.58731560252e-10
-2.33594981875e-08
-8.04073213316e-09
1.01134141022e-09
-2.31864613786e-08
-7.83280589679e-09
1.22361061177e-09
-2.29065014113e-08
-7.49534972521e-09
1.24933645732e-09
-2.25234996194e-08
-7.03793099591e-09
1.05584933812e-09
-2.20453155707e-08
-6.47481108985e-09
6.29914444568e-10
-2.14643949383e-08
-5.82396808612e-09
-2.07813514438e-08
-5.10199184395e-09
-1.68781173495e-11
-7.01776509692e-10
-1.82557293677e-08
-4.90285668475e-09
5.98217510342e-13
-1.17144105664e-09
-1.87851744683e-08
-5.64151601616e-09
-1.38408858737e-09
-1.92653164663e-08
-6.30733780647e-09
-1.35461576611e-09
-1.96689152402e-08
-6.88264173076e-09
-1.1227669775e-09
-1.99930628781e-08
-7.34931682163e-09
-7.4027886364e-10
-2.02291679285e-08
-7.69321719345e-09
-2.65869388511e-10
-2.0374288178e-08
-7.90474946214e-09
2.38643723334e-10
-2.04258872173e-08
-7.97730538631e-09
7.13386789333e-10
-2.03757057459e-08
-7.90511462461e-09
1.09655442379e-09
-2.02319466596e-08
-7.6939526657e-09
1.32943330768e-09
-1.99970601442e-08
-7.35039885545e-09
1.36027339705e-09
-1.96739296613e-08
-6.88402732465e-09
1.14932195705e-09
-1.92711041864e-08
-6.30897320806e-09
6.81721662117e-10
-1.87916134788e-08
-5.64340712595e-09
-1.82629030962e-08
-4.90504392577e-09
-1.71639843819e-11
-7.68572281657e-10
-1.56214563411e-08
-4.61372247509e-09
4.90479425739e-13
-1.28219797121e-09
-1.60046193179e-08
-5.3659215495e-09
-1.50490668788e-09
-1.64037940799e-08
-6.04326375415e-09
-1.46482633133e-09
-1.67420551751e-08
-6.6269816551e-09
-1.20987529174e-09
-1.70108770576e-08
-7.09945779975e-09
-7.96089086509e-10
-1.72046892223e-08
-7.44702227566e-09
-2.85429616124e-10
-1.73224218215e-08
-7.66022323953e-09
2.56969705044e-10
-1.73633653109e-08
-7.73285061313e-09
7.68004524764e-10
-1.73238835202e-08
-7.66059255274e-09
1.18256150635e-09
-1.7207561425e-08
-7.44776478284e-09
1.43866842158e-09
-1.70150498546e-08
-7.10054882769e-09
1.48028544841e-09
-1.67473544112e-08
-6.62837473884e-09
1.25945802438e-09
-1.64100227747e-08
-6.04489221202e-09
7.48082105307e-10
-1.60116953509e-08
-5.36776276277e-09
-1.56292932656e-08
-4.61578164277e-09
-1.76248100927e-11
-8.83544900529e-10
-4.23747952685e-09
3.77695221299e-13
-1.29107849801e-08
-1.42453781827e-09
-5.00362614822e-09
-1.32200338385e-08
-1.64491625808e-09
-5.68907468096e-09
-1.35577519152e-08
-1.58870949083e-09
-6.27782113741e-09
-1.38370721947e-08
-1.30736968246e-09
-6.75331823954e-09
-1.40556023871e-08
-8.58654229049e-10
-7.10250379444e-09
-1.42122031013e-08
-3.07387178469e-10
-7.31608393358e-09
-1.43064871765e-08
2.77606262302e-10
-7.38829369244e-09
-1.43384009672e-08
8.29301435508e-10
-7.31644897747e-09
-1.43080397851e-08
1.2788790235e-09
-7.10323748685e-09
-1.42152644062e-08
1.56151602059e-09
-6.75439708406e-09
-1.40600750902e-08
1.61943240722e-09
-6.27920085118e-09
-1.3842817716e-08
1.40113754497e-09
-5.69068216751e-09
-1.35646079283e-08
8.62570914644e-10
-5.00543204821e-09
-1.32279156831e-08
-4.23934035947e-09
-1.81981738301e-11
-1.29194554445e-08
-2.27833475878e-11
7.91124635079e-10
-5.75578652063e-10
-8.28294999074e-13
-3.81699218324e-11
8.73299578433e-10
-6.38854408854e-10
-4.49976981166e-11
9.52794835021e-10
-6.97853219628e-10
-4.46041056648e-11
1.02667771507e-09
-7.50350718982e-10
-3.74080363334e-11
1.08892598073e-09
-7.93976028462e-10
-2.469887376e-11
1.13635889591e-09
-8.26764112816e-10
-8.39027967173e-12
1.16644710248e-09
-8.47428444927e-10
9.18636735001e-12
1.17738927685e-09
-8.54860829809e-10
2.55141530528e-11
1.16694348044e-09
-8.47423169531e-10
3.8298923669e-11
1.1373831152e-09
-8.26756045938e-10
4.56978573041e-11
1.09047708621e-09
-7.93969414654e-10
4.63774261751e-11
1.02851414938e-09
-7.50353203884e-10
3.98641973931e-11
9.54662963718e-10
-6.97876354838e-10
2.46047317342e-11
8.74717948321e-10
-6.3891849212e-10
7.91829523277e-10
-5.75726462242e-10
7.58087218854e-13
-3.9757070638e-11
2.20202403939e-09
-1.46964271574e-09
-3.44575738886e-12
-6.8807447791e-11
2.40094457403e-09
-1.62634032932e-09
-8.31846064362e-11
2.59001646404e-09
-1.77130145374e-09
-8.32689745501e-11
2.76174818485e-09
-1.8993591512e-09
-7.02778609757e-11
2.90496791361e-09
-2.00517239433e-09
-4.66953906195e-11
3.01287815999e-09
-2.0843714196e-09
-1.6233623203e-11
3.08100125588e-09
-2.13415481897e-09
1.67116723083e-11
3.10578139129e-09
-2.15202628583e-09
4.73623512033e-11
3.08188492194e-09
-2.13411253541e-09
7.14294563586e-11
3.014680992e-09
-2.08430111581e-09
8.53566921263e-11
2.90765042607e-09
-2.005090652e-09
8.65637385381e-11
2.76495778325e-09
-1.8992939666e-09
7.3544270909e-11
2.59321715429e-09
-1.77129336107e-09
4.52525387274e-11
2.40338751244e-09
-1.62645356264e-09
2.20325390698e-09
-1.46998124937e-09
1.78338532246e-12
-4.02818532012e-11
3.61567158918e-09
-2.21327690442e-09
-3.84589350133e-12
-6.96069631614e-11
3.89296695183e-09
-2.4499827968e-09
-8.49133402142e-11
4.15237729563e-09
-2.66820132974e-09
-8.51688107649e-11
4.38269948869e-09
-2.86038223237e-09
-7.17363338828e-11
4.57231986407e-09
-3.01879047005e-09
-4.72751219187e-11
4.71358979188e-09
-3.13713443085e-09
-1.56571109276e-11
4.80234519772e-09
-3.21138592128e-09
1.85734845413e-11
4.8347691862e-09
-3.23797306442e-09
5.03648796455e-11
4.80346188355e-09
-3.211365834e-09
7.52768473832e-11
4.71584485697e-09
-3.13710803932e-09
8.95807970327e-11
4.57562384068e-09
-3.01877409891e-09
9.05585219191e-11
4.38662470958e-09
-2.86040519539e-09
7.65120455467e-11
4.1562009042e-09
-2.66830917539e-09
4.77697364608e-11
3.89581223019e-09
-2.4502542891e-09
3.61695444003e-09
-2.21384645234e-09
3.13123289918e-12
-2.97176764816e-11
4.71200890673e-09
-2.85671891573e-09
-4.25166903705e-12
-5.23802048587e-11
5.00857455621e-09
-3.16656074423e-09
-6.55351375485e-11
5.28224357377e-09
-3.4515156108e-09
-6.66835292743e-11
5.51935730347e-09
-3.70193625905e-09
-5.64978272512e-11
5.71164400934e-09
-3.90798565693e-09
-3.70580753433e-11
5.8531958693e-09
-4.06170404184e-09
-1.15379918458e-11
5.94175694731e-09
-4.15798778799e-09
1.62707526426e-11
5.97440619057e-09
-4.19236061675e-09
4.19803876741e-11
5.94297888294e-09
-4.15798992626e-09
6.18872922418e-11
5.85563732845e-09
-4.06172177814e-09
7.29349376953e-11
5.71517184765e-09
-3.90803393375e-09
7.29906089649e-11
5.52351810405e-09
-3.70204326969e-09
6.10322132866e-11
5.28624712542e-09
-3.45172707045e-09
3.8839327863e-11
5.01148603199e-09
-3.16695949895e-09
4.71319184651e-09
-2.85745071168e-09
4.21544062312e-12
-1.35228131441e-11
5.3724448539e-09
-3.39993979577e-09
-4.49888213621e-12
-2.71163436465e-11
5.64060016179e-09
-3.77603217208e-09
-3.70780650145e-11
5.88533849229e-09
-4.12122741124e-09
-3.9657541095e-11
6.09181552257e-09
-4.42408184821e-09
-3.44198037939e-11
6.25650622636e-09
-4.67293390588e-09
-2.24955319109e-11
6.3762603594e-09
-4.85837581467e-09
-6.0274968938e-12
6.45098917266e-09
-4.97435026694e-09
1.22441333593e-11
6.47896721229e-09
-5.01562058572e-09
2.89171915585e-11
6.45223208281e-09
-4.974376483e-09
4.13166312853e-11
6.3787236983e-09
-4.8584406281e-09
4.73878906184e-11
6.26003263154e-09
-4.67304929803e-09
4.59420649759e-11
6.09594416466e-09
-4.42427190847e-09
3.70774780003e-11
5.88929029847e-09
-4.12153302113e-09
2.38569787362e-11
5.6434301946e-09
-3.77653274507e-09
5.37348899689e-09
-3.40077992843e-09
5.09807849172e-12
4.57661714556e-12
5.61697704917e-09
-3.84479253572e-09
-4.58303431122e-12
8.83927829718e-14
5.83239627377e-09
-4.28070738872e-09
-6.57137904769e-12
6.02698783392e-09
-4.6801764161e-09
-1.07784062549e-11
6.18625931888e-09
-5.03020312457e-09
-1.0917168865e-11
6.31093682091e-09
-5.31752775787e-09
-7.08803288453e-12
6.40039802749e-09
-5.5314571473e-09
-3.34228714968e-13
6.45620673799e-09
-5.66505552352e-09
7.70294321426e-12
6.47761864774e-09
-5.7124369592e-09
1.4672125954e-11
6.45742006567e-09
-5.66510938028e-09
1.89728789073e-11
6.40278921603e-09
-5.53157333849e-09
1.96176673578e-11
6.31433367563e-09
-5.3177147816e-09
1.64467085039e-11
6.190224225e-09
-5.03047806953e-09
1.07573601331e-11
6.03078322441e-09
-4.68057101566e-09
6.56256574522e-12
5.83515146919e-09
-4.28129448925e-09
5.6179847004e-09
-3.84570666246e-09
5.79786893561e-12
2.21965795741e-11
5.53167234509e-09
-4.19454156868e-09
-4.52980194598e-12
2.60516188828e-11
5.69032050653e-09
-4.68441734176e-09
2.25404028475e-11
5.83114188754e-09
-5.13276903794e-09
1.68273776732e-11
5.942162772e-09
-5.5252438523e-09
1.15599928951e-11
6.02696442218e-09
-5.84716830301e-09
7.61820212089e-12
6.08681753897e-09
-6.08669633867e-09
5.01744785754e-12
6.12425282648e-09
-6.23607515189e-09
3.18394123664e-12
6.13918875421e-09
-6.28886542382e-09
8.03042213581e-13
6.12541198546e-09
-6.23616726015e-09
-2.68296919019e-12
6.0890908924e-09
-6.08688064394e-09
-7.23056559012e-12
6.03017568436e-09
-5.84744434109e-09
-1.20225512261e-11
5.94590948694e-09
-5.52561800388e-09
-1.46932959888e-11
5.8347540724e-09
-5.1332603822e-09
-1.06187836185e-11
5.69299877121e-09
-4.68508686765e-09
5.53274368176e-09
-4.19550891175e-09
6.31318050892e-12
3.79964397924e-11
5.21657432861e-09
-4.45272455167e-09
-4.3592785253e-12
4.93700946827e-11
5.32628663195e-09
-4.99106588025e-09
4.88674230229e-11
5.41960495823e-09
-5.48319933683e-09
4.19482055124e-11
5.48924483173e-09
-5.91361086617e-09
3.2086379314e-11
5.54033192215e-09
-6.26640714717e-09
2.10521663133e-11
5.57544920462e-09
-6.52873541281e-09
9.85094064466e-12
5.59757040906e-09
-6.69210077791e-09
-1.0826179318e-12
5.60701602169e-09
-6.74961233421e-09
-1.20670930911e-11
5.59865428395e-09
-6.69222675008e-09
-2.26745577957e-11
5.57756256397e-09
-6.5289780638e-09
-3.18919589163e-11
5.5433055536e-09
-6.26676096035e-09
-3.80152371136e-11
5.49271920419e-09
-5.91407245291e-09
-3.78124805196e-11
5.42299922417e-09
-5.48377362553e-09
-2.62835920344e-11
5.32889513624e-09
-4.99180234051e-09
5.21779394376e-09
-4.45373045131e-09
6.66746228076e-12
5.13436999716e-11
4.75934800891e-09
-4.6222819094e-09
-4.10258808462e-12
6.9557760799e-11
4.83236284763e-09
-5.20362186353e-09
7.19735257e-11
4.88814011111e-09
-5.73440512995e-09
6.42134231862e-11
4.92575663132e-09
-6.1981776299e-09
5.03835706191e-11
4.95099295433e-09
-6.57802961494e-09
3.30504722033e-11
4.96729189554e-09
-6.86026882722e-09
1.41332714303e-11
4.97774663213e-09
-7.03575895252e-09
-4.99415036738e-12
4.98291380762e-09
-7.09727868128e-09
-2.37081438496e-11
4.97873443661e-09
-7.03591547407e-09
-4.06552974522e-11
4.96921273617e-09
-6.8605693702e-09
-5.39259352776e-11
4.95369332729e-09
-6.57846153187e-09
-6.10188680429e-11
4.92892951156e-09
-6.19872590769e-09
-5.80352532272e-11
4.89129286631e-09
-5.73505982789e-09
-3.97282477249e-11
4.83490105801e-09
-5.20442100214e-09
4.76075227659e-09
-4.62331989369e-09
6.88896953124e-12
6.20941226754e-11
4.22691983814e-09
-4.70531556012e-09
-3.78403890309e-12
8.65718880357e-11
4.27527071366e-09
-5.32400194101e-09
9.18412079836e-11
4.30362358522e-09
-5.8881249778e-09
8.36147331942e-11
4.31827091099e-09
-6.38051712007e-09
6.64469179439e-11
4.32513183966e-09
-6.78345505718e-09
4.3618654495e-11
4.32816288518e-09
-7.08258881776e-09
1.78855134665e-11
4.3303565612e-09
-7.26825978967e-09
-8.50806137637e-12
4.33240312949e-09
-7.33305067049e-09
-3.40587000372e-11
4.33123959106e-09
-7.26844634086e-09
-5.65511110148e-11
4.32987847127e-09
-7.08294648042e-09
-7.32505843119e-11
4.32754753235e-09
-6.78396392636e-09
-8.09419369296e-11
4.32113105633e-09
-6.38115054468e-09
-7.52419980191e-11
4.30653024026e-09
-5.8888582239e-09
-5.0742926005e-11
4.27774491052e-09
-5.32486247805e-09
4.22855465535e-09
-4.70638367307e-09
7.01230214876e-12
7.04239800271e-11
3.66640513701e-09
-4.70327557031e-09
-3.43043867976e-12
1.00615529333e-10
3.69979149322e-09
-5.35342916982e-09
1.08690311789e-10
3.70939807475e-09
-5.94546462777e-09
1.00352905913e-10
3.70878139565e-09
-6.46165668521e-09
8.04409467643e-11
3.70370416734e-09
-6.88363963111e-09
5.28680563011e-11
3.69824919668e-09
-7.19659176641e-09
2.11627941264e-11
3.69513225665e-09
-7.39046249524e-09
-1.16273364717e-11
3.69507239333e-09
-7.45777743069e-09
-4.3175733738e-11
3.69591032559e-09
-7.39067802834e-09
-7.0468860725e-11
3.69976096811e-09
-7.19700479088e-09
-9.00069974954e-11
3.70584224814e-09
-6.88422356744e-09
-9.79389302144e-11
3.71134350994e-09
-6.46237385679e-09
-8.95683679959e-11
3.71207532558e-09
-5.94627602192e-09
-5.94351627699e-11
3.70221679961e-09
-5.35435266547e-09
3.66829958853e-09
-4.70437616901e-09
7.06886281879e-12
7.66475719928e-11
3.10921742354e-09
-4.61729260015e-09
-3.04957772991e-12
1.12056669155e-10
3.13425569236e-09
-5.2929417114e-09
1.22966723457e-10
3.13188472908e-09
-5.90757111445e-09
1.14854963667e-10
3.12227710848e-09
-6.4428500954e-09
9.2705939543e-11
3.11068224998e-09
-6.8799026944e-09
6.10213710979e-11
3.10082278268e-09
-7.20363682923e-09
2.40491141554e-11
3.09490491284e-09
-7.40375224532e-09
-1.44020614781e-11
3.09363554583e-09
-7.47285644091e-09
-5.12465114342e-11
3.09558275458e-09
-7.40399512213e-09
-8.27090999279e-11
3.1021470937e-09
-7.20410266468e-09
-1.04577756637e-10
3.11256908145e-09
-6.88055951457e-09
-1.12408510453e-10
3.12457597423e-09
-6.44365047067e-09
-1.01332729327e-10
3.13436960713e-09
-5.90846219064e-09
-6.60632926101e-11
3.13666066983e-09
-5.29393162391e-09
3.11136804835e-09
-4.61843087315e-09
7.0841904073e-12
8.11598701833e-11
2.57526162856e-09
-4.44845650185e-09
-2.66718590254e-12
1.21655694841e-10
2.59529617241e-09
-5.14392417015e-09
1.35607775602e-10
2.5860391916e-09
-5.77627367107e-09
1.27968588633e-10
2.57272975693e-09
-6.32619497998e-09
1.03883924575e-10
2.55930584282e-09
-6.77449928571e-09
6.8459812295e-11
2.54854034622e-09
-7.10608547226e-09
2.6686436772e-11
2.54202385355e-09
-7.31056106271e-09
-1.6960522549e-11
2.54028949376e-09
-7.38074856471e-09
-5.86332503632e-11
2.54261722931e-09
-7.3108287413e-09
-9.38932109296e-11
2.54970385858e-09
-7.10660021593e-09
-1.17786259037e-10
2.56097821821e-09
-6.77522586452e-09
-1.25260324999e-10
2.5748124835e-09
-6.32707858626e-09
-1.11265195246e-10
2.58839060045e-09
-5.77724778205e-09
-7.09955362418e-11
2.59773927919e-09
-5.1449834195e-09
2.5776949563e-09
-4.44963370672e-09
7.06419834501e-12
8.47069851468e-11
2.07613003166e-09
-4.19797369062e-09
-2.29798479913e-12
1.31079241756e-10
2.09114324651e-09
-4.90886360585e-09
1.48450612825e-10
2.07948834895e-09
-5.55475578149e-09
1.4120400481e-10
2.06746029877e-09
-6.11508635406e-09
1.15037722228e-10
2.05640460653e-09
-6.57094373842e-09
7.58430907411e-11
2.04780635459e-09
-6.90755552789e-09
2.92673676199e-11
2.04252867636e-09
-7.11458616695e-09
-1.94947666512e-11
2.04103821815e-09
-7.18518499546e-09
-6.59969288881e-11
2.04305614056e-09
-7.11487437406e-09
-1.05083680497e-10
2.0488499132e-09
-6.90811213522e-09
-1.31137480924e-10
2.05792959693e-09
-6.57173347092e-09
-1.38318521451e-10
2.06940891905e-09
-6.11605157137e-09
-1.21014990405e-10
2.08177879289e-09
-5.55581807323e-09
-7.4957463056e-11
2.0937078031e-09
-4.90999381903e-09
2.0789266437e-09
-4.19917873929e-09
7.02306304193e-12
8.45469004418e-11
-3.8693624729e-09
-1.9091283934e-12
1.62450503847e-09
1.41843050041e-10
-4.59473919246e-09
1.62434423824e-09
1.63234840403e-10
-5.24923483621e-09
1.61767644051e-09
1.56076891874e-10
-5.81506578022e-09
1.61135372739e-09
1.27441977169e-10
-6.274356134e-09
1.60561169849e-09
8.39986941062e-11
-6.61292510839e-09
1.6012458744e-09
3.2125369769e-11
-6.82058439219e-09
1.59854713882e-09
-2.23389159431e-11
-6.89089020394e-09
1.5977667503e-09
-7.41660872238e-11
-6.82088471976e-09
1.59904746248e-09
-1.17558693147e-10
-6.61350813023e-09
1.60223397822e-09
-1.46164779632e-10
-6.27518984984e-09
1.60707571134e-09
-1.53359830058e-10
-5.81609681872e-09
1.61326407629e-09
-1.32118786081e-10
-5.25037876235e-09
1.62002086376e-09
-7.51958465544e-11
-4.59595905126e-09
1.62711452839e-09
-3.87053231148e-09
6.97482679393e-12
1.62776495526e-09
1.38973510105e-11
-1.77744459512e-10
-4.11586209253e-10
8.04869629188e-14
2.20401946925e-11
-1.97440021826e-10
-4.48954909696e-10
2.57322747992e-11
-2.18157817449e-10
-4.82681199634e-10
2.53089833533e-11
-2.37244567532e-10
-5.11994744964e-10
2.11670747487e-11
-2.53387741584e-10
-5.35915164578e-10
1.40425251858e-11
-2.65663039765e-10
-5.53658702313e-10
4.97674658676e-12
-2.73423687842e-10
-5.64774435714e-10
-4.77695251802e-12
-2.76218776242e-10
-5.68811135995e-10
-1.38278420086e-11
-2.73542310648e-10
-5.64802824267e-10
-2.09422221544e-11
-2.65926553685e-10
-5.53713994892e-10
-2.51130028349e-11
-2.53818071528e-10
-5.35994531357e-10
-2.56089301487e-11
-2.37782272817e-10
-5.12094935968e-10
-2.20091076456e-11
-2.18699472023e-10
-4.82801390177e-10
-1.39683422179e-11
-1.97880827711e-10
-4.49104923028e-10
-1.77911443251e-10
-4.11804574347e-10
-7.71381322187e-15
3.09164243786e-11
-3.90456780769e-10
-1.28843715626e-09
1.05672706731e-12
5.15060677199e-11
-4.28714596491e-10
-1.41469889673e-09
6.13683585102e-11
-4.68147049738e-10
-1.53005618291e-09
6.10020336022e-11
-5.0407120513e-10
-1.63112994491e-09
5.14007887567e-11
-5.3404872104e-10
-1.71414446353e-09
3.44124818937e-11
-5.56563280509e-10
-1.77601751059e-09
1.26179014094e-11
-5.7071044467e-10
-1.8148251482e-09
-1.08886623776e-11
-5.75807319035e-10
-1.82881347925e-09
-3.27177676011e-11
-5.70867419681e-10
-1.81491740338e-09
-4.9846544549e-11
-5.56904454658e-10
-1.77619518548e-09
-5.97877777718e-11
-5.34593970307e-10
-1.71439710168e-09
-6.07072351945e-11
-5.04746204953e-10
-1.63144515115e-09
-5.15332548183e-11
-4.68779815127e-10
-1.53042802449e-09
-3.15944251216e-11
-4.29167156731e-10
-1.41515089378e-09
-3.90545460199e-10
-1.28905228754e-09
6.09447929201e-14
4.09336398003e-11
-5.53479410219e-10
-2.09153303852e-09
8.04867981306e-13
6.87113590726e-11
-6.0182580324e-10
-2.30378041339e-09
8.20635226132e-11
-6.50664972583e-10
-2.4980167037e-09
8.15009634375e-11
-6.94707946299e-10
-2.6682738693e-09
6.84879991375e-11
-7.31027277721e-10
-2.80813483223e-09
4.56071209942e-11
-7.58038588162e-10
-2.91237667309e-09
1.63445101404e-11
-7.74923222212e-10
-2.97769728759e-09
-1.51740662471e-11
-7.81020784395e-10
-3.00114230179e-09
-4.44361502797e-11
-7.75117846672e-10
-2.97782169128e-09
-6.73831643945e-11
-7.58452344089e-10
-2.91261823507e-09
-8.06229186098e-11
-7.31671151639e-10
-2.80848174375e-09
-8.16061720801e-11
-6.95488860161e-10
-2.66871317329e-09
-6.88116207161e-11
-6.51377930346e-10
-2.49854516009e-09
-4.15630235668e-11
-6.02277774571e-10
-2.30443492343e-09
-5.534887885e-10
-2.09242736338e-09
-8.22578027833e-14
4.52543209456e-11
-6.69656811736e-10
-2.78603999296e-09
7.09226023965e-13
7.65852750183e-11
-7.22152022372e-10
-3.0767619893e-09
9.18467171424e-11
-7.7379924049e-10
-3.34273340934e-09
9.13163149881e-11
-8.19626121776e-10
-3.57570337968e-09
7.66967998122e-11
-8.56878976369e-10
-3.76695110362e-09
5.09747676011e-11
-8.84270372785e-10
-3.90940342669e-09
1.81030484375e-11
-9.01292781864e-10
-3.99855581005e-09
-1.72888589337e-11
-9.07461937302e-10
-4.03043753311e-09
-5.01498955165e-11
-9.01508419178e-10
-3.99870812415e-09
-7.5911586827e-11
-8.84717494029e-10
-3.90969989482e-09
-9.07079719612e-11
-8.57553318021e-10
-3.76737840362e-09
-9.15964778762e-11
-8.20429008429e-10
-3.57624744952e-09
-7.68280026793e-11
-7.74520358282e-10
-3.34339126143e-09
-4.5965717459e-11
-7.22566363146e-10
-3.0775752783e-09
-6.69587538768e-10
-2.78713401668e-09
-2.29557429515e-13
4.57156647405e-11
-7.41204161757e-10
-3.37430626214e-09
6.37786297697e-13
7.79326201487e-11
-7.93332543454e-10
-3.73632611658e-09
9.3823204587e-11
-8.42895925362e-10
-4.06722601727e-09
9.3412802449e-11
-8.85845378333e-10
-4.35678033313e-09
7.84566706432e-11
-9.20110758782e-10