/*--------------------------------*- C++ -*----------------------------------*\
  =========                 |
  \\      /  F ield         | OpenFOAM: The Open Source CFD Toolbox
   \\    /   O peration     | Website:  https://openfoam.org
    \\  /    A nd           | Version:  7
     \\/     M anipulation  |
\*---------------------------------------------------------------------------*/
FoamFile
{
    version     2.0;
    format      ascii;
    class       surfaceScalarField;
    location    "0.72";
    object      phi;
}
// * * * * * * * * * * * * * * * * * * * * * * * * * * * * * * * * * * * * * //

dimensions      [0 3 -1 0 0 0 0];

internalField   nonuniform List<scalar> 
65775
(
-2.27570823842e-11
-4.45370149113e-09
-1.43201824063e-10
-2.03285213175e-13
-4.0180622226e-11
-4.68440286703e-09
-1.57430035723e-10
-4.86899486847e-11
-4.89459774548e-09
-1.71405465413e-10
-4.78312168151e-11
-5.07617486606e-09
-1.84447901567e-10
-3.95101589296e-11
-5.22188249358e-09
-1.95683446188e-10
-2.55064008598e-11
-5.32879961192e-09
-2.04332626936e-10
-7.98627398072e-12
-5.39587434203e-09
-2.09852966188e-10
1.07501528023e-11
-5.42089037122e-09
-2.11832387904e-10
2.82227680792e-11
-5.39573283748e-09
-2.09807471248e-10
4.21375844203e-11
-5.32852274098e-09
-2.0424276183e-10
5.03429391372e-11
-5.22148732438e-09
-1.95551362007e-10
5.10562215463e-11
-5.07572008146e-09
-1.84276759816e-10
4.2381441622e-11
-4.89412585311e-09
-1.71199124626e-10
2.47470343195e-11
-4.68400709372e-09
-1.57192716979e-10
-4.45339446192e-09
-1.42940068105e-10
1.4428701472e-12
-6.99608144485e-11
-8.20512015012e-09
-5.79588293244e-10
-5.44353542167e-13
-1.24082912925e-10
-8.62220311788e-09
-6.4813971751e-10
-1.4961795559e-10
-9.00726892429e-09
-7.15790334739e-10
-1.48104879847e-10
-9.33657759069e-09
-7.78823268466e-10
-1.23028080222e-10
-9.59959183665e-09
-8.33072567776e-10
-7.98526807397e-11
-9.79150125493e-09
-8.74844679409e-10
-2.52793811827e-11
-9.91148819288e-09
-9.0147057222e-10
3.31296508017e-11
-9.95611092229e-09
-9.10956258506e-10
8.75744863501e-11
-9.91114740824e-09
-9.01339827928e-10
1.30507030615e-10
-9.79083862722e-09
-8.74585597261e-10
1.55251777477e-10
-9.59865463646e-09
-8.32691282844e-10
1.56347734297e-10
-9.33547699961e-09
-7.78328556942e-10
1.30315000833e-10
-9.00612951005e-09
-7.1519330327e-10
7.55378215796e-11
-8.62118107097e-09
-6.47452962751e-10
-8.20426792053e-09
-5.78831382508e-10
4.13259883918e-12
-1.18526239647e-10
-1.11797088402e-08
-1.08906228934e-09
-7.67520333068e-13
-2.05080625875e-10
-1.1731059341e-08
-1.22514239639e-09
-2.46282936013e-10
-1.22402677084e-08
-1.3589210627e-09
-2.44147815419e-10
-1.26711071108e-08
-1.48291730149e-09
-2.03303261766e-10
-1.30131453987e-08
-1.58916901399e-09
-1.32355537234e-10
-1.32611215662e-08
-1.67072228481e-09
-4.23372378201e-11
-1.34156028618e-08
-1.72256635513e-09
5.40721764218e-11
-1.3472990974e-08
-1.7409790672e-09
1.43914842717e-10
-1.34151088629e-08
-1.72236922996e-09
2.14525914042e-10
-1.32601661888e-08
-1.67033110085e-09
2.54895911301e-10
-1.30118006317e-08
-1.58859225783e-09
2.56422902067e-10
-1.2669515071e-08
-1.48216741844e-09
2.14469978395e-10
-1.22386100211e-08
-1.35801401544e-09
1.26921497458e-10
-1.17295028012e-08
-1.22409569228e-09
-1.11783537725e-08
-1.08790394818e-09
6.33162780613e-12
-1.65990030788e-10
-1.33664425975e-08
-1.61077877156e-09
-8.8591322666e-13
-2.81511709749e-10
-1.40002989529e-08
-1.8162734925e-09
-3.36894531946e-10
-1.4580345371e-08
-2.01677877592e-09
-3.33874761232e-10
-1.50657411159e-08
-2.20128183795e-09
-2.78360707906e-10
-1.54482741124e-08
-2.35843236195e-09
-1.81639225065e-10
-1.57237586621e-08
-2.47850276233e-09
-5.87307183926e-11
-1.58947525287e-08
-2.55457474081e-09
7.29547332472e-11
-1.59582886301e-08
-2.58152272767e-09
1.95672939971e-10
-1.58941627373e-08
-2.5543344495e-09
2.92024436096e-10
-1.5722621208e-08
-2.47802523975e-09
3.47003003592e-10
-1.54466772335e-08
-2.35772650697e-09
3.49319264846e-10
-1.50638384731e-08
-2.2003609464e-09
2.93044241422e-10
-1.45783398474e-08
-2.01566049902e-09
1.76337283598e-10
-1.39983454591e-08
-1.81497717878e-09
-1.33646619912e-08
-1.60933605559e-09
7.93862115497e-12
-2.1021529902e-10
-1.48031993911e-08
-2.09792807618e-09
-9.2016328808e-13
-3.52182153382e-10
-1.54732964546e-08
-2.3665581684e-09
-4.20291437978e-10
-1.60774215204e-08
-2.62618171075e-09
-4.16181618563e-10
-1.65772086382e-08
-2.86313633998e-09
-3.47160131297e-10
-1.69679027029e-08
-3.06362075179e-09
-2.26931070371e-10
-1.72474036457e-08
-3.2160311782e-09
-7.41125038374e-11
-1.74202940201e-08
-3.31224723906e-09
8.963482165e-11
-1.74846039466e-08
-3.34625051424e-09
2.42268410986e-10
-1.74196618838e-08
-3.3119838888e-09
3.62132415523e-10
-1.72461862551e-08
-3.21550722626e-09
4.30613312192e-10
-1.69661930005e-08
-3.06284463389e-09
4.33996184951e-10
-1.65751580028e-08
-2.86212088124e-09
3.64944998729e-10
-1.60752276362e-08
-2.62494448406e-09
2.21726610699e-10
-1.54710979562e-08
-2.36511810511e-09
-1.48011120783e-08
-2.09631647568e-09
8.97953044039e-12
-2.50113567775e-10
-1.55637273779e-08
-2.51571796266e-09
-8.94555128586e-13
-4.16465426708e-10
-1.62323075312e-08
-2.83665450413e-09
-4.9602019442e-10
-1.68246331228e-08
-3.14372660099e-09
-4.90728476295e-10
-1.73088815415e-08
-3.42171900857e-09
-4.0938321142e-10
-1.76842510933e-08
-3.65541375983e-09
-2.67943758798e-10
-1.79511049203e-08
-3.83222147934e-09
-8.82538955407e-11
-1.81156541068e-08
-3.9434601489e-09
1.04264740039e-10
-1.81769497611e-08
-3.98267995034e-09
2.83780661119e-10
-1.81150234419e-08
-3.94318731061e-09
4.24872526457e-10
-1.79498901108e-08
-3.83167846922e-09
5.05693576371e-10
-1.76825417217e-08
-3.65460882044e-09
5.10268864906e-10
-1.73068165333e-08
-3.42066473782e-09
4.29772007131e-10
-1.68223922597e-08
-3.14244047639e-09
2.62176907559e-10
-1.62299993913e-08
-2.83515442474e-09
-1.55614419e-08
-2.5140328004e-09
9.56112745687e-12
-2.85482973089e-10
-1.57418938513e-08
-2.84420598675e-09
-8.33782253222e-13
-4.74282821615e-10
-1.63804997915e-08
-3.20552097631e-09
-5.6416505289e-10
-1.69364521805e-08
-3.54793416232e-09
-5.5770618631e-10
-1.73854227349e-08
-3.85563649341e-09
-4.65199857608e-10
-1.773053922e-08
-4.11283375475e-09
-3.04736125759e-10
-1.79744832785e-08
-4.3066101653e-09
-1.01052712871e-10
-1.81244785828e-08
-4.42815178379e-09
1.17119692595e-10
-1.81804215605e-08
-4.47089573062e-09
3.20636350877e-10
-1.81238785067e-08
-4.42787673761e-09
4.80763980039e-10
-1.79733258489e-08
-4.30606317646e-09
5.72758263401e-10
-1.77289046543e-08
-4.11202379991e-09
5.78512625701e-10
-1.73834316468e-08
-3.8545771652e-09
4.87702187129e-10
-1.69342581824e-08
-3.54664402226e-09
2.97692679168e-10
-1.63781854359e-08
-3.20401755887e-09
-1.57395028076e-08
-2.842515408e-09
9.81945818521e-12
-3.16687364772e-10
-1.5438150427e-08
-3.07643088568e-09
-7.56064751601e-13
-5.25955051099e-10
-1.60269392531e-08
-3.46731360497e-09
-6.25155162348e-10
-1.65314445771e-08
-3.83459713094e-09
-6.17607742907e-10
-1.69337751335e-08
-4.16254483754e-09
-5.15041409367e-10
-1.72405867821e-08
-4.43534382487e-09
-3.37559655318e-10
-1.74563852946e-08
-4.64015440659e-09
-1.12504982996e-10
-1.75887300329e-08
-4.76826445367e-09
1.28481992917e-10
-1.76381079798e-08
-4.81318824851e-09
3.53368952498e-10
-1.75881753777e-08
-4.7679901873e-09
5.30511554885e-10
-1.74553128464e-08
-4.63960994584e-09
6.32560643693e-10
-1.72390636564e-08
-4.43453989841e-09
6.39398947847e-10
-1.69319012137e-08
-4.16149745786e-09
5.39273418927e-10
-1.65293444885e-08
-3.8333274858e-09
3.28822992817e-10
-1.60246713332e-08
-3.46584003537e-09
-1.54357029242e-08
-3.07477768852e-09
9.88621662434e-12
-3.44342350171e-10
-1.47502128804e-08
-3.21449363606e-09
-6.74740629923e-13
-5.72045565532e-10
-1.52765980022e-08
-3.62617787081e-09
-6.79637335586e-10
-1.57216402858e-08
-4.01016902252e-09
-6.71092924128e-10
-1.60721343716e-08
-4.35117742515e-09
-5.5946172455e-10
-1.63375717242e-08
-4.63368872391e-09
-3.66754814848e-10
-1.65235621289e-08
-4.84516016574e-09
-1.22671842066e-10
-1.66373486783e-08
-4.97709681955e-09
1.38591022922e-10
-1.66797470214e-08
-5.02320487668e-09
3.82496657966e-10
-1.66368419512e-08
-4.97682416593e-09
5.74845631961e-10
-1.65225783676e-08
-4.84462026815e-09
6.85933765753e-10
-1.63361635464e-08
-4.63289480768e-09
6.93741985858e-10
-1.60703794212e-08
-4.35014902972e-09
5.85205830964e-10
-1.57196350537e-08
-4.00893124826e-09
3.5632547049e-10
-1.52743779557e-08
-3.62475091832e-09
-1.47477263314e-08
-3.212901508e-09
9.8647779583e-12
-3.69067570832e-10
-1.37679461235e-08
-3.2656284418e-09
-5.98235624085e-13
-6.13236785901e-10
-1.42250368748e-08
-3.69146077791e-09
-7.28401127929e-10
-1.46074530978e-08
-4.08615834764e-09
-7.18918732016e-10
-1.49052339294e-08
-4.43502764339e-09
-5.99061006673e-10
-1.51296825613e-08
-4.72301573051e-09
-3.92687467466e-10
-1.52866205945e-08
-4.9380068972e-09
-1.31648952744e-10
-1.53824017438e-08
-5.07179372544e-09
1.47631760944e-10
-1.5417945557e-08
-5.11835925804e-09
4.08476156497e-10
-1.53819353664e-08
-5.07152290436e-09
6.14459645391e-10
-1.528570996e-08
-4.93747214805e-09
7.33730697433e-10
-1.51283654718e-08
-4.72223310912e-09
7.42428700962e-10
-1.49035664743e-08
-4.43402080562e-09
6.2627861586e-10
-1.46055049118e-08
-4.08495707835e-09
3.80910164926e-10
-1.42228238777e-08
-3.69008776869e-09
-1.37653868098e-08
-3.26410886999e-09
9.82857596065e-12
-3.91326659121e-10
-1.25713378906e-08
-3.23923447002e-09
-5.30121879358e-13
-6.50287255224e-10
-1.29563223399e-08
-3.67435661563e-09
-7.72380144043e-10
-1.32762025223e-08
-4.07548009902e-09
-7.61922724445e-10
-1.3523503341e-08
-4.42849338388e-09
-6.34446909943e-10
-1.37097647996e-08
-4.71889525955e-09
-4.15709919873e-10
-1.38400085901e-08
-4.93510778875e-09
-1.39542258939e-10
-1.39192737419e-08
-5.06928269535e-09
1.5573896047e-10
-1.394844142e-08
-5.11576068007e-09
4.31690568029e-10
-1.39188319944e-08
-5.06901419313e-09
6.49995758062e-10
-1.38391403342e-08
-4.9345790835e-09
7.76828101067e-10
-1.37084939854e-08
-4.71812515574e-09
7.86436922084e-10
-1.352186597e-08
-4.42750972006e-09
6.63297942195e-10
-1.32742443348e-08
-4.07431764587e-09
4.03093374826e-10
-1.2954041666e-08
-3.67304080366e-09
-1.25686443101e-08
-3.23779254745e-09
9.8220103959e-12
-4.11387895842e-10
-1.12303813024e-08
-3.14503019551e-09
-4.69846705517e-13
-6.84194785905e-10
-1.1542647703e-08
-3.5860087024e-09
-8.12771186453e-10
-1.18025756862e-08
-3.99056580619e-09
-8.01024468178e-10
-1.20041938533e-08
-4.34502870231e-09
-6.66187692225e-10
-1.21567989669e-08
-4.63554310179e-09
-4.36116525854e-10
-1.22636981416e-08
-4.85120970655e-09
-1.46444404085e-10
-1.23284827408e-08
-4.98463231665e-09
1.62997908548e-10
-1.23519632068e-08
-5.03059346573e-09
4.5242847285e-10
-1.23280438364e-08
-4.98436730479e-09
6.82019819366e-10
-1.22628293191e-08
-4.85068911045e-09
8.16147571792e-10
-1.21555124493e-08
-4.63478800732e-09
8.26970459567e-10
-1.20025093086e-08
-4.34407071402e-09
6.97273892611e-10
-1.18005179062e-08
-3.98944468906e-09
4.23159557683e-10
-1.1540202077e-08
-3.58475295787e-09
-1.12274687217e-08
-3.14366918272e-09
9.86557819048e-12
-4.29987902276e-10
-9.80525354984e-09
-2.99210276218e-09
-4.18673701171e-13
-7.17055934877e-10
-1.00445547313e-08
-3.43670725134e-09
-8.51278381148e-10
-1.02503990213e-08
-3.84266743668e-09
-8.37116757297e-10
-1.04134611349e-08
-4.19653928165e-09
-6.94651112193e-10
-1.05379231785e-08
-4.48532305026e-09
-4.54038982323e-10
-1.06252190809e-08
-4.69899678198e-09
-1.52393358544e-10
-1.06777520611e-08
-4.83072573759e-09
1.69419145691e-10
-1.0696338104e-08
-4.87581521485e-09
4.70795715181e-10
-1.06772878235e-08
-4.83046626828e-09
7.10876183689e-10
-1.06242949368e-08
-4.69848795233e-09
8.52561172153e-10
-1.05365456119e-08
-4.48458739073e-09
8.65716939438e-10
-1.04116357437e-08
-4.19561119592e-09
7.30290828114e-10
-1.02481346051e-08
-3.84159145873e-09
4.41838419238e-10
-1.00418225747e-08
-3.43551630022e-09
-9.80200233708e-09
-2.99082875637e-09
9.94392856025e-12
-4.51801531362e-10
-8.34337812269e-09
-2.78853134158e-09
-3.78194088298e-13
-7.53791356073e-10
-8.51296103601e-09
-3.23583020851e-09
-8.90213550499e-10
-8.67609012442e-09
-3.64180175867e-09
-8.70927213823e-10
-8.80871114085e-09
-3.99335787481e-09
-7.19998122925e-10
-8.91027090596e-09
-4.27881354004e-09
-4.69499392671e-10
-8.98144804036e-09
-4.48924874498e-09
-1.57406159564e-10
-9.02390587261e-09
-4.61848087722e-09
1.7498306135e-10
-9.03840384358e-09
-4.66239859115e-09
4.86779084169e-10
-9.02338199426e-09
-4.61823003655e-09
7.36690601502e-10
-8.98040439652e-09
-4.48875729061e-09
8.86764977532e-10
-8.90870971417e-09
-4.27810428855e-09
9.04958379479e-10
-8.80663547962e-09
-3.99246627862e-09
7.67246783898e-10
-8.67349977705e-09
-3.64077606924e-09
4.63791967932e-10
-8.50980963907e-09
-3.23471054517e-09
-8.33965754631e-09
-2.78735626227e-09
1.00790795435e-11
-4.92782461407e-10
-2.54103086535e-09
-3.32868139231e-13
-6.86952014106e-09
-8.03925533036e-10
-2.99200067076e-09
-6.99659216317e-09
-9.35972255185e-10
-3.39644697184e-09
-7.13071857837e-09
-9.08042393185e-10
-3.74406752731e-09
-7.23957576196e-09
-7.47024401684e-10
-4.02487009286e-09
-7.32289925313e-09
-4.85789384519e-10
-4.23110791558e-09
-7.38163883948e-09
-1.62657641314e-10
-4.35724746206e-09
-7.41651611005e-09
1.80827498734e-10
-4.39977299894e-09
-7.42789911056e-09
5.03631785945e-10
-4.35700968934e-09
-7.41589196803e-09
7.64222907618e-10
-4.23064222174e-09
-7.38039603022e-09
9.24304629217e-10
-4.02419849985e-09
-7.3210446814e-09
9.51046076094e-10
-3.74322415716e-09
-7.23711612279e-09
8.17610077258e-10
-3.39548131331e-09
-7.12765424139e-09
5.04922953663e-10
-2.99095311729e-09
-6.99288485652e-09
-2.53998386268e-09
1.02297752938e-11
-6.86517408021e-09
-3.39508126548e-12
2.62817503997e-10
-4.02526511237e-10
1.96621807044e-13
-4.54167375001e-12
2.90468960882e-10
-4.46227967172e-10
-4.31298670033e-12
3.16995014469e-10
-4.87951142186e-10
-3.69711301518e-12
3.41278712574e-10
-5.25677139564e-10
-2.8444442468e-12
3.61435834554e-10
-5.57378960686e-10
-1.87173914529e-12
3.76527764637e-10
-5.81382526105e-10
-8.16308637934e-13
3.85979426446e-10
-5.96563658506e-10
2.70575262268e-13
3.8932864849e-10
-6.02016245126e-10
1.32621159725e-12
3.85861700504e-10
-5.96554235946e-10
2.28994865612e-12
3.76289679564e-10
-5.81363741271e-10
3.10810810762e-12
3.61088296913e-10
-5.57350913582e-10
3.678311859e-12
3.40884711203e-10
-5.25639626026e-10
3.85928517144e-12
3.16604089833e-10
-4.87903594627e-10
2.72060674042e-12
2.90187156651e-10
-4.46168218669e-10
2.62670250557e-10
-4.02448086546e-10
-3.75942283938e-13
-3.36385883542e-12
7.57963345572e-10
-1.07133397461e-09
4.93283569373e-13
-2.90276457521e-12
8.28452711411e-10
-1.18571833048e-09
-1.11598661768e-12
8.9501948294e-10
-1.29453491787e-09
3.75911417767e-13
9.54620836232e-10
-1.39260778038e-09
9.86587228779e-13
1.00346263265e-09
-1.47481254109e-09
6.83223580488e-13
1.03961086172e-09
-1.53694059843e-09
-2.451665811e-13
1.06211136667e-09
-1.57617617588e-09
-1.38149283609e-12
1.07010823802e-09
-1.59023801046e-09
-2.31026204026e-12
1.06186674242e-09
-1.57614657165e-09
-2.63374302921e-12
1.03911972697e-09
-1.53688227425e-09
-2.09003482726e-12
1.00275068985e-09
-1.47472616561e-09
-6.92941164893e-13
9.5379888726e-10
-1.39249362956e-09
1.01646127315e-12
8.94222023732e-10
-1.2943921924e-09
1.53596783237e-12
8.27870217719e-10
-1.18554168342e-09
7.57665151654e-10
-1.07111038526e-09
-1.08122866806e-12
9.61944276827e-13
1.29072672618e-09
-1.62298868389e-09
6.99683911248e-13
5.62667788822e-12
1.39622238314e-09
-1.79678138358e-09
9.85396042877e-12
1.49449725561e-09
-1.96166216396e-09
1.18646538942e-11
1.58059421158e-09
-2.10995628801e-09
1.08913669969e-11
1.65013215528e-09
-2.23406741549e-09
7.2116066605e-12
1.70094109519e-09
-2.32776266531e-09
1.71553330519e-12
1.73234714871e-09
-2.38685950319e-09
-4.39223328429e-12
1.74354801928e-09
-2.40798429362e-09
-9.88827959006e-12
1.73204911217e-09
-2.38681012053e-09
-1.35895247018e-11
1.70034796844e-09
-2.3276656655e-09
-1.46325019307e-11
1.64928348551e-09
-2.23392423643e-09
-1.27199661493e-11
1.57962233669e-09
-2.10976793555e-09
-8.54948742618e-12
1.49358491655e-09
-1.96142844013e-09
-3.75607432156e-12
1.39558288518e-09
-1.79649649541e-09
1.2904581519e-09
-1.62263782434e-09
-1.72199418428e-12
7.81001138911e-12
1.75013496685e-09
-2.07834991249e-09
8.34982616899e-13
1.78823730469e-11
1.87363469507e-09
-2.30303120119e-09
2.48328962228e-11
1.9872034568e-09
-2.51556714133e-09
2.69354011912e-11
2.08436901904e-09
-2.70632559254e-09
2.35768373761e-11
2.16149045632e-09
-2.86573577403e-09
1.54977598893e-11
2.21699887214e-09
-2.98594572637e-09
4.3017861928e-12
2.25103462335e-09
-3.06166750797e-09
-7.94410670598e-12
2.26322970045e-09
-3.0886619579e-09
-1.91383214971e-11
2.2507335987e-09
-3.06159867148e-09
-2.72323417545e-11
2.2164059819e-09
-2.98581072823e-09
-3.06446042357e-11
2.16065432239e-09
-2.8655373693e-09
-2.86133397768e-11
2.08342338212e-09
-2.70606660134e-09
-2.16733395234e-11
1.98634495782e-09
-2.5152493939e-09
-1.13977870005e-11
1.87307722388e-09
-2.30265041972e-09
1.74998550604e-09
-2.07789254028e-09
-2.28698896049e-12
1.58149740548e-11
2.07937322432e-09
-2.44345001064e-09
9.18887772125e-13
3.12750579568e-11
2.20351731617e-09
-2.7112521658e-09
4.06299303843e-11
2.31621031327e-09
-2.96377878137e-09
4.23896582308e-11
2.41013162919e-09
-3.18993735967e-09
3.63358787806e-11
2.48316107275e-09
-3.37863676466e-09
2.37435446436e-11
2.53479369018e-09
-3.52077021993e-09
6.896144428e-12
2.5661619412e-09
-3.61017873515e-09
-1.13794826004e-11
2.57747889787e-09
-3.64196143667e-09
-2.82227052957e-11
2.56588577789e-09
-3.61009076121e-09
-4.08198325629e-11
2.53425575943e-09
-3.52059805535e-09
-4.69032702822e-11
2.48241298556e-09
-3.37838504151e-09
-4.51745572739e-11
2.40930184476e-09
-3.18961161232e-09
-3.57744214074e-11
2.31548650574e-09
-2.96338414198e-09
-2.00445009034e-11
2.20310559932e-09
-2.71078741076e-09
2.07938177017e-09
-2.44290470246e-09
-2.77397756641e-12
2.3911453708e-11
2.2635008898e-09
-2.72430011976e-09
9.62351922369e-13
4.40165620009e-11
2.37556436705e-09
-3.02822202931e-09
5.51548691472e-11
2.47586740875e-09
-3.3138597001e-09
5.622313194e-11
2.55705985312e-09
-3.56909432463e-09
4.75338817788e-11
2.61866703314e-09
-3.7817145445e-09
3.08904085959e-11
2.66129562028e-09
-3.94167650596e-09
9.1387514898e-12
2.68691518967e-09
-4.04215320511e-09
-1.43189733422e-11
2.69625399947e-09
-4.07776044904e-09
-3.60636740427e-11
2.68667493513e-09
-4.04204651646e-09
-5.27009008264e-11
2.66083282149e-09
-3.94146822733e-09
-6.13926943933e-11
2.61803402106e-09
-3.78141172147e-09
-6.03121676924e-11
2.55637206873e-09
-3.56870602489e-09
-4.90714963483e-11
2.4752963437e-09
-3.31339541037e-09
-2.86431951012e-11
2.37528972192e-09
-3.02768453671e-09
2.26364401997e-09
-2.72368263249e-09
-3.18449079446e-12
3.13382756228e-11
2.31426306051e-09
-2.92689311364e-09
9.7538383409e-13
5.50394886228e-11
2.40754306353e-09
-3.26069420141e-09
6.72753609446e-11
2.48960793442e-09
-3.57334427611e-09
6.74343862363e-11
2.55385501934e-09
-3.85206425172e-09
5.64098923371e-11
2.6011616386e-09
-4.08386630771e-09
3.64693142735e-11
2.63301495167e-09
-4.25804379813e-09
1.08725890949e-11
2.65190583961e-09
-4.36727784367e-09
-1.66027760705e-11
2.65890020071e-09
-4.40585817235e-09
-4.21894954385e-11
2.65170379706e-09
-4.36715312064e-09
-6.21124849734e-11
2.63262942387e-09
-4.25780093188e-09
-7.31130078602e-11
2.60064170241e-09
-4.08351518512e-09
-7.28995648565e-11
2.55330032237e-09
-3.85161809821e-09
-6.05106561199e-11
2.48916888547e-09
-3.57281766874e-09
-3.64437221235e-11
2.40737546803e-09
-3.26009439425e-09
2.31448768364e-09
-2.92621709704e-09
-3.51764077344e-12
3.76332893976e-11
2.25669817569e-09
-3.05710100749e-09
9.63748252793e-13
6.38678820642e-11
2.32968934835e-09
-3.41525281167e-09
7.65883384852e-11
2.39231181491e-09
-3.74954074405e-09
7.57526124407e-11
2.43941524403e-09
-4.04682647767e-09
6.28142984098e-11
2.47276544717e-09
-4.29363766843e-09
4.04133609303e-11
2.49440388237e-09
-4.47884455035e-09
1.20762196585e-11
2.50700843764e-09
-4.59479457425e-09
-1.82207978869e-11
2.51179020811e-09
-4.63559451957e-09
-4.65444813139e-11
2.50684086779e-09
-4.59465288707e-09
-6.89164634155e-11
2.49408640205e-09
-4.47856932397e-09
-8.18058907292e-11
2.47234128985e-09
-4.29324188744e-09
-8.25481948383e-11
2.43896762047e-09
-4.04632789015e-09
-6.96306350254e-11
2.39196554662e-09
-3.74895940424e-09
-4.29993831408e-11
2.32957579681e-09
-3.41460049916e-09
2.25693021988e-09
-3.05637858998e-09
-3.77888305935e-12
4.25717349386e-11
2.11959543488e-09
-3.12056308339e-09
9.34437477253e-13
7.04098209217e-11
2.17423109435e-09
-3.49817634976e-09
8.31438452496e-11
2.21918386321e-09
-3.8493726601e-09
8.13419750756e-11
2.25130355234e-09
-4.16089409649e-09
6.69489937993e-11
2.27281153784e-09
-4.41903003758e-09
4.28801091876e-11
2.28600841918e-09
-4.61244212996e-09
1.28024328265e-11
2.2934858026e-09
-4.73329294077e-09
-1.92469563395e-11
2.29644048412e-09
-4.77564135945e-09
-4.93068974424e-11
2.29334719945e-09
-4.73313580412e-09
-7.333500591e-11
2.2857459618e-09
-4.61213756297e-09
-8.76553595866e-11
2.2724602544e-09
-4.41859418179e-09
-8.93288806976e-11
2.25092849046e-09
-4.16034931712e-09
-7.6359764503e-11
2.218885313e-09
-3.84874454754e-09
-4.81035040031e-11
2.17411454027e-09
-3.49748095905e-09
2.11976483077e-09
-3.11980532562e-09
-3.97504589328e-12
4.61019267912e-11
1.92991174054e-09
-3.12262359824e-09
8.92794063561e-13
7.47931140745e-11
1.96978980487e-09
-3.51538088002e-09
8.72311085975e-11
2.00026020457e-09
-3.87933610719e-09
8.45814423761e-11
2.02051832398e-09
-4.2012859305e-09
6.91817353405e-11
2.03294384845e-09
-4.46748650815e-09
4.41293010292e-11
2.03985913404e-09
-4.66658903906e-09
1.31373485074e-11
2.04357832257e-09
-4.79071727262e-09
-1.97918497177e-11
2.04516843858e-09
-4.83401307356e-09
-5.07608364979e-11
2.04346121051e-09
-4.79054663473e-09
-7.57598218275e-11
2.03963561499e-09
-4.66625891152e-09
-9.10642136795e-11
2.03263913664e-09
-4.4670160443e-09
-9.35535120342e-11
2.02017979196e-09
-4.20070195358e-09
-8.08479395424e-11
1.99996251801e-09
-3.87866954661e-09
-5.17218037052e-11
1.96961367782e-09
-3.51465160007e-09
1.92994443787e-09
-3.12184077638e-09
-4.11572630196e-12
4.82923343364e-11
1.7101702e-09
-3.06833045316e-09
8.43835015404e-13
7.72695582984e-11
1.73918635389e-09
-3.47245044017e-09
8.9264631486e-11
1.75863126e-09
-3.8455669245e-09
8.5956736136e-11
1.77020755447e-09
-4.1746213437e-09
6.99556892758e-11
1.77627469424e-09
-4.44600702781e-09
4.44644293606e-11
1.77898420499e-09
-4.64855799642e-09
1.31812524839e-11
1.78023968096e-09
-4.77450864599e-09
-1.99791612054e-11
1.78090838536e-09
-4.81821253258e-09
-5.12330419587e-11
1.78013543612e-09
-4.77432684779e-09
-7.66571800337e-11
1.77878200869e-09
-4.64820675986e-09
-9.25405826767e-11
1.77598913571e-09
-4.44550816443e-09
-9.56590552755e-11
1.76986827494e-09
-4.1740057475e-09
-8.33682361737e-11
1.75828917096e-09
-3.84487051251e-09
-5.3942563152e-11
1.73889887456e-09
-3.4716963447e-09
1.71000288397e-09
-3.0675322118e-09
-4.21068995569e-12
4.92857828604e-11
1.47780907951e-09
-2.96247464334e-09
7.87696018359e-13
7.81945815493e-11
1.49923933315e-09
-3.37473399795e-09
8.97792799825e-11
1.5106920545e-09
-3.75398134018e-09
8.60531016242e-11
1.51639011584e-09
-4.08727703079e-09
6.97806443253e-11
1.51849695885e-09
-4.36131218413e-09
4.42242942431e-11
1.51879431691e-09
-4.56531232175e-09
1.3047434356e-11
1.51869567076e-09
-4.69178094642e-09
-1.99411600219e-11
1.5188201976e-09
-4.73540948994e-09
-5.10811577395e-11
1.5185950061e-09
-4.69159070492e-09
-7.65558104175e-11
1.51859371392e-09
-4.56494505656e-09
-9.26886395719e-11
1.51820134472e-09
-4.36079177752e-09
-9.61986303059e-11
1.51601288041e-09
-4.08663782149e-09
-8.42935422104e-11
1.510262146e-09
-3.75326386262e-09
-5.49251774827e-11
1.49879396605e-09
-3.37396437485e-09
1.47739437874e-09
-2.96167045527e-09
-4.26971460665e-12
4.93278022214e-11
1.24553107363e-09
-2.8096410861e-09
7.27891213066e-13
7.8159577082e-11
1.26140213474e-09
-3.2275043081e-09
8.95647251355e-11
1.26726929979e-09
-3.61046134317e-09
8.56479018412e-11
1.26948470616e-09
-3.94554837622e-09
6.92839793833e-11
1.26967079896e-09
-4.21998659358e-09
4.38126275985e-11
1.26904383994e-09
-4.42364443016e-09
1.28680505242e-11
1.26847916247e-09
-4.54946014456e-09
-1.98227710138e-11
1.26837392975e-09
-4.59258075039e-09
-5.07224837338e-11
1.26837011492e-09
-4.54926461676e-09
-7.60963212552e-11
1.2688228639e-09
-4.42326696384e-09
-9.22986762237e-11
1.26933519508e-09
-4.21945226733e-09
-9.5974590597e-11
1.26903290627e-09
-3.94489398247e-09
-8.42271376227e-11
1.26670926237e-09
-3.60973169428e-09
-5.49250980765e-11
1.26075217565e-09
-3.22672928151e-09
1.24482273475e-09
-2.80884226885e-09
-4.2979964529e-12
4.89667013808e-11
1.02182934838e-09
-2.61424555641e-09
6.66613571102e-13
7.82669601489e-11
1.03267738218e-09
-3.03624315934e-09
8.98321165467e-11
1.03511135022e-09
-3.42105708151e-09
8.57890676563e-11
1.03605946392e-09
-3.75574903899e-09
6.92576015171e-11
1.03605803698e-09
-4.02854377206e-09
4.37127513901e-11
1.03568157256e-09
-4.23023773226e-09
1.28108840171e-11
1.03534786496e-09
-4.35435027998e-09
-1.9799581229e-11
1.03524073966e-09
-4.39657821867e-09
-5.06475994622e-11
1.03521717651e-09
-4.35415319066e-09
-7.60775417082e-11
1.03541456101e-09
-4.22985699768e-09
-9.24262206377e-11
1.03564556096e-09
-4.02800444492e-09
-9.62064759226e-11
1.03549103026e-09
-3.75508866093e-09
-8.42809763092e-11
1.03438069605e-09
-3.42032388435e-09
-5.45006889183e-11
1.03177752528e-09
-3.03547351945e-09
1.0207758422e-09
-2.61346755353e-09
-4.30427779501e-12
4.81425515883e-11
-2.3813087517e-09
5.96371427717e-13
8.13561665238e-10
7.98899959607e-11
-2.80785790439e-09
8.16925321728e-10
9.19148179688e-11
-3.19237217678e-09
8.19142427069e-10
8.75970641993e-11
-3.52431687214e-09
8.20741624232e-10
7.05802579576e-11
-3.79342455015e-09
8.21734255828e-10
4.4507112481e-11
-3.99160819409e-09
8.22350657921e-10
1.30683747877e-11
-4.11304197126e-09
8.22660228895e-10
-2.00680890555e-11
-4.15402635624e-09
8.22704173214e-10
-5.14432537728e-11
-4.11284841483e-09
8.2249014771e-10
-7.73830420599e-11
-3.99123384455e-09
8.22006416398e-10
-9.41930192287e-11
-3.7928931783e-09
8.21204268632e-10
-9.82238499433e-11
-3.52366425334e-09
8.20011961272e-10
-8.5824935683e-11
-3.19164773129e-09
8.1819307047e-10
-5.35960071479e-11
-2.80709899468e-09
8.15735760509e-10
-2.38058313675e-09
-4.28797551115e-12
8.12105301446e-10
3.44451037497e-12
-5.43012185622e-11
-3.51661092738e-10
-5.67201238201e-14
5.25102596162e-12
-6.0548034725e-11
-3.87602400948e-10
5.97654790907e-12
-6.70465034523e-11
-4.21770370077e-10
5.7872027569e-12
-7.30447423293e-11
-4.52574835357e-10
4.78421250889e-12
-7.8096194791e-11
-4.78392148629e-10
3.13251428006e-12
-8.19078692227e-11
-4.9789869845e-10
1.05217488229e-12
-8.43044088053e-11
-5.10222088966e-10
-1.18198332872e-12
-8.5149956118e-11
-5.14653237622e-10
-3.25650078842e-12
-8.4279439667e-11
-5.10207803639e-10
-4.89383222872e-12
-8.18559391974e-11
-4.9787054736e-10
-5.87029801459e-12
-7.80192970806e-11
-4.78350923313e-10
-6.02498923244e-12
-7.29572957145e-11
-4.5252151909e-10
-5.25736060463e-12
-6.69580561926e-11
-4.21705653901e-10
-3.41205622453e-12
-6.04800993321e-11
-3.8752529422e-10
-5.42715174073e-11
-3.51565348286e-10
-1.45055992749e-14
7.65118683929e-12
-1.25571371866e-10
-1.0076751225e-09
-1.32569826413e-13
1.20469085109e-11
-1.38437390144e-10
-1.11241149934e-09
1.38712488121e-11
-1.51655244407e-10
-1.21196720745e-09
1.34746105043e-11
-1.63777274969e-10
-1.30168151758e-09
1.11488489124e-11
-1.73883104848e-10
-1.37686281869e-09
7.30283919633e-12
-1.81444420725e-10
-1.43366767694e-09
2.46373248178e-12
-1.86173347621e-10
-1.46953140323e-09
-2.72902681298e-12
-1.87843359706e-10
-1.48238295957e-09
-7.55418176708e-12
-1.86121725174e-10
-1.46948986718e-09
-1.1367257761e-11
-1.81338490888e-10
-1.43358581925e-09
-1.36351254925e-11
-1.73727307357e-10
-1.37674299818e-09
-1.3953722261e-11
-1.63595127378e-10
-1.30152664179e-09
-1.20375236411e-11
-1.51474480468e-10
-1.21177947741e-09
-7.56160608746e-12
-1.38295601462e-10
-1.11218849859e-09
-1.2550261462e-10
-1.00740445295e-09
-2.16464735553e-14
9.79218546978e-12
-1.86426648676e-10
-1.57183744777e-09
-1.77552122953e-13
1.56458842574e-11
-2.03740207618e-10
-1.73750233764e-09
1.81076772445e-11
-2.21301946087e-10
-1.89467350053e-09
1.75988703972e-11
-2.37308099152e-10
-2.03609487072e-09
1.45524277824e-11
-2.50558579931e-10
-2.1544858072e-09
9.53234085793e-12
-2.60406460668e-10
-2.2438738082e-09
3.23581678213e-12
-2.66539021517e-10
-2.30025060182e-09
-3.51323977083e-12
-2.68706796103e-10
-2.32039726715e-09
-9.79211355174e-12
-2.6647745041e-10
-2.30018345996e-09
-1.47713498593e-11
-2.60281147754e-10
-2.243741666e-09
-1.77470194797e-11
-2.50375575962e-10
-2.15429272327e-09
-1.81592192385e-11
-2.37094588664e-10
-2.03584594995e-09
-1.55846518099e-11
-2.21092379571e-10
-1.89437312803e-09
-9.63632971173e-12
-2.03578905446e-10
-1.73714862832e-09
-1.8635110817e-10
-1.57141559317e-09
2.99856109253e-15
1.05087947103e-11
-2.35621233058e-10
-2.03955547528e-09
-1.98772233579e-13
1.69408624347e-11
-2.55702799379e-10
-2.25765537382e-09
1.9684015946e-11
-2.75736197727e-10
-2.46405007215e-09
1.914125788e-11
-2.9381486861e-10
-2.64942975145e-09
1.58225636192e-11
-3.08665517867e-10
-2.80442766639e-09
1.03705087944e-11
-3.19629158741e-10
-2.92134908702e-09
3.55105173217e-12
-3.26428481035e-10
-2.9950040686e-09
-3.75196856063e-12
-3.28834692175e-10
-3.02125292302e-09
-1.05537216759e-11
-3.26368034602e-10
-2.99491314061e-09
-1.59654742967e-11
-3.19507348926e-10
-2.92117038324e-09
-1.92147958771e-11
-3.0848921337e-10
-2.80416710364e-09
-1.96615315738e-11
-2.93609434817e-10
-2.64909498082e-09
-1.68066164402e-11
-2.75536699322e-10
-2.46364843922e-09
-1.02832779626e-11
-2.55552700982e-10
-2.25718740248e-09
-2.35554263925e-10
-2.03900760849e-09
4.83944206164e-14
1.02452243916e-11
-2.72342671633e-10
-2.41685403035e-09
-2.04680249987e-13
1.66249417863e-11
-2.93818153814e-10
-2.67965750254e-09
1.93761062004e-11
-3.14789815875e-10
-2.92762806708e-09
1.88520987557e-11
-3.3345681106e-10
-3.14990167204e-09