/*--------------------------------*- C++ -*----------------------------------*\
  =========                 |
  \\      /  F ield         | OpenFOAM: The Open Source CFD Toolbox
   \\    /   O peration     | Website:  https://openfoam.org
    \\  /    A nd           | Version:  7
     \\/     M anipulation  |
\*---------------------------------------------------------------------------*/
FoamFile
{
    version     2.0;
    format      ascii;
    class       surfaceScalarField;
    location    "0.62";
    object      phi;
}
// * * * * * * * * * * * * * * * * * * * * * * * * * * * * * * * * * * * * * //

dimensions      [0 3 -1 0 0 0 0];

internalField   nonuniform List<scalar> 
65775
(
2.10052099233e-11
-2.23831436353e-10
1.41912096383e-10
-3.43733932753e-13
3.64930388145e-11
-2.39933362653e-10
1.59776004219e-10
4.40827260057e-11
-2.53724243281e-10
1.78539061971e-10
4.37145464237e-11
-2.66210565419e-10
1.96582833161e-10
3.61757054564e-11
-2.76667641216e-10
2.12383029014e-10
2.30915565276e-11
-2.84695405305e-10
2.24668768981e-10
6.51688662822e-12
-2.89829813626e-10
2.32529813101e-10
-1.12218423992e-11
-2.91689150905e-10
2.35315016336e-10
-2.76654343827e-11
-2.89716364306e-10
2.32461360634e-10
-4.0493538987e-11
-2.84450117829e-10
2.24534727285e-10
-4.76580787553e-11
-2.76288294151e-10
2.12187494491e-10
-4.75558669344e-11
-2.65716586972e-10
1.96330463363e-10
-3.94407178804e-11
-2.53183031564e-10
1.78233379751e-10
-2.34483604961e-11
-2.39404049093e-10
1.5941284447e-10
-2.23721457835e-10
1.41466695814e-10
-2.04007004798e-12
5.01002260215e-11
-6.57098791786e-10
3.25252021727e-10
-8.15834092925e-13
8.92933141361e-11
-7.05758700666e-10
3.64352903955e-10
1.10243511386e-10
-7.4623248681e-10
4.06301057316e-10
1.10776064504e-10
-7.81521763382e-10
4.47204124505e-10
9.23852273411e-11
-8.10906193689e-10
4.83346328345e-10
5.89812990284e-11
-8.33350191175e-10
5.11609630675e-10
1.60128343154e-11
-8.47722699461e-10
5.29741435028e-10
-3.01582696603e-11
-8.52951758857e-10
5.36145176952e-10
-7.27409795028e-11
-8.47498955153e-10
5.29532613414e-10
-1.05378501415e-10
-8.32873416157e-10
5.11202730896e-10
-1.22635753251e-10
-8.10165201344e-10
4.82755672897e-10
-1.2066519848e-10
-7.80536810531e-10
4.46446219451e-10
-9.81055087781e-11
-7.45100389401e-10
4.05389302426e-10
-5.72228952791e-11
-7.04709205372e-10
3.63279574045e-10
-6.56939800235e-10
3.23971056869e-10
-5.9730410191e-12
6.70341937969e-11
-1.20831313443e-09
4.2932809495e-10
-9.24858695573e-13
1.2184379825e-10
-1.29874278874e-09
4.79004730626e-10
1.5272833558e-10
-1.37263823892e-09
5.33444197362e-10
1.55017362023e-10
-1.43548964154e-09
5.87265649106e-10
1.30036278043e-10
-1.48734467868e-09
6.35253055921e-10
8.30313200749e-11
-1.52670251935e-09
6.72991609397e-10
2.186004545e-11
-1.55187295892e-09
6.97261202531e-10
-4.40693503907e-11
-1.56107611037e-09
7.05803461582e-10
-1.0465389769e-10
-1.55165127705e-09
6.96913215005e-10
-1.50509428023e-10
-1.52620652554e-09
6.72315089813e-10
-1.73814984699e-10
-1.48655114791e-09
6.34274668276e-10
-1.69411626967e-10
-1.43442182305e-09
5.86016981962e-10
-1.36133549927e-10
-1.37138337568e-09
5.3195353143e-10
-7.87216407287e-11
-1.29763773833e-09
4.77270787718e-10
-1.20834004932e-09
4.27298464343e-10
-9.73326996549e-12
7.42449608923e-11
-1.80672459919e-09
4.72254318216e-10
-9.36284574842e-13
1.37229337906e-10
-1.94223628211e-09
5.24276183917e-10
1.74272604077e-10
-2.05164727741e-09
5.82843332494e-10
1.78434806591e-10
-2.14281430828e-09
6.41731253318e-10
1.50335643796e-10
-2.21721698443e-09
6.94803178008e-10
9.57577264217e-11
-2.27331129153e-09
7.36817614838e-10
2.39923756595e-11
-2.30910175965e-09
7.63916623518e-10
-5.35571591092e-11
-2.32221506851e-09
7.73422163718e-10
-1.24560916566e-10
-2.3089433035e-09
7.6344253884e-10
-1.7765531314e-10
-2.27292345438e-09
7.3589790949e-10
-2.03603552123e-10
-2.21655501921e-09
6.93476992447e-10
-1.96728193111e-10
-2.14188306827e-09
6.40045746102e-10
-1.56586210447e-10
-2.05051592121e-09
5.80843608835e-10
-9.02083456141e-11
-1.94134416128e-09
5.2197345722e-10
-1.80712325873e-09
4.69601368913e-10
-1.32598055022e-11
7.3246915374e-11
-2.39378042517e-09
4.64824966659e-10
-9.072964345e-13
1.37938292406e-10
-2.57253476407e-09
5.12456670061e-10
1.77528502411e-10
-2.71548642343e-09
5.68271248471e-10
1.83323102836e-10
-2.83263058998e-09
6.25726370662e-10
1.54993257427e-10
-2.92720344554e-09
6.78256934954e-10
9.82096353176e-11
-2.99802645369e-09
7.20203777066e-10
2.27971671408e-11
-3.04307426626e-09
7.47365096166e-10
-5.88959527154e-11
-3.0596130234e-09
7.56856281064e-10
-1.33401313439e-10
-3.0430627483e-09
7.46782099574e-10
-1.88418895137e-10
-2.99791183828e-09
7.19074909301e-10
-2.14194050369e-10
-2.92692626996e-09
6.76633148068e-10
-2.05177742979e-10
-2.83217161264e-09
6.23670058574e-10
-1.61892251051e-10
-2.71487710676e-09
5.65845255035e-10
-9.31552145172e-11
-2.57222754483e-09
5.09687098792e-10
-2.39476008078e-09
4.61673670423e-10
-1.65417476782e-11
6.55045296444e-11
-2.92312071738e-09
4.17744371089e-10
-8.52153509538e-13
1.26391772375e-10
-3.13938468199e-09
4.55780746342e-10
1.65223676649e-10
-3.31081519877e-09
5.03500462056e-10
1.7219486249e-10
-3.44933190049e-09
5.54441855695e-10
1.45982981028e-10
-3.56004888344e-09
6.02006846605e-10
9.16495397813e-11
-3.64243872914e-09
6.40455715041e-10
1.87378295563e-11
-3.69468115596e-09
6.65491229746e-10
-6.04418065219e-11
-3.71387830791e-09
6.7419984842e-10
-1.3233421225e-10
-3.69485622375e-09
6.64819205692e-10
-1.84682987254e-10
-3.64268829189e-09
6.3915636857e-10
-2.08023621281e-10
-3.56029624857e-09
6.00141546286e-10
-1.97430265442e-10
-3.44952898233e-09
5.52087176767e-10
-1.54427089577e-10
-3.31094188038e-09
5.00736812581e-10
-8.89796635739e-11
-3.13989222868e-09
4.52648814301e-10
-2.92488456759e-09
4.14213402793e-10
-1.95427814285e-11
5.23706029978e-11
-3.36015850556e-09
3.41449689399e-10
-7.84368450162e-13
1.04911112995e-10
-3.60526788449e-09
3.66189537426e-10
1.40119991551e-10
-3.79792553248e-09
4.01983564364e-10
1.47719167359e-10
-3.95186420889e-09
4.42727616594e-10
1.25485170137e-10
-4.07388636361e-09
4.82089565149e-10
7.74981037327e-11
-4.16420498426e-09
5.14513749783e-10
1.23248560837e-11
-4.22131086801e-09
5.35808478542e-10
-5.86477320066e-11
-4.24230120592e-09
5.43172350226e-10
-1.22727031966e-10
-4.22171380109e-09
5.35068353221e-10
-1.68578972661e-10
-4.16491023758e-09
5.1308395967e-10
-1.87720684089e-10
-4.07480686519e-09
4.80039992674e-10
-1.76215232385e-10
-3.95292329844e-09
4.40147446913e-10
-1.36493802988e-10
-3.79904363777e-09
3.98969741866e-10
-7.90161571303e-11
-3.60684006899e-09
3.62795407701e-10
-3.36290071381e-09
3.3764974733e-10
-2.22403024953e-11
3.50818209385e-11
-3.68141799903e-09
2.45837449895e-10
-7.05329809004e-13
7.56595610354e-11
-3.94500482819e-09
2.54977789546e-10
1.04870729257e-10
-4.15046718038e-09
2.76406784469e-10
1.12554171359e-10
-4.31329332715e-09
3.04547433104e-10
9.57334493689e-11
-4.44158286801e-09
3.33548424605e-10
5.72317452195e-11
-4.53617751693e-09
3.58240686218e-10
4.07025231889e-12
-4.59584021123e-09
3.74698193806e-10
-5.40394721212e-11
-4.61775989052e-09
3.80340731776e-10
-1.06069363996e-10
-4.59647975038e-09
3.73910358289e-10
-1.42353301945e-10
-4.53736916978e-09
3.56718620538e-10
-1.55955936204e-10
-4.44323710306e-09
3.31368382318e-10
-1.44196078226e-10
-4.31530612514e-09
3.01809420379e-10
-1.10256100212e-10
-4.15270958703e-09
2.73222785416e-10
-6.44860243001e-11
-3.94780514519e-09
2.51411118337e-10
-3.68534497688e-09
2.41867404727e-10
-2.46245602161e-11
1.47800226097e-11
-3.87370699806e-09
1.40007961023e-10
-6.26503106019e-13
4.06194840892e-11
-4.14451673323e-09
1.3247490863e-10
6.19503829152e-11
-4.35400178774e-09
1.38294619818e-10
6.92422250851e-11
-4.51925382422e-09
1.52502668965e-10
5.89078448228e-11
-4.6490698675e-09
1.69882439294e-10
3.23071423065e-11
-4.74460072229e-09
1.8581117541e-10
-5.53561370337e-12
-4.80473331879e-09
1.96760049879e-10
-4.71758334041e-11
-4.82679804099e-09
2.00456613748e-10
-8.38824416203e-11
-4.80560983968e-09
1.95943735575e-10
-1.08244317636e-10
-4.74629037284e-09
1.84230695174e-10
-1.15320189986e-10
-4.65149107825e-09
1.67618848739e-10
-1.03887107992e-10
-4.52228501318e-09
1.49665020016e-10
-7.77247109895e-11
-4.3574714576e-09
1.35008302903e-10
-4.65486224445e-11
-4.14868321064e-09
1.28810301856e-10
-3.87898114139e-09
1.35951337843e-10
-2.669628811e-11
-7.66698237055e-12
-3.93276688611e-09
3.20910714775e-11
-5.43457894963e-13
1.29534449249e-12
-4.19955333485e-09
7.83751048064e-12
1.33291103742e-11
-4.40471903372e-09
-2.24249180897e-12
1.99096605059e-11
-4.56653611663e-09
-2.46746148976e-12
1.69025705486e-11
-4.69370639072e-09
2.704880008e-12
4.01549960823e-12
-4.78725890914e-09
9.33902582253e-12
-1.60726143939e-11
-4.84604378855e-09
1.44221132878e-11
-3.85959024263e-11
-4.86755430513e-09
1.60600973307e-11
-5.75664587741e-11
-4.8471422383e-09
1.35935001672e-11
-6.82420808263e-11
-4.78942540162e-09
7.72828647007e-12
-6.80167463639e-11
-4.69687254276e-09
3.95808381277e-13
-5.73122965249e-11
-4.57058175177e-09
-5.35847596331e-12
-4.04360006228e-11
-4.40945218533e-09
-5.57790034878e-12
-2.60709935103e-11
-4.20518089337e-09
4.1322995041e-12
-3.93955403525e-09
2.80144231581e-11
-2.84687284774e-11
-3.18238815354e-11
-3.86194525373e-09
-7.07999523536e-11
-4.66049671851e-13
-4.15513527046e-11
-4.11414730891e-09
-1.109679714e-10
-3.99388931966e-11
-4.30775975205e-09
-1.36521664819e-10
-3.42277583747e-11
-4.46132128562e-09
-1.51105683422e-10
-2.9150899833e-11
-4.58243337707e-09
-1.58284901285e-10
-2.68698641707e-11
-4.67158960653e-09
-1.61159949092e-10
-2.73092029323e-11
-4.72747386257e-09
-1.62100880875e-10
-2.86819900034e-11
-4.7478439136e-09
-1.62561526023e-10
-2.80386387273e-11
-4.72878050494e-09
-1.62925761664e-10
-2.36045271682e-11
-4.67420341825e-09
-1.62770826748e-10
-1.53685692019e-11
-4.58631608834e-09
-1.60601316115e-10
-5.60406173631e-12
-4.46635948907e-09
-1.54006080566e-10
7.99894676595e-13
-4.31376852548e-09
-1.39859598278e-10
-3.52885081162e-12
-4.12129226377e-09
-1.14668877642e-10
-3.87034958235e-09
-7.48494475515e-11
-2.99581138857e-11
-5.77050262662e-11
-3.67099625383e-09
-1.62197266386e-10
-3.85295787405e-13
-8.78644864552e-11
-3.89968818026e-09
-2.16644969572e-10
-9.75378011921e-11
-4.07644853227e-09
-2.5662619986e-10
-9.26150274027e-11
-4.21841613117e-09
-2.850272073e-10
-7.86704926774e-11
-4.33098313629e-09
-3.04344857374e-10
-5.99512657989e-11
-4.41382071837e-09
-3.16683260973e-10
-3.91923653661e-11
-4.46555733155e-09
-3.23648262898e-10
-1.77567703087e-11
-4.48429351533e-09
-3.26195010088e-10
4.05420771368e-12
-4.46706640257e-09
-3.24462972001e-10
2.48680409505e-11
-4.41686760342e-09
-3.18283309508e-10
4.18966202796e-11
-4.33554561032e-09
-3.06654836594e-10
5.07881079758e-11
-4.22441765082e-09
-2.87921114639e-10
4.58329258032e-11
-4.08373025272e-09
-2.59945063747e-10
2.10258883524e-11
-3.9083922808e-09
-2.20310216333e-10
-3.68111942361e-09
-1.66179909978e-10
-3.12211971607e-11
-8.58960400174e-11
-3.3748889889e-09
-2.36355988506e-10
-3.02950197047e-13
-1.38040246226e-10
-3.57406065931e-09
-3.02904828334e-10
-1.59210827735e-10
-3.73136625765e-09
-3.55955797478e-10
-1.54552552301e-10
-3.85992472637e-09
-3.973814792e-10
-1.30888983362e-10
-3.96219795049e-09
-4.28400496441e-10
-9.47185165816e-11
-4.0372424742e-09
-4.49973373114e-10
-5.15919928601e-11
-4.08379296242e-09
-4.62840800673e-10
-6.14665975965e-12
-4.10055075054e-09
-4.67417800617e-10
3.80150943909e-11
-4.08551162062e-09
-4.6364539308e-10
7.62495159657e-11
-4.04071670027e-09
-4.51560020208e-10
1.02938310643e-10
-3.96743801034e-09
-4.30695322601e-10
1.11498826184e-10
-3.86687834024e-09
-4.00255866491e-10
9.49815188186e-11
-3.73992736723e-09
-3.59238382697e-10
4.81479620039e-11
-3.58437954666e-09
-3.0650621925e-10
-3.38684108809e-09
-2.40231014008e-10
-3.22155240569e-11
-1.17282978086e-10
-2.99275841247e-09
-2.88186567089e-10
-1.90385849803e-13
-1.91465167439e-10
-3.16185843622e-09
-3.64518816366e-10
-2.23088142632e-10
-3.29958107488e-09
-4.2925900223e-10
-2.17887647906e-10
-3.41359439192e-09
-4.8281357059e-10
-1.84048445052e-10
-3.50408978112e-09
-5.24953054696e-10
-1.30047443736e-10
-3.57007011775e-09
-5.55391326749e-10
-6.41927458845e-11
-3.61070298121e-09
-5.73939544704e-10
5.70579949885e-12
-3.62520866007e-09
-5.80454281539e-10
7.26037922463e-11
-3.61265482939e-09
-5.74729567547e-10
1.28663588523e-10
-3.57401449483e-09
-5.56952988163e-10
1.65523395874e-10
-3.51003421536e-09
-5.27216776727e-10
1.74602940213e-10
-3.42152963929e-09
-4.85653643896e-10
1.47588438489e-10
-3.30946198654e-09
-4.32493461441e-10
7.86886447546e-11
-3.17388476936e-09
-3.68029502649e-10
-3.00662445595e-09
-2.91895219955e-10
-3.30713729364e-11
-1.4523186211e-10
-3.12999444407e-10
-1.07943519107e-13
-2.55504958674e-09
-2.40048905522e-10
-3.97724025083e-10
-2.69290666761e-09
-2.82180075421e-10
-4.7281169116e-10
-2.81082541643e-09
-2.77550527685e-10
-5.37496178795e-10
-2.90905720048e-09
-2.34904234814e-10
-5.90021229422e-10
-2.98675192348e-09
-1.64235900452e-10
-6.28807045392e-10
-3.04320652816e-09
-7.64485435416e-11
-6.52710043011e-10
-3.07777646342e-09
1.71981683851e-11
-6.61030226864e-10
-3.09007862457e-09
1.06060302175e-10
-6.53473365719e-10
-3.0800187881e-09
1.78845581931e-10
-6.30317807773e-10
-3.04772300062e-09
2.24575636622e-10
-5.92217480198e-10
-2.99354656435e-09
2.33142596383e-10
-5.4026453927e-10
-2.91812588532e-09
1.95678677479e-10
-4.75968098048e-10
-2.8221630384e-09
1.06125485789e-10
-4.01151960988e-10
-2.70672565616e-09
-3.16393809208e-10
-3.36429454072e-11
-2.57102426978e-09
-3.84572641295e-12
4.97909026115e-11
9.56575686113e-11
-8.55022927169e-14
-6.83073127583e-12
5.47007792983e-11
1.07413051199e-10
-8.43068401935e-12
5.91422930629e-11
1.20314929694e-10
-8.58609620074e-12
6.31390933515e-11
1.3300323984e-10
-7.31783981183e-12
6.64532769305e-11
1.44255640007e-10
-4.88913455595e-12
6.89182323188e-11
1.53069037973e-10
-1.70398632178e-12
7.04584051369e-11
1.5872603416e-10
1.73216525537e-12
7.10280927804e-11
1.60727763496e-10
4.87614136056e-12
7.05338775565e-11
1.58675188614e-10
7.24154044779e-12
6.9095352767e-11
1.52969561287e-10
8.45726698229e-12
6.67594802433e-11
1.44111465665e-10
8.29680337649e-12
6.35708063467e-11
1.3281883115e-10
6.7322948095e-12
5.96068349059e-11
1.20092390504e-10
3.79888391496e-12
5.51053514843e-11
1.07143736606e-10
5.00250797793e-11
9.5299969203e-11
-1.50235299315e-13
-8.63759113472e-12
1.33610241298e-10
2.49507124183e-10
-1.32531652234e-13
-1.54646344573e-11
1.45092778149e-10
2.79703860055e-10
-1.92468032082e-11
1.54792098271e-10
3.1327742882e-10
-1.96382513637e-11
1.63145254831e-10
3.46614782882e-10
-1.6750270529e-11
1.69864599578e-10
3.76378970273e-10
-1.11952188656e-11
1.74754030593e-10
3.99797824035e-10
-3.90759500091e-12
1.77773212696e-10
4.14863329278e-10
3.9543711604e-12
1.7891136214e-10
4.20183886796e-10
1.11514424207e-11
1.77966002498e-10
4.14714119785e-10
1.65712664654e-11
1.75192059239e-10
3.99505762566e-10
1.93451598605e-11
1.70611206354e-10
3.75955386958e-10
1.89374646692e-11
1.64180048502e-10
3.46072735007e-10
1.52287927376e-11
1.5591326906e-10
3.12623933001e-10
8.50264360662e-12
1.46035227291e-10
2.78916375445e-10
1.34117457664e-10
2.48499361252e-10
-2.68287221947e-13
-1.08647248142e-11
2.25898405964e-10
3.47677891763e-10
-4.3957941754e-13
-1.9778807029e-11
2.43394116693e-10
3.88724590565e-10
-2.48508344378e-11
2.5719026373e-10
4.35189992738e-10
-2.54687426195e-11
2.68394772972e-10
4.81864704045e-10
-2.18035953356e-11
2.77048799615e-10
5.23855517235e-10
-1.46573118104e-11
2.83178325859e-10
5.570571694e-10
-5.25992771524e-12
2.86921794037e-10
5.78467138465e-10
4.89727657137e-12
2.88350180535e-10
5.86016072524e-10
1.42174530468e-11
2.87160500283e-10
5.78232850067e-10
2.12636859274e-11
2.83705926226e-10
5.56598534257e-10
2.48861913138e-11
2.77921560362e-10
5.23190070581e-10
2.43533303474e-11
2.69567186274e-10
4.81012842594e-10
1.94730177084e-11
2.58437379399e-10
4.34164365899e-10
1.07386426322e-11
2.44403896134e-10
3.87496965896e-10
2.26442720271e-10
3.46136834931e-10
-5.49961572025e-13
-1.14472829546e-11
3.15731216102e-10
3.93933041974e-10
-6.85222664629e-13
-2.10931910892e-11
3.37717165182e-10
4.38736913892e-10
-2.6699362519e-11
3.53981422809e-10
4.90760574766e-10
-2.74683323939e-11
3.66317134101e-10
5.4383263898e-10
-2.35743066221e-11
3.7537059006e-10
5.92051030742e-10
-1.58955737167e-11
3.81545961048e-10
6.30412425843e-10
-5.77565025366e-12
3.85244573079e-10
6.5522239169e-10
5.1784113222e-12
3.86671464522e-10
6.63953048569e-10
1.52439898041e-11
3.85456696403e-10
6.54911288601e-10
2.28688994916e-11
3.82018806163e-10
6.29803663736e-10
2.67872330931e-11
3.76159270916e-10
5.91168467142e-10
2.61770452291e-11
3.67369648547e-10
5.4270485324e-10
2.0828266405e-11
3.55076702357e-10
4.8940889586e-10
1.13987338379e-11
3.38536526152e-10
4.37137062428e-10
3.16073438656e-10
3.91968825357e-10
-7.25807259721e-13
-1.08535784228e-11
3.9417442883e-10
3.97533463081e-10
-8.6803551451e-13
-2.02580096019e-11
4.18645123623e-10
4.40228891879e-10
-2.58516779756e-11
4.3548067513e-10
4.91673044479e-10
-2.6718710167e-11
4.47058454307e-10
5.45272288101e-10
-2.29831259394e-11
4.54864481324e-10
5.94601587754e-10
-1.55073675133e-11
4.59812231838e-10
6.34156363096e-10
-5.61493121101e-12
4.62665271893e-10
6.59833832309e-10
5.10906358203e-12
4.63781673335e-10
6.68849533451e-10
1.49655953189e-11
4.62780951565e-10
6.59454965649e-10
2.2420047359e-11
4.60087190251e-10
6.33415501441e-10
2.621192086e-11
4.55340044198e-10
5.93529034666e-10
2.55208507934e-11
4.47696186212e-10
5.43905709094e-10
2.01772731567e-11
4.36097098184e-10
4.90045146783e-10
1.09607088871e-11
4.18998214033e-10
4.38324930567e-10
3.94145374019e-10
3.952431957e-10
-7.81603492775e-13
-9.37309119241e-12
4.54609230231e-10
3.67162718571e-10
-9.97758985752e-13
-1.78381021748e-11
4.79188032964e-10
4.03061985253e-10
-2.3027511888e-11
4.94552133707e-10
4.48969395753e-10
-2.39523366207e-11
5.03576644297e-10
4.98303653823e-10
-2.06534685199e-11
5.08631272049e-10
5.44530535567e-10
-1.38966587458e-11
5.11224313728e-10
5.81992452394e-10
-4.89964453661e-12
5.12508802373e-10
6.06433821311e-10
4.87323418398e-12
5.13044014534e-10
6.14992665168e-10
1.38400795534e-11
5.12491231277e-10
6.05995997049e-10
2.05785121372e-11
5.11232962471e-10
5.81137076246e-10
2.3921937738e-11
5.0871392054e-10
5.43294564365e-10
2.31304895307e-11
5.03713831419e-10
4.96734733892e-10
1.81217349146e-11
4.94608314361e-10
4.47113630599e-10
9.75833990699e-12
4.78985070206e-10
4.00916547948e-10
4.54086819656e-10
3.64626138636e-10
-7.04631663856e-13
-7.18520211503e-12
4.92897652316e-10
3.10967513909e-10
-1.08874912376e-12
-1.41848533353e-11
5.15360861024e-10
3.36500366283e-10
-1.86494189309e-11
5.2744430404e-10
3.7305145006e-10
-1.9581716035e-11
5.32433079029e-10
4.1438211241e-10
-1.69214573682e-11
5.33545709776e-10
4.54185700348e-10
-1.12845176169e-11
5.32907834014e-10
4.86945743287e-10
-3.70811169872e-12
5.32073213036e-10
5.08476011296e-10
4.5422012286e-12
5.31823355895e-10
5.15989920776e-10
1.20800391951e-11
5.31903047003e-10
5.07986802643e-10
1.76735906939e-11
5.32612714693e-10
4.85991063015e-10
2.03229901665e-11
5.33179689827e-10
4.52809507817e-10
1.94279248196e-11
5.320022322e-10
4.12642975337e-10
1.5016124287e-11
5.268754615e-10
3.71010268867e-10
7.97800146723e-12
5.1455343329e-10
3.34166618008e-10
4.9187291745e-10
3.08249480002e-10
-4.90445493555e-13
-4.42317215086e-12
5.07383156502e-10
2.36525910099e-10
-1.14596248177e-12
-9.56541326472e-12
5.25880250402e-10
2.49154413982e-10
-1.30371040808e-11
5.33295193278e-10
2.73586268127e-10
-1.39075564296e-11
5.33311619519e-10
3.04157741778e-10
-1.20264838501e-11
5.29858542287e-10
3.35052904439e-10
-7.83280495257e-12
5.25584010872e-10
3.6113813039e-10
-2.12087706359e-12
5.22391917892e-10
3.78485308736e-10
4.11527716118e-12
5.21270555811e-10
3.84510308875e-10
9.76842994784e-12
5.22083792e-10
3.77950251681e-10
1.38707650458e-11
5.25018998853e-10
3.60095387993e-10
1.56537886569e-11
5.2910088127e-10
3.33553981462e-10
1.46910701686e-11
5.32395593814e-10
3.02273194461e-10
1.11070700179e-11
5.32189841968e-10
2.71392759214e-10
5.75746530903e-12
5.24553148613e-10
2.46673138549e-10
5.05883253309e-10
2.33676586307e-10
-1.53369358978e-13
-1.38081542299e-12
4.98774542917e-10
1.50823268583e-10
-1.18265407906e-12
-4.42842564494e-12
5.12101706501e-10
1.48941899155e-10
-6.69909339679e-12
5.14077532954e-10
1.59437124344e-10
-7.40813707384e-12
5.08858868681e-10
1.77366425273e-10
-6.36267932344e-12
5.00845202462e-10
1.9760646369e-10
-3.8169365763e-12
4.93046566402e-10
2.15605014356e-10
-2.79349308075e-13
4.87602435173e-10
2.27852294712e-10
3.59287122218e-12
4.85649657408e-10
2.32071162045e-10
7.04724414426e-12
4.87184966299e-10
2.27274482939e-10
9.44423918689e-12
4.92266956694e-10
2.14480597401e-10
1.02934362069e-11
4.99775850043e-10
1.95995185377e-10
9.34919216519e-12
5.07557809632e-10
1.75352213397e-10
6.79036956808e-12
5.12556999555e-10
1.57113094518e-10
3.34865952371e-12
5.10382488921e-10
1.46340065833e-10
4.96954553186e-10
1.47878364605e-10
2.82548902679e-13
1.61509435428e-12
4.69889922033e-10
6.02687243862e-11
-1.19742662357e-12
6.97701607203e-13
4.77460626361e-10
4.31072261241e-11
-3.12625324041e-13
4.73892064647e-10
3.8669012604e-11
-8.11789842973e-13
4.63827670329e-10
4.28108571737e-11
-5.89620669064e-13
4.51849567054e-10
5.12649159175e-11
2.80616701163e-13
4.41109834963e-10
6.02314896937e-11
1.58381623295e-12
4.33817748125e-10
6.67570986527e-11
3.0234031963e-12
4.31191859722e-10
6.8957942412e-11
4.2207602087e-12
4.33338285854e-10
6.61371197575e-11
4.88807893211e-12
4.40205454025e-10
5.90268101551e-11
4.82424201188e-12
4.50599816931e-10
4.95441477772e-11
3.96165589658e-12
4.62301268216e-10
4.06737698394e-11
2.50234623543e-12
4.72132442016e-10
3.622504178e-11
1.01530128699e-12
4.75533897662e-10
4.03981506085e-11
4.67890359773e-10
5.72505301139e-11
7.69685402766e-13
4.3831903137e-12
4.24855198201e-10
-2.92046266386e-11
-1.20325414717e-12
5.51822446886e-12
4.26677695587e-10
-6.15540225156e-11
5.74134288381e-12
4.1808044618e-10
-8.11573198878e-11
5.45644835857e-12
4.04110575662e-10
-9.13048976172e-11
4.88785132351e-12
3.89227050889e-10
-9.52641062577e-11
4.13956908375e-12
3.76469220632e-10
-9.59211082698e-11
3.29025322973e-12
3.67964110918e-10
-9.55229513097e-11
2.38833576707e-12
3.64896990251e-10
-9.54738890576e-11
1.42168544961e-12
3.67466379767e-10
-9.61809906892e-11
4.39770130457e-13
3.75526717331e-10
-9.71984135098e-11
-4.75878074398e-13
3.87915281365e-10
-9.7084035183e-11
-1.21518634534e-12
4.02511866351e-10
-9.35556496814e-11
-1.56207716785e-12
4.16258795244e-10
-8.37097685394e-11
-1.13889107119e-12
4.24731112806e-10
-6.4356630859e-11
4.22879194912e-10
-3.22826262362e-11
1.25132900999e-12
6.87880151492e-12
3.6858563851e-10
-1.11813337657e-10
-1.20062911269e-12
9.98672531093e-12
3.65214885148e-10
-1.58471196166e-10
1.14020357935e-11
3.52684512559e-10
-1.92820725016e-10
1.13122175154e-11
3.36241998365e-10
-2.17227716526e-10
9.9694106154e-12
3.19873773123e-10
-2.33788881145e-10
7.68278294903e-12
3.06280345763e-10
-2.44316404649e-10
4.80418544402e-12
2.97319494603e-10
-2.50228790028e-10
1.71038902445e-12
2.94100312185e-10
-2.52384852867e-10
-1.28750695867e-12
2.96842578726e-10
-2.50921890577e-10
-3.82248160914e-12
3.05372496554e-10
-2.45661066634e-10
-5.54407601089e-12
3.18611458689e-10
-2.35701447228e-10
-6.14543881648e-12
3.34707265187e-10
-2.19583605562e-10
-5.38105823134e-12
3.50957559023e-10
-1.95471717989e-10
-3.07603737162e-12
3.63417382006e-10
-1.61355394631e-10
3.6679988474e-10
-1.14934496201e-10
1.70184740574e-12
9.11747670417e-12
3.06090874987e-10
-1.8196229845e-10
-1.21163766617e-12
1.41300298336e-11
2.98472701644e-10
-2.41325515208e-10
1.66331443059e-11
2.83593607054e-10
-2.89511468148e-10
1.66445947711e-11
2.66470612871e-10
-3.27742277408e-10
1.45244849416e-11
2.50245836838e-10
-3.56749591004e-10
1.07929389909e-11
2.37066988003e-10
-3.77127189593e-10
6.08597353505e-12
2.28481837859e-10
-3.89359663898e-10
1.01882173292e-12
2.25386331899e-10
-3.93710626454e-10
-3.80576262063e-12
2.28055300598e-10
-3.90082718042e-10
-7.78535896789e-12
2.36255041221e-10
-3.78530289363e-10
-1.02971689325e-11
2.49113880536e-10
-3.58744474388e-10
-1.08223046321e-11
2.65109926303e-10
-3.30193763416e-10
-9.00948208311e-12
2.82102073542e-10
-2.92251359483e-10
-4.85506076489e-12
2.96978388077e-10
-2.44274677217e-10
3.04680449624e-10
-1.85100439047e-10
2.0915864569e-12
1.11404003078e-11
2.42001190008e-10
-2.34162186773e-10
-1.23388342354e-12
1.79523126376e-11
2.31278840851e-10
-3.04252707787e-10
2.12751188949e-11
2.16028394402e-10
-3.65118209038e-10
2.11694855509e-11
2.00093307245e-10
-4.16437577071e-10
1.82414919608e-11
1.85560575598e-10
-4.57434157424e-10
1.32662303817e-11
1.73973686928e-10
-4.87386407068e-10
7.0424268759e-12
1.66468450942e-10
-5.05777006704e-10
3.97004518745e-13
1.63780035863e-10
-5.12249393646e-10
-5.94041202078e-12
1.66118817053e-10
-5.06521161197e-10
-1.11613481949e-11
1.73311058127e-10
-4.88832105213e-10
-1.44740374579e-11
1.84645505912e-10
-4.59492796736e-10
-1.51116930988e-11
1.99010246606e-10
-4.18969664943e-10
-1.24840738547e-11
2.14868687511e-10
-3.67937247521e-10
-6.53480038908e-12
2.30202454889e-10
-3.07244509545e-10
2.41081389666e-10
-2.37267807217e-10
2.39664273711e-12
1.33265517581e-11
-2.63418301533e-10
-1.27612142283e-12
1.80234948599e-10
2.17316933476e-11
-3.42904922944e-10
1.67957855639e-10
2.5177700304e-11
-4.15000943237e-10
1.54668973372e-10
2.45390256044e-11
-4.78257536138e-10
1.41417832584e-10
2.07787073923e-11
-5.30363002093e-10
1.29584064338e-10
1.48296751747e-11
-5.69257009695e-10
1.20295098583e-10
7.59842839723e-12
-5.93406609291e-10
1.14339739676e-10
-8.34307050963e-14
-6.01841226444e-10
1.12210714999e-10
-7.4227069411e-12
-5.94154976088e-10
1.14101536175e-10
-1.36110089253e-11
-5.70713260184e-10
1.19838075841e-10
-1.77451134608e-11
-5.32443221937e-10
1.28959640701e-10
-1.89059533268e-11
-4.80828974528e-10
1.40689943003e-10
-1.61228298189e-11
-4.17867599045e-10
1.5394216901e-10
-8.53808855764e-12
-3.45944826348e-10
1.6736973305e-10
-2.66352140067e-10
2.58602517543e-12
1.79879229287e-10
1.99764158325e-12
-2.75252881202e-11
1.21103788449e-10
-1.99694231181e-13
2.9741359939e-12
-3.07066202537e-11
1.36826981837e-10
3.33143024166e-12
-3.39850275194e-11
1.53591249521e-10
3.18738635641e-12
-3.6967927138e-11
1.69813990656e-10
2.58099749939e-12
-3.95211373503e-11
1.84063078847e-10
1.62704861056e-12
-4.14380698217e-11
1.95160274633e-10
4.67938689975e-13
-4.2614061597e-11
2.02266364489e-10
-7.52745692133e-13
-4.30033680469e-11
2.04787970547e-10
-1.87800044255e-12
-4.25393450742e-11
2.02225490101e-10
-2.76630863873e-12
-4.13073384046e-11
1.9507910599e-10
-3.29521115461e-12
-3.93714727788e-11
1.83942655791e-10
-3.3708962744e-12
-3.68226883838e-11
1.69655098726e-10
-2.92678653426e-12
-3.38009961883e-11
1.53392688864e-10
-1.88210823534e-12
-3.05323243105e-11
1.36577413963e-10
-2.7369010582e-11
1.20760603072e-10
-2.43199533079e-14
4.69888329793e-12
-6.09819321152e-11
2.78399922063e-10
-6.03350265342e-13
7.07708740333e-12
-6.71804326255e-11
3.13211881438e-10
7.95406761927e-12
-7.34115976095e-11
3.51206023214e-10
7.56056309908e-12
-7.90366617015e-11
3.88513106373e-10
6.06191521457e-12
-8.37732612986e-11
4.21584220371e-10
3.74932316984e-12
-8.72981665943e-11
4.47487533542e-10
9.59467874108e-13
-8.94502032025e-11
4.64118703223e-10
-1.96906103787e-12
-9.01631317012e-11
4.70006670617e-10
-4.66725741382e-12
-8.93115032e-11
4.63995998956e-10
-6.7967111608e-12
-8.70594300819e-11
4.47244372701e-10
-8.05296024697e-12
-8.35014216811e-11
4.21224636547e-10
-8.18626100433e-12
-7.87608325606e-11
3.8804089261e-10
-7.00976911395e-12
-7.3067652626e-11
3.5061956945e-10
-4.36000552256e-12
-6.68348557251e-11
3.1248203327e-10
-6.06678021618e-11
2.7743720229e-10
-7.80399113851e-14
6.10091837797e-12
-8.77185274606e-11
3.68503057562e-10
-5.74722488139e-13
9.56031476034e-12
-9.56088781948e-11
4.13269104472e-10
1.09868926974e-11
-1.03325746349e-10
4.63252292509e-10
1.05893550035e-11
-1.1024019013e-10
5.13032240317e-10
8.6268211282e-12
-1.15954816762e-10
5.57563345513e-10
5.50198822887e-12
-1.20149633003e-10
5.92641856971e-10
1.68352343318e-12
-1.22691005244e-10
6.15221356734e-10
-2.34844458014e-12
-1.23532063407e-10
6.23194699187e-10
-6.08263310477e-12
-1.22520017741e-10
6.15014072522e-10
-9.04716122956e-12
-1.19853315272e-10
5.9223230578e-10
-1.0811516836e-11
-1.15611443893e-10
5.5696100945e-10
-1.10092375713e-11
-1.09890497973e-10
5.12247746861e-10
-9.36523203032e-12
-1.02921624044e-10
4.62289484245e-10
-5.69944474258e-12
-9.51761086387e-11
4.1209383102e-10
-8.72967228231e-11
3.67001579246e-10
-7.43057690643e-15
6.82355544663e-12
-1.08098390164e-10
4.07660683532e-10
-5.20180346316e-13
1.09586685513e-11
-1.16866183583e-10
4.55438416971e-10
1.27786539169e-11
-1.25093210166e-10
5.10259647271e-10
1.2431751346e-11
-1.32272510899e-10
5.65772386391e-10
1.02215622345e-11
-1.38066926372e-10
6.15958972458e-10
6.62015135473e-12
-1.42246319999e-10
6.55753388892e-10
2.17843583064e-12
-1.44754378922e-10
6.81446718108e-10
-2.53050289033e-12
-1.45575378889e-10
6.90497882402e-10
-6.90224445931e-12
-1.44552715966e-10
6.81160866657e-10
-1.03756517148e-11
-1.41886390012e-10
6.5518982574e-10
-1.24353698317e-11
-1.37618117814e-10
6.15133353185e-10
-1.26384337137e-11
-1.31776720511e-10
5.6470383002e-10
-1.06666282961e-11
-1.24528616692e-10
5.08961371673e-10
-6.38393535659e-12
-1.16277584446e-10
4.53881287669e-10
-1.07560960716e-10
4.0572733795e-10
5.55203044014e-14
7.08724785028e-12
-1.22638973091e-10
4.05181344044e-10
-4.80494510482e-13
1.15877682795e-11
-1.31675900471e-10
4.50259366927e-10
1.36730076859e-11
-1.39779431674e-10
5.03975920693e-10
1.34075342291e-11
-1.46618157081e-10
5.59570190073e-10
1.11010996675e-11
-1.51978954115e-10
6.10512228756e-10
7.25738248904e-12
-1.55762052131e-10
6.51240548694e-10
2.4764249384e-12
-1.57998263922e-10
6.77639662087e-10
-2.61063012403e-12
-1.58723332108e-10
6.86916014831e-10
-7.33456717403e-12
-1.57783169358e-10
6.77281250872e-10
-1.10757773848e-11
-1.55368747084e-10
6.50535425993e-10