/*--------------------------------*- C++ -*----------------------------------*\
  =========                 |
  \\      /  F ield         | OpenFOAM: The Open Source CFD Toolbox
   \\    /   O peration     | Website:  https://openfoam.org
    \\  /    A nd           | Version:  7
     \\/     M anipulation  |
\*---------------------------------------------------------------------------*/
FoamFile
{
    version     2.0;
    format      ascii;
    class       volScalarField;
    location    "0.34";
    object      p;
}
// * * * * * * * * * * * * * * * * * * * * * * * * * * * * * * * * * * * * * //

dimensions      [0 2 -2 0 0 0 0];

internalField   nonuniform List<scalar> 
22500
(
1.86639539406e-05
1.86604551935e-05
1.86596263079e-05
1.86582970175e-05
1.86573496724e-05
1.86566166205e-05
1.86561686581e-05
1.86560132688e-05
1.86561775689e-05
1.86566340196e-05
1.86573745624e-05
1.86583277532e-05
1.86596604291e-05
1.86604899294e-05
1.86639862466e-05
1.86155457909e-05
1.86095639723e-05
1.86066393745e-05
1.86034795389e-05
1.86010488236e-05
1.85992251642e-05
1.85981112795e-05
1.85977333567e-05
1.85981198458e-05
1.85992418792e-05
1.8601072729e-05
1.86035090557e-05
1.86066722112e-05
1.86095975368e-05
1.86155772007e-05
1.85686646137e-05
1.85603655241e-05
1.85556449302e-05
1.85508667585e-05
1.85471482181e-05
1.85443779362e-05
1.85426877917e-05
1.85421171078e-05
1.85426961851e-05
1.85443943174e-05
1.85471716698e-05
1.85508957532e-05
1.85556772562e-05
1.85603986183e-05
1.85686955696e-05
1.85268066691e-05
1.85165786949e-05
1.85104502567e-05
1.85044245269e-05
1.84997185831e-05
1.84962290743e-05
1.84941027777e-05
1.84933865213e-05
1.84941109442e-05
1.84962450155e-05
1.84997414224e-05
1.85044527978e-05
1.85104818285e-05
1.85166110914e-05
1.85268369872e-05
1.84877172791e-05
1.8475826475e-05
1.84685225957e-05
1.84614982451e-05
1.84560008909e-05
1.84519419477e-05
1.84494718346e-05
1.844864128e-05
1.84494797023e-05
1.84519573038e-05
1.84560229009e-05
1.84615255194e-05
1.84685531112e-05
1.84758578725e-05
1.84877467211e-05
1.84509125038e-05
1.84376272149e-05
1.84293554689e-05
1.84215544014e-05
1.84154397884e-05
1.84109432266e-05
1.84082100694e-05
1.84072923669e-05
1.84082175665e-05
1.84109578563e-05
1.84154607585e-05
1.84215804051e-05
1.84293846199e-05
1.84376572987e-05
1.84509408246e-05
1.84165657898e-05
1.84021700487e-05
1.83931289057e-05
1.83847597389e-05
1.83781907888e-05
1.83733781087e-05
1.83704559507e-05
1.83694758663e-05
1.8370463031e-05
1.83733919211e-05
1.83782105864e-05
1.83847843042e-05
1.83931564984e-05
1.84021986212e-05
1.84165927859e-05
1.83846934169e-05
1.83694584681e-05
1.83598205533e-05
1.83510644124e-05
1.83441816164e-05
1.83391559222e-05
1.83361073598e-05
1.83350857729e-05
1.8336113985e-05
1.83391688429e-05
1.83442001327e-05
1.83510873981e-05
1.83598464215e-05
1.83694853533e-05
1.83847189402e-05
1.83551822075e-05
1.83393570859e-05
1.83292706673e-05
1.83202812539e-05
1.83132035664e-05
1.83080505211e-05
1.83049274011e-05
1.83038815625e-05
1.83049335561e-05
1.8308062521e-05
1.83132207608e-05
1.83203026072e-05
1.83292947415e-05
1.83393821928e-05
1.83552061491e-05
1.83278891291e-05
1.83117018145e-05
1.8301301131e-05
1.82922114471e-05
1.82850419395e-05
1.82798341917e-05
1.82766803807e-05
1.82756248619e-05
1.82766860636e-05
1.82798452693e-05
1.82850578088e-05
1.82922311648e-05
1.83013234007e-05
1.83117251197e-05
1.83279114582e-05
1.83026651997e-05
1.82863270679e-05
1.82757443396e-05
1.82666730021e-05
1.82595031159e-05
1.82543037653e-05
1.82511573307e-05
1.82501048095e-05
1.82511625595e-05
1.8254313955e-05
1.82595177151e-05
1.82666911477e-05
1.82757648698e-05
1.82863486193e-05
1.830268593e-05
1.82793414515e-05
1.82630738247e-05
1.82524572941e-05
1.82435119441e-05
1.82364219156e-05
1.82312856035e-05
1.82281797913e-05
1.82271414132e-05
1.82281846001e-05
1.82312949724e-05
1.82364353361e-05
1.82435286361e-05
1.82524762111e-05
1.82630937474e-05
1.82793607051e-05
1.82576719069e-05
1.82418060665e-05
1.82313444421e-05
1.8222615642e-05
1.82156703021e-05
1.82106432449e-05
1.82076072848e-05
1.82065931147e-05
1.82076117174e-05
1.821065188e-05
1.82156826813e-05
1.82226310433e-05
1.82313619237e-05
1.82418245327e-05
1.82576898176e-05
1.82375302134e-05
1.82224843953e-05
1.82123139936e-05
1.82038592147e-05
1.81971133402e-05
1.81922463989e-05
1.81893152267e-05
1.81883374466e-05
1.81893193327e-05
1.81922544075e-05
1.81971248078e-05
1.82038735003e-05
1.82123302599e-05
1.82225016474e-05
1.82375470116e-05
1.82202987129e-05
1.82046971214e-05
1.81949351763e-05
1.8186767221e-05
1.818031835e-05
1.81757097245e-05
1.81729484504e-05
1.81720295328e-05
1.81729522733e-05
1.81757171843e-05
1.81803290559e-05
1.81867805824e-05
1.81949504331e-05
1.82047134714e-05
1.82203148631e-05
1.29069150462e-05
1.29083313391e-05
1.29093829952e-05
1.29103709082e-05
1.29112194458e-05
1.29118705388e-05
1.29122825518e-05
1.29124233213e-05
1.29122823843e-05
1.29118703176e-05
1.29112193623e-05
1.29103711737e-05
1.29093839333e-05
1.29083330486e-05
1.29069176874e-05
1.29126334797e-05
1.29142912579e-05
1.29155832531e-05
1.29167896216e-05
1.2917823993e-05
1.29186152678e-05
1.29191149581e-05
1.2919285869e-05
1.29191149176e-05
1.29186152674e-05
1.29178241635e-05
1.29167900951e-05
1.29155842752e-05
1.29142929784e-05
1.29126360561e-05
1.29197292236e-05
1.29219227567e-05
1.29236669732e-05
1.29252991674e-05
1.2926697847e-05
1.29277661092e-05
1.29284394793e-05
1.29286697213e-05
1.29284395183e-05
1.29277662598e-05
1.2926698226e-05
1.29252998912e-05
1.29236682185e-05
1.29219246651e-05
1.2919731858e-05
1.29287889068e-05
1.29319049312e-05
1.29343860221e-05
1.29366978835e-05
1.29386729847e-05
1.29401775351e-05
1.29411232683e-05
1.29414462198e-05
1.2941123382e-05
1.29401778237e-05
1.29386735468e-05
1.29366988199e-05
1.2934387468e-05
1.29319070003e-05
1.29287916352e-05
1.29404029786e-05
1.29447787404e-05
1.29482279551e-05
1.29514151539e-05
1.29541229394e-05
1.29561772804e-05
1.29574639906e-05
1.29579025911e-05
1.29574641716e-05
1.29561776917e-05
1.2954123666e-05
1.29514162777e-05
1.2948229588e-05
1.29447809527e-05
1.29404057752e-05
1.29544593728e-05
1.29603203608e-05
1.29648688917e-05
1.29690311675e-05
1.29725438844e-05
1.2975196307e-05
1.29768512523e-05
1.29774142607e-05
1.29768514772e-05
1.29751967953e-05
1.29725447021e-05
1.2969032389e-05
1.29648706103e-05
1.29603226546e-05
1.29544621929e-05
1.29705298641e-05
1.29779798205e-05
1.29836625551e-05
1.29888092689e-05
1.29931229073e-05
1.29963640387e-05
1.29983785468e-05
1.29990625258e-05
1.29983787945e-05
1.29963645667e-05
1.29931237731e-05
1.2988810544e-05
1.29836643179e-05
1.2977982152e-05
1.29705326546e-05
1.29881033863e-05
1.29971329704e-05
1.30039053153e-05
1.30099728241e-05
1.30150237744e-05
1.30188002164e-05
1.30211386353e-05
1.30219310612e-05
1.30211388786e-05
1.30188007319e-05
1.3015024617e-05
1.30099740664e-05
1.30039070435e-05
1.29971352604e-05
1.29881061263e-05
1.3006667705e-05
1.30171717794e-05
1.3024929244e-05
1.30318013876e-05
1.30374849193e-05
1.30417138266e-05
1.30443228509e-05
1.30452053164e-05
1.30443230691e-05
1.30417142928e-05
1.30374856925e-05
1.30318025481e-05
1.3024930883e-05
1.30171739749e-05
1.3006670307e-05
1.30257470038e-05
1.30375458879e-05
1.30461424813e-05
1.30536703784e-05
1.30598575939e-05
1.30644396173e-05
1.30672563917e-05
1.30682073557e-05
1.30672565617e-05
1.30644399917e-05
1.30598582396e-05
1.30536713909e-05
1.30461439659e-05
1.30375479251e-05
1.30257494424e-05
1.30449225437e-05
1.30577819829e-05
1.30670454976e-05
1.30750651084e-05
1.30816171411e-05
1.30864467296e-05
1.30894050885e-05
1.30904019782e-05
1.30894051927e-05
1.30864469794e-05
1.30816176182e-05
1.3075065922e-05
1.30670467683e-05
1.30577837978e-05
1.30449247299e-05
1.30638272485e-05
1.30774785422e-05
1.30872275223e-05
1.30955772051e-05
1.31023575753e-05
1.31073310719e-05
1.31103662221e-05
1.31113869552e-05
1.31103662431e-05
1.31073311648e-05
1.31023578374e-05
1.30955777666e-05
1.30872285214e-05
1.30774800664e-05
1.30638291416e-05
1.3082129106e-05
1.30963111804e-05
1.31063782401e-05
1.31149094666e-05
1.31217884494e-05
1.31268060244e-05
1.31298555157e-05
1.31308788547e-05
1.31298554353e-05
1.31268059284e-05
1.31217884542e-05
1.31149097254e-05
1.31063789004e-05
1.30963123436e-05
1.30821306051e-05
1.30997575832e-05
1.31142636762e-05
1.31244183652e-05
1.31329494705e-05
1.31397630538e-05
1.31446998096e-05
1.31476870996e-05
1.31486872513e-05
1.31476869012e-05
1.31446994867e-05
1.31397627461e-05
1.31329493538e-05
1.31244186339e-05
1.31142644133e-05
1.30997586187e-05
1.31178731308e-05
1.31314027628e-05
1.31412883539e-05
1.31495761086e-05
1.31560971698e-05
1.3160785969e-05
1.31636109163e-05
1.31645546453e-05
1.31636105858e-05
1.31607854081e-05
1.31560965325e-05
1.31495756095e-05
1.31412881803e-05
1.31314030748e-05
1.31178737343e-05
1.39981694525e-05
1.39977999555e-05
1.39972696176e-05
1.3996674907e-05
1.39961117389e-05
1.39956575253e-05
1.39953634417e-05
1.39952608724e-05
1.39953616067e-05
1.39956539193e-05
1.39961065441e-05
1.39966684707e-05
1.3997262241e-05
1.39977923778e-05
1.39981620615e-05
1.39988277494e-05
1.39984937562e-05
1.39979950698e-05
1.39974282579e-05
1.39968858476e-05
1.39964453525e-05
1.39961587533e-05
1.39960584932e-05
1.39961569268e-05
1.39964417679e-05
1.39968806965e-05
1.39974218735e-05
1.39979877603e-05
1.3998486169e-05
1.39988203388e-05
1.39998089628e-05
1.39995263578e-05
1.39990751243e-05
1.39985495466e-05
1.3998038859e-05
1.39976205769e-05
1.39973469049e-05
1.39972508855e-05
1.39973451294e-05
1.39976170921e-05
1.39980338456e-05
1.39985433193e-05
1.3999068016e-05
1.39995189331e-05
1.3999801674e-05
1.4000511979e-05
1.40002591424e-05
1.39998360874e-05
1.39993372128e-05
1.3998847982e-05
1.39984454646e-05
1.39981813198e-05
1.39980885121e-05
1.39981796013e-05
1.39984420901e-05
1.39988431157e-05
1.39993311486e-05
1.39998291726e-05
1.40002519175e-05
1.40005048553e-05
1.40009811949e-05
1.40007580981e-05
1.40003627689e-05
1.39998948272e-05
1.39994333222e-05
1.39990528185e-05
1.39988027441e-05
1.39987147985e-05
1.39988010836e-05
1.39990495607e-05
1.39994286273e-05
1.39998889755e-05
1.40003561079e-05
1.40007511408e-05
1.4000974297e-05
1.40013732186e-05
1.40012024177e-05
1.40008526848e-05
1.40004362581e-05
1.40000222582e-05
1.39996799323e-05
1.39994545379e-05
1.39993751461e-05
1.39994529323e-05
1.39996767862e-05
1.40000177272e-05
1.40004306142e-05
1.40008462764e-05
1.40011957254e-05
1.4001366604e-05
1.40018009798e-05
1.40017165645e-05
1.40014382626e-05
1.40010996877e-05
1.40007571119e-05
1.40004717349e-05
1.40002830292e-05
1.40002163266e-05
1.40002814824e-05
1.40004687102e-05
1.40007527664e-05
1.40010942887e-05
1.4001432159e-05
1.40017101926e-05
1.40017946779e-05
1.40023416884e-05
1.40023804647e-05
1.4002200063e-05
1.40019640465e-05
1.40017145658e-05
1.40015026467e-05
1.40013609874e-05
1.40013105091e-05
1.40013594978e-05
1.40014997401e-05
1.40017104019e-05
1.40019588888e-05
1.40021942607e-05
1.40023744258e-05
1.40023357228e-05
1.4003045687e-05
1.40032396281e-05
1.40031790998e-05
1.40030640224e-05
1.40029231952e-05
1.40027961815e-05
1.40027085798e-05
1.40026766931e-05
1.4002707148e-05
1.40027933953e-05
1.40029192197e-05
1.40030591203e-05
1.40031736128e-05
1.40032339373e-05
1.40030400602e-05
1.40039375839e-05
1.4004308053e-05
1.40043815173e-05
1.4004396966e-05
1.40043723621e-05
1.40043354268e-05
1.40043048726e-05
1.40042925595e-05
1.40043034959e-05
1.40043327563e-05
1.40043685673e-05
1.40043923105e-05
1.40043763356e-05
1.40043026995e-05
1.40039323027e-05
1.40050187706e-05
1.40055727153e-05
1.4005784804e-05
1.40059312862e-05
1.4006022502e-05
1.40060747562e-05
1.40061004229e-05
1.40061073659e-05
1.40060990989e-05
1.40060721962e-05
1.40060188828e-05
1.40059268698e-05
1.40057799175e-05
1.4005567682e-05
1.40050138057e-05
1.40062669491e-05
1.40069967184e-05
1.4007343853e-05
1.40076149335e-05
1.40078153962e-05
1.40079513414e-05
1.40080295607e-05
1.40080544702e-05
1.40080282855e-05
1.40079488836e-05
1.4007811937e-05
1.40076107381e-05
1.40073392363e-05
1.400699198e-05
1.40062622789e-05
1.40076394077e-05
1.40085309528e-05
1.40090048895e-05
1.40093884262e-05
1.4009686522e-05
1.40098971193e-05
1.4010022107e-05
1.40100630072e-05
1.40100208733e-05
1.40098947472e-05
1.40096832052e-05
1.40093844219e-05
1.40090005039e-05
1.40085264555e-05
1.4007634957e-05
1.40091660651e-05
1.40102022868e-05
1.40107568984e-05
1.4011219068e-05
1.4011586716e-05
1.40118515263e-05
1.40120108366e-05
1.40120634957e-05
1.40120096345e-05
1.40118492292e-05
1.40115835075e-05
1.40112152179e-05
1.40107526992e-05
1.40101979803e-05
1.40091617631e-05
1.40112735238e-05
1.40120073966e-05
1.40125401663e-05
1.40130193268e-05
1.40134084731e-05
1.40136933549e-05
1.40138662191e-05
1.40139236603e-05
1.40138650566e-05
1.40136911329e-05
1.40134053863e-05
1.40130156273e-05
1.40125361327e-05
1.40120032689e-05
1.40112693375e-05
1.17645381826e-05
1.17648181221e-05
1.17651765642e-05
1.1765544588e-05
1.17658793348e-05
1.17661433711e-05
1.17663118502e-05
1.17663691779e-05
1.17663095829e-05
1.17661389755e-05
1.17658731073e-05
1.17655369715e-05
1.17651682765e-05
1.17648098353e-05
1.17645308395e-05
1.17648527995e-05
1.17651372179e-05
1.17655035628e-05
1.17658802012e-05
1.17662243082e-05
1.17664966406e-05
1.17666708656e-05
1.1766730323e-05
1.17666687248e-05
1.17664924845e-05
1.17662184003e-05
1.17658729268e-05
1.17654955437e-05
1.17651291231e-05
1.17648454998e-05
1.17649751105e-05
1.17652502111e-05
1.17656106941e-05
1.17659825709e-05
1.17663248906e-05
1.17665969903e-05
1.17667716018e-05
1.17668313137e-05
1.1766769519e-05
1.17665929505e-05
1.17663191542e-05
1.17659755267e-05
1.17656029173e-05
1.17652423772e-05
1.17649679688e-05
1.17650754853e-05
1.1765343513e-05
1.17657000953e-05
1.17660663365e-05
1.17664053096e-05
1.17666755889e-05
1.17668494326e-05
1.1766908975e-05
1.17668474272e-05
1.1766671698e-05
1.17663997797e-05
1.17660595455e-05
1.17656925921e-05
1.17653359447e-05
1.17650685732e-05
1.17651898008e-05
1.17654524013e-05
1.17658073961e-05
1.17661678713e-05
1.17665026995e-05
1.17667702347e-05
1.17669425988e-05
1.17670017122e-05
1.1766940689e-05
1.17667665297e-05
1.17664974386e-05
1.17661614127e-05
1.17658002644e-05
1.17654451837e-05
1.17651831816e-05
1.17653043697e-05
1.17655622782e-05
1.17659173959e-05
1.17662721891e-05
1.17666025549e-05
1.17668669329e-05
1.17670374906e-05
1.17670960529e-05
1.17670356887e-05
1.17668634366e-05
1.17665975845e-05
1.17662660832e-05
1.176591064e-05
1.17655554438e-05
1.17652980641e-05
1.17654171045e-05
1.17656732426e-05
1.17660316634e-05
1.17663829244e-05
1.17667103732e-05
1.17669726764e-05
1.1767142047e-05
1.17672002572e-05
1.17671403554e-05
1.17669693979e-05
1.17667057165e-05
1.17663772121e-05
1.17660253421e-05
1.17656668481e-05
1.17654111677e-05
1.17655372851e-05
1.17657978085e-05
1.17661644486e-05
1.1766516313e-05
1.1766843998e-05
1.17671065037e-05
1.17672760358e-05
1.17673343382e-05
1.17672744552e-05
1.17671034416e-05
1.17668396516e-05
1.17665109858e-05
1.17661585611e-05
1.17657918531e-05
1.17655317563e-05
1.17656772089e-05
1.17659508324e-05
1.17663313457e-05
1.17666887371e-05
1.17670202792e-05
1.17672855005e-05
1.17674566361e-05
1.17675154928e-05
1.17674551637e-05
1.17672826513e-05
1.17670162441e-05
1.17666838049e-05
1.17663259083e-05
1.17659453358e-05
1.17656720856e-05
1.17658482759e-05
1.17661450915e-05
1.17665444555e-05
1.17669115635e-05
1.17672497106e-05
1.17675193538e-05
1.17676929759e-05
1.17677526463e-05
1.17676916035e-05
1.17675167029e-05
1.17672459641e-05
1.17669070009e-05
1.17665394441e-05
1.17661400394e-05
1.17658435624e-05
1.17660592884e-05
1.17663891464e-05
1.17668103751e-05
1.17671894239e-05
1.17675350884e-05
1.17678093604e-05
1.17679853629e-05
1.17680457645e-05
1.17679840825e-05
1.17678068916e-05
1.17675316125e-05
1.17671852066e-05
1.17668057632e-05
1.17663845016e-05
1.17660549388e-05
1.17663125588e-05
1.17666843594e-05
1.17671284657e-05
1.17675196472e-05
1.17678719505e-05
1.17681495967e-05
1.17683269376e-05
1.17683876556e-05
1.17683257362e-05
1.17681472887e-05
1.17678687062e-05
1.17675157339e-05
1.17671242026e-05
1.17666800717e-05
1.17663085251e-05
1.17666025664e-05
1.17670255483e-05
1.17674926868e-05
1.17678946068e-05
1.17682515642e-05
1.17685305264e-05
1.17687076031e-05
1.17687680468e-05
1.17687064676e-05
1.17685283395e-05
1.17682485159e-05
1.17678909341e-05
1.17674887043e-05
1.1767021533e-05
1.17665987534e-05
1.1766973452e-05
1.17674565966e-05
1.17679244279e-05
1.17683224768e-05
1.17686728638e-05
1.17689443964e-05
1.17691156105e-05
1.17691738082e-05
1.17691145151e-05
1.17689423079e-05
1.17686699415e-05
1.17683189826e-05
1.17679206411e-05
1.17674527712e-05
1.17669697448e-05
1.17678199277e-05
1.17681403666e-05
1.17685101771e-05
1.17688364827e-05
1.17691290166e-05
1.17693556674e-05
1.17694981245e-05
1.17695464058e-05
1.17694970711e-05
1.17693536481e-05
1.17691262104e-05
1.17688331217e-05
1.17685065337e-05
1.1768136668e-05
1.17678162761e-05
1.13484966808e-05
1.13483703968e-05
1.13482138035e-05
1.1348033483e-05
1.13478645426e-05
1.13477269681e-05
1.13476374627e-05
1.13476059546e-05
1.13476362618e-05
1.13477246501e-05
1.13478612983e-05
1.13480295031e-05
1.13482092906e-05
1.13483659208e-05
1.13484924293e-05
1.13486934119e-05
1.1348578091e-05
1.13484304537e-05
1.13482570824e-05
1.13480931082e-05
1.13479586426e-05
1.1347870763e-05
1.13478397451e-05
1.13478695829e-05
1.13479563686e-05
1.13480899293e-05
1.13482531879e-05
1.13484260332e-05
1.13485736391e-05
1.13486891743e-05
1.13489916845e-05
1.13488907506e-05
1.13487576521e-05
1.13485950412e-05
1.13484392345e-05
1.13483101486e-05
1.13482253102e-05
1.13481952788e-05
1.13482241721e-05
1.13483079489e-05
1.1348436146e-05
1.13485912627e-05
1.13487534037e-05
1.13488864462e-05
1.13489876008e-05
1.13492287643e-05
1.1349133758e-05
1.13490092657e-05
1.13488519765e-05
1.13487000234e-05
1.13485732146e-05
1.13484895545e-05
1.13484598968e-05
1.13484884625e-05
1.13485711002e-05
1.13486970391e-05
1.13488483202e-05
1.13490051718e-05
1.13491296151e-05
1.13492248453e-05
1.1349399067e-05
1.13493039286e-05
1.13491836893e-05
1.13490280591e-05
1.13488772234e-05
1.1348750862e-05
1.13486673207e-05
1.13486376961e-05
1.13486662765e-05
1.1348748838e-05
1.13488743632e-05
1.13490245618e-05
1.13491797978e-05
1.13493000073e-05
1.13493953537e-05
1.13495239216e-05
1.13494261298e-05
1.13493086373e-05
1.13491536595e-05
1.13490034958e-05
1.13488775374e-05
1.13487942019e-05
1.13487646616e-05
1.13487932069e-05
1.1348875609e-05
1.13490007669e-05
1.13491503262e-05
1.1349304943e-05
1.13494224103e-05
1.13495204453e-05
1.13496171398e-05
1.13495166949e-05
1.13494026075e-05
1.13492493881e-05
1.13491012812e-05
1.1348977118e-05
1.13488949893e-05
1.13488659004e-05
1.13488940465e-05
1.13489752921e-05
1.13490987e-05
1.13492462464e-05
1.13493991518e-05
1.13495132217e-05
1.13496139173e-05
1.13496900726e-05
1.13495894439e-05
1.1349481326e-05
1.13493328142e-05
1.13491897366e-05
1.13490700034e-05
1.13489908767e-05
1.13489628785e-05
1.13489899869e-05
1.13490682823e-05
1.13491873066e-05
1.13493298637e-05
1.13494780997e-05
1.13495862148e-05
1.13496871065e-05
1.134975477e-05
1.13496586196e-05
1.13495605683e-05
1.13494212032e-05
1.13492873866e-05
1.13491756764e-05
1.13491019471e-05
1.13490758819e-05
1.13491011103e-05
1.13491740602e-05
1.13492851118e-05
1.13494184532e-05
1.13495575807e-05
1.1349655646e-05
1.13497520583e-05
1.13498232881e-05
1.13497379457e-05
1.13496548695e-05
1.13495298419e-05
1.13494101289e-05
1.13493104794e-05
1.1349244816e-05
1.13492216133e-05
1.13492440301e-05
1.13493089655e-05
1.13494080032e-05
1.1349527284e-05
1.13496521065e-05
1.13497352101e-05
1.13498208286e-05
1.13499062785e-05
1.13498387189e-05
1.13497753664e-05
1.13496697347e-05
1.13495688671e-05
1.13494852225e-05
1.13494302114e-05
1.13494107728e-05
1.13494294731e-05
1.13494838035e-05
1.13495668841e-05
1.13496673592e-05
1.13497728187e-05
1.13498362056e-05
1.13499040465e-05
1.13500103943e-05
1.134996724e-05
1.13499274394e-05
1.13498455544e-05
1.13497678075e-05
1.1349703734e-05
1.1349661721e-05
1.13496468495e-05
1.13496610252e-05
1.1349702401e-05
1.13497659483e-05
1.13498433454e-05
1.13499250831e-05
1.13499649298e-05
1.13500083687e-05
1.13501393268e-05
1.1350125498e-05
1.13501112273e-05
1.13500560387e-05
1.13500049137e-05
1.13499634604e-05
1.13499364022e-05
1.13499267902e-05
1.13499357416e-05
1.13499621915e-05
1.1350003165e-05
1.13500539611e-05
1.13501090329e-05
1.13501233507e-05
1.13501374603e-05
1.13503232328e-05
1.1350340224e-05
1.13503392165e-05
1.13503055266e-05
1.13502788809e-05
1.1350258694e-05
1.13502457986e-05
1.13502411259e-05
1.13502451595e-05
1.13502574849e-05
1.13502772024e-05
1.13503035641e-05
1.1350337141e-05
1.13503382059e-05
1.13503214662e-05
1.13507276669e-05
1.13506649662e-05
1.13506313889e-05
1.13505929469e-05
1.13505719091e-05
1.13505588866e-05
1.13505512836e-05
1.13505485686e-05
1.13505506765e-05
1.1350557729e-05
1.13505703251e-05
1.13505910839e-05
1.13506294429e-05
1.13506630709e-05
1.13507259582e-05
1.00576928451e-05
1.00577717849e-05
1.00578713008e-05
1.00579731316e-05
1.00580658514e-05
1.00581388678e-05
1.00581854017e-05
1.00582011432e-05
1.00581845594e-05
1.00581372179e-05
1.00580634501e-05
1.00579700726e-05
1.00578678101e-05
1.00577680752e-05
1.00576894828e-05
1.00578323676e-05
1.00579148669e-05
1.00580187545e-05
1.00581248366e-05
1.0058221693e-05
1.00582981676e-05
1.00583470247e-05
1.00583636179e-05
1.00583462538e-05
1.00582966494e-05
1.0058219463e-05
1.00581219607e-05
1.00580154159e-05
1.00579112801e-05
1.00578290213e-05
1.00579247537e-05
1.00580074867e-05
1.00581123848e-05
1.00582194625e-05
1.00583177806e-05
1.00583956453e-05
1.00584455135e-05
1.00584624803e-05
1.0058444752e-05
1.00583941497e-05
1.00583155955e-05
1.00582166716e-05
1.00581091614e-05
1.00580040625e-05
1.00579215104e-05
1.00580042886e-05
1.00580878936e-05
1.00581942442e-05
1.00583020909e-05
1.00584015025e-05
1.00584803912e-05
1.00585310068e-05
1.00585482542e-05
1.00585302701e-05
1.00584789447e-05
1.00583993897e-05
1.00582993952e-05
1.00581911349e-05
1.00580845983e-05
1.00580011885e-05
1.00580845349e-05
1.00581696995e-05
1.00582782214e-05
1.00583869214e-05
1.00584873033e-05
1.00585670215e-05
1.00586182166e-05
1.00586356817e-05
1.00586175097e-05
1.00585656341e-05
1.00584852839e-05
1.00583843557e-05
1.00582752793e-05
1.00581665789e-05
1.00580816016e-05
1.00581638549e-05
1.00582507662e-05
1.00583616961e-05
1.00584709532e-05
1.00585718891e-05
1.00586520419e-05
1.00587035388e-05
1.00587211254e-05
1.00587028737e-05
1.00586507345e-05
1.00585699818e-05
1.00584685249e-05
1.0058358905e-05
1.00582478204e-05
1.00581610819e-05
1.00582405947e-05
1.00583293847e-05
1.00584427655e-05
1.00585522563e-05
1.00586533103e-05
1.0058733497e-05
1.00587850084e-05
1.00588026113e-05
1.0058784381e-05
1.00587322655e-05
1.00586515176e-05
1.00585499824e-05
1.00584401598e-05
1.00583266456e-05
1.00582380127e-05
1.00583149311e-05
1.00584059842e-05
1.00585218705e-05
1.00586313347e-05
1.0058732129e-05
1.00588120168e-05
1.00588633103e-05
1.00588808471e-05
1.00588627221e-05
1.00588108619e-05
1.00587304477e-05
1.00586292047e-05
1.00585194362e-05
1.00584034358e-05
1.005831256e-05
1.00583878055e-05
1.00584817811e-05
1.00586002903e-05
1.00587095896e-05
1.00588098674e-05
1.0058889233e-05
1.00589401465e-05
1.00589575571e-05
1.00589395933e-05
1.00588881477e-05
1.00588082951e-05
1.00587076088e-05
1.00585980405e-05
1.00584794387e-05
1.00583856347e-05
1.00584606012e-05
1.00585586051e-05
1.0058679874e-05
1.00587889085e-05
1.00588884604e-05
1.00589671286e-05
1.00590175436e-05
1.00590347817e-05
1.00590170193e-05
1.00589661037e-05
1.00588869795e-05
1.00587870571e-05
1.00586777884e-05
1.00585564524e-05
1.00584586328e-05
1.00585352172e-05
1.00586387156e-05
1.0058762748e-05
1.00588713383e-05
1.00589699224e-05
1.00590477207e-05
1.0059097514e-05
1.00591145344e-05
1.00590970136e-05
1.0059046745e-05
1.00589685241e-05
1.00588696021e-05
1.00587608129e-05
1.00586367295e-05
1.00585334133e-05
1.00586128282e-05
1.00587236869e-05
1.00588503967e-05
1.00589583601e-05
1.00590558331e-05
1.00591326452e-05
1.00591817436e-05
1.00591985061e-05
1.0059181257e-05
1.0059131706e-05
1.00590544864e-05
1.00589567138e-05
1.00588485781e-05
1.00587218354e-05
1.00586111554e-05
1.00586940369e-05
1.00588143055e-05
1.00589435513e-05
1.00590508336e-05
1.00591473599e-05
1.00592233832e-05
1.00592718376e-05
1.00592883673e-05
1.0059271359e-05
1.00592224454e-05
1.005914605e-05
1.0059049226e-05
1.00589418065e-05
1.0058812534e-05
1.00586924326e-05
1.00588008056e-05
1.00589324892e-05
1.00590556409e-05
1.00591574294e-05
1.00592499603e-05
1.00593227855e-05
1.00593690768e-05
1.00593848007e-05
1.00593685823e-05
1.00593218465e-05
1.00592486247e-05
1.00591558361e-05
1.00590539063e-05
1.00589307487e-05
1.00587991887e-05
1.0059088981e-05
1.00591548196e-05
1.00592319141e-05
1.00593014145e-05
1.00593692157e-05
1.00594233064e-05
1.00594576978e-05
1.00594693394e-05
1.00594571984e-05
1.00594223413e-05
1.00593678735e-05
1.00592997996e-05
1.00592301836e-05
1.00591530715e-05
1.00590873283e-05
9.2422904643e-06
9.24226427048e-06
9.24223106412e-06
9.24219040579e-06
9.24215168714e-06
9.24211972183e-06
9.24209881727e-06
9.24209146819e-06
9.24209864379e-06
9.24211940436e-06
9.24215127458e-06
9.2421899754e-06
9.24223064754e-06
9.24226386484e-06
9.24228970354e-06
9.24238994293e-06
9.24236825354e-06
9.24233905159e-06
9.24230164992e-06
9.24226542822e-06
9.24223517249e-06
9.24221524698e-06
9.24220821512e-06
9.24221507735e-06
9.24223485903e-06
9.2422650158e-06
9.24230120928e-06
9.24233862071e-06
9.24236781516e-06
9.24238919375e-06
9.24250970843e-06
9.24249261243e-06
9.24246814232e-06
9.24243426538e-06
9.2424008038e-06
9.24237242559e-06
9.24235358371e-06
9.24234690952e-06
9.24235343248e-06
9.24237215016e-06
9.24240045058e-06
9.24243389562e-06
9.24246778974e-06
9.24249222492e-06
9.24250905514e-06
9.24260430264e-06
9.24258895702e-06
9.24256718324e-06
9.2425348577e-06
9.24250255326e-06
9.24247487215e-06
9.24245639237e-06
9.24244983292e-06
9.24245625346e-06
9.24247462184e-06
9.24250223974e-06
9.24253453846e-06
9.24256688495e-06
9.2425886237e-06
9.24260372367e-06
9.24267586325e-06
9.24266036537e-06
9.2426399063e-06
9.24260787312e-06
9.24257573429e-06
9.24254805662e-06
9.24252952807e-06
9.24252294799e-06
9.24252940128e-06
9.24254783067e-06
9.24257545595e-06
9.24260759757e-06
9.24263965438e-06
9.24266009726e-06
9.24267537999e-06
9.24273138728e-06
9.24271485729e-06
9.24269508976e-06
9.24266285931e-06
9.24263054685e-06
9.2426026819e-06
9.24258400797e-06
9.24257737793e-06
9.24258388751e-06
9.24260246803e-06
9.24263028743e-06
9.24266260947e-06
9.24269487214e-06
9.2427146261e-06
9.24273101182e-06
9.24277493658e-06
9.24275715194e-06
9.24273801503e-06
9.24270563298e-06
9.24267326893e-06
9.2426453893e-06
9.24262670957e-06
9.24262008357e-06
9.2426265956e-06
9.2426451874e-06
9.24267302642e-06
9.24270540397e-06
9.24273782917e-06
9.24275696399e-06
9.24277465738e-06
9.24280976966e-06
9.24279116895e-06
9.24277305491e-06
9.24274102138e-06
9.24270912747e-06
9.24268171956e-06
9.24266337386e-06
9.24265687353e-06
9.24266326342e-06
9.2426815246e-06
9.24270889547e-06
9.24274080711e-06
9.24277289189e-06
9.24279101649e-06
9.24280957445e-06
9.2428392114e-06
9.24282082754e-06
9.24280450566e-06
9.24277369173e-06
9.24274311041e-06
9.24271691495e-06
9.24269940945e-06
9.24269321356e-06
9.24269930083e-06
9.24271672347e-06
9.24274288179e-06
9.24277348198e-06
9.24280435305e-06
9.24282070141e-06
9.24283908527e-06
9.24286653567e-06
9.24284986801e-06
9.24283632417e-06
9.2428078187e-06
9.24277960087e-06
9.24275553454e-06
9.24273948755e-06
9.24273381537e-06
9.2427393792e-06
9.24275534239e-06
9.24277937214e-06
9.2428076076e-06
9.24283617301e-06
9.24284975173e-06
9.24286646521e-06
9.24289467406e-06
9.24288147998e-06
9.24287172726e-06
9.24284665973e-06
9.24282194076e-06
9.24280099613e-06
9.24278708407e-06
9.24278217126e-06
9.24278697162e-06
9.24280079715e-06
9.2428216997e-06
9.24284643449e-06
9.24287156273e-06
9.24288136097e-06
9.24289463784e-06
9.24292537374e-06
9.24291750693e-06
9.24291245376e-06
9.24289194732e-06
9.24287194584e-06
9.24285521811e-06
9.24284417455e-06
9.24284028092e-06
9.24284405436e-06
9.24285500018e-06
9.24287168375e-06
9.24289169359e-06
9.24291226023e-06
9.24291736942e-06
9.24292536115e-06
9.24295959349e-06
9.24295867441e-06
9.24295893711e-06
9.24294398464e-06
9.24293005606e-06
9.24291875661e-06
9.24291140834e-06
9.24290881041e-06
9.24291127062e-06
9.24291851546e-06
9.24292975119e-06
9.2429436865e-06
9.24295869662e-06
9.24295850152e-06
9.24295958622e-06
9.24301072266e-06
9.24301766048e-06
9.24301817697e-06
9.24300672084e-06
9.24299814178e-06
9.24299193438e-06
9.242988061e-06
9.24298669365e-06
9.24298790519e-06
9.24299164826e-06
9.24299778657e-06
9.24300635603e-06
9.24301786913e-06
9.24301742865e-06
9.24301067731e-06
9.24316127467e-06
9.24312777414e-06
9.24310724244e-06
9.24308639583e-06
9.24307378586e-06
9.24306561403e-06
9.24306082674e-06
9.24305918389e-06
9.24306064985e-06
9.24306529595e-06
9.24307337994e-06
9.24308597396e-06
9.24310688624e-06
9.24312751476e-06
9.24316117356e-06
8.25840353753e-06
8.25841788592e-06
8.25843725605e-06
8.25845598581e-06
8.25847296369e-06
8.25848611367e-06
8.25849434024e-06
8.25849690083e-06
8.25849356174e-06
8.25848457544e-06
8.25847071514e-06
8.25845310381e-06
8.25843390826e-06
8.25841425534e-06
8.25840010318e-06
8.25846761925e-06
8.25848433297e-06
8.25850614698e-06
8.25852709302e-06
8.25854605613e-06
8.25856076548e-06
8.25856999368e-06
8.25857291089e-06
8.25856924848e-06
8.25855929616e-06
8.2585439137e-06
8.25852434916e-06
8.25850294414e-06
8.25848083895e-06
8.25846421495e-06
8.25853109092e-06
8.25854989347e-06
8.25857401288e-06
8.2585968291e-06
8.25861748807e-06
8.25863350316e-06
8.25864356952e-06
8.25864677985e-06
8.25864283703e-06
8.25863205908e-06
8.25861538248e-06
8.25859414565e-06
8.25857089526e-06
8.25854653106e-06
8.2585277863e-06
8.25858577824e-06
8.25860614378e-06
8.25863214667e-06
8.25865627798e-06
8.25867813621e-06
8.25869507422e-06
8.25870573465e-06
8.25870915573e-06
8.25870501932e-06
8.25869366351e-06
8.25867607814e-06
8.25865365658e-06
8.25862910861e-06
8.25860287468e-06
8.25858259775e-06
8.25863471083e-06
8.25865626161e-06