/*--------------------------------*- C++ -*----------------------------------*\
  =========                 |
  \\      /  F ield         | OpenFOAM: The Open Source CFD Toolbox
   \\    /   O peration     | Website:  https://openfoam.org
    \\  /    A nd           | Version:  7
     \\/     M anipulation  |
\*---------------------------------------------------------------------------*/
FoamFile
{
    version     2.0;
    format      ascii;
    class       surfaceScalarField;
    location    "0.34";
    object      phi;
}
// * * * * * * * * * * * * * * * * * * * * * * * * * * * * * * * * * * * * * //

dimensions      [0 3 -1 0 0 0 0];

internalField   nonuniform List<scalar> 
65775
(
2.89829324749e-11
4.71256366688e-09
7.99359449081e-10
8.69878811483e-15
4.23646808174e-11
4.92994029186e-09
8.84494269616e-10
4.96474447918e-11
5.11328198042e-09
9.65324711749e-10
4.83947566718e-11
5.27147501144e-09
1.03788966598e-09
4.0221619077e-11
5.3971077793e-09
1.09853479485e-09
2.64920305017e-11
5.48886089134e-09
1.14426725321e-09
9.2506809556e-12
5.54649088557e-09
1.17312604056e-09
-9.23500042419e-12
5.56838226859e-09
1.18349570007e-09
-2.64770704693e-11
5.54648590933e-09
1.17312657509e-09
-4.02080169418e-11
5.48885135501e-09
1.14426826954e-09
-4.83835745827e-11
5.39709423233e-09
1.09853620111e-09
-4.96400097647e-11
5.27145877815e-09
1.03789129133e-09
-4.23627348354e-11
5.11326459127e-09
9.65326314836e-10
-2.89855130643e-11
4.92992490044e-09
8.84495709798e-10
4.71255306301e-09
7.99361236735e-10
4.25565774696e-15
7.53615756498e-11
7.94610016195e-09
1.96994094126e-09
-2.40120861425e-14
1.22973692424e-10
8.27759381279e-09
2.16936710058e-09
1.4466572909e-10
8.55575779932e-09
2.3569272347e-09
1.42232705766e-10
8.7913649321e-09
2.52402786775e-09
1.18471774162e-10
8.97719955707e-09
2.66279166189e-09
7.81150395997e-11
9.11192446839e-09
2.76693748062e-09
2.72230441227e-11
9.19645710193e-09
2.83247362379e-09
-2.72545363934e-11
9.22883224643e-09
2.85600799748e-09
-7.81446056064e-11
9.19644017883e-09
2.83247599856e-09
-1.18497007117e-10
9.11189129983e-09
2.7669419498e-09
-1.42251087398e-10
8.97715137446e-09
2.66279780306e-09
-1.44675726048e-10
8.79130552413e-09
2.52403496603e-09
-1.22974979869e-10
8.555693029e-09
2.35693434084e-09
-7.53540715421e-11
8.2775343943e-09
2.1693735389e-09
7.94605690485e-09
1.96994749569e-09
-1.01589824825e-14
1.12976774099e-10
1.00329459423e-08
2.81686953939e-09
8.07674097308e-15
1.88363193488e-10
1.04076027824e-08
3.09603539955e-09
2.21434038748e-10
1.07222427941e-08
3.35672552315e-09
2.17554501121e-10
1.09823872164e-08
3.58769670802e-09
1.80976313874e-10
1.11859154005e-08
3.77862210843e-09
1.19213284432e-10
1.13321440654e-08
3.92141993439e-09
4.15373276715e-11
1.1423783545e-08
4.01105812499e-09
-4.15067623134e-11
1.14592438843e-08
4.04319133185e-09
-1.19184939374e-10
1.14237594482e-08
4.01106065524e-09
-1.80952120816e-10
1.13320969275e-08
3.92142472629e-09
-2.17536315175e-10
1.11858472607e-08
3.77862873007e-09
-2.21423693383e-10
1.09823031792e-08
3.58770438117e-09
-1.88361413773e-10
1.07221509954e-08
3.35673315969e-09
-1.12980567425e-10
1.04075163471e-08
3.09604222944e-09
1.00328783476e-08
2.81687666952e-09
3.27864300106e-15
1.4455491797e-10
1.12207481979e-08
3.42220347027e-09
2.53008683505e-14
2.41495279092e-10
1.15914875534e-08
3.75740364392e-09
2.83740299757e-10
1.19032480043e-08
4.06821752679e-09
2.78209505152e-10
1.21540302135e-08
4.34208172256e-09
2.31043759515e-10
1.23480388882e-08
4.5674393805e-09
1.51996112722e-10
1.24858932765e-08
4.73540720523e-09
5.29258623959e-11
1.25721493082e-08
4.84057401331e-09
-5.28633393365e-11
1.26059767372e-08
4.87819393964e-09
-1.51938129408e-10
1.25721212396e-08
4.84057655713e-09
-2.30994626932e-10
1.24858384278e-08
4.73541208833e-09
-2.78173283592e-10
1.2347959991e-08
4.5674461532e-09
-2.83720204999e-10
1.21539329901e-08
4.34208956143e-09
-2.4149222682e-10
1.19031412376e-08
4.06822525924e-09
-1.44564520575e-10
1.15913844805e-08
3.75741038808e-09
1.12206615866e-08
3.42221034621e-09
1.05103514181e-14
1.7030749097e-10
1.17132384809e-08
3.82963760959e-09
3.57785475555e-14
2.84102048531e-10
1.20501899909e-08
4.20252988765e-09
3.33650018138e-10
1.23345749206e-08
4.54577950574e-09
3.26569482301e-10
1.25561818599e-08
4.84647755342e-09
2.70805727473e-10
1.27250832092e-08
5.09275406494e-09
1.77947488235e-10
1.28434410754e-08
5.27565153141e-09
6.19226860113e-11
1.29173551291e-08
5.38984949127e-09
-6.18421578204e-11
1.29468589655e-08
5.43059888614e-09
-1.77872947829e-10
1.2917325403e-08
5.38985195157e-09
-2.70742880203e-10
1.2843383092e-08
5.27565623788e-09
-3.26523526839e-10
1.27250000578e-08
5.09276056138e-09
-3.33624721145e-10
1.25560793744e-08
4.84648501646e-09
-2.84098201759e-10
1.23344614722e-08
4.54578675711e-09
-1.70320101335e-10
1.20500778768e-08
4.20253598486e-09
1.1713138373e-08
3.82964357423e-09
1.51738878034e-14
1.91120258163e-10
1.16790027791e-08
4.07342938275e-09
4.25805919913e-14
3.17796811347e-10
1.19654976479e-08
4.46984128779e-09
3.72903275169e-10
1.22092922974e-08
4.83201733245e-09
3.64377732625e-10
1.2392218453e-08
5.14739270832e-09
3.01749566863e-10
1.25289417943e-08
5.40444194226e-09
1.98073646295e-10
1.26230600601e-08
5.59463061126e-09
6.88857736349e-11
1.26817031636e-08
5.71303156693e-09
-6.87953392762e-11
1.27056773952e-08
5.75515790885e-09
-1.97990078811e-10
1.26816736973e-08
5.71303380146e-09
-3.01679377123e-10
1.26230026073e-08
5.59463486631e-09
-3.6432663089e-10
1.25288595053e-08
5.40444777763e-09
-3.7287517245e-10
1.23921167582e-08
5.14739934281e-09
-3.17792230413e-10
1.22091786362e-08
4.83202364348e-09
-1.91134182584e-10
1.19653823428e-08
4.46984634914e-09
1.16788942053e-08
4.07343412117e-09
1.84785123818e-14
2.07951129987e-10
1.12570511465e-08
4.18219535596e-09
4.71476021424e-14
3.44139670662e-10
1.14864814851e-08
4.59145169606e-09
4.03210650629e-10
1.16846857727e-08
4.96256396518e-09
3.93302832316e-10
1.18266230146e-08
5.28376231973e-09
3.25273339462e-10
1.19299897898e-08
5.54429176854e-09
2.13307831096e-10
1.1999492181e-08
5.7363397559e-09
7.41437575832e-11
1.20426894219e-08
5.8555308235e-09
-7.40488399963e-11
1.20609513042e-08
5.89779287673e-09
-2.13220236335e-10
1.20426616968e-08
5.85553273844e-09
-3.25199935884e-10
1.19994380926e-08
5.73634338274e-09
-3.93249462827e-10
1.19299122441e-08
5.54429670291e-09
-4.03181132738e-10
1.18265266826e-08
5.28376785214e-09
-3.44134366989e-10
1.16845767419e-08
4.96256907008e-09
-2.07965234261e-10
1.14863679653e-08
4.5914555262e-09
1.12569386898e-08
4.1821987854e-09
2.11412224392e-14
2.21468377682e-10
1.05610968011e-08
4.18056337404e-09
5.0192089144e-14
3.64402611329e-10
1.07340154129e-08
4.59495501212e-09
4.26089752834e-10
1.08872326965e-08
4.96798204665e-09
4.14872206556e-10
1.09905330524e-08
5.28892227208e-09
3.42672632407e-10
1.1063114152e-08
5.54802372379e-09
2.2451680246e-10
1.11103532809e-08
5.73833402563e-09
7.80012810197e-11
1.11396448148e-08
5.85607464614e-09
-7.79058032479e-11
1.11526582162e-08
5.89765349187e-09
-2.24428755543e-10
1.11396199362e-08
5.85607619813e-09
-3.4259889829e-10
1.11103046698e-08
5.7383369462e-09
-4.14818510176e-10
1.10630441807e-08
5.54802765713e-09
-4.26059692747e-10
1.09904454271e-08
5.28892659659e-09
-3.64396462679e-10
1.08871319219e-08
4.9679858564e-09
-2.2148183452e-10
1.07339075308e-08
4.59495758401e-09
1.05609846542e-08
4.18056556108e-09
2.34274680624e-14
2.32137809631e-10
9.68305231635e-09
4.08986783869e-09
5.22464016826e-14
3.79625604127e-10
9.80460942302e-09
4.50414084228e-09
4.42885551456e-10
9.91689060189e-09
4.87448628441e-09
4.30484130529e-10
9.98657849005e-09
5.19132676385e-09
3.55147121283e-10
1.00330407671e-08
5.4459973114e-09
2.32504034006e-10
1.00618425299e-08
5.6324262359e-09
8.07404284406e-11
1.00796857542e-08
5.74739877156e-09
-8.06472843216e-11
1.00882710698e-08
5.78780734796e-09
-2.32418138591e-10
1.00796644694e-08
5.74739995762e-09
-3.55075121941e-10
1.00618007908e-08
5.63242844962e-09
-4.30431443824e-10
1.00329802804e-08
5.44600025134e-09
-4.42855536063e-10
9.98650179136e-09
5.19132990189e-09
-3.7961853054e-10
9.91680062567e-09
4.87448884351e-09
-2.32150031012e-10
9.80451006988e-09
4.50414225063e-09
9.68294398347e-09
4.08986894008e-09
2.55706337714e-14
2.4030824078e-10
8.69613226856e-09
3.92845759688e-09
5.36944548617e-14
3.9069379559e-10
8.7739367544e-09
4.33930960428e-09
4.54831836248e-10
8.85107810963e-09
4.70426708597e-09
4.4145519143e-10
8.89340145189e-09
5.01488081011e-09
3.63831008241e-10
8.91933689793e-09
5.2635537102e-09
2.38025746532e-10
8.93411430633e-09
5.44503918211e-09
8.26256905376e-11
8.94331627623e-09
5.55660740658e-09
-8.25370286282e-11
8.94844201297e-09
5.59560352898e-09
-2.37943922436e-10
8.94329898611e-09
5.55660824955e-09
-3.63762239767e-10
8.93408019358e-09
5.44504073716e-09
-4.41404484645e-10
8.91928691565e-09
5.26355573139e-09
-4.54802278642e-10
8.89333696739e-09
5.01488286255e-09
-3.90685750884e-10
8.85100047628e-09
4.70426852383e-09
-2.40318806944e-10
8.77384794612e-09
4.33931001962e-09
8.69603062189e-09
3.92845781922e-09
2.77866987277e-14
2.46225111338e-10
7.65775231366e-09
3.71188578698e-09
5.49195539591e-14
3.98400281679e-10
7.70009278362e-09
4.11749137822e-09
4.63127780242e-10
7.74838449704e-09
4.47574754338e-09
4.49071382475e-10
7.76990196205e-09
4.77923964336e-09
3.69814318944e-10
7.78110101301e-09
5.02135751132e-09
2.417960928e-10
7.78628737961e-09
5.19758436484e-09
8.39043325538e-11
7.78962996164e-09
5.30557776835e-09
-8.38217386287e-11
7.79227237116e-09
5.34308684832e-09
-2.41719751623e-10
7.78961677494e-09
5.3055783037e-09
-3.69749879899e-10
7.78626112014e-09
5.19758533295e-09
-4.49023369935e-10
7.7810618836e-09
5.02135872104e-09
-4.6309903766e-10
7.76985017222e-09
4.77924075127e-09
-3.98391313324e-10
7.74831996026e-09
4.47574803465e-09
-2.46233754365e-10
7.70001575839e-09
4.11749101164e-09
7.657659347e-09
3.71188536346e-09
3.03156246341e-14
2.50035071506e-10
6.61223546998e-09
3.45309758855e-09
5.61580821832e-14
4.03626475804e-10
6.62643390959e-09
3.8526903953e-09
4.69115376881e-10
6.65197157316e-09
4.20389448873e-09
4.54669936029e-10
6.65919951324e-09
4.50018850899e-09
3.74155848553e-10
6.66127672221e-09
4.73584209047e-09
2.44477341932e-10
6.66097593377e-09
4.90696264802e-09
8.48005811702e-11
6.66097016952e-09
5.01149820879e-09
-8.47252240535e-11
6.6620188572e-09
5.04754967033e-09
-2.44407507512e-10
6.66096098077e-09
5.01149847674e-09
-3.74096541696e-10
6.66095728684e-09
4.90696310978e-09
-4.54625152484e-10
6.66124819201e-09
4.73584260893e-09
-4.69087721801e-10
6.65916026366e-09
4.50018883114e-09
-4.0361662994e-10
6.65192021416e-09
4.20389422921e-09
-2.50041616201e-10
6.62636921022e-09
3.85268947393e-09
6.6121527591e-09
3.45309676591e-09
3.35180763111e-14
2.5211335594e-10
5.5929697221e-09
3.16265289378e-09
5.77955748542e-14
4.07927331566e-10
5.5838526709e-09
3.5561907325e-09
4.7455567802e-10
5.59289713388e-09
3.90060584924e-09
4.59635683866e-10
5.59240900917e-09
4.19010814798e-09
3.77783160416e-10
5.59052307693e-09
4.41974910892e-09
2.46595135161e-10
5.58820483773e-09
4.58616565705e-09
8.54846106266e-11
5.58689310532e-09
4.68751102785e-09
-8.54173136092e-11
5.58708097773e-09
4.72218970712e-09
-2.46532550127e-10
5.58688754648e-09
4.68751107343e-09
-3.77729504883e-10
5.58819322066e-09
4.58616570232e-09
-4.59594440535e-10
5.59050441523e-09
4.41974907034e-09
-4.74529235216e-10
5.59238163495e-09
4.19010786188e-09
-4.07916580295e-10
5.59285847074e-09
3.9006050535e-09
-2.52117511286e-10
5.58380020151e-09
3.55618948575e-09
5.59289781399e-09
3.16265190646e-09
3.79587411531e-14
2.54612458693e-10
4.62275792874e-09
2.84898388272e-09
6.05168691029e-14
4.14422453538e-10
4.59333575803e-09
3.23693110067e-09
4.8139154486e-10
4.59412208764e-09
3.57515514165e-09
4.64803764646e-10
4.59226463243e-09
3.85848721921e-09
3.8099290931e-10
4.59040437047e-09
4.08271209075e-09
2.48243838064e-10
4.58847460623e-09
4.24491953818e-09
8.59781330224e-11
4.58724848172e-09
4.34339607936e-09
-8.59194327985e-11
4.58709970841e-09
4.3768079184e-09
-2.48188898874e-10
4.58724598748e-09
4.34339595812e-09
-3.80945116531e-10
4.58846893676e-09
4.24491927716e-09
-4.6476603847e-10
4.59039420052e-09
4.08271165901e-09
-4.81366175274e-10
4.59224776158e-09
3.8584865415e-09
-4.1441064304e-10
4.59409524643e-09
3.57515406723e-09
-2.54614079832e-10
4.59329495591e-09
3.23692977087e-09
4.62269605844e-09
2.84898291982e-09
4.43604453352e-14
2.7008324598e-10
2.5192394913e-09
6.49358094476e-14
3.70470208346e-09
4.306198885e-10
2.9024523583e-09
3.67337208318e-09
4.92596694752e-10
3.23497727597e-09
3.67570714574e-09
4.71134005019e-10
3.51263238097e-09
3.67620752314e-09
3.84065375165e-10
3.7319112566e-09
3.67598399937e-09
2.49495114191e-10
3.8902953861e-09
3.67542395066e-09
8.62931656081e-11
3.98615183226e-09
3.67494638493e-09
-8.62428252107e-11
4.01837963762e-09
3.67476483982e-09
-2.49447569046e-10
3.98615160538e-09
3.67494615275e-09
-3.84023124216e-10
3.89029494041e-09
3.67542278147e-09
-4.71099369147e-10
3.73191061277e-09
3.67598047651e-09
-4.92571823029e-10
3.51263155542e-09
3.67619935533e-09
-4.30606561767e-10
3.23497621667e-09
3.67569060644e-09
-2.70082222484e-10
2.9024513405e-09
3.6733421955e-09
2.51923854834e-09
5.41583875007e-14
3.70464821423e-09
-8.94185789576e-12
3.38445912552e-10
4.69875672561e-10
-5.04001721159e-15
-1.14662879248e-11
3.69998330361e-10
5.17044641811e-10
-1.22125194547e-11
4.04654450549e-10
5.6144178286e-10
-1.15539336735e-11
4.36106642413e-10
6.01147587216e-10
-9.49193649281e-12
4.62266119197e-10
6.34224865553e-10
-6.24749050483e-12
4.81927590967e-10
6.59109523239e-10
-2.19008624667e-12
4.94283547843e-10
6.74797605857e-10
2.15864695964e-12
4.98709864055e-10
6.80448852984e-10
6.21861114231e-12
4.94279827871e-10
6.74798000832e-10
9.4679272365e-12
4.81919458467e-10
6.5911028692e-10
1.15360691934e-11
4.62252482699e-10
6.34225924388e-10
1.22004302403e-11
4.36088151675e-10
6.01148817432e-10
1.14590599144e-11
4.0463437834e-10
5.61443025375e-10
8.93774100644e-12
3.69980549249e-10
5.17045852896e-10
3.38436482753e-10
4.69877546465e-10
-6.15324296728e-15
-1.39503995028e-11
9.66212766423e-10
1.35614335661e-09
9.01942564408e-15
-1.80220254593e-11
1.04787149497e-09
1.49560351967e-09
-1.86670575212e-11
1.13526633001e-09
1.62700035406e-09
-1.72122627912e-11
1.21417385028e-09
1.74454123934e-09
-1.38939223106e-11
1.27927320343e-09
1.84249435545e-09
-9.04554031951e-12
1.32782798852e-09
1.91621161474e-09
-3.15399504899e-12
1.3582265458e-09
1.96265941713e-09
3.12545295497e-12
1.36913041986e-09
1.97932705643e-09
9.01888047143e-12
1.35822015426e-09
1.96266041376e-09
1.38702542308e-11
1.3278138438e-09
1.9162135701e-09
1.71910768763e-11
1.27924905556e-09
1.84249709119e-09
1.86467038043e-11
1.21413914478e-09
1.74454443372e-09
1.80008015651e-11
1.13522656722e-09
1.62700356858e-09
1.39292163802e-11
1.04783377202e-09
1.49560665216e-09
9.66188819389e-10
1.35614784112e-09
-9.7469684659e-15
-1.05285955213e-11
1.66977018378e-09
2.12385903259e-09
7.96804193828e-15
-1.26444135405e-11
1.80033025959e-09
2.34572661623e-09
-1.19291016534e-11
1.93699088847e-09
2.55432183733e-09
-1.01433465548e-11
2.05957160574e-09
2.74054492021e-09
-7.73318063312e-12
2.16002823797e-09
2.89548245984e-09
-4.87130555248e-12
2.23446827232e-09
3.01193894069e-09
-1.69065582987e-12
2.2809105508e-09
3.08521236768e-09
1.6422327316e-12
2.29757702355e-09
3.11142955287e-09
4.82666387222e-12
2.28089918367e-09
3.0852140589e-09
7.69497071559e-12
2.23444419516e-09
3.01194220251e-09
1.01117195372e-11
2.15998957152e-09
2.89548694846e-09
1.19015215785e-11
2.05951860026e-09
2.74055005662e-09
1.26177714414e-11
1.93693097144e-09
2.55432686987e-09
1.0502335296e-11
1.8002738051e-09
2.34573125521e-09
1.66973130004e-09
2.12386510406e-09
-1.59758316542e-14
-1.59923993867e-12
2.33522498631e-09
2.758359599e-09
1.31959146212e-14
9.22373636625e-13
2.50539333527e-09
3.049850039e-09
3.85981782759e-12
2.67944517033e-09
3.32285814964e-09
5.52099602723e-12
2.83422856061e-09
3.56579185887e-09
5.4692905281e-12
2.96017344963e-09
3.76736915835e-09
3.91176829339e-12
3.05289085675e-09
3.91856183085e-09
1.38242166014e-12
3.11052741446e-09
4.01350421819e-09
-1.42844290579e-12
3.1312203308e-09
4.04737808443e-09
-3.95433788701e-12
3.11051093306e-09
4.01350645503e-09
-5.50614488514e-12
3.05285709195e-09
3.91856604712e-09
-5.55246209919e-12
2.96012162318e-09
3.76737487154e-09
-3.88905798784e-12
2.83416039677e-09
3.56579828378e-09
-9.52837406793e-13
2.67936909004e-09
3.32286428255e-09
1.5669794652e-12
2.5053215592e-09
3.04985536189e-09
2.33517210929e-09
2.75836598047e-09
-1.7986546946e-14
1.08961705737e-11
2.89303155217e-09
3.26093795552e-09
1.97112594258e-14
1.96973910217e-11
3.09035611438e-09
3.60879374739e-09
2.53713749576e-11
3.28665743295e-09
3.93292161114e-09
2.65075150908e-11
3.45949206141e-09
4.22010295372e-09
2.29454190128e-11
3.59896175955e-09
4.45754880334e-09
1.54498446681e-11
3.70090943875e-09
4.6351465545e-09
5.40844014746e-12
3.76403431537e-09
4.7464003344e-09
-5.44484093906e-12
3.78671003512e-09
4.78597778892e-09
-1.54839084553e-11
3.76401369825e-09
4.746402795e-09
-2.29758997766e-11
3.70086804441e-09
4.63515117938e-09
-2.65354329659e-11
3.59890004263e-09
4.4575550215e-09
-2.54001752507e-11
3.45941315047e-09
4.22010984803e-09
-1.97303366634e-11
3.28657027036e-09
3.9329280078e-09
-1.09334210792e-11
3.09027319868e-09
3.60879894335e-09
2.8929672745e-09
3.2609436957e-09
-1.80627000157e-14
2.52692246735e-11
3.30637411321e-09
3.63481298828e-09
2.59697200849e-14
4.12952561784e-11
3.51820159509e-09
4.025994373e-09
4.99533001872e-11
3.72179428365e-09
4.38824746213e-09
5.0264003007e-11
3.89903385628e-09
4.70756259686e-09
4.25735265841e-11
4.04064970311e-09
4.97046359364e-09
2.83391329373e-11
4.14334236633e-09
5.16644882655e-09
9.89492361753e-12
4.2066461715e-09
5.28887921051e-09
-9.9199564387e-12
4.22940042502e-09
5.33229673129e-09
-2.83631797828e-11
4.20662267341e-09
5.28888164919e-09
-4.25964883387e-11
4.1432958065e-09
5.16645339333e-09
-5.02875302274e-11
4.04058165954e-09
4.97046968083e-09
-4.99808209585e-11
3.89894854438e-09
4.70756923446e-09
-4.13296333068e-11
3.72170073631e-09
4.38825340059e-09
-2.53100303002e-11
3.5181117355e-09
4.02599880538e-09
3.30630092121e-09
3.63481752279e-09
-1.72285374981e-14
4.01367391116e-11
3.56233024968e-09
3.88609073971e-09
3.13362614309e-14
6.38191333788e-11
3.77746986031e-09
4.30852248531e-09
7.55089434535e-11
3.97567232938e-09
4.69701808403e-09
7.4805691164e-11
4.14601284706e-09
5.03750637243e-09
6.27295682327e-11
4.28050622231e-09
5.31652861459e-09
4.15177202233e-11
4.37713987633e-09
5.52376942373e-09
1.4472006724e-11
4.43640375965e-09
5.65283306305e-09
-1.44866004461e-11
4.45771951099e-09
5.69844567135e-09
-4.15326131082e-11
4.43637874665e-09
5.65283527632e-09
-6.27456900665e-11
4.37709076105e-09
5.52377354887e-09
-7.48251833589e-11
4.28043537253e-09
5.31653405623e-09
-7.55350395847e-11
4.1459251684e-09
5.03751217999e-09
-6.38542514592e-11
3.97557648958e-09
4.69702302104e-09
-4.01799068676e-11
3.77737694208e-09
4.30852573287e-09
3.56225088894e-09
3.8860937937e-09
-1.58826054664e-14
5.44639291654e-11
3.66476878583e-09
4.02364300545e-09
3.55020911473e-14
8.58328792398e-11
3.87428788795e-09
4.46678683225e-09
1.00462867495e-10
4.05769930687e-09
4.87134426117e-09
9.86690995172e-11
4.21298896765e-09
5.22375750526e-09
8.2240008179e-11
4.33384589788e-09
5.51112880366e-09
5.42301650841e-11
4.4197490353e-09
5.72374886743e-09
1.88788587748e-11
4.47211579313e-09
5.85572705055e-09
-1.88853739002e-11
4.49096028633e-09
5.90218932662e-09
-5.42380460903e-11
4.47209047491e-09
5.8557288911e-09
-8.22509994493e-11
4.41969962803e-09
5.72375227572e-09
-9.86856436614e-11
4.33377524689e-09
5.51113323676e-09
-1.00487913093e-10
4.21290228842e-09
5.223762091e-09
-8.58683379638e-11
4.05760466868e-09
4.87134784982e-09
-5.45085680795e-11
3.87419505414e-09
4.46678867468e-09
3.66468626852e-09
4.02364450794e-09
-1.44933197387e-14
6.75404134169e-11
3.62860924886e-09
4.05846443612e-09
3.84774417599e-14
1.06304994701e-10
3.82603329191e-09
4.51364717043e-09
1.23698559786e-10
3.98871421419e-09
4.92609442964e-09
1.20846920238e-10
4.12402253693e-09
5.28316034326e-09
1.00322860583e-10
4.22750551321e-09
5.57287581579e-09
6.59856604552e-11
4.30012737034e-09
5.7863980343e-09
2.29483487557e-11
4.34408323442e-09
5.91848074137e-09
-2.29498538054e-11
4.35990246869e-09
5.96477482275e-09
-6.59893047302e-11
4.34405866791e-09
5.91848211835e-09
-1.00330943912e-10
4.30007960931e-09
5.78640055797e-09
-1.20862010462e-10
4.22743758195e-09
5.57287902516e-09
-1.2372328226e-10
4.12393955141e-09
5.28316348791e-09
-1.06340814986e-10
3.98862350283e-09
4.92609650293e-09
-6.75859152266e-11
3.82594312691e-09
4.513647555e-09
3.62852586429e-09
4.05846445721e-09
-1.33921155952e-14
7.89445627977e-11
3.47526146436e-09
4.00283487202e-09
4.02890742651e-14
1.24561346282e-10
3.65639994862e-09
4.46334020866e-09
1.44504866116e-10
3.79549211282e-09
4.87756002289e-09
1.40732274811e-10
3.90870582233e-09
5.23398374288e-09
1.16536061835e-10
3.99349430319e-09
5.52177379392e-09
7.65206740508e-11
4.05211918479e-09
5.7330745648e-09
2.65932907975e-11
4.08730725331e-09
5.86332194442e-09
-2.65930362555e-11
4.0999607056e-09
5.90874221581e-09
-7.65230362871e-11
4.08728423473e-09
5.86332281477e-09
-1.16543640384e-10
4.05207451899e-09
5.73307612652e-09
-1.40747617988e-10
3.9934309398e-09
5.52177568742e-09
-1.44530235516e-10
3.90862854224e-09
5.23398536894e-09
-1.24597821109e-10
3.79540733294e-09
4.87756055807e-09
-7.89906879461e-11
3.65631438191e-09
4.46333920889e-09
3.47517933007e-09
4.00283357772e-09
-1.2816662717e-14
8.84978280058e-11
3.2291395636e-09
3.86948174647e-09
4.12017331086e-14
1.40247396058e-10
3.39169700325e-09
4.33045679908e-09
1.62545766973e-10
3.50671525342e-09
4.74223841241e-09
1.5809009859e-10
3.59789898321e-09
5.09451408807e-09
1.30747077048e-10
3.66456084535e-09
5.37764528193e-09
8.5774261194e-11
3.70990737595e-09
5.58477974034e-09
2.97968222323e-11
3.73687063191e-09
5.71200204273e-09
-2.97978746758e-11
3.74654075597e-09
5.75611129905e-09
-8.57781429098e-11
3.73684973234e-09
5.71200240029e-09
-1.30756464032e-10
3.70986685807e-09
5.58478033234e-09
-1.58107394997e-10
3.66450335737e-09
5.37764586133e-09
-1.62572884294e-10
3.59782873408e-09
5.09451422531e-09
-1.40285085776e-10
3.506637663e-09
4.74223749378e-09
-8.85446237656e-11
3.39161730925e-09
4.33045457727e-09
3.22906005275e-09
3.8694793684e-09
-1.29507871248e-14
9.62055485314e-11
2.91514796466e-09
3.67085392646e-09
4.14344953027e-14
1.5331440193e-10
3.05818582611e-09
4.12910308311e-09
1.77884610697e-10
3.15017070926e-09
4.53587944435e-09
1.73078926009e-10
3.22091426809e-09
4.88198932611e-09
1.43135606722e-10
3.27138558384e-09
5.15897069322e-09
9.38805840659e-11
3.30520513436e-09
5.36092948876e-09
3.26081039538e-11
3.32512463161e-09
5.48452598444e-09
-3.26130593316e-11
3.33222282363e-09
5.52709758679e-09
-9.38883573753e-11
3.32510625075e-09
5.4845258529e-09
-1.43148807687e-10
3.30516940138e-09
5.36092915934e-09
-1.73099711135e-10
3.27133478897e-09
5.15897003543e-09
-1.77914556702e-10
3.22085182569e-09
4.8819880885e-09
-1.53353965654e-10
3.15010098867e-09
4.53587723668e-09
-9.62533759299e-11
3.05811263315e-09
4.12909986206e-09
2.9150723231e-09
3.67085074221e-09
-1.37747069774e-14
1.02261556823e-10
2.55694818413e-09
3.4185602409e-09
4.14059227794e-14
1.64179177057e-10
2.6801529856e-09
3.87231488289e-09
1.91181623092e-10
2.75093052089e-09
4.2728527656e-09
1.86386234298e-10
2.80391537831e-09
4.6119113967e-09
1.54257510091e-10
2.84110896551e-09
4.88216326595e-09
1.01190751779e-10
2.86583641447e-09
5.07860976418e-09
3.51465187217e-11
2.88028883672e-09
5.19839925194e-09
-3.51572340165e-11
2.88536747179e-09
5.23935690826e-09
-1.01204155723e-10
2.88027313915e-09
5.19839868553e-09
-1.54275949776e-10
2.86580587004e-09
5.0786086192e-09
-1.86411652553e-10
2.84106527719e-09
4.88216152454e-09
-1.91215247949e-10
2.80386117101e-09
4.61190898257e-09
-1.64221251973e-10
2.75086885734e-09
4.2728495096e-09
-1.02310763641e-10
2.68008647549e-09
3.87231093203e-09
2.55687707423e-09
3.41855655089e-09
-1.49398621468e-14
1.06869121402e-10
2.1760433753e-09
3.12298790162e-09
4.15512092303e-14
1.73734061407e-10
2.27844693491e-09
3.57177995049e-09
2.03744076377e-10
2.33025233505e-09
3.96583112647e-09
1.99221209152e-10
2.36923968051e-09
4.29769376585e-09
1.65016800436e-10
2.39681443459e-09
4.5612188568e-09
1.08253218342e-10
2.41528380055e-09
4.75224331312e-09
3.75958787276e-11
2.42603974012e-09
4.86831003295e-09
-3.76132694033e-11
2.42971807181e-09
4.90767353211e-09
-1.08273024888e-10
2.42602678276e-09
4.86830912261e-09
-1.65041120948e-10
2.4152584279e-09
4.75224152792e-09
-1.99251660309e-10
2.39677784846e-09
4.56121627943e-09
-2.03781727903e-10
2.36919356113e-09
4.29769047975e-09
-1.73778915437e-10
2.33019872895e-09
3.96582716298e-09
-1.06920021229e-10
2.27838691718e-09
3.57177560107e-09
2.1759770296e-09
3.12298400735e-09
-1.63545893601e-14
1.0324229755e-10
2.79284211311e-09
4.16929110956e-14
1.79916595745e-09
1.80770556596e-10
3.23771218275e-09
1.86566579184e-09
2.15874165199e-10
3.62542859964e-09
1.90470449313e-09
2.12305074752e-10
3.95037217488e-09
1.93507593787e-09
1.76196359797e-10
4.20757076608e-09
1.95727068481e-09
1.15660936177e-10
4.3935754117e-09
1.97254614838e-09
4.01761296441e-11
4.50620181974e-09
1.98148117308e-09
-4.02001345542e-11
4.54406309953e-09
1.98441734907e-09
-1.15686991373e-10
4.50620068871e-09
1.98147065746e-09
-1.7622613852e-10
4.39357322379e-09
1.97252550403e-09
-2.12339926265e-10
4.20756768559e-09
1.95724059957e-09
-2.15914923521e-10
3.95036842152e-09
1.93503745811e-09
-1.80817499012e-10
3.62542436927e-09
1.90465848197e-09
-1.03294678506e-10
3.23770793289e-09
1.86561244572e-09
2.7928382149e-09
-1.76065167265e-14
1.79910486587e-09
4.02017771267e-12
2.09899392651e-12
4.6377148575e-10
-9.4764845268e-16
7.0442660809e-12
1.14568813472e-12
5.12891868031e-10
8.77139964894e-12
3.60985132851e-13
5.5937316563e-10
8.9727952413e-12
-1.77526817847e-13
6.01140021173e-10
7.6758159401e-12
-5.32114921654e-13
6.36070111925e-10
5.14904814629e-12
-7.76423094523e-13
6.62428032811e-10
1.8103074638e-12
-9.20859304392e-13
6.79070747787e-10
-1.81933476916e-12
-9.67480039449e-13
6.85057548793e-10
-5.15810027058e-12
-9.24347285807e-13
6.79071210758e-10
-7.68469086688e-12
-7.82928383761e-13
6.62428893916e-10
-8.98066313725e-12
-5.40992139675e-13
6.36071249667e-10
-8.77696775336e-12
-1.8827177861e-13
6.01141279828e-10
-7.04850860184e-12
3.47676569257e-13
5.59374378453e-10
-4.02287694758e-12
1.13431638816e-12
5.1289302746e-10
2.0906337826e-12
4.63773355836e-10
-2.60320761351e-15
9.73450155691e-12
7.52291089209e-11
1.2732886756e-09
1.31828892053e-14
1.72812811489e-11
8.15628781187e-11
1.40766759153e-09
2.15969922151e-11
8.85622197799e-11
1.53451277951e-09
2.2113027738e-11
9.56779147346e-11
1.64819653866e-09
1.89268441673e-11
1.02092602401e-10
1.74308159426e-09
1.26983463295e-11
1.07111118931e-10
1.81457653936e-09
4.47041884868e-12
1.10330161512e-10
1.85965746836e-09
-4.4674050166e-12
1.11484488902e-10
1.87583123689e-09
-1.26962723663e-11
1.10322337531e-10
1.85965874046e-09
-1.89266229351e-11
1.07096661226e-10
1.81457890526e-09
-2.21153214234e-11
1.02073557309e-10
1.74308471226e-09
-2.16022133148e-11
9.56557516183e-11
1.64819996598e-09
-1.72908635093e-11
8.8535830715e-11
1.53451605621e-09
-9.7473119525e-12
8.15379868489e-11
1.40767068792e-09
7.52086331932e-11
1.2732932032e-09
-3.01255001026e-16
1.38916691916e-11
2.22482497452e-10
1.9627264023e-09
8.56645338139e-15
2.47237752752e-11
2.44556557667e-10
2.17192642369e-09
3.08702988969e-11
2.6779628167e-10
2.36896742272e-09
3.1561776027e-11
2.90327241623e-10
2.54522860911e-09
2.69838611504e-11
3.10045665376e-10
2.69213077819e-09
1.8084189742e-11
3.25272657702e-10
2.8026989483e-09
6.35455280473e-12
3.34966157835e-10
2.87232541576e-09
-6.37186090758e-12
3.38422866813e-10
2.89723453601e-09
-1.81018261312e-11
3.34954087717e-10
2.87232729148e-09
-2.70018585938e-11
3.25250080925e-10
2.80270242793e-09
-3.15795198117e-11
3.10015427311e-10
2.69213534306e-09
-3.08872737242e-11
2.9029184985e-10
2.54523357061e-09
-2.47413753919e-11
2.67755957979e-10
2.36897205012e-09
-1.39098830057e-11
2.44517660642e-10
2.17193057312e-09
2.22450405972e-10
1.96273216125e-09
-9.06886520278e-15
1.74435655615e-11
4.19708395915e-10
2.5437014484e-09
8.21931504431e-15
3.09674973694e-11
4.6234471382e-10
2.81856040205e-09
3.85546249831e-11
5.06349200888e-10
3.07674138848e-09
3.93309448805e-11
5.48182316128e-10
3.30718274698e-09
3.35777887617e-11
5.84281647938e-10
3.49890749176e-09
2.24802404566e-11
6.11934364669e-10
3.64301722541e-09
7.89143677491e-12
6.2944937606e-10
3.73362729143e-09
-7.91872232983e-12
6.35676685316e-10
3.76594991906e-09
-2.25076691644e-11
6.29433823447e-10
3.73362954145e-09
-3.36051757976e-11
6.11904920898e-10
3.64302138471e-09
-3.93574668394e-11
5.84241477113e-10
3.49891290691e-09
-3.85796164832e-11
5.48134869483e-10
3.30718852998e-09
-3.09921336895e-11
5.06296676684e-10
3.07674657258e-09
-1.74678987973e-11
4.62293860831e-10
2.81856466191e-09
4.19665408996e-10
2.54370696882e-09
-1.50861740599e-14
2.11042887194e-11
6.40960580313e-10
3.01858981779e-09
9.38797494339e-15
3.71670791299e-11
7.05253609239e-10
3.34984122774e-09
4.60325154561e-11
7.70512621588e-10
3.65991316846e-09
4.68059131799e-11
8.3163823186e-10
3.93589321094e-09
3.9881221989e-11
8.83783499547e-10
4.1649903166e-09
2.66683666699e-11
9.23425310638e-10
4.33688585597e-09
9.35400981539e-12
9.48410869945e-10
4.44476893277e-09
-9.38701321169e-12
9.57272244267e-10
4.48313737321e-09
-2.67015276019e-11
9.48392563327e-10
4.44477133472e-09
-3.9914402121e-11
9.2339044344e-10
4.33689027391e-09
-4.68384195734e-11
8.83735479833e-10
4.16499600544e-09
-4.60637561077e-11
8.31581262763e-10
3.93589913863e-09
-3.71979651832e-11
7.7045044723e-10
3.65991818295e-09
-2.11345657067e-11
7.05193595131e-10
3.34984482747e-09
6.40908414564e-10
3.01859410302e-09
-1.96879199444e-14
2.53134254368e-11
8.60866110121e-10
3.38959824924e-09
1.11876479514e-14
4.40733958184e-11
9.44660544561e-10
3.76784427153e-09
5.422204693e-11
1.02824376061e-09
4.12038526336e-09
5.49098208185e-11
1.10546350306e-09
4.43306672686e-09