/*--------------------------------*- C++ -*----------------------------------*\
  =========                 |
  \\      /  F ield         | OpenFOAM: The Open Source CFD Toolbox
   \\    /   O peration     | Website:  https://openfoam.org
    \\  /    A nd           | Version:  7
     \\/     M anipulation  |
\*---------------------------------------------------------------------------*/
FoamFile
{
    version     2.0;
    format      ascii;
    class       volVectorField;
    location    "1.92";
    object      U;
}
// * * * * * * * * * * * * * * * * * * * * * * * * * * * * * * * * * * * * * //

dimensions      [0 1 -1 0 0 0 0];

internalField   nonuniform List<vector> 
22500
(
(2.38497834409e-05 2.68916089021e-05 0.000461691053351)
(2.20610213667e-05 3.03400071248e-05 0.000484055052678)
(1.91489609244e-05 3.37658451767e-05 0.000504293262599)
(1.60108304889e-05 3.66115942911e-05 0.000521704636101)
(1.23894085638e-05 3.89362365297e-05 0.000535793752279)
(8.45919549027e-06 4.06463978297e-05 0.000546150210578)
(4.29643983754e-06 4.16945550459e-05 0.000552486206802)
(1.34379755426e-08 4.20484473131e-05 0.00055462907699)
(-4.27014717437e-06 4.1695856943e-05 0.00055248690339)
(-8.43454484256e-06 4.06487504442e-05 0.000546151712348)
(-1.23675799253e-05 3.89389715341e-05 0.000535796051817)
(-1.599297648e-05 3.66139518139e-05 0.000521707471038)
(-1.91365768939e-05 3.37664233776e-05 0.000504296465608)
(-2.20540130157e-05 3.03388941095e-05 0.000484061363151)
(-2.38481745154e-05 2.68891522916e-05 0.000461722558864)
(6.89986231785e-05 7.78495038713e-05 0.00115874977954)
(6.37596375948e-05 8.75466036707e-05 0.00120432725046)
(5.55718145414e-05 9.70901502969e-05 0.00124483827476)
(4.64274802847e-05 0.000105116364028 0.00127922461164)
(3.59530735171e-05 0.000111682409389 0.00130675003603)
(2.45483065776e-05 0.000116521230756 0.00132681990437)
(1.2466103179e-05 0.000119490618109 0.00133903027282)
(3.29980033306e-08 0.000120492537166 0.00134314376167)
(-1.24014042199e-05 0.000119492566789 0.00133903278268)
(-2.4487382684e-05 0.000116524588264 0.00132682514727)
(-3.58985745046e-05 0.000111685784033 0.00130675779022)
(-4.63821975686e-05 0.000105118201062 0.00127923391799)
(-5.55388960705e-05 9.70878077343e-05 0.0012448483648)
(-6.37391881564e-05 8.75406620138e-05 0.00120434585881)
(-6.89918695647e-05 7.78406418571e-05 0.0011588244107)
(0.000102322219524 0.000115323997611 0.00168812551381)
(9.40910346061e-05 0.000128838869833 0.00174410474053)
(8.18090528557e-05 0.000142052789524 0.00179301873013)
(6.81099125734e-05 0.000153124040533 0.00183404877263)
(5.26149962836e-05 0.000162138844759 0.00186658114354)
(3.5855352132e-05 0.000168759943716 0.00189013395458)
(1.81854515045e-05 0.000172813716592 0.00190439222554)
(4.55188401583e-08 0.000174179241436 0.0019091793813)
(-1.80960166901e-05 0.000172814577313 0.0019043958303)
(-3.57706488006e-05 0.00016876103673 0.00189014147221)
(-5.25383201559e-05 0.000162138622342 0.00186659206392)
(-6.80447579685e-05 0.000153120731601 0.00183406144346)
(-8.17593582894e-05 0.000142043962832 0.00179303127918)
(-9.40571214373e-05 0.000128825898191 0.00174412635139)
(-0.000102307199516 0.000115308181743 0.00168821982234)
(0.000126452960083 0.000142354512581 0.00209198464006)
(0.000115687923959 0.000157890244757 0.00215042460784)
(0.000100245805493 0.000173040425715 0.00220053264347)
(8.31441255803e-05 0.000185628201323 0.00224202756396)
(6.4046528586e-05 0.000195823110663 0.00227459667743)
(4.35506230345e-05 0.00020327740787 0.00229799855619)
(2.20584886421e-05 0.000207827946292 0.00231209035963)
(5.39059436816e-08 0.000209357926245 0.00231680527944)
(-2.19524489144e-05 0.00020782756419 0.00231209370255)
(-4.3449872026e-05 0.000203276011585 0.00229800557985)
(-6.39547288334e-05 0.00019581922026 0.00227460655955)
(-8.30650378838e-05 0.000185620085026 0.00224203794261)
(-0.000100183589624 0.000173026084868 0.00220054006586)
(-0.000115642870653 0.000157871624706 0.00215043633627)
(-0.000126429412273 0.000142333052334 0.00209206789283)
(0.000143608695062 0.000161531846977 0.00239986634034)
(0.00013073439267 0.000177832388258 0.00245583941724)
(0.000112870398116 0.000193738520607 0.0025027873783)
(9.32665827562e-05 0.000206823055017 0.00254108474167)
(7.16400493127e-05 0.000217360357548 0.0025707981651)
(4.86091451486e-05 0.000225028713405 0.00259196534387)
(2.45878752649e-05 0.000229695551404 0.00260463490779)
(5.91616153045e-08 0.000231261716796 0.00260885804666)
(-2.44714129948e-05 0.000229694132838 0.00260463701964)
(-4.84982636998e-05 0.000225025290188 0.00259196984501)
(-7.15385781728e-05 0.000217353613568 0.00257080384917)
(-9.31783124291e-05 0.000206811453882 0.00254108836758)
(-0.000112799281915 0.000193720394703 0.00250278337419)
(-0.000130680594386 0.000177810142585 0.00245583135364)
(-0.000143577104292 0.000161506611323 0.00239991826257)
(0.000154994044698 0.00017421074783 0.00263341462523)
(0.000140405357793 0.000190320396801 0.00268398782369)
(0.000120752966026 0.000206097623199 0.00272529486846)
(9.94098696235e-05 0.000218935760442 0.0027583743943)
(7.61428708379e-05 0.000229211950553 0.00278368526639)
(5.15544086714e-05 0.000236654393694 0.00280153247187)
(2.60437049175e-05 0.000241169580783 0.00281213904702)
(6.21333625411e-08 0.000242682145184 0.00281565933595)
(-2.59213234055e-05 0.000241167406514 0.0028121394083)
(-5.14377002392e-05 0.000236649532635 0.00280153331331)
(-7.60356756018e-05 0.000229203290522 0.00278368487791)
(-9.93158607281e-05 0.000218922021176 0.00275836839772)
(-0.00012067562928 0.000206077478969 0.00272527511007)
(-0.000140344628144 0.000190296502971 0.00268395383773)
(-0.000154955265352 0.000174183839051 0.00263342685502)
(0.000161569602608 0.000181447513261 0.00280914288095)
(0.000145637307634 0.000196654158675 0.00285276930919)
(0.000124751511596 0.000211645537653 0.00288723989175)
(0.000102319473606 0.000223705462786 0.00291419948039)
(7.81511649172e-05 0.000233296819933 0.00293446817368)
(5.28033667974e-05 0.000240210313355 0.00294857800236)
(2.66408532716e-05 0.000244391629511 0.00295688965451)
(6.35133127838e-08 0.000245790027209 0.00295963385372)
(-2.65156985811e-05 0.000244389084951 0.00295688808294)
(-5.26838405374e-05 0.00024020478595 0.00294857472476)
(-7.80410138352e-05 0.000233287419466 0.00293446082513)
(-0.000102222152206 0.000223691153304 0.00291418227309)
(-0.000124669973205 0.000211625319065 0.00288720181979)
(-0.000145571149417 0.000196630705753 0.00285270657306)
(-0.000161524554964 0.000181421109862 0.00280911413837)
(0.000164228078197 0.000184236238232 0.00294001253113)
(0.000147297845035 0.000198045861157 0.00297612492708)
(0.000125660119899 0.000211790734495 0.0030034501103)
(0.000102681958021 0.000222718844418 0.00302414675674)
(7.82115105379e-05 0.000231352934361 0.00303933968921)
(5.27368169701e-05 0.000237548937662 0.00304973472482)
(2.65750174007e-05 0.000241285616446 0.00305578594689)
(6.3857835047e-08 0.000242533531835 0.00305776995749)
(-2.64491356679e-05 0.000241283135704 0.0030557824602)
(-5.2616426469e-05 0.000237543619528 0.00304972727932)
(-7.81001957804e-05 0.000231344077732 0.00303932511609)
(-0.000102582909265 0.000222705635187 0.00302411764091)
(-0.000125575732207 0.000211772412583 0.00300339258418)
(-0.00014722745235 0.000198025013567 0.00297603325496)
(-0.000164177705245 0.00018421247128 0.00293994578347)
(0.000163754690196 0.000183459376948 0.00303636481916)
(0.000146142624468 0.000195554003206 0.00306507564975)
(0.000124166266011 0.000207745247148 0.00308553716497)
(0.000101088873155 0.000217324022797 0.00310031869686)
(7.67924100966e-05 0.000224843667907 0.00311078368602)
(5.16797266517e-05 0.000230220239274 0.00311775680085)
(2.60126968009e-05 0.000233455287822 0.0031217426705)
(6.36322400934e-08 0.000234534591174 0.00312303545977)
(-2.58872075006e-05 0.000233453322659 0.00312173736981)
(-5.155953215e-05 0.000230216030124 0.00311774533051)
(-7.6680886834e-05 0.000224836662034 0.00311076196879)
(-0.000100988935297 0.000217313567574 0.00310027759097)
(-0.000124079800759 0.000207730737128 0.00308546020738)
(-0.000146068824845 0.0001955377637 0.0030649570008)
(-0.000163699882969 0.000183440247803 0.00303626574065)
(0.00016081306827 0.000179865937025 0.00310649660407)
(0.000142801563324 0.000190057633563 0.00312836177664)
(0.000120839393584 0.000200499091117 0.00314260363509)
(9.80290295487e-05 0.000208607177773 0.00315210470566)
(7.42794211445e-05 0.000214937299692 0.00315840262659)
(4.98983581564e-05 0.000219453535142 0.00316239121459)
(2.50898565311e-05 0.000222167474053 0.00316458954926)
(6.32270184617e-08 0.000223072619534 0.00316528677182)
(-2.49651014808e-05 0.000222166441807 0.00316458257028)
(-4.9778651394e-05 0.000219451255473 0.00316237598028)
(-7.41679180251e-05 0.000214933336895 0.0031583741432)
(-9.79283733824e-05 0.000208600967556 0.00315205217685)
(-0.000120751063692 0.000200490084123 0.00314250852095)
(-0.00014272476131 0.000190047752126 0.0031282202122)
(-0.000160754490078 0.000179853200367 0.00310637312336)
(0.000155954904183 0.000174083277033 0.0031570279514)
(0.000137790291729 0.000182269230584 0.00317285301702)
(0.000116144698614 0.000190839030949 0.00318170730792)
(9.39025843788e-05 0.000197420805514 0.00318670276853)
(7.09871341798e-05 0.000202543790801 0.00318949152415)
(4.76087069145e-05 0.000206200381275 0.00319099310625)
(2.39162901434e-05 0.000208398524999 0.00319171305371)
(6.29707885364e-08 0.000209132131756 0.00319191980512)
(-2.37919539072e-05 0.000208398767912 0.00319170462093)
(-4.74891260173e-05 0.000206200711123 0.0031909746341)
(-7.087523916e-05 0.000202543854085 0.00318945726276)
(-9.38007968241e-05 0.000197420073875 0.00318664056189)
(-0.000116054223534 0.000190836898368 0.00318159723863)
(-0.000137710507426 0.000182267115989 0.00317269533944)
(-0.000155892896139 0.000174078277788 0.00315689098228)
(0.000149630301574 0.000166631436558 0.00319312702816)
(0.000131527619668 0.000172748291838 0.00320380255831)
(0.000110464993271 0.000179371615227 0.00320816726042)
(8.90400830969e-05 0.000184419509108 0.00320948575032)
(6.71728309503e-05 0.000188358899991 0.00320945951651)
(4.49850572611e-05 0.000191183244202 0.00320899050207)
(2.25797594652e-05 0.00019288526371 0.00320854835526)
(6.31333006992e-08 0.00019345433186 0.00320837125594)
(-2.24549796766e-05 0.000192887016351 0.0032085389674)
(-4.48646877781e-05 0.000191186627131 0.00320897001558)
(-6.70595925397e-05 0.000188363648045 0.00320942186478)
(-8.89362423429e-05 0.000184425090829 0.00320941801829)
(-0.000110371657165 0.000179377299326 0.00320804887031)
(-0.000131444529796 0.00017275490782 0.00320363964094)
(-0.000149564825742 0.000166635208866 0.00319299218124)
(0.000142194544604 0.000157908467103 0.00321859950963)
(0.000124369955465 0.000161903116618 0.0032249591091)
(0.000104134454581 0.000166555957387 0.00322573932442)
(8.37224583265e-05 0.00017010856209 0.00322424811955)
(6.30461155301e-05 0.00017291764721 0.0032221377734)
(4.21645005562e-05 0.000174949290907 0.00322023774615)
(2.11478816244e-05 0.000176178328405 0.00321896071891)
(6.39279674327e-08 0.000176590466916 0.003218509455)
(-2.1021387717e-05 0.000176181646914 0.00321895144855)
(-4.20420155676e-05 0.00017495585053 0.00322021784827)
(-6.29301521968e-05 0.000172927266473 0.00322210176447)
(-8.36152354028e-05 0.000170120735905 0.00322418346895)
(-0.000104037176727 0.000166569794192 0.0032256253495)
(-0.000124282903472 0.000161918825892 0.00322480775123)
(-0.000142125271377 0.000157921385461 0.00321848725746)
(0.000133987546034 0.000148175181386 0.00323580032888)
(0.000116709003796 0.000150060229098 0.00323852627021)
(9.74739001632e-05 0.000152764718923 0.00323668001407)
(7.8178085774e-05 0.000154917768565 0.00323335681579)
(5.87588867124e-05 0.000156660387555 0.00322999234382)
(3.92393635763e-05 0.000157931976822 0.00322727044281)
(1.96646915726e-05 0.000158702947031 0.00322552542072)
(6.54662640536e-08 0.000158962379961 0.00322492258825)
(-1.95349632721e-05 0.000158707670062 0.00322551817128)
(-3.91131911462e-05 0.000157941394832 0.00322725569458)
(-5.86385748966e-05 0.000156674393134 0.00322996679135)
(-7.80658967536e-05 0.000154935965147 0.00323331070408)
(-9.73713756405e-05 0.000152786225648 0.00323659371493)
(-0.000116617147662 0.000150084577382 0.00323841288741)
(-0.000133913799218 0.000148196760681 0.00323573471545)
(0.000125524211088 0.000137919365994 0.00324523134777)
(0.000109035673588 0.000136882201732 0.0032450180653)
(9.06619124487e-05 0.000138028409273 0.00324179153942)
(7.25006902579e-05 0.000138946873334 0.00323787381624)
(5.43573034946e-05 0.00013971216614 0.00323428194361)
(3.6235396395e-05 0.000140269042742 0.00323148303866)
(1.81426353033e-05 0.00014060566159 0.00322971663465)
(6.77497617381e-08 0.000140719831688 0.00322911098733)
(-1.80081835326e-05 0.000140611310037 0.00322971339059)
(-3.6104029879e-05 0.000140280352591 0.00323147827746)
(-5.42310739177e-05 0.000139729111362 0.0032342765093)
(-7.23818473324e-05 0.000138969280883 0.00323786491903)
(-9.05525923563e-05 0.000138055569907 0.00324176372229)
(-0.000108938328563 0.000136913683379 0.00324499743748)
(-0.000125444804869 0.000137948420383 0.00324520814349)
(6.69145618737e-07 1.18224660914e-06 0.0002838666555)
(3.12903153191e-07 1.57171073729e-06 0.000297235497019)
(1.39816299075e-07 1.77707862929e-06 0.00030899149807)
(1.41311059588e-09 1.909511583e-06 0.000318996736611)
(-7.40611139661e-08 1.97949278954e-06 0.00032705913289)
(-8.96317539004e-08 2.00983585138e-06 0.000332977311854)
(-5.94704328234e-08 2.01952897676e-06 0.00033659888018)
(-3.29692738864e-09 2.02115797488e-06 0.000337826993809)
(5.3524721966e-08 2.0189227252e-06 0.000336599338998)
(8.56035231613e-08 2.00879772684e-06 0.000332978446036)
(7.27670941177e-08 1.97818953548e-06 0.000327061165793)
(-4.76591916242e-10 1.90798285582e-06 0.000318999695522)
(-1.37948803163e-07 1.77563618089e-06 0.000308995659456)
(-3.10987009922e-07 1.57020444073e-06 0.000297245786741)
(-6.69047649976e-07 1.18133160812e-06 0.000283906824089)
(6.60916474219e-06 8.25999766677e-06 0.000818270379925)
(5.49650244109e-06 1.01527675015e-05 0.000854886357316)
(4.61784676133e-06 1.16679575296e-05 0.000886933619554)
(3.69031269568e-06 1.29135515587e-05 0.000914098357785)
(2.7507841852e-06 1.38641486139e-05 0.00093592515277)
(1.82135493988e-06 1.45309031358e-05 0.000951919706705)
(9.03540696533e-07 1.49255700579e-05 0.000961694651002)
(-4.23448355839e-09 1.50560004222e-05 0.000964999334662)
(-9.10656737006e-07 1.4924153534e-05 0.000961696224587)
(-1.82453418575e-06 1.45283117808e-05 0.000951923397295)
(-2.74842659148e-06 1.38605801995e-05 0.000935931463753)
(-3.68337251555e-06 1.29090582477e-05 0.000914107151453)
(-4.60949371149e-06 1.1663211537e-05 0.000886945483904)
(-5.4890180353e-06 1.01479288589e-05 0.000854915344407)
(-6.60743969584e-06 8.25657517831e-06 0.000818372352351)
(1.54864513686e-05 1.82634682797e-05 0.00131989631847)
(1.34914175122e-05 2.19616331781e-05 0.00137624590035)
(1.16435192742e-05 2.51340336177e-05 0.00142520726696)
(9.56516414541e-06 2.78153329948e-05 0.00146646365894)
(7.30972003009e-06 2.99266064762e-05 0.00149945653387)
(4.93735453979e-06 3.14452768246e-05 0.00152355216359)
(2.48647494358e-06 3.23609766094e-05 0.0015382422186)
(-5.81153618375e-10 3.26668224999e-05 0.00154319570508)
(-2.48611313608e-06 3.23591336156e-05 0.00153824461099)
(-4.93260015329e-06 3.14416856449e-05 0.00152355755785)
(-7.29886775871e-06 2.99212006261e-05 0.00149946528283)
(-9.54931301164e-06 2.78079608764e-05 0.00146647501471)
(-1.16267001756e-05 2.51254076237e-05 0.00142522134909)
(-1.34770339455e-05 2.19530456531e-05 0.00137628183877)
(-1.54814584291e-05 1.82571773562e-05 0.00132003372263)
(2.57204807066e-05 2.94792857074e-05 0.00178289387072)
(2.27197366741e-05 3.49587943309e-05 0.00185433271989)
(1.9752723872e-05 3.97368827364e-05 0.001915728169)
(1.63357881099e-05 4.38118662429e-05 0.00196700495621)
(1.25578441014e-05 4.70482550942e-05 0.00200771859524)
(8.52131585139e-06 4.93906580351e-05 0.00203729681617)
(4.30697710688e-06 5.08092398386e-05 0.00205526324813)
(5.32315573361e-09 5.12841773069e-05 0.00206130456751)
(-4.29495226843e-06 5.08072164113e-05 0.00205526511925)
(-8.50536571423e-06 4.93865730565e-05 0.00203730093813)
(-1.25365677178e-05 4.70418386661e-05 0.00200772471605)
(-1.6310377299e-05 4.38028390685e-05 0.00196701123983)
(-1.97273664586e-05 3.97257829405e-05 0.00191573342097)
(-2.26983946204e-05 3.49478194947e-05 0.00185435721669)
(-2.57111513661e-05 2.94711819214e-05 0.00178303049977)
(3.60847390605e-05 4.05969015353e-05 0.00220102111074)
(3.20049035733e-05 4.76297250093e-05 0.00228222208178)
(2.78749547553e-05 5.37328317197e-05 0.00235098112212)
(2.30787445578e-05 5.89502493905e-05 0.00240772749438)
(1.775970692e-05 6.30990995361e-05 0.00245235500691)
(1.20608122113e-05 6.61033718569e-05 0.00248454814558)
(6.10127086686e-06 6.7923399221e-05 0.00250400851198)
(1.20266531624e-08 6.85328351037e-05 0.00251053154505)
(-6.07614204671e-06 6.79213995368e-05 0.00250400833982)
(-1.20326752492e-05 6.60992514176e-05 0.00248454773353)
(-1.77276483816e-05 6.30924758674e-05 0.0024523530937)
(-2.30440474538e-05 5.89407517002e-05 0.00240772065908)
(-2.78415695981e-05 5.3720762602e-05 0.00235096597293)
(-3.19767165875e-05 4.76176413844e-05 0.00228221774276)
(-3.60702815009e-05 4.05880172556e-05 0.00220112744809)
(4.57965121482e-05 5.08198491971e-05 0.0025701317715)
(4.06174211648e-05 5.90688378431e-05 0.00265575806218)
(3.53527289056e-05 6.61091274273e-05 0.00272691570789)
(2.92353273991e-05 7.21209668401e-05 0.0027847567176)
(2.24757209379e-05 7.68894623761e-05 0.00282969752994)
(1.52523825711e-05 8.03346742525e-05 0.00286182759441)
(7.71400568892e-06 8.24186166535e-05 0.00288113244983)
(1.85879649291e-08 8.311588052e-05 0.00288757970354)
(-7.67610884419e-06 8.24168450129e-05 0.00288112883479)
(-1.52125292324e-05 8.0330946722e-05 0.00286181979821)
(-2.24335140275e-05 7.6883332368e-05 0.00282968298406)
(-2.91920849646e-05 7.21119767252e-05 0.00278472997047)
(-3.53120030699e-05 6.60973617472e-05 0.00272687044842)
(-4.05825845009e-05 5.90568943829e-05 0.00265571144415)
(-4.57763560436e-05 5.08110798439e-05 0.00257018863119)
(5.43341194069e-05 5.96442376357e-05 0.00288889994286)
(4.80882850687e-05 6.87183399379e-05 0.00297417869611)
(4.17717630943e-05 7.62725667298e-05 0.00304342079669)
(3.44626081613e-05 8.27007262116e-05 0.00309864740751)
(2.64422238147e-05 8.77739862034e-05 0.00314091246764)
(1.79173142864e-05 9.14248703856e-05 0.00317079278491)
(9.0547648538e-06 9.36273717327e-05 0.00318861103024)
(2.44994584396e-08 9.43633714344e-05 0.00319453587171)
(-9.00538656482e-06 9.36260130183e-05 0.00318860318684)
(-1.786696787e-05 9.14219279071e-05 0.00317077587859)
(-2.63909628962e-05 8.77689763126e-05 0.00314088240319)
(-3.44117362536e-05 8.26931215691e-05 0.00309859634652)
(-4.17243463118e-05 7.62622026808e-05 0.00304333906715)
(-4.80471285228e-05 6.8707760643e-05 0.00297408167511)
(-5.43078908477e-05 5.96364198427e-05 0.00288889732032)
(6.13751425814e-05 6.67779158994e-05 0.00315860382264)
(5.41438615517e-05 7.62741078953e-05 0.003239682742)
(4.69009482419e-05 8.39345200556e-05 0.00330365962561)
(3.85798416388e-05 9.0417633254e-05 0.00335348874678)
(2.95274989547e-05 9.54990225365e-05 0.00339090008993)
(1.99702877265e-05 9.91367583276e-05 0.00341697446405)
(1.0081685343e-05 0.000101323920432 0.00343237480958)
(2.95782969298e-08 0.00010205368774 0.00343746793259)
(-1.00224381975e-05 0.000101323139794 0.00343236245874)
(-1.99108993314e-05 9.91349573586e-05 0.0034169478158)
(-2.94683712025e-05 9.54956969303e-05 0.00339085341114)
(-3.85222351707e-05 9.04121988062e-05 0.00335341163403)
(-4.68474072261e-05 8.39265687237e-05 0.0033035389744)
(-5.40967191611e-05 7.6265990836e-05 0.00323953315066)
(-6.13428449062e-05 6.67720568859e-05 0.00315853988372)
(6.67611390145e-05 7.20975994848e-05 0.00338252504774)
(5.86657343463e-05 8.16305637814e-05 0.00345661708645)
(5.06525564114e-05 8.90375843141e-05 0.00351304718684)
(4.1530935731e-05 9.52601322082e-05 0.00355568627721)
(3.16998037134e-05 0.000100095655611 0.0035869097998)
(2.13959594958e-05 0.000103536069281 0.00360826398647)
(1.07890001837e-05 0.000105596632161 0.00362071599018)
(3.38454419568e-08 0.00010628306279 0.00362480451935)
(-1.07214363299e-05 0.000105596569432 0.00362069940053)
(-2.13288722181e-05 0.000103535707361 0.00360822813425)
(-3.16338370388e-05 0.000100094497777 0.00358684735606)
(-4.14672974698e-05 9.52575424045e-05 0.00355558433319)
(-5.05933465782e-05 8.9032952833e-05 0.00351288950664)
(-5.86129090405e-05 8.16259084988e-05 0.00345641900544)
(-6.67229943056e-05 7.20947135016e-05 0.00338240566109)
(7.04611984246e-05 7.56073808999e-05 0.00356524621977)
(6.16518046747e-05 8.48279869333e-05 0.00363060633944)
(5.3043705871e-05 9.16860099335e-05 0.00367822433642)
(4.33484391621e-05 9.73919436024e-05 0.00371280215592)
(3.29970873746e-05 0.000101781159283 0.0037372731367)
(2.22270184458e-05 0.000104882518285 0.00375356833394)
(1.11954705346e-05 0.000106732464732 0.00376289629607)
(3.7441851208e-08 0.000107347813348 0.00376592720297)
(-1.11208611382e-05 0.000106733216631 0.00376287633123)
(-2.21532982741e-05 0.000104883800594 0.00375352513081)
(-3.29250555871e-05 0.000101782505989 0.00373719802643)
(-4.32792566508e-05 9.73926890569e-05 0.00371268006288)
(-5.29791422395e-05 9.16853872435e-05 0.00367803649471)
(-6.15936074462e-05 8.48276258106e-05 0.00363037058484)
(-7.04175094785e-05 7.56083656621e-05 0.00356508507905)
(7.25365323234e-05 7.7401086142e-05 0.00371197222827)
(6.31806699402e-05 8.60050600942e-05 0.00376775741073)
(5.41620563688e-05 9.20843971493e-05 0.00380616943616)
(4.41225221944e-05 9.70792776619e-05 0.00383259725638)
(3.35012955812e-05 0.00010087675604 0.00385039659977)
(2.25256828821e-05 0.000103540466958 0.00386177075695)
(1.13346487205e-05 0.000105123089994 0.00386808975856)
(4.05414250399e-08 0.000105648912667 0.00387010768612)
(-1.1253925745e-05 0.000105124671707 0.00386806804691)
(-2.24460834185e-05 0.000103543442386 0.00386172375516)
(-3.34237008631e-05 0.000100880711306 0.00385031484122)
(-4.40480779347e-05 9.70835654275e-05 0.00383246413489)
(-5.40923419288e-05 9.20881488292e-05 0.00380596438097)
(-6.31173876656e-05 8.60095463493e-05 0.00376750245483)
(-7.24876767954e-05 7.74065921038e-05 0.00371179181773)
(7.31057879159e-05 7.76275048687e-05 0.00382791060406)
(6.33787771237e-05 8.53554838669e-05 0.0038739732131)
(5.4137215701e-05 9.04850072963e-05 0.00390348034188)
(4.39767226729e-05 9.46323026497e-05 0.00392230105494)
(3.33186447539e-05 9.77447727492e-05 0.00393402994001)
(2.23695206035e-05 9.99126924238e-05 0.00394100241587)
(1.12474027599e-05 0.000101196415988 0.00394465841813)
(4.32975716974e-08 0.000101622682744 0.00394578529821)
(-1.11612050265e-05 0.000101198751201 0.00394463763752)
(-2.22845525314e-05 9.99172047724e-05 0.00394095749392)
(-3.32358261652e-05 9.77511457051e-05 0.00393395154501)
(-4.38972066376e-05 9.46399419844e-05 0.00392217203395)
(-5.40625138282e-05 9.04930416698e-05 0.00390327884988)
(-6.33107064279e-05 8.53648734936e-05 0.00387372635376)
(-7.30521139728e-05 7.76377921447e-05 0.00382774353776)
(7.23078608073e-05 7.64475319242e-05 0.00391768951485)
(6.23949915418e-05 8.30835702382e-05 0.00395436676949)
(5.3125228182e-05 8.71471594367e-05 0.00397582082057)
(4.30555141902e-05 9.03646615421e-05 0.00398809212551)
(3.25684497413e-05 9.27485842025e-05 0.00399477673222)
(2.18427617294e-05 9.43996449454e-05 0.00399817702909)
(1.09771325261e-05 9.53749707021e-05 0.00399970283898)
(4.58122589446e-08 9.56989009406e-05 0.0040001230975)
(-1.08859318031e-05 9.5377870916e-05 0.00399968699587)
(-2.17528276658e-05 9.44053406068e-05 0.00399814300646)
(-3.24807189885e-05 9.27568544804e-05 0.00399471682941)
(-4.29711833819e-05 9.03750512411e-05 0.00398799025109)
(-5.30458216212e-05 8.71588649901e-05 0.0039756539388)
(-6.23225355229e-05 8.30973804717e-05 0.00395416503902)
(-7.22498324531e-05 7.64623041047e-05 0.00391757647305)
(7.03090377114e-05 7.40253284123e-05 0.00398475556726)
(6.04243855426e-05 7.94925695978e-05 0.00401279414221)
(5.13295995147e-05 8.23791429766e-05 0.00402755005359)
(4.15290565946e-05 8.46223419573e-05 0.00403478194089)
(3.1380808632e-05 8.62659674651e-05 0.00403781348701)
(2.10320808716e-05 8.73992489682e-05 0.00403873343268)
(1.05669680627e-05 8.80671479116e-05 0.00403881872052)
(4.81103954893e-08 8.82890896187e-05 0.00403876913507)
(-1.04711840974e-05 8.80703343423e-05 0.0040388130694)
(-2.09376125426e-05 8.74055644842e-05 0.00403872189382)
(-3.12886038437e-05 8.62752987936e-05 0.00403779225347)
(-4.1440373408e-05 8.4634415587e-05 0.00403473915854)
(-5.12460171833e-05 8.23934059895e-05 0.00402746242867)
(-6.03481277029e-05 7.95097267475e-05 0.00401268659406)
(-7.02470710661e-05 7.40438130543e-05 0.00398473982941)
(6.71988700998e-05 7.15610981621e-05 0.00403071426294)
(5.77035936303e-05 7.50627423686e-05 0.00405173839755)
(4.89356758897e-05 7.65945115302e-05 0.00406163374676)
(3.95347626741e-05 7.77945070326e-05 0.00406573904547)
(2.9853699533e-05 7.86454367683e-05 0.00406681322715)
(1.99993766344e-05 7.9222720312e-05 0.00406655392049)
(1.00467789541e-05 7.95588320483e-05 0.00406601082287)
(5.01637754578e-08 7.96702184551e-05 0.00406576824757)
(-9.94693612357e-06 7.95618386015e-05 0.00406602017269)
(-1.99009544604e-05 7.92287279526e-05 0.00406657543045)
(-2.97576893845e-05 7.86544526137e-05 0.00406684943375)
(-3.94424428258e-05 7.78064950181e-05 0.00406578777102)
(-4.88486596188e-05 7.66092326675e-05 0.00406167562597)
(-5.76246943912e-05 7.50812772534e-05 0.00405180681699)
(-6.71332455398e-05 7.15810982072e-05 0.00403079781237)
(-1.0278529959e-07 -2.07498488246e-07 0.00019100345525)
(-2.43104331399e-08 -3.02681965931e-07 0.000199755550374)
(3.94378414782e-08 -3.63029116321e-07 0.000207208131555)
(7.79476124286e-08 -3.93910738359e-07 0.000213432585246)
(9.00665717245e-08 -4.03735175924e-07 0.000218383681749)
(7.72392600347e-08 -4.02660495205e-07 0.000221990562315)
(4.51309064891e-08 -3.98593139747e-07 0.00022418993799)
(1.86211517822e-09 -3.96634760207e-07 0.000224936770342)
(-4.16043103168e-08 -3.98649937098e-07 0.000224191980554)
(-7.42213330007e-08 -4.02705896985e-07 0.000221994359783)
(-8.7440443462e-08 -4.03544247799e-07 0.000218388762406)
(-7.46158511275e-08 -3.93035826739e-07 0.000213438781015)
(-3.53358988448e-08 -3.61903126451e-07 0.000207216552815)
(2.84160445389e-08 -3.00802762913e-07 0.000199771503669)
(1.06050839774e-07 -2.05645261005e-07 0.000191047807974)
(6.28140149783e-07 5.00272298453e-07 0.000583982359991)
(7.52856774585e-07 4.92195082922e-07 0.000610865702105)
(8.19221389764e-07 5.57331529515e-07 0.000633875325879)
(7.97752207151e-07 6.74421716682e-07 0.000653107571068)
(6.9224655706e-07 8.10652035368e-07 0.000668412741002)
(5.11007558816e-07 9.33383374533e-07 0.00067956817183)
(2.73508894973e-07 1.01756365792e-06 0.000686369761611)
(4.71301920569e-09 1.04744977665e-06 0.000688670699717)
(-2.64393967444e-07 1.01722821855e-06 0.000686374941869)
(-5.0264350915e-07 9.32946235663e-07 0.000679577731802)
(-6.84232114534e-07 8.10693257299e-07 0.000668425387497)
(-7.88155565598e-07 6.75888678887e-07 0.000653122882676)
(-8.07681642705e-07 5.59582095234e-07 0.00063389657142)
(-7.41242052962e-07 4.96398833244e-07 0.000610908645857)
(-6.19121164357e-07 5.04801217679e-07 0.000584096789311)
(2.38662542442e-06 2.41100889486e-06 0.000982003130377)
(2.45931370035e-06 2.7640182261e-06 0.00102711907869)
(2.40342477204e-06 3.20486726213e-06 0.00106576523284)
(2.17790580005e-06 3.68555095125e-06 0.00109803730453)
(1.79735949138e-06 4.13933828574e-06 0.00112369259432)
(1.28268289387e-06 4.50777877199e-06 0.00114237650024)
(6.71254517838e-07 4.74679693439e-06 0.00115375820582)
(7.56708727915e-09 4.82945557968e-06 0.00115759926682)
(-6.56375421629e-07 4.74598447488e-06 0.0011537648823)
(-1.26836334433e-06 4.50655502328e-06 0.00114238867369)
(-1.78304396211e-06 4.13860675908e-06 0.00112370830884)
(-2.16162270392e-06 3.68652184103e-06 0.00109805578954)
(-2.38484875213e-06 3.20714748616e-06 0.00106579100185)
(-2.4406693587e-06 2.76889186423e-06 0.00102717540608)
(-2.37239057682e-06 2.41724523995e-06 0.000982162011766)
(5.25931733463e-06 5.58912364347e-06 0.00137924257314)
(5.19284217364e-06 6.55539395475e-06 0.00144169048909)
(4.89309422153e-06 7.60525541618e-06 0.00149503125664)
(4.31356023204e-06 8.64997993865e-06 0.00153942110765)
(3.48615693993e-06 9.5809922736e-06 0.00157459678165)
(2.45120393769e-06 1.0310837783e-05 0.00160014900934)
(1.26961181236e-06 1.07746880888e-05 0.00161568369529)
(1.04787440252e-08 1.09335828679e-05 0.00162091407501)
(-1.24880763188e-06 1.07735942427e-05 0.00161568956842)
(-2.43066698527e-06 1.03091324567e-05 0.00160015931838)
(-3.46529396183e-06 9.57970506714e-06 0.00157460902964)
(-4.2907116339e-06 8.6504225904e-06 0.00153943395482)
(-4.86817088067e-06 7.60745940799e-06 0.00149504932264)
(-5.16802726217e-06 6.56077306606e-06 0.00144174129616)
(-5.2402907804e-06 5.59702062918e-06 0.00137941269458)
(9.01002166246e-06 9.73474545665e-06 0.00176857794624)
(8.72680554883e-06 1.14598818878e-05 0.00184629285647)
(8.08180578149e-06 1.32429858657e-05 0.00191222541004)
(7.02633374699e-06 1.49507484555e-05 0.00196674110345)
(5.61666899379e-06 1.64320108405e-05 0.00200969500928)
(3.91800325025e-06 1.75726628217e-05 0.00204075745631)
(2.01827422316e-06 1.82897779475e-05 0.0020595803874)
(1.37496862793e-08 1.85342202663e-05 0.00206590130351)
(-1.99085887243e-06 1.82886398575e-05 0.00205958320691)
(-3.89067531052e-06 1.75708686667e-05 0.00204076145329)
(-5.58890042217e-06 1.64305690336e-05 0.00200969713687)
(-6.99687886049e-06 1.49509783205e-05 0.0019667391175)
(-8.05087158378e-06 1.32452981545e-05 0.00191222294839)
(-8.69649159909e-06 1.14659681864e-05 0.00184631952351)
(-8.98643348233e-06 9.74414201243e-06 0.00176873097033)
(1.33481561005e-05 1.44989744789e-05 0.00214247283034)
(1.27811725421e-05 1.70206362258e-05 0.00223232884373)
(1.17126522848e-05 1.95492682799e-05 0.00230774314565)
(1.00938334952e-05 2.19164564799e-05 0.00236950038379)