/*--------------------------------*- C++ -*----------------------------------*\
  =========                 |
  \\      /  F ield         | OpenFOAM: The Open Source CFD Toolbox
   \\    /   O peration     | Website:  https://openfoam.org
    \\  /    A nd           | Version:  7
     \\/     M anipulation  |
\*---------------------------------------------------------------------------*/
FoamFile
{
    version     2.0;
    format      ascii;
    class       volScalarField;
    location    "1.46";
    object      p;
}
// * * * * * * * * * * * * * * * * * * * * * * * * * * * * * * * * * * * * * //

dimensions      [0 2 -2 0 0 0 0];

internalField   nonuniform List<scalar> 
22500
(
7.47423140653e-06
7.47250823293e-06
7.47249389339e-06
7.47215902385e-06
7.47200503044e-06
7.47188372312e-06
7.47181400334e-06
7.47178441637e-06
7.47180697729e-06
7.47186976473e-06
7.47198401517e-06
7.47213132481e-06
7.47245944533e-06
7.47246986029e-06
7.47418623267e-06
7.44704894352e-06
7.44391991638e-06
7.44273523361e-06
7.44138335331e-06
7.44040766086e-06
7.43968406599e-06
7.4392471513e-06
7.43909500558e-06
7.43923958961e-06
7.43966903406e-06
7.44038514343e-06
7.44135367564e-06
7.44269869349e-06
7.44387925895e-06
7.44700148047e-06
7.4207381409e-06
7.41630155584e-06
7.4141069538e-06
7.41184878599e-06
7.41015477714e-06
7.40890430895e-06
7.40814720754e-06
7.40788824505e-06
7.40813988553e-06
7.40888975528e-06
7.41013304586e-06
7.4118201433e-06
7.41407173154e-06
7.41626217071e-06
7.42069130564e-06
7.39721158716e-06
7.39168131147e-06
7.38867519772e-06
7.38570184703e-06
7.38344230995e-06
7.38178022572e-06
7.38077369078e-06
7.38043175538e-06
7.38076680652e-06
7.38176653263e-06
7.38342191301e-06
7.38567500944e-06
7.38864212147e-06
7.39164418434e-06
7.39716639278e-06
7.37516845063e-06
7.36868956759e-06
7.3649894783e-06
7.36143058947e-06
7.35870572306e-06
7.35670857972e-06
7.35549961397e-06
7.35509057072e-06
7.355493127e-06
7.35669568206e-06
7.35868653342e-06
7.36140538439e-06
7.36495840101e-06
7.36865463332e-06
7.3751252502e-06
7.3543303616e-06
7.34705032926e-06
7.34276643839e-06
7.33874279302e-06
7.33564654906e-06
7.33338558278e-06
7.33201777058e-06
7.33155626738e-06
7.33201166859e-06
7.33337344161e-06
7.33562850796e-06
7.33871911735e-06
7.3427373284e-06
7.34701743063e-06
7.35428904437e-06
7.33480436309e-06
7.32688239755e-06
7.32212636746e-06
7.31775669003e-06
7.3143818082e-06
7.31192629985e-06
7.31044189909e-06
7.30994206237e-06
7.31043613301e-06
7.31191482793e-06
7.31436477521e-06
7.31773435671e-06
7.32209898423e-06
7.32685138002e-06
7.33476470699e-06
7.3166221595e-06
7.30821454302e-06
7.30308931194e-06
7.29848163542e-06
7.29491230287e-06
7.29232407664e-06
7.29076066158e-06
7.29023500723e-06
7.29075517787e-06
7.2923131741e-06
7.29489611473e-06
7.29846042939e-06
7.30306339365e-06
7.3081850674e-06
7.31658383487e-06
7.29974613065e-06
7.29100008216e-06
7.285598774e-06
7.28084828165e-06
7.27715843362e-06
7.27449064731e-06
7.27288033378e-06
7.27233951749e-06
7.27287506586e-06
7.27448017358e-06
7.27714288743e-06
7.28082790763e-06
7.28557396141e-06
7.2909716944e-06
7.2997087187e-06
7.28411933431e-06
7.27517199525e-06
7.2695813973e-06
7.2647717798e-06
7.26102602771e-06
7.25832383791e-06
7.25669373326e-06
7.25614670778e-06
7.25668860786e-06
7.25831364436e-06
7.26101088888e-06
7.26475193159e-06
7.26955727317e-06
7.27514419247e-06
7.28408223716e-06
7.26967694405e-06
7.2606570526e-06
7.25496279538e-06
7.25016799439e-06
7.24642207074e-06
7.24372315197e-06
7.24209567546e-06
7.24154984101e-06
7.24209061879e-06
7.24371308806e-06
7.24640710101e-06
7.25014832633e-06
7.25493890716e-06
7.26062927418e-06
7.26963949449e-06
7.25633420018e-06
7.24738053707e-06
7.24167811838e-06
7.23696302075e-06
7.23326245789e-06
7.23059644856e-06
7.22898927798e-06
7.22845044602e-06
7.22898422681e-06
7.23058635827e-06
7.23324740781e-06
7.23694317074e-06
7.24165396371e-06
7.24735216822e-06
7.25629575498e-06
7.2439496539e-06
7.23528431776e-06
7.22969511639e-06
7.22510849236e-06
7.22148345248e-06
7.21887053486e-06
7.21729625505e-06
7.21676882201e-06
7.21729113316e-06
7.21886030492e-06
7.2214680857e-06
7.22508808796e-06
7.22967013808e-06
7.23525467193e-06
7.24390945336e-06
7.23252949753e-06
7.22443720259e-06
7.21901633906e-06
7.21456465202e-06
7.21102308848e-06
7.20847607401e-06
7.20694531028e-06
7.20643298306e-06
7.20694008928e-06
7.20846558166e-06
7.21100718729e-06
7.2145432786e-06
7.21898992289e-06
7.22440543144e-06
7.23248706254e-06
7.22344530212e-06
7.21468425084e-06
7.20941437757e-06
7.20504210772e-06
7.20159780101e-06
7.19914626342e-06
7.19768099158e-06
7.19719178498e-06
7.19767558571e-06
7.19913537219e-06
7.20158115507e-06
7.20501940536e-06
7.20938560409e-06
7.21464912434e-06
7.22340108458e-06
4.54722484452e-06
4.54799054133e-06
4.54858335624e-06
4.54912123494e-06
4.54956912632e-06
4.54990549853e-06
4.55011555005e-06
4.55018758141e-06
4.55011774147e-06
4.54990947554e-06
4.54957390999e-06
4.54912567836e-06
4.54858754963e-06
4.54799453608e-06
4.54722915426e-06
4.55039423259e-06
4.55127163648e-06
4.55197727199e-06
4.55261762151e-06
4.55315352195e-06
4.5535566258e-06
4.55380847066e-06
4.55389485715e-06
4.5538106438e-06
4.55356053929e-06
4.55315817472e-06
4.55262177571e-06
4.55198075199e-06
4.55127506134e-06
4.55039790329e-06
4.55398665636e-06
4.55508710361e-06
4.55597966236e-06
4.5567959948e-06
4.55748345235e-06
4.55800204418e-06
4.55832635831e-06
4.55843749435e-06
4.55832847803e-06
4.55800589836e-06
4.55748816813e-06
4.55680047741e-06
4.55598349886e-06
4.55509114042e-06
4.55399061649e-06
4.55822013552e-06
4.55971310094e-06
4.56091541885e-06
4.56201670358e-06
4.56294675532e-06
4.56364925499e-06
4.56408846012e-06
4.56423869144e-06
4.56409051643e-06
4.56365304462e-06
4.56295155983e-06
4.56202160431e-06
4.56091985804e-06
4.55971783175e-06
4.55822448751e-06
4.56351632572e-06
4.56557228177e-06
4.56720434231e-06
4.56869325967e-06
4.56994876649e-06
4.57089594082e-06
4.57148704874e-06
4.57168879778e-06
4.57148904461e-06
4.57089964841e-06
4.56995358415e-06
4.5686983902e-06
4.5672092288e-06
4.56557750732e-06
4.5635209654e-06
4.56994730723e-06
4.57270091256e-06
4.57484973418e-06
4.57679669322e-06
4.57843189878e-06
4.579661979e-06
4.5804275958e-06
4.58068831901e-06
4.58042948538e-06
4.57966550944e-06
4.57843657154e-06
4.57680183434e-06
4.5748547974e-06
4.57270648733e-06
4.56995189375e-06
4.577404564e-06
4.58094311286e-06
4.58365670318e-06
4.58609483312e-06
4.58813204739e-06
4.58965880718e-06
4.59060614189e-06
4.59092804485e-06
4.59060789396e-06
4.58966209921e-06
4.5881364561e-06
4.58609979453e-06
4.58366168391e-06
4.58094875943e-06
4.57740890086e-06
4.58571589106e-06
4.59007614766e-06
4.5933653032e-06
4.59629274738e-06
4.59872509456e-06
4.60054041495e-06
4.60166309084e-06
4.60204377011e-06
4.60166466959e-06
4.60054339195e-06
4.59872912099e-06
4.59629735296e-06
4.59337002659e-06
4.59008157471e-06
4.58571986373e-06
4.59468351107e-06
4.59985357092e-06
4.60369639127e-06
4.60708140858e-06
4.60987783594e-06
4.61195586656e-06
4.61323669715e-06
4.61367012179e-06
4.61323809135e-06
4.61195849766e-06
4.60988141386e-06
4.60708552753e-06
4.60370067382e-06
4.59985855886e-06
4.59468682294e-06
4.60410293252e-06
4.61002772812e-06
4.61437492721e-06
4.61816253702e-06
4.62127375766e-06
4.62357558728e-06
4.62498956196e-06
4.62546709491e-06
4.62499076765e-06
4.62357786117e-06
4.62127685302e-06
4.61816610893e-06
4.61437866692e-06
4.61003212544e-06
4.60410545427e-06
4.61377687166e-06
4.62036443178e-06
4.6251446995e-06
4.62926392843e-06
4.63262847911e-06
4.63510672016e-06
4.63662383998e-06
4.63713521611e-06
4.636624879e-06
4.63510867663e-06
4.63263112898e-06
4.62926695157e-06
4.62514784498e-06
4.62036813548e-06
4.61377840422e-06
4.62351419343e-06
4.63064430834e-06
4.63577262761e-06
4.64014562687e-06
4.64369659649e-06
4.64629995356e-06
4.64788799576e-06
4.64842220304e-06
4.64788891695e-06
4.64630167164e-06
4.64369891124e-06
4.64014820608e-06
4.63577524602e-06
4.63064729193e-06
4.62351472013e-06
4.63312498865e-06
4.64067343557e-06
4.64606394069e-06
4.6506118167e-06
4.65427982639e-06
4.65695488419e-06
4.65858040999e-06
4.65912613264e-06
4.65858127107e-06
4.65695651695e-06
4.6542819833e-06
4.65061417096e-06
4.64606620955e-06
4.64067584818e-06
4.63312462864e-06
4.64259074866e-06
4.65044837159e-06
4.65595601968e-06
4.66056710957e-06
4.66425398789e-06
4.66692701885e-06
4.66854511189e-06
4.66908721892e-06
4.66854599807e-06
4.66692868362e-06
4.66425620994e-06
4.66056946136e-06
4.65595821792e-06
4.65045031848e-06
4.64258980061e-06
4.65275240379e-06
4.66002158887e-06
4.66539179573e-06
4.66989646659e-06
4.67345324332e-06
4.67601594036e-06
4.67756178897e-06
4.67807881365e-06
4.67756269324e-06
4.67601769235e-06
4.67345560141e-06
4.66989901352e-06
4.66539398856e-06
4.6600230651e-06
4.65275130766e-06
5.38483638286e-06
5.38466240192e-06
5.38446284351e-06
5.38423618824e-06
5.38402559103e-06
5.38385461348e-06
5.38374296339e-06
5.38370303477e-06
5.3837399494e-06
5.38384890387e-06
5.38401783806e-06
5.38422700383e-06
5.38445098154e-06
5.38464946276e-06
5.38482131621e-06
5.38520343388e-06
5.38504817893e-06
5.38486282327e-06
5.38464867302e-06
5.38444750161e-06
5.38428311475e-06
5.38417524575e-06
5.38413649543e-06
5.38417213625e-06
5.3842772029e-06
5.3844394429e-06
5.38463905869e-06
5.38485075892e-06
5.38503470665e-06
5.38518801005e-06
5.38578379166e-06
5.38565656008e-06
5.38549777462e-06
5.3853051524e-06
5.3851208072e-06
5.38496845974e-06
5.38486783308e-06
5.38483152663e-06
5.38486481455e-06
5.38496269029e-06
5.38511285166e-06
5.38529553664e-06
5.38548592286e-06
5.38564321333e-06
5.38576848844e-06
5.38621435044e-06
5.38609835192e-06
5.38595384552e-06
5.38577194659e-06
5.38559590975e-06
5.38544950403e-06
5.38535251123e-06
5.38531748939e-06
5.38534964365e-06
5.38544398435e-06
5.38558817705e-06
5.38576246897e-06
5.38594230828e-06
5.38608543567e-06
5.38619916742e-06
5.38649152177e-06
5.38637803139e-06
5.38624132269e-06
5.38606568313e-06
5.38589526937e-06
5.3857533494e-06
5.38565927976e-06
5.38562532652e-06
5.38565654485e-06
5.38574806602e-06
5.38588780283e-06
5.38605643907e-06
5.38623010216e-06
5.38636557091e-06
5.38647652005e-06
5.38668275019e-06
5.38657440318e-06
5.38644779665e-06
5.38628232032e-06
5.38612179893e-06
5.38598811989e-06
5.38589952297e-06
5.38586753751e-06
5.3858969234e-06
5.38598307921e-06
5.38611461302e-06
5.38627334646e-06
5.38643695005e-06
5.3865623038e-06
5.38666807243e-06
5.38683987465e-06
5.38674670687e-06
5.3866381956e-06
5.38649156247e-06
5.38634908615e-06
5.38623024129e-06
5.38615138355e-06
5.38612284191e-06
5.38614891104e-06
5.38622543725e-06
5.38634219682e-06
5.38648289475e-06
5.38662774506e-06
5.38673499546e-06
5.38682547258e-06
5.38700361494e-06
5.38694056002e-06
5.38686106397e-06
5.38674400064e-06
5.38662910366e-06
5.3865325245e-06
5.38646812788e-06
5.38644464757e-06
5.38646577323e-06
5.38652793946e-06
5.38662248774e-06
5.38673561152e-06
5.38685095716e-06
5.38692920636e-06
5.38698941293e-06
5.38720772345e-06
5.38719178313e-06
5.38715277772e-06
5.38707571397e-06
5.38699730838e-06
5.38692974811e-06
5.3868840171e-06
5.3868670242e-06
5.38688176947e-06
5.38692536049e-06
5.3869909476e-06
5.38706758714e-06
5.38714296335e-06
5.38718072498e-06
5.38719370264e-06
5.38747768579e-06
5.38752483089e-06
5.38753619864e-06
5.38750732161e-06
5.38747206392e-06
5.38743840469e-06
5.38741432308e-06
5.38740481735e-06
5.38741216616e-06
5.38743418579e-06
5.38746591453e-06
5.38749940498e-06
5.38752660753e-06
5.38751396936e-06
5.38746378928e-06
5.38782941033e-06
5.387951895e-06
5.3880202151e-06
5.38804419275e-06
5.38805557632e-06
5.38805826276e-06
5.38805725091e-06
5.38805570661e-06
5.3880551741e-06
5.38805419268e-06
5.38804961741e-06
5.38803645812e-06
5.38801081056e-06
5.38794117805e-06
5.38781558287e-06
5.38826671285e-06
5.38847186707e-06
5.38859999387e-06
5.38867793583e-06
5.38873641299e-06
5.38877559616e-06
5.38879769383e-06
5.38880409029e-06
5.3887956925e-06
5.38877166017e-06
5.38873062229e-06
5.38867036993e-06
5.38859074841e-06
5.3884612869e-06
5.38825299103e-06
5.38878438212e-06
5.38907651271e-06
5.38926342268e-06
5.38939216683e-06
5.3894949735e-06
5.38956869261e-06
5.38961262126e-06
5.38962656788e-06
5.38961069074e-06
5.38956489192e-06
5.38948936869e-06
5.3893847805e-06
5.38925435572e-06
5.38906606544e-06
5.3887707833e-06
5.38943274475e-06
5.38980885614e-06
5.39002426394e-06
5.3901840146e-06
5.39031679293e-06
5.39041496491e-06
5.39047473733e-06
5.39049414026e-06
5.39047287523e-06
5.39041132248e-06
5.39031138157e-06
5.39017685709e-06
5.39001541493e-06
5.38979853204e-06
5.38941943653e-06
5.39052001092e-06
5.39070392513e-06
5.39086831724e-06
5.39101410772e-06
5.39114486283e-06
5.39124501217e-06
5.39130692901e-06
5.39132724672e-06
5.39130512706e-06
5.39124146719e-06
5.39113962397e-06
5.39100712471e-06
5.39085956716e-06
5.39069345744e-06
5.39050695649e-06
4.16014402574e-06
4.16030026361e-06
4.16048854745e-06
4.16067869762e-06
4.16084972377e-06
4.16098404028e-06
4.1610697642e-06
4.16109951904e-06
4.16107040429e-06
4.16098509044e-06
4.16085063743e-06
4.16067841332e-06
4.16048665688e-06
4.16029598658e-06
4.16013947285e-06
4.16035255863e-06
4.16050987759e-06
4.16070182641e-06
4.16089540673e-06
4.16107048611e-06
4.16120843848e-06
4.16129673741e-06
4.16132748236e-06
4.16129751127e-06
4.16120973848e-06
4.16107171397e-06
4.16089544888e-06
4.16069999027e-06
4.16050571983e-06
4.16034752311e-06
4.16042054956e-06
4.16056891914e-06
4.16075461659e-06
4.16094237399e-06
4.16111375486e-06
4.16124930692e-06
4.16133631579e-06
4.16136661861e-06
4.16133695608e-06
4.16125036146e-06
4.16111467843e-06
4.16094222713e-06
4.16075261819e-06
4.160565001e-06
4.16041542636e-06
4.16046456803e-06
4.16060580923e-06
4.16078656086e-06
4.16096857928e-06
4.16113579425e-06
4.16126837519e-06
4.16135362641e-06
4.16138328625e-06
4.16135407645e-06
4.16126907397e-06
4.16113626461e-06
4.16096805118e-06
4.16078434279e-06
4.16060192048e-06
4.16045942282e-06
4.16051335511e-06
4.16064890475e-06
4.16082639462e-06
4.16100307787e-06
4.16116601528e-06
4.16129540046e-06
4.16137866671e-06
4.16140761242e-06
4.16137896223e-06
4.16129580965e-06
4.16116613811e-06
4.16100224431e-06
4.16082405819e-06
4.16064502665e-06
4.16050821131e-06
4.16055744213e-06
4.16068707382e-06
4.16086212338e-06
4.16103308847e-06
4.16119119668e-06
4.16131680615e-06
4.16139768432e-06
4.16142575825e-06
4.16139781916e-06
4.16131691951e-06
4.16119094262e-06
4.16103192316e-06
4.16085957337e-06
4.1606832792e-06
4.16055213238e-06
4.16059182795e-06
4.16071606396e-06
4.16088951588e-06
4.16105496066e-06
4.16120821171e-06
4.16132996243e-06
4.16140836364e-06
4.16143553379e-06
4.16140835448e-06
4.16132981622e-06
4.1612076358e-06
4.16105352285e-06
4.16088679163e-06
4.16071234203e-06
4.16058643957e-06
4.16061859701e-06
4.16073941659e-06
4.16091292024e-06
4.16107412481e-06
4.16122334721e-06
4.16134183681e-06
4.16141809286e-06
4.16144447415e-06
4.16141794745e-06
4.16134143892e-06
4.16122246712e-06
4.1610724236e-06
4.16091008239e-06
4.16073574039e-06
4.16061326073e-06
4.16064289121e-06
4.16076370659e-06
4.16093974995e-06
4.16109877269e-06
4.16124548928e-06
4.16136183969e-06
4.16143663014e-06
4.16146245449e-06
4.16143637113e-06
4.16136123526e-06
4.16124436769e-06
4.1610968743e-06
4.16093685231e-06
4.16076011202e-06
4.1606375818e-06
4.16067095652e-06
4.16079679773e-06
4.16097824621e-06
4.16113748933e-06
4.16128345475e-06
4.16139892116e-06
4.16147300247e-06
4.16149851857e-06
4.16147264636e-06
4.16139814673e-06
4.16128213437e-06
4.16113544719e-06
4.16097533368e-06
4.16079332758e-06
4.16066572266e-06
4.1607098169e-06
4.16084682679e-06
4.16103621309e-06
4.16119772458e-06
4.16134434902e-06
4.16145994197e-06
4.16153389251e-06
4.16155930447e-06
4.16153346845e-06
4.16145904715e-06
4.1613428993e-06
4.16119558757e-06
4.1610333125e-06
4.16084345083e-06
4.1607046186e-06
4.16076467399e-06
4.16091975867e-06
4.16111899928e-06
4.16128418634e-06
4.1614324396e-06
4.16154878382e-06
4.16162297385e-06
4.16164838607e-06
4.16162250953e-06
4.16154782369e-06
4.16143091579e-06
4.16128202018e-06
4.16111613614e-06
4.16091645206e-06
4.16075947292e-06
4.16083843582e-06
4.16101902931e-06
4.16122923476e-06
4.16139873233e-06
4.16154928164e-06
4.16166692467e-06
4.16174158428e-06
4.16176711318e-06
4.16174110638e-06
4.16166593623e-06
4.16154776084e-06
4.16139657887e-06
4.16122643858e-06
4.16101577247e-06
4.1608332424e-06
4.16096851527e-06
4.1611795707e-06
4.16138634906e-06
4.16155214822e-06
4.16170002746e-06
4.16181533407e-06
4.16188828118e-06
4.16191310417e-06
4.1618877978e-06
4.16181438018e-06
4.16169853722e-06
4.16155007618e-06
4.16138363846e-06
4.16117631881e-06
4.16096329448e-06
4.16140911922e-06
4.16151693065e-06
4.16165420496e-06
4.16177301314e-06
4.16188628646e-06
4.16197611174e-06
4.1620331418e-06
4.16205255848e-06
4.16203266891e-06
4.16197515643e-06
4.16188484383e-06
4.1617709843e-06
4.16165150299e-06
4.16151352339e-06
4.1614040296e-06
4.21666799901e-06
4.21659456261e-06
4.21651587266e-06
4.21642822416e-06
4.21634911923e-06
4.21628575853e-06
4.2162444286e-06
4.21622954086e-06
4.21624305453e-06
4.21628337733e-06
4.21634642183e-06
4.21642518727e-06
4.21651163917e-06
4.2165902799e-06
4.21666179679e-06
4.21676574671e-06
4.21669873175e-06
4.21662403878e-06
4.21653960773e-06
4.2164626834e-06
4.21640058375e-06
4.21635990725e-06
4.21634520335e-06
4.21635850086e-06
4.21639812561e-06
4.21645983557e-06
4.2165364435e-06
4.21661976322e-06
4.21669406836e-06
4.21675930919e-06
4.21694978675e-06
4.21689354001e-06
4.21682858226e-06
4.21675167948e-06
4.21668033604e-06
4.21662196868e-06
4.21658349938e-06
4.21656954252e-06
4.21658213406e-06
4.21661953764e-06
4.21667740779e-06
4.21674838266e-06
4.21682437278e-06
4.21688884316e-06
4.21694349933e-06
4.21710576496e-06
4.21705530728e-06
4.21699711086e-06
4.21692491251e-06
4.2168569343e-06
4.21680066106e-06
4.21676341852e-06
4.21674989527e-06
4.21676211771e-06
4.21679829513e-06
4.2168539518e-06
4.21692152182e-06
4.2169929749e-06
4.21705077969e-06
4.21709961065e-06
4.21722424781e-06
4.21717560779e-06
4.21712138103e-06
4.21705144474e-06
4.21698501334e-06
4.21692962022e-06
4.21689285909e-06
4.21687951566e-06
4.21689161844e-06
4.2169273346e-06
4.21698205879e-06
4.21704805557e-06
4.21711733828e-06
4.21717131699e-06
4.21721822981e-06
4.21731705082e-06
4.21726840976e-06
4.21721660515e-06
4.21714783298e-06
4.21708219447e-06
4.21702722995e-06
4.21699071183e-06
4.21697747539e-06
4.21698953996e-06
4.21702504708e-06
4.21707930587e-06
4.21714449342e-06
4.21721269562e-06
4.21726423853e-06
4.21731128802e-06
4.21739124702e-06
4.21734162343e-06
4.21729174489e-06
4.21722386995e-06
4.21715896368e-06
4.21710453785e-06
4.21706836963e-06
4.21705528497e-06
4.21706726908e-06
4.21710247397e-06
4.21715619193e-06
4.21722063579e-06
4.21728801779e-06
4.21733761344e-06
4.21738567634e-06
4.21745149644e-06
4.21740100691e-06
4.21735334766e-06
4.21728677829e-06
4.21722312849e-06
4.21716978943e-06
4.21713436876e-06
4.21712158194e-06
4.21713334161e-06
4.21716785149e-06
4.21722048654e-06
4.21728365228e-06
4.21734976157e-06
4.21739714096e-06
4.21744602165e-06
4.21750271747e-06
4.2174526435e-06
4.21740817912e-06
4.21734397936e-06
4.21728266911e-06
4.21723139413e-06
4.21719738326e-06
4.21718513075e-06
4.21719642919e-06
4.21722958304e-06
4.21728017183e-06
4.21734098081e-06
4.21740472146e-06
4.21744890459e-06
4.21749733282e-06
4.21755035489e-06
4.21750300245e-06
4.217463187e-06
4.21740286603e-06
4.21734534496e-06
4.21729739405e-06
4.21726565476e-06
4.21725423464e-06
4.21726476749e-06
4.2172957025e-06
4.21734297777e-06
4.21739997445e-06
4.2174598188e-06
4.21749932353e-06
4.21754503859e-06
4.21759979294e-06
4.21755815211e-06
4.21752460831e-06
4.21746980862e-06
4.21741768234e-06
4.21737448004e-06
4.21734596165e-06
4.21733571769e-06
4.2173451353e-06
4.21737289312e-06
4.21741544072e-06
4.21746701482e-06
4.21752132441e-06
4.21755451453e-06
4.21759452943e-06
4.21765531535e-06
4.21762276723e-06
4.21759693457e-06
4.21754915857e-06
4.21750410494e-06
4.21746712419e-06
4.21744286882e-06
4.21743414223e-06
4.21744209287e-06
4.21746562916e-06
4.21750195381e-06
4.21754645227e-06
4.21759371309e-06
4.21761918927e-06
4.21765014687e-06
4.21772185333e-06
4.21770111967e-06
4.21768328693e-06
4.21764339617e-06
4.21760685839e-06
4.21757762273e-06
4.21755859568e-06
4.21755178703e-06
4.21755786248e-06
4.21757618095e-06
4.21760480349e-06
4.2176407395e-06
4.21768012731e-06
4.2176975845e-06
4.21771679347e-06
4.21782233133e-06
4.2178132074e-06
4.2177950432e-06
4.21775912618e-06
4.21772963878e-06
4.21770724994e-06
4.21769309619e-06
4.21768798045e-06
4.21769237594e-06
4.21770587654e-06
4.21772761242e-06
4.21775654354e-06
4.21779191073e-06
4.21780970292e-06
4.21781744358e-06
4.21804466112e-06
4.21798768296e-06
4.21794267913e-06
4.21789700301e-06
4.2178651584e-06
4.21784284295e-06
4.21782920228e-06
4.21782438655e-06
4.21782848829e-06
4.2178414381e-06
4.21786313244e-06
4.21789435069e-06
4.21793946612e-06
4.21798397626e-06
4.21803990614e-06
3.55499845929e-06
3.55505329543e-06
3.55511829839e-06
3.55518539097e-06
3.55524636152e-06
3.55529479866e-06
3.55532621009e-06
3.55533768667e-06
3.55532802683e-06
3.55529819276e-06
3.5552508285e-06
3.55519022059e-06
3.55512298628e-06
3.55505684783e-06
3.55500221968e-06
3.55508126592e-06
3.55513657421e-06
3.55520313232e-06
3.55527149166e-06
3.55533388906e-06
3.55538360403e-06
3.55541592584e-06
3.55542776479e-06
3.55541783398e-06
3.5553871671e-06
3.55533856106e-06
3.55527650027e-06
3.55520784293e-06
3.55514021455e-06
3.55508462069e-06
3.55511725059e-06
3.55517000668e-06
3.55523501969e-06
3.55530173636e-06
3.55536311655e-06
3.55541213654e-06
3.55544405386e-06
3.55545571558e-06
3.55544582323e-06
3.55541544416e-06
3.55536746854e-06
3.55530647338e-06
3.55523947948e-06
3.55517375544e-06
3.55512048173e-06
3.55514357544e-06
3.55519480331e-06
3.55525870689e-06
3.5553240284e-06
3.55538439792e-06
3.55543268134e-06
3.55546413257e-06
3.55547557382e-06
3.55546571959e-06
3.55543565263e-06
3.55538831993e-06
3.55532833917e-06
3.55526283584e-06
3.55519841959e-06
3.5551467415e-06
3.55517171539e-06
3.55522223556e-06
3.55528574823e-06
3.55535009534e-06
3.55540966238e-06
3.55545732918e-06
3.55548836028e-06
3.55549960551e-06
3.55548978603e-06
3.55546000025e-06
3.55541321224e-06
3.55535403281e-06
3.55528962538e-06
3.55522569883e-06
3.55517479234e-06
3.55519953955e-06
3.55524941806e-06
3.55531299806e-06
3.55537632103e-06
3.55543498672e-06
3.55548190361e-06
3.55551242285e-06
3.55552343504e-06
3.55551369416e-06
3.55548428942e-06
3.5554381678e-06
3.55537987366e-06
3.55531653222e-06
3.55525276768e-06
3.55520235261e-06
3.5552250121e-06
3.55527444886e-06
3.555338191e-06
3.55540040293e-06
3.55545800825e-06
3.55550400494e-06
3.55553388476e-06
3.55554461975e-06
3.55553501126e-06
3.55550612674e-06
3.55546085343e-06
3.55540361903e-06
3.5553414237e-06
3.55527767602e-06
3.55522761265e-06
3.5552478323e-06
3.55529716373e-06
3.55536110345e-06
3.55542214306e-06
3.55547850046e-06
3.55552340164e-06
3.55555251097e-06
3.55556292819e-06
3.55555350481e-06
3.555525278e-06
3.55548103344e-06
3.55542503731e-06
3.55536406924e-06
3.55530022668e-06
3.5552503103e-06
3.5552683895e-06
3.55531790481e-06
3.5553821302e-06
3.55544193171e-06
3.55549687847e-06
3.55554053111e-06
3.55556875864e-06
3.55557882358e-06
3.55556963692e-06
3.55554219403e-06
3.55549914673e-06
3.55544455955e-06
3.55538488655e-06
3.55532084212e-06
3.55527070051e-06
3.555287189e-06
3.5553375048e-06
3.55540211266e-06
3.55546058397e-06
3.55551394457e-06
3.55555617819e-06
3.55558341926e-06
3.55559309349e-06
3.55558419597e-06
3.55555765934e-06
3.55551597905e-06
3.55546298495e-06
3.5554046932e-06
3.55534034589e-06
3.55528937019e-06
3.55530532247e-06
3.55535733019e-06
3.55542231195e-06
3.5554792824e-06
3.55553081095e-06
3.55557145545e-06
3.55559758698e-06
3.55560684301e-06
3.55559828404e-06
3.55557278766e-06
3.55553266555e-06
3.55548149515e-06
3.55542474881e-06
3.55536006376e-06
3.555307333e-06
3.55532373639e-06
3.55537872651e-06
3.55544404139e-06
3.55549927816e-06
3.55554879063e-06
3.55558767579e-06
3.55561263125e-06
3.55562143075e-06
3.55561326313e-06
3.55558889936e-06
3.55555048773e-06
3.55550134789e-06
3.5554463498e-06
3.55538133787e-06
3.55532554876e-06
3.55534342382e-06
3.5554030564e-06
3.55546856747e-06
3.55552188134e-06
3.55556929423e-06
3.55560651765e-06
3.55563027774e-06
3.5556386733e-06
3.55563086813e-06
3.55560763228e-06
3.55557089745e-06
3.55552380862e-06
3.55547076645e-06
3.55540553031e-06
3.55534504157e-06
3.55537817729e-06
3.55544345117e-06
3.55550405937e-06
3.55555250785e-06
3.55559617962e-06
3.5556304333e-06
3.55565232942e-06
3.55566000375e-06
3.55565286618e-06
3.55563150353e-06
3.55559766342e-06
3.5555543603e-06
3.5555061356e-06
3.55544576792e-06
3.55537952914e-06
3.55551623008e-06
3.55554388536e-06
3.55557658056e-06
3.55560510291e-06
3.55563360852e-06
3.55565663745e-06
3.55567145154e-06
3.55567672553e-06
3.55567196223e-06
3.5556576159e-06
3.55563502208e-06
3.55560682634e-06
3.55557853502e-06
3.55554598999e-06
3.55551756673e-06
3.32170196929e-06
3.32168135697e-06
3.32166115947e-06
3.32163766335e-06
3.32161576774e-06
3.32159780878e-06
3.32158616013e-06
3.32158208521e-06
3.32158611773e-06
3.32159776641e-06
3.32161580442e-06
3.3216381172e-06
3.32166235604e-06
3.32168361572e-06
3.32170281234e-06
3.32174982344e-06
3.32173179827e-06
3.32171321883e-06
3.32169105882e-06
3.32167010351e-06
3.32165274817e-06
3.32164140695e-06
3.32163741429e-06
3.32164133242e-06
3.32165264167e-06
3.32167007085e-06
3.32169144169e-06
3.32171436792e-06
3.32173384669e-06
3.32175061581e-06
3.32182160587e-06
3.32180721356e-06
3.32179160224e-06
3.32177173535e-06
3.32175254317e-06
3.32173641605e-06
3.32172578584e-06
3.32172202609e-06
3.3217257198e-06
3.32173633521e-06
3.32175256326e-06
3.32177215951e-06
3.32179276986e-06
3.32180906735e-06
3.32182242857e-06
3.32188106938e-06
3.32186839524e-06
3.32185476288e-06
3.32183609637e-06
3.32181785611e-06
3.3218023693e-06
3.32179209215e-06
3.32178845194e-06
3.32179205209e-06
3.3218023527e-06
3.32181799444e-06
3.321836653e-06
3.3218559848e-06
3.32187024353e-06
3.3218818655e-06
3.32192678248e-06
3.32191448175e-06
3.32190193989e-06
3.32188367156e-06
3.32186574898e-06
3.3218504406e-06
3.32184024449e-06
3.32183663676e-06
3.3218402392e-06
3.32185049755e-06
3.32186600301e-06
3.32188435804e-06
3.32190321785e-06
3.32191638583e-06
3.32192759474e-06
3.32196291101e-06
3.32195047427e-06
3.32193842726e-06
3.32192018563e-06
3.32190229796e-06
3.32188698994e-06
3.32187677783e-06
3.32187317586e-06
3.32187681744e-06
3.32188713821e-06
3.32190269004e-06
3.32192102475e-06
3.32193979594e-06
3.321952352e-06
3.32196383891e-06
3.32199196495e-06
3.32197899727e-06
3.32196724887e-06
3.32194893923e-06
3.32193100494e-06
3.32191566761e-06
3.32190543571e-06
3.32190184429e-06
3.32190552257e-06
3.32191590775e-06
3.32193152239e-06
3.32194990374e-06
3.32196871033e-06
3.32198086191e-06
3.32199294065e-06
3.32201557564e-06
3.32200201799e-06
3.32199061482e-06
3.32197229365e-06
3.32195439599e-06
3.32193913322e-06
3.32192896459e-06
3.3219254147e-06
3.32192909932e-06
3.32193946408e-06
3.32195502861e-06
3.32197335399e-06
3.32199211226e-06
3.32200384717e-06
3.32201648776e-06
3.32203529881e-06
3.32202151302e-06
3.32201067087e-06
3.32199258661e-06
3.32197496219e-06
3.32195998269e-06
3.32195002393e-06
3.32194656444e-06
3.32195019902e-06
3.32196038506e-06
3.32197567541e-06
3.32199369906e-06
3.32201215483e-06
3.32202327048e-06
3.3220361277e-06
3.32205285709e-06
3.32203950756e-06
3.32202954398e-06
3.32201204943e-06
3.32199501725e-06
3.32198061188e-06
3.32197106009e-06
3.32196776186e-06
3.32197126517e-06
3.32198106316e-06
3.32199577631e-06
3.32201315981e-06
3.32203095454e-06
3.32204112209e-06
3.32205355346e-06
3.32206986798e-06
3.32205781212e-06
3.32204910209e-06
3.32203258149e-06
3.32201651992e-06
3.32200302123e-06
3.32199410845e-06
3.32199104732e-06
3.32199432627e-06
3.32200349185e-06
3.32201727813e-06
3.32203364231e-06
3.32205040242e-06
3.32205925599e-06
3.3220704086e-06
3.32208753873e-06
3.32207781691e-06
3.32207071258e-06
3.32205552027e-06
3.32204083648e-06
3.32202864069e-06
3.32202063567e-06
3.32201790534e-06
3.32202085219e-06
3.32202909109e-06
3.32204155445e-06
3.32205648461e-06
3.32207186054e-06
3.32207909105e-06
3.32208794127e-06
3.32210727486e-06
3.32210089847e-06
3.32209543551e-06
3.32208173726e-06
3.32206885727e-06
3.3220583897e-06
3.32205161896e-06
3.32204932197e-06
3.32205180976e-06
3.32205880256e-06
3.32206948718e-06
3.32208257278e-06
3.32209641392e-06
3.32210198551e-06
3.32210754401e-06
3.32213764493e-06
3.32213468285e-06
3.32212765142e-06
3.32211391075e-06
3.32210217927e-06
3.32209315487e-06
3.32208744396e-06
3.32208553305e-06
3.32208759926e-06
3.32209348621e-06
3.3221026972e-06
3.32211457717e-06
3.32212842797e-06
3.32213555649e-06
3.32213778465e-06
3.32221555103e-06
3.32219115101e-06
3.32217221872e-06
3.32215292172e-06
3.32213869286e-06
3.32212845842e-06
3.32212220541e-06
3.3221201161e-06
3.32212229894e-06
3.32212866788e-06
3.32213902511e-06
3.32215334634e-06
3.32217271283e-06
3.32219171346e-06
3.32221557935e-06
2.89227143922e-06
2.89228363755e-06
2.89229982561e-06
2.89231748483e-06
2.89233412335e-06
2.89234758372e-06
2.8923564054e-06
2.8923598114e-06
2.89235752647e-06
2.89234982025e-06
2.89233744688e-06
2.89232160267e-06
2.89230426612e-06
2.89228736579e-06
2.89227485588e-06
2.89230338777e-06
2.89231593698e-06
2.89233296897e-06
2.89235124528e-06
2.89236851121e-06
2.89238249461e-06
2.8923916747e-06
2.89239522497e-06
2.89239284244e-06
2.89238482122e-06
2.89237196079e-06
2.89235551624e-06
2.89233753233e-06
2.89231987927e-06
2.89230657395e-06
2.89232965925e-06
2.89234242554e-06
2.89236003171e-06
2.89237848093e-06
2.89239595894e-06
2.89241008315e-06
2.89241937067e-06
2.89242294759e-06
2.89242050042e-06
2.89241232872e-06
2.89239926526e-06
2.89238259526e-06
2.89236442741e-06
2.89234645952e-06
2.89233282878e-06
2.89235181604e-06
2.89236500378e-06
2.89238309981e-06
2.89240172279e-06
2.89241931979e-06
2.89243349997e-06
2.89244282612e-06
2.89244639904e-06
2.89244389967e-06
2.89243562839e-06
2.89242243814e-06
2.89240562613e-06
2.89238734906e-06
2.89236903352e-06
2.89235511204e-06
2.89237234395e-06
2.8923859594e-06