/*--------------------------------*- C++ -*----------------------------------*\
  =========                 |
  \\      /  F ield         | OpenFOAM: The Open Source CFD Toolbox
   \\    /   O peration     | Website:  https://openfoam.org
    \\  /    A nd           | Version:  7
     \\/     M anipulation  |
\*---------------------------------------------------------------------------*/
FoamFile
{
    version     2.0;
    format      ascii;
    class       volVectorField;
    location    "1.46";
    object      U;
}
// * * * * * * * * * * * * * * * * * * * * * * * * * * * * * * * * * * * * * //

dimensions      [0 1 -1 0 0 0 0];

internalField   nonuniform List<vector> 
22500
(
(1.36859390361e-05 1.54175072577e-05 0.00021427978935)
(1.26755369093e-05 1.7416398223e-05 0.000224753346964)
(1.10435702325e-05 1.9402131679e-05 0.000234217951868)
(9.25078022897e-06 2.10684004241e-05 0.000242362932182)
(7.16977895898e-06 2.24348976566e-05 0.000248954657281)
(4.89939881065e-06 2.34433921176e-05 0.000253801456083)
(2.48809021279e-06 2.40626023025e-05 0.000256767860683)
(3.84504570265e-09 2.42717519446e-05 0.000257771840674)
(-2.48053090997e-06 2.40629872249e-05 0.00025676794035)
(-4.89220173789e-06 2.34441119869e-05 0.000253801634084)
(-7.16320578276e-06 2.24358118298e-05 0.000248954929912)
(-9.24508460934e-06 2.10693641863e-05 0.000242363284002)
(-1.10391346338e-05 1.94028430699e-05 0.000234218531948)
(-1.26722484578e-05 1.74170002662e-05 0.000224755597286)
(-1.3684253361e-05 1.54179152508e-05 0.000214291504151)
(3.99034885497e-05 4.4946103532e-05 0.000560589705618)
(3.69092001801e-05 5.06353222138e-05 0.000583872803593)
(3.22750788582e-05 5.6239906701e-05 0.000604609884594)
(2.70156791753e-05 6.09941270987e-05 0.000622259061529)
(2.09533958806e-05 6.48975395844e-05 0.000636415524594)
(1.43192437711e-05 6.77829431746e-05 0.000646755965349)
(7.27143132467e-06 6.95567963024e-05 0.000653055972465)
(9.26458444541e-09 7.01558063612e-05 0.000655180420769)
(-7.25317803531e-06 6.95575389757e-05 0.000653056344753)
(-1.43017779059e-05 6.7784317883e-05 0.000646756733854)
(-2.09372551548e-05 6.48992528157e-05 0.000636416624413)
(-2.70014210401e-05 6.09958812516e-05 0.000622260380817)
(-3.22634382111e-05 5.62411554537e-05 0.000604611781954)
(-3.69000826096e-05 5.06364744077e-05 0.000583879372481)
(-3.98983023774e-05 4.49469852595e-05 0.000560618397285)
(6.02327484151e-05 6.77172461112e-05 0.000840254234928)
(5.54475033285e-05 7.5868806706e-05 0.000870864900506)
(4.83928151603e-05 8.38370584746e-05 0.000897764592479)
(4.03861143035e-05 9.05813943156e-05 0.000920438908633)
(3.12601651603e-05 9.60966493174e-05 0.000938486309762)
(2.13284079917e-05 0.000100162804033 0.000951593940076)
(1.08201511013e-05 0.000102658066062 0.00095954829251)
(1.39766455707e-08 0.000103499727185 0.000962222632479)
(-1.0792580171e-05 0.000102658704569 0.000959548700203)
(-2.13019530822e-05 0.000100163941389 0.000951594778917)
(-3.12355838503e-05 9.60979347655e-05 0.000938487438879)
(-4.03641895122e-05 9.05824548855e-05 0.00092044009521)
(-4.83745208104e-05 8.38373588048e-05 0.000897766182876)
(-5.54328421046e-05 7.58689884585e-05 0.000870872359786)
(-6.02239149387e-05 6.77172989248e-05 0.000840291491108)
(7.58847876275e-05 8.51458824998e-05 0.00106673607418)
(6.95252648647e-05 9.48210888779e-05 0.00110087883424)
(6.05171302159e-05 0.0001042328734 0.00113045562235)
(5.03445990633e-05 0.000112155398157 0.00115513416427)
(3.88780788447e-05 0.000118605993936 0.00117461997046)
(2.64786872127e-05 0.000123345660589 0.00118868877284)
(1.34182659881e-05 0.000126247772637 0.00119719143227)
(1.7327429134e-08 0.000127225390472 0.00120004201991)
(-1.33840589958e-05 0.000126248277018 0.0011971915824)
(-2.64458044964e-05 0.000123346518417 0.00118868907185)
(-3.88474122956e-05 0.000118606849525 0.00117462016254)
(-5.03170317742e-05 0.000112155853847 0.00115513381131)
(-6.04937113817e-05 0.000104232451616 0.00113045475051)
(-6.95060346417e-05 9.48205724862e-05 0.00110088295127)
(-7.58724098302e-05 8.51453282788e-05 0.00106677152698)
(8.78069271234e-05 9.83594785925e-05 0.00125016102765)
(8.00876953472e-05 0.000108851517233 0.00128518231576)
(6.95073478001e-05 0.000119027760325 0.00131504158803)
(5.76429904087e-05 0.000127538234751 0.00133967351884)
(4.44102249254e-05 0.000134435640316 0.0013589509277)
(3.01926181802e-05 0.000139485716314 0.00137277852932)
(1.52836792336e-05 0.000142570658487 0.00138109786236)
(1.97317870317e-08 0.000143608514083 0.00138387892615)
(-1.52447078821e-05 0.000142571070672 0.00138109750571)
(-3.01551098282e-05 0.000139486389413 0.00137277775861)
(-4.43751529615e-05 0.000134436235821 0.0013589493192)
(-5.76112770519e-05 0.000127538365495 0.00133967031064)
(-6.94800004107e-05 0.000119026981601 0.00131503618092)
(-8.00647571056e-05 0.000108850710491 0.00128517948596)
(-8.77912519808e-05 9.83586675449e-05 0.00125018725266)
(9.65025815107e-05 0.000107934540939 0.00139837734278)
(8.76315173446e-05 0.000118664541976 0.00143243550566)
(7.58159039364e-05 0.000129055173312 0.00146095335661)
(6.26768967293e-05 0.000137683868196 0.00148417033145)
(4.81740647872e-05 0.000144642052445 0.00150215611976)
(3.26928686651e-05 0.000149718059144 0.0015149606404)
(1.65313209532e-05 0.00015281129548 0.00152262498434)
(2.14405942698e-08 0.000153850618816 0.00152517911515)
(-1.64889593382e-05 0.000152811687277 0.00152262395542)
(-3.26520561258e-05 0.000149718697531 0.00151495843476)
(-4.8135814824e-05 0.000144642624567 0.00150215208242)
(-6.26421315891e-05 0.000137684009523 0.00148416324656)
(-7.57855155822e-05 0.000129054474826 0.00146094175769)
(-8.76055123555e-05 0.000118663917561 0.00143242316698)
(-9.6483927194e-05 0.000107933954116 0.00139839047717)
(0.00010238291261 0.000114328460231 0.00151765598372)
(9.25611527849e-05 0.000124826570215 0.00154951252537)
(7.98150857623e-05 0.000134986969069 0.00157563388279)
(6.57719454575e-05 0.000143361815558 0.00159656977496)
(5.0431203831e-05 0.000150078740417 0.00161259346745)
(3.41630565247e-05 0.000154960609645 0.00162389978925)
(1.72559825646e-05 0.000157928176286 0.00163062650261)
(2.26605970409e-08 0.000158924067151 0.00163286026559)
(-1.72111976406e-05 0.000157928655225 0.00163062471049)
(-3.41198688188e-05 0.000154961428503 0.00162389593437)
(-5.03906386401e-05 0.000150079615876 0.0016125865999)
(-6.57348977488e-05 0.000143362400897 0.00159655811013)
(-7.97823103112e-05 0.000134986885807 0.00157561494424)
(-9.25325846816e-05 0.000124826693644 0.00154948919521)
(-0.0001023615918 0.000114328659019 0.00151765449838)
(0.000105843657699 0.000117985059214 0.00161312727749)
(9.52639317113e-05 0.000127884613317 0.00164200433056)
(8.18622638515e-05 0.000137466918097 0.00166510428246)
(6.72400837105e-05 0.000145304060287 0.00168327091446)
(5.1431850655e-05 0.000151553772453 0.00169697096288)
(3.47784948481e-05 0.000156079658255 0.0017065324217)
(1.75480411617e-05 0.000158824244589 0.00171217902105)
(2.35669652435e-08 0.00015974430506 0.00171404622583)
(-1.75014521331e-05 0.000158824935833 0.00171217644006)
(-3.47335228032e-05 0.000156080910802 0.0017065268408)
(-5.13895133589e-05 0.000151555325548 0.00169696108701)
(-6.72012373477e-05 0.000145305579387 0.00168325431315)
(-8.18275207482e-05 0.000137468032234 0.00166507743867)
(-9.5233176871e-05 0.000127886117653 0.00164196960116)
(-0.000105819972009 0.000117986646737 0.00161311134199)
(0.00010724809732 0.000119314634178 0.00168905743933)
(9.60923337282e-05 0.000128338492713 0.00171453191395)
(8.22818754437e-05 0.000137077330685 0.00173431246424)
(6.73641076666e-05 0.000144167015454 0.00174950667843)
(5.14024114599e-05 0.000149787683893 0.00176075287311)
(3.46974930028e-05 0.00015384468855 0.001768492726)
(1.74889791027e-05 0.00015629972433 0.001773020371)
(2.43145335883e-08 0.000157122018837 0.0017745096132)
(-1.74408957278e-05 0.000156300758005 0.00177301704181)
(-3.46510246636e-05 0.000153846636447 0.00176848548939)
(-5.13585556426e-05 0.00014979030121 0.00176074006748)
(-6.73236814804e-05 0.000144169967067 0.00174948520565)
(-8.22453695859e-05 0.000137080230659 0.00173427784131)
(-9.60596257967e-05 0.00012834200159 0.00171448649792)
(-0.000107222313535 0.000119318218669 0.00168902865208)
(0.000106920375049 0.000118684727413 0.00174902482669)
(9.53575917608e-05 0.000126628592577 0.00177094329848)
(8.13596486058e-05 0.000134325322671 0.0017873517539)
(6.63932312864e-05 0.00014051740373 0.00179958259295)
(5.05421925095e-05 0.000145399339595 0.00180841569047)
(3.40590863874e-05 0.000148914194878 0.00181438176734)
(1.71502128412e-05 0.000151037825846 0.00181782705709)
(2.50402384591e-08 0.00015174878394 0.00181895213654)
(-1.71006712248e-05 0.000151039317349 0.00181782310933)
(-3.40111370062e-05 0.000148917069292 0.00181437314752)
(-5.04968088608e-05 0.000145403366436 0.00180840039503)
(-6.63511988982e-05 0.000140522235832 0.00179955690171)
(-8.13213763803e-05 0.000134330536118 0.00178731037651)
(-9.53230073024e-05 0.000126634670915 0.00177088919992)
(-0.000106892671426 0.000118690872859 0.00174898625771)
(0.000105147825253 0.000116423959352 0.00179602851981)
(9.33325166957e-05 0.000123137920592 0.00181443421292)
(7.9346305802e-05 0.000129645404742 0.00182759727592)
(6.45468252763e-05 0.000134837407804 0.00183702927505)
(4.90262832295e-05 0.000138913380462 0.001843614913)
(3.29848302095e-05 0.000141844562749 0.00184794538969)
(1.65939364227e-05 0.000143614317124 0.00185039922182)
(2.58619349872e-08 0.000144206845096 0.00185119200269)
(-1.65427363456e-05 0.000143616347591 0.00185039492482)
(-3.29351784715e-05 0.000141848530289 0.00184793597646)
(-4.89791282281e-05 0.000138919070654 0.00184359813109)
(-6.45029418541e-05 0.000134844460719 0.00183700090579)
(-7.93060751031e-05 0.000129653338508 0.00182755142447)
(-9.32959799819e-05 0.000123147017178 0.001814375064)
(-0.000105118252865 0.000116433112659 0.00179598507971)
(0.000102181888249 0.000112825139397 0.0018325451371)
(9.0255969088e-05 0.000118192221582 0.00184761352051)
(7.64645600125e-05 0.000123402517993 0.00185778692657)
(6.20201352101e-05 0.000127532612127 0.00186469992703)
(4.70088995125e-05 0.000130770877525 0.00186929706484)
(3.15803910577e-05 0.000133101710943 0.00187219742187)
(1.58737290966e-05 0.000134509425287 0.00187379089946)
(2.68736387428e-08 0.0001349810427 0.00187429659027)
(-1.58204804467e-05 0.000134512023694 0.00187378673959)
(-3.15286236041e-05 0.000133106829926 0.00187218829632)
(-4.69595401804e-05 0.000130778334893 0.00186928066892)
(-6.19739747314e-05 0.000127542046203 0.00186467176921)
(-7.64220198741e-05 0.000123413389844 0.00185774068371)
(-9.02172728748e-05 0.000118204596923 0.0018475550259)
(-0.000102150346667 0.000112837605266 0.00183250413293)
(9.8235549383e-05 0.000108128051445 0.00186053603766)
(8.63468423713e-05 0.000112050880036 0.00187252386047)
(7.29233262392e-05 0.000115900087248 0.00188006340962)
(5.8991104249e-05 0.000118947512099 0.00188483165885)
(4.46250080509e-05 0.000121346425528 0.00188777656891)
(2.9935318327e-05 0.000123077431221 0.00188950801221)
(1.50341612298e-05 0.000124123392779 0.00189040541349)
(2.81393129736e-08 0.000124474149159 0.0018906802381)
(-1.49783513367e-05 0.000124126509715 0.00189040217298)
(-2.98808995722e-05 0.000123083613659 0.00188950092816)
(-4.45728843411e-05 0.000121355539818 0.00188776364453)
(-5.89421175283e-05 0.000118959232394 0.00188480854649)
(-7.28780141791e-05 0.000115913841106 0.00188002344863)
(-8.63056800292e-05 0.000112066531087 0.00187247423086)
(-9.82018622032e-05 0.0001081438309 0.00186050688528)
(9.35312312545e-05 0.000102504416579 0.00188139379591)
(8.18609206963e-05 0.000104956631235 0.00189063210467)
(6.89369738412e-05 0.000107414153677 0.00189599682933)
(5.56161187552e-05 0.00010940287317 0.00189908736102)
(4.19821320416e-05 0.000110977834063 0.00190079129658)
(2.81169042176e-05 0.000112114211142 0.00190166862009)
(1.41078548998e-05 0.000112799418764 0.0019020660235)
(2.96744504951e-08 0.000113029308933 0.00190217676222)
(-1.40489344121e-05 0.000112802914883 0.00190206478534)
(-2.80592656168e-05 0.000112121186111 0.00190166602513)
(-4.19266531656e-05 0.000110988217136 0.00190078625552)
(-5.55637191585e-05 0.000109416430557 0.00189907655005)
(-6.88883879306e-05 0.00010743037953 0.00189597358898)
(-8.18169492321e-05 0.00010497520751 0.00189060295599)
(-9.34950725789e-05 0.000102523250844 0.00188138698099)
(8.83907966954e-05 9.6473836631e-05 0.00189581755937)
(7.71162786698e-05 9.68212462495e-05 0.00190287386797)
(6.46335559413e-05 9.80503919156e-05 0.00190663058136)
(5.19713812794e-05 9.90390378346e-05 0.00190860642985)
(3.91259219797e-05 9.981670295e-05 0.00190955623694)
(2.61536864506e-05 0.000100369512946 0.00190994737516)
(1.31091109906e-05 0.00010069946513 0.00191007221486)
(3.14450483872e-08 0.000100810203661 0.00191009590893)
(-1.30466087312e-05 0.000100703073527 0.00191007394611)
(-2.60923498664e-05 0.000100376744018 0.00190995149021)
(-3.90665861361e-05 9.9827552314e-05 0.0019095632565)
(-5.19150202413e-05 9.90534113112e-05 0.0019086155966)
(-6.45811662429e-05 9.80679342548e-05 0.0019066363996)
(-7.70693094585e-05 9.68418123142e-05 0.00190288662403)
(-8.83515480154e-05 9.64948685237e-05 0.00189583201323)
(3.07944792657e-07 5.251652427e-07 0.000143456577662)
(1.635686857e-07 6.93763226313e-07 0.000150312398567)
(9.43110063282e-08 7.86026651952e-07 0.000156381558064)
(3.88114984208e-08 8.48820605106e-07 0.000161553807078)
(4.54796953886e-09 8.86830895949e-07 0.000165718183769)
(-9.8876672072e-09 9.07603513674e-07 0.000168771457698)
(-9.09404983215e-09 9.17342273044e-07 0.000170638282043)
(3.09171637844e-10 9.20180105908e-07 0.000171271054829)
(9.83376224532e-09 9.17440618652e-07 0.000170638248082)
(1.09900136535e-08 9.07822404799e-07 0.00016877143265)
(-2.94067459062e-09 8.87171116597e-07 0.000165718239995)
(-3.68721467873e-08 8.49235177431e-07 0.000161554085943)
(-9.24067104375e-08 7.86531018447e-07 0.000156382511695)
(-1.61914868205e-07 6.94259297182e-07 0.000150316083725)
(-3.07093076885e-07 5.25716158711e-07 0.000143470662188)
(2.91266839979e-06 3.62908011333e-06 0.000415344422953)
(2.45282015191e-06 4.45623030429e-06 0.000434238477855)
(2.08518555594e-06 5.12506663278e-06 0.000450895003974)
(1.69180401508e-06 5.68387782765e-06 0.000465036198311)
(1.28005857802e-06 6.11969000388e-06 0.000476388078899)
(8.58325699985e-07 6.43103059539e-06 0.000484695361661)
(4.3105845649e-07 6.61783506929e-06 0.000489767188745)
(2.11616318998e-09 6.68030799384e-06 0.000491480954608)
(-4.26581737073e-07 6.61809191239e-06 0.00048976712909)
(-8.53143006426e-07 6.43155854531e-06 0.000484695352251)
(-1.2739444128e-06 6.12045187074e-06 0.000476388312417)
(-1.68515757206e-06 5.68476844857e-06 0.000465037059415)
(-2.0789471121e-06 5.12609748614e-06 0.00045089778879)
(-2.44761468951e-06 4.45731302457e-06 0.000434249156539)
(-2.90992569705e-06 3.63035108931e-06 0.00041538126653)
(6.98859277338e-06 8.23363064002e-06 0.000672463791622)
(6.15692539312e-06 9.90426313713e-06 0.000701908665042)
(5.36195674842e-06 1.1358154258e-05 0.000727733840827)
(4.44954909712e-06 1.26075965211e-05 0.000749567506998)
(3.43206218927e-06 1.3609038939e-05 0.000767034491125)
(2.33511915159e-06 1.43396127554e-05 0.000779785460177)
(1.18325908904e-06 1.47843864576e-05 0.000787556018968)
(4.21514969265e-09 1.4934093335e-05 0.000790175559365)
(-1.17453648959e-06 1.47848214067e-05 0.000787555652804)
(-2.32556393898e-06 1.43404574115e-05 0.000779784877005)
(-3.4214257343e-06 1.36101807913e-05 0.000767033953978)
(-4.4382975883e-06 1.26088565816e-05 0.000749567567472)
(-5.35132693163e-06 1.13595313096e-05 0.000727736395343)
(-6.14793718927e-06 9.90591301455e-06 0.000701922415375)
(-6.98342260405e-06 8.23577871942e-06 0.000672515057895)
(1.18966800567e-05 1.36431696979e-05 0.000913918949371)
(1.06368623949e-05 1.62021341714e-05 0.000952180013906)
(9.33084437081e-06 1.84796428982e-05 0.000985498537553)
(7.78872840667e-06 2.04570445756e-05 0.0010135059609)
(6.03666030109e-06 2.20554726492e-05 0.0010358053012)
(4.121692456e-06 2.32283977485e-05 0.00105202611713)
(2.09301726805e-06 2.39452202694e-05 0.00106188597949)
(6.75624316e-09 2.41868254324e-05 0.00106520234239)
(-2.07923660304e-06 2.39458150156e-05 0.00106188496003)
(-4.10716544497e-06 2.32295335233e-05 0.00105202421511)
(-6.02121437645e-06 2.20569916368e-05 0.00103580275039)
(-7.77288365493e-06 2.04587395252e-05 0.00101350331528)
(-9.31595184332e-06 1.84814663791e-05 0.000985497911385)
(-1.06242017192e-05 1.62044733063e-05 0.000952191536177)
(-1.18888890701e-05 1.36463072659e-05 0.000913973840472)
(1.7109027326e-05 1.92851631256e-05 0.00113812265236)
(1.53813316624e-05 2.26787890238e-05 0.00118321750849)
(1.35240687178e-05 2.57069239122e-05 0.0012221191605)
(1.13040479728e-05 2.83458189728e-05 0.00125457417729)
(8.76996070868e-06 3.04837770051e-05 0.00128025353746)
(5.99188791611e-06 3.20545165952e-05 0.00129884483398)
(3.04391352502e-06 3.30151061625e-05 0.00131010802266)
(9.45257354155e-09 3.33388678354e-05 0.00131388733851)
(-3.02480538447e-06 3.3015872208e-05 0.00131010597597)
(-5.97223748238e-06 3.20559793091e-05 0.00129884082095)
(-8.74972015292e-06 3.04857593757e-05 0.00128024764867)
(-1.12837888409e-05 2.83481012153e-05 0.0012545667693)
(-1.35051459349e-05 2.57094056168e-05 0.00122211215467)
(-1.53651092052e-05 2.26819706978e-05 0.00118322161665)
(-1.70984482918e-05 1.92894060184e-05 0.0011381720495)
(2.2261411326e-05 2.47788254389e-05 0.00134358867742)
(2.0044175042e-05 2.88914494328e-05 0.00139340882172)
(1.76264717956e-05 3.25323125752e-05 0.00143588748792)
(1.47251261766e-05 3.5706097814e-05 0.00147099553845)
(1.14177068016e-05 3.82751397722e-05 0.00149855902946)
(7.79707715836e-06 4.01607136426e-05 0.00151839661013)
(3.95975425953e-06 4.13129339436e-05 0.001530365422)
(1.21292461438e-08 4.17010517662e-05 0.001534370925)
(-3.93537782435e-06 4.13138945893e-05 0.00153036206504)
(-7.77241455153e-06 4.01625540606e-05 0.00151838987433)
(-1.13928494717e-05 3.82776754793e-05 0.00149854874575)
(-1.47006832067e-05 3.57090977532e-05 0.00147098165406)
(-1.76037485106e-05 3.25356304565e-05 0.00143587135992)
(-2.00244868266e-05 2.88956246439e-05 0.00139340129155)
(-2.22479049282e-05 2.47842406137e-05 0.00134362631544)
(2.70801056601e-05 2.98471695996e-05 0.00152933093877)
(2.43700999264e-05 3.45211586579e-05 0.00158179520573)
(2.14076476387e-05 3.85990279864e-05 0.0016259064884)
(1.78569014731e-05 4.21466009116e-05 0.00166195528588)
(1.3827203599e-05 4.50098433645e-05 0.00168999445025)
(9.43237480435e-06 4.71063246637e-05 0.00171003066798)
(4.78711626365e-06 4.83852895131e-05 0.00172205968852)
(1.46825728088e-08 4.88157051718e-05 0.00172607343621)
(-4.75772218194e-06 4.83864675088e-05 0.001722054889)
(-9.40295520771e-06 4.71085937002e-05 0.00171002089366)
(-1.37979811715e-05 4.5013016667e-05 0.00168997916944)
(-1.78285111569e-05 4.21504385442e-05 0.00166193385146)
(-2.13813112198e-05 3.86033288344e-05 0.00162587941765)
(-2.43470469456e-05 3.45264789937e-05 0.00158177334974)
(-2.70635564141e-05 2.98538007607e-05 0.00152935312672)
(3.13618186988e-05 3.42898076037e-05 0.00169499617114)
(2.81739198595e-05 3.93418769539e-05 0.00174818356659)
(2.47032972358e-05 4.36643897191e-05 0.00179217685981)
(2.05632373325e-05 4.7410187492e-05 0.00182765738249)
(1.58940003432e-05 5.04199338113e-05 0.00185495288478)
(1.08272045458e-05 5.26161378882e-05 0.00187429314047)
(5.49044038819e-06 5.39528793222e-05 0.00188583652406)
(1.70663659849e-08 5.44022378782e-05 0.00188967527268)
(-5.45636062826e-06 5.39542961305e-05 0.00188583034836)
(-1.07933367272e-05 5.26188843334e-05 0.00187428042387)
(-1.58606797916e-05 5.04238234784e-05 0.00185493265826)
(-2.05311180967e-05 4.74149718039e-05 0.0018276282672)
(-2.46734969813e-05 4.36698115281e-05 0.00179213836523)
(-2.81475869828e-05 3.93484717177e-05 0.00174814667307)
(-3.13421902017e-05 3.42977416169e-05 0.00169500183143)
(3.49666616896e-05 3.79734929594e-05 0.00184084275089)
(3.13321361175e-05 4.32087025455e-05 0.00189308679056)
(2.74069187441e-05 4.75835342557e-05 0.00193549533587)
(2.27589210922e-05 5.13531699335e-05 0.00196918117786)
(1.75549613264e-05 5.4364531809e-05 0.00199476684416)
(1.19401625319e-05 5.65525384212e-05 0.0020127160038)
(6.04928275177e-06 5.78806377939e-05 0.00202335535696)
(1.92705974884e-08 5.83265427923e-05 0.00202687979077)
(-6.010862632e-06 5.7882306366e-05 0.00202334812607)
(-1.1902150587e-05 5.65557927197e-05 0.0020127009765)
(-1.75177829194e-05 5.43691928994e-05 0.00199474258403)
(-2.27232455949e-05 5.13589807608e-05 0.00196914550095)
(-2.73737693335e-05 4.75901910576e-05 0.00193544667538)
(-3.13025885622e-05 4.32166806586e-05 0.00189303652553)
(-3.4943962956e-05 3.79828204928e-05 0.00184083362991)
(3.78099488077e-05 4.08221931268e-05 0.00196763590061)
(3.37738598884e-05 4.60452346995e-05 0.00201757668667)
(2.94606846989e-05 5.02917888201e-05 0.00205726601857)
(2.44009032593e-05 5.39230357481e-05 0.00208825362958)
(1.87807254955e-05 5.68034187549e-05 0.00211144632873)
(1.27534497019e-05 5.88858515873e-05 0.00212752856952)
(6.45534626602e-06 6.01459895603e-05 0.00213698401981)
(2.13068949125e-08 6.05685396374e-05 0.00214010225986)
(-6.41290586152e-06 6.01479061924e-05 0.00213697637722)
(-1.27115669617e-05 5.88896105359e-05 0.00212751254479)
(-1.87398944408e-05 5.68088565193e-05 0.0021114200503)
(-2.43618069061e-05 5.39298950699e-05 0.00208821410767)
(-2.94242717114e-05 5.02997322105e-05 0.0020572106113)
(-3.3741165711e-05 4.60546614027e-05 0.00201751751241)
(-3.77842076395e-05 4.08329770136e-05 0.00196761692978)
(3.98530348e-05 4.28070379274e-05 0.00207649744009)
(3.54712917819e-05 4.78304238523e-05 0.00212309687305)
(3.08461193785e-05 5.17865644449e-05 0.00215928110311)
(2.54796565363e-05 5.51360963592e-05 0.00218700035599)
(1.95683639116e-05 5.77710922044e-05 0.00220740409345)
(1.32674688491e-05 5.96656236471e-05 0.0022213629621)
(6.70959788143e-06 6.08083267666e-05 0.00222949188826)
(2.31890678793e-08 6.11910292975e-05 0.00223215883702)
(-6.6634299283e-06 6.08104586408e-05 0.00222948487622)
(-1.3221962462e-05 5.96698284657e-05 0.00222134810205)
(-1.95240601407e-05 5.77772318998e-05 0.00220737919677)
(-2.54372543913e-05 5.51439318721e-05 0.00218696170594)
(-3.08065207871e-05 5.17957449619e-05 0.00215922499594)
(-3.54355261916e-05 4.78412818712e-05 0.00212303648116)
(-3.98243056673e-05 4.28192723876e-05 0.00207647725019)
(4.10924549995e-05 4.39348904279e-05 0.00216872684984)
(3.64293781641e-05 4.85837957228e-05 0.00221126196416)
(3.15751740162e-05 5.21087284137e-05 0.00224350421688)
(2.60115344664e-05 5.50562192155e-05 0.00226771098635)
(1.99350242655e-05 5.73533709741e-05 0.00228520402491)
(1.34961526187e-05 5.89954781417e-05 0.00229698944415)
(6.81977050755e-06 5.99826798622e-05 0.00230377719893)
(2.49210970951e-08 6.03129322386e-05 0.00230599120859)
(-6.77016209746e-06 5.99849626924e-05 0.00230377232322)
(-1.34472730014e-05 5.90000013091e-05 0.00229697891003)
(-1.9887444669e-05 5.73600391939e-05 0.00228518557192)
(-2.59659672969e-05 5.50648300189e-05 0.00226768036035)
(-3.15324979591e-05 5.21189545949e-05 0.0022434565818)
(-3.6390653376e-05 4.85959200805e-05 0.00221121157145)
(-4.10608080525e-05 4.39484568918e-05 0.00216871817199)
(4.15467291895e-05 4.42298471227e-05 0.00224559293393)
(3.66776116175e-05 4.83466812847e-05 0.00228366535485)
(3.16855699774e-05 5.13257606066e-05 0.00231188353394)
(2.60348281677e-05 5.37772928806e-05 0.00233264159769)
(1.99141119246e-05 5.56693156705e-05 0.00234735146864)
(1.34638712811e-05 5.70141613784e-05 0.00235709783331)
(6.79862832494e-06 5.78200154101e-05 0.00236264325113)
(2.64909586297e-08 5.80893304847e-05 0.00236444107256)
(-6.74590001455e-06 5.7822350807e-05 0.0023626424785)
(-1.34119164152e-05 5.70188136993e-05 0.00235709580393)
(-1.9863518239e-05 5.56762364638e-05 0.00234734629825)
(-2.59863198288e-05 5.37863494918e-05 0.00233262892855)
(-3.16400148848e-05 5.13366837139e-05 0.00231185719435)
(-3.66361234812e-05 4.83597530566e-05 0.00228363966205)
(-4.15123306046e-05 4.42444519879e-05 0.00224561143074)
(4.12692416952e-05 4.37278664315e-05 0.00230808039232)
(3.62854687744e-05 4.72304972294e-05 0.00234175295349)
(3.12518456417e-05 4.95542156223e-05 0.0023662334411)
(2.56123334699e-05 5.14370429056e-05 0.00238387323981)
(1.95544970306e-05 5.28757962142e-05 0.00239613631566)
(1.32037007927e-05 5.38923467637e-05 0.0024041316142)
(6.66278276109e-06 5.44991270455e-05 0.00240862769796)
(2.78674455019e-08 5.47016661125e-05 0.00241007783694)
(-6.60731711417e-06 5.45013974249e-05 0.00240863327042)
(-1.31490530119e-05 5.3896890324e-05 0.00240414291524)
(-1.95012630457e-05 5.28826146745e-05 0.00239615258329)
(-2.55612415008e-05 5.14460920818e-05 0.00238389108388)
(-3.12037490931e-05 4.95653534234e-05 0.00236624556526)
(-3.62415244741e-05 4.72440453266e-05 0.00234177047534)
(-4.12322615175e-05 4.37431555946e-05 0.00230814210936)
(4.03058597332e-05 4.30600957104e-05 0.00235669058682)
(3.53492785103e-05 4.54885342327e-05 0.00238703631184)
(3.03428235419e-05 4.70042356564e-05 0.00240823445502)
(2.47979884917e-05 4.82233325851e-05 0.00242324107338)
(1.88971129867e-05 4.91372989097e-05 0.0024335359804)
(1.27428553883e-05 4.97756117648e-05 0.0024401782514)
(6.4257855472e-06 5.01534407289e-05 0.0024438861426)
(2.90120217326e-08 5.02791830548e-05 0.0024450798528)
(-6.36805548176e-06 5.01554701743e-05 0.00244389978526)
(-1.26860007269e-05 4.97796936929e-05 0.00244020663233)
(-1.88417409493e-05 4.9143482241e-05 0.00243358031089)
(-2.47448081225e-05 4.82316724528e-05 0.0024233009203)
(-3.02926450012e-05 4.70147311276e-05 0.00240830294281)
(-3.53034559584e-05 4.55017363046e-05 0.00238712689036)
(-4.02663576217e-05 4.30751155176e-05 0.00235679445913)
(-6.89724584875e-08 -1.31336309479e-07 9.99169038234e-05)
(-2.61685884857e-08 -1.84435658937e-07 0.000104618785579)
(2.45317783209e-09 -2.1714973071e-07 0.000108701315068)
(2.2900523678e-08 -2.36893982382e-07 0.000112145413465)
(3.11160087601e-08 -2.46062248293e-07 0.000114897481907)
(2.85995921029e-08 -2.49081600555e-07 0.000116905476167)
(1.7470579272e-08 -2.49328922889e-07 0.000118129988467)
(1.45009231377e-09 -2.49074523739e-07 0.000118545282599)
(-1.46449182173e-08 -2.49144555806e-07 0.000118130500605)
(-2.5982202475e-08 -2.48705595511e-07 0.000116906494962)
(-2.87469153703e-08 -2.45463683256e-07 0.00011489902605)
(-2.05674110246e-08 -2.3600656204e-07 0.000112147655375)
(-2.00191463206e-10 -2.16161922183e-07 0.000108704854419)
(2.81416626214e-08 -1.8327885105e-07 0.000104625550096)
(7.04479602456e-08 -1.30278205207e-07 9.99331548671e-05)
(1.32509901836e-07 2.20522085544e-08 0.00030280898355)
(2.2475298528e-07 -3.2106441372e-08 0.000316980861001)
(2.72533582633e-07 -4.22168631783e-08 0.000329321433843)
(2.86098381733e-07 -2.47737287985e-08 0.000339729819633)
(2.59434164468e-07 9.35108137211e-09 0.000348045039459)
(1.97503599784e-07 4.5479995121e-08 0.000354111957207)
(1.08446631311e-07 7.23017047909e-08 0.000357810258132)
(4.37098509719e-09 8.23222012504e-08 0.000359060232176)
(-9.98710954743e-08 7.27897930253e-08 0.000357811592779)
(-1.89394932109e-07 4.64804648335e-08 0.000354114627977)
(-2.51911077416e-07 1.09291248577e-08 0.000348049141178)
(-2.78886720187e-07 -2.25125009315e-08 0.000339735909058)
(-2.65723875472e-07 -3.96414739405e-08 0.000329331321837)
(-2.18845762047e-07 -2.90955881448e-08 0.000317000263554)
(-1.2817067975e-07 2.48965807354e-08 0.000302852939188)
(7.08179051765e-07 6.2137520579e-07 0.000506431203678)
(8.15777636041e-07 6.7068718159e-07 0.000530011978052)
(8.41034273999e-07 7.7614921608e-07 0.000550550914063)
(7.96904378932e-07 9.11858841089e-07 0.000567860117296)
(6.78223849961e-07 1.05466020627e-06 0.000581676857392)
(4.95249222804e-07 1.17789133087e-06 0.000591751511774)
(2.6409640689e-07 1.26094852823e-06 0.00059788853743)
(6.77461789511e-09 1.29047476094e-06 0.000599958420591)
(-2.50743657967e-07 1.26163201134e-06 0.000597890350552)
(-4.82445230154e-07 1.17931355508e-06 0.00059175516956)
(-6.66126553458e-07 1.05694509007e-06 0.00058168255556)
(-7.85295613241e-07 9.15133250142e-07 0.000567868763497)
(-8.30073690701e-07 7.80028778571e-07 0.000550565283386)
(-8.06092483161e-07 6.75237986238e-07 0.000530040681161)
(-7.0095257887e-07 6.25964696608e-07 0.000506496068216)
(1.72882310119e-06 1.7356114735e-06 0.000709271179899)
(1.82065353365e-06 1.99663310213e-06 0.000741949009424)
(1.77940648092e-06 2.31946353703e-06 0.000770363981262)
(1.62042071911e-06 2.66265824249e-06 0.000794265434873)
(1.34145594202e-06 2.98703963257e-06 0.0008133102191)
(9.60624808977e-07 3.25130541646e-06 0.000827177212037)
(5.04901191756e-07 3.42369469375e-06 0.000835614175787)
(9.08110027968e-09 3.48388157621e-06 0.000838454757757)
(-4.86945127198e-07 3.42457928173e-06 0.000835615953783)
(-9.43246699247e-07 3.2531416979e-06 0.000827180848931)
(-1.32486543878e-06 2.98996674026e-06 0.000813316022205)
(-1.60453718215e-06 2.66680003884e-06 0.00079427458223)
(-1.76450872459e-06 2.32449637175e-06 0.000770379873583)
(-1.80740146327e-06 2.00259292574e-06 0.000741982162811)
(-1.71877162534e-06 1.74188760645e-06 0.000709347958991)
(3.13335659008e-06 3.2828690959e-06 0.000909445932469)
(3.18044839283e-06 3.83200347159e-06 0.000950594823295)
(3.0331882519e-06 4.44327314896e-06 0.00098624310397)
(2.70921665764e-06 5.05452616447e-06 0.00101613000506)
(2.21109506091e-06 5.60865641124e-06 0.00103987317487)
(1.56707243695e-06 6.0487526091e-06 0.00105711993419)
(8.17232004776e-07 6.33146275768e-06 0.0010675940026)
(1.1307993027e-08 6.42931948115e-06 0.00107111429633)
(-7.94827503584e-07 6.33256041285e-06 0.00106759526908)
(-1.54526704168e-06 6.0510115784e-06 0.00105712259759)
(-2.19015642988e-06 5.61220329821e-06 0.00103987762316)
(-2.68921622419e-06 5.05947407932e-06 0.00101613754863)
(-3.01453519419e-06 4.44937261286e-06 0.000986257396645)
(-3.16383334072e-06 3.83932248389e-06 0.000950627608334)
(-3.12051786981e-06 3.2907292478e-06 0.000909526907621)
(4.84096970401e-06 5.16169445884e-06 0.00110482993736)
(4.81658901823e-06 6.04094767983e-06 0.00115349071938)
(4.52930402986e-06 6.97630313513e-06 0.00119540204655)