/*--------------------------------*- C++ -*----------------------------------*\
  =========                 |
  \\      /  F ield         | OpenFOAM: The Open Source CFD Toolbox
   \\    /   O peration     | Website:  https://openfoam.org
    \\  /    A nd           | Version:  7
     \\/     M anipulation  |
\*---------------------------------------------------------------------------*/
FoamFile
{
    version     2.0;
    format      ascii;
    class       volScalarField;
    location    "1.36";
    object      p;
}
// * * * * * * * * * * * * * * * * * * * * * * * * * * * * * * * * * * * * * //

dimensions      [0 2 -2 0 0 0 0];

internalField   nonuniform List<scalar> 
22500
(
7.07731998022e-06
7.07652721846e-06
7.07626630258e-06
7.07586895968e-06
7.07556550852e-06
7.07533020731e-06
7.07518539757e-06
7.0751357376e-06
7.07518900705e-06
7.07533736944e-06
7.0755761881e-06
7.07588296902e-06
7.0762836242e-06
7.07654697998e-06
7.07734455547e-06
7.06779474653e-06
7.06651734415e-06
7.06585060059e-06
7.06509751375e-06
7.06450318292e-06
7.06405297034e-06
7.06377648627e-06
7.063682942e-06
7.06378023082e-06
7.06406040503e-06
7.0645142531e-06
7.0651120529e-06
7.06586852122e-06
7.06653779185e-06
7.06781993528e-06
7.05874181286e-06
7.05703311489e-06
7.05602703735e-06
7.05496783099e-06
7.05412821032e-06
7.05349665168e-06
7.05310934351e-06
7.05297873702e-06
7.05311305394e-06
7.05350401991e-06
7.05413916924e-06
7.05498222881e-06
7.0560447816e-06
7.05705336189e-06
7.05876687991e-06
7.05073614395e-06
7.04868030636e-06
7.04740406583e-06
7.04610765032e-06
7.04507834448e-06
7.04430780044e-06
7.04383580398e-06
7.04367691189e-06
7.04383943429e-06
7.04431501178e-06
7.0450890579e-06
7.04612171033e-06
7.04742139468e-06
7.04870004903e-06
7.05076076439e-06
7.04332322127e-06
7.0409776532e-06
7.03947213245e-06
7.03798498025e-06
7.03680232849e-06
7.03592082797e-06
7.03538146929e-06
7.03520016203e-06
7.03538502686e-06
7.03592789246e-06
7.03681281375e-06
7.03799871946e-06
7.03948903561e-06
7.0409968648e-06
7.04334729837e-06
7.03638103318e-06
7.03379936602e-06
7.03210181676e-06
7.03046565265e-06
7.02916259073e-06
7.02819535355e-06
7.02760422142e-06
7.02740575746e-06
7.02760771036e-06
7.02820228147e-06
7.02917286011e-06
7.03047908864e-06
7.03211828386e-06
7.03381807229e-06
7.03640461044e-06
7.0299216185e-06
7.02715805593e-06
7.02530578649e-06
7.02356091434e-06
7.02216957278e-06
7.0211408988e-06
7.02051299214e-06
7.02030242228e-06
7.02051642499e-06
7.02114771184e-06
7.022179659e-06
7.02357408794e-06
7.02532186346e-06
7.02717629622e-06
7.02994477671e-06
7.02394390524e-06
7.02105000746e-06
7.01907835406e-06
7.01726188669e-06
7.01581210113e-06
7.0147442447e-06
7.01409327648e-06
7.01387521342e-06
7.01409666939e-06
7.01475097329e-06
7.01582205275e-06
7.01727486195e-06
7.0190941172e-06
7.0210678923e-06
7.02396676974e-06
7.01843025473e-06
7.01545352665e-06
7.01339559655e-06
7.01154113258e-06
7.01006015127e-06
7.00897310884e-06
7.0083113726e-06
7.00808994448e-06
7.00831474738e-06
7.00897979901e-06
7.01007003725e-06
7.01155400957e-06
7.01341117138e-06
7.01547122668e-06
7.0184530126e-06
7.0133584737e-06
7.01034184914e-06
7.00822929664e-06
7.00636745245e-06
7.00488022484e-06
7.00379199071e-06
7.00313049875e-06
7.00290939987e-06
7.00313388292e-06
7.00379869943e-06
7.00489013749e-06
7.00638035852e-06
7.00824485788e-06
7.01035959068e-06
7.01338139737e-06
7.00870283869e-06
7.00568460035e-06
7.00354912279e-06
7.00170835113e-06
7.00023786531e-06
6.99916469624e-06
6.99851335657e-06
6.99829590558e-06
6.99851678085e-06
6.99917148846e-06
7.00024791103e-06
7.00172144587e-06
7.00356488942e-06
7.0057026692e-06
7.00872628914e-06
7.00442434e-06
7.00144482334e-06
6.99932292361e-06
6.99753078144e-06
6.99609821186e-06
6.99505484898e-06
6.99442262587e-06
6.99421184838e-06
6.9944261196e-06
6.99506179402e-06
6.99610850838e-06
6.99754424477e-06
6.99933915517e-06
7.00146355212e-06
7.00444871672e-06
7.00044898228e-06
6.9975809921e-06
6.99552287662e-06
6.99380529042e-06
6.99242916427e-06
6.99142882747e-06
6.9908240083e-06
6.99062269852e-06
6.99082759942e-06
6.99143597582e-06
6.99243981478e-06
6.99381929993e-06
6.99553985602e-06
6.99760073545e-06
7.00047464891e-06
6.99675844643e-06
6.99410154931e-06
6.99213307838e-06
6.99050310729e-06
6.98919501246e-06
6.98824884292e-06
6.98767908921e-06
6.987489988e-06
6.98768278343e-06
6.98825622436e-06
6.98920608164e-06
6.99051781289e-06
6.99215109111e-06
6.99412277309e-06
6.99678552113e-06
6.99396747905e-06
6.99094048923e-06
6.98905002727e-06
6.98748956681e-06
6.98625529013e-06
6.985374638e-06
6.98484843402e-06
6.98467449629e-06
6.9848522791e-06
6.98538233887e-06
6.98626690997e-06
6.98750519451e-06
6.98906960625e-06
6.9909640495e-06
6.99399594713e-06
5.94926319683e-06
5.94942080721e-06
5.94952532939e-06
5.94960793994e-06
5.9496727256e-06
5.94971976206e-06
5.94974870756e-06
5.94975838623e-06
5.94974832334e-06
5.94971908996e-06
5.94967200552e-06
5.9496074542e-06
5.94952513163e-06
5.94942078483e-06
5.94926369248e-06
5.95004504053e-06
5.95023038327e-06
5.95036531731e-06
5.95047566878e-06
5.95056368402e-06
5.95062793564e-06
5.95066747487e-06
5.9506807819e-06
5.95066714982e-06
5.95062738666e-06
5.95056314935e-06
5.95047544077e-06
5.95036549244e-06
5.95023068246e-06
5.95004586362e-06
5.95079996077e-06
5.95102418458e-06
5.95119444207e-06
5.95133853798e-06
5.95145573612e-06
5.95154221948e-06
5.95159570498e-06
5.95161380143e-06
5.951595437e-06
5.95154177135e-06
5.95145530954e-06
5.9513383811e-06
5.95119469788e-06
5.951024482e-06
5.95080091061e-06
5.95161016051e-06
5.95190195787e-06
5.95212855192e-06
5.95232532462e-06
5.95248821382e-06
5.9526097925e-06
5.95268540101e-06
5.95271108398e-06
5.95268518291e-06
5.95260942858e-06
5.95248786501e-06
5.95232519015e-06
5.95212880138e-06
5.95190220545e-06
5.95161121893e-06
5.95259206177e-06
5.95298514781e-06
5.95329317368e-06
5.95356474385e-06
5.95379192739e-06
5.95396269173e-06
5.9540692046e-06
5.95410545133e-06
5.95406902673e-06
5.95396239796e-06
5.95379164772e-06
5.95356464427e-06
5.95329341667e-06
5.95298535826e-06
5.95259323953e-06
5.95377879548e-06
5.95430283872e-06
5.95471306621e-06
5.9550772491e-06
5.95538324265e-06
5.9556139377e-06
5.95575793625e-06
5.95580696207e-06
5.95575779669e-06
5.95561371202e-06
5.95538303616e-06
5.95507719821e-06
5.95471332429e-06
5.95430300856e-06
5.95378014239e-06
5.95516517217e-06
5.95584234103e-06
5.95636903258e-06
5.95683713784e-06
5.95723068896e-06
5.95752751758e-06
5.95771267257e-06
5.95777568635e-06
5.9577125644e-06
5.95752734792e-06
5.95723054704e-06
5.95683713727e-06
5.95636931842e-06
5.95584248938e-06
5.95516669676e-06
5.95673124787e-06
5.95757473964e-06
5.95822508764e-06
5.9588014573e-06
5.95928530092e-06
5.95964981614e-06
5.95987685638e-06
5.95995406021e-06
5.95987677506e-06
5.95964969598e-06
5.95928521787e-06
5.95880150989e-06
5.95822539953e-06
5.95757489751e-06
5.95673293611e-06
5.95844815629e-06
5.95946159308e-06
5.96023574123e-06
5.96091807594e-06
5.961489314e-06
5.96191877699e-06
5.9621857364e-06
5.96227641144e-06
5.96218567215e-06
5.96191868994e-06
5.96148927324e-06
5.96091817549e-06
5.96023608245e-06
5.95946177969e-06
5.958450043e-06
5.96028147678e-06
5.96145896363e-06
5.96235048788e-06
5.96313069347e-06
5.96378161122e-06
5.96426966689e-06
5.96457232745e-06
5.96467498932e-06
5.96457227045e-06
5.96426959532e-06
5.96378159388e-06
5.9631308242e-06
5.96235085179e-06
5.96145919333e-06
5.96028356333e-06
5.96219395217e-06
5.96352068267e-06
5.96451744207e-06
5.96538297969e-06
5.96610222348e-06
5.96663977485e-06
5.96697221612e-06
5.9670847966e-06
5.96697215146e-06
5.96663969106e-06
5.96610219653e-06
5.96538311652e-06
5.9645178176e-06
5.96352096745e-06
5.96219627132e-06
5.96414481149e-06
5.96559870616e-06
5.96668489347e-06
5.96762100483e-06
5.96839523895e-06
5.96897161035e-06
5.96932689271e-06
5.96944698119e-06
5.96932679954e-06
5.96897147834e-06
5.96839515372e-06
5.96762109919e-06
5.96668524562e-06
5.9655990442e-06
5.96414734787e-06
5.96608832893e-06
5.96764592011e-06
5.96880585437e-06
5.9697974744e-06
5.97061249138e-06
5.97121610337e-06
5.97158670335e-06
5.97171166595e-06
5.97158655816e-06
5.97121586614e-06
5.970612277e-06
5.96979744247e-06
5.96880611739e-06
5.96764626315e-06
5.96609101025e-06
5.9680198716e-06
5.96966282515e-06
5.9708664903e-06
5.97188963844e-06
5.97272313103e-06
5.9733363154e-06
5.97371102304e-06
5.97383704033e-06
5.97371079764e-06
5.9733359289e-06
5.97272270832e-06
5.97188939462e-06
5.97086657556e-06
5.96966317032e-06
5.96802253525e-06
5.97019452509e-06
5.97170159131e-06
5.97287945441e-06
5.97388327797e-06
5.97469044412e-06
5.97527957762e-06
5.97563780336e-06
5.97575793146e-06
5.97563753052e-06
5.97527908618e-06
5.97468987443e-06
5.9738828707e-06
5.97287949799e-06
5.97170217728e-06
5.97019702829e-06
6.12217901599e-06
6.12210081884e-06
6.12202069539e-06
6.12193900005e-06
6.12186612149e-06
6.12180903443e-06
6.12177273055e-06
6.12176011969e-06
6.12177239484e-06
6.12180832027e-06
6.12186494102e-06
6.12193729312e-06
6.12201888785e-06
6.12209856414e-06
6.12217681942e-06
6.12214148161e-06
6.12206493621e-06
6.1219850902e-06
6.12190330246e-06
6.12183014913e-06
6.12177269687e-06
6.12173608738e-06
6.12172336233e-06
6.12173581603e-06
6.12177211332e-06
6.12182916227e-06
6.12190185233e-06
6.12198350711e-06
6.1220629952e-06
6.1221395777e-06
6.12220050807e-06
6.12213133614e-06
6.12205845567e-06
6.12198208543e-06
6.1219131653e-06
6.12185865714e-06
6.12182376528e-06
6.12181160221e-06
6.12182350986e-06
6.12185811287e-06
6.12191225918e-06
6.12198076778e-06
6.122056976e-06
6.12212952771e-06
6.12219879463e-06
6.12224619643e-06
6.12218009173e-06
6.12211111622e-06
6.12203771397e-06
6.12197107299e-06
6.12191810454e-06
6.12188407962e-06
6.12187219449e-06
6.12188382514e-06
6.12191757254e-06
6.12197021731e-06
6.12203649461e-06
6.12210971722e-06
6.12217834352e-06
6.1222446922e-06
6.12225894028e-06
6.12219187026e-06
6.1221237251e-06
6.12205093203e-06
6.12198477162e-06
6.12193210799e-06
6.121898238e-06
6.12188640226e-06
6.12189798893e-06
6.12193159235e-06
6.12198395744e-06
6.12204979068e-06
6.12212240981e-06
6.12219018084e-06
6.12225764833e-06
6.12224933581e-06
6.12217932255e-06
6.12211072976e-06
6.12203770632e-06
6.1219715578e-06
6.12191898858e-06
6.12188519943e-06
6.12187339934e-06
6.12188495604e-06
6.1219184899e-06
6.12197078521e-06
6.12203663995e-06
6.12210949187e-06
6.1221777241e-06
6.12224824091e-06
6.12222608453e-06
6.1221526523e-06
6.12208341503e-06
6.12201031181e-06
6.12194452947e-06
6.12189246099e-06
6.121859068e-06
6.12184742288e-06
6.12185883187e-06
6.12189197971e-06
6.12194379354e-06
6.12200931108e-06
6.1220822484e-06
6.12215113962e-06
6.12222521005e-06
6.12219526448e-06
6.12211893923e-06
6.12204955245e-06
6.12197711836e-06
6.12191254478e-06
6.12186174418e-06
6.12182928204e-06
6.12181798496e-06
6.12182905428e-06
6.12186128267e-06
6.12191184893e-06
6.12197618847e-06
6.12204846799e-06
6.12211752128e-06
6.12219463325e-06
6.12216229851e-06
6.12208430638e-06
6.12201570304e-06
6.12194501729e-06
6.12188273618e-06
6.12183413366e-06
6.12180323226e-06
6.1217925072e-06
6.12180301384e-06
6.12183369409e-06
6.12188208071e-06
6.12194415772e-06
6.12201470751e-06
6.12208299612e-06
6.12216191593e-06
6.12213189127e-06
6.12205381777e-06
6.12198707728e-06
6.12191927564e-06
6.12186039196e-06
6.12181491625e-06
6.12178619186e-06
6.12177625693e-06
6.12178598523e-06
6.12181450252e-06
6.12185978371e-06
6.12191849481e-06
6.12198618246e-06
6.12205263788e-06
6.12213176569e-06
6.1221075827e-06
6.12203100898e-06
6.12196709181e-06
6.12190316091e-06
6.12184864106e-06
6.1218070968e-06
6.1217810833e-06
6.12177212305e-06
6.12178088928e-06
6.12180671054e-06
6.1218480806e-06
6.12190246093e-06
6.12196630077e-06
6.1220299701e-06
6.12210772099e-06
6.12209139294e-06
6.12201749633e-06
6.12195706378e-06
6.12189777344e-06
6.12184842199e-06
6.12181149774e-06
6.12178863636e-06
6.12178080946e-06
6.12178845433e-06
6.12181113927e-06
6.12184791052e-06
6.12189715176e-06
6.12195637703e-06
6.12201659624e-06
6.12209177243e-06
6.12208492361e-06
6.12201389372e-06
6.12195704876e-06
6.12190279124e-06
6.12185918383e-06
6.12182736164e-06
6.12180797224e-06
6.12180137143e-06
6.1218078016e-06
6.12182702668e-06
6.12185871018e-06
6.12190223686e-06
6.12195645231e-06
6.12201312739e-06
6.12208552536e-06
6.1220937433e-06
6.1220251359e-06
6.12196981675e-06
6.1219195498e-06
6.12188106836e-06
6.12185381794e-06
6.12183747051e-06
6.12183196229e-06
6.12183731228e-06
6.12185350055e-06
6.12188063e-06
6.12191904528e-06
6.12196929385e-06
6.12202450058e-06
6.12209451001e-06
6.12212714605e-06
6.12204950168e-06
6.12199156709e-06
6.12194363437e-06
6.12190888959e-06
6.12188477573e-06
6.12187044778e-06
6.12186564006e-06
6.12187032188e-06
6.12188452637e-06
6.12190853926e-06
6.12194324998e-06
6.12199121632e-06
6.12204910679e-06
6.1221278918e-06
5.41981538116e-06
5.41986594176e-06
5.41991901076e-06
5.41997153239e-06
5.42001747249e-06
5.42005286419e-06
5.42007503303e-06
5.42008232974e-06
5.42007406415e-06
5.42005098733e-06
5.42001483706e-06
5.41996843734e-06
5.41991563265e-06
5.4198625527e-06
5.41981156465e-06
5.41983144879e-06
5.41988017743e-06
5.41993267797e-06
5.41998510536e-06
5.4200311952e-06
5.42006684285e-06
5.42008923152e-06
5.42009661888e-06
5.420088247e-06
5.42006494007e-06
5.42002853735e-06
5.41998200496e-06
5.41992937851e-06
5.41987686305e-06
5.41982786147e-06
5.41977191512e-06
5.41981352306e-06
5.41985977239e-06
5.41990722335e-06
5.41994946385e-06
5.41998244269e-06
5.42000326902e-06
5.42001016242e-06
5.42000233279e-06
5.4199806306e-06
5.41994692447e-06
5.41990422414e-06
5.41985657702e-06
5.41981022358e-06
5.41976844285e-06
5.41970935442e-06
5.41974523205e-06
5.41978613058e-06
5.41982907109e-06
5.41986778553e-06
5.41989828939e-06
5.41991765815e-06
5.41992409003e-06
5.41991678198e-06
5.41989659143e-06
5.41986539749e-06
5.41982621739e-06
5.41978305119e-06
5.41974199686e-06
5.41970598314e-06
5.41965742168e-06
5.41968916982e-06
5.41972602812e-06
5.41976531363e-06
5.41980110148e-06
5.41982949736e-06
5.41984761286e-06
5.41985364188e-06
5.41984678663e-06
5.41982789526e-06
5.4197988368e-06
5.41976258609e-06
5.41972304074e-06
5.41968600411e-06
5.41965415245e-06
5.41961076032e-06
5.41963917742e-06
5.41967256707e-06
5.41970856152e-06
5.41974160428e-06
5.41976797493e-06
5.4197848607e-06
5.41979049255e-06
5.41978408446e-06
5.41976646807e-06
5.419739469e-06
5.41970596801e-06
5.41966969998e-06
5.41963606953e-06
5.4196076479e-06
5.41956621909e-06
5.41959169591e-06
5.41962200662e-06
5.41965490594e-06
5.41968527639e-06
5.41970962345e-06
5.41972525943e-06
5.41973048143e-06
5.4197245285e-06
5.41970820182e-06
5.41968325585e-06
5.41965243147e-06
5.41961925142e-06
5.41958865054e-06
5.41956325379e-06
5.41952277949e-06
5.41954559915e-06
5.41957319639e-06
5.41960319228e-06
5.41963099958e-06
5.41965336269e-06
5.41966775876e-06
5.41967256861e-06
5.41966707194e-06
5.41965202551e-06
5.41962909146e-06
5.4196008382e-06
5.41957054356e-06
5.41954263017e-06
5.41951994197e-06
5.41947979984e-06
5.41950027602e-06
5.41952551011e-06
5.4195528514e-06
5.41957825437e-06
5.41959872114e-06
5.41961191581e-06
5.41961632184e-06
5.41961126826e-06
5.41959745888e-06
5.41957644561e-06
5.41955060503e-06
5.4195229508e-06
5.41949738035e-06
5.41947710896e-06
5.41943683612e-06
5.41945528319e-06
5.41947852072e-06
5.41950350649e-06
5.41952671875e-06
5.41954543082e-06
5.41955749692e-06
5.41956152155e-06
5.41955688655e-06
5.41954423824e-06
5.41952500413e-06
5.41950136015e-06
5.41947604933e-06
5.41945245642e-06
5.41943428927e-06
5.41939361627e-06
5.41941041526e-06
5.41943206354e-06
5.41945504163e-06
5.41947632889e-06
5.41949345898e-06
5.41950449478e-06
5.4195081643e-06
5.41950391725e-06
5.41949232921e-06
5.41947469745e-06
5.41945298978e-06
5.41942967831e-06
5.4194076701e-06
5.41939123152e-06
5.4193499727e-06
5.41936560149e-06
5.41938612251e-06
5.41940750711e-06
5.41942717696e-06
5.41944294053e-06
5.41945305697e-06
5.41945641028e-06
5.41945250931e-06
5.41944186676e-06
5.41942562424e-06
5.41940554151e-06
5.41938382316e-06
5.41936294781e-06
5.41934776258e-06
5.41930500689e-06
5.41932011452e-06
5.41934022796e-06
5.41936068221e-06
5.41937926299e-06
5.41939400235e-06
5.41940341253e-06
5.41940650304e-06
5.41940289306e-06
5.41939298507e-06
5.41937778014e-06
5.41935880384e-06
5.41933801458e-06
5.41931756359e-06
5.41930298174e-06
5.4192577586e-06
5.41927353344e-06
5.41929405735e-06
5.41931436316e-06
5.41933244795e-06
5.41934660096e-06
5.41935552856e-06
5.41935845446e-06
5.41935504264e-06
5.4193456363e-06
5.41933104663e-06
5.41931257074e-06
5.41929193566e-06
5.41927109192e-06
5.41925595209e-06
5.4192318523e-06
5.41924519153e-06
5.4192615585e-06
5.41927738664e-06
5.41929145483e-06
5.41930238994e-06
5.41930926174e-06
5.41931147441e-06
5.41930881275e-06
5.41930150311e-06
5.41929014832e-06
5.41927570809e-06
5.41925955624e-06
5.4192428512e-06
5.41923005271e-06
5.32651304799e-06
5.32647570812e-06
5.32643625126e-06
5.32639758522e-06
5.32636335238e-06
5.32633665627e-06
5.32631978096e-06
5.32631397613e-06
5.32631973743e-06
5.32633649863e-06
5.32636294587e-06
5.32639698247e-06
5.32643571136e-06
5.3264749754e-06
5.32651252927e-06
5.32647894974e-06
5.32644209792e-06
5.32640229154e-06
5.3263630231e-06
5.32632811556e-06
5.32630084098e-06
5.32628356085e-06
5.32627760682e-06
5.32628353209e-06
5.32630071591e-06
5.32632776633e-06
5.32636247897e-06
5.32640179455e-06
5.32644149835e-06
5.3264785267e-06
5.32649830461e-06
5.32646572203e-06
5.32642953545e-06
5.32639311381e-06
5.32636041194e-06
5.32633469387e-06
5.32631831917e-06
5.32631265428e-06
5.32631828125e-06
5.32633456384e-06
5.3263600845e-06
5.32639260334e-06
5.32642901937e-06
5.32646513378e-06
5.32649784828e-06
5.32652375296e-06
5.32649468816e-06
5.32646166188e-06
5.32642793865e-06
5.32639737169e-06
5.32637319022e-06
5.32635771457e-06
5.32635233842e-06
5.32635766164e-06
5.32637304541e-06
5.32639705917e-06
5.32642745236e-06
5.32646112662e-06
5.326494062e-06
5.32652326869e-06
5.32654419366e-06
5.32651760222e-06
5.32648689162e-06
5.32645534203e-06
5.32642653507e-06
5.32640363512e-06
5.3263889207e-06
5.32638379194e-06
5.32638885546e-06
5.32640347486e-06
5.32642622085e-06
5.32645486035e-06
5.32648633714e-06
5.32651692468e-06
5.32654368208e-06
5.3265623266e-06
5.32653760137e-06
5.32650882319e-06
5.32647920463e-06
5.32645202374e-06
5.32643034221e-06
5.32641636412e-06
5.32641147808e-06
5.32641628627e-06
5.32643016438e-06
5.32645170318e-06
5.32647872157e-06
5.32650824674e-06
5.32653690903e-06
5.32656176407e-06
5.32657988133e-06
5.32655670519e-06
5.32652959882e-06
5.32650176908e-06
5.32647615646e-06
5.32645567834e-06
5.3264424454e-06
5.32643780919e-06
5.32644235581e-06
5.32645548167e-06
5.32647582048e-06
5.32650127426e-06
5.32652899156e-06
5.32655598901e-06
5.32657928891e-06
5.3265972889e-06
5.32657540158e-06
5.32654975113e-06
5.32652359583e-06
5.32649950739e-06
5.32648022935e-06
5.32646775486e-06
5.32646337647e-06
5.32646765409e-06
5.32648001448e-06
5.32649915622e-06
5.32652309278e-06
5.32654912822e-06
5.32657466998e-06
5.32659669698e-06
5.32661483262e-06
5.32659401118e-06
5.3265696493e-06
5.32654506499e-06
5.32652245841e-06
5.32650437666e-06
5.32649267539e-06
5.32648856322e-06
5.32649256466e-06
5.3265041456e-06
5.32652209076e-06
5.32654455111e-06
5.32656901582e-06
5.32659326973e-06
5.32661424875e-06
5.32663280031e-06
5.32661285102e-06
5.32658965096e-06
5.32656654354e-06
5.32654538608e-06
5.32652850567e-06
5.32651759292e-06
5.3265137578e-06
5.32651747493e-06
5.32652826187e-06
5.3265450081e-06
5.32656602634e-06
5.32658901928e-06
5.32661211801e-06
5.32663223606e-06
5.32665142683e-06
5.32663218977e-06
5.32661003765e-06
5.32658831288e-06
5.32656857673e-06
5.32655290018e-06
5.32654279683e-06
5.32653924645e-06
5.32654267353e-06
5.32655264849e-06
5.32656819042e-06
5.32658779595e-06
5.32660940935e-06
5.32663146956e-06
5.32665089073e-06
5.32667106175e-06
5.32665229129e-06
5.32663100364e-06
5.32661053421e-06
5.32659216269e-06
5.32657769232e-06
5.3265684042e-06
5.32656515188e-06
5.32656827874e-06
5.32657743672e-06
5.3265917787e-06
5.32661002055e-06
5.32663038427e-06
5.32665157741e-06
5.32667054522e-06
5.32669272199e-06
5.32667379895e-06
5.3266529257e-06
5.32663340068e-06
5.32661622527e-06
5.32660283972e-06
5.32659433192e-06
5.32659135037e-06
5.32659420739e-06
5.32660259288e-06
5.32661584402e-06
5.32663290392e-06
5.3266523162e-06
5.32667309604e-06
5.32669223194e-06
5.32671590534e-06
5.3266957849e-06
5.32667536695e-06
5.32665672297e-06
5.32664064652e-06
5.32662831068e-06
5.32662051455e-06
5.32661781583e-06
5.32662040093e-06
5.32662807114e-06
5.32664029292e-06
5.32665624127e-06
5.32667477869e-06
5.32669508618e-06
5.32671544968e-06
5.32671483142e-06
5.32670375942e-06
5.32668874147e-06
5.32667499115e-06
5.32666309188e-06
5.32665392477e-06
5.3266481458e-06
5.32664613233e-06
5.32664804057e-06
5.32665371304e-06
5.32666276093e-06
5.32667454823e-06
5.32668817368e-06
5.32670305748e-06
5.32671433669e-06
4.79799698707e-06
4.7980234156e-06
4.79805157945e-06
4.79807953036e-06
4.79810410536e-06
4.79812312454e-06
4.79813507209e-06
4.79813903895e-06
4.79813466427e-06
4.79812235886e-06
4.79810309402e-06
4.79807844649e-06
4.79805053883e-06
4.7980226616e-06
4.79799607607e-06
4.79801124143e-06
4.79803696944e-06
4.7980649553e-06
4.7980929332e-06
4.79811762934e-06
4.79813679361e-06
4.79814885233e-06
4.79815285671e-06
4.79814841387e-06
4.79813597167e-06
4.79811654952e-06
4.79809178803e-06
4.79806389651e-06
4.79803618555e-06
4.79801042826e-06
4.79798774051e-06
4.79801006385e-06
4.79803496175e-06
4.79806048783e-06
4.79808327722e-06
4.79810111922e-06
4.79811240642e-06
4.79811616947e-06
4.79811199663e-06
4.79810034903e-06
4.79808225847e-06
4.79805938287e-06
4.79803392925e-06
4.7980092144e-06
4.7979869196e-06
4.79796146707e-06
4.79798099546e-06
4.7980032419e-06
4.79802652488e-06
4.79804756462e-06
4.79806417939e-06
4.7980747482e-06
4.79807828825e-06
4.79807437714e-06
4.79806347975e-06
4.79804663334e-06
4.7980254983e-06
4.79800225459e-06
4.79798014241e-06
4.79796061706e-06
4.79793973025e-06
4.79795726847e-06
4.79797752263e-06
4.79799899645e-06
4.79801859653e-06
4.79803417858e-06
4.79804413932e-06
4.79804748766e-06
4.79804380095e-06
4.7980335393e-06
4.79801773655e-06
4.79799803364e-06
4.79797655994e-06
4.79795641651e-06
4.79793885337e-06
4.79792016642e-06
4.79793615466e-06
4.79795468534e-06
4.79797455812e-06
4.79799282583e-06
4.79800742563e-06
4.79801679288e-06
4.79801995216e-06
4.79801648422e-06
4.79800684083e-06
4.79799203461e-06
4.79797366156e-06
4.7979537724e-06
4.79793529539e-06
4.7979193075e-06
4.79790133248e-06
4.79791596424e-06
4.79793294849e-06
4.79795130938e-06
4.79796826648e-06
4.79798187168e-06
4.79799062508e-06
4.79799358499e-06
4.79799034349e-06
4.79798133532e-06
4.79796753462e-06
4.7979504654e-06
4.79793207397e-06
4.79791509854e-06
4.79790047689e-06
4.79788272556e-06
4.79789610279e-06
4.79791167761e-06
4.7979285837e-06
4.79794424268e-06
4.79795683316e-06
4.7979649483e-06
4.79796769604e-06
4.79796469071e-06
4.79795634071e-06
4.79794356473e-06
4.79792779006e-06
4.79791083541e-06
4.797895244e-06
4.79788185109e-06
4.7978639505e-06
4.79787618424e-06
4.79789044443e-06
4.79790594477e-06
4.79792030739e-06
4.79793185764e-06
4.79793930702e-06
4.79794182923e-06
4.7979390695e-06
4.79793140189e-06
4.79791967213e-06
4.79790518846e-06
4.7978896216e-06
4.79787532302e-06
4.797863072e-06
4.79784470107e-06
4.79785585705e-06
4.79786888563e-06
4.79788303461e-06
4.79789610729e-06
4.79790660213e-06
4.79791336121e-06
4.79791564804e-06
4.79791314151e-06
4.79790617715e-06
4.79789551026e-06
4.79788230913e-06
4.79786807776e-06
4.79785498849e-06
4.79784381205e-06
4.79782473581e-06
4.79783490337e-06
4.79784681044e-06
4.79785967579e-06
4.79787148124e-06
4.79788090572e-06
4.79788695845e-06
4.79788899813e-06
4.79788675243e-06
4.79788050619e-06
4.79787091193e-06
4.79785897549e-06
4.79784601299e-06
4.79783403262e-06
4.79782385168e-06
4.79780392057e-06
4.79781326363e-06
4.79782420947e-06
4.7978358956e-06
4.79784645924e-06
4.7978548202e-06
4.79786014856e-06
4.79786193875e-06
4.79785995488e-06
4.79785443962e-06
4.79784591833e-06
4.79783521433e-06
4.79782342397e-06
4.7978123973e-06
4.7978030525e-06
4.79778176393e-06
4.79779070339e-06
4.79780103414e-06
4.79781174245e-06
4.79782119496e-06
4.79782853181e-06
4.79783317948e-06
4.79783471515e-06
4.79783299476e-06
4.7978281774e-06
4.7978206724e-06
4.79781109033e-06
4.79780026332e-06
4.79778985181e-06
4.79778092382e-06
4.79775777631e-06
4.79776702616e-06
4.79777714021e-06
4.79778718494e-06
4.79779570378e-06
4.79780221082e-06
4.79780625865e-06
4.79780759798e-06
4.79780609035e-06
4.79780187021e-06
4.79779521835e-06
4.79778655364e-06
4.79777639758e-06
4.79776619581e-06
4.79775700544e-06
4.797742758e-06
4.79774962403e-06
4.79775787714e-06
4.79776558811e-06
4.79777195221e-06
4.79777675188e-06
4.79777973741e-06
4.7977807016e-06
4.79777957405e-06
4.79777643317e-06
4.79777147874e-06
4.79776498081e-06
4.79775714053e-06
4.79774879328e-06
4.79774198948e-06
4.57647957104e-06
4.57646127029e-06
4.57644162405e-06
4.57642228515e-06
4.5764053617e-06
4.57639227254e-06
4.57638400499e-06
4.57638120747e-06
4.57638415403e-06
4.57639256736e-06
4.57640579545e-06
4.57642278138e-06
4.5764420934e-06
4.57646158142e-06
4.57648026616e-06
4.57646651517e-06
4.57644859925e-06
4.57642894139e-06
4.57640944325e-06
4.57639229975e-06
4.57637899767e-06
4.57637057967e-06
4.576367726e-06
4.57637073533e-06
4.57637930598e-06
4.57639274704e-06
4.57640995198e-06
4.57642941366e-06
4.57644895619e-06
4.57646721429e-06
4.57648032284e-06
4.57646466593e-06
4.57644702029e-06
4.57642909906e-06
4.57641315708e-06
4.57640068591e-06
4.57639275718e-06
4.57639006183e-06
4.57639290587e-06
4.57640097769e-06
4.57641357475e-06
4.57642957433e-06
4.57644745685e-06
4.57646504247e-06
4.57648098068e-06
4.57649661161e-06
4.57648283898e-06
4.57646693452e-06
4.57645049505e-06
4.57643568885e-06
4.57642401287e-06
4.57641655681e-06
4.57641401538e-06
4.57641669505e-06
4.57642427984e-06
4.57643606187e-06
4.57645091456e-06
4.57646732716e-06
4.57648318672e-06
4.57649724383e-06
4.57651007561e-06
4.57649766016e-06
4.57648306408e-06
4.57646782957e-06
4.5764539715e-06
4.57644297498e-06
4.57643592583e-06
4.57643351724e-06
4.5764360527e-06
4.57644321726e-06
4.57645430421e-06
4.57646819861e-06
4.57648341784e-06
4.57649796671e-06
4.57651066807e-06
4.57652226724e-06
4.5765109011e-06
4.57649744683e-06
4.57648330083e-06
4.57647033387e-06
4.57645999369e-06
4.57645334458e-06
4.57645106748e-06
4.57645345888e-06
4.57646020937e-06
4.57647062357e-06
4.57648361658e-06
4.5764977552e-06
4.57651119127e-06
4.57652279281e-06
4.57653412792e-06
4.57652368691e-06
4.57651125841e-06
4.57649813758e-06
4.57648605035e-06
4.57647637719e-06
4.57647014199e-06
4.57646800201e-06
4.57647024382e-06
4.57647656741e-06
4.57648630211e-06
4.57649840895e-06
4.57651152275e-06
4.57652395689e-06
4.57653460192e-06
4.57654593717e-06
4.57653633532e-06
4.57652483629e-06
4.57651269992e-06
4.57650148455e-06
4.57649248782e-06
4.57648667868e-06
4.57648468163e-06
4.57648676813e-06
4.57649265319e-06
4.57650170117e-06
4.57651293412e-06
4.57652507087e-06
4.57653659028e-06
4.57654638627e-06
4.576557902e-06
4.57654905404e-06
4.57653840673e-06
4.57652720943e-06
4.57651685235e-06
4.57650853859e-06
4.57650316632e-06
4.57650131837e-06
4.57650324505e-06
4.57650868354e-06
4.57651704193e-06
4.57652741677e-06
4.57653862316e-06
4.57654930124e-06
4.57655832798e-06
4.57657018872e-06
4.57656201907e-06
4.57655215743e-06
4.57654184919e-06
4.57653233263e-06
4.57652470037e-06
4.57651977147e-06
4.57651807581e-06
4.57651984122e-06
4.5765248289e-06
4.57653250146e-06
4.57654204034e-06
4.57655236816e-06
4.57656227333e-06
4.57657060204e-06
4.57658292318e-06
4.5765753592e-06
4.57656620275e-06
4.5765567193e-06
4.57654801198e-06
4.57654105403e-06
4.57653657026e-06
4.57653503026e-06
4.57653663417e-06
4.57654117114e-06
4.5765481688e-06
4.57655690279e-06
4.57656641349e-06
4.57657562307e-06
4.5765833261e-06
4.57659623723e-06
4.57658915067e-06
4.57658057526e-06
4.57657182659e-06
4.57656388298e-06
4.57655757892e-06
4.57655353719e-06
4.57655215349e-06
4.57655359706e-06
4.57655769204e-06
4.57656403373e-06
4.57657201001e-06
4.57658079269e-06
4.57658941893e-06
4.57659662098e-06
4.57661055217e-06
4.57660364537e-06
4.57659539652e-06
4.57658719995e-06
4.57657990018e-06
4.57657418472e-06
4.5765705459e-06
4.57656930949e-06
4.5765706068e-06
4.57657429466e-06
4.57658005391e-06
4.57658738781e-06
4.57659562099e-06
4.57660391871e-06
4.57661091513e-06
4.57662595816e-06
4.57661871489e-06
4.57661061141e-06
4.57660279908e-06
4.57659602422e-06
4.57659079771e-06
4.5765875092e-06
4.57658640064e-06
4.5765875714e-06
4.57659091344e-06
4.57659618307e-06
4.5766029988e-06
4.57661084804e-06
4.57661899483e-06
4.57662630661e-06
4.57663216615e-06
4.57662781425e-06
4.57662167129e-06
4.57661586202e-06
4.57661086229e-06
4.57660701784e-06
4.57660460444e-06
4.57660380133e-06
4.5766046702e-06
4.57660714032e-06
4.57661103332e-06
4.57661607811e-06
4.57662192216e-06
4.57662810403e-06
4.57663251106e-06
4.13715890718e-06
4.13717225882e-06
4.13718640436e-06
4.13720023323e-06
4.13721232088e-06
4.13722166573e-06
4.13722756742e-06
4.1372295526e-06
4.13722742114e-06
4.13722136744e-06
4.13721186331e-06
4.13719967351e-06
4.1371858402e-06
4.13717193595e-06
4.13715865599e-06
4.13716762848e-06
4.13718075868e-06
4.13719487309e-06
4.13720877127e-06
4.13722096678e-06
4.13723042274e-06
4.13723640518e-06
4.13723841699e-06
4.13723624241e-06
4.1372300927e-06
4.13722046481e-06
4.13720815826e-06
4.13719426369e-06
4.13718036863e-06
4.13716743483e-06
4.13715766085e-06
4.13716916561e-06
4.13718179946e-06
4.13719455412e-06
4.13720587432e-06
4.13721472962e-06
4.13722035647e-06
4.13722225385e-06
4.13722019933e-06
4.13721441224e-06
4.13720539723e-06
4.13719396462e-06
4.13718121124e-06
4.13716872587e-06
4.13715744836e-06
4.13714609071e-06
4.13715622289e-06
4.13716758603e-06
4.13717926816e-06
4.13718976875e-06
4.13719805458e-06
4.13720334352e-06
4.13720513237e-06
4.13720319665e-06
4.137197759e-06
4.13718932765e-06
4.13717871595e-06
4.13716701252e-06
4.13715575978e-06
4.1371458174e-06
4.13713657546e-06
4.13714571978e-06
4.13715612613e-06
4.13716693436e-06