/*--------------------------------*- C++ -*----------------------------------*\
  =========                 |
  \\      /  F ield         | OpenFOAM: The Open Source CFD Toolbox
   \\    /   O peration     | Website:  https://openfoam.org
    \\  /    A nd           | Version:  7
     \\/     M anipulation  |
\*---------------------------------------------------------------------------*/
FoamFile
{
    version     2.0;
    format      ascii;
    class       surfaceScalarField;
    location    "1.36";
    object      phi;
}
// * * * * * * * * * * * * * * * * * * * * * * * * * * * * * * * * * * * * * //

dimensions      [0 3 -1 0 0 0 0];

internalField   nonuniform List<scalar> 
65775
(
-3.75458707053e-11
-9.82395783763e-09
2.77015223048e-10
-1.4778175263e-14
-6.8818464482e-11
-1.03616991277e-08
3.12173285513e-10
-7.63709909104e-11
-1.08652070152e-08
3.45546291904e-10
-6.94330369386e-11
-1.12940323371e-08
3.75495681816e-10
-5.39270663884e-11
-1.16379870152e-08
4.00645641567e-10
-3.32786503149e-11
-1.18903884486e-08
4.19709558701e-10
-9.74943713719e-12
-1.20488406569e-08
4.31760081335e-10
1.47357073185e-11
-1.21077497037e-08
4.36070215636e-10
3.81233466055e-11
-1.20487527923e-08
4.31837789102e-10
5.84989996789e-11
-1.18902232768e-08
4.19863304928e-10
7.3627548732e-11
-1.16377656927e-08
4.0086997284e-10
8.01137741433e-11
-1.12937810566e-08
3.75781844211e-10
7.20716045183e-11
-1.08649530913e-08
3.45880814396e-10
4.02857320582e-11
-1.03614618629e-08
3.12534592828e-10
-9.82381506703e-09
2.77366864732e-10
2.27957599681e-12
-1.30889832928e-10
-1.8597796415e-08
-2.26510022799e-10
7.47666113956e-14
-2.22663562602e-10
-1.96053852791e-08
-2.90128433749e-10
-2.53089580336e-10
-2.05458435766e-08
-3.58154621849e-10
-2.38204850873e-10
-2.13348398592e-08
-4.24507692095e-10
-1.90806367033e-10
-2.19598109453e-08
-4.83262035122e-10
-1.20833160192e-10
-2.24144154611e-08
-5.29390366765e-10
-3.73047825298e-11
-2.26984510217e-08
-5.59022103792e-10
5.06117759992e-11
-2.28039575891e-08
-5.69441807105e-10
1.33790926444e-10
-2.26981894917e-08
-5.58812248665e-10
2.03086152028e-10
-2.24139219689e-08
-5.28973938148e-10
2.49527359585e-10
-2.1959143545e-08
-4.82652976259e-10
2.63243699509e-10
-2.13340737672e-08
-4.23728826728e-10
2.31521338999e-10
-2.05450636219e-08
-3.57241820324e-10
1.38384347045e-10
-1.96046438396e-08
-2.89139867324e-10
-1.85973053966e-08
-2.25540185621e-10
6.33889948835e-12
-2.361273506e-10
-2.56295263869e-08
-1.40992871972e-09
2.75118412138e-14
-3.8465983866e-10
-2.6964396782e-08
-1.66275306963e-09
-4.43744955852e-10
-2.81820102025e-08
-1.91588370617e-09
-4.26707345595e-10
-2.91895301782e-08
-2.15152951185e-09
-3.4852715422e-10
-2.99779058938e-08
-2.35355545511e-09
-2.24606519024e-10
-3.0546511091e-08
-2.50862396209e-09
-7.22550035725e-11
-3.09003960065e-08
-2.60701416396e-09
8.94386002759e-11
-3.1032170415e-08
-2.64171213294e-09
2.41409503006e-10
-3.09000067912e-08
-2.60673155356e-09
3.64585780458e-10
-3.05457760549e-08
-2.50806330047e-09
4.41697223641e-10
-2.99769085469e-08
-2.35273225898e-09
4.57399209944e-10
-2.91883790605e-08
-2.15047037261e-09
3.96780905351e-10
-2.81808255841e-08
-1.91463270015e-09
2.46583301419e-10
-2.69632452408e-08
-1.66138538558e-09
-2.56286976363e-08
-1.40857127984e-09
8.8670855597e-12
-3.40043879463e-10
-3.06751364638e-08
-2.83870076392e-09
-2.02758438377e-15
-5.450194598e-10
-3.21889232933e-08
-3.28550480093e-09
-6.34758533426e-10
-3.35259767248e-08
-3.71935025042e-09
-6.1811708492e-10
-3.46198890892e-08
-4.11421721922e-09
-5.1057940779e-10
-3.54676698974e-08
-4.44702868103e-09
-3.32529287137e-10
-3.60754016665e-08
-4.69931515913e-09
-1.09960284463e-10
-3.64528714701e-08
-4.85820661155e-09
1.27385400911e-10
-3.659402856e-08
-4.91421910888e-09
3.49641557856e-10
-3.64524450943e-08
-4.85790592473e-09
5.27070694683e-10
-3.60745943311e-08
-4.69871739191e-09
6.3369602802e-10
-3.5466569792e-08
-4.4461477379e-09
6.49162241384e-10
-3.46186121085e-08
-4.11307670751e-09
5.58021662439e-10
-3.35246457627e-08
-3.71799170414e-09
3.51471630026e-10
-3.21876023892e-08
-3.28400363026e-09
-3.06740940068e-08
-2.83719170428e-09
9.77605557443e-12
-4.33703322362e-10
-3.38235667591e-08
-4.18878982989e-09
-3.00977564033e-14
-6.95118889223e-10
-3.53993378369e-08
-4.78788874438e-09
-8.14531684852e-10
-3.67451366023e-08
-5.35640657941e-09
-7.98451444754e-10
-3.78370561371e-08
-5.8656034158e-09
-6.63264716964e-10
-3.86781871868e-08
-6.28971158732e-09
-4.34408954387e-10
-3.9279302999e-08
-6.60846831068e-09
-1.46123434151e-10
-3.96525674536e-08
-6.80820944375e-09
1.61967029806e-10
-3.97927546582e-08
-6.87859689589e-09
4.50023043025e-10
-3.96521715659e-08
-6.80792823858e-09
6.78413593206e-10
-3.92785580631e-08
-6.60789918049e-09
8.12900457545e-10
-3.86771733226e-08
-6.288865094e-09
8.2805212134e-10
-3.7835878057e-08
-5.86449938979e-09
7.07492048916e-10
-3.67438965945e-08
-5.35508124936e-09
4.44752759814e-10
-3.539808994e-08
-4.78641090511e-09
-3.38224788674e-08
-4.18728824186e-09
9.53662929334e-12
-5.13592476559e-10
-3.53422212062e-08
-5.28524900549e-09
-5.56732064473e-14
-8.30008634379e-10
-3.6898686451e-08
-5.98866907277e-09
-9.76703043673e-10
-3.81897038779e-08
-6.64564257458e-09
-9.60636485478e-10
-3.92305305486e-08
-7.22804049392e-09
-8.00005426779e-10
-4.00299943732e-08
-7.70965514338e-09
-5.25409910362e-10
-4.06009317964e-08
-8.06984086855e-09
-1.78524818307e-10
-4.09557045895e-08
-8.29487641865e-09
1.92463289524e-10
-4.1089347176e-08
-8.37413083507e-09
5.39173900541e-10
-4.09553828481e-08
-8.29461024642e-09
8.13409673679e-10
-4.06003305979e-08
-8.06930283074e-09
9.73490677683e-10
-4.00291799768e-08
-7.70885555155e-09
9.88813522923e-10
-3.92295879228e-08
-7.22699801553e-09
8.41180395511e-10
-3.8188706139e-08
-6.64439030085e-09
5.23670005602e-10
-3.68976750769e-08
-5.98726994002e-09
-3.5341234645e-08
-5.28382315097e-09
8.75403585867e-12
-5.81053408756e-10
-3.55428082717e-08
-6.08243442022e-09
-7.58101385058e-14
-9.49309104943e-10
-3.70243789018e-08
-6.85520140682e-09
-1.12067889518e-09
-3.82271633556e-08
-7.57000302983e-09
-1.10421340076e-09
-3.91911353365e-08
-8.20006907744e-09
-9.20536108211e-10
-3.99310889013e-08
-8.71920475577e-09
-6.05325909858e-10
-4.04598722139e-08
-9.10650534284e-09
-2.06875365893e-10
-4.07887150943e-08
-9.34807787147e-09
2.19301114116e-10
-4.09127124517e-08
-9.43304962918e-09
6.17600130412e-10
-4.07884810174e-08
-9.34782417024e-09
9.32495818721e-10
-4.04594394652e-08
-9.10599382455e-09
1.11569086908e-09
-3.99305088929e-08
-8.7184468583e-09
1.13150266859e-09
-3.91904718183e-08
-8.19908431959e-09
9.59307636403e-10
-3.82264610346e-08
-7.56882389764e-09
5.90096339667e-10
-3.70236695639e-08
-6.85388772622e-09
-3.55420143688e-08
-6.08109902788e-09
7.87415529663e-12
-6.39730648678e-10
-3.47105621968e-08
-6.60317697889e-09
-8.91667032009e-14
-1.05565637089e-09
-3.60777734356e-08
-7.42454758252e-09
-1.24943505078e-09
-3.71738983916e-08
-8.18024893595e-09
-1.23235982479e-09
-3.80467671782e-08
-8.84441391141e-09
-1.02775111422e-09
-3.87174472572e-08
-9.390664899e-09
-6.7616050813e-10
-3.91973740268e-08
-9.79768714706e-09
-2.31842519403e-10
-3.94959453192e-08
-1.00512362438e-08
2.43310823782e-10
-3.96083870983e-08
-1.01402212872e-08
6.87478569916e-10
-3.94957939221e-08
-1.00509914566e-08
1.03875831505e-09
-3.919709923e-08
-9.7971951309e-09
1.24289373061e-09
-3.87170864863e-08
-9.38993875723e-09
1.25933303503e-09
-3.80463646673e-08
-8.84347493867e-09
1.06476260731e-09
-3.71734754701e-08
-8.17913049515e-09
6.47933141171e-10
-3.60773536135e-08
-7.42330849746e-09
-3.47099909147e-08
-6.60192473411e-09
7.12690879462e-12
-6.93276131413e-10
-3.30833894339e-08
-6.89115199748e-09
-9.64394931601e-14
-1.15260394205e-09
-3.43076197139e-08
-7.74941399724e-09
-1.3670185171e-09
-3.52856029402e-08
-8.53657574871e-09
-1.34913206411e-09
-3.60592706691e-08
-9.22711739126e-09
-1.12512185686e-09
-3.66553228704e-08
-9.7943427642e-09
-7.40254227108e-10
-3.7082647518e-08
-1.02165563084e-08
-2.54275005109e-10
-3.73483996637e-08
-1.04791845957e-08
2.65261417575e-10
-3.74481136206e-08
-1.0571057032e-08
7.51080356451e-10
-3.73483161235e-08
-1.04789468615e-08
1.13561891157e-09
-3.7082501277e-08
-1.02160799439e-08
1.35913282186e-09
-3.66551390816e-08
-9.79364252812e-09
1.37636028628e-09
-3.60590762114e-08
-9.2262164658e-09
1.16113842665e-09
-3.52854016787e-08
-8.53550879679e-09
7.00900522911e-10
-3.43074265994e-08
-7.74823977709e-09
-3.30830158258e-08
-6.88997354073e-09
6.58498906388e-12
-7.4434344124e-10
-3.08552709396e-08
-6.98763044789e-09
-9.88873814942e-14
-1.24348009758e-09
-3.19164723836e-08
-7.8753207525e-09
-1.47725971926e-09
-3.27689450608e-08
-8.6875075029e-09
-1.45816708591e-09
-3.34401289015e-08
-9.3987343053e-09
-1.21557215395e-09
-3.3959837485e-08
-9.98208366079e-09
-7.99504267376e-10
-3.43333151254e-08
-1.04157272645e-08
-2.74870196077e-10
-3.45652469053e-08
-1.06849586645e-08
2.85712202528e-10
-3.46516978299e-08
-1.07787503989e-08
8.10171200143e-10
-3.45652111421e-08
-1.06847280812e-08
1.22588261507e-09
-3.43332581032e-08
-1.04152665573e-08
1.46794473993e-09
-3.39597739743e-08
-9.98140901503e-09
1.48633736305e-09
-3.3440071245e-08
-9.397870515e-09
1.25171137156e-09
-3.27688840487e-08
-8.68649034744e-09
7.51627541086e-10
-3.19164133775e-08
-7.87420896217e-09
-3.08550263528e-08
-6.98652241794e-09
6.23960617572e-12
-7.9450214953e-10
-2.81865456761e-08
-6.92468305375e-09
-9.81190632838e-14
-1.33123820089e-09
-2.90718228774e-08
-7.8359466816e-09
-1.58355837794e-09
-2.97954948357e-08
-8.66769506262e-09
-1.56242380736e-09
-3.03660858161e-08
-9.39444435181e-09
-1.30126562244e-09
-3.08114697843e-08
-9.98932526286e-09
-8.55229567099e-10
-3.11322857888e-08
-1.04307581806e-08
-2.9410752027e-10
-3.1330869921e-08
-1.07041833631e-08
3.0501982747e-10
-3.14041178682e-08
-1.07989651621e-08
8.65950568086e-10
-3.13308584954e-08
-1.07039614919e-08
1.31160009184e-09
-3.11322724063e-08
-1.04303160848e-08
1.57218516178e-09
-3.08114611565e-08
-9.98868028127e-09
1.59257385745e-09
-3.03660827262e-08
-9.39362250708e-09
1.33936050885e-09
-2.97954785159e-08
-8.66673278108e-09
8.01628493237e-10
-2.90717877011e-08
-7.83490215984e-09
-2.81863282418e-08
-6.92364925318e-09
6.0520532556e-12
-8.44577822137e-10
-2.52133604587e-08
-6.72567326328e-09
-9.50508875245e-14
-1.41903281921e-09
-2.59147854841e-08
-7.65533991133e-09
-1.68912078274e-09
-2.65122485988e-08
-8.5016601311e-09
-1.66415121788e-09
-2.69900766758e-08
-9.23901324417e-09
-1.38354901908e-09
-2.73667026671e-08
-9.84096576029e-09
-9.08149944875e-10
-2.76381033187e-08
-1.02866401616e-08
-3.12241941208e-10
-2.78050518149e-08
-1.05619235441e-08
3.23347991394e-10
-2.78656633681e-08
-1.0656807422e-08
9.19048361108e-10
-2.78050385709e-08
-1.05617128689e-08
1.39403092961e-09
-2.76380825741e-08
-1.0286221513e-08
1.6740202058e-09
-2.73666762214e-08
-9.84035738285e-09
1.69819939609e-09
-2.69900377162e-08
-9.23824199498e-09
1.42717269229e-09
-2.651217183e-08
-8.50076248895e-09
8.51672847808e-10
-2.59146527677e-08
-7.65437262349e-09
-2.52130448891e-08
-6.72472287716e-09
5.97788001881e-12
-8.97164880844e-10
-2.20521740036e-08
-6.4076949431e-09
-9.12743603492e-14
-1.51249332865e-09
-2.25655460486e-08
-7.3513936208e-09
-1.79731638865e-09
-2.30499660657e-08
-8.20789923981e-09
-1.7645145362e-09
-2.34484241664e-08
-8.95125745182e-09
-1.46258775807e-09
-2.3763963442e-08
-9.55605992369e-09
-9.58186159257e-10
-2.39902948744e-08
-1.00026358872e-08
-3.29244878094e-10
-2.41281042386e-08
-1.02775988309e-08
3.40603622068e-10
-2.41770154366e-08
-1.03717658529e-08
9.69321520727e-10
-2.41280600992e-08
-1.0277402323e-08
1.4732775553e-09
-2.39902107049e-08
-1.00022465345e-08
1.77455347771e-09
-2.3763839288e-08
-9.55549664652e-09
1.80652403111e-09
-2.34482510858e-08
-8.95054759639e-09
1.52072288139e-09
-2.30497166819e-08
-8.20707865925e-09
9.04308835037e-10
-2.25651892726e-08
-7.35051623055e-09
-2.20516158553e-08
-6.40683955079e-09
5.97803609355e-12
-9.67870838759e-10
-1.87908256991e-08
-5.98375997535e-09
-8.76410805371e-14
-1.62473392246e-09
-1.91320677671e-08
-6.93882362126e-09
-1.91292810016e-09
-1.95323526899e-08
-7.80179741968e-09
-1.86458176172e-09
-1.98654954604e-08
-8.54684819829e-09
-1.53847801785e-09
-2.01266731771e-08
-9.15058679389e-09
-1.00531989512e-09
-2.03122143839e-08
-9.59503122167e-09
-3.45126588319e-10
-2.04237976543e-08
-9.86772441228e-09
3.56751526621e-10
-2.04622189469e-08
-9.96044913248e-09
1.01670657033e-09
-2.04236913775e-08
-9.86754512899e-09
1.54939191852e-09
-2.03120057329e-08
-9.59467720012e-09
1.87480908371e-09
-2.01263639226e-08
-9.15007741188e-09
1.92228661903e-09
-1.98650806519e-08
-8.54621105327e-09
1.63308199738e-09
-1.9531811755e-08
-7.80106720934e-09
9.75108490642e-10
-1.91313619423e-08
-6.93804963331e-09
-1.87898783288e-08
-5.9830108544e-09
6.03349189216e-12
-1.10811350784e-09
-5.4624891082e-09
-8.40383547228e-14
-1.54571141426e-08
-1.78078231525e-09
-6.42999437031e-09
-1.57363399357e-08
-2.05406801294e-09
-7.29565697412e-09
-1.60777283398e-08
-1.98171843552e-09
-8.03864930482e-09
-1.63535390162e-08
-1.62656436651e-09
-8.63829186183e-09
-1.65665273488e-08
-1.06007678734e-09
-9.07840829079e-09
-1.6717454901e-08
-3.63626543046e-10
-9.34746218922e-09
-1.68075236686e-08
3.75504204097e-10
-9.43823300957e-09
-1.68373982145e-08
1.07170250478e-09
-9.34730247516e-09
-1.68073222056e-08
1.6376916594e-09
-9.07809425449e-09
-1.67170570578e-08
1.99212409543e-09
-8.63784307084e-09
-1.65659389029e-08
2.06356540093e-09
-8.0380935415e-09
-1.63527642035e-08
1.78923476228e-09
-7.29502771204e-09
-1.60767624759e-08
1.11544233497e-09
-6.42933777187e-09
-1.57351572971e-08
-5.46185116015e-09
6.09710820711e-12
-1.54556380581e-08
-2.60472609938e-11
1.16290164973e-09
-8.59856637839e-10
-4.19254350036e-14
-4.10361241597e-11
1.28278180552e-09
-9.55716468685e-10
-4.68673906916e-11
1.3979176335e-09
-1.04664027535e-09
-4.58882872147e-11
1.50295811007e-09
-1.1285328034e-09
-3.84007104883e-11
1.59026891988e-09
-1.19718087157e-09
-2.55923973254e-11
1.65593312653e-09
-1.24908550115e-09
-9.22916931884e-12
1.69724687401e-09
-1.28189652807e-09
8.40531481825e-12
1.71207549559e-09
-1.29368361821e-09
2.47862933047e-11
1.69729657769e-09
-1.28188187846e-09
3.76327237278e-11
1.65603246913e-09
-1.24905629637e-09
4.51823314121e-11
1.59041944658e-09
-1.19713823722e-09
4.62495368634e-11
1.50315532952e-09
-1.12847876919e-09
4.05265769495e-11
1.39814525029e-09
-1.04657840814e-09
2.56487607467e-11
1.28303073086e-09
-9.55653978166e-10
1.16313417324e-09
-8.59810337187e-10
-3.42070087386e-13
-3.95652940931e-11
3.16029927846e-09
-2.184404239e-09
-4.70598634959e-14
-6.11407317437e-11
3.43455637229e-09
-2.42047776767e-09
-6.98516543191e-11
3.69144615871e-09
-2.64312971155e-09
-6.80046420929e-11
3.91909744929e-09
-2.84263189912e-09
-5.67952506931e-11
4.1048944102e-09
-3.00920395362e-09
-3.79613165764e-11
4.24241166516e-09
-3.13478819023e-09
-1.40582328575e-11
4.32827514711e-09
-3.2140287018e-09
1.17057470168e-11
4.3592557947e-09
-3.24245683889e-09
3.56613101446e-11
4.32845135732e-09
-3.21399036236e-09
5.46033076392e-11
4.24276171841e-09
-3.13471028672e-09
6.59793869551e-11
4.10541704697e-09
-3.00908935643e-09
6.80525119997e-11
3.91977867902e-09
-2.84248592638e-09
5.96134212772e-11
3.69224581926e-09
-2.64296189229e-09
3.83260854809e-11
3.43542998651e-09
-2.42030758568e-09
3.16116420921e-09
-2.18427105765e-09
-1.02503404198e-12
-3.05679199605e-11
5.03781984365e-09
-3.25686580674e-09
-1.17538229619e-13
-4.43871045196e-11
5.39389211033e-09
-3.60840353867e-09
-5.00361365817e-11
5.7199170132e-09
-3.9388467668e-09
-4.83986930459e-11
5.99993488029e-09
-4.23412647931e-09
-4.05258399414e-11
6.22351941275e-09
-4.48014938262e-09
-2.74760165679e-11
6.38599777628e-09
-4.66533782537e-09
-1.08972244163e-11
6.48660295952e-09
-4.78198988112e-09
7.07667239223e-12
6.52322718726e-09
-4.82372237211e-09
2.37426509442e-11
6.48692081244e-09
-4.78192910643e-09
3.69717775245e-11
6.38662405311e-09
-4.66521444615e-09
4.51190112075e-11
6.22444795598e-09
-4.47996788122e-09
4.71244231044e-11
6.0011424745e-09
-4.23389519214e-09
4.19152461811e-11
5.72134898261e-09
-3.93858033048e-09
2.85664403597e-11
5.39547308619e-09
-3.60813067169e-09
5.039443989e-09
-3.25664211231e-09
-1.6897512107e-12
-1.06745215202e-11
6.36542683561e-09
-4.15556784479e-09
-1.61387562491e-13
-1.12119692902e-11
6.71675561979e-09
-4.60795173437e-09
-1.1722233768e-11
7.0328048052e-09
-5.03185280435e-09
-1.14184771094e-11
7.2950443113e-09
-5.40973796881e-09
-1.02089872356e-11
7.49920641267e-09
-5.72401188517e-09
-7.87277958537e-12
7.64451988967e-09
-5.96024552535e-09
-4.50792427898e-12
7.73378354093e-09
-6.10881649284e-09
-5.503574867e-13
7.76680407903e-09
-6.16181395792e-09
2.92765011003e-12
7.73421401898e-09
-6.10873469222e-09
5.49673211184e-12
7.64536387992e-09
-5.96008148567e-09
7.06041241476e-12
7.5004542525e-09
-5.72377089516e-09
7.83572859165e-12
7.29667014397e-09
-5.40943108728e-09
7.88963874726e-12
7.03475255128e-09
-5.03149865706e-09
7.96289046971e-12
6.71893453607e-09
-4.60758489932e-09
6.36772904355e-09
-4.15525347778e-09
-2.30309555968e-12
1.26548890632e-11
7.0517256018e-09
-4.8876396138e-09
-1.91318517468e-13
2.49026131919e-11
7.34389379349e-09
-5.42738258373e-09
2.90305370892e-11
7.60384759702e-09
-5.93168618535e-09
2.72753205611e-11
7.81142801901e-09
-6.38032661222e-09
2.11879747984e-11
7.96839681984e-09
-6.75289226154e-09
1.234578259e-11
8.07746116099e-09
-7.03263310656e-09
2.17616255213e-12
8.14400679065e-09
-7.20832226144e-09
-8.16552877141e-12
8.16929717262e-09
-7.27080384163e-09
-1.82093863449e-11
8.14448720513e-09
-7.20821041235e-09
-2.67877497892e-11
8.0784128936e-09
-7.03242051776e-09
-3.24734437674e-11
7.96981325725e-09
-6.75258721382e-09
-3.36943036061e-11
7.81328759888e-09
-6.37994309383e-09
-2.89236491084e-11
7.60610170817e-09
-5.93124619533e-09
-1.59711787151e-11
7.34645285909e-09
-5.42692416976e-09
7.05449627479e-09
-4.88723550514e-09
-2.83047939567e-12
3.51945770907e-11
7.19434355207e-09
-5.46293166643e-09
-2.11788630584e-13
5.76487421873e-11
7.41101491129e-09
-6.07833915084e-09
6.52824764783e-11
7.60236709761e-09
-6.65189148772e-09
6.13265015937e-11
7.74849909807e-09
-7.16123990602e-09
4.86522665169e-11
7.85503942574e-09
-7.58369420724e-09
2.99980242534e-11
7.92680803861e-09
-7.90059459463e-09
8.0695354939e-12
7.97035489358e-09
-8.0993514706e-09
-1.46677618327e-11
7.98766503242e-09
-8.16981333147e-09
-3.6466173737e-11
7.97084776743e-09
-8.09922176106e-09
-5.4845548995e-11
7.92778945936e-09
-7.9003472558e-09
-6.71001265862e-11
7.85650604473e-09
-7.58333928652e-09
-7.04962883202e-11
7.75043569759e-09
-7.16079383109e-09
-6.21840358172e-11
7.60473623759e-09
-6.65137893714e-09
-3.89767620485e-11
7.41373754654e-09
-6.0778008601e-09
7.19734986745e-09
-5.46244429026e-09
-3.24552840368e-12
5.47954641786e-11
6.94968490013e-09
-5.89242164967e-09
-2.24660996828e-13
8.49652079861e-11
7.09892344867e-09
-6.5733621927e-09
9.51559860738e-11
7.22857652339e-09
-7.20648716333e-09
8.92348152541e-11
7.32206028622e-09
-7.76778354631e-09
7.11099451331e-11
7.38664684245e-09
-8.23275107106e-09
4.44400201255e-11
7.42811808423e-09
-8.5812014403e-09
1.29457343941e-11
7.45314359765e-09
-8.79942352118e-09
-1.98696716714e-11
7.46389946881e-09
-8.87651677742e-09
-5.12356887963e-11
7.45362193611e-09
-8.79927804141e-09
-7.76336294953e-11
7.4290730056e-09
-8.5809232221e-09
-9.53420547622e-11
7.38807724874e-09
-8.23235181386e-09
-1.00705702887e-10
7.32395634545e-09
-7.76728185447e-09
-8.98336825629e-11
7.23091185491e-09
-7.20590995912e-09
-5.88989618703e-11
7.10163179925e-09
-6.57275252733e-09
6.95272037918e-09
-5.89185871004e-09
-3.5428754477e-12
7.06210580206e-11
6.46217617208e-09
-6.18612551549e-09
-2.31077336353e-13
1.06728565932e-10
6.56156882495e-09
-6.92337261093e-09
1.18836101463e-10
6.64329488196e-09
-7.60714787591e-09
1.1131451528e-10
6.69732005152e-09
-8.2122181432e-09
8.88627690482e-11
6.73111556082e-09
-8.71273984132e-09
5.58709828147e-11
6.75077056876e-09
-9.08739965895e-09
1.68519829591e-11
6.76251795594e-09
-9.32163937523e-09
-2.38889747221e-11
6.76844821456e-09
-9.40407401736e-09
-6.27849796748e-11
6.76296453725e-09
-9.32148072802e-09
-9.55153263777e-11
6.75166282617e-09
-9.08709550321e-09
-1.17565936005e-10
6.73245302352e-09
-8.71230332426e-09
-1.24548731353e-10
6.69909610665e-09
-8.21166969763e-09
-1.11778369201e-10
6.64549155326e-09
-7.60651625438e-09
-7.49181998899e-11
6.56413313739e-09
-6.92270293457e-09
6.46507868462e-09
-6.18549841882e-09
-3.73373761008e-12
8.26222056973e-11
5.84082812152e-09
-6.35225449585e-09
-2.32555634807e-13
1.23488821772e-10
5.90821047459e-09
-7.13698475508e-09
1.37102263087e-10
5.95584310338e-09
-7.86280058561e-09
1.28354160365e-10
5.98259526097e-09
-8.50370271505e-09
1.02556545267e-10
5.99549174132e-09
-9.03297339523e-09
6.46973833581e-11
6.0006206504e-09
-9.42859462727e-09
1.99035562246e-11
6.00354129241e-09
-9.67545818567e-09
-2.69157981549e-11
6.00613781014e-09
-9.76196890459e-09
-7.1592973154e-11
6.00394473012e-09
-9.67528950179e-09
-1.09203961632e-10
6.00142643908e-09
-9.42827059267e-09
-1.34620545381e-10
5.99669884446e-09
-9.03250837273e-09
-1.42855789333e-10
5.98419849892e-09
-8.50311860545e-09
-1.28608122725e-10
5.95782986705e-09
-7.86212759425e-09
-8.70144266943e-11
5.91053909422e-09
-7.13626982782e-09
5.84348025098e-09
-6.35157857674e-09
-3.83903079492e-12
9.12043307513e-11
5.1596644102e-09
-6.39749570447e-09
-2.30058596123e-13
1.35983674637e-10
5.20917573381e-09
-7.2211189759e-09
1.50839533966e-10
5.23405109334e-09
-7.98062575388e-09
1.41220311304e-10
5.24309687564e-09
-8.64966774662e-09
1.12906029413e-10
5.24276411324e-09
-9.20108861955e-09
7.13777158739e-11
5.23895436884e-09
-9.61257598556e-09
2.22388724227e-11
5.23645018877e-09
-9.86876946231e-09
-2.91519097314e-11
5.23687209503e-09
-9.9581324432e-09
-7.81800254029e-11
5.23680224547e-09
-9.8685943143e-09
-1.19473057917e-10
5.23965671143e-09
-9.61223907929e-09
-1.47426396137e-10
5.24381444885e-09
-9.2006053204e-09
-1.56559600861e-10
5.24448984473e-09
-8.64906110662e-09
-1.41100524399e-10
5.23577717918e-09
-7.97992707289e-09
-9.56239715655e-11
5.21120243894e-09
-7.22037669172e-09
5.16198002326e-09
-6.39678978429e-09
-3.88252130914e-12
9.69802558662e-11
4.46590447961e-09
-6.32772806499e-09
-2.25167952548e-13
1.44998559569e-10
4.50714813676e-09
-7.18198322295e-09
1.60964415529e-10
4.51763978492e-09
-7.96729639434e-09
1.50828928423e-10
4.51599325625e-09
-8.65724987947e-09
1.20687700453e-10
4.50815220242e-09
-9.22461389955e-09
7.64231060572e-11
4.49959047349e-09
-9.64716912298e-09
2.40221802865e-11
4.49422181421e-09
-9.90959132319e-09
-3.08073689636e-11
4.49335752923e-09
-1.00006567091e-08
-8.31024099019e-11
4.4945155152e-09
-9.90941362909e-09
-1.27142769632e-10
4.50017525972e-09
-9.64682708795e-09
-1.56940801674e-10
4.50902446862e-09
-9.22412372281e-09
-1.66614586181e-10
4.5171467169e-09
-8.65663548203e-09
-1.50074319304e-10
4.5190661285e-09
-7.96658980971e-09
-1.01387408546e-10
4.50882168013e-09
-7.18123389336e-09
4.46781931518e-09
-6.32701365081e-09
-3.88587825917e-12
1.00565724463e-10
3.78850450394e-09
-6.14866506752e-09
-2.1863882761e-13
1.51360947191e-10
3.8268646947e-09
-7.02589105591e-09
1.68532042611e-10
3.82868119004e-09
-7.82991264813e-09
1.5827454698e-10
3.82144790685e-09
-8.53424926617e-09
1.26839151222e-10
3.81048930707e-09
-9.11190448197e-09
8.04555569637e-11
3.80043957146e-09
-9.54114076913e-09
2.5461915095e-11
3.79421251751e-09
-9.8069544885e-09
-3.21193458787e-11
3.79277062875e-09
-9.898671335e-09
-8.70107227652e-11
3.79444123202e-09
-9.80677844159e-09
-1.33178724128e-10
3.80089406755e-09
-9.54080193342e-09
-1.64285435633e-10
3.81116454868e-09
-9.11141974928e-09
-1.74101648291e-10
3.82233667875e-09
-8.53364317322e-09
-1.56380902302e-10
3.82977499287e-09
-7.82921749565e-09
-1.04941309424e-10
3.82814280257e-09
-7.0251565191e-09
3.78996569225e-09
-6.14796528622e-09
-3.86686760591e-12
1.02588242422e-10
3.14462110939e-09
-5.86622817107e-09
-2.1179245439e-13
1.56300411427e-10
3.18157563765e-09
-6.75985060827e-09
1.751860569e-10
3.17846932752e-09
-7.57660751804e-09
1.65197879763e-10
3.16975677918e-09
-8.2896115169e-09
1.3270191298e-10
3.15939443712e-09
-8.87250160464e-09
8.43394325364e-11
3.15060777802e-09
-9.30447319145e-09
2.68515890448e-11
3.14519971365e-09
-9.57112804461e-09
-3.33959633442e-11
3.14377643182e-09
-9.66255351198e-09
-9.07836169774e-11
3.14535708117e-09
-9.57095803738e-09
-1.38936664975e-10
3.15091925236e-09
-9.3041462878e-09
-1.71114651698e-10
3.15985479159e-09
-8.87203529077e-09
-1.80677780102e-10
3.17035778892e-09
-8.28903070269e-09
-1.61262857301e-10
3.17920236199e-09
-7.57594414611e-09
-1.06926560434e-10
3.18242220315e-09
-6.75915321983e-09
3.14558447806e-09
-5.86556612195e-09
-3.83805292851e-12
1.04039401096e-10
2.54364469289e-09
-5.4866547517e-09
-2.06050772403e-13
1.6221469671e-10
2.57678049323e-09
-6.39223313902e-09
1.83856131823e-10
2.57199800582e-09
-7.21699685042e-09
1.74264350242e-10
2.56603508816e-09
-7.93356439221e-09
1.40329600951e-10
2.55981184031e-09
-8.51709824282e-09
8.93613198994e-11
2.55476307744e-09
-8.94824596239e-09
2.8627270286e-11
2.55164301197e-09
-9.21346102225e-09
-3.50770975559e-11
2.5507630982e-09
-9.30375709757e-09
-9.57113887878e-11
2.55172209385e-09
-9.21330148168e-09
-1.46472758929e-10
2.5549188078e-09
-8.94793978939e-09
-1.80095664925e-10
2.56003946075e-09
-8.51666344117e-09
-1.89273039765e-10
2.56632735849e-09
-7.93302615609e-09
-1.671188821e-10
2.57234589026e-09
-7.21638612915e-09
-1.0833781307e-10
2.57716746903e-09
-6.39159501972e-09
2.54407632217e-09
-5.48605169057e-09
-3.80625105202e-12
9.99119022092e-11
-5.01917144693e-09
-2.02082989229e-13
2.00058204955e-09
1.70733109042e-10
-5.93647281466e-09
2.01241151292e-09
1.9724951437e-10
-6.76374686703e-09
2.01354496655e-09
1.88183622052e-10
-7.47818734264e-09
2.01461327416e-09
1.52078211541e-10
-8.05752135148e-09
2.01512085264e-09
9.71420964276e-11
-8.48422153325e-09
2.01548704923e-09
3.13688300235e-11
-8.74572493944e-09
2.0156549521e-09
-3.77390693596e-11
-8.83407233393e-09
2.01568678689e-09
-1.03410052273e-10
-8.74557989658e-09
2.01564834828e-09
-1.58136793042e-10
-8.48394399422e-09
2.01547266505e-09
-1.93929196321e-10
-8.05712971993e-09
2.01509651259e-09
-2.02583844396e-10
-7.47770721528e-09
2.01457460343e-09
-1.75564155947e-10
-6.7632080076e-09
2.01348694725e-09
-1.04155478634e-10
-5.93591753138e-09
2.01232036351e-09
-5.01864166797e-09
-3.7562885994e-12
2.00045076085e-09
1.95054408006e-11
-2.29621012145e-10
-6.49754728199e-10
-3.73314034079e-14
3.09160994293e-11
-2.54999328046e-10
-7.12187828212e-10
3.62373613739e-11
-2.81486521118e-10
-7.70544525475e-10
3.57596627372e-11
-3.05573233258e-10
-8.2253877218e-10
2.99615834679e-11
-3.25702594058e-10
-8.65738336976e-10
1.9837046549e-11
-3.40836496649e-10
-8.98180730182e-10
6.84897683003e-12
-3.50341604229e-10
-9.18616635627e-10
-7.1668286337e-12
-3.53723568692e-10
-9.25986387133e-10
-2.01407199883e-11
-3.50339142794e-10
-9.1860524718e-10
-3.02390051346e-11
-3.40832540303e-10
-8.98157977735e-10
-3.60037399782e-11
-3.25698542678e-10
-8.65704714987e-10
-3.64466666912e-11
-3.05568414509e-10
-8.22495399619e-10
-3.10852160062e-11
-2.81472501743e-10
-7.70493864371e-10
-1.96383399694e-11
-2.54989953675e-10
-7.1213606888e-10
-2.29612612097e-10
-6.4971787293e-10
-1.41897459e-13
4.33584024949e-11
-4.9688249292e-10
-1.96054594813e-09
-3.78810761185e-14
7.07894339181e-11
-5.4485081987e-10
-2.15815646933e-09
8.37192247286e-11
-5.94068700818e-10
-2.34358057421e-09
8.28494904912e-11
-6.38261601148e-10
-2.50916772129e-09
6.94611859211e-11
-6.74576110264e-10
-2.64703460602e-09
4.59888708787e-11
-7.01499852849e-10
-2.75073979797e-09
1.5884715287e-11
-7.18282790442e-10
-2.81606035026e-09
-1.65885980555e-11
-7.24273951735e-10
-2.8394993481e-09
-4.66690848745e-11
-7.18278457931e-10
-2.81602838031e-09
-7.00972191138e-11
-7.01491090531e-10
-2.75067544506e-09
-8.34279335359e-11
-6.74565811062e-10
-2.6469390842e-09
-8.42332236674e-11
-6.38249687015e-10
-2.50904408933e-09
-7.12288615711e-11
-5.94045120641e-10
-2.34343591685e-09
-4.37267588617e-11
-5.44830941944e-10
-2.1580083499e-09
-4.96866727675e-10
-1.96043297706e-09
-3.47219302003e-13
5.55931788939e-11
-6.90721314522e-10
-3.1186042006e-09
-9.04782585936e-14
9.18900834523e-11
-7.49449206976e-10
-3.44019241104e-09
1.09040400372e-10
-8.08580487191e-10
-3.74157674463e-09
1.07902718915e-10
-8.60959420174e-10
-4.01037669786e-09
9.03698582606e-11
-9.03301967232e-10
-4.23397439135e-09
5.97656474956e-11
-9.34256035118e-10
-4.40205653603e-09
2.06312187181e-11
-9.53389875704e-10
-4.50781855374e-09
-2.15360554748e-11
-9.6023457586e-10
-4.54565532865e-09
-6.06384706089e-11
-9.53392754196e-10
-4.50776589571e-09
-9.11829903102e-11
-9.34258019997e-10
-4.40195119214e-09
-1.08637884756e-10
-9.03304519442e-10
-4.23381872368e-09
-1.09687475843e-10
-8.60960911206e-10
-4.01017609682e-09
-9.24386282391e-11
-8.08570983646e-10
-3.74134268959e-09
-5.60453010821e-11
-7.49440613562e-10
-3.43995113722e-09
-6.90717454325e-10
-3.11841034651e-09
-4.60184874966e-13
5.99620055323e-11
-8.1922950867e-10
-4.08697285237e-09
-1.1779814193e-13
9.98545175478e-11
-8.80743527916e-10
-4.51662840784e-09
1.18800608684e-10
-9.41061225442e-10
-4.9183989913e-09
1.17555835978e-10
-9.93425305636e-10
-5.27610509574e-09
9.83657266639e-11
-1.0349201141e-09
-5.57327866425e-09
6.49950366985e-11
-1.06474392956e-09
-5.79645702169e-09
2.24335302251e-11
-1.08299355192e-09
-5.93671401769e-09
-2.33842007776e-11
-1.08954066607e-09
-5.98674540583e-09
-6.59126852067e-11
-1.08300620225e-09
-5.93664194302e-09
-9.92226299223e-11
-1.06476080805e-09
-5.79631344162e-09
-1.18332765631e-10
-1.03493958567e-09
-5.57306715251e-09
-1.19486026568e-10
-9.93444459655e-10
-5.27583328184e-09
-1.00438141239e-10
-9.41072299274e-10
-4.91808200385e-09
-6.04449781583e-11
-8.80754444331e-10
-4.51629834317e-09
-8.19242182798e-10
-4.0866935416e-09
-5.11018166156e-13
5.92836568988e-11
-8.88349775489e-10
-4.87773384766e-09
-1.31586417231e-13
9.93406462256e-11
-9.47031166822e-10
-5.40121831127e-09
1.18468841582e-10
-1.00248389958e-09
-5.88946237322e-09
1.17262641895e-10
-1.04929025699e-09
-6.32332346696e-09