/*--------------------------------*- C++ -*----------------------------------*\
  =========                 |
  \\      /  F ield         | OpenFOAM: The Open Source CFD Toolbox
   \\    /   O peration     | Website:  https://openfoam.org
    \\  /    A nd           | Version:  7
     \\/     M anipulation  |
\*---------------------------------------------------------------------------*/
FoamFile
{
    version     2.0;
    format      ascii;
    class       volScalarField;
    location    "0.3";
    object      p;
}
// * * * * * * * * * * * * * * * * * * * * * * * * * * * * * * * * * * * * * //

dimensions      [0 2 -2 0 0 0 0];

internalField   nonuniform List<scalar> 
22500
(
3.95802951382e-06
3.95678315665e-06
3.9550872848e-06
3.95396554138e-06
3.95313082713e-06
3.95263916756e-06
3.95244011456e-06
3.95250764644e-06
3.95281264621e-06
3.95337007218e-06
3.9541877023e-06
3.95529966887e-06
3.95662795094e-06
3.95843748965e-06
3.9597611159e-06
3.95307679737e-06
3.95172791694e-06
3.94969234601e-06
3.948180327e-06
3.94696180387e-06
3.9461565825e-06
3.945753476e-06
3.94574771595e-06
3.94612222269e-06
3.94688047186e-06
3.94801065452e-06
3.94950729454e-06
3.95123233297e-06
3.95339304589e-06
3.95483255853e-06
3.9498284656e-06
3.94847677238e-06
3.94630114376e-06
3.94456408291e-06
3.9430915138e-06
3.94206773362e-06
3.94151780915e-06
3.94145921588e-06
3.94188549487e-06
3.9427904216e-06
3.94414096462e-06
3.94589491847e-06
3.94785172096e-06
3.95016065229e-06
3.95161107745e-06
3.94888290403e-06
3.94764357474e-06
3.94556211065e-06
3.943786507e-06
3.94221964405e-06
3.94109246119e-06
3.94046399374e-06
3.94037441391e-06
3.94082731291e-06
3.94180743291e-06
3.94326007873e-06
3.94510983393e-06
3.94711036562e-06
3.94933395516e-06
3.95067809551e-06
3.94987197653e-06
3.94889941387e-06
3.94712467158e-06
3.94548616818e-06
3.94397919868e-06
3.94286409084e-06
3.94222901796e-06
3.94213205254e-06
3.94258501179e-06
3.94356548713e-06
3.94500195403e-06
3.94679115952e-06
3.94865822339e-06
3.95058486781e-06
3.95166803647e-06
3.952765492e-06
3.95229464796e-06
3.95105676928e-06
3.94976745661e-06
3.94850935477e-06
3.94755243624e-06
3.94700333699e-06
3.94693032275e-06
3.94735039729e-06
3.9482369031e-06
3.94950944775e-06
3.95104766506e-06
3.95256809337e-06
3.95396700116e-06
3.95455219051e-06
3.95770759953e-06
3.95806572198e-06
3.95763037625e-06
3.9569495902e-06
3.95617293481e-06
3.95555657431e-06
3.95520984726e-06
3.95520068297e-06
3.9555474735e-06
3.95622302393e-06
3.9571484517e-06
3.95820203173e-06
3.95911495274e-06
3.95971983526e-06
3.95947837171e-06
3.96489454396e-06
3.96648636721e-06
3.96715202334e-06
3.96737721018e-06
3.96734858623e-06
3.9672827648e-06
3.96727262333e-06
3.96737372148e-06
3.96760141711e-06
3.96793230905e-06
3.96830078109e-06
3.96860278631e-06
3.96860966809e-06
3.9681202092e-06
3.96664571423e-06
3.97453456999e-06
3.97780639283e-06
3.97989050194e-06
3.98133436988e-06
3.9823336104e-06
3.98303886247e-06
3.9835060636e-06
3.98376618319e-06
3.98382724714e-06
3.9836738308e-06
3.98326556099e-06
3.98253620609e-06
3.98132365644e-06
3.97942042954e-06
3.97626733729e-06
3.98679858943e-06
3.99218469059e-06
3.99599779859e-06
3.99895899645e-06
4.00125410019e-06
4.00294129672e-06
4.00401992654e-06
4.00448563858e-06
4.0043352083e-06
4.00356500966e-06
4.00217047896e-06
4.00014247909e-06
3.99741152253e-06
3.99378209977e-06
3.98851552731e-06
4.00176123348e-06
4.00963029672e-06
4.0154415689e-06
4.02017450414e-06
4.0239964898e-06
4.02684715367e-06
4.02865209549e-06
4.02936316758e-06
4.02896337298e-06
4.02746333879e-06
4.02490246772e-06
4.02134581066e-06
4.01684225386e-06
4.01121612341e-06
4.00346943797e-06
4.01944067749e-06
4.02998589114e-06
4.0379584385e-06
4.04464381573e-06
4.05016556629e-06
4.0543151356e-06
4.05693054876e-06
4.05791601344e-06
4.05723955349e-06
4.05492712866e-06
4.05106611873e-06
4.04580921437e-06
4.03935316626e-06
4.0315668365e-06
4.02114858221e-06
4.039882022e-06
4.0528434746e-06
4.06298279403e-06
4.07173248356e-06
4.07906272677e-06
4.084587047e-06
4.08805522291e-06
4.08932903318e-06
4.08836305074e-06
4.08519711743e-06
4.07996159356e-06
4.07289723409e-06
4.06437846113e-06
4.05442683851e-06
4.04159745895e-06
4.06194492719e-06
4.07701401585e-06
4.08953435084e-06
4.10054115264e-06
4.10977411878e-06
4.11669977543e-06
4.12102208132e-06
4.12258181867e-06
4.12132868663e-06
4.11730828933e-06
4.11067200637e-06
4.1017075572e-06
4.09093555488e-06
4.07860919768e-06
4.06367437162e-06
4.07981943595e-06
4.10075576253e-06
4.11646080863e-06
4.13019161791e-06
4.14147542361e-06
4.14983270879e-06
4.15500375802e-06
4.15684434922e-06
4.15530853112e-06
4.15043807275e-06
4.14237079949e-06
4.13135828328e-06
4.11786976194e-06
4.10237197778e-06
4.08157074798e-06
-8.30495331642e-07
-8.29160208174e-07
-8.27471980082e-07
-8.25943628089e-07
-8.24649271696e-07
-8.23712164279e-07
-8.23194401556e-07
-8.23134781035e-07
-8.23542176172e-07
-8.24393190035e-07
-8.25626942677e-07
-8.27158968094e-07
-8.28833896324e-07
-8.30562574593e-07
-8.318450621e-07
-8.26441216454e-07
-8.25158772357e-07
-8.2348476045e-07
-8.21961816423e-07
-8.20656405486e-07
-8.19707654135e-07
-8.19180835052e-07
-8.19114398374e-07
-8.1951765252e-07
-8.20366338399e-07
-8.21601529648e-07
-8.23135985038e-07
-8.24805126681e-07
-8.2652796172e-07
-8.27771837496e-07
-8.24714885754e-07
-8.23744989387e-07
-8.22320090197e-07
-8.21032197732e-07
-8.19914807039e-07
-8.19107060596e-07
-8.18666924363e-07
-8.18628197805e-07
-8.18999113982e-07
-8.19757261896e-07
-8.20849590828e-07
-8.22195266142e-07
-8.23631256417e-07
-8.25107860819e-07
-8.2604198148e-07
-8.25714825865e-07
-8.25221462427e-07
-8.24188666617e-07
-8.23265863907e-07
-8.22447867856e-07
-8.21862306007e-07
-8.21556983927e-07
-8.21561147457e-07
-8.21882015367e-07
-8.22499090308e-07
-8.23364812448e-07
-8.24408722729e-07
-8.2547990671e-07
-8.2656720099e-07
-8.2702857052e-07
-8.28239650246e-07
-8.28187923271e-07
-8.27513283551e-07
-8.26914147933e-07
-8.26358195776e-07
-8.25963200717e-07
-8.25771386547e-07
-8.25809841403e-07
-8.26085396134e-07
-8.26578870509e-07
-8.27245864843e-07
-8.28022719236e-07
-8.28769305066e-07
-8.29501485762e-07
-8.29527611766e-07
-8.31267635284e-07
-8.31473348225e-07
-8.31002880411e-07
-8.30575150129e-07
-8.30151679832e-07
-8.29847554006e-07
-8.29706299296e-07
-8.29756399052e-07
-8.30005702622e-07
-8.30434921556e-07
-8.30999584353e-07
-8.31636186638e-07
-8.32209199351e-07
-8.32739994614e-07
-8.32516669205e-07
-8.34046897747e-07
-8.34251531783e-07
-8.33787780547e-07
-8.33345037986e-07
-8.32901100483e-07
-8.32573351118e-07
-8.32411797999e-07
-8.3244878177e-07
-8.32694105389e-07
-8.33127467689e-07
-8.33701955868e-07
-8.34349442275e-07
-8.34933907985e-07
-8.35461156436e-07
-8.35246061098e-07
-8.36066236433e-07
-8.36008107586e-07
-8.35364964897e-07
-8.3474018598e-07
-8.34142654553e-07
-8.33694134636e-07
-8.33453032416e-07
-8.33456526359e-07
-8.33716429361e-07
-8.34211468238e-07
-8.34891319155e-07
-8.35681482627e-07
-8.36443297308e-07
-8.37152085816e-07
-8.37206687531e-07
-8.37046090717e-07
-8.3650198146e-07
-8.3553241751e-07
-8.34600121789e-07
-8.33751235037e-07
-8.33112277317e-07
-8.32749768386e-07
-8.32705519385e-07
-8.32993313378e-07
-8.33590997406e-07
-8.34445045315e-07
-8.35474755575e-07
-8.36538636235e-07
-8.37575111876e-07
-8.38120965741e-07
-8.36890790727e-07
-8.35694356986e-07
-8.3429409591e-07
-8.3297077515e-07
-8.318069772e-07
-8.30932992665e-07
-8.30422656306e-07
-8.30321740693e-07
-8.30646031053e-07
-8.31372559487e-07
-8.32445259366e-07
-8.33777967926e-07
-8.3522668657e-07
-8.36693915932e-07
-8.37894721345e-07
-8.35620301948e-07
-8.33664691271e-07
-8.31766237749e-07
-8.30002801962e-07
-8.28487403195e-07
-8.27353735743e-07
-8.26681197097e-07
-8.26519111983e-07
-8.26884764486e-07
-8.27754842174e-07
-8.29071081391e-07
-8.30743331088e-07
-8.32625502441e-07
-8.3458992264e-07
-8.36550092728e-07
-8.33324626188e-07
-8.30556698485e-07
-8.28120083625e-07
-8.2589312265e-07
-8.24010720802e-07
-8.22608116807e-07
-8.21768987012e-07
-8.21544291455e-07
-8.2195334683e-07
-8.22971865939e-07
-8.24541466531e-07
-8.26569144985e-07
-8.28908119552e-07
-8.31408885807e-07
-8.34180986272e-07
-8.30160394344e-07
-8.26546158716e-07
-8.23546338749e-07
-8.20853321855e-07
-8.18608574383e-07
-8.16944295167e-07
-8.15942609544e-07
-8.15658336274e-07
-8.16108430347e-07
-8.17272315698e-07
-8.19089051465e-07
-8.21468272365e-07
-8.24266861943e-07
-8.27328635679e-07
-8.30945264709e-07
-8.26209076286e-07
-8.21720728928e-07
-8.18191647122e-07
-8.1507322176e-07
-8.12509337395e-07
-8.10616020572e-07
-8.0947505688e-07
-8.0913679749e-07
-8.09623328654e-07
-8.10910236764e-07
-8.12941949302e-07
-8.15630380679e-07
-8.18849656401e-07
-8.22439966586e-07
-8.26928185427e-07
-8.20756413092e-07
-8.16143196608e-07
-8.12220512629e-07
-8.08787313041e-07
-8.06005140266e-07
-8.03958377383e-07
-8.027209692e-07
-8.02346308597e-07
-8.02852572959e-07
-8.04220745287e-07
-8.06393208673e-07
-8.09290850731e-07
-8.12820228451e-07
-8.16810160835e-07
-8.21430348775e-07
2.7257575892e-06
2.72507510224e-06
2.72443663565e-06
2.72388608163e-06
2.72345406303e-06
2.72316058104e-06
2.72301385043e-06
2.72301718477e-06
2.72317245918e-06
2.72347217602e-06
2.72390298162e-06
2.72444129752e-06
2.72504869796e-06
2.72566932367e-06
2.7262646847e-06
2.72512770311e-06
2.72446349277e-06
2.72382580414e-06
2.72326798266e-06
2.72282467419e-06
2.72251981966e-06
2.72236445428e-06
2.72236309611e-06
2.72251813997e-06
2.72282125137e-06
2.72325810181e-06
2.72380334605e-06
2.72441604822e-06
2.72503998541e-06
2.72562445312e-06
2.72527507135e-06
2.72468182826e-06
2.72410171757e-06
2.72358763682e-06
2.72317610026e-06
2.72289161953e-06
2.72274668839e-06
2.72274739131e-06
2.72289673819e-06
2.72318586359e-06
2.72359925522e-06
2.72411066447e-06
2.72467864168e-06
2.72524756658e-06
2.72576468309e-06
2.72558599877e-06
2.72505342528e-06
2.72452390079e-06
2.72404960989e-06
2.72366624053e-06
2.7233992948e-06
2.72326277011e-06
2.7232644238e-06
2.72340782049e-06
2.72368372477e-06
2.72407551729e-06
2.72455602191e-06
2.72508334817e-06
2.72560401516e-06
2.72606495999e-06
2.72587262564e-06
2.72538435067e-06
2.72489078302e-06
2.72444423158e-06
2.72407870765e-06
2.72382145068e-06
2.72368837282e-06
2.72368886664e-06
2.72382695135e-06
2.72409308271e-06
2.72446957797e-06
2.72492829728e-06
2.72542675933e-06
2.72591410474e-06
2.72633701451e-06
2.72614651932e-06
2.72568886323e-06
2.72522106887e-06
2.72479303157e-06
2.72443780096e-06
2.72418462292e-06
2.72405134653e-06
2.72404902847e-06
2.72418214456e-06
2.72444090078e-06
2.72480666907e-06
2.72525037582e-06
2.72572892682e-06
2.7261936548e-06
2.72659199292e-06
2.72641058221e-06
2.72597099247e-06
2.72551915324e-06
2.7251004162e-06
2.7247482078e-06
2.72449373006e-06
2.7243569368e-06
2.72435038254e-06
2.72447898784e-06
2.72473275819e-06
2.72509227561e-06
2.72552756495e-06
2.72599493124e-06
2.7264470036e-06
2.72683412506e-06
2.72665164885e-06
2.72621570571e-06
2.72576873567e-06
2.7253500324e-06
2.7249938141e-06
2.72473307571e-06
2.72458975695e-06
2.72457779593e-06
2.72470246263e-06
2.7249537544e-06
2.72531160188e-06
2.72574526845e-06
2.7262105635e-06
2.72666036928e-06
2.72705049779e-06
2.72685659065e-06
2.72640931917e-06
2.72595660675e-06
2.72552915382e-06
2.72516250436e-06
2.72489126755e-06
2.72473904028e-06
2.72472079541e-06
2.72484210889e-06
2.72509308995e-06
2.72545330952e-06
2.72589156558e-06
2.7263634058e-06
2.72682107353e-06
2.72722878187e-06
2.72701693207e-06
2.7265431935e-06
2.72607514013e-06
2.72563170512e-06
2.7252501492e-06
2.72496589023e-06
2.72480349082e-06
2.72477862144e-06
2.72489697569e-06
2.72514902202e-06
2.72551438321e-06
2.72596189222e-06
2.72644731153e-06
2.72692179304e-06
2.72736032625e-06
2.72712654494e-06
2.72661401029e-06
2.72612292523e-06
2.72565862993e-06
2.72526007805e-06
2.72496230111e-06
2.72478999961e-06
2.72475870531e-06
2.72487419096e-06
2.72512738584e-06
2.72549866184e-06
2.72595774232e-06
2.72646147354e-06
2.72695984751e-06
2.72744049646e-06
2.72718545155e-06
2.72662428184e-06
2.72610384689e-06
2.72561623277e-06
2.72520115371e-06
2.72489179952e-06
2.72471130718e-06
2.72467445991e-06
2.72478660517e-06
2.72503965016e-06
2.72541546775e-06
2.72588598273e-06
2.72641054665e-06
2.72693850798e-06
2.72747008632e-06
2.72720958789e-06
2.72658693015e-06
2.72602934965e-06
2.7255166536e-06
2.72508713516e-06
2.72476933346e-06
2.72458329677e-06
2.72454205203e-06
2.72465015712e-06
2.72490098451e-06
2.72527872517e-06
2.72575918723e-06
2.72630650276e-06
2.72687169768e-06
2.72746684727e-06
2.72720662609e-06
2.72650437965e-06
2.72590871167e-06
2.72537351595e-06
2.72493483364e-06
2.72461365583e-06
2.72442574625e-06
2.72438143204e-06
2.72448476582e-06
2.7247301926e-06
2.7251054413e-06
2.72559089091e-06
2.72615876514e-06
2.72676257096e-06
2.7274394611e-06
2.72685836415e-06
2.72623505873e-06
2.72565424061e-06
2.72514568037e-06
2.72473839701e-06
2.72444316932e-06
2.72427106083e-06
2.72423004983e-06
2.72432272979e-06
2.7245457079e-06
2.72488928049e-06
2.72533932361e-06
2.72587862394e-06
2.72646995185e-06
2.72707489987e-06
-2.60104591333e-07
-2.59673160426e-07
-2.59247312348e-07
-2.58848334981e-07
-2.58519026497e-07
-2.58281065511e-07
-2.58148250924e-07
-2.58126277513e-07
-2.58216127254e-07
-2.58410714319e-07
-2.58697448136e-07
-2.59057055988e-07
-2.59463306975e-07
-2.59872761197e-07
-2.60274845561e-07
-2.59877742407e-07
-2.59462151487e-07
-2.59041814992e-07
-2.58643495164e-07
-2.58311900202e-07
-2.58070382006e-07
-2.57933857278e-07
-2.57909208014e-07
-2.57998093988e-07
-2.58192876133e-07
-2.58480289807e-07
-2.58840103782e-07
-2.59244874487e-07
-2.59650657402e-07
-2.60038891331e-07
-2.60190302474e-07
-2.5982474241e-07
-2.59450128145e-07
-2.59088021762e-07
-2.58784201078e-07
-2.58561507168e-07
-2.58435323474e-07
-2.5841311931e-07
-2.58497147339e-07
-2.58679669728e-07
-2.58947320258e-07
-2.59279611927e-07
-2.59649070342e-07
-2.60011294881e-07
-2.60348999196e-07
-2.60534122182e-07
-2.60205851769e-07
-2.59867527469e-07
-2.59535309452e-07
-2.5925387601e-07
-2.590461151e-07
-2.58927904007e-07
-2.5890724614e-07
-2.58986867825e-07
-2.59159070408e-07
-2.59410370413e-07
-2.59720033469e-07
-2.60060661855e-07
-2.60388432508e-07
-2.60689505569e-07
-2.60798161305e-07
-2.60491710839e-07
-2.60176443538e-07
-2.5986410431e-07
-2.59597026498e-07
-2.59398419027e-07
-2.59284436743e-07
-2.59263933966e-07
-2.59339997529e-07
-2.59505099618e-07
-2.59745520398e-07
-2.60040350676e-07
-2.60362216906e-07
-2.60668579228e-07
-2.60949182792e-07
-2.61013562371e-07
-2.60718945088e-07
-2.60418893861e-07
-2.60119435519e-07
-2.59861248838e-07
-2.59667769631e-07
-2.59555656369e-07
-2.59534353883e-07
-2.59607378804e-07
-2.59767280786e-07
-2.60000224023e-07
-2.60285168036e-07
-2.6059480362e-07
-2.6088809602e-07
-2.6115822501e-07
-2.61196402632e-07
-2.6090577536e-07
-2.60614293469e-07
-2.60322341106e-07
-2.60069086915e-07
-2.59877968311e-07
-2.59766072608e-07
-2.59743368374e-07
-2.59813773502e-07
-2.59969973959e-07
-2.6019809094e-07
-2.60477072123e-07
-2.60779698336e-07
-2.61066512559e-07
-2.61334139346e-07
-2.61349649209e-07
-2.61056933986e-07
-2.60767763867e-07
-2.60478614467e-07
-2.60226578986e-07
-2.60035352284e-07
-2.59922251713e-07
-2.59897743996e-07
-2.59965921025e-07
-2.60119741997e-07
-2.60345335397e-07
-2.60621785056e-07
-2.60922002531e-07
-2.61208135539e-07
-2.61479928634e-07
-2.61476033422e-07
-2.61174942728e-07
-2.60882800074e-07
-2.60592455788e-07
-2.60338886058e-07
-2.60145874463e-07
-2.60030743369e-07
-2.60004265528e-07
-2.60070616127e-07
-2.60223069603e-07
-2.60447942728e-07
-2.60724614477e-07
-2.61026226279e-07
-2.61316546231e-07
-2.61598318966e-07
-2.61578566872e-07
-2.61264315036e-07
-2.60965085434e-07
-2.60670470997e-07
-2.60413475876e-07
-2.60217595291e-07
-2.60100099188e-07
-2.60071646603e-07
-2.6013646531e-07
-2.60288148043e-07
-2.60513440845e-07
-2.60792244212e-07
-2.61098110433e-07
-2.61396525249e-07
-2.61692496355e-07
-2.61660603333e-07
-2.61329248003e-07
-2.61019698701e-07
-2.60718845913e-07
-2.60457523553e-07
-2.60258797974e-07
-2.60139180573e-07
-2.60109098955e-07
-2.60172491415e-07
-2.60323517105e-07
-2.60549531087e-07
-2.60831351662e-07
-2.61143283666e-07
-2.61452501044e-07
-2.61766142549e-07
-2.61724880218e-07
-2.61373951049e-07
-2.61051748273e-07
-2.60743576183e-07
-2.60478265112e-07
-2.60277305794e-07
-2.60156615854e-07
-2.60125285182e-07
-2.6018734851e-07
-2.60337115235e-07
-2.60563390897e-07
-2.60848173422e-07
-2.61167126166e-07
-2.61489342737e-07
-2.61822949079e-07
-2.61782342156e-07
-2.6140724665e-07
-2.61068718743e-07
-2.60751838261e-07
-2.60482439291e-07
-2.60280860124e-07
-2.60159555367e-07
-2.6012805266e-07
-2.60188195904e-07
-2.60336482822e-07
-2.60562182695e-07
-2.60849922206e-07
-2.61177492533e-07
-2.6151608972e-07
-2.61874119305e-07
-2.61839582825e-07
-2.61431391312e-07
-2.61075036984e-07
-2.60749072045e-07
-2.60477676332e-07
-2.60276126175e-07
-2.60156614532e-07
-2.60124586617e-07
-2.60183447179e-07
-2.60328785599e-07
-2.60552852583e-07
-2.60842397124e-07
-2.61179069059e-07
-2.61536061241e-07
-2.61926923419e-07
-2.61701024331e-07
-2.61323557111e-07
-2.60986988497e-07
-2.6068703327e-07
-2.60442160366e-07
-2.60263042155e-07
-2.60157121155e-07
-2.60130010735e-07
-2.60182740014e-07
-2.60313123229e-07
-2.60514429281e-07
-2.60777017e-07
-2.61088190054e-07
-2.61427086335e-07
-2.61790278271e-07
1.4778833215e-06
1.47757170769e-06
1.47728650016e-06
1.47703637901e-06
1.47683573866e-06
1.47669446063e-06
1.47662272783e-06
1.4766242942e-06
1.476700177e-06
1.47684597397e-06
1.47705379975e-06
1.47731094205e-06
1.47760067219e-06
1.4778930051e-06
1.47818515006e-06
1.47776229695e-06
1.47746312985e-06
1.47718210203e-06
1.4769310154e-06
1.47672750032e-06
1.47658328038e-06
1.47650887754e-06
1.47650869629e-06
1.4765842157e-06
1.47673059627e-06
1.47693940852e-06
1.47719728412e-06
1.4774864843e-06
1.47777648694e-06
1.4780586241e-06
1.47803029523e-06
1.47776750336e-06
1.47751796133e-06
1.47728987037e-06
1.47710414326e-06
1.47697241309e-06
1.47690488843e-06
1.47690630775e-06
1.47697848862e-06
1.4771165311e-06
1.47731186356e-06
1.4775508734e-06
1.47781570377e-06
1.47807511018e-06
1.47832135054e-06
1.47831008034e-06
1.47807365731e-06
1.47784825175e-06
1.47763864941e-06
1.47746689347e-06
1.47734474536e-06
1.47728218802e-06
1.47728442516e-06
1.47735355246e-06
1.47748466738e-06
1.47766903239e-06
1.47789280306e-06
1.47813807263e-06
1.47837357875e-06
1.47859429668e-06
1.47852626998e-06
1.47830585799e-06
1.47809532658e-06
1.47789700477e-06
1.47773325725e-06
1.47761620382e-06
1.47755589613e-06
1.47755789243e-06
1.477624521e-06
1.47775085239e-06
1.4779279655e-06
1.47814181187e-06
1.47837444472e-06
1.47859509673e-06
1.47880153692e-06
1.47870437704e-06
1.47849252281e-06
1.4782919008e-06
1.47810078113e-06
1.47794170155e-06
1.47782724695e-06
1.47776755464e-06
1.47776862353e-06
1.47783292891e-06
1.47795556061e-06
1.478127416e-06
1.47833435166e-06
1.47855842587e-06
1.47876961804e-06
1.47896841286e-06
1.47885851243e-06
1.47865130262e-06
1.47845681149e-06
1.47826968342e-06
1.47811283908e-06
1.4779991903e-06
1.47793904573e-06
1.47793872196e-06
1.47800077831e-06
1.478120346e-06
1.47828822415e-06
1.47849026574e-06
1.47870859424e-06
1.47891411876e-06
1.47910982288e-06
1.47899332118e-06
1.47878733635e-06
1.47859571687e-06
1.47841056379e-06
1.47825443222e-06
1.47814048904e-06
1.47807921604e-06
1.47807719698e-06
1.47813702674e-06
1.47825393208e-06
1.47841869941e-06
1.47861730225e-06
1.47883200415e-06
1.479034782e-06
1.47923080503e-06
1.47911291718e-06
1.47890591547e-06
1.47871482635e-06
1.47853016491e-06
1.4783737079e-06
1.47825885286e-06
1.47819618027e-06
1.47819233942e-06
1.47824993884e-06
1.4783643343e-06
1.47852643284e-06
1.47872248021e-06
1.47893496682e-06
1.47913710608e-06
1.47933567586e-06
1.47922217159e-06
1.47901202141e-06
1.47881994181e-06
1.47863499921e-06
1.47847796185e-06
1.47836225666e-06
1.4782982601e-06
1.47829268019e-06
1.47834796212e-06
1.47845975338e-06
1.4786192007e-06
1.47881301603e-06
1.47902408379e-06
1.47922693651e-06
1.47942934053e-06
1.47932460899e-06
1.47911052255e-06
1.47891650575e-06
1.47873096738e-06
1.47857369078e-06
1.47845760063e-06
1.47839282912e-06
1.47838567386e-06
1.47843855672e-06
1.47854733355e-06
1.47870372228e-06
1.47889511562e-06
1.47910502897e-06
1.47930939911e-06
1.47951611234e-06
1.47942406483e-06
1.4792053903e-06
1.47900849879e-06
1.47882250005e-06
1.47866565029e-06
1.47855035811e-06
1.47848553476e-06
1.47847727844e-06
1.47852745252e-06
1.47863264474e-06
1.47878516273e-06
1.47897355571e-06
1.47918237322e-06
1.47938889602e-06
1.47960024999e-06
1.47952793783e-06
1.47930289944e-06
1.47910116173e-06
1.47891375915e-06
1.47875813208e-06
1.47864424436e-06
1.47858045395e-06
1.47857122759e-06
1.47861875862e-06
1.47871971146e-06
1.47886778197e-06
1.47905306217e-06
1.47926177297e-06
1.4794725963e-06
1.47969023661e-06
1.47964470489e-06
1.47940816903e-06
1.47919869271e-06
1.47900914209e-06
1.47885439285e-06
1.47874309804e-06
1.47868052772e-06
1.47867104252e-06
1.47871561267e-06
1.47881211066e-06
1.47895543683e-06
1.4791377549e-06
1.47934798366e-06
1.47956622637e-06
1.4797955392e-06
1.4796563956e-06
1.47943676087e-06
1.47924186121e-06
1.47907125139e-06
1.47893632024e-06
1.47884047462e-06
1.47878770205e-06
1.4787804348e-06
1.4788196741e-06
1.4789038468e-06
1.47902925101e-06
1.47919066425e-06
1.47938109922e-06
1.47958607994e-06
1.47980112028e-06
-1.35219300949e-07
-1.35004276962e-07
-1.34786074853e-07
-1.34578730987e-07
-1.34403420532e-07
-1.34272650123e-07
-1.34194231357e-07
-1.3417190673e-07
-1.34206454142e-07
-1.34294401266e-07
-1.34429573477e-07
-1.34602315043e-07
-1.3479972224e-07
-1.34999684704e-07
-1.3519757864e-07
-1.35110237884e-07
-1.34901335136e-07
-1.34685483895e-07
-1.3447812501e-07
-1.34302040961e-07
-1.3417024453e-07
-1.34090820506e-07
-1.34067853937e-07
-1.34102420053e-07
-1.34190843075e-07
-1.34326642497e-07
-1.34499755398e-07
-1.34696657806e-07
-1.34895028833e-07
-1.35086351363e-07
-1.35274453786e-07
-1.35090214568e-07
-1.34897860529e-07
-1.3470872922e-07
-1.34546669627e-07
-1.34424262081e-07
-1.3434999189e-07
-1.34328233391e-07
-1.34360388724e-07
-1.34442730298e-07
-1.34568724753e-07
-1.34728177426e-07
-1.34907549538e-07
-1.35084263762e-07
-1.35250607727e-07
-1.35448117517e-07
-1.35282775512e-07
-1.3510859641e-07
-1.34934213407e-07
-1.34783115783e-07
-1.3466797827e-07
-1.34597608271e-07
-1.34576622375e-07
-1.34606652838e-07
-1.34684001589e-07
-1.34802053805e-07
-1.3495050936e-07
-1.35115842779e-07
-1.35275776684e-07
-1.35424481037e-07
-1.35576900823e-07
-1.35422485167e-07
-1.35259880764e-07
-1.35095584844e-07
-1.34951735105e-07
-1.34841206877e-07
-1.34772998026e-07
-1.34752154811e-07
-1.34780499475e-07
-1.34854423083e-07
-1.34967214833e-07
-1.3510849668e-07
-1.35264765268e-07
-1.35414441731e-07
-1.35553462697e-07
-1.35679302261e-07
-1.35531175902e-07
-1.35376738957e-07
-1.35219247801e-07
-1.35080264778e-07
-1.34972711171e-07
-1.34905812918e-07
-1.3488483224e-07
-1.34911785761e-07
-1.34983123552e-07
-1.35092109446e-07
-1.35228358421e-07
-1.35378438448e-07
-1.35521686449e-07
-1.35655520316e-07
-1.35765663984e-07
-1.35620846563e-07
-1.35471894726e-07
-1.35319516951e-07
-1.35184263529e-07
-1.35078929276e-07
-1.35012879713e-07
-1.34991588996e-07
-1.35017271222e-07
-1.35086491781e-07
-1.35192537403e-07
-1.35325120149e-07
-1.35470922868e-07
-1.35610346658e-07
-1.35742011469e-07
-1.35839887367e-07
-1.35696798109e-07
-1.35551110788e-07
-1.35402341777e-07
-1.35269706938e-07
-1.35165965862e-07
-1.35100482438e-07
-1.3507886752e-07
-1.35103423192e-07
-1.35170879484e-07
-1.35274616726e-07
-1.35404534907e-07
-1.35547514123e-07
-1.35685125329e-07
-1.35816802614e-07
-1.35905591099e-07
-1.35762130883e-07
-1.35618111861e-07
-1.35472006004e-07
-1.35341528062e-07
-1.35239237029e-07
-1.35174299933e-07
-1.35152432315e-07
-1.35175958578e-07
-1.35241821773e-07
-1.35343598766e-07
-1.3547147895e-07
-1.35612631474e-07
-1.35749904966e-07
-1.35883150075e-07
-1.35965552645e-07
-1.35820808815e-07
-1.35677368847e-07
-1.35533246203e-07
-1.35404685616e-07
-1.3530377923e-07
-1.352395702e-07
-1.35217565388e-07
-1.35240136869e-07
-1.35304429581e-07
-1.35404332313e-07
-1.35530458095e-07
-1.35670396367e-07
-1.35808341074e-07
-1.35944114879e-07
-1.36022805638e-07
-1.35875678953e-07
-1.35731856183e-07
-1.35589430469e-07
-1.35462822364e-07
-1.35363762328e-07
-1.35300612233e-07
-1.35278754603e-07
-1.35300364076e-07
-1.35362941492e-07
-1.35460764234e-07
-1.35585061552e-07
-1.35724026904e-07
-1.35863272e-07
-1.36002303541e-07
-1.36079208719e-07
-1.35928834174e-07
-1.35784009646e-07
-1.35643028513e-07
-1.35518939711e-07
-1.35422053722e-07
-1.35360654609e-07
-1.35339120862e-07
-1.35359820259e-07
-1.35420289056e-07
-1.35515592159e-07
-1.35637714879e-07
-1.35775752313e-07
-1.35916808648e-07
-1.36059814283e-07
-1.36139938737e-07
-1.35984120091e-07
-1.35836531335e-07
-1.35696545097e-07
-1.3557444032e-07
-1.35480739385e-07
-1.35421022933e-07
-1.35400454049e-07
-1.35419939477e-07
-1.35478211668e-07
-1.35570667035e-07
-1.35690565921e-07
-1.35828253974e-07
-1.35972495032e-07
-1.36121480505e-07
-1.36206169179e-07
-1.36040242449e-07
-1.35889658123e-07
-1.35749835972e-07
-1.35631057372e-07
-1.35540038263e-07
-1.35483359785e-07
-1.35463368371e-07
-1.35482059245e-07
-1.35537645362e-07
-1.35626858853e-07
-1.35744108752e-07
-1.35881501343e-07
-1.36029210325e-07
-1.36188136138e-07
-1.36172329819e-07
-1.36028700158e-07
-1.35895385284e-07
-1.35774918346e-07
-1.35673590242e-07
-1.35597350412e-07
-1.35549613501e-07
-1.35533174244e-07
-1.35548641605e-07
-1.35595181125e-07
-1.35670207933e-07
-1.35769678194e-07
-1.3588803774e-07
-1.36018147201e-07
-1.36155572887e-07
6.2703701484e-07
6.26895566637e-07
6.26756702353e-07
6.26628615124e-07
6.26524387063e-07
6.26449045565e-07
6.26405840374e-07
6.26397432152e-07
6.26425245104e-07
6.2648762088e-07
6.26581023665e-07
6.26699384046e-07
6.26835032983e-07
6.26973587461e-07
6.27115519569e-07
6.26991530285e-07
6.26855341799e-07
6.26718573538e-07
6.2659054263e-07
6.26485388806e-07
6.26408870025e-07
6.26364699212e-07
6.26355713398e-07
6.26383453603e-07
6.26446100789e-07
6.26539871504e-07
6.26658441076e-07
6.26793658403e-07
6.26930868107e-07
6.2706766026e-07
6.27143207664e-07
6.27024609837e-07
6.26904276245e-07
6.26788592846e-07
6.26692612317e-07
6.26622201867e-07
6.2658150616e-07
6.26573432354e-07
6.26599564837e-07
6.2665799943e-07
6.26744903525e-07
6.26853853748e-07
6.26976687017e-07
6.27098293737e-07
6.27216872883e-07
6.27296857886e-07
6.27191039729e-07
6.27083118824e-07
6.2697729882e-07
6.26888410967e-07
6.26822633736e-07
6.26784517726e-07
6.26777057829e-07
6.26801847443e-07
6.26856930706e-07
6.26938396306e-07
6.27039728481e-07
6.27152763009e-07
6.27262251891e-07
6.27368017463e-07
6.2741550552e-07
6.27316890848e-07
6.27216398967e-07
6.27116716446e-07
6.27032011861e-07
6.26968818741e-07
6.26931991819e-07
6.26924690495e-07
6.26948496113e-07
6.27001415692e-07
6.27079431145e-07
6.27175938165e-07
6.27282773775e-07
6.27384751011e-07
6.27483350037e-07
6.27512553354e-07
6.27417189691e-07
6.27321681828e-07
6.27225830427e-07
6.27143619039e-07
6.27081838108e-07
6.27045625075e-07
6.27038247648e-07
6.27061279653e-07
6.27112686839e-07
6.27188353377e-07
6.27281632322e-07
6.27384379778e-07
6.27481606028e-07
6.27576340771e-07
6.27595535991e-07
6.27501603187e-07
6.27409075624e-07
6.27315471989e-07
6.27234692111e-07
6.27173614785e-07
6.271375874e-07
6.2712996916e-07
6.27152329609e-07
6.27202599662e-07
6.27276602218e-07
6.27367692343e-07
6.27467753607e-07
6.27562071763e-07
6.27655153288e-07
6.27667277773e-07
6.27573443974e-07
6.27482384304e-07
6.27390040292e-07
6.27309959698e-07
6.27249137713e-07
6.27213051261e-07
6.27205126129e-07
6.27226891422e-07
6.2727627167e-07
6.27349066388e-07
6.2743868371e-07
6.27537064211e-07
6.27629862789e-07
6.27722760071e-07
6.27730522437e-07
6.27635935381e-07
6.27545298588e-07
6.27453562188e-07
6.27373817557e-07
6.27313117982e-07
6.27276924873e-07
6.27268709212e-07
6.27289911613e-07
6.27338510748e-07
6.27410324539e-07
6.27498887667e-07
6.27596219759e-07
6.27688412648e-07
6.27781991636e-07
6.27788089579e-07
6.27692252219e-07
6.27601539442e-07
6.27510113324e-07
6.27430656591e-07
6.2737012188e-07
6.27333950805e-07
6.2732550032e-07
6.2734615774e-07
6.27393952256e-07
6.27464806566e-07
6.27552463431e-07
6.27649073259e-07
6.27741206124e-07
6.27835712743e-07
6.27842408504e-07
6.27745447167e-07
6.27654275754e-07
6.2756307397e-07
6.2748404666e-07
6.27424032257e-07
6.27388146028e-07
6.27379633763e-07
6.2739972318e-07
6.2744656901e-07
6.27516309353e-07
6.27602999046e-07
6.2769900075e-07
6.27791368362e-07
6.27886672167e-07
6.2789588315e-07
6.2779791908e-07
6.27706002916e-07
6.27615043624e-07
6.27536872631e-07
6.27477782261e-07
6.27442676005e-07
6.27434274184e-07
6.27453766591e-07
6.27499417137e-07
6.27567701315e-07
6.27653213114e-07
6.27748679499e-07
6.27841526293e-07
6.27937331354e-07
6.27952785361e-07
6.27853292063e-07
6.27759609015e-07
6.27668472882e-07
6.27591166235e-07
6.27533651611e-07
6.27499533408e-07
6.27491581254e-07
6.27510384365e-07
6.27554630782e-07
6.27621271521e-07
6.27705652821e-07
6.27801200238e-07
6.27895640521e-07
6.27992387431e-07
6.28019532491e-07
6.27916174217e-07
6.27818420856e-07
6.27725904834e-07
6.27649461394e-07
6.27593251153e-07
6.27560611777e-07
6.2755303727e-07
6.27571315452e-07
6.27614172406e-07
6.27679327579e-07
6.2776309511e-07
6.27860178194e-07
6.27958858319e-07
6.28059008346e-07
6.28051150265e-07
6.27948768955e-07
6.27854321782e-07
6.277693326e-07
6.27701446405e-07
6.27652669265e-07
6.27624723473e-07
6.27618945722e-07
6.27635528291e-07
6.27673710956e-07
6.27731777147e-07
6.27807329481e-07
6.27897291764e-07
6.27993291258e-07
6.28092965191e-07
-2.76964360131e-07
-2.7685435826e-07
-2.76743259113e-07
-2.76639951099e-07
-2.7655296248e-07
-2.764875643e-07
-2.76446786982e-07
-2.76432772412e-07
-2.76446399839e-07
-2.76486312726e-07
-2.76549571534e-07
-2.7663146532e-07
-2.76725257474e-07
-2.76820188377e-07
-2.76912130458e-07
-2.76890729939e-07
-2.7678247219e-07
-2.76672248256e-07
-2.76568820998e-07
-2.76481367808e-07
-2.76415382876e-07
-2.76374133706e-07
-2.76359922655e-07
-2.76373744257e-07
-2.7641412091e-07