# vtk DataFile Version 2.0
track0
ASCII
DATASET POLYDATA
POINTS 12075 float
-0.0205 0.001 1e-05
-0.02052 0.000999985 1e-05
-0.02054 0.000999974 1e-05
-0.02056 0.000999965 1e-05
-0.02058 0.000999959 1e-05
-0.0206 0.000999956 1e-05
-0.0205 0.00367778 1e-05
-0.02052 0.00367778 1e-05
-0.02054 0.00367777 1e-05
-0.02056 0.00367777 1e-05
-0.02058 0.00367777 1e-05
-0.0206 0.00367777 1e-05
-0.0205 0.00635556 1e-05
-0.02052 0.00635555 1e-05
-0.02054 0.00635555 1e-05
-0.02056 0.00635555 1e-05
-0.02058 0.00635555 1e-05
-0.0206 0.00635555 1e-05
-0.0205 0.00903333 1e-05
-0.02052 0.00903333 1e-05
-0.02054 0.00903333 1e-05
-0.02056 0.00903333 1e-05
-0.02058 0.00903333 1e-05
-0.0206 0.00903333 1e-05
-0.0205 0.0117111 1e-05
-0.02052 0.0117111 1e-05
-0.02054 0.0117111 1e-05
-0.02056 0.0117111 1e-05
-0.02058 0.0117111 1e-05
-0.0206 0.0117111 1e-05
-0.0205 0.0143889 1e-05
-0.02052 0.0143889 1e-05
-0.02054 0.0143889 1e-05
-0.02056 0.0143889 1e-05
-0.02058 0.0143889 1e-05
-0.0206 0.0143889 1e-05
-0.0205 0.0170667 1e-05
-0.02052 0.0170667 1e-05
-0.02054 0.0170667 1e-05
-0.02056 0.0170667 1e-05
-0.02058 0.0170667 1e-05
-0.0206 0.0170667 1e-05
-0.0205 0.0197444 1e-05
-0.02052 0.0197444 1e-05
-0.02054 0.0197444 1e-05
-0.02056 0.0197444 1e-05
-0.02058 0.0197444 1e-05
-0.0206 0.0197444 1e-05
-0.0205 0.0224222 1e-05
-0.02052 0.0224222 1e-05
-0.02054 0.0224222 1e-05
-0.02056 0.0224222 1e-05
-0.02058 0.0224222 1e-05
-0.0206 0.0224222 1e-05
-0.0205 0.0251 1e-05
-0.02052 0.0250998 1e-05
-0.02054 0.0250997 1e-05
-0.02056 0.0250995 1e-05
-0.02058 0.0250995 1e-05
-0.0206 0.0250994 1e-05
-0.0205 0.001 1e-05
-0.0202034 0.00100022 1e-05
-0.0199069 0.00100067 1e-05
-0.0196103 0.00100132 1e-05
-0.0193137 0.00100219 1e-05
-0.0190172 0.00100326 1e-05
-0.0187132 0.00100467 1e-05
-0.0184093 0.00100589 1e-05
-0.0181054 0.0010071 1e-05
-0.0178015 0.00100832 1e-05
-0.0174976 0.00100954 1e-05
-0.0172058 0.00101083 1e-05
-0.016914 0.00101194 1e-05
-0.0166222 0.00101304 1e-05
-0.0163305 0.00101414 1e-05
-0.0160387 0.00101524 1e-05
-0.0157586 0.00101638 1e-05
-0.0154784 0.00101746 1e-05
-0.0151983 0.00101858 1e-05
-0.0149182 0.00101973 1e-05
-0.0146381 0.00102092 1e-05
-0.014376 0.0010221 1e-05
-0.0141139 0.00102328 1e-05
-0.0138518 0.0010245 1e-05
-0.0135897 0.00102574 1e-05
-0.0133685 0.00102682 1e-05
-0.0133535 0.00102689 1e-05
-0.0133385 0.00102697 1e-05
-0.0133235 0.00102704 1e-05
-0.0133085 0.00102712 1e-05
-0.0132934 0.00102719 1e-05
-0.0130353 0.00102848 1e-05
-0.0127771 0.00102979 1e-05
-0.0125189 0.00103111 1e-05
-0.0122607 0.00103245 1e-05
-0.0120025 0.00103381 1e-05
-0.0117547 0.00103512 1e-05
-0.0115068 0.00103644 1e-05
-0.0112589 0.00103777 1e-05
-0.0110111 0.0010391 1e-05
-0.0107632 0.00104043 1e-05
-0.0105252 0.00104172 1e-05
-0.0102873 0.001043 1e-05
-0.0100493 0.00104429 1e-05
-0.00981133 0.00104557 1e-05
-0.00957337 0.00104686 1e-05
-0.00934491 0.00104809 1e-05
-0.00911645 0.00104932 1e-05
-0.00888799 0.00105055 1e-05
-0.00865954 0.00105178 1e-05
-0.00843108 0.001053 1e-05
-0.00821175 0.00105417 1e-05
-0.00799242 0.00105534 1e-05
-0.00777309 0.00105651 1e-05
-0.00755376 0.00105767 1e-05
-0.00733443 0.00105883 1e-05
-0.00712387 0.00105994 1e-05
-0.0069133 0.00106104 1e-05
-0.00670273 0.00106215 1e-05
-0.00649216 0.00106325 1e-05
-0.0062816 0.00106435 1e-05
-0.00607944 0.00106539 1e-05
-0.00587729 0.00106644 1e-05
-0.00567514 0.00106749 1e-05
-0.00547298 0.00106853 1e-05
-0.00527083 0.00106958 1e-05
-0.00507675 0.00107057 1e-05
-0.00488267 0.00107156 1e-05
-0.0046886 0.00107256 1e-05
-0.00449452 0.00107355 1e-05
-0.00430044 0.00107455 1e-05
-0.00411412 0.0010755 1e-05
-0.0039278 0.00107645 1e-05
-0.00374147 0.0010774 1e-05
-0.00355515 0.00107836 1e-05
-0.00336883 0.00107932 1e-05
-0.00318995 0.00108023 1e-05
-0.00301107 0.00108116 1e-05
-0.00283219 0.00108208 1e-05
-0.00265331 0.00108302 1e-05
-0.00247443 0.00108396 1e-05
-0.0023027 0.00108486 1e-05
-0.00213097 0.00108578 1e-05
-0.00195924 0.00108671 1e-05
-0.00178751 0.00108765 1e-05
-0.00161577 0.00108859 1e-05
-0.0014509 0.00108951 1e-05
-0.00128603 0.00109044 1e-05
-0.00112116 0.0010914 1e-05
-0.00095629 0.00109238 1e-05
-0.000791418 0.00109339 1e-05
-0.000633135 0.00109438 1e-05
-0.000474851 0.00109539 1e-05
-0.000316568 0.00109644 1e-05
-0.000158285 0.00109752 1e-05
0 0.00109863 1e-05
0.000105677 0.00109939 1e-05
0.000211355 0.00110015 1e-05
0.000317032 0.00110093 1e-05
0.000422709 0.00110171 1e-05
0.000528387 0.00110249 1e-05
0.000634886 0.00110328 1e-05
0.000741385 0.00110407 1e-05
0.000847885 0.00110484 1e-05
0.000954384 0.00110561 1e-05
0.00106088 0.00110637 1e-05
0.00116821 0.00110712 1e-05
0.00127554 0.00110786 1e-05
0.00138286 0.00110859 1e-05
0.00149019 0.0011093 1e-05
0.00159752 0.00110999 1e-05
0.00170568 0.00111067 1e-05
0.00181384 0.00111134 1e-05
0.001922 0.00111199 1e-05
0.00203016 0.00111263 1e-05
0.00213833 0.00111324 1e-05
0.00224733 0.00111385 1e-05
0.00235633 0.00111444 1e-05
0.00246533 0.00111502 1e-05
0.00257434 0.00111558 1e-05
0.00268334 0.00111612 1e-05
0.00279319 0.00111665 1e-05
0.00290304 0.00111717 1e-05
0.00301289 0.00111768 1e-05
0.00312274 0.00111817 1e-05
0.00323259 0.00111865 1e-05
0.00334329 0.00111911 1e-05
0.003454 0.00111956 1e-05
0.0035647 0.00112 1e-05
0.0036754 0.00112042 1e-05
0.00378611 0.00112083 1e-05
0.00389767 0.00112123 1e-05
0.00400924 0.00112161 1e-05
0.0041208 0.00112198 1e-05
0.00423237 0.00112234 1e-05
0.00434393 0.00112268 1e-05
0.00445636 0.00112301 1e-05
0.00456879 0.00112332 1e-05
0.00468123 0.00112363 1e-05
0.00479366 0.00112392 1e-05
0.00490609 0.00112419 1e-05
0.0050194 0.00112445 1e-05
0.0051327 0.0011247 1e-05
0.00524601 0.00112494 1e-05
0.00535932 0.00112517 1e-05
0.00547262 0.00112538 1e-05
0.00558681 0.00112557 1e-05
0.005701 0.00112576 1e-05
0.00581518 0.00112593 1e-05
0.00592937 0.0011261 1e-05
0.00604356 0.00112624 1e-05
0.00615863 0.00112638 1e-05
0.00627371 0.0011265 1e-05
0.00638878 0.00112661 1e-05
0.00650386 0.00112672 1e-05
0.00661893 0.0011268 1e-05
0.0067349 0.00112687 1e-05
0.00685087 0.00112694 1e-05
0.00696684 0.00112699 1e-05
0.00708281 0.00112703 1e-05
0.00719878 0.00112706 1e-05
0.00731565 0.00112708 1e-05
0.00743252 0.00112708 1e-05
0.00754939 0.00112708 1e-05
0.00766626 0.00112706 1e-05
0.00778313 0.00112703 1e-05
0.00790091 0.00112699 1e-05
0.00801869 0.00112693 1e-05
0.00813647 0.00112687 1e-05
0.00825425 0.00112679 1e-05
0.00837203 0.00112671 1e-05
0.00843674 0.00112665 1e-05
0.00850144 0.00112659 1e-05
0.00856614 0.00112653 1e-05
0.00863084 0.00112647 1e-05
0.00869311 0.0011264 1e-05
0.00874759 0.00112634 1e-05
0.00880207 0.00112628 1e-05
0.00885655 0.00112621 1e-05
0.00891103 0.00112615 1e-05
0.00896551 0.00112608 1e-05
0.00908513 0.00112592 1e-05
0.00920475 0.00112575 1e-05
0.00932437 0.00112557 1e-05
0.00944398 0.00112537 1e-05
0.0095636 0.00112517 1e-05
0.00968415 0.00112495 1e-05
0.0098047 0.00112472 1e-05
0.00992525 0.00112448 1e-05
0.0100458 0.00112422 1e-05
0.0101663 0.00112396 1e-05
0.0102878 0.00112367 1e-05
0.0104093 0.00112338 1e-05
0.0105308 0.00112308 1e-05
0.0106523 0.00112277 1e-05
0.0107738 0.00112244 1e-05
0.0108962 0.0011221 1e-05
0.0110186 0.00112174 1e-05
0.0111411 0.00112138 1e-05
0.0112635 0.001121 1e-05
0.0113859 0.00112062 1e-05
0.0115093 0.00112021 1e-05
0.0116327 0.00111979 1e-05
0.0117561 0.00111936 1e-05
0.0118795 0.00111892 1e-05
0.0120028 0.00111847 1e-05
0.0121272 0.001118 1e-05
0.0122515 0.00111752 1e-05
0.0123759 0.00111703 1e-05
0.0125002 0.00111652 1e-05
0.0126245 0.00111601 1e-05
0.0127498 0.00111547 1e-05
0.0128752 0.00111493 1e-05
0.0130005 0.00111437 1e-05
0.0131258 0.0011138 1e-05
0.0132511 0.00111321 1e-05
0.0133774 0.00111261 1e-05
0.0135036 0.001112 1e-05
0.0136299 0.00111137 1e-05
0.0137562 0.00111073 1e-05
0.0138825 0.00111008 1e-05
0.0140098 0.00110941 1e-05
0.014137 0.00110873 1e-05
0.0142643 0.00110804 1e-05
0.0143915 0.00110733 1e-05
0.0145188 0.0011066 1e-05
0.0146471 0.00110587 1e-05
0.0147753 0.00110512 1e-05
0.0149036 0.00110435 1e-05
0.0150318 0.00110357 1e-05
0.0151601 0.00110277 1e-05
0.0152893 0.00110197 1e-05
0.0154186 0.00110115 1e-05
0.0155478 0.00110031 1e-05
0.0156771 0.00109945 1e-05
0.0158063 0.00109858 1e-05
0.0159366 0.00109771 1e-05
0.0160668 0.00109681 1e-05
0.0161971 0.00109589 1e-05
0.0163273 0.00109496 1e-05
0.0164576 0.00109402 1e-05
0.0165889 0.00109307 1e-05
0.0167201 0.0010921 1e-05
0.0168514 0.0010911 1e-05
0.0169827 0.00109009 1e-05
0.0171139 0.00108907 1e-05
0.0172462 0.00108805 1e-05
0.0173785 0.00108699 1e-05
0.0175108 0.00108592 1e-05
0.0176431 0.00108482 1e-05
0.0177754 0.00108372 1e-05
0.0179087 0.00108262 1e-05
0.018042 0.00108148 1e-05
0.0181753 0.00108032 1e-05
0.0183087 0.00107914 1e-05
0.018442 0.00107796 1e-05
0.0185763 0.00107677 1e-05
0.0187107 0.00107555 1e-05
0.018845 0.0010743 1e-05
0.0189794 0.00107303 1e-05
0.0191137 0.00107176 1e-05
0.0192491 0.00107049 1e-05
0.0193845 0.00106918 1e-05
0.0195199 0.00106784 1e-05
0.0196553 0.00106647 1e-05
0.0197907 0.00106511 1e-05
0.0199272 0.00106375 1e-05
0.0200636 0.00106235 1e-05
0.0202001 0.00106092 1e-05
0.0203365 0.00105946 1e-05
0.020473 0.00105801 1e-05
0.0206105 0.00105655 1e-05
0.020748 0.00105506 1e-05
0.0208855 0.00105353 1e-05
0.021023 0.00105197 1e-05
0.0211606 0.00105043 1e-05
0.0212991 0.00104887 1e-05
0.0214377 0.00104728 1e-05
0.0215763 0.00104564 1e-05
0.0217149 0.00104399 1e-05
0.0218535 0.00104234 1e-05
0.0219931 0.00104068 1e-05
0.0221328 0.00103898 1e-05
0.0222724 0.00103724 1e-05
0.0224121 0.00103548 1e-05
0.0225517 0.00103372 1e-05
0.0226925 0.00103196 1e-05
0.0228332 0.00103015 1e-05
0.022974 0.0010283 1e-05
0.0231147 0.00102643 1e-05
0.0232555 0.00102456 1e-05
0.0233973 0.00102268 1e-05
0.0235391 0.00102075 1e-05
0.023681 0.00101879 1e-05
0.0238228 0.00101681 1e-05
0.0239647 0.00101482 1e-05
0.0241076 0.00101282 1e-05
0.0242505 0.00101078 1e-05
0.0243935 0.0010087 1e-05
0.0245364 0.0010066 1e-05
0.0246794 0.0010045 1e-05
0.0248234 0.00100237 1e-05
0.0249675 0.00100021 1e-05
0.0251115 0.00099801 1e-05
0.0252556 0.000995789 1e-05
[...]
POINT_DATA 12075
 FIELD attributes 2
p 1 12075 float
-5.66099 -5.65767 -5.65436 -5.65104 -5.64773 -5.64442
-5.81396 -5.81394 -5.81392 -5.81389 -5.81387 -5.81385
-5.98935 -5.98923 -5.98911 -5.98898 -5.98886 -5.98876
-6.08434 -6.08428 -6.08423 -6.08418 -6.08412 -6.08407
-6.13116 -6.13104 -6.13093 -6.13082 -6.1307 -6.13059
-6.13927 -6.1391 -6.13894 -6.13878 -6.13862 -6.13846
-6.11366 -6.11359 -6.11352 -6.11345 -6.11338 -6.1133
-6.04506 -6.04502 -6.04498 -6.04493 -6.04489 -6.04485
-5.92435 -5.92435 -5.92436 -5.92437 -5.92437 -5.92438
-3.71195 -3.73128 -3.75048 -3.76955 -3.78849 -3.80729
-5.66099 -5.66025 -5.65661 -5.65289 -5.64909 -5.64069 -5.65445 -5.66933 -5.68421 -5.69908 -5.7234 -5.74501 -5.77478 -5.80455 -5.83432 -5.86689 -5.88235 -5.90383 -5.92532 -5.94681 -5.96991 -5.98843 -6.00894 -6.02946 -6.04998 -6.0673 -6.06848 -6.06965 -6.07082 -6.07199 -6.07316 -6.09445 -6.11574 -6.13703 -6.15833 -6.17934 -6.19763 -6.21573 -6.23383 -6.25193 -6.26945 -6.28448 -6.29923 -6.31397 -6.32872 -6.34289 -6.35592 -6.36867 -6.38142 -6.39417 -6.40645 -6.41821 -6.42965 -6.4411 -6.45255 -6.46354 -6.47412 -6.48432 -6.49452 -6.50473 -6.51445 -6.52385 -6.53284 -6.54182 -6.55081 -6.55938 -6.56766 -6.57543 -6.58321 -6.59098 -6.59837 -6.60552 -6.61214 -6.61877 -6.62539 -6.63187 -6.63801 -6.64324 -6.64847 -6.6537 -6.6589 -6.66428 -6.6695 -6.67472 -6.67994 -6.68649 -6.69369 -6.69957 -6.70546 -6.71135 -6.71874 -6.73001 -6.74667 -6.76334 -6.78 -6.80205 -6.82608 -6.85754 -6.889 -6.92045 -6.95171 -6.98154 -7.01314 -7.04474 -7.07634 -7.10343 -7.12417 -7.14407 -7.16396 -7.18386 -7.20203 -7.21561 -7.22815 -7.2407 -7.25325 -7.26554 -7.27649 -7.2859 -7.29532 -7.30474 -7.31326 -7.3225 -7.33004 -7.33757 -7.34511 -7.35124 -7.35853 -7.36422 -7.3699 -7.37559 -7.37988 -7.38498 -7.38879 -7.39261 -7.39642 -7.39927 -7.40254 -7.40483 -7.40711 -7.40939 -7.41116 -7.41317 -7.41441 -7.41565 -7.4169 -7.41792 -7.41933 -7.42015 -7.42097 -7.42178 -7.42246 -7.42372 -7.4245 -7.42528 -7.42605 -7.42666 -7.4278 -7.42854 -7.42928 -7.43002 -7.43058 -7.43149 -7.43211 -7.43272 -7.43334 -7.43384 -7.43464 -7.4353 -7.43595 -7.4366 -7.43722 -7.43781 -7.43835 -7.43889 -7.43944 -7.43996 -7.44041 -7.44087 -7.44132 -7.44178 -7.44242 -7.44368 -7.44513 -7.44657 -7.44802 -7.45008 -7.45133 -7.45314 -7.45496 -7.45677 -7.45959 -7.46079 -7.4629 -7.46501 -7.46712 -7.4706 -7.47178 -7.47419 -7.4766 -7.47901 -7.48312 -7.48437 -7.48712 -7.48986 -7.49261 -7.4973 -7.49875 -7.50186 -7.50498 -7.5081 -7.51335 -7.5151 -7.51862 -7.52214 -7.52566 -7.5314 -7.53355 -7.53747 -7.54139 -7.54532 -7.55147 -7.55406 -7.55835 -7.56265 -7.56695 -7.57337 -7.57651 -7.58104 -7.58566 -7.5905 -7.59687 -7.60061 -7.60528 -7.61016 -7.6154 -7.62171 -7.62596 -7.63077 -7.63586 -7.64139 -7.64763 -7.65231 -7.6573 -7.66257 -7.66832 -7.67453 -7.67959 -7.68481 -7.69028 -7.69621 -7.70238 -7.70779 -7.71325 -7.71887 -7.72484 -7.73091 -7.7365 -7.7421 -7.74776 -7.75364 -7.75954 -7.76517 -7.7708 -7.77644 -7.78221 -7.78798 -7.7936 -7.79924 -7.80483 -7.81047 -7.8161 -7.82166 -7.82722 -7.83272 -7.83819 -7.84365 -7.84906 -7.85446 -7.8598 -7.86504 -7.87029 -7.87545 -7.88062 -7.88573 -7.89072 -7.8957 -7.90057 -7.90544 -7.91027 -7.91494 -7.91962 -7.92414 -7.92866 -7.93314 -7.93747 -7.94178 -7.9459 -7.95001 -7.95407 -7.95803 -7.96194 -7.96561 -7.96926 -7.97286 -7.97637 -7.97982 -7.98299 -7.98612 -7.98922 -7.99227 -7.99521 -7.99789 -8.00049 -8.00306 -8.00561 -8.00796 -8.01012 -8.01211 -8.01409 -8.01607 -8.01774 -8.01925 -8.02055 -8.02186 -8.02317 -8.02417 -8.0249 -8.02546 -8.02603 -8.0266 -8.02696 -8.02686 -8.02666 -8.02646 -8.02626 -8.02597 -8.02506 -8.02411 -8.02316 -8.02222 -8.02134 -8.0213 -8.02126 -8.02123 -8.02119 -8.02114 -8.01937 -8.01759 -8.01582 -8.01405 -8.01218 -8.00957 -8.00684 -8.00411 -8.00138 -7.99847 -7.99503 -7.99136 -7.9877 -7.98404 -7.98013 -7.97589 -7.97132 -7.96675 -7.96218 -7.95731 -7.95224 -7.94682 -7.94137 -7.93586 -7.93014 -7.92422 -7.91808 -7.91178 -7.90533 -7.89876 -7.892 -7.88514 -7.878 -7.87061 -7.86317 -7.85558 -7.84801 -7.83995 -7.8315 -7.82304 -7.81449 -7.80595 -7.79687 -7.78726 -7.77766 -7.76797 -7.75829 -7.74814 -7.73748 -7.72682 -7.71598 -7.70515 -7.69399 -7.68253 -7.67105 -7.65918 -7.64728 -7.63527 -7.62319 -7.61107 -7.59835 -7.58563 -7.5729 -7.56019 -7.54748 -7.53402 -7.52066 -7.50731 -7.49397 -7.48075 -7.46667 -7.45276 -7.43885 -7.42495 -7.41117 -7.39663 -7.38222 -7.36781 -7.35341 -7.33904 -7.33737 -7.33572 -7.33407 -7.33242 -7.33078 -7.31772 -7.30466 -7.2916 -7.27855 -7.2656 -7.25051 -7.23554 -7.22057 -7.20561 -7.19088 -7.17535 -7.16014 -7.14494 -7.12977 -7.11501 -7.09917 -7.08374 -7.06846 -7.05347 -7.03881 -7.02296 -7.0073 -6.99213 -6.97759 -6.96318 -6.94743 -6.93169 -6.91687 -6.90297 -6.88907 -6.87369 -6.85832 -6.84403 -6.83083 -6.81763 -6.80286 -6.78811 -6.77466 -6.7622 -6.74985 -6.73586 -6.72246 -6.70992 -6.69788 -6.68654 -6.6735 -6.66172 -6.65024 -6.63877 -6.62851 -6.61692 -6.60665 -6.59639 -6.58613 -6.57652 -6.5669 -6.55797 -6.54904 -6.54011 -6.53118 -6.53106 -6.53095 -6.53084 -6.53073 -6.53062 -6.52319 -6.51577 -6.50834 -6.5009 -6.49426 -6.48758 -6.48169 -6.4758 -6.46991 -6.46567 -6.45994 -6.45588 -6.45182 -6.44818 -6.44621 -6.44227 -6.43938 -6.43725 -6.43637 -6.43633 -6.43436 -6.43261 -6.43248 -6.43435 -6.43626 -6.4363 -6.43634 -6.4383 -6.44215 -6.44598 -6.44803 -6.45007 -6.4539 -6.45964 -6.46536 -6.46941 -6.47357 -6.47935 -6.48665 -6.49423 -6.50025 -6.50691 -6.5145 -6.5229 -6.53223 -6.54021 -6.54916 -6.55848 -6.56794 -6.57887 -6.58863 -6.59955 -6.61045 -6.62134 -6.63342 -6.64511 -6.65745 -6.66978 -6.68209 -6.69504 -6.70836 -6.72197 -6.73556 -6.74914 -6.7629 -6.77007 -6.77729 -6.78452 -6.79174 -6.79937 -6.8067 -6.81402 -6.82134 -6.82866 -6.83603 -6.85133 -6.86678 -6.88223 -6.89767 -6.91317 -6.92882 -6.94484 -6.96085 -6.97685 -6.9928 -7.00857 -7.02482 -7.04106 -7.05729 -7.07327 -7.08893 -7.10504 -7.12115 -7.13725 -7.15277 -7.16804 -7.18362 -7.19921 -7.21468 -7.22945 -7.24412 -7.25883 -7.27356 -7.28794 -7.30162 -7.31531 -7.32894 -7.34251 -7.35544 -7.36779 -7.38026 -7.39262 -7.40476 -7.41585 -7.42654 -7.43745 -7.4483 -7.45871 -7.46759 -7.47635 -7.48543 -7.49452 -7.50268 -7.50913 -7.51559 -7.52245 -7.52932 -7.5348 -7.53861 -7.54243 -7.54674 -7.55106 -7.55347 -7.55421 -7.55496 -7.55628 -7.5576 -7.55656 -7.55389 -7.55123 -7.54922 -7.54666 -7.54182 -7.53578 -7.52926 -7.52345 -7.51605 -7.50719 -7.49774 -7.48698 -7.477 -7.4641 -7.45082 -7.43754 -7.42241 -7.40685 -7.38875 -7.37066 -7.35255 -7.33363 -7.32024 -7.30578 -7.29131 -7.27684 -7.26433 -7.2553 -7.24627 -7.23724 -7.2282 -7.21847 -7.19076 -7.16245 -7.13414 -7.10584 -7.07481 -7.04305 -7.00885 -6.97466 -6.93949 -6.90111 -6.86361 -6.82496 -6.78453 -6.74049 -6.69564 -6.65169 -6.60773 -6.56 -6.50843 -6.45679 -6.40604 -6.35454 -6.2991 -6.24188 -6.18322 -6.12544 -6.0633 -6.00067 -5.93802 -5.87381 -5.8493 -5.82327 -5.79724 -5.77121 -5.74695 -5.70349 -5.66004 -5.61659 -5.57314 -5.52691 -5.45355 -5.37756 -5.30159 -5.22355 -5.14215 -5.06193 -4.98171 -4.89727 -4.80856 -4.71958 -4.63175 -4.54233 -4.44926 -4.35575 -4.25926 -4.19967 -4.13702 -4.07418 -4.01134 -3.95469 -3.91639 -3.8781 -3.83982 -3.80138 -3.76093 -3.65718 -3.55126 -3.44536 -3.33672 -3.22512 -3.11493 -3.00476 -2.89075 -2.77282 -2.65434 -2.55072 -2.44389 -2.33607 -2.22827 -2.13384 -2.11728 -2.10072 -2.08416 -2.06743 -2.05018 -1.92489 -1.79881 -1.67278 -1.54473 -1.41348 -1.28375 -1.15407 -1.02118 -0.885843 -0.749337 -0.671868 -0.593226 -0.513764 -0.434317 -0.360647 -0.300995 -0.241355 -0.181729 -0.121465 -0.0600958 0.0796556 0.22013 0.361383 0.505342 0.650361 0.786224 0.923075 1.06097 1.1988 1.32168 1.33257 1.34347 1.35436 1.36533 1.3764 1.52339 1.67054 1.8176 1.96559 2.11532 2.26361 2.412 2.56084 2.7096 2.85981 2.86757 2.87532 2.88308 2.89083 2.89855 3.04017 3.1817 3.32315 3.46449 3.60703 3.75605 3.90477 4.05277 4.20067 4.34996 4.35245 4.35493 4.35739 4.35984 4.3623 4.50742 4.65246 4.7974 4.94121 5.08591 5.21459 5.34273 5.46935 5.59589 5.71416 5.73318 5.75219 5.7712 5.79002 5.8088 5.95154 6.09382 6.23602 6.37558 6.51633 6.60776 6.69878 6.7881 6.87738 6.9634 7.01188 7.06034 7.1088 7.1564 7.20387 7.339 7.47406 7.60693 7.73749 7.86889 7.92119 7.97322 8.02387 8.07451 8.12448 8.20239 8.28029 8.35817 8.43375 8.5092 8.63459 8.75981 8.88043 9.00104 9.12176 9.12561 9.12945 9.13313 9.13682 9.14051 9.25531 9.3701 9.4849 9.59546 9.70561 9.77741 9.84899 9.91768 9.98638 10.0556 10.0969 10.1381 10.1794 10.219 10.2584 10.3657 10.473 10.5773 10.6789 10.78 10.8047 10.8292 10.8527 10.8762 10.8999 10.9755 11.051 11.1266 11.1989 11.2705 11.3553 11.4396 11.5203 11.6011 11.6868 11.6954 11.704 11.7127 11.721 11.7292 11.8172 11.9047 11.9923 12.0755 12.1578 12.2126 12.2669 12.3189 12.371 12.4266 12.453 12.4793 12.5056 12.531 12.5559 12.6322 12.7085 12.7828 12.8545 12.9253 12.9687 13.0114 13.0526 13.0938 13.1386 13.1646 13.1906 13.2166 13.2418 13.2664 13.3315 13.3963 13.4598 13.5209 13.5812 13.632 13.6815 13.7298 13.7781 13.8334 13.8408 13.8481 13.8554 13.8626 13.8696 13.9238 13.9778 14.0316 14.084 14.1349 14.1849 14.2349 14.2827 14.3299 14.3763 14.4045 14.4317 14.4585 14.4854 14.5155 14.5318 14.5481 14.5644 14.5806 14.5962 14.6373 14.6779 14.7185 14.758 14.7965 14.8339 14.8712 14.9073 14.9424 14.9774 15.0111 15.0439 15.0762 15.1084 15.1403 15.1504 15.1602 15.1699 15.1797 15.1901 15.2098 15.2295 15.2491 15.2688 15.2878 15.3148 15.3416 15.3684 15.3948 15.4205 15.4448 15.469 15.4929 15.5161 15.5392 15.5609 15.5826 15.6036 15.6244 15.6451 15.6645 15.6835 15.7022 15.7209 15.7394 15.7565 15.7733 15.79 15.8066 15.8233 15.8247 15.8261 15.8275 15.8289 15.8304 15.844 15.8577 15.8713 15.885 15.8984 15.9117 15.9251 15.9385 15.9519 15.965 15.9767 15.9885 16.0003 16.0121 16.0237 16.0341 16.0444 16.0549 16.0652 16.0756 16.0847 16.0937 16.1029 16.1121 16.1213 16.1293 16.1373 16.1452 16.1534 16.1615 16.1686 16.1756 16.1826 16.1898 16.197 16.2033 16.2095 16.2157 16.222 16.2284 16.234 16.2395 16.2451 16.2506 16.2564 16.2614 16.2664 16.2714 16.2765 16.2817 16.2862 16.2909 16.2956 16.3002 16.305 16.3094 16.3139 16.3184 16.3229 16.3274 16.3302 16.3331 16.3359 16.3387 16.3421 16.3437 16.3453 16.3469 16.3485 16.3502 16.3551 16.36 16.365 16.3699 16.3749 16.3805 16.3863 16.392 16.3978 16.4039 16.4107 16.4175 16.4243 16.4311 16.4385 16.447 16.4558 16.4647 16.4735 16.4839 16.4942 16.5023 16.5104 16.5184 16.5268 16.5357 16.5453 16.5549 16.5644 16.5766 16.5803 16.5753 16.5699 16.5642 16.5346 16.4971 16.459 16.4208 16.3801 16.3351 16.2876 16.2426 16.202 16.1649 16.1288 16.0909 16.0529 16.0154 15.9781 15.9407 15.9011 15.8614 15.8195 15.7754 15.7312 15.6844 15.6375 15.5894 15.5404 15.4913 15.4394 15.3874 15.3347 15.2816 15.2283 15.1722 15.1156 15.0583 15.0005 14.9422 14.8808 14.8183 14.7554 14.6922 14.6278 14.5602 14.4908 14.4214 14.352 14.2812 14.2063 14.1297 14.0532 13.9766 13.8989 13.8156 13.7311 13.6466 13.562 13.4767 13.3841 13.2906 13.1971 13.1037 13.0099 12.9781 12.9461 12.9141 12.8821 12.8479 12.777 12.706 12.635 12.564 12.4924 12.3783 12.2635 12.1487 12.0338 11.9174 11.7914 11.6636 11.5358 11.4079 11.2773 11.1381 10.9953 10.8525 10.7097 10.5623 10.4078 10.2482 10.0887 9.92909 9.76359 9.5925 9.41303 9.23316 9.05196 8.86311 8.66814 8.46881 8.26809 8.06546 7.85889 7.64554 7.42173 7.18985 6.94832 6.69745 6.43822 6.18189 5.93032 5.68395 5.44007 5.18793 4.92205 4.60039 4.21615 3.82212 3.41421 3.00785 2.71728 2.53876 2.3603 2.17533 1.99048 1.51392 0.756421 0