# vtk DataFile Version 2.0
track0
ASCII
DATASET POLYDATA
POINTS 12075 float
-0.0205 0.001 1e-05
-0.02052 0.000999985 1e-05
-0.02054 0.000999974 1e-05
-0.02056 0.000999965 1e-05
-0.02058 0.000999959 1e-05
-0.0206 0.000999956 1e-05
-0.0205 0.00367778 1e-05
-0.02052 0.00367778 1e-05
-0.02054 0.00367777 1e-05
-0.02056 0.00367777 1e-05
-0.02058 0.00367777 1e-05
-0.0206 0.00367777 1e-05
-0.0205 0.00635556 1e-05
-0.02052 0.00635555 1e-05
-0.02054 0.00635555 1e-05
-0.02056 0.00635555 1e-05
-0.02058 0.00635555 1e-05
-0.0206 0.00635555 1e-05
-0.0205 0.00903333 1e-05
-0.02052 0.00903333 1e-05
-0.02054 0.00903333 1e-05
-0.02056 0.00903333 1e-05
-0.02058 0.00903333 1e-05
-0.0206 0.00903333 1e-05
-0.0205 0.0117111 1e-05
-0.02052 0.0117111 1e-05
-0.02054 0.0117111 1e-05
-0.02056 0.0117111 1e-05
-0.02058 0.0117111 1e-05
-0.0206 0.0117111 1e-05
-0.0205 0.0143889 1e-05
-0.02052 0.0143889 1e-05
-0.02054 0.0143889 1e-05
-0.02056 0.0143889 1e-05
-0.02058 0.0143889 1e-05
-0.0206 0.0143889 1e-05
-0.0205 0.0170667 1e-05
-0.02052 0.0170667 1e-05
-0.02054 0.0170667 1e-05
-0.02056 0.0170667 1e-05
-0.02058 0.0170667 1e-05
-0.0206 0.0170667 1e-05
-0.0205 0.0197444 1e-05
-0.02052 0.0197444 1e-05
-0.02054 0.0197444 1e-05
-0.02056 0.0197444 1e-05
-0.02058 0.0197444 1e-05
-0.0206 0.0197444 1e-05
-0.0205 0.0224222 1e-05
-0.02052 0.0224222 1e-05
-0.02054 0.0224222 1e-05
-0.02056 0.0224222 1e-05
-0.02058 0.0224222 1e-05
-0.0206 0.0224222 1e-05
-0.0205 0.0251 1e-05
-0.02052 0.0250998 1e-05
-0.02054 0.0250997 1e-05
-0.02056 0.0250995 1e-05
-0.02058 0.0250995 1e-05
-0.0206 0.0250994 1e-05
-0.0205 0.001 1e-05
-0.0202034 0.00100022 1e-05
-0.0199069 0.00100067 1e-05
-0.0196103 0.00100132 1e-05
-0.0193137 0.00100219 1e-05
-0.0190172 0.00100326 1e-05
-0.0187132 0.00100467 1e-05
-0.0184093 0.00100589 1e-05
-0.0181054 0.0010071 1e-05
-0.0178015 0.00100832 1e-05
-0.0174976 0.00100954 1e-05
-0.0172058 0.00101083 1e-05
-0.016914 0.00101194 1e-05
-0.0166222 0.00101304 1e-05
-0.0163305 0.00101414 1e-05
-0.0160387 0.00101524 1e-05
-0.0157586 0.00101638 1e-05
-0.0154784 0.00101746 1e-05
-0.0151983 0.00101858 1e-05
-0.0149182 0.00101973 1e-05
-0.0146381 0.00102092 1e-05
-0.014376 0.0010221 1e-05
-0.0141139 0.00102328 1e-05
-0.0138518 0.0010245 1e-05
-0.0135897 0.00102574 1e-05
-0.0133685 0.00102682 1e-05
-0.0133535 0.00102689 1e-05
-0.0133385 0.00102697 1e-05
-0.0133235 0.00102704 1e-05
-0.0133085 0.00102712 1e-05
-0.0132934 0.00102719 1e-05
-0.0130353 0.00102848 1e-05
-0.0127771 0.00102979 1e-05
-0.0125189 0.00103111 1e-05
-0.0122607 0.00103245 1e-05
-0.0120025 0.00103381 1e-05
-0.0117547 0.00103512 1e-05
-0.0115068 0.00103644 1e-05
-0.0112589 0.00103777 1e-05
-0.0110111 0.0010391 1e-05
-0.0107632 0.00104043 1e-05
-0.0105252 0.00104172 1e-05
-0.0102873 0.001043 1e-05
-0.0100493 0.00104429 1e-05
-0.00981133 0.00104557 1e-05
-0.00957337 0.00104686 1e-05
-0.00934491 0.00104809 1e-05
-0.00911645 0.00104932 1e-05
-0.00888799 0.00105055 1e-05
-0.00865954 0.00105178 1e-05
-0.00843108 0.001053 1e-05
-0.00821175 0.00105417 1e-05
-0.00799242 0.00105534 1e-05
-0.00777309 0.00105651 1e-05
-0.00755376 0.00105767 1e-05
-0.00733443 0.00105883 1e-05
-0.00712387 0.00105994 1e-05
-0.0069133 0.00106104 1e-05
-0.00670273 0.00106215 1e-05
-0.00649216 0.00106325 1e-05
-0.0062816 0.00106435 1e-05
-0.00607944 0.00106539 1e-05
-0.00587729 0.00106644 1e-05
-0.00567514 0.00106749 1e-05
-0.00547298 0.00106853 1e-05
-0.00527083 0.00106958 1e-05
-0.00507675 0.00107057 1e-05
-0.00488267 0.00107156 1e-05
-0.0046886 0.00107256 1e-05
-0.00449452 0.00107355 1e-05
-0.00430044 0.00107455 1e-05
-0.00411412 0.0010755 1e-05
-0.0039278 0.00107645 1e-05
-0.00374147 0.0010774 1e-05
-0.00355515 0.00107836 1e-05
-0.00336883 0.00107932 1e-05
-0.00318995 0.00108023 1e-05
-0.00301107 0.00108116 1e-05
-0.00283219 0.00108208 1e-05
-0.00265331 0.00108302 1e-05
-0.00247443 0.00108396 1e-05
-0.0023027 0.00108486 1e-05
-0.00213097 0.00108578 1e-05
-0.00195924 0.00108671 1e-05
-0.00178751 0.00108765 1e-05
-0.00161577 0.00108859 1e-05
-0.0014509 0.00108951 1e-05
-0.00128603 0.00109044 1e-05
-0.00112116 0.0010914 1e-05
-0.00095629 0.00109238 1e-05
-0.000791418 0.00109339 1e-05
-0.000633135 0.00109438 1e-05
-0.000474851 0.00109539 1e-05
-0.000316568 0.00109644 1e-05
-0.000158285 0.00109752 1e-05
0 0.00109863 1e-05
0.000105677 0.00109939 1e-05
0.000211355 0.00110015 1e-05
0.000317032 0.00110093 1e-05
0.000422709 0.00110171 1e-05
0.000528387 0.00110249 1e-05
0.000634886 0.00110328 1e-05
0.000741385 0.00110407 1e-05
0.000847885 0.00110484 1e-05
0.000954384 0.00110561 1e-05
0.00106088 0.00110637 1e-05
0.00116821 0.00110712 1e-05
0.00127554 0.00110786 1e-05
0.00138286 0.00110859 1e-05
0.00149019 0.0011093 1e-05
0.00159752 0.00110999 1e-05
0.00170568 0.00111067 1e-05
0.00181384 0.00111134 1e-05
0.001922 0.00111199 1e-05
0.00203016 0.00111263 1e-05
0.00213833 0.00111324 1e-05
0.00224733 0.00111385 1e-05
0.00235633 0.00111444 1e-05
0.00246533 0.00111502 1e-05
0.00257434 0.00111558 1e-05
0.00268334 0.00111612 1e-05
0.00279319 0.00111665 1e-05
0.00290304 0.00111717 1e-05
0.00301289 0.00111768 1e-05
0.00312274 0.00111817 1e-05
0.00323259 0.00111865 1e-05
0.00334329 0.00111911 1e-05
0.003454 0.00111956 1e-05
0.0035647 0.00112 1e-05
0.0036754 0.00112042 1e-05
0.00378611 0.00112083 1e-05
0.00389767 0.00112123 1e-05
0.00400924 0.00112161 1e-05
0.0041208 0.00112198 1e-05
0.00423237 0.00112234 1e-05
0.00434393 0.00112268 1e-05
0.00445636 0.00112301 1e-05
0.00456879 0.00112332 1e-05
0.00468123 0.00112363 1e-05
0.00479366 0.00112392 1e-05
0.00490609 0.00112419 1e-05
0.0050194 0.00112445 1e-05
0.0051327 0.0011247 1e-05
0.00524601 0.00112494 1e-05
0.00535932 0.00112517 1e-05
0.00547262 0.00112538 1e-05
0.00558681 0.00112557 1e-05
0.005701 0.00112576 1e-05
0.00581518 0.00112593 1e-05
0.00592937 0.0011261 1e-05
0.00604356 0.00112624 1e-05
0.00615863 0.00112638 1e-05
0.00627371 0.0011265 1e-05
0.00638878 0.00112661 1e-05
0.00650386 0.00112672 1e-05
0.00661893 0.0011268 1e-05
0.0067349 0.00112687 1e-05
0.00685087 0.00112694 1e-05
0.00696684 0.00112699 1e-05
0.00708281 0.00112703 1e-05
0.00719878 0.00112706 1e-05
0.00731565 0.00112708 1e-05
0.00743252 0.00112708 1e-05
0.00754939 0.00112708 1e-05
0.00766626 0.00112706 1e-05
0.00778313 0.00112703 1e-05
0.00790091 0.00112699 1e-05
0.00801869 0.00112693 1e-05
0.00813647 0.00112687 1e-05
0.00825425 0.00112679 1e-05
0.00837203 0.00112671 1e-05
0.00843674 0.00112665 1e-05
0.00850144 0.00112659 1e-05
0.00856614 0.00112653 1e-05
0.00863084 0.00112647 1e-05
0.00869311 0.0011264 1e-05
0.00874759 0.00112634 1e-05
0.00880207 0.00112628 1e-05
0.00885655 0.00112621 1e-05
0.00891103 0.00112615 1e-05
0.00896551 0.00112608 1e-05
0.00908513 0.00112592 1e-05
0.00920475 0.00112575 1e-05
0.00932437 0.00112557 1e-05
0.00944398 0.00112537 1e-05
0.0095636 0.00112517 1e-05
0.00968415 0.00112495 1e-05
0.0098047 0.00112472 1e-05
0.00992525 0.00112448 1e-05
0.0100458 0.00112422 1e-05
0.0101663 0.00112396 1e-05
0.0102878 0.00112367 1e-05
0.0104093 0.00112338 1e-05
0.0105308 0.00112308 1e-05
0.0106523 0.00112277 1e-05
0.0107738 0.00112244 1e-05
0.0108962 0.0011221 1e-05
0.0110186 0.00112174 1e-05
0.0111411 0.00112138 1e-05
0.0112635 0.001121 1e-05
0.0113859 0.00112062 1e-05
0.0115093 0.00112021 1e-05
0.0116327 0.00111979 1e-05
0.0117561 0.00111936 1e-05
0.0118795 0.00111892 1e-05
0.0120028 0.00111847 1e-05
0.0121272 0.001118 1e-05
0.0122515 0.00111752 1e-05
0.0123759 0.00111703 1e-05
0.0125002 0.00111652 1e-05
0.0126245 0.00111601 1e-05
0.0127498 0.00111547 1e-05
0.0128752 0.00111493 1e-05
0.0130005 0.00111437 1e-05
0.0131258 0.0011138 1e-05
0.0132511 0.00111321 1e-05
0.0133774 0.00111261 1e-05
0.0135036 0.001112 1e-05
0.0136299 0.00111137 1e-05
0.0137562 0.00111073 1e-05
0.0138825 0.00111008 1e-05
0.0140098 0.00110941 1e-05
0.014137 0.00110873 1e-05
0.0142643 0.00110804 1e-05
0.0143915 0.00110733 1e-05
0.0145188 0.0011066 1e-05
0.0146471 0.00110587 1e-05
0.0147753 0.00110512 1e-05
0.0149036 0.00110435 1e-05
0.0150318 0.00110357 1e-05
0.0151601 0.00110277 1e-05
0.0152893 0.00110197 1e-05
0.0154186 0.00110115 1e-05
0.0155478 0.00110031 1e-05
0.0156771 0.00109945 1e-05
0.0158063 0.00109858 1e-05
0.0159366 0.00109771 1e-05
0.0160668 0.00109681 1e-05
0.0161971 0.00109589 1e-05
0.0163273 0.00109496 1e-05
0.0164576 0.00109402 1e-05
0.0165889 0.00109307 1e-05
0.0167201 0.0010921 1e-05
0.0168514 0.0010911 1e-05
0.0169827 0.00109009 1e-05
0.0171139 0.00108907 1e-05
0.0172462 0.00108805 1e-05
0.0173785 0.00108699 1e-05
0.0175108 0.00108592 1e-05
0.0176431 0.00108482 1e-05
0.0177754 0.00108372 1e-05
0.0179087 0.00108262 1e-05
0.018042 0.00108148 1e-05
0.0181753 0.00108032 1e-05
0.0183087 0.00107914 1e-05
0.018442 0.00107796 1e-05
0.0185763 0.00107677 1e-05
0.0187107 0.00107555 1e-05
0.018845 0.0010743 1e-05
0.0189794 0.00107303 1e-05
0.0191137 0.00107176 1e-05
0.0192491 0.00107049 1e-05
0.0193845 0.00106918 1e-05
0.0195199 0.00106784 1e-05
0.0196553 0.00106647 1e-05
0.0197907 0.00106511 1e-05
0.0199272 0.00106375 1e-05
0.0200636 0.00106235 1e-05
0.0202001 0.00106092 1e-05
0.0203365 0.00105946 1e-05
0.020473 0.00105801 1e-05
0.0206105 0.00105655 1e-05
0.020748 0.00105506 1e-05
0.0208855 0.00105353 1e-05
0.021023 0.00105197 1e-05
0.0211606 0.00105043 1e-05
0.0212991 0.00104887 1e-05
0.0214377 0.00104728 1e-05
0.0215763 0.00104564 1e-05
0.0217149 0.00104399 1e-05
0.0218535 0.00104234 1e-05
0.0219931 0.00104068 1e-05
0.0221328 0.00103898 1e-05
0.0222724 0.00103724 1e-05
0.0224121 0.00103548 1e-05
0.0225517 0.00103372 1e-05
0.0226925 0.00103196 1e-05
0.0228332 0.00103015 1e-05
0.022974 0.0010283 1e-05
0.0231147 0.00102643 1e-05
0.0232555 0.00102456 1e-05
0.0233973 0.00102268 1e-05
0.0235391 0.00102075 1e-05
0.023681 0.00101879 1e-05
0.0238228 0.00101681 1e-05
0.0239647 0.00101482 1e-05
0.0241076 0.00101282 1e-05
0.0242505 0.00101078 1e-05
0.0243935 0.0010087 1e-05
0.0245364 0.0010066 1e-05
0.0246794 0.0010045 1e-05
0.0248234 0.00100237 1e-05
0.0249675 0.00100021 1e-05
0.0251115 0.00099801 1e-05
0.0252556 0.000995789 1e-05
[...]
POINT_DATA 12075
 FIELD attributes 1
U 3 12075 float
10.0004 	0.00731909 	0 10.0004 	0.00585527 	0 10.0003 	0.00439145 	0 10.0002 	0.00292764 	0 10.0001 	0.00146382 	0 10 	0 	0
10.0001 	0.000883727 	0 10 	0.000706982 	0 10 	0.000530236 	0 10 	0.000353491 	0 10 	0.000176745 	0 10 	0 	0
10.0001 	0.000472044 	0 10.0001 	0.000377455 	0 10.0001 	0.000282866 	0 10 	0.000188277 	0 10 	9.36874e-05 	0 10 	0 	0
10 	0.000274654 	0 10 	0.000219723 	0 10 	0.000164792 	0 10 	0.000109862 	0 10 	5.49308e-05 	0 10 	0 	0
10 	8.88176e-05 	0 10 	7.10541e-05 	0 10 	5.32906e-05 	0 10 	3.5527e-05 	0 10 	1.77635e-05 	0 10 	0 	0
10 	-1.87095e-05 	0 10 	-1.49676e-05 	0 10 	-1.12257e-05 	0 10 	-7.4838e-06 	0 10 	-3.7419e-06 	0 10 	0 	0
10 	-0.000210923 	0 10 	-0.000168738 	0 10 	-0.000126554 	0 10 	-8.43691e-05 	0 10 	-4.21846e-05 	0 10 	0 	0
10 	-0.00037443 	0 10 	-0.000299544 	0 10 	-0.000224658 	0 10 	-0.000149772 	0 10 	-7.4886e-05 	0 10 	0 	0
9.99999 	-0.000425537 	0 9.99999 	-0.00034043 	0 9.99999 	-0.000255322 	0 10 	-0.000170215 	0 10 	-8.51075e-05 	0 10 	0 	0
9.17387 	0.0870994 	0 9.1308 	0.0696796 	0 9.08741 	0.0522594 	0 9.04368 	0.034839 	0 8.99962 	0.0174185 	0 8.95524 	0 	0
10.0004 	0.00731909 	0 10.0024 	0.0151722 	0 10.0045 	0.0221938 	0 10.0065 	0.0291712 	0 10.0085 	0.0361046 	0 10.0135 	0.0463222 	0 10.0163 	0.0402249 	0 10.0207 	0.0401871 	0 10.0251 	0.0401495 	0 10.0296 	0.040112 	0 10.0355 	0.0445755 	0 10.0384 	0.0379416 	0 10.0424 	0.0379026 	0 10.0463 	0.0378636 	0 10.0503 	0.0378246 	0 10.0544 	0.0409279 	0 10.0566 	0.0388596 	0 10.059 	0.0401755 	0 10.0614 	0.0414931 	0 10.0638 	0.0428123 	0 10.066 	0.0452734 	0 10.0675 	0.0453903 	0 10.0688 	0.0465947 	0 10.0701 	0.0478002 	0 10.0714 	0.0490069 	0 10.0725 	0.0500265 	0 10.0726 	0.0500961 	0 10.0726 	0.0501658 	0 10.0727 	0.0502354 	0 10.0728 	0.0503051 	0 10.0729 	0.0503643 	0 10.0734 	0.0510031 	0 10.0738 	0.0516352 	0 10.0743 	0.0522678 	0 10.0748 	0.052901 	0 10.0753 	0.0533691 	0 10.0751 	0.0536808 	0 10.0747 	0.0538864 	0 10.0743 	0.054092 	0 10.0739 	0.0542978 	0 10.0734 	0.0542646 	0 10.0729 	0.0544314 	0 10.0717 	0.054429 	0 10.0706 	0.0544266 	0 10.0695 	0.0544242 	0 10.0678 	0.0541528 	0 10.0674 	0.0542633 	0 10.0657 	0.0541593 	0 10.064 	0.0540552 	0 10.0623 	0.0539511 	0 10.0597 	0.053562 	0 10.0596 	0.0536587 	0 10.0575 	0.0535062 	0 10.0554 	0.0533537 	0 10.0533 	0.0532011 	0 10.0496 	0.0527527 	0 10.0501 	0.0528675 	0 10.0477 	0.0527086 	0 10.0453 	0.0525496 	0 10.0428 	0.0523905 	0 10.038 	0.051931 	0 10.0394 	0.0520955 	0 10.0367 	0.0519624 	0 10.034 	0.0518292 	0 10.0313 	0.0516961 	0 10.0254 	0.0512539 	0 10.0277 	0.0514938 	0 10.0249 	0.0514275 	0 10.022 	0.0513612 	0 10.0192 	0.0512949 	0 10.012 	0.0509239 	0 10.0155 	0.0512844 	0 10.0124 	0.0513185 	0 10.0094 	0.0513526 	0 10.0064 	0.0513868 	0 9.99795 	0.051108 	0 10.0026 	0.0516501 	0 9.99956 	0.0519312 	0 9.99649 	0.0522123 	0 9.99342 	0.0524936 	0 9.98374 	0.0525141 	0 9.98982 	0.0534059 	0 9.98674 	0.0539688 	0 9.98365 	0.0545318 	0 9.98058 	0.055095 	0 9.96959 	0.0553093 	0 9.9773 	0.0565979 	0 9.97459 	0.0580002 	0 9.97189 	0.0594027 	0 9.9692 	0.0608053 	0 9.95738 	0.0620079 	0 9.96741 	0.0641359 	7.72283e-22 9.96634 	0.0660475 	6.238e-21 9.96529 	0.0679594 	1.17016e-20 9.96424 	0.0698714 	1.7163e-20 9.95281 	0.0708967 	1.40729e-20 9.96517 	0.0722897 	1.06455e-19 9.96511 	0.0729074 	9.94549e-20 9.96506 	0.0735251 	9.24631e-20 9.965 	0.0741429 	8.54792e-20 9.95353 	0.0737614 	-1.73586e-20 9.96647 	0.0734753 	-4.74994e-20 9.96644 	0.0726551 	-5.26205e-20 9.96641 	0.0718348 	-5.77368e-20 9.96637 	0.0710146 	-6.28483e-20 9.95446 	0.0699108 	-2.22494e-20 9.96698 	0.0688784 	-1.98614e-20 9.96597 	0.067331 	-1.36116e-20 9.96495 	0.0657835 	-7.36314e-21 9.96393 	0.0642359 	-1.11595e-21 9.95099 	0.0626747 	8.85747e-21 9.96302 	0.0617055 	-3.89969e-21 9.96106 	0.0600603 	-2.41607e-20 9.95908 	0.0584149 	-4.44262e-20 9.95709 	0.0567693 	-6.46962e-20 9.94312 	0.0548992 	-9.49194e-20 9.95481 	0.0542167 	-1.45044e-19 9.95205 	0.0527338 	-1.31724e-19 9.94928 	0.0512505 	-1.18388e-19 9.9465 	0.0497668 	-1.05038e-19 9.9316 	0.0477642 	-3.15794e-20 9.94297 	0.0472439 	5.18627e-20 9.93947 	0.0458769 	6.67546e-20 9.93596 	0.0445095 	8.16276e-20 9.93243 	0.0431416 	9.64818e-20 9.91667 	0.041112 	3.93784e-20 9.92765 	0.0406201 	-7.54766e-20 9.9234 	0.0393061 	-8.23178e-20 9.91914 	0.0379916 	-8.91298e-20 9.91487 	0.0366767 	-9.59125e-20 9.89831 	0.034701 	-2.22495e-22 9.90876 	0.0342125 	9.18077e-20 9.90373 	0.0329352 	8.17776e-20 9.8987 	0.0316575 	7.1719e-20 9.89365 	0.0303792 	6.16316e-20 9.87637 	0.028483 	-2.69056e-20 9.88611 	0.0279921 	-1.01008e-19 9.88031 	0.0267406 	-1.25359e-19 9.8745 	0.0254886 	-1.497e-19 9.86868 	0.024236 	-1.74029e-19 9.85086 	0.0224172 	-1.40796e-19 9.8596 	0.0219497 	-1.78689e-19 9.85305 	0.0207449 	-1.65116e-19 9.8465 	0.0195396 	-1.51535e-19 9.83994 	0.0183337 	-1.37945e-19 9.82185 	0.016601 	-8.44045e-20 9.82922 	0.0161765 	-7.32478e-20 9.82199 	0.0150374 	-5.3063e-20 9.81475 	0.0138976 	-3.28815e-20 9.80749 	0.0127573 	-1.27033e-20 9.78956 	0.0111192 	4.11488e-21 9.7951 	0.0107175 	0 9.78723 	0.00963998 	0 9.77935 	0.00856183 	0 9.77145 	0.00748303 	0 9.7542 	0.00594868 	0 9.75734 	0.00552421 	-1.47409e-20 9.74888 	0.00449603 	-3.53731e-20 9.7404 	0.00346714 	-5.60082e-20 9.73191 	0.00243754 	-7.66463e-20 9.71591 	0.00102667 	-1.00091e-19 9.71607 	0.000528771 	-1.15442e-19 9.70705 	-0.000458609 	-1.15987e-19 9.69801 	-0.00144676 	-1.16524e-19 9.68896 	-0.00243568 	-1.17053e-19 9.67487 	-0.00369005 	-1.07926e-19 9.67141 	-0.00430815 	-6.26389e-20 9.66188 	-0.00525715 	-3.1067e-20 9.65233 	-0.00620698 	4.89009e-22 9.64277 	-0.00715762 	3.20291e-20 9.63125 	-0.00821415 	5.77294e-20 9.62811 	-0.00858556 	6.1909e-20 9.62266 	-0.00908505 	6.19466e-20 9.61721 	-0.0095848 	6.19811e-20 9.61176 	-0.0100848 	6.20123e-20 9.6065 	-0.0105663 	6.20392e-20 9.60184 	-0.010991 	6.24935e-20 9.59718 	-0.0114159 	6.29469e-20 9.59252 	-0.011841 	6.33996e-20 9.58785 	-0.0122663 	6.38516e-20 9.58016 	-0.0128123 	6.48088e-20 9.57233 	-0.0136099 	5.14853e-20 9.56179 	-0.0145109 	3.81601e-20 9.55124 	-0.015413 	2.48329e-20 9.54066 	-0.016316 	1.15039e-20 9.521 	-0.017542 	-5.47099e-22 9.51821 	-0.0181507 	-1.08588e-20 9.5073 	-0.0190342 	-2.35144e-20 9.49637 	-0.0199188 	-3.61682e-20 9.48542 	-0.0208045 	-4.88201e-20 9.46013 	-0.0221318 	-6.14816e-20 9.46171 	-0.0226285 	-6.40268e-20 9.45047 	-0.0235001 	-7.1624e-20 9.4392 	-0.0243728 	-7.92163e-20 9.42792 	-0.0252466 	-8.68038e-20 9.39791 	-0.0265979 	-1.03416e-19 9.40316 	-0.0270628 	-1.43425e-19 9.39163 	-0.0279273 	-1.33316e-19 9.38007 	-0.0287928 	-1.23226e-19 9.3685 	-0.0296595 	-1.13157e-19 9.33469 	-0.0309574 	-4.29843e-20 9.34291 	-0.0314644 	-2.86549e-20 9.33113 	-0.0323239 	-2.03585e-20 9.31933 	-0.0331847 	-1.20609e-20 9.30751 	-0.0340466 	-3.76213e-21 9.27079 	-0.0352177 	0 9.28132 	-0.0358327 	0 9.26933 	-0.0366899 	0 9.25732 	-0.0375483 	0 9.24528 	-0.038408 	0 9.20649 	-0.0393895 	0 9.21872 	-0.0401697 	2.39299e-21 9.20655 	-0.0410279 	1.00176e-20 9.19435 	-0.0418873 	1.7641e-20 9.18214 	-0.042748 	2.52632e-20 9.14202 	-0.0434894 	4.32289e-20 9.15541 	-0.0444826 	1.58998e-19 9.1431 	-0.0453451 	1.62559e-19 9.13076 	-0.0462089 	1.66142e-19 9.11839 	-0.0470741 	1.69749e-19 9.07761 	-0.0475358 	4.3531e-20 9.0917 	-0.0487791 	2.37231e-20 9.07927 	-0.0496501 	1.66375e-20 9.06681 	-0.0505225 	9.55063e-21 9.05415 	-0.0513919 	2.59028e-21 9.01344 	-0.0515518 	1.70792e-20 9.02643 	-0.0530416 	1.10502e-19 9.01533 	-0.0539577 	1.17537e-19 9.00277 	-0.054841 	1.19477e-19 8.98701 	-0.0556051 	1.07844e-19 8.94968 	-0.0555522 	4.08942e-21 8.95987 	-0.0572228 	-1.05965e-19 8.95151 	-0.0582659 	-1.35221e-19 8.93889 	-0.0591662 	-1.45968e-19 8.92074 	-0.0597842 	-1.35674e-19 8.88647 	-0.0595713 	-6.36508e-20 8.89416 	-0.0614128 	-1.88724e-19 8.88803 	-0.0626293 	-2.3107e-19 8.87536 	-0.0635511 	-2.34334e-19 8.85546 	-0.0639854 	-1.8457e-19 8.82394 	-0.0636342 	-4.9463e-20 8.82944 	-0.0656043 	-2.60011e-20 8.82509 	-0.0670191 	-1.11614e-20 8.81239 	-0.0679621 	-3.64276e-21 8.79125 	-0.0681896 	0 8.7622 	-0.0677441 	0 8.76575 	-0.0698206 	0 8.76279 	-0.0714568 	0 8.75008 	-0.0724265 	0 8.72815 	-0.0724373 	2.26492e-21 8.70131 	-0.0719337 	5.74349e-21 8.70316 	-0.0741133 	2.45735e-21 8.7013 	-0.0759965 	0 8.68859 	-0.0769948 	0 8.66625 	-0.076769 	2.75273e-21 8.64137 	-0.0762174 	6.23687e-21 8.64176 	-0.0784772 	2.95149e-21 8.64077 	-0.0806142 	6.78434e-22 8.62807 	-0.0816416 	7.37627e-21 8.6056 	-0.0811761 	2.59636e-20 8.58243 	-0.0806021 	4.54115e-20 8.58157 	-0.0829374 	1.78503e-19 8.58063 	-0.0852753 	3.11596e-19 8.5679 	-0.0862668 	3.12193e-19 8.54621 	-0.0856674 	1.79184e-19 8.52453 	-0.0850676 	4.61718e-20 8.5226 	-0.0874192 	2.70874e-20 8.52058 	-0.0897734 	8.00545e-21 8.50845 	-0.0907508 	7.61769e-22 8.48806 	-0.0901932 	4.10039e-21 8.46769 	-0.0896352 	7.43889e-21 8.46481 	-0.0920205 	4.30919e-21 8.46186 	-0.0944084 	1.18093e-21 8.45036 	-0.0953848 	-1.32486e-22 8.43112 	-0.0948753 	-4.01519e-21 8.41189 	-0.0943655 	-7.89718e-21 8.4082 	-0.0967845 	-5.38704e-20 8.40444 	-0.099206 	-9.98502e-20 8.39359 	-0.100178 	-1.0227e-19 8.37534 	-0.0997059 	-6.03493e-20 8.35709 	-0.0992334 	-1.84261e-20 8.35269 	-0.101651 	8.53866e-20 8.34821 	-0.104071 	1.8919e-19 8.33801 	-0.105041 	1.99585e-19 8.32064 	-0.104638 	1.12736e-19 8.30327 	-0.104236 	2.58851e-20 8.29824 	-0.106656 	1.36466e-20 8.29312 	-0.109079 	1.40227e-21 8.28357 	-0.110049 	-4.35571e-21 8.26696 	-0.10971 	6.15315e-22 8.25036 	-0.109372 	5.58689e-21 8.24474 	-0.111777 	-6.5492e-22 8.23891 	-0.114127 	-7.13575e-21 8.22963 	-0.115058 	-1.93802e-20 8.21423 	-0.114894 	-6.83337e-20 8.1983 	-0.114633 	-1.20484e-19 8.19217 	-0.117031 	-2.56304e-19 8.18532 	-0.119125 	-3.58071e-19 8.17608 	-0.12009 	-3.34458e-19 8.16237 	-0.120206 	-2.14129e-19 8.14702 	-0.12001 	-5.82475e-20 8.1404 	-0.122368 	7.11619e-20 8.13274 	-0.124199 	1.4848e-19 8.12352 	-0.125213 	1.45335e-19 8.11128 	-0.125645 	9.38557e-20 8.09645 	-0.125572 	6.74361e-22 8.0894 	-0.127962 	-9.14635e-20 8.08109 	-0.129597 	-1.35466e-19 8.07184 	-0.130677 	-1.44182e-19 8.06084 	-0.131398 	-1.23029e-19 8.04643 	-0.131412 	-4.2968e-20 8.039 	-0.133843 	-3.18014e-20 8.03014 	-0.13527 	-2.07066e-20 8.02083 	-0.13639 	-9.63545e-21 8.01087 	-0.137371 	2.73803e-21 7.99682 	-0.137416 	2.38853e-20 7.989 	-0.139804 	9.19593e-22 7.97973 	-0.141005 	-5.67495e-21 7.97036 	-0.142157 	-1.1588e-20 7.96095 	-0.14331 	-1.75025e-20 7.94756 	-0.143537 	-3.93744e-21 7.93919 	-0.145727 	-1.98945e-20 7.9298 	-0.146923 	-2.63301e-20 7.92037 	-0.14812 	-3.27702e-20 7.91089 	-0.149317 	-3.92151e-20 7.89863 	-0.149844 	-5.64268e-20 7.88978 	-0.151812 	1.41489e-20 7.88032 	-0.153052 	1.52774e-20 7.87081 	-0.154293 	1.63756e-20 7.86126 	-0.155534 	1.74434e-20 7.84995 	-0.156334 	-2.61208e-20 7.84074 	-0.158092 	1.42305e-20 7.8312 	-0.159368 	1.58362e-20 7.82162 	-0.160645 	1.74142e-20 7.81199 	-0.161923 	1.89645e-20 7.80152 	-0.162981 	2.24317e-21 7.79233 	-0.164479 	-1.4469e-22 7.78298 	-0.165743 	-1.09947e-22 7.77359 	-0.167007 	-7.52146e-23 7.76414 	-0.168273 	-4.04936e-23 7.7553 	-0.169453 	-8.13711e-24 7.75486 	-0.16951 	-6.42964e-24 7.75442 	-0.169567 	-4.72216e-24 7.75398 	-0.169623 	-3.01465e-24 7.75354 	-0.16968 	-1.30712e-24 7.75315 	-0.169726 	0 7.74311 	-0.17107 	0 7.73304 	-0.172405 	0 7.72292 	-0.173741 	0 7.71274 	-0.175077 	0 7.70369 	-0.176169 	0 7.69312 	-0.177777 	0 7.68287 	-0.179152 	0 7.67257 	-0.180527 	0 7.66222 	-0.181903 	0 7.65408 	-0.182816 	0 7.64295 	-0.184699 	0 7.63246 	-0.186115 	0 7.62192 	-0.187533 	0 7.61132 	-0.188952 	0 7.60404 	-0.189681 	0 7.59234 	-0.191825 	0 7.58159 	-0.193259 	0 7.57079 	-0.194695 	0 7.55994 	-0.196132 	0 7.55344 	-0.196642 	0 7.5413 	-0.198926 	0 7.53017 	-0.20046 	0 7.51913 	-0.2019 	0 7.50917 	-0.203103 	0 7.50237 	-0.203636 	0 7.49006 	-0.205915 	0 7.47835 	-0.207705 	-5.10742e-21 7.46705 	-0.209153 	-1.3799e-20 7.45793 	-0.210127 	-2.25092e-20 7.45072 	-0.210684 	-3.12369e-20 7.43816 	-0.212963 	-2.14726e-20 7.42583 	-0.215013 	-1.41254e-20 7.41424 	-0.216462 	-1.30504e-20 7.40593 	-0.21719 	-1.99369e-20 7.39838 	-0.217747 	-2.87108e-20 7.38567 	-0.219999 	-1.88552e-20 7.37287 	-0.222251 	-8.99414e-21 7.36131 	-0.223637 	0 7.35331 	-0.224194 	0 7.34529 	-0.224751 	0 7.33228 	-0.226968 	0 7.31919 	-0.229186 	0 7.30813 	-0.230567 	-2.57197e-21 7.29976 	-0.231119 	-6.68063e-21 7.29137 	-0.231672 	-1.07889e-20 7.27817 	-0.233872 	-4.07184e-20 7.26488 	-0.236072 	-7.06449e-20 7.25427 	-0.23748 	-7.50348e-20 7.24539 	-0.238053 	-6.00212e-20 7.23648 	-0.238627 	-4.5002e-20 7.223 	-0.240821 	-2.26921e-20 7.20943 	-0.243015 	-3.69469e-22 7.19926 	-0.244401 	-8.32361e-21 7.1898 	-0.24501 	-2.78446e-20 7.18035 	-0.245573 	-4.80302e-20 7.16647 	-0.247719 	-5.90159e-20 7.15355 	-0.249623 	-6.64213e-20 7.14303 	-0.250959 	-6.5415e-20 7.1329 	-0.251818 	-4.90625e-20 7.12306 	-0.25234 	-2.18459e-20 7.10887 	-0.254428 	-1.89529e-20 7.09671 	-0.256024 	-1.32542e-20 7.08578 	-0.257315 	-5.82176e-21 7.07496 	-0.258434 	0 7.06463 	-0.258931 	0 7.05005 	-0.260975 	0 7.03858 	-0.262253 	0 7.02725 	-0.263487 	0 7.01587 	-0.264722 	0 7.00501 	-0.265284 	0 6.99097 	-0.267029 	0 6.97932 	-0.268186 	0 6.96761 	-0.269344 	0 6.95586 	-0.270503 	0 6.94437 	-0.271301 	-5.79228e-21 6.93113 	-0.272697 	5.38926e-23 6.9191 	-0.273789 	1.41418e-22 6.90702 	-0.274881 	2.28975e-22 6.89489 	-0.275975 	3.16562e-22 6.88275 	-0.277033 	5.18173e-22 6.88124 	-0.277178 	1.30655e-21 6.87985 	-0.277291 	1.08328e-21 6.87847 	-0.277404 	8.59876e-22 6.87709 	-0.277518 	6.36353e-22 6.87571 	-0.27763 	4.1405e-22 6.86444 	-0.278544 	-1.39893e-21 6.85314 	-0.279458 	-3.2201e-21 6.84179 	-0.280373 	-5.0495e-21 6.83041 	-0.281289 	-6.88717e-21 6.82045 	-0.281967 	1.50932e-21 6.8068 	-0.283171 	3.78377e-21 6.79374 	-0.284099 	9.23288e-21 6.78064 	-0.285029 	1.46796e-20 6.76749 	-0.285959 	2.01239e-20 6.75746 	-0.286376 	2.57793e-20 6.74273 	-0.287788 	2.01897e-20 6.72935 	-0.288613 	1.92316e-20 6.71592 	-0.289439 	1.82692e-20 6.70276 	-0.290215 	1.73265e-20 6.6938 	-0.2903 	1.67069e-20 6.6784 	-0.29174 	1.54346e-20 6.66425 	-0.292642 	1.39237e-20 6.6505 	-0.293357 	1.23275e-20 6.63879 	-0.293733 	1.23325e-20 6.6296 	-0.293691 	1.43087e-20 6.61391 	-0.295004 	1.09885e-20 6.59867 	-0.296112 	8.36354e-21 6.58466 	-0.296711 	7.45472e-21 6.57449 	-0.296674 	9.24272e-21 6.56509 	-0.296509 	1.15734e-20 6.54912 	-0.297703 	7.91863e-21 6.53308 	-0.298899 	4.25975e-21 6.51956 	-0.299327 	-5.99134e-22 6.51001 	-0.299018 	-3.3226e-21 6.50045 	-0.298709 	-6.04645e-21 6.48424 	-0.299763 	-3.75428e-21 6.46798 	-0.300817 	-1.46337e-21 6.45528 	-0.301122 	0 6.44565 	-0.300657 	0 6.43601 	-0.300193 	0 6.41962 	-0.301092 	0 6.40323 	-0.301985 	-1.79526e-23 6.3916 	-0.302063 	-2.26452e-21 6.38173 	-0.3015 	-4.51931e-21 6.37206 	-0.300861 	-6.77519e-21 6.35556 	-0.301585 	-4.88603e-21 6.34102 	-0.301971 	-3.91519e-21 6.32938 	-0.30186 	-4.28728e-21 6.3186 	-0.301449 	-3.86895e-21 6.30901 	-0.30063 	-2.37106e-21 6.29247 	-0.301176 	-2.06152e-20 6.27994 	-0.301041 	-2.31623e-20 6.26837 	-0.30074 	-2.18994e-20 6.25679 	-0.300439 	-2.06357e-20 6.24722 	-0.299477 	-5.9771e-22 6.23175 	-0.299674 	-1.76841e-20 6.22031 	-0.299178 	-1.67453e-20 6.20888 	-0.298682 	-1.58063e-20 6.19744 	-0.298185 	-1.48672e-20 6.18704 	-0.297357 	-6.64722e-21 6.17374 	-0.297016 	-5.65551e-21 6.1625 	-0.296322 	-2.2826e-21 6.15128 	-0.295628 	1.09032e-21 6.14005 	-0.294935 	4.46326e-21 6.12885 	-0.294236 	7.8454e-21 6.12865 	-0.294228 	7.833e-21 6.12849 	-0.294215 	7.86047e-21 6.12833 	-0.294202 	7.88795e-21 6.12817 	-0.294189 	7.91542e-21 6.128 	-0.294176 	7.9429e-21 6.11691 	-0.293321 	1.00794e-20 6.10582 	-0.292466 	1.22151e-20 6.09474 	-0.291612 	1.435e-20 6.08367 	-0.290757 	1.64842e-20 6.07404 	-0.289579 	1.1348e-20 6.06263 	-0.288798 	1.12434e-20 6.05171 	-0.287738 	9.27967e-21 6.0408 	-0.286678 	7.31667e-21 6.02991 	-0.285617 	5.35442e-21 6.02195 	-0.283904 	3.59446e-21 6.01044 	-0.283199 	4.45711e-21 5.99993 	-0.281948 	2.86464e-21 5.98944 	-0.280697 	1.27251e-21 5.97971 	-0.279283 	5.24348e-22 5.97294 	-0.277219 	3.13766e-21 5.96182 	-0.276336 	9.33092e-22 5.95134 	-0.275133 	6.11793e-22 5.94134 	-0.273694 	1.67272e-21 5.93354 	-0.271777 	5.7722e-21 5.92729 	-0.269531 	1.19679e-20 5.91669 	-0.268444 	1.56471e-20 5.90624 	-0.267294 	1.90761e-20 5.89679 	-0.265679 	2.06567e-20 5.89096 	-0.263295 	1.61759e-20 5.88527 	-0.260891 	1.15358e-20 5.87526 	-0.25962 	1.55311e-20 5.86527 	-0.25835 	1.95263e-20 5.85734 	-0.25648 	1.93337e-20 5.8522 	-0.253953 	1.48632e-20 5.84712 	-0.251426 	1.0393e-20 5.83776 	-0.25 	1.42542e-20 5.82842 	-0.248574 	1.81154e-20 5.82194 	-0.246516 	1.74072e-20 5.81743 	-0.2439 	1.07672e-20 5.81299 	-0.241284 	4.12547e-21 5.80431 	-0.239732 	3.1718e-21 5.79589 	-0.238135 	2.15872e-21 5.79079 	-0.235896 	2.89453e-22 5.78674 	-0.23329 	-2.81313e-21 5.78294 	-0.230618 	-6.14378e-21 5.77499 	-0.228968 	-2.2963e-21 5.76845 	-0.227057 	-6.68618e-22 5.76399 	-0.224762 	-2.32719e-21 5.76014 	-0.222285 	-5.07283e-21 5.75699 	-0.219594 	-9.0922e-21 5.74979 	-0.217878 	1.63346e-21 5.74503 	-0.215731 	4.077e-21 5.74122 	-0.213423 	3.42874e-21 5.73759 	-0.21108 	1.96983e-21 5.73508 	-0.208417 	-7.03417e-21 5.72875 	-0.20666 	-4.75513e-21 5.72552 	-0.204384 	-3.29021e-21 5.72236 	-0.202109 	-1.82415e-21 5.71924 	-0.199835 	-3.56958e-22 5.71708 	-0.197324 	0 5.71239 	-0.195452 	0 5.70979 	-0.193255 	0 5.70724 	-0.191059 	0 5.70475 	-0.188865 	0 5.70282 	-0.186552 	0 5.69964 	-0.184646 	2.53628e-23 5.69763 	-0.182573 	6.68613e-23 5.69568 	-0.180502 	1.08334e-22 5.69378 	-0.178431 	1.49781e-22 5.6921 	-0.176329 	1.05863e-22 5.69102 	-0.175439 	2.64266e-22 5.6903 	-0.174502 	-5.42704e-22 5.68959 	-0.173566 	-1.34868e-21 5.68889 	-0.17263 	-2.15366e-21 5.68817 	-0.171641 	-3.00335e-21 5.68756 	-0.170683 	-3.74765e-21 5.68696 	-0.169724 	-4.49135e-21 5.68637 	-0.168766 	-5.23447e-21 5.68579 	-0.167808 	-5.97699e-21 5.68532 	-0.166809 	-5.84823e-21 5.68457 	-0.165138 	-6.57532e-21 5.6838 	-0.163444 	-5.8008e-21 5.68306 	-0.161752 	-5.02141e-21 5.68236 	-0.16006 	-4.23717e-21 5.68194 	-0.158267 	7.50989e-22 5.68179 	-0.156893 	4.69695e-21 5.68147 	-0.155467 	6.43235e-21 5.68118 	-0.154041 	8.16375e-21 5.68093 	-0.152616 	9.89113e-21 5.68101 	-0.151062 	3.96527e-21 5.68141 	-0.150018 	9.62059e-22 5.68148 	-0.148917 	-1.70001e-21 5.68157 	-0.147817 	-4.36034e-21 5.68169 	-0.146717 	-7.01893e-21 5.68214 	-0.145489 	-9.75347e-21 5.68303 	-0.14482 	-1.59685e-20 5.68342 	-0.144111 	-1.65203e-20 5.68382 	-0.143402 	-1.70692e-20 5.68425 	-0.142694 	-1.76152e-20 5.68495 	-0.141883 	-7.87808e-21 5.68625 	-0.141636 	-3.65223e-21 5.68691 	-0.141377 	-1.17646e-21 5.68756 	-0.141118 	1.23676e-21 5.68825 	-0.14085 	3.47366e-21 5.68908 	-0.140527 	4.68975e-21 5.69061 	-0.140735 	1.31887e-20 5.69161 	-0.140946 	1.54614e-20 5.69245 	-0.141158 	1.57682e-20 5.6933 	-0.141354 	1.30798e-20 5.69418 	-0.141518 	4.47821e-21 5.6959 	-0.14218 	3.17206e-21 5.69719 	-0.142857 	1.88202e-21 5.69815 	-0.143548 	6.04839e-22 5.69908 	-0.144231 	-1.35718e-21 5.69997 	-0.144907 	-3.93542e-21 5.7018 	-0.146047 	-1.55676e-21 5.70334 	-0.14721 	0 5.70436 	-0.148414 	0 5.70524 	-0.14964 	-1.87712e-21 5.70606 	-0.150873 	-4.48041e-21 5.70793 	-0.152544 	-2.08791e-21 5.70966 	-0.154224 	1.54781e-22 5.71065 	-0.155973 	1.3746e-21 5.71137 	-0.157774 	5.09153e-21 5.71204 	-0.159578 	9.01409e-21 5.71387 	-0.161797 	1.54893e-20 5.71565 	-0.164013 	2.19655e-20 5.71657 	-0.166317 	2.21254e-20 5.71706 	-0.168694 	1.64284e-20 5.71749 	-0.17107 	1.07325e-20 5.7192 	-0.17384 	1.14938e-20 5.72084 	-0.176608 	1.2257e-20 5.72168 	-0.179469 	9.74599e-21 5.72187 	-0.182422 	3.9265e-21 5.72199 	-0.185373 	-1.89186e-21 5.72348 	-0.188702 	-1.1752e-20 5.72489 	-0.192028 	-2.16098e-20 5.72557 	-0.195456 	-2.32247e-20 5.72538 	-0.198987 	-1.53257e-20 5.72511 	-0.202515 	-7.42859e-21 5.7263 	-0.206407 	6.06884e-21 5.72741 	-0.210295 	1.95625e-20 5.72784 	-0.