/*--------------------------------*- C++ -*----------------------------------*\
  =========                 |
  \\      /  F ield         | OpenFOAM: The Open Source CFD Toolbox
   \\    /   O peration     | Website:  https://openfoam.org
    \\  /    A nd           | Version:  7
     \\/     M anipulation  |
\*---------------------------------------------------------------------------*/
FoamFile
{
    version     2.0;
    format      ascii;
    class       surfaceScalarField;
    location    "2.1";
    object      phi;
}
// * * * * * * * * * * * * * * * * * * * * * * * * * * * * * * * * * * * * * //

dimensions      [0 3 -1 0 0 0 0];

internalField   nonuniform List<scalar> 
65775
(
-2.183483913e-11
-5.45727792513e-09
-6.40206657949e-11
5.52490588348e-15
-3.92276429982e-11
-5.74445255341e-09
-6.83025944994e-11
-4.68890939192e-11
-6.00845007149e-09
-7.22141681683e-11
-4.54169739893e-11
-6.23631273858e-09
-7.57950428836e-11
-3.71945206627e-11
-6.41943991232e-09
-7.88456349771e-11
-2.40647122203e-11
-6.55400105229e-09
-8.11716316803e-11
-7.97284477194e-12
-6.6384856238e-09
-8.2657515814e-11
9.14470709126e-12
-6.66999079949e-09
-8.3205581472e-11
2.52054524547e-11
-6.63846538007e-09
-8.26388209989e-11
3.8274729474e-11
-6.55396237074e-09
-8.11348026614e-11
4.64120160829e-11
-6.41938643022e-09
-7.87918649764e-11
4.77805618177e-11
-6.23625032552e-09
-7.57261998402e-11
4.00044719932e-11
-6.00838473663e-09
-7.21329329211e-11
2.24912712412e-11
-5.74439442751e-09
-6.82127986275e-11
-5.45722966658e-09
-6.39287339428e-11
5.37446226177e-13
-7.20267240915e-11
-1.01830238023e-08
-4.83166922853e-10
1.02825086121e-14
-1.26733978595e-10
-1.07126198009e-08
-5.43991534217e-10
-1.50536841137e-10
-1.12045705922e-08
-6.03509160689e-10
-1.47274981415e-10
-1.16247775021e-08
-6.58705781807e-10
-1.21582575387e-10
-1.19606664297e-08
-7.06080685038e-10
-7.91932538375e-11
-1.22060698652e-08
-7.42506445376e-10
-2.64584600163e-11
-1.23596293474e-08
-7.6571066852e-10
2.97283230496e-11
-1.24167504856e-08
-7.73989152664e-10
8.23806925049e-11
-1.23595689329e-08
-7.65656889736e-10
1.2460988938e-10
-1.22059546792e-08
-7.42400453541e-10
1.50075405977e-10
-1.19605081151e-08
-7.05925970758e-10
1.53058547731e-10
-1.16245926725e-08
-6.58507819458e-10
1.28942932386e-10
-1.12043786108e-08
-6.03275785783e-10
7.3898532698e-11
-1.071243936e-08
-5.43733843023e-10
-1.01828743327e-08
-4.82902107858e-10
1.54502792979e-12
-1.27973492659e-10
-1.399914764e-08
-1.07462010275e-09
8.73133562859e-15
-2.17296462943e-10
-1.47076805713e-08
-1.21917331721e-09
-2.57319015805e-10
-1.53627072221e-08
-1.36035152255e-09
-2.52707380584e-10
-1.59160335703e-08
-1.4905103374e-09
-2.09582430758e-10
-1.6355311208e-08
-1.60162315473e-09
-1.37079397856e-10
-1.66741770273e-08
-1.68670475869e-09
-4.6158581009e-11
-1.6873004004e-08
-1.74071720588e-09
5.08870826932e-11
-1.69469197126e-08
-1.75990773939e-09
1.41699140977e-10
-1.68729043794e-08
-1.74063745196e-09
2.13989851133e-10
-1.66739869782e-08
-1.68654747066e-09
2.56810674731e-10
-1.63550499499e-08
-1.6013931702e-09
2.61043067816e-10
-1.59157275783e-08
-1.4902153526e-09
2.20586283603e-10
-1.53623883199e-08
-1.36000270777e-09
1.30785490761e-10
-1.47073710139e-08
-1.2187865531e-09
-1.39988875248e-08
-1.07421991111e-09
2.33637082079e-12
-1.85255547218e-10
-1.68383298501e-08
-1.73205497457e-09
3.70815130992e-15
-3.07549321908e-10
-1.76583271746e-08
-1.96730747335e-09
-3.63524015863e-10
-1.84052761731e-08
-2.1950452505e-09
-3.5761541131e-10
-1.90291915203e-08
-2.40315107383e-09
-2.97411856464e-10
-1.95207203742e-08
-2.57946567478e-09
-1.95079620819e-10
-1.98752541567e-08
-2.71368707749e-09
-6.61503832222e-11
-2.0095619104e-08
-2.79853684526e-09
7.16408491751e-11
-2.01776139383e-08
-2.82859789103e-09
2.00457921951e-10
-2.00954923601e-08
-2.79844308827e-09
3.02569333532e-10
-1.98750126184e-08
-2.71350068043e-09
3.62452315461e-10
-1.95203877044e-08
-2.57919181037e-09
3.67953785763e-10
-1.90287999117e-08
-2.4027981431e-09
3.115018761e-10
-1.84048641261e-08
-2.19462568465e-09
1.88672122625e-10
-1.76579171852e-08
-1.9668390653e-09
-1.68379738441e-08
-1.73156569882e-09
2.86004452554e-12
-2.40115393491e-10
-1.87218234295e-08
-2.3706565318e-09
-3.12795204511e-15
-3.94359025267e-10
-1.95922239768e-08
-2.68879869802e-09
-4.6567142708e-10
-2.03693620842e-08
-2.99326952372e-09
-4.58424100326e-10
-2.10113076971e-08
-3.26877798943e-09
-3.81806750605e-10
-2.15132053075e-08
-3.50033254564e-09
-2.50881561487e-10
-2.18731982727e-08
-3.67553644721e-09
-8.55520002206e-11
-2.20963936949e-08
-3.78582964264e-09
9.12609258337e-11
-2.21795860824e-08
-3.82481134731e-09
2.5648786994e-10
-2.20962570825e-08
-3.78572942344e-09
3.87209192536e-10
-2.1872937701e-08
-3.67533702451e-09
4.63526472043e-10
-2.15128449644e-08
-3.50003900484e-09
4.70385568683e-10
-2.10108805178e-08
-3.26839864339e-09
3.98607449098e-10
-2.03689068327e-08
-2.99281676493e-09
2.43830751504e-10
-1.95917612039e-08
-2.68829037322e-09
-1.87214031729e-08
-2.37012112574e-09
3.13470928669e-12
-2.90273154337e-10
-1.97357490397e-08
-2.9278395839e-09
-1.01544621123e-14
-4.75373102019e-10
-2.06073372872e-08
-3.31341790305e-09
-5.61207095483e-10
-2.1369082705e-08
-3.67819236118e-09
-5.52608384203e-10
-2.1991536171e-08
-4.00526407034e-09
-4.60538121682e-10
-2.24748230137e-08
-4.2781819299e-09
-3.02913978475e-10
-2.28199183816e-08
-4.48358327484e-09
-1.03728692923e-10
-2.30334933816e-08
-4.61241263081e-09
1.09338150614e-10
-2.31132489808e-08
-4.65784464294e-09
3.08433513498e-10
-2.30333620889e-08
-4.612311183e-09
4.65877620468e-10
-2.28196674397e-08
-4.48338140462e-09
5.57679812441e-10
-2.24744742446e-08
-4.27788466308e-09
5.65926430422e-10
-2.19911192442e-08
-4.00487953133e-09
4.7966200433e-10
-2.1368631972e-08
-3.67773252845e-09
2.94062476976e-10
-2.06068692084e-08
-3.31289986114e-09
-1.97352996557e-08
-2.92729078312e-09
3.2208889192e-12
-3.35007184492e-10
-2.00012969068e-08
-3.36925723697e-09
-1.63358153355e-14
-5.49432638563e-10
-2.08375634948e-08
-3.80567167843e-09
-6.48853659703e-10
-2.1554127958e-08
-4.21436081011e-09
-6.38973375139e-10
-2.21335304448e-08
-4.57802740823e-09
-5.32607247232e-10
-2.25807166317e-08
-4.87973161039e-09
-3.50483574214e-10
-2.28989975176e-08
-5.10584797954e-09
-1.2037359105e-10
-2.30957371416e-08
-5.24724585053e-09
1.25759740457e-10
-2.31692994736e-08
-5.29699379157e-09
3.55789768267e-10
-2.30956209652e-08
-5.24714562855e-09
5.37752604545e-10
-2.28987748425e-08
-5.10564875129e-09
6.4387772029e-10
-2.25804052755e-08
-4.87943859789e-09
6.53438783146e-10
-2.21331545677e-08
-4.57764884104e-09
5.53623485978e-10
-2.15537147766e-08
-4.21390847752e-09
3.38737397534e-10
-2.08371249696e-08
-3.80516192913e-09
-2.00008476141e-08
-3.36871599776e-09
3.19002903404e-12
-3.74729661378e-10
-1.96500384695e-08
-3.68411670427e-09
-2.10847648476e-14
-6.1650211833e-10
-2.04255617507e-08
-4.15724560216e-09
-7.28541800682e-10
-2.10793173511e-08
-4.59667880403e-09
-7.17514587266e-10
-2.16025461534e-08
-4.98540109899e-09
-5.98054050662e-10
-2.20044699277e-08
-5.30649661435e-09
-3.93617957267e-10
-2.22899620062e-08
-5.54639965007e-09
-1.35458884752e-10
-2.24662774608e-08
-5.69605135854e-09
1.40622401403e-10
-2.25322018105e-08
-5.7485604436e-09
3.98706737456e-10
-2.24661804938e-08
-5.69595319991e-09
6.02992394181e-10
-2.22897754281e-08
-5.54620488517e-09
7.22227488253e-10
-2.20042069343e-08
-5.30621091446e-09
7.32955974389e-10
-2.16022246715e-08
-4.98503315267e-09
6.2054719789e-10
-2.10789566523e-08
-4.59624061798e-09
3.78344248412e-10
-2.04251691664e-08
-4.15675315182e-09
-1.96496066997e-08
-3.6835945188e-09
3.1039068489e-12
-4.10397669282e-10
-1.88084075484e-08
-3.87659860034e-09
-2.43598815026e-14
-6.77317812489e-10
-1.95065335396e-08
-4.37581801559e-09
-8.01069478829e-10
-2.0088024971e-08
-4.83653001322e-09
-7.89041568205e-10
-2.05489494551e-08
-5.24226299328e-09
-6.57578560637e-10
-2.09019240912e-08
-5.57632884724e-09
-4.32781156901e-10
-2.11524741672e-08
-5.8253382354e-09
-1.49128453451e-10
-2.13070821771e-08
-5.98033376585e-09
1.54130717381e-10
-2.13647739711e-08
-6.03453916328e-09
4.37709437635e-10
-2.13070037092e-08
-5.98023787746e-09
6.62358355925e-10
-2.11523222712e-08
-5.82514842021e-09
7.93599856115e-10
-2.09017075204e-08
-5.57605137029e-09
8.05335974151e-10
-2.05486799756e-08
-5.24190723838e-09
6.81226394906e-10
-2.00877144828e-08
-4.83610853074e-09
4.13891986961e-10
-1.95061848509e-08
-4.37534676388e-09
-1.88079961131e-08
-3.87610103491e-09
3.00590505645e-12
-4.43039114515e-10
-1.75904042108e-08
-3.95810877786e-09
-2.6336792602e-14
-7.330219784e-10
-1.82010777313e-08
-4.47587710096e-09
-8.67742265116e-10
-1.87060169603e-08
-4.95135916541e-09
-8.54803067626e-10
-1.91031347358e-08
-5.36864160698e-09
-7.1218658643e-10
-1.94070672911e-08
-5.71132442655e-09
-4.68615521322e-10
-1.96229707021e-08
-5.96625280089e-09
-1.61597195098e-10
-1.97560489352e-08
-6.12459080366e-09
1.66517502495e-10
-1.98054666669e-08
-6.17974498933e-09
4.73459302673e-10
-1.97559846568e-08
-6.12449734876e-09
7.1687748418e-10
-1.9622845137e-08
-5.96606826474e-09
8.5926743963e-10
-1.94068853059e-08
-5.71105569068e-09
8.71910795876e-10
-1.91029026795e-08
-5.36829882792e-09
7.3683155666e-10
-1.8705740366e-08
-4.95095559234e-09
4.4643733033e-10
-1.8200755245e-08
-4.47542887163e-09
-1.75900010753e-08
-3.95763853474e-09
2.92158827566e-12
-4.7347746995e-10
-1.6095739902e-08
-3.94211195802e-09
-2.73620384101e-14
-7.84953242409e-10
-1.66135761655e-08
-4.47312454484e-09
-9.30154425311e-10
-1.70411013623e-08
-4.95886847493e-09
-9.16227243702e-10
-1.73763329081e-08
-5.38386645652e-09
-7.62937488323e-10
-1.76337042101e-08
-5.73203542439e-09
-5.01760308935e-10
-1.78169130102e-08
-5.99053875437e-09
-1.73079675434e-10
-1.79296026129e-08
-6.15071978087e-09
1.77992147325e-10
-1.79710799252e-08
-6.20625257036e-09
5.06591619308e-10
-1.79295456167e-08
-6.15062913598e-09
7.67607447414e-10
-1.7816800433e-08
-5.99036020217e-09
9.2065978997e-10
-1.76335378493e-08
-5.73177638894e-09
9.34279705612e-10
-1.73761146989e-08
-5.38353780989e-09
7.8870976825e-10
-1.70408317631e-08
-4.95848416264e-09
4.76815385677e-10
-1.66132500816e-08
-4.47270090658e-09
-1.60953197207e-08
-3.94167090281e-09
2.86305070901e-12
-5.02266871439e-10
-1.4410764908e-08
-3.84141424336e-09
-2.762979641e-14
-8.34753466638e-10
-1.48330004156e-08
-4.38188289777e-09
-9.9015986294e-10
-1.51852658228e-08
-4.87466619164e-09
-9.74730893047e-10
-1.5463655527e-08
-5.30449392365e-09
-8.10730890745e-10
-1.56789433493e-08
-5.65567524656e-09
-5.32702515447e-10
-1.58325284007e-08
-5.91584250668e-09
-1.83734281986e-10
-1.59265952263e-08
-6.07662224165e-09
1.88697956962e-10
-1.59607202501e-08
-6.13205677469e-09
5.37579201477e-10
-1.59265367121e-08
-6.07653505846e-09
8.15435453809e-10
-1.58324116939e-08
-5.91567116007e-09
9.79183793498e-10
-1.56787683441e-08
-5.65542756043e-09
9.94289789096e-10
-1.546342106e-08
-5.30418132904e-09
8.3849953841e-10
-1.51849685744e-08
-4.8743032196e-09
5.05580593979e-10
-1.48326319228e-08
-4.38148601166e-09
-1.44102918122e-08
-3.84100451065e-09
2.83260980725e-12
-5.30625624493e-10
-1.26095225285e-08
-3.66710440442e-09
-2.76434400979e-14
-8.85394337431e-10
-1.293432082e-08
-4.21439989539e-09
-1.04998701676e-09
-1.32181193735e-08
-4.71187417117e-09
-1.03139433463e-09
-1.34477170654e-08
-5.14416908715e-09
-8.55972476815e-10
-1.36265952348e-08
-5.4962163151e-09
-5.61569059536e-10
-1.37541353742e-08
-5.7563520641e-09
-1.93593081762e-10
-1.38316521134e-08
-5.91661933446e-09
1.98649090263e-10
-1.3859167193e-08
-5.97153137095e-09
5.66531699302e-10
-1.38315816416e-08
-5.91653651093e-09
8.60750982204e-10
-1.37539944542e-08
-5.75618961574e-09
1.03590519456e-09
-1.36263830696e-08
-5.49598227267e-09
1.05415706505e-09
-1.34474312408e-08
-5.14387520354e-09
8.89163063162e-10
-1.32177543449e-08
-4.71153537836e-09
5.33945115084e-10
-1.29338647859e-08
-4.21403272294e-09
-1.26089495673e-08
-3.66672895282e-09
2.82456140441e-12
-5.65125534338e-10
-1.0750283372e-08
-3.42838326506e-09
-2.78240612858e-14
-9.43232533068e-10
-1.09821911189e-08
-3.98120723197e-09
-1.1122090437e-09
-1.12119607202e-08
-4.48158610949e-09
-1.08675630185e-09
-1.14018797462e-08
-4.91417890339e-09
-8.98592827614e-10
-1.15496537379e-08
-5.26508372414e-09
-5.88237116606e-10
-1.1654557575e-08
-5.52361510619e-09
-2.02615611661e-10
-1.17176782971e-08
-5.68234983821e-09
2.07787727844e-10
-1.17394228992e-08
-5.73635462541e-09
5.93309251099e-10
-1.17175841271e-08
-5.68227245273e-09
9.0346838467e-10
-1.16543695864e-08
-5.52346359715e-09
1.09134735543e-09
-1.15493719451e-08
-5.26486610311e-09
1.11644043738e-09
-1.14015027454e-08
-4.91390692771e-09
9.4704479009e-10
-1.12114839193e-08
-4.48127482879e-09
5.68472800433e-10
-1.09815997397e-08
-3.98087325628e-09
-1.07495601567e-08
-3.4280459378e-09
2.83932317672e-12
-6.27350831386e-10
-3.13221232095e-09
-2.62081792785e-14
-8.86277358748e-09
-1.01987454155e-09
-3.69156092812e-09
-9.0419870429e-09
-1.18457391909e-09
-4.1928171257e-09
-9.23393239102e-09
-1.14791739448e-09
-4.6235990722e-09
-9.39107705123e-09
-9.44885946339e-10
-4.97162187342e-09
-9.51257466746e-09
-6.17071917644e-10
-5.22727436886e-09
-9.5989054408e-09
-2.1236359521e-10
-5.38367604983e-09
-9.65051903563e-09
2.17661192961e-10
-5.43647359781e-09
-9.66765255787e-09
6.2226288984e-10
-5.38360523797e-09
-9.6503880334e-09
9.49867541368e-10
-5.22713597184e-09
-9.5986448066e-09
1.15259655604e-09
-4.97142367603e-09
-9.51218643796e-09
1.18887228386e-09
-4.62335248575e-09
-9.39056323868e-09
1.02373285846e-09
-4.1925369312e-09
-9.23329255213e-09
6.30730221546e-10
-3.69126304682e-09
-9.04121125109e-09
-3.13191833821e-09
2.86167891598e-12
-8.86184638157e-09
-8.25125323465e-12
4.17126836808e-10
-4.72902775403e-10
-1.21128384188e-14
-1.28707256783e-11
4.60845702134e-10
-5.24559009483e-10
-1.43091351159e-11
5.02782554886e-10
-5.73589244183e-10
-1.37266674551e-11
5.4134749439e-10
-6.17753124009e-10
-1.13240576182e-11
5.73501944679e-10
-6.5477173474e-10
-7.487429561e-12
5.97732036469e-10
-6.82756985791e-10
-2.70132065494e-12
6.12986062074e-10
-7.00444401646e-10
2.42266078796e-12
6.18456886971e-10
-7.06800495224e-10
7.21466738069e-12
6.1299527066e-10
-7.00439686346e-10
1.10633999172e-11
5.97750948172e-10
-6.82747669686e-10
1.34851146774e-11
5.73531854404e-10
-6.54758150605e-10
1.40941921457e-11
5.41388138754e-10
-6.17735793124e-10
1.26883863406e-11
5.02829782475e-10
-5.73568921034e-10
8.1037745029e-12
4.60897044729e-10
-5.24536827996e-10
4.17168725595e-10
-4.72880781135e-10
-1.23917469624e-13
-1.24579861385e-11
1.18797402918e-09
-1.24155859139e-09
-3.19367168458e-14
-1.88092571393e-11
1.29735425803e-09
-1.37419580843e-09
-2.06035070585e-11
1.40049329777e-09
-1.49947460018e-09
-1.93287638861e-11
1.49314119631e-09
-1.61181696164e-09
-1.57240560965e-11
1.56943665612e-09
-1.70565337983e-09
-1.03605271192e-11
1.62624400511e-09
-1.77640882114e-09
-3.85844557261e-12
1.66179517607e-09
-1.82104592482e-09
3.06537424788e-12
1.67457777249e-09
-1.83705673733e-09
9.58457317975e-12
1.66182906421e-09
-1.82103194813e-09
1.49831223805e-11
1.62631176004e-09
-1.7763810887e-09
1.86420215641e-11
1.56953941878e-09
-1.70561296143e-09
1.99907563142e-11
1.49327723778e-09
-1.61176551033e-09
1.82864376401e-11
1.4006535771e-09
-1.49941444995e-09
1.20337118628e-11
1.29752803126e-09
-1.37413036784e-09
1.18813506416e-09
-1.24149324771e-09
-3.58480898658e-13
-8.71006641513e-12
1.99838964411e-09
-1.87630992144e-09
-4.82275389248e-14
-1.15217975176e-11
2.15823164398e-09
-2.07728128824e-09
-1.15275800779e-11
2.30663109154e-09
-2.26652797444e-09
-9.95877319432e-12
2.43684762718e-09
-2.4358239091e-09
-7.6920832003e-12
2.54248864739e-09
-2.57697213665e-09
-5.03627518395e-12
2.62011447979e-09
-2.6832559478e-09
-2.13955354587e-12
2.66836726407e-09
-2.75020843718e-09
8.90089963176e-13
2.68577774922e-09
-2.77415865954e-09
3.81377528893e-12
2.66843295336e-09
-2.75018553123e-09
6.52469569875e-12
2.62024419355e-09
-2.68321058956e-09
8.87590350332e-12
2.54268216103e-09
-2.57690618061e-09
1.05588303464e-11
2.43710070136e-09
-2.4357401814e-09
1.06914616812e-11
2.30693083227e-09
-2.26643036527e-09
8.03296568428e-12
2.15855833526e-09
-2.07717523071e-09
1.9987103027e-09
-1.87620362412e-09
-5.74173142831e-13
-1.81722509866e-13
2.67365933611e-09
-2.40711284581e-09
-6.08966013558e-14
3.29636950959e-12
2.85511388266e-09
-2.66770627008e-09
6.10874343174e-12
3.0211104552e-09
-2.9123766145e-09
7.46991644265e-12
3.16307480953e-09
-3.13077350171e-09
6.84770199939e-12
3.27617638736e-09
-3.31255885117e-09
4.49936679445e-12
3.35802538131e-09
-3.44927292068e-09
1.05509385961e-12
3.4085260165e-09
-3.53527243381e-09
-2.69404885782e-12
3.42685857124e-09
-3.56594955417e-09
-6.10349876023e-12
3.40862004303e-09
-3.53523988676e-09
-8.38045121351e-12
3.35821195294e-09
-3.44920991707e-09
-8.89379358756e-12
3.27645402699e-09
-3.31246811195e-09
-7.38664832708e-12
3.1634373125e-09
-3.13065907636e-09
-4.39719801163e-12
3.0215430838e-09
-2.91224390233e-09
-7.21710618217e-13
2.85559069718e-09
-2.66756243902e-09
2.67414563666e-09
-2.40696850117e-09
-7.68453898531e-13
1.07048949173e-11
3.13148129003e-09
-2.83914126522e-09
-7.03093246246e-14
2.10509642556e-11
3.30721052449e-09
-3.15127600035e-09
2.66604067045e-11
3.46566328229e-09
-3.44346655203e-09
2.73126874658e-11
3.59733640217e-09
-3.70372212611e-09
2.31293023726e-11
3.70001069131e-09
-3.92000844516e-09
1.50784292254e-11
3.7729958495e-09
-4.0824774626e-09
4.61924698411e-12
3.81766831381e-09
-4.18453229839e-09
-6.57220821805e-12
3.83405009506e-09
-4.22082992502e-09
-1.69909951288e-11
3.81778351906e-09
-4.18449182575e-09
-2.49589326607e-11
3.77322495422e-09
-4.0823991269e-09
-2.90161348423e-11
3.70035162241e-09
-3.91989582275e-09
-2.81951207902e-11
3.5977822772e-09
-3.70358046879e-09
-2.23805466363e-11
3.46619927477e-09
-3.44330269557e-09
-1.18041619152e-11
3.30780827623e-09
-3.15109858191e-09
3.1321079164e-09
-2.83896275558e-09
-9.37989203446e-13
2.21229262405e-11
3.35944829911e-09
-3.17787922857e-09
-7.68017087641e-14
3.86738085686e-11
3.51142946576e-09
-3.53421817866e-09
4.65483315786e-11
3.64636644468e-09
-3.8668007095e-09
4.61409111582e-11
3.75486951594e-09
-4.16241684272e-09
3.83601908681e-11
3.83730915563e-09
-4.40772255603e-09
2.48900480616e-11
3.89464539258e-09
-4.59178268263e-09
7.92802235544e-12
3.92943098523e-09
-4.70723164132e-09
-1.01155392903e-11
3.94239571606e-09
-4.7481640533e-09
-2.70339617436e-11
3.92955812297e-09
-4.70718394873e-09
-4.04144947905e-11
3.89489857145e-09
-4.59169040206e-09
-4.80589109527e-11
3.83768616385e-09
-4.40759014187e-09
-4.8284024702e-11
3.75536382104e-09
-4.16225075544e-09
-4.01868546453e-11
3.64696466231e-09
-3.86660918234e-09
-2.33841452334e-11
3.51210384145e-09
-3.5340112407e-09
3.36017143481e-09
-3.17767083097e-09
-1.07980126426e-12
3.2819065511e-11
3.38650167649e-09
-3.42907333961e-09
-8.0678902025e-14
5.44228123109e-11
3.5071783031e-09
-3.82305085132e-09
6.39070196648e-11
3.61218616875e-09
-4.18969176282e-09
6.22888429753e-11
3.69335537598e-09
-4.51491913182e-09
5.12592144198e-11
3.75299300283e-09
-4.78440658325e-09
3.31362908068e-11
3.79328922332e-09
-4.98638730204e-09
1.07101197026e-11
3.81747805487e-09
-5.11288377513e-09
-1.30564257369e-11
3.82673198444e-09
-5.15757963211e-09
-3.54378861784e-11
3.81760818243e-09
-5.11282961729e-09
-5.3468822863e-11
3.79354853007e-09
-4.98628255539e-09
-6.43583515605e-11
3.75337942565e-09
-4.78425658013e-09
-6.57887722096e-11
3.69386323687e-09
-4.51473152769e-09
-5.60738507954e-11
3.61280444671e-09
-4.18947614993e-09
-3.42070009638e-11
3.50788156398e-09
-3.82281857068e-09
3.38726985301e-09
-3.42883959037e-09
-1.19296108768e-12
4.20618805918e-11
3.25883478659e-09
-3.59845124112e-09
-8.22808981475e-14
6.7543003272e-11
3.34862350095e-09
-4.02419520976e-09
7.80638309527e-11
3.42421692426e-09
-4.41925396448e-09
7.52555105343e-11
3.47971812331e-09
-4.76897692833e-09
6.15027854633e-11
3.51856618832e-09
-5.05833600599e-09
3.96421820178e-11
3.54369270775e-09
-5.27495961731e-09
1.29077369996e-11
3.55854816101e-09
-5.41040291699e-09
-1.53475961507e-11
3.56449197831e-09
-5.45808016607e-09
-4.203778489e-11
3.55867396252e-09
-5.4103431589e-09
-6.38072196551e-11
3.54394336684e-09
-5.27484409175e-09
-7.74208444245e-11
3.51893971574e-09
-5.05817088894e-09
-8.0042187245e-11
3.48020968492e-09
-4.76877102013e-09
-6.92901466246e-11
3.42481789966e-09
-4.41901815387e-09
-4.35428467388e-11
3.34931208063e-09
-4.02394206322e-09
3.25959751857e-09
-3.59819700721e-09
-1.27841201365e-12
4.95059646183e-11
3.02423444423e-09
-3.69144185567e-09
-8.21186437227e-14
7.78691868694e-11
3.08806363701e-09
-4.14364158308e-09
8.90133564798e-11
3.13855126373e-09
-4.56202897843e-09
8.51595893915e-11
3.17291435879e-09
-4.93162440112e-09
6.92568073548e-11
3.19506594471e-09
-5.23694288815e-09
4.45420210527e-11
3.20827347647e-09
-5.46521989086e-09
1.45673526225e-11
3.21586132356e-09
-5.607686955e-09
-1.70497651384e-11
3.21918449836e-09
-5.6576285283e-09
-4.69815930529e-11
3.21597717676e-09
-5.60762261116e-09
-7.16080376885e-11
3.20850411517e-09
-5.46509555854e-09
-8.73758154627e-11
3.19540927451e-09
-5.23676551617e-09
-9.10475244702e-11
3.17336618395e-09
-4.93140384256e-09
-7.96768123902e-11
3.13910490483e-09
-4.56177731759e-09
-5.10503595826e-11
3.08870111879e-09
-4.14337248793e-09
3.02494806447e-09
-3.69117241948e-09
-1.33896178419e-12
5.50775300991e-11
2.7241489603e-09
-3.71303801041e-09
-8.05467307052e-14
8.55432701051e-11
2.76853127699e-09
-4.18682783719e-09
9.70635847129e-11
2.79955768568e-09
-4.62390355832e-09
9.23913523677e-11
2.81807511937e-09
-5.00914679061e-09
7.48907824035e-11
2.82805411385e-09
-5.32682742886e-09
4.80939060595e-11
2.83279514971e-09
-5.56399194876e-09
1.57766219931e-11
2.83527070061e-09
-5.71169649006e-09
-1.82653622246e-11
2.83670454324e-09
-5.76323598287e-09
-5.05416562514e-11
2.835372451e-09
-5.71162873209e-09
-7.7253989369e-11
2.83299736206e-09
-5.56386108279e-09
-9.46252160445e-11
2.82835439443e-09
-5.32664107239e-09
-9.91225713898e-11
2.81846948336e-09
-5.00891571733e-09
-8.73833914619e-11
2.80004081891e-09
-4.62364090519e-09
-5.66610557158e-11
2.76908874825e-09
-4.18654819745e-09
2.72477739888e-09
-3.71275908981e-09
-1.37860046684e-12
5.88867729589e-11
2.39101888269e-09
-3.6678067149e-09
-7.80731342107e-14
9.08672183864e-11
2.42212253867e-09
-4.15871110205e-09
1.02671829032e-10
2.43912762056e-09
-4.61025823888e-09
9.7461556937e-11
2.44670015128e-09
-5.0072958195e-09
7.88581338248e-11
2.44863512661e-09
-5.33402678014e-09
5.06038651565e-11
2.44801035285e-09
-5.57751277265e-09
1.66391770819e-11
2.44729398265e-09
-5.72879081879e-09
-1.91110284259e-11
2.44749777608e-09
-5.78130756313e-09
-5.3036627775e-11
2.44737846008e-09
-5.72872096164e-09
-8.12103522116e-11
2.44817774294e-09
-5.57737791996e-09
-9.96905469282e-11
2.44888267872e-09
-5.33383508338e-09
-1.04733911656e-10
2.44702377423e-09
-5.00705880437e-09
-9.27193896279e-11
2.43952269245e-09
-4.60998991466e-09
-6.04908605916e-11
2.42257748905e-09
-4.15842676073e-09
2.39153380755e-09
-3.66752440274e-09
-1.40166997685e-12
6.11446379779e-11
2.04850367033e-09
-3.55998318234e-09
-7.49449877084e-14
9.42648545061e-11
2.07106116205e-09
-4.06395450193e-09
1.06437371374e-10
2.0785108341e-09
-4.52623496368e-09
1.00999863972e-10
2.07923094687e-09
-4.93159995643e-09
8.16917718903e-11
2.07660542586e-09
-5.26434967596e-09
5.24213093857e-11
2.07321150535e-09
-5.51178487733e-09
1.72730424657e-11
2.07090105091e-09
-5.66509236966e-09
-1.97148635391e-11
2.07042911782e-09
-5.71801099081e-09
-5.48257491849e-11
2.07096562548e-09
-5.66502184906e-09
-8.4019320021e-11
2.07333897583e-09
-5.51164881264e-09
-1.03209980457e-10
2.07679259839e-09
-5.26415658709e-09
-1.084883738e-10
2.07947352656e-09
-4.93136191502e-09
-9.61150589441e-11
2.0788042739e-09
-4.5259666423e-09
-6.27557568173e-11
2.0713960502e-09
-4.06367164117e-09
2.04888253108e-09
-3.55970384787e-09
-1.4123510004e-12
6.21760083381e-11
1.71286074408e-09
-3.39357898936e-09
-7.14595507978e-14
9.64597328179e-11
1.72955899091e-09
-3.90719243174e-09
1.09291169683e-10
1.73085129243e-09
-4.377057316e-09
1.03890137282e-10
1.72811677851e-09
-4.78766485467e-09
8.40852027483e-11
1.72383935651e-09
-5.12365607855e-09
5.39809818117e-11
1.71980090969e-09
-5.37284775334e-09
1.78238621891e-11
1.71718548566e-09
-5.52675666202e-09
-2.02293566972e-11
1.71648786563e-09
-5.57954676851e-09
-5.63503598204e-11
1.71722784421e-09
-5.52668701064e-09
-8.63806940118e-11
1.71988383632e-09
-5.3727134304e-09
-1.06073095392e-10
1.72395961739e-09
-5.12346577183e-09
-1.1132205485e-10
1.72826977538e-09
-4.78743092791e-09
-9.82984471513e-11
1.73103238895e-09
-4.37679487e-09
-6.37845756148e-11
1.72975979746e-09
-3.90691744933e-09
1.71308550691e-09
-3.39330925266e-09
-1.41367482537e-12
6.26748398577e-11
1.39431898582e-09
-3.1724606905e-09
-6.78580269939e-14
9.88538886852e-11
1.40563026788e-09
-3.69346708071e-09
1.12744330092e-10
1.40374724752e-09
-4.16838208841e-09
1.07398633517e-10
1.40066407685e-09
-4.58139025003e-09
8.69641493117e-11
1.39719771896e-09
-4.91801712781e-09
5.58450156169e-11
1.39421675964e-09
-5.16692106619e-09
1.84788906354e-11
1.39230448847e-09
-5.32011185299e-09
-2.08455680355e-11
1.39173632296e-09
-5.372287252e-09
-5.81763303609e-11
1.39232223762e-09
-5.3200446758e-09
-8.92234742384e-11
1.39425073605e-09
-5.16679157069e-09
-1.09549065092e-10
1.39724489769e-09
-4.9178339322e-09
-1.14748373597e-10
1.40072016894e-09
-4.58116568425e-09
-1.006738338e-10
1.4038073074e-09
-4.16813137909e-09
-6.42735168265e-11
1.40568625691e-09
-3.69320637773e-09
1.39437582997e-09
-3.17220739289e-09
-1.40816890855e-12
6.21513282428e-11
-2.90154705141e-09
-6.38441079875e-14
1.10155486216e-09
1.03132550631e-10
-3.43008684172e-09
1.10316642009e-09
1.18418496653e-10
-3.90705013842e-09
1.10268564088e-09
1.12860380338e-10
-4.31928763136e-09
1.10190225759e-09
9.13772323823e-11
-4.65382222521e-09
1.10087264675e-09
5.86994659829e-11
-4.90038183906e-09
1.09999356301e-09
1.9477664078e-11
-5.05155775322e-09
1.09939995122e-09
-2.18045668529e-11
-5.1026490974e-09
1.09918619326e-09
-6.09909917989e-11
-5.05149471792e-09
1.0993906987e-09
-9.35973296051e-11
-4.9002603814e-09
1.09997391171e-09
-1.14973230755e-10
-4.65365064454e-09
1.10084038901e-09
-1.20388756317e-10
-4.31907782821e-09
1.10185397969e-09
-1.04925145498e-10
-3.90681705111e-09
1.10261728305e-09
-6.37324456398e-11
-3.4298461237e-09
1.10307057199e-09
-2.90131801193e-09
-1.39274425742e-12
1.10143018801e-09
6.25442182447e-12
-8.9976645466e-11
-3.89189231506e-10
-7.79501446518e-15
9.75700182353e-12
-1.00234578374e-10
-4.27846291497e-10
1.12776380933e-11
-1.10950934004e-10
-4.64181161818e-10
1.10311263717e-11
-1.20840937465e-10
-4.96683767272e-10
9.19391701988e-12
-1.29181729965e-10
-5.2377126347e-10
6.07635071323e-12
-1.35498315087e-10
-5.44159065547e-10
2.1150409609e-12
-1.39482317698e-10
-5.5701679251e-10
-2.14944683959e-12
-1.40900226962e-10
-5.61649454104e-10
-6.1087505303e-12
-1.39480576575e-10
-5.57011705669e-10
-9.22267871076e-12
-1.35495372844e-10
-5.44149052793e-10
-1.10555745641e-11
-1.29178423159e-10
-5.23756650372e-10
-1.12981139093e-11
-1.20837447814e-10
-4.96665056683e-10
-9.77190300434e-12
-1.10944843961e-10
-4.64159071078e-10
-6.26474599997e-12
-1.00230391911e-10
-4.27821941705e-10
-8.99733354413e-11
-3.89164614437e-10
-1.54487455705e-14
1.40311724168e-11
-2.03683159034e-10
-1.14189006131e-09
-1.99696940811e-14
2.26267220494e-11
-2.24267895799e-10
-1.25878993842e-09
2.64743116599e-11
-2.454652021e-10
-1.36884098051e-09
2.60066759875e-11
-2.64874982421e-10
-1.46734526172e-09
2.17067727166e-11
-2.81067430469e-10
-1.549497327e-09
1.43518417254e-11
-2.93211828792e-10
-1.6113684158e-09
4.99848774201e-12
-3.0082980878e-10
-1.65037000172e-09
-5.0690492705e-12
-3.03546751365e-10
-1.66436427641e-09
-1.4418224868e-11
-3.00827345403e-10
-1.6503550016e-09
-2.17655679507e-11
-2.9320733959e-10
-1.61133890087e-09
-2.60563710296e-11
-2.81062092004e-10
-1.5494543012e-09
-2.65148475878e-11
-2.64869059559e-10
-1.46729027503e-09
-2.26560965698e-11
-2.45455856711e-10
-1.368776248e-09
-1.40506651808e-11
-2.24260585987e-10
-1.25871880168e-09
-2.03678233386e-10
-1.14181785105e-09
-3.33217354971e-14
1.81704221479e-11
-2.97077966952e-10
-1.80108102318e-09
-2.87527438549e-14
2.97667457055e-11
-3.24137874145e-10
-1.98903686995e-09
3.50433944048e-11
-3.51569111669e-10
-2.16573018366e-09
3.44801454207e-11
-3.76487758994e-10
-2.32367544829e-09
2.87801769081e-11
-3.97088975196e-10
-2.45527758349e-09
1.90223067433e-11
-4.12412384091e-10
-2.5543231257e-09
6.62830886298e-12
-4.21975057374e-10
-2.61669207251e-09
-6.70438476472e-12
-4.25388198545e-10
-2.63900450831e-09
-1.90935138777e-11
-4.21973748788e-10
-2.61666768926e-09
-2.8842657591e-11
-4.12409591662e-10
-2.55427520627e-09
-3.45321681733e-11
-3.97085730382e-10
-2.45520784389e-09
-3.50846393076e-11
-3.76484172205e-10
-2.3235865241e-09
-2.97955522316e-11
-3.515626755e-10
-2.16562578898e-09
-1.81880823498e-11
-3.24133231393e-10
-1.98892235839e-09
-2.97077229861e-10
-1.80096450557e-09
-3.95173608955e-14
1.97766049096e-11
-3.69520432023e-10
-2.35443480515e-09
-3.46835168063e-14
3.2730471558e-11
-4.00205145776e-10
-2.60461830618e-09
3.87270560408e-11
-4.30674278219e-10
-2.83929415791e-09
3.81645574258e-11
-4.58009185924e-10
-3.048714706e-09
3.18611740839e-11
-4.80375408368e-10
-3.22299333835e-09
2.10560183107e-11
-4.96865196581e-10
-3.35403777224e-09
7.34347853819e-12
-5.07100871301e-10
-3.4364546372e-09
-7.40185980956e-12
-5.10757027762e-10
-3.46585363427e-09
-2.11098114163e-11
-5.07100562995e-10
-3.43642145687e-09
-3.19070751653e-11
-4.9686450166e-10
-3.3539726535e-09
-3.82010802462e-11
-4.80374955936e-10
-3.22289875035e-09
-3.87539558149e-11
-4.58009028541e-10
-3.04859441043e-09
-3.27466394209e-11
-4.30672869416e-10
-2.83915335147e-09
-1.97835913234e-11
-4.00206018946e-10
-2.60446413576e-09
-3.69525774504e-10
-2.35427754226e-09
-3.63457291007e-14
1.96332139951e-11
-4.2068221565e-10
-2.80759491449e-09
-3.82051402821e-14
3.27607487182e-11
-4.52728178951e-10
-3.11190212804e-09
3.89298263012e-11
-4.83722488099e-10
-3.39661040218e-09
3.84267604406e-11
-5.11050158959e-10
-3.65020021306e-09
3.20936453078e-11