/*--------------------------------*- C++ -*----------------------------------*\
  =========                 |
  \\      /  F ield         | OpenFOAM: The Open Source CFD Toolbox
   \\    /   O peration     | Website:  https://openfoam.org
    \\  /    A nd           | Version:  7
     \\/     M anipulation  |
\*---------------------------------------------------------------------------*/
FoamFile
{
    version     2.0;
    format      ascii;
    class       volScalarField;
    location    "1.18";
    object      p;
}
// * * * * * * * * * * * * * * * * * * * * * * * * * * * * * * * * * * * * * //

dimensions      [0 2 -2 0 0 0 0];

internalField   nonuniform List<scalar> 
22500
(
1.11279925632e-05
1.11256244409e-05
1.11253682488e-05
1.11247182293e-05
1.11243206705e-05
1.11240108883e-05
1.11238240156e-05
1.11237531789e-05
1.11238156044e-05
1.11239942914e-05
1.11242960997e-05
1.11246865101e-05
1.1125330094e-05
1.1125583124e-05
1.11279470742e-05
1.10925510815e-05
1.10883566518e-05
1.10865704378e-05
1.10845877628e-05
1.10831120665e-05
1.10820109836e-05
1.10813413835e-05
1.10811093849e-05
1.10813326278e-05
1.1081993689e-05
1.10830865231e-05
1.10845547336e-05
1.10865309054e-05
1.10883137735e-05
1.10925039099e-05
1.10582297738e-05
1.10523330629e-05
1.10492297321e-05
1.10460627348e-05
1.10436465915e-05
1.10418550219e-05
1.10407655062e-05
1.10403933062e-05
1.1040757047e-05
1.10418383132e-05
1.1043621967e-05
1.10460308854e-05
1.1049191636e-05
1.10522915515e-05
1.10581833382e-05
1.10275589709e-05
1.10202400667e-05
1.1016089e-05
1.10119960371e-05
1.10088472573e-05
1.10065222007e-05
1.10051093215e-05
1.10046294724e-05
1.10051013446e-05
1.10065064378e-05
1.10088240675e-05
1.10119660796e-05
1.10160531036e-05
1.10202008122e-05
1.10275141818e-05
1.09988604691e-05
1.09903103584e-05
1.09852722327e-05
1.09804280813e-05
1.09766829104e-05
1.09739284837e-05
1.09722562866e-05
1.09716904501e-05
1.09722487763e-05
1.0973913648e-05
1.09766611019e-05
1.09803999382e-05
1.09852384852e-05
1.09902733803e-05
1.09988176902e-05
1.09717768676e-05
1.09621897e-05
1.09564123283e-05
1.09509771128e-05
1.09467606401e-05
1.09436716274e-05
1.0941798149e-05
1.09411658451e-05
1.0941791107e-05
1.09436577085e-05
1.09467401953e-05
1.0950950739e-05
1.09563807481e-05
1.09621549181e-05
1.09717360568e-05
1.09464450158e-05
1.09360290607e-05
1.09296586606e-05
1.09237869452e-05
1.09192199179e-05
1.09158864596e-05
1.09138666608e-05
1.09131862725e-05
1.09138600517e-05
1.09158733961e-05
1.09192007372e-05
1.0923762208e-05
1.09296290754e-05
1.09359963762e-05
1.09464060183e-05
1.09228949016e-05
1.09118522587e-05
1.09050202199e-05
1.0898849803e-05
1.08940393756e-05
1.08905401313e-05
1.08884217893e-05
1.08877092407e-05
1.08884155701e-05
1.08905278439e-05
1.08940213296e-05
1.08988265332e-05
1.0904992425e-05
1.09118214074e-05
1.09228574634e-05
1.09010628386e-05
1.08895816782e-05
1.088240405e-05
1.08760542191e-05
1.0871092853e-05
1.08674943255e-05
1.08653176318e-05
1.086458627e-05
1.08653117465e-05
1.08674826963e-05
1.08710757728e-05
1.08760321734e-05
1.08823777522e-05
1.08895522932e-05
1.09010266262e-05
1.08808604212e-05
1.08691144759e-05
1.08616977899e-05
1.08552724483e-05
1.08502404191e-05
1.08465988799e-05
1.08443976783e-05
1.08436587024e-05
1.08443920631e-05
1.08465877803e-05
1.08502241044e-05
1.08552513686e-05
1.08616726431e-05
1.08690861462e-05
1.08808249559e-05
1.08621909146e-05
1.08503421852e-05
1.08427911794e-05
1.08363822233e-05
1.08313493884e-05
1.08277124374e-05
1.08255152062e-05
1.08247780429e-05
1.08255097945e-05
1.08277017334e-05
1.08313336314e-05
1.08363618148e-05
1.08427668055e-05
1.08503144514e-05
1.08621556654e-05
1.08449367099e-05
1.08331574689e-05
1.08255889678e-05
1.08192779434e-05
1.08143029807e-05
1.08107095506e-05
1.0808539711e-05
1.08078121198e-05
1.08085344421e-05
1.08106990987e-05
1.08142875582e-05
1.08192578926e-05
1.08255649445e-05
1.08331298259e-05
1.08449011707e-05
1.08289148944e-05
1.08174729761e-05
1.08100354177e-05
1.08038864869e-05
1.07990118288e-05
1.0795491182e-05
1.07933671202e-05
1.07926554662e-05
1.07933619183e-05
1.07954808657e-05
1.07989965189e-05
1.08038664622e-05
1.08100112717e-05
1.08174448561e-05
1.08288784499e-05
1.08140851476e-05
1.08033223971e-05
1.07961006857e-05
1.07901371613e-05
1.07853862142e-05
1.07819639962e-05
1.07799046389e-05
1.07792155183e-05
1.07798994641e-05
1.07819536844e-05
1.07853707994e-05
1.07901167855e-05
1.07960758913e-05
1.08032931123e-05
1.08140473844e-05
1.08018641493e-05
1.07904562998e-05
1.07834799032e-05
1.07776674309e-05
1.07730828846e-05
1.07698130246e-05
1.07678557964e-05
1.07672024193e-05
1.07678505711e-05
1.07698025909e-05
1.07730671722e-05
1.07776463885e-05
1.07834537101e-05
1.07904248948e-05
1.08018254355e-05
7.14209532686e-06
7.14311560554e-06
7.14388697311e-06
7.14459688932e-06
7.14519501261e-06
7.14564840442e-06
7.14593349318e-06
7.14603178143e-06
7.14593716497e-06
7.14565530379e-06
7.14520410163e-06
7.14460687959e-06
7.14389750744e-06
7.14312623567e-06
7.14210604523e-06
7.14626091287e-06
7.14743968961e-06
7.14837010042e-06
7.14922464563e-06
7.14994645881e-06
7.1504933934e-06
7.15083700433e-06
7.15095537166e-06
7.15084062001e-06
7.15050016038e-06
7.1499553294e-06
7.14923427123e-06
7.14837992136e-06
7.14744974845e-06
7.14627105104e-06
7.15117371836e-06
7.15268726308e-06
7.15389864279e-06
7.1550180249e-06
7.15596716264e-06
7.15668713651e-06
7.15713927401e-06
7.15729468932e-06
7.15714281498e-06
7.15669379825e-06
7.15597601401e-06
7.15502784671e-06
7.15390868956e-06
7.15269777132e-06
7.15118407833e-06
7.15718527152e-06
7.15928381704e-06
7.16095876188e-06
7.16250543903e-06
7.16381764387e-06
7.16481263446e-06
7.16543649098e-06
7.16565031793e-06
7.16543993486e-06
7.16481915962e-06
7.1638264597e-06
7.16251548687e-06
7.16096919059e-06
7.15929480016e-06
7.15719590634e-06
7.16480624938e-06
7.16772632437e-06
7.17002952434e-06
7.17214382011e-06
7.17393187508e-06
7.17528428251e-06
7.17612991136e-06
7.1764189247e-06
7.1761332453e-06
7.17529062358e-06
7.17394054345e-06
7.17215387735e-06
7.17004014075e-06
7.16773755408e-06
7.16481701937e-06
7.17406118081e-06
7.1779774118e-06
7.18101749028e-06
7.18378544091e-06
7.18611428461e-06
7.18786909671e-06
7.18896271342e-06
7.18933548659e-06
7.18896588081e-06
7.18787514365e-06
7.18612263104e-06
7.18379527086e-06
7.1810280094e-06
7.17798870344e-06
7.17407174628e-06
7.18473594394e-06
7.1897485722e-06
7.19357406854e-06
7.19702472893e-06
7.19991082155e-06
7.20207610473e-06
7.2034207913e-06
7.20387802934e-06
7.20342375624e-06
7.2020817843e-06
7.19991871289e-06
7.19703412962e-06
7.19358422473e-06
7.18975964513e-06
7.18474609175e-06
7.19653974222e-06
7.2026744984e-06
7.20728016449e-06
7.21139253756e-06
7.21481097189e-06
7.21736396329e-06
7.21894377125e-06
7.21947974331e-06
7.2189464961e-06
7.21736919576e-06
7.21481828577e-06
7.21140133181e-06
7.20728977569e-06
7.20268507257e-06
7.19654933843e-06
7.20916029814e-06
7.21637510355e-06
7.22171142277e-06
7.22642473646e-06
7.23031883278e-06
7.23321368575e-06
7.23499868495e-06
7.2356029816e-06
7.23500115562e-06
7.23321843607e-06
7.23032550026e-06
7.2264327976e-06
7.22172031569e-06
7.21638497477e-06
7.20916907343e-06
7.2222906768e-06
7.2304865338e-06
7.23646963705e-06
7.24169474894e-06
7.24598604497e-06
7.24916156923e-06
7.25111274583e-06
7.25177194945e-06
7.25111495748e-06
7.24916582506e-06
7.24599203361e-06
7.24170202172e-06
7.23647772054e-06
7.23049556941e-06
7.22229851227e-06
7.23564695544e-06
7.24467918202e-06
7.25119994413e-06
7.25683059586e-06
7.26142811071e-06
7.26481465366e-06
7.26688813104e-06
7.26758725404e-06
7.26689010306e-06
7.26481845069e-06
7.26143345542e-06
7.25683708434e-06
7.25120718174e-06
7.24468730308e-06
7.23565368727e-06
7.24896635753e-06
7.25865770346e-06
7.26559358935e-06
7.27151905488e-06
7.27632846499e-06
7.27985407055e-06
7.2820047702e-06
7.28272843475e-06
7.28200654672e-06
7.27985748137e-06
7.27633326784e-06
7.27152485952e-06
7.26560005197e-06
7.25866490307e-06
7.24897198148e-06
7.26199840998e-06
7.27217086882e-06
7.27940323261e-06
7.28551631844e-06
7.29044374752e-06
7.29403622756e-06
7.29621901041e-06
7.29695191864e-06
7.29622064426e-06
7.29403938916e-06
7.2904481697e-06
7.28552163867e-06
7.27940908758e-06
7.27217728921e-06
7.26200302792e-06
7.27470227254e-06
7.285206725e-06
7.29255359832e-06
7.29871280988e-06
7.30363252515e-06
7.30719700636e-06
7.30935397598e-06
7.31007663663e-06
7.30935554401e-06
7.30720002699e-06
7.30363676591e-06
7.29871784725e-06
7.29255909975e-06
7.28521248554e-06
7.27470612735e-06
7.2880621257e-06
7.29781801139e-06
7.30497856675e-06
7.31098178729e-06
7.31571173694e-06
7.31911533719e-06
7.32116700423e-06
7.32185308281e-06
7.32116851083e-06
7.31911828313e-06
7.31571588415e-06
7.3109867431e-06
7.30498381971e-06
7.29782319077e-06
7.28806564408e-06
8.12021106705e-06
8.11996699916e-06
8.11965628437e-06
8.11930512517e-06
8.11897551499e-06
8.11870873879e-06
8.11853538697e-06
8.11847453046e-06
8.11853369423e-06
8.11870560228e-06
8.11897142323e-06
8.11930044625e-06
8.11964974647e-06
8.11995959501e-06
8.12020164225e-06
8.12070144598e-06
8.12048266782e-06
8.12019265258e-06
8.11985981636e-06
8.11954401845e-06
8.11928671509e-06
8.11911870875e-06
8.11905951235e-06
8.11911692216e-06
8.11928338074e-06
8.11953962655e-06
8.11985472228e-06
8.12018588632e-06
8.12047477139e-06
8.12069170537e-06
8.12145237003e-06
8.12127059029e-06
8.12101539637e-06
8.12071162545e-06
8.12041844357e-06
8.12017720657e-06
8.12001874426e-06
8.11996272735e-06
8.12001701926e-06
8.12017396208e-06
8.1204140951e-06
8.12070647915e-06
8.12100875501e-06
8.12126275306e-06
8.12144271449e-06
8.12200069192e-06
8.1218361026e-06
8.1216001286e-06
8.12131235409e-06
8.12103178343e-06
8.1207996883e-06
8.12064678365e-06
8.12059268024e-06
8.12064516476e-06
8.12079661212e-06
8.12102756146e-06
8.1213072504e-06
8.12159367383e-06
8.12182855421e-06
8.12199110535e-06
8.12235752853e-06
8.12220322848e-06
8.12198115897e-06
8.12170702699e-06
8.12143871385e-06
8.12121638198e-06
8.12106976301e-06
8.12101786752e-06
8.12106822977e-06
8.12121345271e-06
8.12143463819e-06
8.12170202322e-06
8.12197486743e-06
8.12219596556e-06
8.12234804233e-06
8.12262307478e-06
8.1224880602e-06
8.12228715061e-06
8.12203599756e-06
8.12178930904e-06
8.12158460299e-06
8.1214494953e-06
8.12140163533e-06
8.12144804677e-06
8.12158181719e-06
8.12178537773e-06
8.12203110513e-06
8.12228104623e-06
8.1224809809e-06
8.12261378673e-06
8.1228727812e-06
8.1227756298e-06
8.12261023304e-06
8.12239711527e-06
8.12218592444e-06
8.12200988287e-06
8.12189338544e-06
8.1218520085e-06
8.12189200972e-06
8.12200722652e-06
8.1221821378e-06
8.12239234712e-06
8.12260431333e-06
8.12276873441e-06
8.12286363117e-06
8.12316298559e-06
8.12312716601e-06
8.12301428372e-06
8.12285553156e-06
8.12269424692e-06
8.12255797479e-06
8.12246709952e-06
8.12243460067e-06
8.12246578453e-06
8.12255542538e-06
8.12269057469e-06
8.12285085062e-06
8.12300848767e-06
8.12312041083e-06
8.12315389272e-06
8.12353637216e-06
8.12358563111e-06
8.1235413844e-06
8.12345120313e-06
8.12335189669e-06
8.12326442577e-06
8.12320475525e-06
8.12318302293e-06
8.1232034895e-06
8.12326196024e-06
8.1233483169e-06
8.12344658767e-06
8.12353565929e-06
8.1235789534e-06
8.12352730574e-06
8.12402104754e-06
8.12417503417e-06
8.12421184472e-06
8.12419992757e-06
8.12417039194e-06
8.12413730607e-06
8.1241121934e-06
8.12410234351e-06
8.12411096153e-06
8.1241348976e-06
8.12416686447e-06
8.12419532984e-06
8.12420612766e-06
8.12416834668e-06
8.12401195214e-06
8.1246301471e-06
8.12490102824e-06
8.12502571079e-06
8.12509608563e-06
8.12513907163e-06
8.12516208761e-06
8.1251724273e-06
8.12517474399e-06
8.12517122058e-06
8.12515972009e-06
8.12513558031e-06
8.12509148421e-06
8.12501997377e-06
8.12489429057e-06
8.12462097505e-06
8.12535973672e-06
8.12575111504e-06
8.12596492418e-06
8.12611655626e-06
8.12623039918e-06
8.12630791145e-06
8.12635257307e-06
8.12636663176e-06
8.12635138964e-06
8.12630557669e-06
8.12622693156e-06
8.12611194822e-06
8.12595915399e-06
8.12574433048e-06
8.12535052192e-06
8.12619200041e-06
8.12670307323e-06
8.12700275589e-06
8.12722939336e-06
8.12740822873e-06
8.12753578563e-06
8.12761189818e-06
8.12763675284e-06
8.127610738e-06
8.12753349187e-06
8.12740480971e-06
8.12722480013e-06
8.12699698303e-06
8.12669625295e-06
8.12618276164e-06
8.12717364965e-06
8.1277970028e-06
8.1281450352e-06
8.1284208676e-06
8.12864477235e-06
8.12880815885e-06
8.12890718567e-06
8.12893989684e-06
8.12890605194e-06
8.1288059349e-06
8.12864142132e-06
8.12841634576e-06
8.12813931103e-06
8.12779016124e-06
8.127164529e-06
8.12867298795e-06
8.12905542377e-06
8.12935963981e-06
8.12963135917e-06
8.12986115388e-06
8.13003280568e-06
8.1301379912e-06
8.13017297788e-06
8.13013688485e-06
8.13003061668e-06
8.12985787702e-06
8.12962689535e-06
8.12935390916e-06
8.12904839683e-06
8.12866397967e-06
6.51510536024e-06
6.51530939242e-06
6.51556335377e-06
6.51582209653e-06
6.51605629128e-06
6.5162407457e-06
6.51635871181e-06
6.51639974738e-06
6.51635984574e-06
6.51624278935e-06
6.51605871885e-06
6.51582391009e-06
6.51556404796e-06
6.5153080942e-06
6.5151036426e-06
6.51536527165e-06
6.51557163943e-06
6.51583087995e-06
6.51609489315e-06
6.51633507045e-06
6.51652486173e-06
6.51664656533e-06
6.51668899999e-06
6.51664779785e-06
6.51652708712e-06
6.5163377195e-06
6.51609692749e-06
6.51583156634e-06
6.51557039674e-06
6.51536313506e-06
6.51546072927e-06
6.51565767029e-06
6.51591056987e-06
6.51616881651e-06
6.5164057522e-06
6.51659373662e-06
6.51671463244e-06
6.51675681594e-06
6.51671574368e-06
6.51659573762e-06
6.51640811891e-06
6.51617065745e-06
6.51591108485e-06
6.51565659477e-06
6.51545850963e-06
6.51553071506e-06
6.51572026175e-06
6.51596844095e-06
6.51622072366e-06
6.51645357605e-06
6.51663881178e-06
6.51675816679e-06
6.51679980173e-06
6.51675910455e-06
6.51664048698e-06
6.51645552306e-06
6.51622219509e-06
6.51596871725e-06
6.51571915886e-06
6.51552844921e-06
6.51560776866e-06
6.51579142466e-06
6.51603681139e-06
6.51628330884e-06
6.51651165763e-06
6.51669361336e-06
6.51681098216e-06
6.51685191291e-06
6.51681176987e-06
6.51669500574e-06
6.51651325604e-06
6.51628445403e-06
6.51603691152e-06
6.5157902575e-06
6.51560545967e-06
6.51568035891e-06
6.5158580377e-06
6.51610169478e-06
6.5163420296e-06
6.51656525425e-06
6.51674327823e-06
6.51685819667e-06
6.51689824267e-06
6.51685882424e-06
6.51674437314e-06
6.51656646666e-06
6.51634281094e-06
6.51610152293e-06
6.51585684861e-06
6.51567785443e-06
6.51574397132e-06
6.51591688922e-06
6.51616038297e-06
6.5163952968e-06
6.51661379169e-06
6.51678811164e-06
6.51690067691e-06
6.51693986558e-06
6.51690115447e-06
6.51678893197e-06
6.51661465387e-06
6.51639575189e-06
6.5161599592e-06
6.51591565702e-06
6.51574133248e-06
6.51580320993e-06
6.51597479725e-06
6.5162209405e-06
6.51645272793e-06
6.51666813894e-06
6.5168399547e-06
6.51695086586e-06
6.51698943283e-06
6.51695119782e-06
6.51684050271e-06
6.51666865963e-06
6.51645285763e-06
6.51622030741e-06
6.51597349165e-06
6.51580053632e-06
6.51586620869e-06
6.51604194021e-06
6.51629453706e-06
6.51652645347e-06
6.51674120749e-06
6.51691227543e-06
6.51702257987e-06
6.51706087412e-06
6.51702278277e-06
6.51691258553e-06
6.51674143388e-06
6.51652630553e-06
6.51629373103e-06
6.51604058447e-06
6.5158634736e-06
6.51594187093e-06
6.51612902967e-06
6.51639205801e-06
6.51662748406e-06
6.51684398817e-06
6.51701596879e-06
6.51712663047e-06
6.51716496309e-06
6.5171267192e-06
6.51701607281e-06
6.51684395747e-06
6.51662710491e-06
6.51639111786e-06
6.5161276601e-06
6.51593911184e-06
6.51603895098e-06
6.51624570855e-06
6.51652231644e-06
6.51676377267e-06
6.51698360769e-06
6.51715750744e-06
6.51726904468e-06
6.51730758597e-06
6.51726904576e-06
6.5171574506e-06
6.51698338265e-06
6.51676320826e-06
6.51652126947e-06
6.51624430476e-06
6.51603613524e-06
6.51616273035e-06
6.51639757253e-06
6.51668977371e-06
6.51693860881e-06
6.51716241057e-06
6.51733844405e-06
6.51745089528e-06
6.51748962619e-06
6.51745083538e-06
6.51733827872e-06
6.51716204551e-06
6.51693792284e-06
6.51668865004e-06
6.51639612243e-06
6.51615982983e-06
6.51631416359e-06
6.51658606439e-06
6.51689487854e-06
6.51715122862e-06
6.51737895527e-06
6.51755694269e-06
6.51767001612e-06
6.51770885507e-06
6.51766992233e-06
6.51755670862e-06
6.5173785259e-06
6.51715046845e-06
6.51689371518e-06
6.51658456306e-06
6.5163111919e-06
6.5165366237e-06
6.51685231806e-06
6.51715941322e-06
6.51741240106e-06
6.517636623e-06
6.51781098153e-06
6.51792121653e-06
6.51795891044e-06
6.51792110166e-06
6.51781074217e-06
6.51763616652e-06
6.51741163964e-06
6.51715824196e-06
6.51685074362e-06
6.51653355729e-06
6.51715046064e-06
6.51733499496e-06
6.5175582166e-06
6.51775322079e-06
6.51793336229e-06
6.51807462192e-06
6.51816397793e-06
6.5181945312e-06
6.51816386348e-06
6.51807436357e-06
6.51793291681e-06
6.51775245644e-06
6.51755700881e-06
6.51733325018e-06
6.51714742998e-06
6.4332211554e-06
6.43312743362e-06
6.43302090721e-06
6.43290021598e-06
6.43278943223e-06
6.43269998134e-06
6.43264171359e-06
6.43262102425e-06
6.4326405834e-06
6.43269803414e-06
6.43278725573e-06
6.43289780105e-06
6.43301753407e-06
6.43312399372e-06
6.43321602637e-06
6.43336434662e-06
6.43327910089e-06
6.43317858098e-06
6.43306266104e-06
6.43295522539e-06
6.432867813e-06
6.43281062066e-06
6.43279024602e-06
6.43280946105e-06
6.43286579764e-06
6.43295291893e-06
6.43306013405e-06
6.43317516451e-06
6.43327533931e-06
6.43335902278e-06
6.43360292833e-06
6.43353034146e-06
6.43344176252e-06
6.43333491036e-06
6.43323426517e-06
6.43315137432e-06
6.43309681504e-06
6.43307731537e-06
6.4330956877e-06
6.43314937828e-06
6.43323188812e-06
6.43333226907e-06
6.43343839652e-06
6.4335265498e-06
6.43359773442e-06
6.43379957958e-06
6.43373315089e-06
6.43365235637e-06
6.43355067018e-06
6.4334537277e-06
6.43337309288e-06
6.43331980524e-06
6.43330073922e-06
6.43331872929e-06
6.4333711466e-06
6.43345129929e-06
6.43354794241e-06
6.43364904131e-06
6.4337294894e-06
6.43379449698e-06
6.43394613485e-06
6.43388092602e-06
6.43380441721e-06
6.43370485414e-06
6.43360933518e-06
6.43352942823e-06
6.43347649225e-06
6.43345755209e-06
6.43347546476e-06
6.43352754509e-06
6.43360692332e-06
6.4337021171e-06
6.43380116586e-06
6.43387744519e-06
6.43394116248e-06
6.43405828457e-06
6.43399208061e-06
6.4339181673e-06
6.43381952907e-06
6.43372466834e-06
6.43364508591e-06
6.43359231594e-06
6.43357345189e-06
6.4335913451e-06
6.43364328611e-06
6.43372230581e-06
6.43381682263e-06
6.43391501078e-06
6.43398867979e-06
6.43405351802e-06
6.43414564872e-06
6.43407765702e-06
6.43400611717e-06
6.43390847996e-06
6.43381459739e-06
6.43373580435e-06
6.43368355928e-06
6.43366490795e-06
6.43368264797e-06
6.43373410267e-06
6.43381232756e-06
6.43390585073e-06
6.43400309522e-06
6.43407436847e-06
6.43414103428e-06
6.43421529389e-06
6.4341463392e-06
6.43407815771e-06
6.43398270409e-06
6.43389107661e-06
6.4338142699e-06
6.43376338393e-06
6.43374524552e-06
6.43376253431e-06
6.4338126729e-06
6.43388891071e-06
6.43398015393e-06
6.43407523441e-06
6.4341431467e-06
6.4342107511e-06
6.43427477733e-06
6.43420730791e-06
6.43414450533e-06
6.43405341466e-06
6.43396616822e-06
6.43389319833e-06
6.43384491359e-06
6.43382772822e-06
6.43384412622e-06
6.43389170745e-06
6.43396411978e-06
6.43405096158e-06
6.43414167227e-06
6.43420419836e-06
6.43427030138e-06
6.43433215958e-06
6.43426998732e-06
6.43421525337e-06
6.43413133229e-06
6.43405111235e-06
6.43398422468e-06
6.43394004725e-06
6.43392433798e-06
6.43393931622e-06
6.43398283289e-06
6.43404916794e-06
6.43412895776e-06
6.43421247687e-06
6.43426690523e-06
6.43432773286e-06
6.43439511822e-06
6.4343428676e-06
6.43429902238e-06
6.43422518548e-06
6.43415477124e-06
6.43409634581e-06
6.43405784902e-06
6.43404417389e-06
6.43405716885e-06
6.4340950398e-06
6.43415292605e-06
6.43422288094e-06
6.43429629793e-06
6.43433979865e-06
6.43439072837e-06
6.43446931335e-06
6.43443187639e-06
6.43440134912e-06
6.43434021767e-06
6.43428233202e-06
6.43423469787e-06
6.43420346964e-06
6.43419236159e-06
6.43420283132e-06
6.43423346663e-06
6.43428055646e-06
6.43433797464e-06
6.43439865939e-06
6.43442883767e-06
6.43446499584e-06
6.43456001306e-06
6.43454131121e-06
6.43452506684e-06
6.43447833184e-06
6.4344352943e-06
6.43440067244e-06
6.43437813486e-06
6.43437013986e-06
6.43437753238e-06
6.43439948442e-06
6.43443359406e-06
6.43447611987e-06
6.4345224129e-06
6.43453829089e-06
6.43455577963e-06
6.43469542693e-06
6.43469594792e-06
6.43468347633e-06
6.43464642294e-06
6.43461643697e-06
6.43459374783e-06
6.43457940274e-06
6.43457426319e-06
6.43457881282e-06
6.43459261852e-06
6.43461475925e-06
6.43464426592e-06
6.43468083224e-06
6.43469293722e-06
6.43469132999e-06
6.43500053849e-06
6.43493684089e-06
6.43489207415e-06
6.4348451671e-06
6.43481461442e-06
6.4347939087e-06
6.43478144473e-06
6.43477709066e-06
6.43478086597e-06
6.43479276294e-06
6.43481294712e-06
6.43484295849e-06
6.43488936366e-06
6.43493365189e-06
6.43499651621e-06
5.55107097345e-06
5.55113697694e-06
5.5512178945e-06
5.55130134164e-06
5.5513773832e-06
5.55143766127e-06
5.55147657077e-06
5.55149050708e-06
5.55147805482e-06
5.55144042953e-06
5.55138102052e-06
5.55130527424e-06
5.55122172148e-06
5.55113988245e-06
5.55107406139e-06
5.55118104375e-06
5.55124865433e-06
5.55133218453e-06
5.55141794311e-06
5.55149637163e-06
5.55155870653e-06
5.5515990348e-06
5.55161350877e-06
5.55160059972e-06
5.55156162405e-06
5.55150019022e-06
5.5514220349e-06
5.55133603899e-06
5.55125163871e-06
5.55118380287e-06
5.55124281824e-06
5.55130882642e-06
5.55139171041e-06
5.55147666105e-06
5.5515548741e-06
5.55161718565e-06
5.55165756439e-06
5.55167203193e-06
5.5516590189e-06
5.55161990003e-06
5.55155843879e-06
5.55148053999e-06
5.55139536928e-06
5.55131191198e-06
5.55124548668e-06
5.55129272324e-06
5.5513580331e-06
5.55144071352e-06
5.55152495425e-06
5.55160282189e-06
5.5516649449e-06
5.55170522912e-06
5.55171961959e-06
5.55170653696e-06
5.55166738906e-06
5.55160604168e-06
5.55152849212e-06
5.5514441092e-06
5.55136101839e-06
5.55129534701e-06
5.55134348797e-06
5.55140886865e-06
5.55149206802e-06
5.55157589945e-06
5.55165350245e-06
5.55171543964e-06
5.55175559428e-06
5.55176990055e-06
5.55175677191e-06
5.5517176419e-06
5.55165642356e-06
5.55157913828e-06
5.55149526359e-06
5.55141173369e-06
5.55134604515e-06
5.55139317308e-06
5.5514586703e-06
5.55154278633e-06
5.55162605189e-06
5.5517031633e-06
5.5517646712e-06
5.55180452593e-06
5.55181868318e-06
5.55180557814e-06
5.55176664238e-06
5.55170578661e-06
5.55162898011e-06
5.55154570435e-06
5.55146144469e-06
5.55139551776e-06
5.55143980101e-06
5.55150557995e-06
5.55159067635e-06
5.55167318181e-06
5.55174952061e-06
5.55181032635e-06
5.55184968357e-06
5.55186362229e-06
5.55185061766e-06
5.55181208277e-06
5.55175187173e-06
5.5516758379e-06
5.55159334988e-06
5.55150825486e-06
5.5514419753e-06
5.55148325284e-06
5.55154967373e-06
5.55163577713e-06
5.55171738013e-06
5.55179266892e-06
5.55185252148e-06
5.55189119897e-06
5.55190485886e-06
5.55189202376e-06
5.55185407651e-06
5.55179476509e-06
5.55171977408e-06
5.55163823327e-06
5.55155221327e-06
5.55148533143e-06
5.55152419819e-06
5.5515917015e-06
5.55167890823e-06
5.55175949994e-06
5.55183351573e-06
5.55189221391e-06
5.55193006791e-06
5.55194340197e-06
5.55193079742e-06
5.5518935936e-06
5.55183539556e-06
5.55176167699e-06
5.5516811941e-06
5.55159413704e-06
5.55152614504e-06
5.55156356178e-06
5.55163300061e-06
5.55172142797e-06
5.55180089663e-06
5.5518734277e-06
5.55193077834e-06
5.55196768738e-06
5.55198065132e-06
5.55196833315e-06
5.55193200873e-06
5.55187511636e-06
5.55180288914e-06
5.55172357111e-06
5.55163535637e-06
5.55156540871e-06
5.55160290499e-06
5.55167550034e-06
5.55176515076e-06
5.55184330007e-06
5.55191407349e-06
5.55196988793e-06
5.55200571953e-06
5.55201827982e-06
5.55200629999e-06
5.55197099653e-06
5.55191561594e-06
5.55184514015e-06
5.55176717791e-06
5.55167776726e-06
5.55160461894e-06
5.55164348496e-06
5.55172092334e-06
5.55181174276e-06
5.55188832788e-06
5.55195715441e-06
5.55201127408e-06
5.55204596179e-06
5.55205808179e-06
5.55204648942e-06
5.55201229513e-06
5.55195856985e-06
5.55189005359e-06
5.55181366681e-06
5.55172308975e-06
5.55164504393e-06
5.55168651562e-06
5.55177083499e-06
5.55186264468e-06
5.55193746976e-06
5.55200434153e-06
5.55205691228e-06
5.55209047535e-06
5.55210220929e-06
5.55209097055e-06
5.55205784657e-06
5.55200568397e-06
5.55193908222e-06
5.55186448173e-06
5.55177288856e-06
5.55168792354e-06
5.55175054604e-06
5.55184312486e-06
5.55192893097e-06
5.55199803009e-06
5.55206062088e-06
5.55210983638e-06
5.55214125231e-06
5.55215217283e-06
5.55214170572e-06
5.55211073887e-06
5.55206187e-06
5.55199958573e-06
5.55193066891e-06
5.55184504652e-06
5.55175174466e-06
5.55195553006e-06
5.55199673985e-06
5.55204530763e-06
5.55208818228e-06
5.55213089053e-06
5.55216529827e-06
5.55218737123e-06
5.55219511298e-06
5.55218780651e-06
5.55216613057e-06
5.55213208831e-06
5.55208963566e-06
5.55204694439e-06
5.55199847223e-06
5.55195669079e-06
5.12800087813e-06
5.12797856333e-06
5.12795465229e-06
5.12792573895e-06
5.12789841059e-06
5.12787582197e-06
5.12786106758e-06
5.12785584593e-06
5.12786085347e-06
5.12787544242e-06
5.12789795552e-06
5.12792551905e-06
5.12795497255e-06
5.12797973426e-06
5.12800088255e-06
5.12807342488e-06
5.12805455892e-06
5.12803320269e-06
5.12800638497e-06
5.12798060544e-06
5.1279590497e-06
5.12794485855e-06
5.12793980624e-06
5.12794461978e-06
5.12795862095e-06
5.12798009886e-06
5.1280061145e-06
5.12803349431e-06
5.12805556627e-06
5.12807339296e-06
5.12816906248e-06
5.12815433267e-06
5.12813665668e-06
5.12811261589e-06
5.12808898512e-06
5.128068908e-06
5.12805556995e-06
5.12805079709e-06
5.12805534144e-06
5.1280685069e-06
5.12808853184e-06
5.12811239249e-06
5.12813697934e-06
5.12815519482e-06
5.12816906773e-06
5.12824640079e-06
5.12823341374e-06
5.12821800695e-06
5.12819525893e-06
5.12817263082e-06
5.12815319648e-06
5.12814020202e-06
5.12813554397e-06
5.12814000001e-06
5.12815285829e-06
5.12817228945e-06
5.12819516309e-06
5.12821839542e-06
5.1282342915e-06
5.12824640021e-06
5.12830554266e-06
5.12829266049e-06
5.1282784113e-06
5.12825594036e-06
5.1282335101e-06
5.12821413974e-06
5.12820114673e-06
5.12819649358e-06
5.12820098067e-06
5.12821387611e-06
5.12823328355e-06
5.12825597515e-06
5.1282788716e-06
5.12829360824e-06
5.12830557584e-06
5.12835188893e-06
5.12833842955e-06
5.12832467723e-06
5.12830203047e-06
5.12827946047e-06
5.12825994635e-06
5.12824684368e-06
5.12824216485e-06
5.12824672379e-06
5.12825977541e-06
5.12827937166e-06
5.12830221935e-06
5.12832524214e-06
5.12833938258e-06
5.12835204135e-06
5.12838861823e-06
5.12837419683e-06
5.12836076268e-06
5.12833787002e-06
5.12831512098e-06
5.12829548114e-06
5.12828230048e-06
5.1282776138e-06
5.12828222999e-06
5.12829540574e-06
5.12831516246e-06
5.12833819356e-06
5.12836143658e-06
5.12837516847e-06
5.12838883639e-06
5.12841802953e-06
5.12840273538e-06
5.12838977874e-06
5.12836683302e-06
5.12834411997e-06
5.12832457568e-06
5.12831148007e-06
5.12830684554e-06
5.12831146064e-06
5.12832459666e-06
5.12834428532e-06
5.12836726854e-06
5.12839051576e-06
5.12840370771e-06
5.12841822283e-06
5.12844240704e-06
5.12842686373e-06
5.12841479886e-06
5.12839226543e-06
5.1283700296e-06
5.12835096779e-06
5.12833822376e-06
5.12833373324e-06
5.12833824891e-06
5.1283510687e-06
5.12837028943e-06
5.12839277568e-06
5.12841555688e-06
5.1284278056e-06
5.12844256017e-06
5.12846417684e-06
5.12844941076e-06
5.12843880885e-06
5.12841730898e-06
5.12839612556e-06
5.1283780554e-06
5.12836600703e-06
5.12836178261e-06
5.12836606717e-06
5.12837821579e-06
5.12839644878e-06
5.12841784657e-06
5.12843953568e-06
5.12845026109e-06
5.12846424876e-06
5.12848560368e-06
5.12847290042e-06
5.12846439032e-06
5.128444586e-06
5.12842510714e-06
5.12840860024e-06
5.12839764002e-06
5.12839381466e-06
5.12839771944e-06
5.128408793e-06
5.12842545169e-06
5.12844510785e-06
5.12846505194e-06
5.12847363342e-06
5.12848557431e-06
5.12850827975e-06
5.12849912699e-06
5.12849329286e-06
5.12847582169e-06
5.1284587548e-06
5.12844446914e-06
5.12843504293e-06
5.12843177197e-06
5.12843512831e-06
5.12844465837e-06
5.12845908403e-06
5.12847628467e-06
5.12849385026e-06
5.12849974006e-06
5.12850816257e-06
5.12853373089e-06
5.12852955215e-06
5.12852662868e-06
5.12851193579e-06
5.12849805178e-06
5.12848672094e-06
5.12847935457e-06
5.12847681158e-06
5.12847942392e-06
5.12848688918e-06
5.12849832196e-06
5.1285123085e-06
5.12852706314e-06
5.12853002711e-06
5.12853352876e-06
5.12857353439e-06
5.12857472911e-06
5.12857040168e-06
5.12855653043e-06
5.12854504783e-06
5.12853632129e-06
5.12853080701e-06
5.12852893044e-06
5.12853085071e-06
5.12853642917e-06
5.12854523506e-06
5.12855677449e-06
5.1285706807e-06
5.12857503756e-06
5.12857324917e-06
5.1286859204e-06
5.12865602724e-06
5.12863462568e-06
5.12861268483e-06
5.12859745136e-06
5.12858680061e-06
5.12858036087e-06
5.12857819014e-06
5.12858035569e-06
5.1285868118e-06
5.12859749031e-06
5.12861273381e-06
5.12863467385e-06
5.1286560727e-06
5.12868553725e-06
4.51676240829e-06
4.51677592973e-06
4.51679453838e-06
4.51681419125e-06
4.51683260984e-06
4.5168473808e-06
4.5168569923e-06
4.51686058608e-06
4.51685786934e-06
4.51684912731e-06
4.51683519761e-06
4.51681737564e-06
4.51679793645e-06
4.5167787204e-06
4.5167649667e-06
4.51680978913e-06
4.51682443158e-06
4.51684451315e-06
4.5168653593e-06
4.51688489382e-06
4.51690056068e-06
4.51691076317e-06
4.5169145783e-06
4.51691168069e-06
4.51690238539e-06
4.51688759122e-06
4.51686867688e-06
4.5168480197e-06
4.51682740499e-06
4.51681216006e-06
4.5168539288e-06
4.51686957354e-06
4.51689096212e-06
4.51691261484e-06
4.51693291064e-06
4.51694914061e-06
4.51695971519e-06
4.51696365e-06
4.51696060276e-06
4.51695090119e-06
4.51693549381e-06
4.51691580867e-06
4.51689433732e-06
4.5168726312e-06
4.51685629231e-06
4.51689166014e-06
4.51690823355e-06
4.51693070589e-06
4.51695297019e-06
4.51697377876e-06
4.51699036739e-06
4.51700117127e-06
4.51700517085e-06
4.51700201365e-06
4.51699203371e-06
4.51697621058e-06
4.51695599547e-06
4.51693396806e-06
4.51691129698e-06
4.51689413515e-06
4.51692575237e-06
4.51694309129e-06
4.51696656857e-06