/*--------------------------------*- C++ -*----------------------------------*\
  =========                 |
  \\      /  F ield         | OpenFOAM: The Open Source CFD Toolbox
   \\    /   O peration     | Website:  https://openfoam.org
    \\  /    A nd           | Version:  7
     \\/     M anipulation  |
\*---------------------------------------------------------------------------*/
FoamFile
{
    version     2.0;
    format      ascii;
    class       volScalarField;
    location    "1.2";
    object      p;
}
// * * * * * * * * * * * * * * * * * * * * * * * * * * * * * * * * * * * * * //

dimensions      [0 2 -2 0 0 0 0];

internalField   nonuniform List<scalar> 
22500
(
-1.14979215225e-05
-1.14973899429e-05
-1.14975681803e-05
-1.14974415863e-05
-1.14974096008e-05
-1.1497382184e-05
-1.1497372532e-05
-1.14973676527e-05
-1.14973764037e-05
-1.14973898383e-05
-1.14974208101e-05
-1.1497456396e-05
-1.14975865062e-05
-1.14974120077e-05
-1.14979500064e-05
-1.14926021158e-05
-1.14917212974e-05
-1.1491671761e-05
-1.14913333915e-05
-1.14911217235e-05
-1.14909576951e-05
-1.14908630496e-05
-1.14908303598e-05
-1.14908670905e-05
-1.14909656896e-05
-1.14911334804e-05
-1.14913489089e-05
-1.1491691149e-05
-1.1491744771e-05
-1.14926323772e-05
-1.14869653062e-05
-1.1485713429e-05
-1.14853817232e-05
-1.14847799772e-05
-1.14843534305e-05
-1.14840248814e-05
-1.14838279196e-05
-1.14837611564e-05
-1.14838323993e-05
-1.14840337671e-05
-1.14843665576e-05
-1.14847972814e-05
-1.14854033324e-05
-1.14857393256e-05
-1.14869980559e-05
-1.14810553865e-05
-1.14793957538e-05
-1.14786826092e-05
-1.1477746467e-05
-1.14770423664e-05
-1.14765030955e-05
-1.14761745675e-05
-1.14760635867e-05
-1.14761794866e-05
-1.14765128698e-05
-1.14770568578e-05
-1.1477765571e-05
-1.14787063802e-05
-1.14794240121e-05
-1.14810903896e-05
-1.14744217445e-05
-1.14722641038e-05
-1.14710446295e-05
-1.1469679363e-05
-1.14686131035e-05
-1.14678003456e-05
-1.14673007826e-05
-1.14671320996e-05
-1.14673061164e-05
-1.14678109574e-05
-1.14686288623e-05
-1.14697001383e-05
-1.14710703956e-05
-1.14722945868e-05
-1.14744588723e-05
-1.1466876151e-05
-1.14641029851e-05
-1.14622558654e-05
-1.14603648407e-05
-1.14588513702e-05
-1.14577018027e-05
-1.14569916046e-05
-1.14567517307e-05
-1.14569973632e-05
-1.14577132633e-05
-1.14588683987e-05
-1.14603872712e-05
-1.14622836084e-05
-1.1464135631e-05
-1.14669152526e-05
-1.1458366148e-05
-1.14548488119e-05
-1.14522666186e-05
-1.14497623173e-05
-1.14477259338e-05
-1.14461832473e-05
-1.14452274696e-05
-1.14449045319e-05
-1.14452336752e-05
-1.14461955963e-05
-1.14477442711e-05
-1.144978643e-05
-1.14522963254e-05
-1.14548836443e-05
-1.14584071488e-05
-1.14488843332e-05
-1.14444962051e-05
-1.14410909112e-05
-1.14379027184e-05
-1.1435283761e-05
-1.1433303885e-05
-1.14320755451e-05
-1.14316604271e-05
-1.14320822205e-05
-1.14333171625e-05
-1.14353034494e-05
-1.14379285462e-05
-1.14411225894e-05
-1.1444533209e-05
-1.14489271505e-05
-1.14384579633e-05
-1.14330893364e-05
-1.14287981797e-05
-1.14248796124e-05
-1.14216404905e-05
-1.14191962644e-05
-1.14176792732e-05
-1.14171666133e-05
-1.14176864388e-05
-1.14192105037e-05
-1.14216615692e-05
-1.14249071828e-05
-1.14288318366e-05
-1.14331284864e-05
-1.14385026312e-05
-1.14271500321e-05
-1.14207217794e-05
-1.14155127824e-05
-1.14108473104e-05
-1.14069770612e-05
-1.14040617202e-05
-1.14022530584e-05
-1.14016419984e-05
-1.1402260722e-05
-1.14040769336e-05
-1.14069995407e-05
-1.14108766314e-05
-1.14155484127e-05
-1.14207630606e-05
-1.14271965204e-05
-1.14150544209e-05
-1.14075289925e-05
-1.14014076899e-05
-1.13960129604e-05
-1.13915297058e-05
-1.13881586971e-05
-1.13860695234e-05
-1.13853640985e-05
-1.13860776763e-05
-1.13881748686e-05
-1.13915535648e-05
-1.13960440081e-05
-1.1401445278e-05
-1.14075723872e-05
-1.14151028482e-05
-1.14022509998e-05
-1.13936677132e-05
-1.13866980803e-05
-1.13806301465e-05
-1.13755814768e-05
-1.13717927336e-05
-1.13694486456e-05
-1.13686578794e-05
-1.13694572619e-05
-1.13718098073e-05
-1.13756066423e-05
-1.13806628492e-05
-1.13867375749e-05
-1.13937132061e-05
-1.14023015072e-05
-1.13887177734e-05
-1.1379321772e-05
-1.13716534941e-05
-1.13650007514e-05
-1.13594599621e-05
-1.13553140963e-05
-1.13527560145e-05
-1.13518943912e-05
-1.13527650262e-05
-1.13553319495e-05
-1.13594862873e-05
-1.13650349462e-05
-1.13716947614e-05
-1.13793692397e-05
-1.13887703203e-05
-1.13748130369e-05
-1.13649090165e-05
-1.13566115908e-05
-1.1349432734e-05
-1.13434775423e-05
-1.13390532551e-05
-1.13363371513e-05
-1.13354244952e-05
-1.1336346444e-05
-1.13390716932e-05
-1.1343504722e-05
-1.13494681099e-05
-1.13566543689e-05
-1.13649583575e-05
-1.13748673601e-05
-1.13634464868e-05
-1.1350980705e-05
-1.13418658513e-05
-1.13340622192e-05
-1.13277212151e-05
-1.13230774316e-05
-1.1320249133e-05
-1.13193022637e-05
-1.13202586116e-05
-1.13230962397e-05
-1.13277490208e-05
-1.1334098507e-05
-1.13419099637e-05
-1.13510320354e-05
-1.13635025576e-05
-1.23295268989e-05
-1.23292380159e-05
-1.23288638367e-05
-1.23285486317e-05
-1.23282732078e-05
-1.23280657156e-05
-1.23279352628e-05
-1.23278902578e-05
-1.23279332662e-05
-1.23280618622e-05
-1.23282677319e-05
-1.23285413299e-05
-1.23288547712e-05
-1.23292265126e-05
-1.23295124379e-05
-1.23277129671e-05
-1.23274313739e-05
-1.23270570647e-05
-1.23267481335e-05
-1.23264800625e-05
-1.23262793829e-05
-1.23261537488e-05
-1.23261104851e-05
-1.23261519387e-05
-1.23262759075e-05
-1.23264751361e-05
-1.23267415915e-05
-1.23270486825e-05
-1.23274204454e-05
-1.2327698768e-05
-1.23267757382e-05
-1.23265975365e-05
-1.23263038935e-05
-1.23260753201e-05
-1.23258741011e-05
-1.23257243485e-05
-1.23256304632e-05
-1.23255979321e-05
-1.23256285252e-05
-1.23257205918e-05
-1.23258687075e-05
-1.23260682184e-05
-1.23262948519e-05
-1.23265860574e-05
-1.23267611053e-05
-1.2326899113e-05
-1.23268803192e-05
-1.23267110783e-05
-1.23265983009e-05
-1.23264904234e-05
-1.23264093163e-05
-1.23263572603e-05
-1.23263387148e-05
-1.23263551899e-05
-1.23264052643e-05
-1.23264845488e-05
-1.23265906173e-05
-1.23267014466e-05
-1.23268683704e-05
-1.23268842232e-05
-1.23276034614e-05
-1.23277290507e-05
-1.23276666763e-05
-1.23276465204e-05
-1.23276092749e-05
-1.23275772819e-05
-1.23275539847e-05
-1.23275448381e-05
-1.23275518514e-05
-1.23275730811e-05
-1.23276031515e-05
-1.23276385273e-05
-1.2327656761e-05
-1.23277169364e-05
-1.23275885424e-05
-1.23285091846e-05
-1.23287154401e-05
-1.23287044484e-05
-1.23287194354e-05
-1.23287026151e-05
-1.23286803217e-05
-1.23286607483e-05
-1.23286524304e-05
-1.23286586117e-05
-1.23286760971e-05
-1.23286964218e-05
-1.23287113651e-05
-1.23286944857e-05
-1.23287034628e-05
-1.23284945094e-05
-1.2329354764e-05
-1.23295532275e-05
-1.23295231241e-05
-1.2329504855e-05
-1.23294511622e-05
-1.23293952001e-05
-1.23293524223e-05
-1.23293358218e-05
-1.232935032e-05
-1.2329391032e-05
-1.232944503e-05
-1.23294968697e-05
-1.23295133068e-05
-1.2329541531e-05
-1.23293405513e-05
-1.23299579618e-05
-1.23300555661e-05
-1.23299380907e-05
-1.23298236661e-05
-1.23296823579e-05
-1.2329555546e-05
-1.23294669848e-05
-1.23294345511e-05
-1.23294649505e-05
-1.23295515025e-05
-1.23296763908e-05
-1.23298158891e-05
-1.23299285699e-05
-1.23300443177e-05
-1.23299444308e-05
-1.23302091997e-05
-1.23301238388e-05
-1.23298633761e-05
-1.23296046035e-05
-1.23293384898e-05
-1.23291146521e-05
-1.23289648574e-05
-1.23289115091e-05
-1.23289629098e-05
-1.23291107755e-05
-1.23293327581e-05
-1.23295971339e-05
-1.2329854256e-05
-1.23301131526e-05
-1.23301964627e-05
-1.23300626204e-05
-1.23297326229e-05
-1.23292905354e-05
-1.23288569115e-05
-1.23284440265e-05
-1.23281088295e-05
-1.23278898265e-05
-1.23278130375e-05
-1.23278879811e-05
-1.23281051521e-05
-1.23284385815e-05
-1.232884981e-05
-1.23292818898e-05
-1.23297225637e-05
-1.23300508382e-05
-1.2329520577e-05
-1.2328908551e-05
-1.23282631164e-05
-1.23276405761e-05
-1.23270728042e-05
-1.23266224794e-05
-1.23263328934e-05
-1.23262323738e-05
-1.2326331159e-05
-1.23266190204e-05
-1.23270676773e-05
-1.23276338856e-05
-1.23282549822e-05
-1.23288991311e-05
-1.23295097662e-05
-1.23286219771e-05
-1.2327712605e-05
-1.23268551376e-05
-1.23260423188e-05
-1.23253226401e-05
-1.23247619753e-05
-1.23244057673e-05
-1.23242830485e-05
-1.23244041468e-05
-1.23247587483e-05
-1.23253178504e-05
-1.232603606e-05
-1.23268475265e-05
-1.23277038017e-05
-1.23286120585e-05
-1.23274400463e-05
-1.23262244679e-05
-1.23251512531e-05
-1.23241560245e-05
-1.23232966739e-05
-1.23226376601e-05
-1.23222233399e-05
-1.23220814156e-05
-1.23222218448e-05
-1.23226346764e-05
-1.23232922314e-05
-1.23241502087e-05
-1.23251441651e-05
-1.23262162746e-05
-1.23274309974e-05
-1.23260160652e-05
-1.2324481273e-05
-1.23232109196e-05
-1.23220585441e-05
-1.23210877593e-05
-1.23203539042e-05
-1.23198965346e-05
-1.23197407509e-05
-1.23198951714e-05
-1.23203511746e-05
-1.23210837107e-05
-1.23220532153e-05
-1.23232043633e-05
-1.23244736462e-05
-1.23260079199e-05
-1.23240174964e-05
-1.232249959e-05
-1.23210930591e-05
-1.23198421254e-05
-1.23188125293e-05
-1.23180432461e-05
-1.23175673488e-05
-1.2317405862e-05
-1.23175661233e-05
-1.23180407789e-05
-1.23188088412e-05
-1.23198372412e-05
-1.23210870028e-05
-1.23224923328e-05
-1.23240099055e-05
-1.05422165364e-05
-1.05423978311e-05
-1.05425899341e-05
-1.05427758839e-05
-1.05429392695e-05
-1.05430656703e-05
-1.05431456307e-05
-1.0543173011e-05
-1.05431452561e-05
-1.0543064887e-05
-1.05429380258e-05
-1.0542774222e-05
-1.05425876437e-05
-1.0542395012e-05
-1.05422134795e-05
-1.05424736621e-05
-1.05426531074e-05
-1.05428477064e-05
-1.05430362903e-05
-1.05432024213e-05
-1.05433311818e-05
-1.05434127345e-05
-1.05434406789e-05
-1.05434122456e-05
-1.05433301697e-05
-1.05432008438e-05
-1.05430341834e-05
-1.05428449731e-05
-1.05426498749e-05
-1.05424703145e-05
-1.05424611489e-05
-1.0542618477e-05
-1.05427951346e-05
-1.05429686085e-05
-1.05431231168e-05
-1.05432436308e-05
-1.05433202759e-05
-1.05433466027e-05
-1.05433197916e-05
-1.054324264e-05
-1.05431215883e-05
-1.05429665634e-05
-1.05427924942e-05
-1.0542615334e-05
-1.05424578224e-05
-1.05423777586e-05
-1.05425149567e-05
-1.05426744704e-05
-1.05428328405e-05
-1.05429756292e-05
-1.05430878235e-05
-1.05431595185e-05
-1.05431842072e-05
-1.05431590519e-05
-1.05430868804e-05
-1.05429741855e-05
-1.05428308937e-05
-1.05426719495e-05
-1.05425119209e-05
-1.0542374437e-05
-1.05422942482e-05
-1.05424169265e-05
-1.05425638804e-05
-1.05427106739e-05
-1.05428444428e-05
-1.05429502525e-05
-1.05430181624e-05
-1.05430416027e-05
-1.05430177097e-05
-1.05429493439e-05
-1.05428430591e-05
-1.05427087962e-05
-1.05425614395e-05
-1.05424139509e-05
-1.05422909319e-05
-1.0542213226e-05
-1.05423258861e-05
-1.05424638277e-05
-1.05426019498e-05
-1.0542728862e-05
-1.05428297946e-05
-1.05428948068e-05
-1.05429172871e-05
-1.05428943635e-05
-1.05428289096e-05
-1.05427275189e-05
-1.0542600117e-05
-1.05424614393e-05
-1.05423229442e-05
-1.05422098899e-05
-1.05421348923e-05
-1.0542241594e-05
-1.05423734726e-05
-1.05425054362e-05
-1.05426273178e-05
-1.05427246075e-05
-1.05427874259e-05
-1.05428091726e-05
-1.05427869976e-05
-1.05427237542e-05
-1.05426260225e-05
-1.05425036583e-05
-1.05423711396e-05
-1.05422387033e-05
-1.05421315511e-05
-1.05420623614e-05
-1.05421668736e-05
-1.05422951674e-05
-1.05424231561e-05
-1.05425415262e-05
-1.05426361571e-05
-1.05426973136e-05
-1.05427184941e-05
-1.05426969019e-05
-1.05426353365e-05
-1.054254028e-05
-1.05424214367e-05
-1.05422928993e-05
-1.05421640319e-05
-1.05420590148e-05
-1.05419973457e-05
-1.05421028259e-05
-1.05422294474e-05
-1.05423551334e-05
-1.05424710708e-05
-1.05425636759e-05
-1.05426234817e-05
-1.05426441848e-05
-1.05426230925e-05
-1.05425628986e-05
-1.05424698848e-05
-1.05423534848e-05
-1.05422272574e-05
-1.05421000445e-05
-1.05419940121e-05
-1.05419396692e-05
-1.05420484667e-05
-1.05421747366e-05
-1.05422992374e-05
-1.05424133461e-05
-1.05425041796e-05
-1.05425627018e-05
-1.05425829317e-05
-1.05425623395e-05
-1.05425034531e-05
-1.05424122307e-05
-1.05422976743e-05
-1.0542172641e-05
-1.05420457681e-05
-1.05419363307e-05
-1.05418879798e-05
-1.05420016485e-05
-1.05421284139e-05
-1.05422523637e-05
-1.05423648003e-05
-1.05424537518e-05
-1.05425108247e-05
-1.0542530507e-05
-1.0542510495e-05
-1.05424530872e-05
-1.05423637697e-05
-1.05422509037e-05
-1.05421264348e-05
-1.05419990625e-05
-1.0541884672e-05
-1.05418393391e-05
-1.05419592183e-05
-1.05420873921e-05
-1.05422112461e-05
-1.05423218844e-05
-1.05424085789e-05
-1.05424638649e-05
-1.05424828626e-05
-1.05424635749e-05
-1.05424079863e-05
-1.05423209541e-05
-1.05422099098e-05
-1.05420855567e-05
-1.05419567858e-05
-1.0541836124e-05
-1.05417860534e-05
-1.05419157642e-05
-1.05420477951e-05
-1.05421725041e-05
-1.05422814332e-05
-1.05423656451e-05
-1.05424188656e-05
-1.05424370931e-05
-1.0542418617e-05
-1.05423651314e-05
-1.05422806195e-05
-1.05421713117e-05
-1.0542046129e-05
-1.05419135127e-05
-1.05417829722e-05
-1.05417282163e-05
-1.05418741244e-05
-1.05420097429e-05
-1.05421348528e-05
-1.05422412206e-05
-1.05423222281e-05
-1.05423730079e-05
-1.05423902751e-05
-1.05423728039e-05
-1.05423218055e-05
-1.05422405232e-05
-1.05421338144e-05
-1.05420082725e-05
-1.05418720955e-05
-1.05417252791e-05
-1.05417938978e-05
-1.05418914529e-05
-1.05420094214e-05
-1.05421164472e-05
-1.05422061253e-05
-1.0542274086e-05
-1.05423165073e-05
-1.05423309223e-05
-1.05423163485e-05
-1.05422737544e-05
-1.05422055717e-05
-1.05421155988e-05
-1.05420081777e-05
-1.05418897329e-05
-1.05417912952e-05
-1.08627439532e-05
-1.08626154861e-05
-1.08624827294e-05
-1.08623519071e-05
-1.08622371658e-05
-1.08621482687e-05
-1.08620920357e-05
-1.08620727882e-05
-1.08620923937e-05
-1.08621490234e-05
-1.08622383662e-05
-1.08623534141e-05
-1.08624846113e-05
-1.08626173736e-05
-1.08627454609e-05
-1.08626536142e-05
-1.0862528597e-05
-1.0862396133e-05
-1.08622650132e-05
-1.08621495779e-05
-1.08620598815e-05
-1.08620030453e-05
-1.08619835838e-05
-1.08620035189e-05
-1.08620608648e-05
-1.08621511028e-05
-1.08622669552e-05
-1.08623984458e-05
-1.08625308957e-05
-1.08626554476e-05
-1.08627494483e-05
-1.08626410102e-05
-1.08625226951e-05
-1.08624031041e-05
-1.08622966013e-05
-1.08622132027e-05
-1.08621601137e-05
-1.08621418844e-05
-1.08621605731e-05
-1.08622141462e-05
-1.08622980467e-05
-1.08624049545e-05
-1.08625248906e-05
-1.08626432101e-05
-1.08627512798e-05
-1.0862862772e-05
-1.08627675292e-05
-1.0862661365e-05
-1.08625521044e-05
-1.08624536942e-05
-1.08623760329e-05
-1.08623263616e-05
-1.08623092594e-05
-1.08623267863e-05
-1.08623768957e-05
-1.08624550072e-05
-1.08625538e-05
-1.08626633883e-05
-1.08627695828e-05
-1.08628646004e-05
-1.08629552583e-05
-1.08628688281e-05
-1.08627713205e-05
-1.08626698312e-05
-1.08625776066e-05
-1.08625043752e-05
-1.08624573532e-05
-1.08624411268e-05
-1.08624577499e-05
-1.0862505174e-05
-1.0862578815e-05
-1.08626714008e-05
-1.08627732092e-05
-1.0862870776e-05
-1.08629570785e-05
-1.08630359198e-05
-1.08629556779e-05
-1.08628647031e-05
-1.08627694219e-05
-1.08626822882e-05
-1.08626127748e-05
-1.0862568002e-05
-1.08625525253e-05
-1.0862568374e-05
-1.08626135197e-05
-1.08626834086e-05
-1.08627708891e-05
-1.08628664754e-05
-1.08629575446e-05
-1.08630377531e-05
-1.08631102647e-05
-1.08630342424e-05
-1.08629481707e-05
-1.08628578936e-05
-1.0862775008e-05
-1.08627086869e-05
-1.08626658788e-05
-1.08626510641e-05
-1.08626662236e-05
-1.08627093744e-05
-1.08627760394e-05
-1.08628592533e-05
-1.08629498301e-05
-1.08630360131e-05
-1.08631120998e-05
-1.08631792839e-05
-1.08631057375e-05
-1.08630231469e-05
-1.08629367669e-05
-1.08628573671e-05
-1.08627937684e-05
-1.08627526804e-05
-1.08627384531e-05
-1.08627529976e-05
-1.0862794399e-05
-1.08628583116e-05
-1.08629380192e-05
-1.08630246904e-05
-1.08631074186e-05
-1.08631811274e-05
-1.08632436144e-05
-1.08631710624e-05
-1.08630907241e-05
-1.0863007282e-05
-1.08629307286e-05
-1.08628694721e-05
-1.08628299157e-05
-1.08628162213e-05
-1.08628302017e-05
-1.0862870041e-05
-1.08629315815e-05
-1.08630084236e-05
-1.08630921475e-05
-1.08631726556e-05
-1.08632454486e-05
-1.08633041644e-05
-1.08632314187e-05
-1.08631522985e-05
-1.08630710052e-05
-1.08629968002e-05
-1.08629376222e-05
-1.08628994834e-05
-1.08628862942e-05
-1.08628997364e-05
-1.08629381262e-05
-1.08629975591e-05
-1.08630720301e-05
-1.08631535964e-05
-1.08632329131e-05
-1.08633060154e-05
-1.08633618735e-05
-1.0863287949e-05
-1.08632091819e-05
-1.08631294114e-05
-1.08630572262e-05
-1.08629999989e-05
-1.08629632548e-05
-1.08629505723e-05
-1.08629634717e-05
-1.08630004321e-05
-1.08630578841e-05
-1.08631303129e-05
-1.08632103448e-05
-1.08632893292e-05
-1.08633637132e-05
-1.086341793e-05
-1.08633417969e-05
-1.086326252e-05
-1.08631837147e-05
-1.08631133445e-05
-1.08630580677e-05
-1.08630227742e-05
-1.08630106349e-05
-1.086302295e-05
-1.08630584245e-05
-1.08631138936e-05
-1.08631844808e-05
-1.08632635318e-05
-1.08633430358e-05
-1.08634197085e-05
-1.08634757744e-05
-1.08633955497e-05
-1.0863314189e-05
-1.08632354069e-05
-1.08631664339e-05
-1.08631129494e-05
-1.08630791107e-05
-1.08630674968e-05
-1.08630792449e-05
-1.0863113226e-05
-1.08631668614e-05
-1.08632360268e-05
-1.08633150331e-05
-1.08633966328e-05
-1.08634774618e-05
-1.08635371295e-05
-1.08634496126e-05
-1.08633651296e-05
-1.08632856509e-05
-1.08632177763e-05
-1.08631659855e-05
-1.08631334882e-05
-1.08631224294e-05
-1.08631335803e-05
-1.08631661688e-05
-1.08632180867e-05
-1.08632861133e-05
-1.08633657902e-05
-1.08634505111e-05
-1.08635387294e-05
-1.08635366385e-05
-1.08634633993e-05
-1.0863387551e-05
-1.08633182034e-05
-1.08632600602e-05
-1.08632160643e-05
-1.08631886332e-05
-1.08631792962e-05
-1.08631886764e-05
-1.08632161579e-05
-1.08632602235e-05
-1.08633184853e-05
-1.08633880004e-05
-1.08634640442e-05
-1.08635379659e-05
-9.67247472684e-06
-9.67256519463e-06
-9.67265866205e-06
-9.67275123492e-06
-9.67283249408e-06
-9.67289560665e-06
-9.6729355872e-06
-9.67294936671e-06
-9.67293561681e-06
-9.67289564391e-06
-9.67283249754e-06
-9.6727511575e-06
-9.67265837103e-06
-9.67256469e-06
-9.67247416414e-06
-9.67253154889e-06
-9.67261944383e-06
-9.67271262459e-06
-9.6728053554e-06
-9.67288712381e-06
-9.67295082336e-06
-9.67299126041e-06
-9.67300521418e-06
-9.67299124382e-06
-9.67295076837e-06
-9.67288699044e-06
-9.67280509352e-06
-9.67271213297e-06
-9.6726187499e-06
-9.67253084056e-06
-9.67245725898e-06
-9.6725334467e-06
-9.67261664371e-06
-9.67270126811e-06
-9.67277677673e-06
-9.67283605705e-06
-9.67287386719e-06
-9.67288695334e-06
-9.67287384619e-06
-9.67283599748e-06
-9.67277664355e-06
-9.67270101166e-06
-9.67261616745e-06
-9.67253277558e-06
-9.67245653136e-06
-9.67237304572e-06
-9.67244004617e-06
-9.6725147458e-06
-9.67259217967e-06
-9.67266205388e-06
-9.67271732638e-06
-9.67275274388e-06
-9.67276503274e-06
-9.67275272193e-06
-9.67271726933e-06
-9.67266193004e-06
-9.67259193841e-06
-9.67251429815e-06
-9.67243940028e-06
-9.67237229289e-06
-9.67230491626e-06
-9.67236572364e-06
-9.67243429868e-06
-9.67250623779e-06
-9.67257171012e-06
-9.67262380751e-06
-9.67265731559e-06
-9.67266896557e-06
-9.67265729159e-06
-9.67262374874e-06
-9.67257158724e-06
-9.67250599875e-06
-9.67243386141e-06
-9.67236508034e-06
-9.67230413756e-06
-9.6722453062e-06
-9.67230147918e-06
-9.67236519665e-06
-9.67243248721e-06
-9.67249410553e-06
-9.67254334896e-06
-9.67257511425e-06
-9.6725861734e-06
-9.67257508513e-06
-9.67254328193e-06
-9.67249397293e-06
-9.67243223711e-06
-9.67236475499e-06
-9.67230083039e-06
-9.67224448365e-06
-9.67218935644e-06
-9.67224187816e-06
-9.67230153873e-06
-9.67236469047e-06
-9.67242274907e-06
-9.67246927807e-06
-9.67249935426e-06
-9.67250983381e-06
-9.67249932186e-06
-9.67246920535e-06
-9.6724226092e-06
-9.67236443205e-06
-9.67230108955e-06
-9.67224122753e-06
-9.67218849827e-06
-9.67213556173e-06
-9.67218516779e-06
-9.67224137777e-06
-9.67230079759e-06
-9.67235551224e-06
-9.67239941346e-06
-9.6724278185e-06
-9.67243771872e-06
-9.67242778264e-06
-9.672399334e-06
-9.67235536446e-06
-9.67230053174e-06
-9.67224092607e-06
-9.67218451206e-06
-9.67213467024e-06
-9.67208284198e-06
-9.67213005705e-06
-9.67218329174e-06
-9.67223929622e-06
-9.67229081936e-06
-9.67233213688e-06
-9.67235886643e-06
-9.67236817915e-06
-9.67235882943e-06
-9.67233205507e-06
-9.67229066821e-06
-9.6722390275e-06
-9.67218284179e-06
-9.6721293986e-06
-9.67208192412e-06
-9.67203011988e-06
-9.67207531809e-06
-9.6721259633e-06
-9.6721788144e-06
-9.67222725838e-06
-9.67226600738e-06
-9.6722910381e-06
-9.67229974868e-06
-9.67229100188e-06
-9.67226592662e-06
-9.67222710894e-06
-9.67217855018e-06
-9.67212552301e-06
-9.67207466718e-06
-9.67202916692e-06
-9.67197653581e-06
-9.67202005589e-06
-9.67206846554e-06
-9.6721184013e-06
-9.67216384638e-06
-9.67220001417e-06
-9.67222330585e-06
-9.67223139412e-06
-9.67222327347e-06
-9.67219994022e-06
-9.67216370588e-06
-9.67211814981e-06
-9.67206804369e-06
-9.6720194232e-06
-9.67197556316e-06
-9.67192130384e-06
-9.67196365299e-06
-9.67201028813e-06
-9.6720576012e-06
-9.67210013319e-06
-9.67213369831e-06
-9.67215520201e-06
-9.67216264475e-06
-9.67215517725e-06
-9.67213363702e-06
-9.67210001056e-06
-9.672057373e-06
-9.67200989742e-06
-9.67196305426e-06
-9.67192033626e-06
-9.67186226305e-06
-9.67190468723e-06
-9.67195060482e-06
-9.67199596438e-06
-9.67203593098e-06
-9.6720670615e-06
-9.67208683107e-06
-9.67209365112e-06
-9.67208681614e-06
-9.67206701872e-06
-9.67203583622e-06
-9.67199577164e-06
-9.67195025792e-06
-9.67190413442e-06
-9.67186131947e-06
-9.67179828516e-06
-9.6718430357e-06
-9.67188913504e-06
-9.67193324652e-06
-9.67197108145e-06
-9.67200006277e-06
-9.67201830228e-06
-9.67202454191e-06
-9.67201830007e-06
-9.67200004533e-06
-9.67197101765e-06
-9.67193309583e-06
-9.67188884498e-06
-9.6718425461e-06
-9.6717973696e-06
-9.67177410773e-06
-9.67180803685e-06
-9.67184640553e-06
-9.6718819482e-06
-9.67191192858e-06
-9.67193473755e-06
-9.67194902308e-06
-9.67195390975e-06
-9.6719490329e-06
-9.67193474682e-06
-9.67191190734e-06
-9.67188185547e-06
-9.67184618265e-06
-9.67180764356e-06
-9.67177331389e-06
-9.55258318785e-06
-9.55251944891e-06
-9.55245383233e-06
-9.55238897603e-06
-9.5523320685e-06
-9.55228785531e-06
-9.55225987102e-06
-9.55225025386e-06
-9.55225992449e-06
-9.55228796563e-06
-9.55233224301e-06
-9.55238926836e-06
-9.5524543354e-06
-9.55252003416e-06
-9.55258368683e-06
-9.55254395158e-06
-9.55248208647e-06
-9.55241674093e-06
-9.55235183429e-06
-9.55229462027e-06
-9.55225003951e-06
-9.55222176238e-06
-9.55221203246e-06
-9.55222184965e-06
-9.55225021808e-06
-9.55229489827e-06
-9.55235226377e-06
-9.55241739689e-06
-9.55248282906e-06
-9.55254459317e-06
-9.55259722994e-06
-9.5525436652e-06
-9.55248541188e-06
-9.55242625961e-06
-9.55237350343e-06
-9.5523320827e-06
-9.55230568621e-06
-9.55229657721e-06
-9.5523057755e-06
-9.55233226409e-06
-9.55237378346e-06
-9.55242668091e-06
-9.5524860389e-06
-9.55254437141e-06
-9.55259787799e-06
-9.55265716336e-06
-9.55261008154e-06
-9.55255783863e-06
-9.55250376112e-06
-9.55245499289e-06
-9.55241642176e-06
-9.55239172656e-06
-9.55238318312e-06
-9.55239181357e-06
-9.55241659781e-06
-9.55245526594e-06
-9.55250416346e-06
-9.55255842167e-06
-9.55261074404e-06
-9.55265781572e-06
-9.55270546106e-06
-9.55266273226e-06
-9.55261480436e-06
-9.55256458852e-06
-9.55251892273e-06
-9.55248259585e-06
-9.55245925099e-06
-9.55245115829e-06
-9.55245933649e-06
-9.55248276812e-06
-9.55251918861e-06
-9.55256497628e-06
-9.5526153543e-06
-9.55266336465e-06
-9.55270611568e-06
-9.55274759661e-06
-9.55270812223e-06
-9.5526636173e-06
-9.55261666903e-06
-9.55257371894e-06
-9.55253940969e-06
-9.55251729672e-06
-9.55250962053e-06
-9.55251738204e-06
-9.55253958104e-06
-9.55257398321e-06
-9.55261704954e-06
-9.55266414526e-06
-9.55270873405e-06
-9.55274826641e-06
-9.55278711317e-06
-9.55275022743e-06
-9.55270859349e-06
-9.55266456774e-06
-9.55262413583e-06
-9.55259175138e-06
-9.55257083602e-06
-9.55256356949e-06
-9.5525709195e-06
-9.55259191813e-06
-9.55262439278e-06
-9.55266493466e-06
-9.55270909846e-06
-9.55275081233e-06
-9.55278779081e-06
-9.55282516643e-06
-9.55279038291e-06
-9.55275121337e-06
-9.55270984366e-06
-9.55267179397e-06
-9.55264128365e-06
-9.55262155941e-06
-9.55261470418e-06
-9.55262164043e-06
-9.55264144536e-06
-9.55267204232e-06
-9.552710196e-06
-9.55275169297e-06
-9.55279094542e-06
-9.55282585123e-06
-9.55286258773e-06
-9.55282957467e-06
-9.55279255633e-06
-9.55275363964e-06
-9.55271787874e-06
-9.55268921963e-06
-9.55267069454e-06
-9.55266425772e-06
-9.55267077063e-06
-9.55268937176e-06
-9.55271811226e-06
-9.55275397141e-06
-9.55279300645e-06
-9.55283011296e-06
-9.5528632731e-06
-9.55290018318e-06
-9.55286870908e-06
-9.55283358799e-06
-9.55279695556e-06
-9.55276341372e-06
-9.55273660177e-06
-9.5527192948e-06
-9.55271328772e-06
-9.55271936444e-06
-9.55273674109e-06
-9.55276362866e-06
-9.55279726119e-06
-9.55283400439e-06
-9.55286921722e-06
-9.55290087619e-06
-9.55293857823e-06
-9.55290843199e-06
-9.55287497132e-06
-9.55284046338e-06
-9.55280908868e-06
-9.55278413225e-06
-9.5527680722e-06
-9.55276250772e-06
-9.55276813275e-06
-9.55278425392e-06
-9.55280927802e-06
-9.55284073637e-06
-9.5528753476e-06
-9.55290890369e-06
-9.55293926778e-06
-9.55297833177e-06
-9.55294916874e-06
-9.55291704963e-06
-9.55288446151e-06
-9.5528551885e-06
-9.55283210109e-06
-9.55281731654e-06
-9.55281221205e-06
-9.55281736486e-06
-9.5528322002e-06
-9.55285534668e-06
-9.55288469311e-06
-9.55291737672e-06
-9.55294959171e-06
-9.55297899837e-06
-9.55302093819e-06
-9.55299189612e-06
-9.55296037763e-06
-9.5529292294e-06
-9.55290180923e-06
-9.55288045673e-06
-9.55286690923e-06
-9.55286223982e-06
-9.55286694351e-06
-9.5528805309e-06
-9.55290192603e-06
-9.55292941337e-06
-9.55296064642e-06
-9.5529922641e-06
-9.55302156911e-06
-9.55306720374e-06
-9.55303671742e-06
-9.55300514554e-06
-9.55297492493e-06
-9.55294901841e-06
-9.55292919104e-06
-9.55291671365e-06
-9.55291245573e-06
-9.55291673405e-06
-9.55292923048e-06
-9.55294909633e-06
-9.55297505129e-06
-9.55300534857e-06
-9.55303701738e-06
-9.55306780247e-06
-9.55308584051e-06
-9.55306292044e-06
-9.55303683476e-06
-9.5530126583e-06
-9.55299228218e-06
-9.55297678174e-06
-9.55296707947e-06
-9.55296376258e-06
-9.55296708138e-06
-9.55297679001e-06
-9.55299230483e-06
-9.55301272042e-06
-9.5530369599e-06
-9.55306312886e-06
-9.55308633126e-06
-8.67711644928e-06
-8.67716108304e-06
-8.67720701584e-06
-8.67725244473e-06
-8.67729228864e-06
-8.67732324192e-06
-8.67734284672e-06
-8.67734960458e-06
-8.67734286956e-06
-8.67732328362e-06
-8.67729233519e-06
-8.67725245251e-06
-8.67720692192e-06
-8.67716090837e-06
-8.67711631555e-06
-8.67714416285e-06
-8.67718749973e-06
-8.67723326763e-06
-8.67727875243e-06
-8.67731883458e-06
-8.67735006697e-06
-8.67736989354e-06
-8.67737674012e-06
-8.67736990488e-06
-8.67735008395e-06
-8.6773188392e-06
-8.67727869845e-06
-8.67723309832e-06
-8.67718724848e-06
-8.67714396831e-06
-8.67710698712e-06
-8.6771445097e-06
-8.67718532197e-06
-8.67722678251e-06
-8.67726375125e-06
-8.67729277764e-06
-8.67731128992e-06
-8.67731770136e-06
-8.6773112967e-06
-8.67729278649e-06
-8.67726374666e-06
-8.67722672463e-06
-8.67718515938e-06
-8.67714427314e-06
-8.67710678454e-06
-8.67706499129e-06
-8.67709795518e-06
-8.67713455037e-06
-8.67717244627e-06
-8.67720661614e-06
-8.67723364277e-06
-8.67725095798e-06
-8.67725696916e-06
-8.67725096089e-06
-8.67723364509e-06
-8.67720660448e-06
-8.67717238817e-06
-8.67713440184e-06
-8.67709773397e-06
-8.67706478119e-06
-8.67703101518e-06
-8.67706090008e-06
-8.67709445102e-06
-8.67712961885e-06
-8.67716159795e-06
-8.67718703858e-06
-8.67720339785e-06
-8.67720908838e-06
-8.67720339815e-06
-8.67718703627e-06
-8.67716158121e-06
-8.67712955869e-06
-8.67709430996e-06
-8.67706068416e-06
-8.67703079661e-06
-8.67700125515e-06
-8.67702881645e-06
-8.67705994139e-06
-8.67709279034e-06
-8.67712284297e-06
-8.67714685222e-06
-8.67716233568e-06
-8.67716772913e-06
-8.67716233331e-06
-8.67714684502e-06
-8.67712282023e-06
-8.67709272639e-06
-8.67705980432e-06
-8.6770286062e-06
-8.67700101925e-06
-8.67697325098e-06
-8.67699895608e-06
-8.67702803592e-06
-8.67705880309e-06
-8.677087063e-06
-8.67710970215e-06
-8.67712433212e-06
-8.67712943287e-06
-8.67712432866e-06
-8.677109693e-06
-8.67708703785e-06
-8.67705873864e-06
-8.67702790184e-06
-8.67699875328e-06
-8.67697300348e-06
-8.67694621091e-06
-8.67697039828e-06
-8.6769977149e-06
-8.67702658554e-06
-8.67705314683e-06
-8.6770744501e-06
-8.67708823054e-06
-8.67709303723e-06
-8.67708822652e-06
-8.67707443962e-06
-8.67705312065e-06
-8.67702652255e-06
-8.67699758738e-06
-8.67697020215e-06
-8.67694595266e-06
-8.67691956604e-06
-8.67694247061e-06
-8.67696824226e-06
-8.67699535844e-06
-8.67702028546e-06
-8.6770402678e-06
-8.67705319274e-06
-8.67705770025e-06
-8.67705318951e-06
-8.67704025859e-06
-8.6770202612e-06
-8.67699529924e-06
-8.67696812273e-06
-8.67694228124e-06
-8.67691930105e-06
-8.67689276278e-06
-8.67691454669e-06
-8.67693895142e-06
-8.67696443268e-06
-8.67698777476e-06
-8.67700643997e-06
-8.67701849632e-06
-8.6770226969e-06
-8.67701849467e-06
-8.67700643361e-06
-8.67698775446e-06
-8.67696438017e-06
-8.67693884231e-06
-8.67691436789e-06
-8.67689248391e-06
-8.67686536777e-06
-8.67688618418e-06
-8.67690938935e-06
-8.67693334942e-06
-8.67695514503e-06
-8.67697248799e-06
-8.676983657e-06
-8.67698754123e-06
-8.67698365818e-06
-8.67697248669e-06
-8.67695513162e-06
-8.67693330633e-06
-8.67690929292e-06
-8.6768860185e-06
-8.67686508203e-06
-8.6768370018e-06
-8.67685709291e-06
-8.67687932422e-06
-8.67690190984e-06
-8.67692220704e-06
-8.67693822234e-06
-8.67694848449e-06
-8.676952042e-06
-8.67694848974e-06
-8.67693822853e-06
-8.67692220305e-06
-8.67690187968e-06
-8.67687924452e-06
-8.67685694495e-06
-8.67683671581e-06
-8.67680661298e-06
-8.67682659253e-06
-8.67684837521e-06
-8.67686992636e-06
-8.67688890531e-06
-8.67690368788e-06
-8.67691307639e-06
-8.67691632137e-06
-8.67691308696e-06
-8.67690370167e-06
-8.67688891526e-06
-8.67686991168e-06
-8.67684831564e-06
-8.67682646508e-06
-8.67680633399e-06
-8.67677363503e-06
-8.67679461602e-06
-8.67681641196e-06
-8.6768372928e-06
-8.67685519475e-06
-8.67686890316e-06