/*--------------------------------*- C++ -*----------------------------------*\
  =========                 |
  \\      /  F ield         | OpenFOAM: The Open Source CFD Toolbox
   \\    /   O peration     | Website:  https://openfoam.org
    \\  /    A nd           | Version:  7
     \\/     M anipulation  |
\*---------------------------------------------------------------------------*/
FoamFile
{
    version     2.0;
    format      ascii;
    class       volVectorField;
    location    "1.2";
    object      U;
}
// * * * * * * * * * * * * * * * * * * * * * * * * * * * * * * * * * * * * * //

dimensions      [0 1 -1 0 0 0 0];

internalField   nonuniform List<vector> 
22500
(
(-1.39903747022e-05 -1.57350031656e-05 -2.14501603602e-05)
(-1.30115772845e-05 -1.78912441339e-05 -2.2448658056e-05)
(-1.1501101225e-05 -2.0012100897e-05 -2.33810643624e-05)
(-9.70774282515e-06 -2.18586237972e-05 -2.42592307368e-05)
(-7.57133891514e-06 -2.33947398829e-05 -2.50241470198e-05)
(-5.19266298836e-06 -2.45411049495e-05 -2.56158186472e-05)
(-2.6389186784e-06 -2.52493875955e-05 -2.59905198013e-05)
(5.32751592175e-09 -2.54889252003e-05 -2.61199666286e-05)
(2.64946219075e-06 -2.52481375964e-05 -2.59856955898e-05)
(5.20288340573e-06 -2.45386439464e-05 -2.56062425907e-05)
(7.58109349446e-06 -2.33911344836e-05 -2.50099740084e-05)
(9.71694260336e-06 -2.18540139168e-05 -2.42407181846e-05)
(1.15096495944e-05 -2.00066131944e-05 -2.33585433567e-05)
(1.3019582914e-05 -1.78850465714e-05 -2.24225398242e-05)
(1.3997139901e-05 -1.57287975891e-05 -2.14211435009e-05)
(-4.15736592261e-05 -4.65869792325e-05 -0.000128312349039)
(-3.85914345648e-05 -5.28729133718e-05 -0.000137619604735)
(-3.41704867511e-05 -5.90456613276e-05 -0.000146462575483)
(-2.88305413183e-05 -6.44450084525e-05 -0.000154508862948)
(-2.25041083403e-05 -6.89342546753e-05 -0.00016131722701)
(-1.54396057013e-05 -7.22871324982e-05 -0.000166488179304)
(-7.84831530672e-06 -7.43606142661e-05 -0.000169720552141)
(1.58997559318e-08 -7.50617190042e-05 -0.000170822412572)
(7.87977286526e-06 -7.43568477e-05 -0.000169706070097)
(1.54700728905e-05 -7.22797351652e-05 -0.00016645942264)
(2.25330689609e-05 -6.89234835914e-05 -0.000161274643317)
(2.88576393606e-05 -6.44313188268e-05 -0.000154453185341)
(3.41953913008e-05 -5.90295788778e-05 -0.000146394762881)
(3.86141402372e-05 -5.28550652854e-05 -0.00013754082871)
(4.1592610412e-05 -4.65690818711e-05 -0.000128224513242)
(-6.68790137888e-05 -7.46032686888e-05 -0.000290056209802)
(-6.18520586582e-05 -8.44706231909e-05 -0.00031224968207)
(-5.47258417562e-05 -9.40752520587e-05 -0.000333259148586)
(-4.61043257556e-05 -0.000102470932862 -0.000352176032862)
(-3.59618511205e-05 -0.000109429774332 -0.000368036159991)
(-2.4658351796e-05 -0.000114619783955 -0.000380001272914)
(-1.25304132228e-05 -0.000117826498792 -0.000387445075382)
(2.45135263551e-08 -0.000118910191034 -0.000389973372356)
(1.25789397196e-05 -0.000117820627265 -0.000387421950343)
(2.47054277414e-05 -0.00011460825128 -0.000379955298995)
(3.60066797205e-05 -0.000109412997819 -0.00036796795008)
(4.61463259218e-05 -0.000102449616638 -0.000352086608174)
(5.47644945421e-05 -9.40503168563e-05 -0.000333149884394)
(6.18871575947e-05 -8.44431078563e-05 -0.000312122218572)
(6.69084976706e-05 -7.4575572132e-05 -0.000289913211763)
(-8.95048671707e-05 -9.94683453914e-05 -0.000493050828776)
(-8.24857336733e-05 -0.00011225768901 -0.000530233288572)
(-7.28676369059e-05 -0.000124591759454 -0.000565123104369)
(-6.12682526005e-05 -0.000135347019152 -0.000596217363266)
(-4.77311765463e-05 -0.000144230456032 -0.000622058480927)
(-3.26982563961e-05 -0.000150841994129 -0.000641422822846)
(-1.66074140405e-05 -0.000154921524529 -0.000653413223943)
(3.11103105405e-08 -0.000156299165001 -0.000657473688466)
(1.6669045603e-05 -0.000154914210569 -0.000653383263817)
(3.27581760144e-05 -0.000150827623068 -0.00064136314714)
(4.77883996746e-05 -0.000144209548842 -0.000621969668666)
(6.13220064148e-05 -0.000135320426686 -0.000596100429719)
(7.29172269557e-05 -0.000124560658835 -0.000564979485609)
(8.25307133458e-05 -0.00011222335756 -0.000530064658689)
(8.95429569801e-05 -9.94334988283e-05 -0.000492859972973)
(-0.000109163060212 -0.000120966482755 -0.000721597087242)
(-0.000100269935274 -0.000135959377569 -0.000773434793616)
(-8.8392084507e-05 -0.000150282552834 -0.000821507168716)
(-7.41546230742e-05 -0.000162731128115 -0.000863888802486)
(-5.76806773789e-05 -0.000172974116866 -0.000898791186643)
(-3.94692759165e-05 -0.000180579702053 -0.00092476377803)
(-2.00335767998e-05 -0.000185265405207 -0.000940768226221)
(3.56752912825e-08 -0.000186846490054 -0.000946172709018)
(2.01043073814e-05 -0.000185257258349 -0.000940733418407)
(3.95381969232e-05 -0.00018056368534 -0.000924694293355)
(5.7746707535e-05 -0.000172950799482 -0.000898687402611)
(7.42168594031e-05 -0.000162701421718 -0.000863751475795)
(8.84496930309e-05 -0.000150247741597 -0.000821337474703)
(0.000100322267434 -0.000135920839468 -0.000773234049713)
(0.000109207811786 -0.000120926945297 -0.000721367645407)
(-0.000125671348873 -0.000138955280738 -0.000960738832136)
(-0.000115065695407 -0.000155413918812 -0.00102508793196)
(-0.000101186064882 -0.000170993364006 -0.00108397460455)
(-8.46816241406e-05 -0.000184481629221 -0.00113532336491)
(-6.57535002043e-05 -0.000195536288524 -0.00117722930775)
(-4.49360629285e-05 -0.00020372519331 -0.00120819911004)
(-2.27918892321e-05 -0.000208762467287 -0.00122719234999)
(3.8572309115e-08 -0.000210460873361 -0.00123358892109)
(2.28684193642e-05 -0.000208753981973 -0.00122715444127)
(4.50107916508e-05 -0.00020370850004 -0.00120812327169)
(6.58253159895e-05 -0.000195511961424 -0.00117711563176)
(8.47495537136e-05 -0.000184450578125 -0.0011351722143)
(0.000101249183679 -0.000170956877451 -0.00108378670487)
(0.000115123204746 -0.000155373361249 -0.00102486398395)
(0.000125721064319 -0.00013891318351 -0.000960480370643)
(-0.000138998070536 -0.000153426580492 -0.00119815356747)
(-0.000126867915715 -0.00017063780476 -0.00127190627847)
(-0.00011126498239 -0.000186790779499 -0.00133848006425)
(-9.28811239991e-05 -0.000200715827223 -0.00139592338318)
(-7.1985919331e-05 -0.000212083528068 -0.00144240499475)
(-4.91292624439e-05 -0.000220485569705 -0.00147653549315)
(-2.48994792206e-05 -0.000225646508024 -0.00149737495488)
(4.03049277583e-08 -0.000227385399473 -0.00150437605512)
(2.49794979511e-05 -0.000225638049961 -0.0014973352343)
(4.9207539922e-05 -0.000220468918386 -0.00147645588509)
(7.20613529586e-05 -0.000212059235054 -0.0014422853096)
(9.2952713357e-05 -0.000200684760073 -0.0013957635837)
(0.000111331764487 -0.000186754165093 -0.00133828039125)
(0.00012692898621 -0.000170596918014 -0.00127166671101)
(0.000139051437078 -0.000153383624436 -0.00119787461817)
(-0.000149237171777 -0.000164489760441 -0.00142494451201)
(-0.000135783469445 -0.000181795200339 -0.00150478708879)
(-0.000118745913694 -0.000197911905555 -0.00157591385476)
(-9.88709373776e-05 -0.000211741335916 -0.00163670313878)
(-7.64819081847e-05 -0.000222988003633 -0.00168551891079)
(-5.21261698519e-05 -0.000231284062265 -0.00172115839617)
(-2.63972559582e-05 -0.000236373497272 -0.00174283431763)
(4.13575848395e-08 -0.00023808726996 -0.00175010056561)
(2.64794078013e-05 -0.000236365313274 -0.00174279359012)
(5.22066545511e-05 -0.000231267939746 -0.00172107666307)
(7.65596485919e-05 -0.0002229644539 -0.0016853957649)
(9.89449316456e-05 -0.000211711161568 -0.00163653822895)
(0.000118815193997 -0.000197876232891 -0.00157570702054)
(0.00013584706939 -0.000181755183141 -0.00150453760502)
(0.00014929330485 -0.000164447193748 -0.00142465182988)
(-0.000156564040154 -0.000172331267424 -0.00163555715571)
(-0.000141990365824 -0.000189141808659 -0.00171848630184)
(-0.000123807345369 -0.000204690253573 -0.00179148536941)
(-0.000102818070558 -0.000217966193552 -0.00185336978037)
(-7.93821866031e-05 -0.000228724325672 -0.00190274267647)
(-5.40283064872e-05 -0.0002366468129 -0.00193861178536)
(-2.73381640577e-05 -0.000241502041905 -0.00196035404929)
(4.21146776789e-08 -0.000243136126504 -0.00196762870232)
(2.74218550707e-05 -0.000241494287035 -0.00196031272495)
(5.41103980803e-05 -0.00023663152461 -0.0019385287919)
(7.94616294465e-05 -0.000228701964146 -0.00190261747695)
(0.000102893872075 -0.000217937481618 -0.00185320183822)
(0.000123878550575 -0.00020465619787 -0.00179127426775)
(0.000142055976294 -0.000189103421037 -0.00171823069133)
(0.000156622458943 -0.000172289936989 -0.00163525551103)
(-0.000161198951655 -0.000177182032667 -0.00182718717582)
(-0.000145704366331 -0.000192980446942 -0.0019107715888)
(-0.000126658489171 -0.000207500358576 -0.00198360631261)
(-0.000104912173562 -0.000219834958252 -0.00204494914079)
(-8.08425790817e-05 -0.000229799129359 -0.00209362349008)
(-5.49460120214e-05 -0.000237127670821 -0.00212883538281)
(-2.77791731027e-05 -0.000241615225934 -0.00215011688915)
(4.28377647455e-08 -0.000243124897561 -0.00215722541806)
(2.7864330549e-05 -0.000241607994082 -0.00215007511303)
(5.50296250648e-05 -0.000237113400162 -0.00212875145797)
(8.0923623383e-05 -0.000229778220191 -0.00209349683087)
(0.000104989667467 -0.000219808041354 -0.0020447791531)
(0.000126731494845 -0.000207468308833 -0.0019833924789)
(0.000145771864204 -0.000192944125638 -0.00191051202207)
(0.000161259503408 -0.000177142462405 -0.00182687950812)
(-0.000163380866738 -0.000179296631921 -0.00199900898704)
(-0.000147155428015 -0.00019362926897 -0.00208146403324)
(-0.000127519364038 -0.000206720850433 -0.00215275451706)
(-0.000105349125348 -0.000217789560178 -0.00221248910772)
(-8.10207444314e-05 -0.000226710289717 -0.00225965828711)
(-5.49890012916e-05 -0.000233265889465 -0.00229364749638)
(-2.77763703347e-05 -0.000237277276472 -0.00231413411095)
(4.36772711681e-08 -0.000238626115783 -0.00232096631566)
(2.78632231034e-05 -0.000237270626035 -0.00231409188807)
(5.50743544249e-05 -0.000233252749714 -0.00229356267337)
(8.11035953593e-05 -0.000226690992043 -0.00225953028296)
(0.00010542850305 -0.000217764631526 -0.00221231736901)
(0.000127594344559 -0.000206691022364 -0.00215253856556)
(0.0001472249753 -0.000193595242079 -0.00208120150985)
(0.000163443650991 -0.000179259120074 -0.00199869676474)
(-0.000163344978641 -0.000178933375458 -0.0021514374832)
(-0.000146572916556 -0.00019139320527 -0.00223161384972)
(-0.000126611335693 -0.00020271063678 -0.00230056886739)
(-0.000104322784635 -0.000212249914284 -0.00235807746446)
(-8.00686150554e-05 -0.000219928826761 -0.00240325544254)
(-5.42606956558e-05 -0.000225567768586 -0.00243567331481)
(-2.73819848844e-05 -0.000229014838704 -0.00245515733173)
(4.46961283229e-08 -0.000230173064606 -0.00246164462679)
(2.74708891724e-05 -0.000229008813339 -0.00245511463092)
(5.43481398942e-05 -0.000225555842417 -0.00243558753245)
(8.0153618424e-05 -0.000219911254919 -0.00240312601344)
(0.000104404387404 -0.000212227108496 -0.00235790392263)
(0.000126688623688 -0.000202683171941 -0.00230035089402)
(0.000146644835818 -0.000191361612215 -0.00223134870146)
(0.000163410261224 -0.000178898137091 -0.00215112122396)
(-0.00016130584691 -0.000176301495313 -0.00228551719739)
(-0.000144194675111 -0.000186534084241 -0.00236292914592)
(-0.000124163246984 -0.000195802272685 -0.00242925667985)
(-0.000102022715545 -0.000203616137047 -0.00248420906842)
(-7.81273446619e-05 -0.000209901981612 -0.0025270840408)
(-5.28541829853e-05 -0.000214509172053 -0.00255769319286)
(-2.6642367078e-05 -0.000217319417283 -0.00257603089592)
(4.58927313961e-08 -0.000218262311716 -0.00258212570316)
(2.6733678515e-05 -0.000217314053049 -0.00257598773519)
(5.29440735376e-05 -0.000214498528412 -0.00255760646354)
(7.82148557765e-05 -0.000209886239166 -0.00252695314998)
(0.00010210690174 -0.000203595578905 -0.00248403359973)
(0.000124243200955 -0.00019577730235 -0.0024290365608)
(0.000144269320815 -0.00018650503843 -0.00236266151598)
(0.000161373924491 -0.000176268736125 -0.00228519734837)
(-0.000157551425019 -0.000171558069269 -0.00240244235561)
(-0.000140348237394 -0.000179311274758 -0.00247754526429)
(-0.000120426506571 -0.000186323482414 -0.00254128732003)
(-9.86259430546e-05 -0.000192281560918 -0.00259342093585)
(-7.53193211025e-05 -0.000197053757678 -0.00263370911534)
(-5.08483538604e-05 -0.000200531470002 -0.00266229658361)
(-2.55968057325e-05 -0.000202642852605 -0.00267936185887)
(4.72245133866e-08 -0.000203349343342 -0.00268502293768)
(2.56907946504e-05 -0.000202638172054 -0.00267931838558)
(5.09409563059e-05 -0.000200522161392 -0.00266220915651)
(7.54096038271e-05 -0.00019703992595 -0.00263357701198)
(9.8712982284e-05 -0.000192263366781 -0.00259324360855)
(0.000120509407007 -0.000186301145577 -0.00254106487752)
(0.000140425897349 -0.000179284904044 -0.00247727526764)
(0.000157622669614 -0.000171527851351 -0.00240212022816)
(-0.000152727743429 -0.000165660046347 -0.00250296836118)
(-0.000135555750972 -0.000169862036145 -0.00257806752419)
(-0.000115674317528 -0.0001745773052 -0.00263897472692)
(-9.43459651985e-05 -0.000178533083672 -0.00268788575973)
(-7.18120862416e-05 -0.000181654964824 -0.00272529330324)
(-4.83635496062e-05 -0.000183901434907 -0.0027516804048)
(-2.43088217976e-05 -0.000185254274622 -0.0027673790383)
(4.86267538782e-08 -0.000185704899889 -0.00277257726471)
(2.4405623567e-05 -0.000185250309897 -0.00276733562021)
(4.84589933025e-05 -0.000183893531741 -0.00275159297325)
(7.19052560245e-05 -0.000181643169528 -0.0027251609119)
(9.44359543633e-05 -0.00017851746215 -0.00268770742716)
(0.000115760262731 -0.00017455792676 -0.00263875040515)
(0.000135636415544 -0.000169838718715 -0.00257779377073)
(0.000152802534444 -0.000165632798284 -0.00250264955581)
(2.90193350624e-07 4.086341015e-07 -9.62998605196e-05)
(2.29496198729e-07 5.25650387906e-07 -0.00010107652106)
(1.79029938273e-07 6.13323223208e-07 -0.000105406793639)
(1.42098862137e-07 6.78504951255e-07 -0.000109153833178)
(1.04190735789e-07 7.28954825392e-07 -0.000112199666749)
(6.84764857668e-08 7.64422929348e-07 -0.000114446072147)
(3.35096302352e-08 7.85544585977e-07 -0.000115824317706)
(-8.23767297923e-10 7.92491496843e-07 -0.000116292059843)
(-3.51387453674e-08 7.85183522507e-07 -0.000115823974101)
(-7.00768220314e-08 7.63687058713e-07 -0.000114445363124)
(-1.05855910088e-07 7.27811867613e-07 -0.000112198536139)
(-1.43949881875e-07 6.7696201261e-07 -0.000109152177543)
(-1.81145848449e-07 6.11336094568e-07 -0.000105404474798)
(-2.31875339556e-07 5.23330202206e-07 -0.000101073319754)
(-2.92405174396e-07 4.06312760398e-07 -9.6295409101e-05)
(2.33724589341e-06 2.79424580294e-06 -0.000283642054932)
(2.13359334564e-06 3.39233392077e-06 -0.000297248518298)
(1.87811188702e-06 3.92934645129e-06 -0.000309581735266)
(1.59339761766e-06 4.38839789461e-06 -0.000320247811658)
(1.24983728161e-06 4.76731809434e-06 -0.000328913090966)
(8.61084441218e-07 5.04923637189e-06 -0.000335302853762)
(4.37920920126e-07 5.22332929623e-06 -0.000339221698693)
(-3.04186875158e-09 5.28200225847e-06 -0.00034054814803)
(-4.43945700969e-07 5.22225518552e-06 -0.000339220533409)
(-8.66985745473e-07 5.04707813942e-06 -0.000335300460869)
(-1.25573157746e-06 4.76405601094e-06 -0.000328909310996)
(-1.59949541286e-06 4.38410623848e-06 -0.000320242351029)
(-1.88452679302e-06 3.92404777274e-06 -0.00030957419704)
(-2.14024896543e-06 3.38635207429e-06 -0.000297238284882)
(-2.34326305904e-06 2.78831290808e-06 -0.000283628258111)
(5.39354640758e-06 6.26196452374e-06 -0.000464545641647)
(4.99943295446e-06 7.44993383241e-06 -0.000486295058759)
(4.44645241625e-06 8.55445088524e-06 -0.000505983309309)
(3.78274940966e-06 9.51530263076e-06 -0.000522997011593)
(2.97534806203e-06 1.03118317794e-05 -0.000536809877108)
(2.05304853868e-06 1.09065896188e-05 -0.000546991490246)
(1.04612078411e-06 1.12744010645e-05 -0.00055323296432)
(-4.85243231991e-09 1.13985111954e-05 -0.000555342158859)
(-1.05575015432e-06 1.12726399542e-05 -0.00055323078674)
(-2.06251935803e-06 1.09030564093e-05 -0.000546987044046)
(-2.98479199226e-06 1.03065313077e-05 -0.000536802930165)
(-3.79245032503e-06 9.50838147022e-06 -0.000522987139204)
(-4.45659466658e-06 8.54609399521e-06 -0.00050596992492)
(-5.00989455479e-06 7.44064835455e-06 -0.000486277264205)
(-5.4031819688e-06 6.25278082384e-06 -0.000464522230809)
(8.85805966152e-06 1.01460544523e-05 -0.000638774442866)
(8.22083933493e-06 1.18855964777e-05 -0.00066793995999)
(7.30978176864e-06 1.35210007187e-05 -0.000694284519915)
(6.20045421907e-06 1.49438154848e-05 -0.000717025219363)
(4.8656089613e-06 1.61189979186e-05 -0.000735471158348)
(3.3507210568e-06 1.69936599429e-05 -0.000749059786059)
(1.70571838866e-06 1.75331132155e-05 -0.000757385115378)
(-6.7822351674e-09 1.77149079953e-05 -0.000760195085863)
(-1.71920128287e-06 1.75308680992e-05 -0.000757381711264)
(-3.36402426791e-06 1.69891701918e-05 -0.000749052876232)
(-4.87883787313e-06 1.61123058034e-05 -0.000735460483409)
(-6.21388133095e-06 1.49351177717e-05 -0.000717010305541)
(-7.32360039856e-06 1.35106080517e-05 -0.000694264698958)
(-8.23487670821e-06 1.18741067165e-05 -0.000667914182151)
(-8.87105399205e-06 1.01346340835e-05 -0.000638741395424)
(1.22068399857e-05 1.38596128167e-05 -0.000805987304143)
(1.12833270616e-05 1.60115658379e-05 -0.000841793409387)
(9.99261040067e-06 1.80364057429e-05 -0.000874045640121)
(8.43359657014e-06 1.97860268946e-05 -0.000901847496842)
(6.5907368985e-06 2.1220572093e-05 -0.000924375019965)
(4.52421045594e-06 2.22817630188e-05 -0.000940958394475)
(2.29874572488e-06 2.29333270077e-05 -0.000951112250321)
(-8.65546182422e-09 2.31523817338e-05 -0.000954536025775)
(-2.31597645797e-06 2.29307763575e-05 -0.000951107387338)
(-4.5412546141e-06 2.22766777044e-05 -0.000940948581762)
(-6.607660242e-06 2.12130252295e-05 -0.000924360028531)
(-8.45062079023e-06 1.97762477739e-05 -0.000901826899249)
(-1.00098946468e-05 1.80247742799e-05 -0.000874018813289)
(-1.13006761332e-05 1.59987270623e-05 -0.000841759289762)
(-1.2222961456e-05 1.38467504781e-05 -0.000805944574731)
(1.51262222228e-05 1.70551049411e-05 -0.000965856491467)
(1.38913730693e-05 1.94459913841e-05 -0.00100749916509)
(1.22322161857e-05 2.16836493938e-05 -0.00104488779115)
(1.02623894072e-05 2.35976360626e-05 -0.00107706881017)
(7.98087720185e-06 2.51522372872e-05 -0.00110311625394)
(5.4581894954e-06 2.62934874654e-05 -0.0011222762644)
(2.7670031995e-06 2.69903990853e-05 -0.00113400062873)
(-1.03725077373e-08 2.72240053798e-05 -0.00113795074714)
(-2.78767393292e-06 2.69876873018e-05 -0.0011339940712)
(-5.47867816432e-06 2.62880933072e-05 -0.00112226310688)
(-8.00120724961e-06 2.51442563148e-05 -0.00110309636005)
(-1.02827180272e-05 2.35873156096e-05 -0.00107704189568)
(-1.22526475952e-05 2.16714029915e-05 -0.00104485340408)
(-1.39117081654e-05 1.94324625273e-05 -0.00100745634297)
(-1.5145227015e-05 1.70414402482e-05 -0.000965803962086)
(1.74515047578e-05 1.95555835161e-05 -0.00111813927564)
(1.59027028791e-05 2.20180594401e-05 -0.00116481376595)
(1.39127014036e-05 2.42994056577e-05 -0.00120657639286)
(1.15983937899e-05 2.62277524801e-05 -0.00124246909326)
(8.97347037623e-06 2.77772763123e-05 -0.0012714907334)
(6.11329001305e-06 2.89051219189e-05 -0.00129282301781)
(3.09163767525e-06 2.95897211358e-05 -0.00130586914952)
(-1.18763247126e-08 2.98184385955e-05 -0.00131026154036)
(-3.11532477364e-06 2.95869658555e-05 -0.00130586067184)
(-6.13680756385e-06 2.88996497959e-05 -0.00129280609343)
(-8.99680569872e-06 2.77691973494e-05 -0.00127146537752)
(-1.1621637942e-05 2.621731606e-05 -0.0012424352541)
(-1.39359053723e-05 2.42870357423e-05 -0.00120653390183)
(-1.59256656209e-05 2.20043612903e-05 -0.00116476185127)
(-1.74731125352e-05 1.9541630942e-05 -0.00111807674178)
(1.91246861307e-05 2.13053543263e-05 -0.00126269324701)
(1.72815111148e-05 2.36997751665e-05 -0.00131361444434)
(1.50169427606e-05 2.58854731581e-05 -0.00135901876086)
(1.24389103114e-05 2.77094314984e-05 -0.00139798896938)
(9.57413229741e-06 2.91579696436e-05 -0.00142946902942)
(6.4974026018e-06 3.02026993871e-05 -0.00145259204644)
(3.27794943055e-06 3.08328227826e-05 -0.00146672533429)
(-1.31418623225e-08 3.10425911935e-05 -0.00147148075747)
(-3.30417825298e-06 3.08301187889e-05 -0.00146671473368)
(-6.52348114036e-06 3.01973342137e-05 -0.00145257097422)
(-9.60002079817e-06 2.91500579427e-05 -0.00142943770173)
(-1.24646401043e-05 2.76992147336e-05 -0.00139794764047)
(-1.50425153378e-05 2.58733620269e-05 -0.00135896763749)
(-1.73067334016e-05 2.36863236225e-05 -0.00131355300519)
(-1.91485895647e-05 2.12915124503e-05 -0.0012626204045)
(2.01621833859e-05 2.23330042335e-05 -0.00139945071297)
(1.80622632811e-05 2.45556048988e-05 -0.00145386118119)
(1.5589629569e-05 2.65440347862e-05 -0.00150221377412)
(1.28323853639e-05 2.81809319198e-05 -0.00154366676857)
(9.82746676761e-06 2.94645195069e-05 -0.00157712141618)
(6.6445554864e-06 3.03813785245e-05 -0.00160167565028)
(3.34430841009e-06 3.09307256077e-05 -0.00161667406631)
(-1.41711661955e-08 3.11129180716e-05 -0.00162171737681)
(-3.37260707232e-06 3.0928147218e-05 -0.00161666117297)
(-6.67272713066e-06 3.03762644236e-05 -0.00160165010726)
(-9.85545390765e-06 2.94569800415e-05 -0.0015770836751)
(-1.28601720607e-05 2.81711900726e-05 -0.00154361744305)
(-1.56171740534e-05 2.65324692552e-05 -0.0015021535136)
(-1.80893830201e-05 2.45427040624e-05 -0.00145378974348)
(-2.0188071125e-05 2.23195742462e-05 -0.00139936715217)
(2.06257947628e-05 2.27178956289e-05 -0.00152837217197)
(1.83184233941e-05 2.4699537153e-05 -0.00158554214367)
(1.57068179583e-05 2.64251057204e-05 -0.00163619229933)
(1.28510554218e-05 2.78247305729e-05 -0.00167957316911)
(9.79479788339e-06 2.89072095353e-05 -0.00171454619303)
(6.59922885885e-06 2.96726096544e-05 -0.00174018800998)
(3.31406068818e-06 3.01280920999e-05 -0.00175583716234)
(-1.49833033216e-08 3.02785609414e-05 -0.00176109544345)
(-3.34399503873e-06 3.01256972027e-05 -0.0017558218458)
(-6.62906225102e-06 2.96678576519e-05 -0.0017401577415)
(-9.82446413812e-06 2.89001971589e-05 -0.00171450167545)
(-1.28805030871e-05 2.78156519342e-05 -0.00167951540572)
(-1.57359704875e-05 2.64142930152e-05 -0.00163612242464)
(-1.83471016256e-05 2.46874038694e-05 -0.00158546019069)
(-2.06533609103e-05 2.27050912387e-05 -0.00152827736885)
(2.05992000375e-05 2.2563091293e-05 -0.00164939330789)
(1.81386423251e-05 2.42623474714e-05 -0.00170862471206)
(1.54541492504e-05 2.56884206462e-05 -0.00176097594379)
(1.25724017603e-05 2.68257388224e-05 -0.00180577203878)
(9.539719328e-06 2.76921625327e-05 -0.0018418289498)
(6.40648555217e-06 2.82983660249e-05 -0.00186822242453)
(3.21053130139e-06 2.86566272039e-05 -0.00188430937076)
(-1.56066495305e-08 2.87744923102e-05 -0.0018897096916)
(-3.24172332445e-06 2.86544590797e-05 -0.00188429154429)
(-6.4376041695e-06 2.82940591349e-05 -0.00186818725026)
(-9.57069760286e-06 2.76857916146e-05 -0.00184177737466)
(-1.2603165945e-05 2.68174592053e-05 -0.00180570546024)
(-1.54845970267e-05 2.56785039981e-05 -0.00176089600345)
(-1.81685906863e-05 2.42511266085e-05 -0.00170853168571)
(-2.06281649785e-05 2.25510464657e-05 -0.00164928660856)
(2.01705085049e-05 2.19758421922e-05 -0.00176236894651)
(1.76109315887e-05 2.33692109349e-05 -0.00182302845277)
(1.49140595239e-05 2.44792387575e-05 -0.0018765731867)
(1.20692152545e-05 2.53471713813e-05 -0.00192232063252)
(9.12080627889e-06 2.59977997862e-05 -0.00195903981783)
(6.10718935325e-06 2.6448229551e-05 -0.00198584584572)
(3.05466269917e-06 2.67126162167e-05 -0.00200215166908)
(-1.60708395039e-08 2.679921134e-05 -0.00200761854547)
(-3.08679314251e-06 2.67107077885e-05 -0.00200213129601)
(-6.13927442039e-06 2.64444288094e-05 -0.00198580566923)
(-9.15278581322e-06 2.59921537075e-05 -0.00195898099191)
(-1.21010051882e-05 2.53397879822e-05 -0.00192224492102)
(-1.49455419966e-05 2.44703193303e-05 -0.00187648274936)
(-1.7641917445e-05 2.33590064253e-05 -0.00182292377964)
(-2.02006400519e-05 2.19646734361e-05 -0.00176224958224)
(1.94189493645e-05 2.10504861079e-05 -0.00186700537087)
(1.68148440049e-05 2.21232119991e-05 -0.00192864919962)
(1.4161778975e-05 2.29150714696e-05 -0.00198303597622)
(1.14071117258e-05 2.35200924773e-05 -0.00202931379202)
(8.58990842154e-06 2.39666662926e-05 -0.00206626301917)
(5.73693552208e-06 2.42727346752e-05 -0.00209312080285)
(2.86450615081e-06 2.44511360131e-05 -0.00210941034481)
(-1.64006377164e-08 2.45092702481e-05 -0.00211486255346)
(-2.89730626733e-06 2.4449508643e-05 -0.00210938745475)
(-5.76971792641e-06 2.42694811577e-05 -0.00209307563989)
(-8.6226244532e-06 2.3961806526e-05 -0.00206619686527)
(-1.14396788766e-05 2.35136787241e-05 -0.00202922869533)
(-1.41940723749e-05 2.29072246184e-05 -0.00198293461834)
(-1.68466663619e-05 2.21140965519e-05 -0.00192853236547)
(-1.9450045617e-05 2.10402981032e-05 -0.00186687271001)
(1.84163688974e-05 1.98573482785e-05 -0.00196275998004)
(1.5830439415e-05 2.06142428927e-05 -0.00202553454409)
(1.32724519945e-05 2.1090690532e-05 -0.00208061083334)
(1.06478520117e-05 2.14503614959e-05 -0.00212696236308)
(7.99385595896e-06 2.17118291563e-05 -0.00216364069411)
(5.32693642422e-06 2.18889134825e-05 -0.00219013744135)
(2.65563231478e-06 2.19911184415e-05 -0.00220614587381)
(-1.66162290702e-08 2.20241285615e-05 -0.00221149272417)
(-2.68887100362e-06 2.19897790489e-05 -0.00220612059967)
(-5.36017698162e-06 2.18862248309e-05 -0.00219008749305)
(-8.02706659778e-06 2.17077820621e-05 -0.00216356734537)
(-1.0680967383e-05 2.14449553296e-05 -0.00212686775293)
(-1.33053522779e-05 2.10839623146e-05 -0.0020804980821)
(-1.58629124653e-05 2.06062475168e-05 -0.00202540509763)
(-1.84482464946e-05 1.98481589817e-05 -0.00196261397982)
(1.72309013105e-05 1.86166064018e-05 -0.00204901172336)
(1.47525394987e-05 1.89031741579e-05 -0.00211474534416)
(1.23134013367e-05 1.90838751467e-05 -0.0021699990713)
(9.84278437093e-06 1.92172423212e-05 -0.00221566505481)
(7.36973580307e-06 1.9307790102e-05 -0.00225139905762)
(4.90134417986e-06 1.93656849648e-05 -0.00227703391902)
(2.43996646866e-06 1.9397478828e-05 -0.00229245549281)
(-1.67307453324e-08 1.94072788165e-05 -0.00229759446222)
(-2.47343685972e-06 1.93964319365e-05 -0.00229242818171)
(-4.93482691924e-06 1.93635776609e-05 -0.00227697981192)
(-7.40321028809e-06 1.93045888452e-05 -0.0022513192508)
(-9.87620593205e-06 1.92129075616e-05 -0.00221556143328)
(-1.23466898227e-05 1.90783566461e-05 -0.00216987489605)
(-1.47854617763e-05 1.88964051555e-05 -0.00211460182303)
(-1.72634247411e-05 1.8608488583e-05 -0.00204885556055)
(-1.00752855273e-07 -1.73326119142e-07 -0.000115407813124)
(-5.43404139198e-08 -2.34786079759e-07 -0.000121172516644)
(-2.51376268515e-08 -2.7255642525e-07 -0.00012641030585)
(-5.32080149938e-09 -2.96742987444e-07 -0.000130955629088)
(5.62696339262e-09 -3.11269820643e-07 -0.000134654635269)
(8.64378707048e-09 -3.19171163514e-07 -0.000137385129309)
(5.73724872509e-09 -3.22880741549e-07 -0.000139060932713)
(-4.66935496825e-10 -3.23950819678e-07 -0.000139629417972)
(-6.6559790854e-09 -3.22904235657e-07 -0.000139059894549)
(-9.50783862728e-09 -3.19202268605e-07 -0.00013738306781)
(-6.36867609123e-09 -3.11279662409e-07 -0.000134651580921)
(4.76080202158e-09 -2.96709287493e-07 -0.000130951619238)
(2.48211041986e-08 -2.7241728594e-07 -0.000126405353953)
(5.43374138753e-08 -2.34509968016e-07 -0.000121166513112)
(1.00972261627e-07 -1.72975260492e-07 -0.0001154002061)
(-4.09708141292e-07 -6.00928758676e-07 -0.000335498484763)
(-2.84837924064e-07 -7.76475340717e-07 -0.000351456386914)
(-1.93271274835e-07 -8.99000645614e-07 -0.000365938955953)
(-1.23424802515e-07 -9.85161550761e-07 -0.000378483590809)
(-7.2408320218e-08 -1.04282236697e-06 -0.00038867884034)
(-3.80115545552e-08 -1.07854518375e-06 -0.000396198059955)
(-1.60013678606e-08 -1.09768184986e-06 -0.000400809131084)
(-8.65804338076e-10 -1.10367551949e-06 -0.000402369045877)
(1.43020530045e-08 -1.0977007664e-06 -0.000400805915149)
(3.64231226528e-08 -1.07855425299e-06 -0.00039619167822)
(7.10482317137e-08 -1.04277220102e-06 -0.000388669395569)
(1.22403911507e-07 -9.85014208602e-07 -0.000378471216829)
(1.92701067637e-07 -8.98657514215e-07 -0.000365923726402)
(2.84838984194e-07 -7.75893862946e-07 -0.000351438023226)
(4.1012931615e-07 -6.00225051104e-07 -0.000335475778898)
(-8.17124045924e-07 -1.10750803337e-06 -0.000543250149444)
(-6.26393098259e-07 -1.39011959856e-06 -0.000568134148755)
(-4.71951757832e-07 -1.60283232644e-06 -0.00059066733137)
(-3.43119758456e-07 -1.76083577418e-06 -0.000610151486415)
(-2.35269077768e-07 -1.87292027563e-06 -0.000625966535582)
(-1.45713862009e-07 -1.94658818707e-06 -0.000637620334977)
(-6.97096049806e-08 -1.98809725858e-06 -0.00064476142939)
(-1.2239164847e-09 -2.00146831008e-06 -0.000647173094401)
(6.73070672156e-08 -1.98803802244e-06 -0.000644756036174)
(1.43465600138e-07 -1.94643076302e-06 -0.000637609635711)
(2.3333562615e-07 -1.87260479187e-06 -0.000625950706653)
(3.41676978677e-07 -1.76031969899e-06 -0.000610130761761)
(4.71182290845e-07 -1.60202223286e-06 -0.000590641873554)
(6.26455343974e-07 -1.38898845217e-06 -0.000568103612324)
(8.17838506146e-07 -1.10623486283e-06 -0.000543212903634)
(-1.22982151501e-06 -1.5950210214e-06 -0.000739070729196)
(-9.8422895411e-07 -1.96109093845e-06 -0.000771713640261)
(-7.71847467434e-07 -2.24773156042e-06 -0.000801190095019)
(-5.84988919558e-07 -2.46642274681e-06 -0.000826634445887)
(-4.18070785888e-07 -2.62569339183e-06 -0.000847262227349)
(-2.68372097212e-07 -2.73293201167e-06 -0.000862449736214)
(-1.31314851796e-07 -2.79451712611e-06 -0.000871749657267)
(-1.26033209219e-09 -2.8145519933e-06 -0.000874886438876)
(1.28844501276e-07 -2.79438491412e-06 -0.000871742087141)
(2.66069962838e-07 -2.73263009909e-06 -0.000862434724141)
(4.16105602416e-07 -2.62516686823e-06 -0.000847240029761)
(5.83560542187e-07 -2.46563378319e-06 -0.000826605410752)
(7.71169422735e-07 -2.24660509311e-06 -0.000801154516902)
(9.84468397792e-07 -1.95961560689e-06 -0.000771671224509)
(1.23080173478e-06 -1.59338244963e-06 -0.000739019691179)
(-1.62628673824e-06 -2.04582992e-06 -0.000923464747966)
(-1.3354400508e-06 -2.47395421908e-06 -0.000962802178366)