/*--------------------------------*- C++ -*----------------------------------*\
  =========                 |
  \\      /  F ield         | OpenFOAM: The Open Source CFD Toolbox
   \\    /   O peration     | Website:  https://openfoam.org
    \\  /    A nd           | Version:  7
     \\/     M anipulation  |
\*---------------------------------------------------------------------------*/
FoamFile
{
    version     2.0;
    format      ascii;
    class       volVectorField;
    location    "0.8";
    object      U;
}
// * * * * * * * * * * * * * * * * * * * * * * * * * * * * * * * * * * * * * //

dimensions      [0 1 -1 0 0 0 0];

internalField   nonuniform List<vector> 
22500
(
(2.97744230307e-05 3.30689683347e-05 0.000643136269228)
(2.78983775577e-05 3.70577163335e-05 0.000675231543461)
(2.44744707793e-05 4.12068866606e-05 0.000704619090206)
(2.06340279896e-05 4.47536090941e-05 0.000729943355223)
(1.60675874743e-05 4.77112083526e-05 0.000750421950703)
(1.10071881907e-05 4.99204432371e-05 0.000765460002152)
(5.58094304343e-06 5.12862939578e-05 0.000774653128298)
(-3.5183090618e-08 5.17480901256e-05 0.000777758586992)
(-5.6496431522e-06 5.12840694972e-05 0.000774648668829)
(-1.10709928649e-05 4.99168798823e-05 0.000765451260864)
(-1.61222130546e-05 4.7708512213e-05 0.00075040942938)
(-2.06751729171e-05 4.47539943122e-05 0.000729928750309)
(-2.44976140354e-05 4.1214752166e-05 0.000704604566189)
(-2.79019017472e-05 3.70741012131e-05 0.000675218421648)
(-2.97629024e-05 3.30904822241e-05 0.000643110913502)
(8.53681521325e-05 9.52030303224e-05 0.00157411222026)
(7.97199249768e-05 0.000106425033458 0.00163698355159)
(7.00822685788e-05 0.000117893848231 0.00169376245131)
(5.89475058391e-05 0.000127769947429 0.00174205624006)
(4.58764151209e-05 0.000135990979136 0.00178065777332)
(3.14047906113e-05 0.000142127094745 0.00180874852723)
(1.5920741383e-05 0.000145921022438 0.00182581448488)
(-8.77858174415e-08 0.000147204582766 0.00183155403159)
(-1.60925019191e-05 0.00014591973837 0.00182579923234)
(-3.15650450442e-05 0.00014212647274 0.00180871894049)
(-4.60156349185e-05 0.000135995523963 0.00178061594381)
(-5.90550606871e-05 0.000127783988072 0.00174200755071)
(-7.01475545975e-05 0.000117925328487 0.00169371402806)
(-7.97389851576e-05 0.000106474410666 0.0016369394621)
(-8.53482267002e-05 9.526303098e-05 0.00157404502702)
(0.00012433735371 0.000138718452542 0.00225165455084)
(0.000115453627884 0.000153954326472 0.00232646180633)
(0.000101165975951 0.000169427343126 0.00239316950228)
(8.47517639398e-05 0.00018268083196 0.00244927711867)
(6.57687919497e-05 0.000193660365853 0.00249366861299)
(4.49240738423e-05 0.000201825689598 0.00252571496971)
(2.27471624164e-05 0.000206863856683 0.00254507494943)
(-1.1717976814e-07 0.000208568397553 0.00255156089467)
(-2.29769072116e-05 0.00020686844685 0.00254505079926)
(-4.51397759587e-05 0.000201837041193 0.00252566834454)
(-6.59591063568e-05 0.000193683159698 0.00249360314946)
(-8.49036484191e-05 0.000182719413226 0.0024492009753)
(-0.000101265618232 0.000169487895115 0.00239309420535)
(-0.00011549537639 0.00015403459856 0.00232639465352)
(-0.000124325687578 0.000138808163964 0.00225155972326)
(0.000151077859975 0.000168527780709 0.00274797318728)
(0.000139490540456 0.000185540398136 0.00282385195995)
(0.000121737381349 0.000202812464776 0.00289058882558)
(0.000101560102971 0.000217461254844 0.00294606560833)
(7.85620802277e-05 0.000229533263589 0.00298948966952)
(5.35342125484e-05 0.000238470388892 0.00302057183368)
(2.70680638719e-05 0.000243970133612 0.00303923715751)
(-1.36784106343e-07 0.000245829689781 0.00304546662539)
(-2.73365269522e-05 0.000243980262364 0.00303920935484)
(-5.37870702185e-05 0.000238492749262 0.00302051845029)
(-7.87870857278e-05 0.000229572049767 0.00298941528199)
(-0.000101743368849 0.000217520240616 0.00294597968074)
(-0.000121863703949 0.000202895608735 0.00289050543825)
(-0.000139553596199 0.000185643168639 0.00282378118504)
(-0.0001510791025 0.000168639135318 0.00274787819955)
(0.000168890586954 0.000188404579897 0.0031112156511)
(0.000155100846801 0.000205722899086 0.00318196833271)
(0.000134802427221 0.000223389126707 0.00324325286514)
(0.000112010725903 0.000238201134853 0.00329353882992)
(8.63803409469e-05 0.000250342256112 0.0033324376992)
(5.8725951309e-05 0.00025928942366 0.00336001795178)
(2.96515904589e-05 0.000264780336238 0.00337647019203)
(-1.48582388515e-07 0.000266635493959 0.00338193941091)
(-2.99433773719e-05 0.000264794793065 0.00337644323644)
(-5.90013052386e-05 0.000259320175536 0.00335996656694)
(-8.66267295398e-05 0.000250392721218 0.00333236681111)
(-0.000112214318074 0.000238274237565 0.00329345814589)
(-0.000134948163933 0.000223487271294 0.00324317751418)
(-0.000155182217423 0.000205839704901 0.00318191032598)
(-0.000168906627509 0.000188530178989 0.00311114062673)
(0.000179615347514 0.000200374907415 0.00337529889399)
(0.000164089860468 0.00021694822075 0.00343766558974)
(0.00014201977025 0.00023402651902 0.00349078814385)
(0.000117553853706 0.000248171942302 0.00353374710353)
(9.0388653019e-05 0.000259704056564 0.0035665416917)
(6.13159647205e-05 0.00026816520481 0.00358954539504)
(3.09180383957e-05 0.000273344321659 0.0036031643296)
(-1.54311494199e-07 0.00027509301737 0.00360767261163)
(-3.12212331966e-05 0.000273362003661 0.0036031412498)
(-6.16025892408e-05 0.000268202042525 0.0035895018531)
(-9.06464105495e-05 0.000259762602755 0.0035664825558)
(-0.000117769515735 0.000248254153285 0.0035336817665)
(-0.000142179403168 0.000234133494487 0.00349073193973)
(-0.000164187214106 0.000217072548253 0.00343763145869)
(-0.000179646694262 0.000200508483716 0.0033752542505)
(0.000184672262029 0.000205976181243 0.00356510295258)
(0.000167846656678 0.000221079562329 0.00361774346533)
(0.000144666079216 0.000236896052867 0.0036617861768)
(0.000119298342843 0.000249833948669 0.00369683484751)
(9.14732611462e-05 0.000260325663728 0.003723197571)
(6.19229358788e-05 0.000267992764825 0.00374146522794)
(3.11848682309e-05 0.000272674818468 0.00375218753199)
(-1.5549640849e-07 0.000274254995988 0.00375572070528)
(-3.14905498474e-05 0.00027269454759 0.00375216988441)
(-6.22124646218e-05 0.000268033328255 0.00374143250745)
(-9.17349577105e-05 0.000260388746385 0.00372315442555)
(-0.000119519952988 0.000249920599529 0.00369679022746)
(-0.000144835100697 0.00023700628514 0.00366175533164)
(-0.000167957595113 0.000221205774676 0.00361773920882)
(-0.000184718627422 0.000206112246844 0.00356509257)
(0.000185315330263 0.000206587457764 0.00369934262525)
(0.000167589697961 0.000219773127972 0.00374216496868)
(0.000143854305003 0.000233902445299 0.00377734697665)
(0.000118202938752 0.000245318296533 0.00380486829673)
(9.03944805168e-05 0.000254529429494 0.00382523333995)
(6.10744405165e-05 0.000261238498454 0.00383915152399)
(3.0721719761e-05 0.000265327685175 0.00384724108599)
(-1.53433560151e-07 0.000266707574866 0.00384989338225)
(-3.10235184872e-05 0.000265348280508 0.00384722926235)
(-6.13609166389e-05 0.000261280431345 0.00383913036862)
(-9.06548346657e-05 0.000254593655625 0.0038252073216)
(-0.000118426084337 0.000245405086343 0.00380484608893)
(-0.000144029325752 0.000234011060327 0.00377734376545)
(-0.000167711863111 0.000219896110335 0.00374219242812)
(-0.000185375830195 0.000206721270468 0.00369936600416)
(0.000182600836018 0.000203384022288 0.00379226767588)
(0.000164331210731 0.000214417067283 0.00382595214782)
(0.000140499033363 0.00022661668402 0.00385316320563)
(0.000115047873978 0.000236355363893 0.00387408668187)
(8.77653456829e-05 0.000244178694601 0.00388930134833)
(5.9192743308e-05 0.000249864284346 0.00389954151726)
(2.97433463662e-05 0.000253325476563 0.00390542780942)
(-1.4920833e-07 0.000254493751523 0.00390734723372)
(-3.00370376699e-05 0.000253345830984 0.00390542143913)
(-5.94722291431e-05 0.000249905420304 0.00389953121789)
(-8.80208811149e-05 0.000244241016915 0.00388929156974)
(-0.000115269632777 0.000236438588222 0.00387408611898)
(-0.000140677664108 0.000226719613012 0.00385318710255)
(-0.000164462607068 0.000214532821995 0.00382601001729)
(-0.000182674185918 0.000203511625116 0.00379232133456)
(0.00017738681784 0.000197327844199 0.00385475529316)
(0.000158878163257 0.000206123959931 0.00388041018227)
(0.000135319526585 0.00021627462461 0.00390087543805)
(0.000110441100833 0.000224283004342 0.00391637632387)
(8.40588724341e-05 0.000230695668449 0.00392745368142)
(5.66009121643e-05 0.000235353419334 0.00393478924694)
(2.84131023777e-05 0.000238188467778 0.00393895540081)
(-1.43726012106e-07 0.000239146175619 0.00394030621605)
(-2.8696239329e-05 0.000238207619392 0.0039389537027)
(-5.68711514724e-05 0.000235391921133 0.00393478829925)
(-8.43075904253e-05 0.000230753557222 0.00392745809386)
(-0.000110659768309 0.000224359707346 0.00391639509266)
(-0.0001355002489 0.000216368791776 0.00390092394215)
(-0.000159017373222 0.000206229535071 0.00388049469792)
(-0.000177471831778 0.000197446242499 0.00385483347024)
(0.000170361655552 0.000189199907686 0.00389508188457)
(0.000151862737777 0.00019577006921 0.00391400258161)
(0.00012887147648 0.000203828500154 0.00392904882613)
(0.000104848781356 0.000210114417345 0.00394033851083)
(7.96338814424e-05 0.000215144435663 0.00394828707502)
(5.35413912005e-05 0.000218805179243 0.00395346976178)
(2.68526224562e-05 0.000221036342388 0.00395637822264)
(-1.3771549803e-07 0.000221791180433 0.00395731630464)
(-2.71241893309e-05 0.000221053538408 0.00395638021947)
(-5.38014683998e-05 0.000218839614529 0.00395347623767)
(-7.98749745391e-05 0.000215195973018 0.00394830288562)
(-0.000105063594669 0.000210182427733 0.0039403730938)
(-0.000129053427382 0.000203911784312 0.00392911765751)
(-0.000152008655991 0.000195863556238 0.00391410758886)
(-0.000170457364626 0.000189307305657 0.00389517630687)
(0.000162070672736 0.000179635745977 0.00391953164931)
(0.000143774985641 0.000184031010762 0.00393304916798)
(0.000121583287386 0.000189995048304 0.00394394859468)
(9.86274984365e-05 0.00019460351505 0.00395213022171)
(7.47598425785e-05 0.000198309627537 0.00395783728537)
(5.01927292633e-05 0.000201022369269 0.00396151437267)
(2.51502730167e-05 0.000202680656774 0.00396355831283)
(-1.31745374587e-07 0.000203243054693 0.00396421526525)
(-2.54103785948e-05 0.000202695339034 0.00396356287165)
(-5.04427842035e-05 0.000201051746643 0.00396152592989)
(-7.49934100585e-05 0.000198353519025 0.00395786081001)
(-9.88384023431e-05 0.000194661422776 0.0039521754694)
(-0.00012176604241 0.000190066123941 0.00394403103366)
(-0.000143926662737 0.000184111207613 0.00393316548903)
(-0.000162176188803 0.000179730550416 0.00391963050383)
(0.000152931935284 0.000169122290875 0.00393294379947)
(0.000135006818286 0.000171394234475 0.00394235021728)
(0.000113799947615 0.000175298788466 0.0039502098539)
(9.20541083636e-05 0.000178307949922 0.00395616726702)
(6.96354384771e-05 0.000180768365762 0.00396031024793)
(4.66807191229e-05 0.000182586805396 0.00396296376851)
(2.33666384285e-05 0.000183702850593 0.00396443243485)
(-1.26264301249e-07 0.000184082325187 0.00396490440761)
(-2.36162207809e-05 0.000183714726692 0.00396443815416)
(-4.6921634626e-05 0.000182610615819 0.0039629773379)
(-6.9862242196e-05 0.000180803928401 0.0039603362326)
(-9.22615681036e-05 0.000178355052875 0.00395621513555)
(-0.000113983480123 0.000175357075372 0.0039502949799)
(-0.000135163620543 0.000171460656298 0.00394246442161)
(-0.000153046483207 0.000169203494215 0.00393303167238)
(0.000143311074213 0.000157978756009 0.00393928510688)
(0.000125954088094 0.000158192799065 0.00394580333052)
(0.000105822706876 0.000160107750764 0.00395144418703)
(8.53300424181e-05 0.00016164926765 0.00395572741697)
(6.43863562578e-05 0.000162952377134 0.00395869154207)
(4.30778744442e-05 0.000163925442333 0.00396058513473)
(2.15349491809e-05 0.00016452361357 0.00396163426211)
(-1.21532519333e-07 0.000164727809762 0.00396197250295)
(-2.17754822183e-05 0.000164532694588 0.00396163932955)
(-4.33110649766e-05 0.000163943679583 0.0039605965757)
(-6.46075929618e-05 0.000162979748642 0.00395871241849)
(-8.55347674477e-05 0.00016168579759 0.00395576526773)
(-0.000106007021478 0.000160153470573 0.00395151362716)
(-0.000126115420931 0.000158245862433 0.00394589496156)
(-0.00014343416982 0.00015804676831 0.0039393437528)
(0.000133758780155 0.000146351746837 0.00394238816742)
(0.000117116377277 0.000143779900011 0.00394704472071)
(9.78064055084e-05 0.00014421866314 0.00395075172365)
(7.85275207425e-05 0.000144539909043 0.00395344502327)
(5.90417187897e-05 0.000144848860613 0.0039552481063)
(3.93984481595e-05 0.00014508024422 0.00395638149037)
(1.96620686818e-05 0.000145221897547 0.00395700778232)
(-1.17612843019e-07 0.00014527155939 0.00395721051132)
(-1.98951509176e-05 0.000145228375482 0.00395701052855)
(-3.96253270257e-05 0.000145093227265 0.00395638682539)
(-5.92585770659e-05 0.000144868465015 0.00395525612988)
(-7.87304484408e-05 0.000144566204249 0.00395345827705)
(-9.79915894301e-05 0.000144252191159 0.00395078185562)
(-0.000117280904463 0.000143819446935 0.00394707250752)
(-0.000133889783589 0.000146406284581 0.0039424198341)
(1.00658163752e-06 1.58097493086e-06 0.000410912937749)
(6.92090646874e-07 2.00863049139e-06 0.000431798812105)
(5.75882765632e-07 2.26642326338e-06 0.000450962663218)
(4.34357446947e-07 2.47926856538e-06 0.000467579620037)
(3.06845472561e-07 2.63576596213e-06 0.000481070269678)
(2.02842609496e-07 2.73909616835e-06 0.000491001999604)
(1.16322966943e-07 2.79811545453e-06 0.000497085806697)
(4.03414799311e-08 2.81913144216e-06 0.000499148618215)
(-3.87828656159e-08 2.80365358686e-06 0.000497090129239)
(-1.34917465621e-07 2.74855301668e-06 0.000491009819785)
(-2.55187990287e-07 2.64616476113e-06 0.000481079944453)
(-4.02407821568e-07 2.48753350069e-06 0.000467588984004)
(-5.63770722022e-07 2.26788391951e-06 0.000450970273855)
(-6.96084909087e-07 2.00295073336e-06 0.000431799711808)
(-1.01749362366e-06 1.56893729186e-06 0.000410890736617)
(8.86356604253e-06 1.06874920925e-05 0.00115773614148)
(7.87855688623e-06 1.29044010585e-05 0.00121280015583)
(7.09551446909e-06 1.48352705866e-05 0.00126326142171)
(6.04372402678e-06 1.65610038673e-05 0.0013069253505)
(4.76045673108e-06 1.79780860725e-05 0.00134229734205)
(3.30707572526e-06 1.90266315785e-05 0.00136829383716)
(1.73053166232e-06 1.96725977011e-05 0.00138419628472)
(9.12816836639e-08 1.98947610951e-05 0.0013895739629)
(-1.55498064515e-06 1.96840510967e-05 0.00138420737392)
(-3.15293972693e-06 1.90462244888e-05 0.00136831377315)
(-4.64220181541e-06 1.79996540611e-05 0.00134232171953)
(-5.97032499904e-06 1.65778887882e-05 0.0013069487299)
(-7.06734670448e-06 1.48376034728e-05 0.00126328011003)
(-7.88744741917e-06 1.28906486883e-05 0.00121280114584)
(-8.88917892925e-06 1.06587138204e-05 0.00115768124823)
(2.00702487521e-05 2.30452112761e-05 0.00183230933021)
(1.82245883988e-05 2.73656184651e-05 0.00191410675434)
(1.6446078805e-05 3.13201217064e-05 0.00198870954525)
(1.40617853025e-05 3.48697231455e-05 0.00205295247748)
(1.11083981762e-05 3.78064761006e-05 0.00210476059083)
(7.71012739675e-06 3.99946352771e-05 0.00214269724921)
(3.99125612233e-06 4.13472643704e-05 0.00216583923466)
(1.07012244155e-07 4.18092734782e-05 0.00217364429442)
(-3.78543782702e-06 4.13593118959e-05 0.00216585262081)
(-7.52928726138e-06 4.00151995368e-05 0.00214272100511)
(-1.09690828397e-05 3.78291340348e-05 0.00210478927868)
(-1.39748835821e-05 3.48873256455e-05 0.00205297987149)
(-1.6412438871e-05 3.13226902505e-05 0.0019887315778)
(-1.82342329823e-05 2.73498616986e-05 0.00191410730297)
(-2.01000019637e-05 2.3011739677e-05 0.00183223421846)
(3.23630157675e-05 3.62436698637e-05 0.00243143038197)
(2.94612752275e-05 4.25418210183e-05 0.00253155545754)
(2.65096308035e-05 4.83275010693e-05 0.00262215544507)
(2.26127075803e-05 5.35132133699e-05 0.00269960383109)
(1.78287803237e-05 5.77975848323e-05 0.0027616433155)
(1.23426204402e-05 6.09863149807e-05 0.00280682440084)
(6.35376413355e-06 6.2955017949e-05 0.00283427546867)
(1.05721317929e-07 6.3624745557e-05 0.00284350696357)
(-6.15040139747e-06 6.29660637208e-05 0.00283428828216)
(-1.21637433247e-05 6.10051384219e-05 0.0028068471132)
(-1.76904156443e-05 5.78184071392e-05 0.00276167121818)
(-2.25259177004e-05 5.35293263096e-05 0.00269963211614)
(-2.6476079688e-05 4.83301616158e-05 0.00262218149237)
(-2.94709800688e-05 4.25265099331e-05 0.00253156359755)
(-3.23935485487e-05 3.62099838377e-05 0.00243135776685)
(4.42502720877e-05 4.87257465509e-05 0.00295114893055)
(4.0164553269e-05 5.66583082217e-05 0.00306103481979)
(3.59889991842e-05 6.38393663833e-05 0.00315945253665)
(3.05757043293e-05 7.02540170073e-05 0.00324280604851)
(2.40295471584e-05 7.55314484618e-05 0.00330901566678)
(1.65857945841e-05 7.94454087906e-05 0.00335690340845)
(8.50421068449e-06 8.18555187059e-05 0.00338585471298)
(9.47626466962e-08 8.26727657858e-05 0.00339555995515)
(-8.3218997932e-06 8.18648354572e-05 0.00338586573153)
(-1.64252484175e-05 7.94612993288e-05 0.00335692336482)
(-2.39049208657e-05 7.55490763743e-05 0.00330904176243)
(-3.04971771671e-05 7.0267613959e-05 0.00324283629887)
(-3.59588781409e-05 6.38416367629e-05 0.00315948717026)
(-4.01744479768e-05 5.66447774051e-05 0.00306106033983)
(-4.42798284382e-05 4.86941055382e-05 0.00295109771206)
(5.48630765962e-05 5.96430068567e-05 0.00339089604845)
(4.95431508777e-05 6.87724466285e-05 0.00350282352731)
(4.41769606345e-05 7.6827773627e-05 0.00360187506296)
(3.73547813237e-05 8.39919755749e-05 0.00368487248133)
(2.9245859776e-05 8.98512774058e-05 0.00375016290602)
(2.01224018877e-05 9.41757528388e-05 0.0037970113106)
(1.02839722821e-05 9.6829475327e-05 0.00382517238323)
(7.94812559474e-08 9.77266205946e-05 0.00383458081722)
(-1.01310169414e-05 9.68366425021e-05 0.0038251818976)
(-1.99875217988e-05 9.41879727481e-05 0.00379702947172)
(-2.91407738151e-05 8.98647626443e-05 0.00375018934609)
(-3.72883535876e-05 8.40021520677e-05 0.00368490861589)
(-4.41518087259e-05 7.6828869277e-05 0.00360192468515)
(-4.95532565869e-05 6.87604743567e-05 0.00350287563622)
(-5.48911129018e-05 5.96142332588e-05 0.00339087889165)
(6.3695099292e-05 6.85396496538e-05 0.00375392140448)
(5.71674108984e-05 7.840095696e-05 0.00386167552583)
(5.07061531347e-05 8.68123355821e-05 0.00395578726099)
(4.26569085847e-05 9.4254973256e-05 0.00403373485565)
(3.32597186468e-05 0.000100297841587 0.00409440668307)
(2.28095014698e-05 0.000104732162255 0.00413756049463)
(1.16238635047e-05 0.0001074423604 0.0041633370751)
(6.33258813717e-08 0.000108355883655 0.00417191826665)
(-1.15019546125e-05 0.000107447294485 0.00416334618508)
(-2.27018480547e-05 0.000104740504345 0.00413757914504)
(-3.31755921837e-05 0.000100306833115 0.00409443696848)
(-4.26037152538e-05 9.42611905748e-05 0.00403378159603)
(-5.06867110301e-05 8.68116101775e-05 0.00395585788461)
(-5.71777839744e-05 7.8389700397e-05 0.00386176095578)
(-6.37216978114e-05 6.85137714656e-05 0.00375394537073)
(7.0505597106e-05 7.52331704217e-05 0.00404644186567)
(6.28640861463e-05 8.53804282133e-05 0.00414556588415)
(5.54499155554e-05 9.36898483162e-05 0.00423096044006)
(4.64009553695e-05 0.000100998173008 0.00430084550106)
(3.60243291664e-05 0.000106881783602 0.00435464205274)
(2.46241290363e-05 0.000111171158201 0.00439255088016)
(1.25158827781e-05 0.000113781139413 0.00441504213023)
(4.8241591717e-08 0.000114658273292 0.00442250219608)
(-1.24229945553e-05 0.000113783957859 0.00441505205953)
(-2.45420362526e-05 0.000111175765131 0.00439257236544)
(-3.59601140296e-05 0.000106886313607 0.0043546794083)
(-4.63605905616e-05 0.000101000262736 0.00430090661883)
(-5.54362937027e-05 9.36867385507e-05 0.00423105603718)
(-6.28749720169e-05 8.53691255394e-05 0.00414568762305)
(-7.05308450714e-05 7.52092938175e-05 0.00404650868176)
(7.52536401306e-05 7.97395252456e-05 0.00427650205541)
(6.66438139891e-05 8.97757180115e-05 0.0043642459038)
(5.8448521971e-05 9.76139595276e-05 0.00443882264509)
(4.86483678093e-05 0.000104457278659 0.00449914612939)
(3.76054674758e-05 0.000109912657092 0.00454507056888)
(2.56208067069e-05 0.000113861106038 0.00457712621087)
(1.29910607705e-05 0.000116252217058 0.00459601298702)
(3.51120384788e-08 0.000117053407985 0.00460225452233)
(-1.2923474555e-05 0.00011625313828 0.00459602460275)
(-2.55611383268e-05 0.000113862310799 0.00457715206307)
(-3.75589761691e-05 0.000109912982915 0.00454511681399)
(-4.86197455906e-05 0.000104455253193 0.00449922323415)
(-5.84405167086e-05 9.76079361342e-05 0.00443894401151)
(-6.66554995338e-05 8.97633733692e-05 0.00436440245162)
(-7.52777099006e-05 7.9716392442e-05 0.00427660810453)
(7.80377252227e-05 8.22076786072e-05 0.00445294936982)
(6.86374106076e-05 9.17979006513e-05 0.00452803740876)
(5.98462209443e-05 9.88904828544e-05 0.00459108198117)
(4.95452901482e-05 0.000105023604798 0.00464154322983)
(3.81333768719e-05 0.000109856841419 0.00467955931309)
(2.58972044421e-05 0.0001133271306 0.00470585113916)
(1.31017208356e-05 0.000115418227055 0.00472123632165)
(2.41449837609e-08 0.00011611680888 0.00472630279598)
(-1.30553227529e-05 0.000115417521542 0.00472124983932)
(-2.58564816589e-05 0.000113325363249 0.00470588152241)
(-3.81021419564e-05 0.000109853350768 0.00467961409488)
(-4.95271129846e-05 0.000105017591541 0.00464163485923)
(-5.98435293673e-05 9.88811331979e-05 0.0045912258185)
(-6.86500313851e-05 9.1783500822e-05 0.00452822208526)
(-7.80607729e-05 8.2183904639e-05 0.0044530853464)
(7.90433837302e-05 8.28656586693e-05 0.00458466746901)
(6.90439265206e-05 9.17376177533e-05 0.00464699444816)
(5.9842589151e-05 9.78942286461e-05 0.00469882453437)
(4.927991478e-05 0.00010314801204 0.00473995633983)
(3.77686864958e-05 0.000107232119086 0.00477065664108)
(2.55703632627e-05 0.000110139255672 0.00479170939943)
(1.29093628935e-05 0.00011188229725 0.00480395072285)
(1.5172188097e-08 0.000112462905495 0.00480796904948)
(-1.28803586994e-05 0.00011188027213 0.00480396549654)
(-2.55453796129e-05 0.000110135029256 0.00479174267628)
(-3.77504365908e-05 0.00010722533857 0.00477071674271)
(-4.9271012778e-05 0.000103138307947 0.0047400570146)
(-5.98449904848e-05 9.78813249428e-05 0.00469898240876)
(-6.90577146856e-05 9.17202581099e-05 0.0046471944889)
(-7.90654613655e-05 8.28398082897e-05 0.00458481744201)
(7.84962930609e-05 8.19749291058e-05 0.00468010116261)
(6.80886556665e-05 8.99090718254e-05 0.00473043878928)
(5.86581888603e-05 9.50024691277e-05 0.00477205523489)
(4.80556603567e-05 9.926993578e-05 0.00480486626844)
(3.66821459811e-05 0.000102535030803 0.00482915482069)
(2.47629024654e-05 0.000104838968496 0.00484568426117)
(1.24777315852e-05 0.000106214176781 0.00485524148447)
(7.86345607296e-09 0.000106670964626 0.00485837007348)
(-1.24629524235e-05 0.000106211190059 0.00485525581308)
(-2.47509722983e-05 0.000104832896876 0.00484571655373)
(-3.66749691067e-05 0.000102525653652 0.00482921337536)
(-4.80550515659e-05 9.92571188089e-05 0.00480496528899)
(-5.86655612933e-05 9.49862076448e-05 0.00477221218308)
(-6.81039707039e-05 8.98884721357e-05 0.00473063432553)
(-7.85176478412e-05 8.19463784161e-05 0.00468024138019)
(7.6616706351e-05 7.97819775134e-05 0.0047470636895)
(6.59938369878e-05 8.65956007224e-05 0.00478683345684)
(5.65209831054e-05 9.0544923501e-05 0.00481960059169)
(4.608414154e-05 9.37712889522e-05 0.00484524215199)
(3.50494737976e-05 9.6199616311e-05 0.00486404991582)
(2.35992579114e-05 9.79009992582e-05 0.00487675197043)
(1.18708173047e-05 9.89131322345e-05 0.00488405834338)
(1.88166941136e-09 9.92485904297e-05 0.00488644395263)
(-1.18677367506e-05 9.89095759134e-05 0.00488406933734)
(-2.35982312902e-05 9.78937724688e-05 0.00487677682566)
(-3.50517953226e-05 9.61885741543e-05 0.00486409569824)
(-4.60909510381e-05 9.37562845453e-05 0.00484532225118)
(-5.6533101717e-05 9.05260392308e-05 0.00481973328506)
(-6.60108584696e-05 8.65721270167e-05 0.00478699675057)
(-7.66375070603e-05 7.9750943972e-05 0.00474716400379)
(7.36187474635e-05 7.65016882849e-05 0.00479280681176)
(6.30074569253e-05 8.21360165237e-05 0.00482394899665)
(5.3701936234e-05 8.4846607823e-05 0.00484925698031)
(4.36044917705e-05 8.70120198857e-05 0.00486869874171)
(3.30606427548e-05 8.86212397344e-05 0.00488274082197)
(2.22091877448e-05 8.97444637666e-05 0.00489212621409)
(1.11539862737e-05 9.04112982162e-05 0.00489749190101)
(-3.06517173986e-09 9.06316962938e-05 0.00489923790449)
(-1.1160625997e-05 9.0407586747e-05 0.00489749564279)
(-2.22172795565e-05 8.97369151311e-05 0.00489213492184)
(-3.30710625274e-05 8.86096377051e-05 0.00488275853457)
(-4.36178602727e-05 8.69961336305e-05 0.00486873556281)
(-5.37184652051e-05 8.48263950837e-05 0.0048493313363)
(-6.3026129875e-05 8.2110748588e-05 0.00482404273078)
(-7.36390468305e-05 7.64687481969e-05 0.00479283473526)
(6.95933026244e-05 7.34511193427e-05 0.00482447501198)
(5.94252914715e-05 7.70424359707e-05 0.00484932778258)
(5.04738270589e-05 7.83213276362e-05 0.00486797853137)
(4.08379264197e-05 7.93793624956e-05 0.00488169401562)
(3.08835334503e-05 8.01409811431e-05 0.00489130392433)
(2.07040309861e-05 8.06672730221e-05 0.00489760532301)
(1.03825427728e-05 8.09768060058e-05 0.00490116800539)
(-7.19218413572e-09 8.10780706461e-05 0.00490231909497)
(-1.03972714151e-05 8.09735431708e-05 0.00490116090763)
(-2.0719746674e-05 8.06606497956e-05 0.00489758994144)
(-3.09007212124e-05 8.01306735981e-05 0.00489127933783)
(-4.08567777694e-05 7.93650403102e-05 0.00488166284575)
(-5.0494205539e-05 7.83025998109e-05 0.0048679561676)
(-5.94451153193e-05 7.70182476984e-05 0.00484928992439)
(-6.96131092751e-05 7.34194510652e-05 0.00482442873613)
(-9.05877076597e-08 -3.37148874037e-07 0.000289057548029)
(1.39341661159e-07 -5.44679641451e-07 0.000304088391361)
(3.31253267771e-07 -6.56732633879e-07 0.000318064389778)
(4.30057765117e-07 -6.78884171015e-07 0.000330334571418)
(4.32634836556e-07 -6.48409762471e-07 0.00034037610441)
(3.42573721323e-07 -5.97433909434e-07 0.00034780707224)
(1.86056688451e-07 -5.5474585624e-07 0.000352372778546)
(-5.52196448289e-09 -5.38730036592e-07 0.000353922379772)
(-1.96207283484e-07 -5.5581639775e-07 0.000352371172643)
(-3.50281613006e-07 -5.99451898214e-07 0.00034780421914)
(-4.37581486825e-07 -6.51361891954e-07 0.000340372385916)
(-4.34259922606e-07 -6.82973729133e-07 0.000330329619962)
(-3.35807455793e-07 -6.60914552721e-07 0.00031805637322)
(-1.43877582274e-07 -5.49291935759e-07 0.000304073386387)
(8.68071932619e-08 -3.40641051832e-07 0.000289021338764)
(7.87230568126e-07 3.2673957578e-07 0.000857634749406)
(1.28731343071e-06 8.48081357476e-08 0.000901088396853)
(1.68281443308e-06 7.77738262417e-08 0.000941585826311)
(1.81518411983e-06 2.72978723523e-07 0.000977156067145)
(1.67253878968e-06 5.61957480908e-07 0.00100627492832)
(1.27142986236e-06 8.50596393423e-07 0.00102783000441)
(6.82537511284e-07 1.05797342173e-06 0.00104107308027)
(-5.66614074475e-09 1.13259276126e-06 0.00104555795775)
(-6.92580604566e-07 1.05600348239e-06 0.00104107107619)
(-1.27811197802e-06 8.46551695403e-07 0.00102782673439)
(-1.67612535296e-06 5.55430963916e-07 0.00100627090421)
(-1.81973864945e-06 2.63400316225e-07 0.000977149500471)
(-1.69111828171e-06 6.70215292289e-08 0.000941570948532)
(-1.29795252297e-06 7.24390056078e-08 0.000901052793779)
(-7.97085032864e-07 3.16090946056e-07 0.000857544502003)
(2.83682954768e-06 2.41315163821e-06 0.00140920790507)
(3.44090310087e-06 2.5077674042e-06 0.00147885369836)
(3.86168092161e-06 2.93596579447e-06 0.00154370734078)
(3.85020012905e-06 3.61571335655e-06 0.00160059509329)
(3.39000726477e-06 4.36542941838e-06 0.00164710702134)
(2.51486630702e-06 5.03067794158e-06 0.00168150213127)
(1.3372209946e-06 5.4836844283e-06 0.00170261461966)
(-5.67471491385e-10 5.64373127822e-06 0.00170975324108)
(-1.33751829069e-06 5.48182168906e-06 0.00170261492223)
(-2.51318283734e-06 5.02632464186e-06 0.0016815034452)
(-3.38757934068e-06 4.35735648367e-06 0.00164710947436)
(-3.85186754481e-06 3.60283514119e-06 0.00160059545571)
(-3.87088022701e-06 2.92005849205e-06 0.00154369685648)
(-3.45593485461e-06 2.48908680819e-06 0.00147881300383)
(-2.8519412711e-06 2.39514727998e-06 0.00140908750328)
(6.15717913589e-06 5.97421101132e-06 0.00193780991241)
(6.72252394179e-06 6.72921333765e-06 0.00203023960515)
(6.99748064526e-06 7.87741028851e-06 0.00211599767156)
(6.65715190897e-06 9.27303784317e-06 0.00219097050093)
(5.68808574202e-06 1.06572571262e-05 0.0022520822286)
(4.14623079626e-06 1.18181972769e-05 0.00229715998286)
(2.1866580489e-06 1.25857883751e-05 0.00232477604461)
(5.93513399159e-09 1.28538987047e-05 0.00233409760792)
(-2.17473463216e-06 1.2584564237e-05 0.0023247794185)
(-4.13458867767e-06 1.18147040619e-05 0.00229716729298)
(-5.67897163826e-06 1.06496133896e-05 0.00225209334312)
(-6.65550770567e-06 9.25957996677e-06 0.00219098171069)
(-7.00661668113e-06 7.85912205922e-06 0.00211599922922)
(-6.74063574677e-06 6.70653903076e-06 0.00203020797259)
(-6.17660662559e-06 5.95017048002e-06 0.00193768477935)
(1.0412480459e-05 1.05815788986e-05 0.00243554205464)
(1.08104622103e-05 1.2167923768e-05 0.00254601113027)
(1.0793161289e-05 1.41607409537e-05 0.00264786334575)
(9.97452676888e-06 1.63557284297e-05 0.00273642743597)
(8.35442140192e-06 1.84220307757e-05 0.00280826941931)
(6.01452588522e-06 2.01015844044e-05 0.00286105131781)
(3.15090631106e-06 2.11925364985e-05 0.00289329187807)
(1.041913073e-08 2.15707031677e-05 0.0029041524242)
(-3.13070610829e-06 2.11920358936e-05 0.00289329813872)
(-5.99655439352e-06 2.00993069213e-05 0.00286106442943)
(-8.34162001179e-06 1.84157101919e-05 0.0028082895534)
(-9.97156739569e-06 1.63432027997e-05 0.00273645168822)
(-1.08028819347e-05 1.41420336399e-05 0.0026478829819)
(-1.083093928e-05 1.21430563322e-05 0.0025460007159)
(-1.04354317848e-05 1.05533286456e-05 0.00243543256869)
(1.5203726424e-05 1.57612125741e-05 0.00289434227145)
(1.53211853633e-05 1.82060110695e-05 0.00301710487551)
(1.48945103669e-05 2.10200965596e-05 0.00312932288328)
(1.34921976177e-05 2.39624935679e-05 0.00322620671049)
(1.11385786911e-05 2.66446770855e-05 0.00330430132482)