/*--------------------------------*- C++ -*----------------------------------*\
  =========                 |
  \\      /  F ield         | OpenFOAM: The Open Source CFD Toolbox
   \\    /   O peration     | Website:  https://openfoam.org
    \\  /    A nd           | Version:  7
     \\/     M anipulation  |
\*---------------------------------------------------------------------------*/
FoamFile
{
    version     2.0;
    format      ascii;
    class       surfaceScalarField;
    location    "2.2";
    object      phi;
}
// * * * * * * * * * * * * * * * * * * * * * * * * * * * * * * * * * * * * * //

dimensions      [0 3 -1 0 0 0 0];

internalField   nonuniform List<scalar> 
65775
(
5.34114733065e-11
7.43537501442e-09
1.50797644564e-09
-7.05799035226e-13
7.6610575621e-11
7.76882781953e-09
1.66905734584e-09
8.91380422206e-11
8.04489983316e-09
1.82234354393e-09
8.65475137829e-11
8.28338331846e-09
1.95998545847e-09
7.16453266757e-11
8.47221359332e-09
2.07500299065e-09
4.68867007721e-11
8.61003629815e-09
2.16171889029e-09
1.58891981958e-11
8.69670864647e-09
2.21642809933e-09
-1.72930864896e-11
8.72992615024e-09
2.23607845171e-09
-4.82130573925e-11
8.69716074352e-09
2.21642921116e-09
-7.28097029828e-11
8.61093381483e-09
2.16172140301e-09
-8.74333711855e-11
8.47352884743e-09
2.07500535473e-09
-8.96640837938e-11
8.28495657077e-09
1.95998651274e-09
-7.66918148371e-11
8.04658298373e-09
1.82234353858e-09
-5.31433079141e-11
7.77026717269e-09
1.66905257885e-09
7.43623148909e-09
1.50794266537e-09
-2.85588353025e-13
1.32949316578e-10
1.22694445383e-08
3.60428461987e-09
-1.65444847273e-12
2.13546191182e-10
1.27546195233e-08
3.9662893396e-09
2.49841150973e-10
1.31499870122e-08
4.30730597805e-09
2.44736532324e-10
1.3484293321e-08
4.61097236965e-09
2.03133197083e-10
1.37466306325e-08
4.86293174153e-09
1.33196704848e-10
1.39364095591e-08
5.05188540351e-09
4.53019273172e-11
1.40557548807e-08
5.17073789393e-09
-4.86531646877e-11
1.41022243054e-08
5.21341712989e-09
-1.36354341837e-10
1.40567781854e-08
5.17073076135e-09
-2.05886873835e-10
1.39384318045e-08
5.05187447322e-09
-2.46837783484e-10
1.37495754405e-08
4.86291496104e-09
-2.51078316273e-10
1.34878753665e-08
4.61094969926e-09
-2.13787249037e-10
1.31538147078e-08
4.30728096852e-09
-1.32380784319e-10
1.27580098517e-08
3.96625515766e-09
1.22717000153e-08
3.60419200942e-09
-6.93965363892e-13
1.92558099221e-10
1.51770899144e-08
5.04629171643e-09
-2.29406624904e-12
3.17751153149e-10
1.5696638781e-08
5.53843163188e-09
3.71737183427e-10
1.61167830155e-08
5.99834831728e-09
3.63879680204e-10
1.64610569205e-08
6.40530801031e-09
3.01593295327e-10
1.67281028706e-08
6.74115985446e-09
1.9754967554e-10
1.6919006223e-08
6.99199169259e-09
6.71989926044e-11
1.70390715928e-08
7.14932457414e-09
-7.19509446809e-11
1.70867886264e-08
7.20573869987e-09
-2.02020011473e-10
1.70404799051e-08
7.14931185405e-09
-3.05481010752e-10
1.69217771472e-08
6.99196821399e-09
-3.6685378626e-10
1.67321144041e-08
6.74112545237e-09
-3.73506347767e-10
1.64659528826e-08
6.40526510039e-09
-3.18168797023e-10
1.61220101785e-08
5.9983042138e-09
-1.91856589821e-10
1.57013683793e-08
5.53838065754e-09
1.51804367722e-08
5.04616959182e-09
-1.01317227427e-12
2.38650244151e-10
1.66407430704e-08
6.01910837646e-09
-2.70643785087e-12
3.96344234439e-10
1.71229209979e-08
6.59461698346e-09
4.63717122979e-10
1.75108913762e-08
7.12804485426e-09
4.5305022689e-10
1.78163661822e-08
7.59699339764e-09
3.7483561779e-10
1.80493240767e-08
7.98189697527e-09
2.45200364084e-10
1.82132084108e-08
8.26815887299e-09
8.34013962154e-11
1.83163338605e-08
8.44718843609e-09
-8.90947117995e-11
1.83585274845e-08
8.51126716252e-09
-2.50547587012e-10
1.83179678447e-08
8.44717626979e-09
-3.79474916414e-10
1.8216414773e-08
8.26813330948e-09
-4.56604860843e-10
1.80539414483e-08
7.98185812415e-09
-4.65864412201e-10
1.78220074386e-08
7.59694583652e-09
-3.96934498043e-10
1.75169426679e-08
7.12799921829e-09
-2.37940219087e-10
1.71284981972e-08
6.59457105603e-09
1.66449351604e-08
6.01899535156e-09
-1.26908172378e-12
2.72942295992e-10
1.70424433181e-08
6.62155283488e-09
-2.94158093017e-12
4.54171091786e-10
1.74472563412e-08
7.24598370942e-09
5.31529011975e-10
1.77735997985e-08
7.81986094376e-09
5.18511216258e-10
1.80174764198e-08
8.32095986744e-09
4.28378392766e-10
1.8198962338e-08
8.72995446527e-09
2.79919553355e-10
1.8323764016e-08
9.03282272837e-09
9.52171257457e-11
1.84024220233e-08
9.22164798969e-09
-1.01481082436e-10
1.84360302106e-08
9.28908368411e-09
-2.85795758007e-10
1.84041471749e-08
9.22163470771e-09
-4.33470847553e-10
1.83271405465e-08
9.0327965302e-09
-5.22424733242e-10
1.82038071661e-08
8.72991740654e-09
-5.33938198544e-10
1.80233986648e-08
8.32091884086e-09
-4.5493333767e-10
1.77799986697e-08
7.81982893932e-09
-2.72312246946e-10
1.74532519961e-08
7.24596130684e-09
1.70471822894e-08
6.62147464864e-09
-1.47614473174e-12
2.97998137939e-10
1.66855081828e-08
6.92977640099e-09
-3.04216859084e-12
4.95471111202e-10
1.69959093519e-08
7.57832553427e-09
5.79843290518e-10
1.72502089413e-08
8.16931543958e-09
5.64891802412e-10
1.74269834426e-08
8.68185009529e-09
4.66139214456e-10
1.75538035012e-08
9.09787093039e-09
3.04324052174e-10
1.76380086127e-08
9.40463532972e-09
1.03539746417e-10
1.76913018862e-08
9.59527898802e-09
-1.10092315379e-10
1.77157137772e-08
9.66318229513e-09
-3.104673887e-10
1.76930151981e-08
9.59526751235e-09
-4.71463699458e-10
1.76413552092e-08
9.40461424027e-09
-5.69004108213e-10
1.7558591716e-08
9.09784395483e-09
-5.82429947635e-10
1.74328403296e-08
8.68182590345e-09
-4.96407080532e-10
1.72565767166e-08
8.16930856974e-09
-2.97512413317e-10
1.70019928762e-08
7.57833810282e-09
1.66905281218e-08
6.9297439902e-09
-1.64073550725e-12
3.16227040753e-10
1.58083786995e-08
7.00627915913e-09
-3.04464713019e-12
5.24063752562e-10
1.60234217899e-08
7.66201544776e-09
6.12871587462e-10
1.62073422978e-08
8.25469074191e-09
5.96276265672e-10
1.6321978495e-08
8.76534191069e-09
4.91516770198e-10
1.63993253792e-08
9.17768795305e-09
3.2065934062e-10
1.64475385332e-08
9.48053926898e-09
1.09133064425e-10
1.64783971389e-08
9.66815488545e-09
-1.15762034237e-10
1.64944407154e-08
9.73476169299e-09
-3.26874637143e-10
1.64800149285e-08
9.66814732288e-09
-4.96912014559e-10
1.64506940764e-08
9.48052716037e-09
-6.00473630618e-10
1.6403832162e-08
9.17767624521e-09
-6.1557985762e-10
1.6327498766e-08
8.76534046989e-09
-5.25172107086e-10
1.62133873522e-08
8.25471491188e-09
-3.15935239902e-10
1.60292996302e-08
7.66206721225e-09
1.58134299355e-08
7.00629361578e-09
-1.77778954996e-12
3.29301351285e-10
1.45956414359e-08
6.90325957412e-09
-2.97119036462e-12
5.42963638095e-10
1.47244755464e-08
7.55551052706e-09
6.34142355706e-10
1.48464453367e-08
8.1406267903e-09
6.16143647693e-10
1.49092203134e-08
8.64177518179e-09
5.07417281388e-10
1.49463587748e-08
9.04458362579e-09
3.30841758763e-10
1.49660371564e-08
9.33939616729e-09
1.12647033701e-10
1.49791639269e-08
9.52147190606e-09
-1.19201329761e-10
1.49883644597e-08
9.58585480753e-09
-3.36991717859e-10
1.49806298055e-08
9.5214692697e-09
-5.12772799472e-10
1.49688929728e-08
9.3393946833e-09
-6.20351235904e-10
1.49504350121e-08
9.04458904186e-09
-6.3693724231e-10
1.4914223492e-08
8.64179806821e-09
-5.44247295e-10
1.48519657689e-08
8.14068264309e-09
-3.2923801753e-10
1.4729934156e-08
7.55559953386e-09
1.46005215479e-08
6.9033154641e-09
-1.8924590458e-12
3.38357388681e-10
1.31874969479e-08
6.66399247175e-09
-2.84622851932e-12
5.54518592121e-10
1.32445701213e-08
7.30679339786e-09
6.4655758181e-10
1.33159195266e-08
7.87963377116e-09
6.27411557317e-10
1.33388938094e-08
8.3677366976e-09
5.1628656155e-10
1.33462635417e-08
8.75853306025e-09
3.36479448969e-10
1.33455429345e-08
9.04371664366e-09
1.14625268751e-10
1.33460492862e-08
9.21933023057e-09
-1.21004862798e-10
1.33501328843e-08
9.28113092121e-09
-3.42475070927e-10
1.3347324611e-08
9.21933251187e-09
-5.21533042939e-10
1.33480266439e-08
9.04372543918e-09
-6.31585835845e-10
1.33498096484e-08
8.75855459284e-09
-6.49421605126e-10
1.33432622617e-08
8.36778186448e-09
-5.559830183e-10
1.33207818441e-08
7.87971764331e-09
-3.38544560357e-10
1.32494626486e-08
7.30691295181e-09
1.319203278e-08
6.66408012285e-09
-1.99284711831e-12
3.44182063858e-10
1.16881432808e-08
6.32369252896e-09
-2.68755786091e-12
5.60558161513e-10
1.16896404572e-08
6.95438585978e-09
6.52508649449e-10
1.17220117464e-08
7.51329254625e-09
6.32529980662e-10
1.17168753246e-08
7.98746476087e-09
5.20176460731e-10
1.17044000368e-08
8.36591443674e-09
3.38912998364e-10
1.16908541452e-08
8.64143932981e-09
1.15518223019e-10
1.16834718472e-08
8.8106318287e-09
-1.21666575829e-10
1.16840787371e-08
8.8698375866e-09
-3.44705459205e-10
1.16845377026e-08
8.81063823883e-09
-5.25279007298e-10
1.16929300692e-08
8.64145655356e-09
-6.36651488337e-10
1.17073694326e-08
8.36594890073e-09
-6.55437316989e-10
1.17205506667e-08
7.98752736555e-09
-5.62208438672e-10
1.17261456918e-08
7.51339744149e-09
-3.44636659881e-10
1.1693874684e-08
6.95452578091e-09
1.16922227017e-08
6.32379955964e-09
-2.08412182634e-12
3.47256992093e-10
1.0173313211e-08
5.91037438367e-09
-2.51208093382e-12
5.62493591053e-10
1.0134549444e-08
6.52844640167e-09
6.5399840686e-10
1.01383720375e-08
7.07362788257e-09
6.33567802471e-10
1.0115436433e-08
7.53451077885e-09
5.20795933697e-10
1.00917916652e-08
7.90144233527e-09
3.39237228212e-10
1.00718630407e-08
8.16808890446e-09
1.15691008584e-10
1.00605803667e-08
8.33138847611e-09
-1.21586196522e-10
1.00591126513e-08
8.38816295079e-09
-3.44809816219e-10
1.00614321245e-08
8.33139764576e-09
-5.25745371644e-10
1.00735232015e-08
8.1681115583e-09
-6.3763577612e-10
1.00941721686e-08
7.90148479732e-09
-6.56995143685e-10
1.01184033903e-08
7.53458363337e-09
-5.64334561848e-10
1.01417505003e-08
7.07374401947e-09
-3.47985513026e-10
1.01380785592e-08
6.52859381893e-09
1.01768572873e-08
5.91048638735e-09
-2.17327785826e-12
3.47779926891e-10
8.69680126917e-09
5.44582785212e-09
-2.32251662347e-12
5.61600269467e-10
8.63003602601e-09
6.05202558206e-09
6.52916175574e-10
8.6140135342e-09
6.5846674879e-09
6.32355181205e-10
8.5821855126e-09
7.03360189291e-09
5.1954975899e-10
8.55469146519e-09
7.39030748431e-09
3.38308990092e-10
8.5335549198e-09
7.64913931997e-09
1.15418714387e-10
8.52146911922e-09
7.80723138841e-09
-1.21065782886e-10
8.51904961701e-09
7.86179783205e-09
-3.43669551015e-10
8.52211195065e-09
7.80724146671e-09
-5.24357310445e-10
8.53481096859e-09
7.64916339643e-09
-6.36380896534e-10
8.55650265054e-09
7.39035135503e-09
-6.55989845909e-10
8.58446031291e-09
7.03367545153e-09
-5.63634208527e-10
8.61664163736e-09
6.5847823676e-09
-3.48782293943e-10
8.63283737884e-09
6.05216544995e-09
8.69974304682e-09
5.44592881099e-09
-2.26557054709e-12
3.46137525813e-10
7.2953571412e-09
4.94667473547e-09
-2.13337879427e-12
5.59878069077e-10
7.20794906948e-09
5.5424000389e-09
6.51453753927e-10
7.18011915744e-09
6.06405158115e-09
6.30500046396e-10
7.14753960111e-09
6.50251736842e-09
5.17434351209e-10
7.12219984032e-09
6.85029395913e-09
3.36639566156e-10
7.10362892801e-09
7.10232244315e-09
1.14860529147e-10
7.09292727267e-09
7.25584365003e-09
-1.20285299342e-10
7.09033177642e-09
7.30841212542e-09
-3.41813484187e-10
7.09337676202e-09
7.25585236144e-09
-5.22122571461e-10
7.10451227446e-09
7.10234299022e-09
-6.34503808564e-10
7.12347583392e-09
6.85033096538e-09
-6.546152911e-10
7.14916197015e-09
6.50257949873e-09
-5.62106415763e-10
7.18202935582e-09
6.06414970225e-09
-3.47410268782e-10
7.21003620045e-09
5.54251577052e-09
7.29767061526e-09
4.94674914444e-09
-2.36221499908e-12
3.45351620373e-10
5.99021493036e-09
4.42542541236e-09
-1.94683436887e-12
5.61580644327e-10
5.88611889551e-09
5.01236608771e-09
6.51924586325e-10
5.85707683402e-09
5.5245270733e-09
6.28645471748e-10
5.83104892253e-09
5.95378940992e-09
5.1437173802e-10
5.81182392308e-09
6.29367469537e-09
3.34045159872e-10
5.79791230468e-09
6.53967804788e-09
1.13910516533e-10
5.7897102334e-09
6.68910858297e-09
-1.19150982903e-10
5.78743415688e-09
6.73983803654e-09
-3.39066140141e-10
5.78998934638e-09
6.68911343282e-09
-5.18973963635e-10
5.79846208517e-09
6.53968959741e-09
-6.32646046824e-10
5.81262998301e-09
6.29369550874e-09
-6.55179866984e-10
5.83208536695e-09
5.95382579303e-09
-5.63995372637e-10
5.858320779e-09
5.52458951331e-09
-3.46879049872e-10
5.88752431741e-09
5.01243965674e-09
5.99191637243e-09
4.42546111692e-09
-2.46597277719e-12
3.68784452163e-10
3.89245027132e-09
-1.75300291327e-12
4.76887510398e-09
5.79804514252e-10
4.47221364959e-09
4.68233809653e-09
6.59484532754e-10
4.97576344212e-09
4.66352245953e-09
6.28337181982e-10
5.39645108913e-09
4.64685812848e-09
5.10621545985e-10
5.7289014099e-09
4.63396023273e-09
3.30391611822e-10
5.96918918944e-09
4.62456362423e-09
1.12513193727e-10
6.11470622512e-09
4.6189081282e-09
-1.17609540969e-10
6.16365317801e-09
4.61706182211e-09
-3.35298103582e-10
6.11470551782e-09
4.619045693e-09
-5.15162415303e-10
5.96918801717e-09
4.62483466576e-09
-6.32355071134e-10
5.72889947051e-09
4.63436159569e-09
-6.62843230901e-10
5.39645049827e-09
4.64738397793e-09
-5.82393288068e-10
4.97577360691e-09
4.6641807273e-09
-3.70539538004e-10
4.47221896622e-09
4.68312355379e-09
3.89245463868e-09
-2.56762324076e-12
4.76999662523e-09
-1.70239305976e-11
6.63265590689e-10
8.612774008e-10
7.29595280585e-13
-2.12000668791e-11
7.2477496776e-10
9.48948164415e-10
-2.24503310384e-11
7.9235475779e-10
1.03209140207e-09
-2.12473204873e-11
8.52943916598e-10
1.10674122425e-09
-1.72736887697e-11
9.02890612515e-10
1.16907030801e-09
-1.10051862136e-11
9.40172441843e-10
1.216022242e-09
-3.1681747849e-12
9.6345922036e-10
1.24563353579e-09
5.17998083387e-12
9.71737749852e-10
1.25628975782e-09
1.28555179911e-11
9.63277673198e-10
1.24563591669e-09
1.87974881075e-11
9.39830079963e-10
1.21602588581e-09
2.22987780916e-11
9.02455184603e-10
1.16907415886e-09
2.29950839684e-11
8.52543902829e-10
1.10674301606e-09
2.12447892843e-11
7.91983038921e-10
1.03208817451e-09
1.67593794324e-11
7.24573012309e-10
9.48932643765e-10
6.6310258992e-10
8.61225485191e-10
3.36725638165e-13
-2.40015726441e-11
1.83034371986e-09
2.46001962867e-09
1.6339025948e-12
-2.85530900352e-11
1.9811027359e-09
2.71538367697e-09
-2.83309856027e-11
2.14308704043e-09
2.95766247889e-09
-2.54158594888e-11
2.28729774534e-09
3.17516329859e-09
-1.98161720661e-11
2.40484824427e-09
3.35677071887e-09
-1.2012276595e-11
2.49175902832e-09
3.4935858563e-09
-2.72987317267e-12
2.54583276124e-09
3.57981636405e-09
7.00499020665e-12
2.56511919752e-09
3.61074081243e-09
1.59380446356e-11
2.54548366301e-09
3.57983014728e-09
2.30444284028e-11
2.49110218534e-09
3.49360864604e-09
2.76526210292e-11
2.40400029065e-09
3.3567979413e-09
2.94721678314e-11
2.28647791517e-09
3.17518692291e-09
2.86616337821e-11
2.14236420034e-09
2.95767287659e-09
2.34292721138e-11
1.98064792567e-09
2.71535939205e-09
1.82997979963e-09
2.45990680013e-09
7.73492628873e-13
-1.46038129397e-11
3.06952148964e-09
3.82004428203e-09
2.08047885951e-12
-1.30230898718e-11
3.29830181173e-09
4.2204724915e-09
-8.8468824773e-12
3.53925812746e-09
4.5991689098e-09
-5.0353537219e-12
3.75197173773e-09
4.93813486641e-09
-2.05553634865e-12
3.92377217919e-09
5.22046813109e-09
1.65841178735e-13
4.04970990043e-09
5.43275837339e-09
1.87182393955e-12
4.12775737032e-09
5.56632406913e-09
3.33888694814e-12
4.15567669328e-09
5.61409349832e-09
4.61803080434e-12
4.12737889271e-09
5.56634427695e-09
5.9912517038e-12
4.04900019189e-09
5.43279518737e-09
7.77464191256e-12
3.92286029205e-09
5.22051397333e-09
1.02461127315e-11
3.75108538896e-09
4.93817845708e-09
1.31752683011e-11
3.53850983139e-09
4.59919680513e-09
1.39057657051e-11
3.29779595904e-09
4.22045522481e-09
3.06908793979e-09
3.81990753297e-09
1.00919700383e-12
4.21631468003e-12
4.16962314038e-09
4.91297940849e-09
2.20508738928e-12
1.59430037169e-11
4.45222750483e-09
5.4297002166e-09
2.52239093641e-11
4.74329611842e-09
5.91577284062e-09
2.89891128617e-11
4.99749348756e-09
6.34884925815e-09
2.67002058695e-11
5.20081166598e-09
6.70817095914e-09
1.93182605943e-11
5.34851825035e-09
6.97752012532e-09
8.5789294641e-12
5.43966113043e-09
7.1465583679e-09
-3.36019102508e-12
5.4723594027e-09
7.20685079456e-09
-1.45256142485e-11
5.43932523372e-09
7.14657751912e-09
-2.27518616904e-11
5.34788842593e-09
6.97755880414e-09
-2.62299242585e-11
5.20000272708e-09
6.70822313325e-09
-2.38084440342e-11
4.9966980275e-09
6.34890464887e-09
-1.57854273923e-11
4.7426380995e-09
5.91581810712e-09
-4.9323271112e-12
4.45176672531e-09
5.42970347313e-09
4.16916816246e-09
4.91285522752e-09
1.07336253594e-12
2.79661935891e-11
5.01964275417e-09
5.74182654653e-09
2.11847706858e-12
5.14834827559e-11
5.32982457373e-09
6.34551244049e-09
6.61172527889e-11
5.63998328411e-09
6.90946393825e-09
6.9004577679e-11
5.90753830722e-09
7.40899377723e-09
6.00233385186e-11
6.11917700074e-09
7.82142406117e-09
4.12306168875e-11
6.27139232106e-09
8.1293893169e-09
1.60465743516e-11
6.36485430094e-09
8.32207889408e-09
-1.1347180333e-11
6.39848763665e-09
8.3906204972e-09
-3.69135172208e-11
6.36457898221e-09
8.32209858726e-09
-5.64606071714e-11
6.27087620615e-09
8.12942938969e-09
-6.65061706735e-11
6.11850961024e-09
7.82148049809e-09
-6.48303291552e-11
5.90687532241e-09
7.4090596517e-09
-5.1347500289e-11
5.63942931119e-09
6.9095293322e-09
-2.86462758869e-11
5.32944183758e-09
6.34554684938e-09
5.0191973194e-09
5.74173901408e-09
1.01920722236e-12
5.31266551704e-11
5.57708638032e-09
6.31762721476e-09
1.91201890464e-12
8.87054058192e-11
5.89229887094e-09
6.98086307706e-09
1.0836045424e-10
6.19492587172e-09
7.59549616619e-09
1.09756291347e-10
6.45249866742e-09
8.13629784692e-09
9.35820492874e-11
6.65357825193e-09
8.58034197407e-09
6.31020549415e-11
6.7965624587e-09
8.91047714677e-09
2.33958382915e-11
6.88385856322e-09
9.11634639461e-09
-1.94507085215e-11
6.91538349849e-09
9.18936286927e-09
-5.94763819862e-11
6.88363775131e-09
9.11636534672e-09
-9.058549724e-11
6.79614826008e-09
8.91051656394e-09
-1.07648819867e-10
6.65303892813e-09
8.58040085958e-09
-1.07277282346e-10
6.45195139653e-09
8.13637390031e-09
-8.86074749888e-11
6.19446114346e-09
7.59558438188e-09
-5.37562749516e-11
5.89195978633e-09
6.98093536176e-09
5.57666483486e-09
6.31758813666e-09
8.88648367704e-13
7.71625898292e-11
5.84481190359e-09
6.66004574138e-09
1.65531667021e-12
1.24236550213e-10
6.14845881454e-09
7.35929109627e-09
1.48269216362e-10
6.42448355647e-09
8.00174555476e-09
1.47796369885e-10
6.65592089359e-09
8.56304905039e-09
1.24600216371e-10
6.83374912903e-09
9.02127482132e-09
8.31663112007e-11
6.95853866261e-09
9.36042357298e-09
3.00784505026e-11
7.03422647194e-09
9.57116925464e-09
-2.69362955174e-11
7.0616728438e-09
9.64567276317e-09
-8.02779440739e-11
7.03404633752e-09
9.57118750925e-09
-1.22211248158e-10
6.95819929331e-09
9.3604626184e-09
-1.46115822558e-10
6.83330173564e-09
9.02133683375e-09
-1.47416530769e-10
6.65545215497e-09
8.56313640931e-09
-1.24194130171e-10
6.42407614339e-09
8.00185820392e-09
-7.77423544288e-11
6.1481421447e-09
7.35940292688e-09
5.84441162641e-09
6.66005737324e-09
7.1740984252e-13
9.84351889998e-11
5.85330928919e-09
6.79524788806e-09
1.38917851289e-12
1.55948989314e-10
6.1350209389e-09
7.51187370579e-09
1.83587257228e-10
6.37341865e-09
8.16458723315e-09
1.81102668548e-10
6.56986246983e-09
8.73084446763e-09
1.51511622313e-10
6.71787082724e-09
9.19050167711e-09
1.00456837188e-10
6.82011045536e-09
9.5292218489e-09
3.58001408367e-11
6.881641171e-09
9.73895334422e-09
-3.34055033905e-11
6.9040646521e-09
9.81282285179e-09
-9.82569494336e-11
6.88148589418e-09
9.73897149606e-09
-1.49694603209e-10
6.81981678207e-09
9.52926162524e-09
-1.79831907234e-10
6.71747777298e-09
9.19056799495e-09
-1.82963779728e-10
6.56943627592e-09
8.73094364685e-09
-1.55974565737e-10
6.37302998186e-09
8.16472328721e-09
-9.8975544088e-11
6.13469765511e-09
7.51202131918e-09
5.85288665171e-09
6.79530492028e-09
5.27188227379e-13
1.1604354211e-10
5.64744533896e-09
6.75297020226e-09
1.13667315297e-12
1.82651344023e-10
5.90216285019e-09
7.47342408185e-09
2.13125906489e-10
6.09887990545e-09
8.12413315039e-09
2.08708484714e-10
6.25756470728e-09
8.68487113632e-09
1.73638401199e-10
6.37417831071e-09
9.13764908858e-09
1.14589311869e-10
6.45319351833e-09
9.46995288976e-09
4.04518679141e-11
6.50030390294e-09
9.67499457217e-09
-3.87030077141e-11
6.5175731091e-09
9.74690050006e-09
-1.1298660466e-10
6.50016173536e-09
9.67501302956e-09
-1.72322941433e-10
6.45292268671e-09
9.4699939426e-09
-2.07805170416e-10
6.37380948022e-09
9.13771965313e-09
-2.12718698578e-10
6.25714921179e-09
8.68498037601e-09
-1.82752840263e-10
6.09848014035e-09
8.12428788044e-09
-1.16565298715e-10
5.9018015923e-09
7.47359844259e-09
5.64698455491e-09
6.75306135199e-09
3.35014186009e-13
1.29671582093e-10
5.27711889242e-09
6.56373580627e-09
9.1283291781e-13
2.03848490836e-10
5.50362830837e-09
7.27907985496e-09
2.3648318619e-10
5.65972470846e-09
7.92016974566e-09
2.3041002183e-10
5.78220381246e-09
8.46923013106e-09
1.90938380783e-10
5.86935032918e-09
8.91049089121e-09
1.25592075207e-10
5.9270033691e-09
9.23318748038e-09
4.40560032731e-11
5.96098928033e-09
9.4316325703e-09
-4.28412658309e-11
5.97353094949e-09
9.50087509466e-09
-1.24486280667e-10
5.96085292245e-09
9.43165103155e-09
-1.90046176706e-10
5.92674185992e-09
9.23322883867e-09
-2.29825796861e-10
5.8689873673e-09
8.91056321435e-09
-2.36274277166e-10
5.78177983564e-09
8.4693442899e-09
-2.04033081863e-10
5.6592909297e-09
7.92033414558e-09
-1.30190990454e-10
5.50320291794e-09
7.27926706223e-09
5.27657646738e-09
6.56384502507e-09
1.48100744047e-13
1.39422348977e-10
4.79097990492e-09
6.25666894923e-09
7.19914739101e-13
2.19568022119e-10
4.99043880022e-09
6.9617780544e-09
2.53860787968e-10
5.11003511776e-09
7.58931362564e-09
2.4659545238e-10
5.20042019799e-09
8.12382027285e-09
2.0385398258e-10
5.26212421705e-09
8.5516247261e-09
1.33802885003e-10
5.30178477682e-09
8.86352326151e-09
4.67342775641e-11
5.32485439438e-09
9.0547086207e-09
-4.59523856902e-11
5.33342782553e-09
9.12102975308e-09
-1.33102646969e-10
5.32472144866e-09
9.05472578484e-09
-2.03313407676e-10
5.30152772347e-09
8.86356190785e-09
-2.46285161253e-10
5.26176103999e-09
8.55169322434e-09
-2.53833513833e-10
5.1999806504e-09
8.12393022554e-09
-2.19841718154e-10
5.10956016001e-09
7.58947423749e-09
-1.39958674409e-10
4.98993724905e-09
6.96195995877e-09
4.79034088447e-09
6.2567764045e-09
-2.67867174733e-14
1.45662537866e-10
4.23281146714e-09
5.85804787602e-09
5.53370049675e-13
2.30273687366e-10
4.40737778123e-09
6.55071693278e-09
2.66047786656e-10
4.49574216982e-09
7.16341824049e-09
2.58234353828e-10
4.55930989955e-09
7.68272796967e-09
2.13284421033e-10
4.60066595517e-09
8.09688198337e-09
1.39838487175e-10
4.62645783906e-09
8.39803443257e-09
4.86992485919e-11
4.64126441095e-09
8.58205141607e-09
-4.82676069133e-11
4.64678625168e-09
8.64546134464e-09
-1.39468840603e-10
4.64113710342e-09
8.58206492254e-09
-2.13035666573e-10
4.62620929298e-09
8.39806519386e-09
-2.58159357068e-10
4.60030607856e-09
8.09693783557e-09
-2.66185498752e-10
4.55886140486e-09
7.68282048957e-09
-2.30639741132e-10
4.49523203476e-09
7.16355737476e-09
-1.4622858072e-10
4.4068103898e-09
6.55087224658e-09
4.23208395448e-09
5.85813128447e-09
-1.88934990678e-13
1.48940146426e-10
3.63982113859e-09
5.39054872777e-09
4.12901959023e-13
2.37079346198e-10
3.79114636483e-09
6.07068897762e-09
2.74758677947e-10
3.85328565967e-09
6.66901002147e-09
2.67138614675e-10
3.89581458096e-09
7.17379025265e-09
2.20723817121e-10
3.92245725842e-09
7.5750393008e-09
1.4465951827e-10
3.93882270617e-09
7.86612275469e-09
5.02701742414e-11
3.948130909e-09
8.04342667699e-09
-5.0124853579e-11
3.95157746123e-09
8.10406609779e-09
-1.44561600402e-10
3.9480131e-09
8.04343333432e-09
-2.20719398874e-10
3.93858779939e-09
7.86613876464e-09
-2.67263876962e-10
3.92211473065e-09
7.57507107491e-09
-2.75043252621e-10
3.89537132065e-09
7.17384862917e-09
-2.37531521529e-10
3.85275913359e-09
6.66910646116e-09
-1.49539278135e-10
3.79052920029e-09
6.07079522248e-09
3.63902614574e-09
5.39058726273e-09
-3.28046218629e-13
1.49434166836e-10
3.04268350836e-09
4.87303519313e-09
2.97312701688e-13
2.41821906119e-10
3.16919460584e-09
5.54208317543e-09
2.82884834829e-10
3.2094725873e-09
6.12741813382e-09
2.76093795151e-10
3.23761832008e-09
6.61889661165e-09
2.28330041881e-10
3.25567130657e-09
7.00832728137e-09
1.49588996689e-10
3.26709796178e-09
7.29021150314e-09
5.18985647549e-11
3.27363284755e-09
7.46135664394e-09
-5.19907267052e-11
3.27592895383e-09
7.51940408416e-09
-1.49718330926e-10
3.27352640213e-09
7.46135311632e-09
-2.28526371117e-10
3.26688641797e-09
7.29020562885e-09
-2.76387393511e-10
3.25535281455e-09
7.0083230229e-09
-2.83291100494e-10
3.23719793186e-09
6.61890279231e-09
-2.42347277049e-10
3.20895214168e-09
6.12744830921e-09
-1.5005810468e-10
3.16855571945e-09
5.54211832693e-09
3.04185258464e-09
4.87301474326e-09
-4.45006247728e-13
1.35950334841e-10
4.32015078054e-09
1.93199819799e-13
2.47901030555e-09
2.43941207415e-10
4.98082450028e-09
2.55271533007e-09
2.92358377568e-10
5.55472743197e-09
2.5822029881e-09
2.87416595156e-10
6.03431184926e-09
2.60479461888e-09
2.38175316768e-10
6.41317046943e-09
2.62071967883e-09
1.56085399127e-10
6.68683105921e-09
2.63161020363e-09
5.40892057488e-11
6.85242937356e-09
2.63794581452e-09
-5.43800756506e-11
6.90808672225e-09
2.63999637526e-09
-1.5639975655e-10
6.85241389659e-09
2.63785043956e-09
-2.38534381961e-10
6.68679960625e-09
2.63141917286e-09
-2.87834654576e-10
6.41312381038e-09
2.62043147008e-09
-2.92847159607e-10
6.03425460641e-09
2.6044055012e-09
-2.44502817793e-10
5.55467409794e-09
2.58170373551e-09
-1.36569236364e-10
4.98076002357e-09
2.55207686569e-09
4.32008426009e-09
-5.2190592115e-13
2.47817217042e-09
8.68569403146e-12
2.67651446319e-11
8.2587981524e-10
1.07370563718e-14
1.65204638411e-11
2.71395642711e-11
9.14203174282e-10
2.09392845753e-11
2.94614520239e-11
9.98486645627e-10
2.1564798204e-11
3.18594503188e-11
1.07458206942e-09
1.84312349663e-11
3.40146994884e-11
1.13839616959e-09
1.22984858139e-11
3.56160346558e-11
1.18662568015e-09
4.23939157293e-12
3.66282493004e-11
1.21709585088e-09
-4.48497545185e-12
3.69815997277e-11
1.22804948429e-09
-1.25046033748e-11
3.65655037441e-11
1.2171034959e-09
-1.85754391441e-11
3.54691989243e-11
1.18664031026e-09
-2.1666142621e-11
3.37608501148e-11
1.13841585912e-09
-2.10469357132e-11
3.15324760115e-11
1.07460280474e-09
-1.66315909485e-11
2.91810094481e-11
9.98502432408e-10
-8.80716040067e-12
2.69143181477e-11
9.14204230753e-10
2.66579110895e-11
8.25843889003e-10
-7.36892368336e-14
2.06896995147e-11
2.04981197833e-10
2.26111122777e-09
1.64120497563e-13
3.90480457724e-11
2.22682934671e-10
2.50183114996e-09
4.97573101262e-11
2.45802999983e-10
2.73107892875e-09
5.12891511332e-11
2.68343066492e-10
2.93761060654e-09
4.39263273977e-11
2.87919330209e-10
3.11052212075e-09
2.94023392692e-11
3.02815430854e-10
3.24104457276e-09
1.0281150663e-11
3.12218187654e-10
3.32340463305e-09
-1.04319890675e-11
3.15530709255e-10
3.35293651115e-09
-2.95094683029e-11
3.12070661682e-10
3.32342674165e-09
-4.39796055372e-11
3.02482852745e-10
3.24108690444e-09
-5.13473106765e-11
2.87367339257e-10
3.11057921834e-09
-4.99134023102e-11
2.67633128401e-10
2.93767116207e-09
-3.93082711027e-11
2.45140481126e-10
2.73112585191e-09
-2.1012341949e-11
2.2215702516e-10
2.50183718791e-09
2.04661366191e-10
2.26102608115e-09
-1.19907410807e-13
2.91071649677e-11
5.2527440568e-10
3.47044180014e-09
3.73033876762e-13
5.43665666856e-11
5.75530560279e-10
3.84268579852e-09
6.91900466719e-11
6.34214561593e-10
4.1963666006e-09
7.12610623629e-11
6.90446580361e-10
4.51436353026e-09
6.10667374484e-11
7.38659643639e-10
4.78018247367e-09
4.09591909427e-11
7.75212905412e-10
4.98059467888e-09
1.4478200352e-11
7.98198358201e-10
5.10688335957e-09
-1.42148865727e-11
8.06306469076e-10
5.15204442236e-09
-4.06894055789e-11
7.97995751981e-10
5.10691840303e-09
-6.08199132609e-11
7.74768103529e-10
4.98066154891e-09
-7.11329001242e-11
7.37940394031e-10
4.78027277145e-09
-6.92926600989e-11
6.89528097799e-10
4.51446061273e-09
-5.47071034555e-11
6.33322027309e-10
4.1964456244e-09
-2.9593345633e-11
5.74805594599e-10
3.84270767965e-09
5.24762886954e-10
3.47033657998e-09
-1.10452908706e-13
3.62907512374e-11
9.28954578496e-10
4.47259452453e-09
5.82858535659e-13
6.6753495514e-11
1.01806174485e-09
4.95701072789e-09
8.44961301162e-11
1.11691781104e-09
5.41570757923e-09
8.68392217988e-11
1.21031817375e-09
5.82697302793e-09
7.44025331843e-11
1.28950650502e-09
6.16998399627e-09
4.99717042089e-11
1.34914900375e-09
6.42813366834e-09
1.77968651224e-11
1.38647411416e-09
6.59051881412e-09
-1.70736235276e-11
1.39963624281e-09
6.64842789031e-09
-4.92914851051e-11
1.3862539113e-09
6.59056348656e-09
-7.38373574445e-11
1.3486753531e-09
6.42821885578e-09
-8.65096044907e-11
1.28875491253e-09
6.1700997215e-09
-8.45184091976e-11
1.20935820442e-09
5.82710028703e-09
-6.71291590025e-11
1.1159481466e-09
5.4158181956e-09
-3.68987839731e-11
1.01723279088e-09
4.95705955391e-09
9.28301949143e-10
4.47249991584e-09
-7.0361378731e-14
4.37946723616e-11
1.35495474805e-09
5.27144358605e-09
7.48405535212e-13
7.88769874878e-11
1.48080765945e-09
5.8479708456e-09
9.89702143022e-11
1.61527663691e-09
6.39134105773e-09
1.01325705266e-10
1.7405863012e-09
6.87665999355e-09
8.67007510637e-11
1.84558474009e-09
7.28016553206e-09
5.82394412056e-11
1.92402442659e-09
7.58308483368e-09
2.08027254252e-11
1.97284671199e-09
7.77320381597e-09
-1.9762748859e-11
1.99005250349e-09
7.84080713664e-09
-5.72811122798e-11
1.97264334458e-09
7.77325388296e-09
-8.59258397343e-11
1.92358988161e-09
7.58318050725e-09
-1.00866170012e-10
1.84489641465e-09
7.28029701364e-09
-9.89389165525e-11
1.73969714688e-09
6.8768090369e-09
-7.92712904992e-11
1.61434330951e-09
6.39148031469e-09
-4.44861320073e-11
1.47995358868e-09
5.84805316983e-09
1.35421984744e-09
5.27137932587e-09
-3.37545712228e-14
5.22902476264e-11
1.74860692942e-09
5.87100203969e-09
8.491085344e-13
9.20443611058e-11
1.90295894302e-09
6.51920892258e-09
1.14272503772e-10
2.06229701228e-09
7.12653085672e-09
1.16377783303e-10
2.2086836764e-09