/*--------------------------------*- C++ -*----------------------------------*\
  =========                 |
  \\      /  F ield         | OpenFOAM: The Open Source CFD Toolbox
   \\    /   O peration     | Website:  https://openfoam.org
    \\  /    A nd           | Version:  7
     \\/     M anipulation  |
\*---------------------------------------------------------------------------*/
FoamFile
{
    version     2.0;
    format      ascii;
    class       surfaceScalarField;
    location    "2.24";
    object      phi;
}
// * * * * * * * * * * * * * * * * * * * * * * * * * * * * * * * * * * * * * //

dimensions      [0 3 -1 0 0 0 0];

internalField   nonuniform List<scalar> 
65775
(
2.86184398479e-11
4.69405279712e-09
7.9393968561e-10
7.17747517722e-15
4.17707530506e-11
4.91066046734e-09
8.78447124071e-10
4.89386662286e-11
5.09337603802e-09
9.58656925832e-10
4.76948360682e-11
5.25103931498e-09
1.03065422174e-09
3.96373938007e-11
5.37625844026e-09
1.09082054792e-09
2.61066485957e-11
5.46771356852e-09
1.13619022578e-09
9.1169506211e-12
5.52515687755e-09
1.16481982177e-09
-9.09855114486e-12
5.54697648132e-09
1.17510744071e-09
-2.60888274179e-11
5.52515330109e-09
1.16482008791e-09
-3.96207081191e-11
5.46770671408e-09
1.13619074556e-09
-4.7680091822e-11
5.37624859532e-09
1.09082128064e-09
-4.89266395483e-11
5.25102725669e-09
1.03065508352e-09
-4.17621016844e-11
5.09336238376e-09
9.5865783828e-10
-2.8611826757e-11
4.91064725452e-09
8.78448419993e-10
4.69404381904e-09
7.93943606735e-10
1.08311350526e-14
7.44845644726e-11
7.91769925562e-09
1.95753862976e-09
-5.6867929873e-15
1.21495766384e-10
8.24826023302e-09
2.15561536376e-09
1.42897252008e-10
8.52569951919e-09
2.34183849126e-09
1.40482807556e-10
8.76072266353e-09
2.50771870374e-09
1.17013468571e-10
8.94611865634e-09
2.64545678874e-09
7.71593721024e-11
9.08053802364e-09
2.74882804187e-09
2.69034871555e-11
9.16488091751e-09
2.81387579164e-09
-2.68925445601e-11
9.19718144547e-09
2.83723518271e-09
-7.71481121422e-11
9.16487029341e-09
2.81387677998e-09
-1.17000996857e-10
9.08051689611e-09
2.74882993452e-09
-1.40468027263e-10
8.94608752541e-09
2.64545941098e-09
-1.42879338854e-10
8.76068349317e-09
2.50772173797e-09
-1.21474585383e-10
8.52565559977e-09
2.3418416331e-09
-7.44595456158e-11
8.24821737692e-09
2.15561945385e-09
7.91766710732e-09
1.95754838718e-09
1.79912942773e-14
1.1178685023e-10
1.00003935716e-08
2.80020556221e-09
1.21938936025e-14
1.86301193447e-10
1.0374304884e-08
3.07762033933e-09
2.18944230019e-10
1.06883952512e-08
3.33657311859e-09
2.15077487964e-10
1.09481411687e-08
3.56596053936e-09
1.78903150924e-10
1.11513969118e-08
3.75555840301e-09
1.1784619797e-10
1.12974524557e-08
3.89735651031e-09
4.1067297348e-11
1.13889867254e-08
3.98636581027e-09
-4.10140640653e-11
1.14244016325e-08
4.01827422225e-09
-1.17794908338e-10
1.13889717343e-08
3.98636696756e-09
-1.78855469582e-10
1.12974226807e-08
3.89735873514e-09
-2.15034838919e-10
1.11513531294e-08
3.7555614808e-09
-2.18907677976e-10
1.09480858065e-08
3.56596406081e-09
-1.86270615063e-10
1.06883325921e-08
3.33657667131e-09
-1.11760397675e-10
1.03742420387e-08
3.07762499398e-09
1.00003424212e-08
2.80021754155e-09
3.20645393268e-14
1.43161115191e-10
1.11878530071e-08
3.40309204567e-09
2.17119304056e-14
2.39052711292e-10
1.1558207555e-08
3.73633793304e-09
2.80775409543e-10
1.18697205564e-08
4.04521229818e-09
2.75251853989e-10
1.21203904366e-08
4.3173110208e-09
2.28563845117e-10
1.2314369236e-08
4.54119267483e-09
1.50357569803e-10
1.24522364371e-08
4.70805189686e-09
5.235815093e-11
1.25385049272e-08
4.81252278052e-09
-5.22811356628e-11
1.25723286065e-08
4.84989443543e-09
-1.50283791466e-10
1.25384875385e-08
4.81252395029e-09
-2.28496335169e-10
1.2452201954e-08
4.70805411745e-09
-2.75193262436e-10
1.23143186624e-08
4.54119568276e-09
-2.80727543257e-10
1.21203263169e-08
4.3173143181e-09
-2.39015420161e-10
1.1869647112e-08
4.04521533759e-09
-1.4313196905e-10
1.15581320983e-08
3.73634169395e-09
1.11877873579e-08
3.40310313594e-09
4.13356036137e-14
1.68792288973e-10
1.16823927903e-08
3.80940937961e-09
2.78284581889e-14
2.8142887625e-10
1.20193771962e-08
4.18027898133e-09
3.3039157978e-10
1.23038457624e-08
4.52152106049e-09
3.23311743646e-10
1.25256371725e-08
4.82039453276e-09
2.68070613991e-10
1.26947527896e-08
5.06514939898e-09
1.76138622199e-10
1.28133067572e-08
5.24690695585e-09
6.12944963035e-11
1.2887348559e-08
5.36039097445e-09
-6.12019714917e-11
1.29168900485e-08
5.40088620966e-09
-1.76050244135e-10
1.28873304228e-08
5.36039199423e-09
-2.67990288418e-10
1.28132708596e-08
5.24690884658e-09
-3.23242822007e-10
1.26947001763e-08
5.0651518471e-09
-3.30336163102e-10
1.25255702324e-08
4.82039696104e-09
-2.81386707595e-10
1.23037680848e-08
4.52152277816e-09
-1.68760590244e-10
1.20192958069e-08
4.18028074864e-09
1.16823184965e-08
3.80941762446e-09
4.83407538698e-14
1.89544360646e-10
1.16515652496e-08
4.05305562956e-09
3.18916029178e-14
3.15003742035e-10
1.19384922155e-08
4.44746414882e-09
3.69486054608e-10
1.21826696517e-08
4.80765147066e-09
3.60953861677e-10
1.23660347214e-08
5.12122099673e-09
2.98871310074e-10
1.25031751538e-08
5.37676697758e-09
1.96168793445e-10
1.25976385117e-08
5.56583190028e-09
6.82239193811e-11
1.26565024655e-08
5.68353051537e-09
-6.81212867319e-11
1.26805482525e-08
5.72540743325e-09
-1.96070920709e-10
1.26564850686e-08
5.68353128032e-09
-2.9878265726e-10
1.25976040758e-08
5.56583325041e-09
-3.60878132822e-10
1.25031246297e-08
5.37676854905e-09
-3.69425415435e-10
1.23659700537e-08
5.12122213657e-09
-3.14957710534e-10
1.21825936071e-08
4.80765134581e-09
-1.89510039475e-10
1.19384108502e-08
4.44746331668e-09
1.16514881872e-08
4.05306026761e-09
5.39761009959e-14
2.06358128312e-10
1.12336422942e-08
4.16236969244e-09
3.46222103024e-14
3.41307634896e-10
1.14638404022e-08
4.569694191e-09
3.99734311355e-10
1.16626627184e-08
4.93888703479e-09
3.89812318744e-10
1.18052260831e-08
5.25834210425e-09
3.22335204168e-10
1.19091527376e-08
5.51742145223e-09
2.11362152272e-10
1.19791018865e-08
5.70838676825e-09
7.34680546616e-11
1.20225829283e-08
5.82690230797e-09
-7.3358931543e-11
1.20409397905e-08
5.86892513815e-09
-2.11258166312e-10
1.20225674862e-08
5.82690276607e-09
-3.22241107527e-10
1.19790712734e-08
5.7083874759e-09
-3.89731941336e-10
1.19091076591e-08
5.51742199829e-09
-3.99669729936e-10
1.1805167853e-08
5.25834176496e-09
-3.41258180197e-10
1.16625931093e-08
4.93888485574e-09
-2.06320864755e-10
1.14637644333e-08
4.56969061362e-09
1.12335679846e-08
4.16237070634e-09
5.89298744212e-14
2.19889944168e-10
1.0541827125e-08
4.1617635607e-09
3.63943722674e-14
3.61591106147e-10
1.07157632853e-08
4.5743215474e-09
4.22628592637e-10
1.08697584575e-08
4.94552297005e-09
4.11389742772e-10
1.09737994968e-08
5.26480231261e-09
3.3973733621e-10
1.10470212102e-08
5.52252122495e-09
2.22571914168e-10
1.1094761158e-08
5.7117993614e-09
7.7326753118e-11
1.11243693772e-08
5.82889667312e-09
-7.72134748138e-11
1.11374906308e-08
5.87024845467e-09
-2.22463942337e-10
1.11243568536e-08
5.82889681657e-09
-3.39639503545e-10
1.10947362416e-08
5.71179941597e-09
-4.11305847678e-10
1.10469842119e-08
5.52252073817e-09
-4.22560539102e-10
1.09737510091e-08
5.26480050126e-09
-3.61538075111e-10
1.08696991829e-08
4.94551879585e-09
-2.19849180635e-10
1.07156971336e-08
4.57431545354e-09
1.05417604971e-08
4.16176140197e-09
6.35945120102e-14
2.30597986993e-10
9.66769593809e-09
4.07240580118e-09
3.7510861499e-14
3.76880041434e-10
9.79042812884e-09
4.48495270243e-09
4.39497217443e-10
9.90357333359e-09
4.85357383724e-09
4.27068309303e-10
9.97405042036e-09
5.16884052323e-09
3.52264209052e-10
1.00211799776e-08
5.42219813204e-09
2.30592969836e-10
1.00504961656e-08
5.60764570105e-09
8.00791251101e-11
1.00686636609e-08
5.72200687487e-09
-7.99629840681e-11
1.00773607413e-08
5.76220047349e-09
-2.30482116287e-10
1.00686547456e-08
5.72200673108e-09
-3.52163398256e-10
1.00504782678e-08
5.60764516517e-09
-4.26981181475e-10
1.00211529584e-08
5.422196722e-09
-4.39425510218e-10
9.97401405206e-09
5.16883741615e-09
-3.76822872383e-10
9.90352731783e-09
4.85356795969e-09
-2.30552992482e-10
9.79037523136e-09
4.484944614e-09
9.66764101112e-09
4.07240121834e-09
6.83243439018e-14
2.38827055334e-10
8.6842566134e-09
3.9125198289e-09
3.81580287101e-14
3.88052214894e-10
8.76330505364e-09
4.32175180361e-09
4.51565582903e-10
8.84133199747e-09
4.68508390568e-09
4.38156826698e-10
8.88443991674e-09
4.99420770686e-09
3.61043891114e-10
8.91102793658e-09
5.2416335311e-09
2.36177670191e-10
8.92630337191e-09
5.42218489133e-09
8.19883752939e-11
8.9358185935e-09
5.53317115916e-09
-8.186978777e-11
8.94105335352e-09
5.57196350451e-09
-2.36064182424e-10
8.9358136819e-09
5.5331707836e-09
-3.60940045793e-10
8.92629326143e-09
5.42218388728e-09
-4.38066045433e-10
8.91101200817e-09
5.24163140576e-09
-4.51489460781e-10
8.88441717467e-09
4.99420362614e-09
-3.87989963345e-10
8.84130118143e-09
4.68507681393e-09
-2.3877689447e-10
8.76326785922e-09
4.32174246916e-09
8.68421639401e-09
3.91251376837e-09
7.34210461774e-14
2.44822045604e-10
7.64881310979e-09
3.69756451563e-09
3.84740107112e-14
3.95899918654e-10
7.69238746124e-09
4.10164808141e-09
4.60032505785e-10
7.74153492004e-09
4.45837070658e-09
4.45941523816e-10
7.76379435286e-09
4.76045111843e-09
3.67167018882e-10
7.77560353693e-09
5.00138334773e-09
2.40040768273e-10
7.78125210077e-09
5.17671996555e-09
8.33020668628e-11
7.78488498408e-09
5.2841586381e-09
-8.31807091025e-11
7.78762926609e-09
5.32147438029e-09
-2.39924169744e-10
7.78488417327e-09
5.28415811293e-09
-3.67059398455e-10
7.78124999288e-09
5.17671867352e-09
-4.45846058784e-10
7.77559907184e-09
5.00138081268e-09
-4.59950748476e-10
7.76378585179e-09
4.76044653032e-09
-3.95831350349e-10
7.74152032232e-09
4.45836307254e-09
-2.44765616653e-10
7.69236742199e-09
4.1016384335e-09
7.64878939239e-09
3.69755807368e-09
7.91526124188e-14
2.48732778249e-10
6.60564643953e-09
3.4404126211e-09
3.84295616371e-14
4.01309981473e-10
6.62100451326e-09
3.83856877956e-09
4.66246811373e-10
6.6473320315e-09
4.18832273825e-09
4.51766872455e-10
6.65523594132e-09
4.48327922975e-09
3.71698785451e-10
6.65786488538e-09
4.71780724939e-09
2.42848962462e-10
6.657979668e-09
4.88808125867e-09
8.42460456403e-11
6.65823445265e-09
4.99208940829e-09
-8.41209993565e-11
6.65937527296e-09
5.02795801053e-09
-2.42728180712e-10
6.65823754923e-09
4.99208884553e-09
-3.71586088648e-10
6.65798517733e-09
4.88807992401e-09
-4.51665204527e-10
6.65787146527e-09
4.71780471989e-09
-4.66157818698e-10
6.65524142417e-09
4.48327475882e-09
-4.01233629681e-10
6.64733375877e-09
4.18831541644e-09
-2.48668895039e-10
6.62100210377e-09
3.83855989213e-09
6.60563996982e-09
3.44040700366e-09
8.57662823216e-14
2.50941421006e-10
5.58815572e-09
3.15156420862e-09
3.80237353507e-14
4.05847255457e-10
5.58008273006e-09
3.54373380034e-09
4.71980782694e-10
5.58983108928e-09
3.88677474637e-09
4.57028956817e-10
5.58994095099e-09
4.17501412704e-09
3.75576436907e-10
5.58854012439e-09
4.40359392983e-09
2.45134431986e-10
5.58658492321e-09
4.56921256245e-09
8.49928602075e-11
5.58550008623e-09
4.67006141668e-09
-8.48627672756e-11
5.58576858789e-09
4.70456897439e-09
-2.45008003252e-10
5.58550654588e-09
4.67006096182e-09
-3.75456982004e-10
5.58659710679e-09
4.5692115027e-09
-4.56919261101e-10
5.58855654234e-09
4.40359194295e-09
-4.71882766061e-10
5.58995928331e-09
4.17501057643e-09
-4.05761624889e-10
5.58984834312e-09
3.88676878758e-09
-2.50868969679e-10
5.58009753975e-09
3.54372682586e-09
5.58816602789e-09
3.15156055462e-09
9.30409058134e-14
2.53606699474e-10
4.61920515437e-09
2.83939569769e-09
3.71997501364e-14
4.12636250108e-10
4.59070418585e-09
3.22602178941e-09
4.79183620534e-10
4.59209786287e-09
3.56294394728e-09
4.62570334581e-10
4.59075330927e-09
3.84509494933e-09
3.79103609025e-10
4.58930556964e-09
4.06833431976e-09
2.4699660012e-10
4.58768129591e-09
4.22980317295e-09
8.55659616321e-11
4.58664465077e-09
4.32782143809e-09
-8.54293115384e-11
4.58656349896e-09
4.3610764616e-09
-2.46862920595e-10
4.58665366682e-09
4.32782126067e-09
-3.78975703281e-10
4.58769860091e-09
4.22980275604e-09
-4.6245085631e-10
4.58932975889e-09
4.06833350056e-09
-4.79074964418e-10
4.5907822612e-09
3.84509327998e-09
-4.12540054587e-10
4.5921288002e-09
3.56294062954e-09
-2.53524882847e-10
4.59073490871e-09
3.22601794299e-09
4.61923040708e-09
2.83939483791e-09
1.00939439275e-13
2.69193889646e-10
2.51099214424e-09
3.58077404355e-14
3.7021084366e-09
4.29123564653e-10
2.89291149508e-09
3.67149106155e-09
4.90787612631e-10
3.22421297389e-09
3.67433006518e-09
4.69324612605e-10
3.5007843808e-09
3.67525273992e-09
3.82545844009e-10
3.71917127279e-09
3.67536260301e-09
2.48500009549e-10
3.87689183209e-09
3.67504493045e-09
8.59751777324e-11
3.97233880852e-09
3.67471573913e-09
-8.58304936862e-11
4.00442776924e-09
3.67458729642e-09
-2.483577239e-10
3.97233902779e-09
3.67472638793e-09
-3.82408312925e-10
3.87689231404e-09
3.67506561099e-09
-4.69194379236e-10
3.71917206192e-09
3.67539211946e-09
-4.90667477768e-10
3.50078534305e-09
3.67528943315e-09
-4.29016298788e-10
3.22421340666e-09
3.67437173048e-09
-2.69102829956e-10
2.89291260788e-09
3.67153507816e-09
2.51099337904e-09
1.09812482577e-13
3.70214605066e-09
-8.99626510086e-12
3.36769267171e-10
4.66176657619e-10
3.76345286209e-16
-1.15864078349e-11
3.68139940234e-10
5.12914116453e-10
-1.23666999889e-11
4.02588388787e-10
5.56866179887e-10
-1.17076556652e-11
4.33857978439e-10
5.96153021882e-10
-9.61722628366e-12
4.59871872517e-10
6.28870451053e-10
-6.32495083005e-12
4.79427937746e-10
6.53479445224e-10
-2.20892785508e-12
4.91719494246e-10
6.6899253026e-10
2.20144329775e-12
4.96123538518e-10
6.74581293333e-10
6.31860738547e-12
4.91717473488e-10
6.68992901142e-10
9.61292869356e-12
4.79423460245e-10
6.53480159803e-10
1.17055350648e-11
4.59864152611e-10
6.28871439568e-10
1.2365922156e-11
4.33847232586e-10
5.96154185806e-10
1.15862121647e-11
4.02576583319e-10
5.56867479632e-10
8.99608880823e-12
3.68128857328e-10
5.1291597164e-10
3.36764371214e-10
4.66181321594e-10
-3.10316967366e-17
-1.41305314468e-11
9.62113101621e-10
1.34635149918e-09
-7.12520846726e-15
-1.84185584728e-11
1.0433900276e-09
1.48467946225e-09
-1.91973437444e-11
1.13033082324e-09
1.61490225227e-09
-1.77669259883e-11
1.20883630412e-09
1.73133401022e-09
-1.43706515351e-11
1.27361872239e-09
1.82833246336e-09
-9.36409876568e-12
1.32194699801e-09
1.90131754892e-09
-3.26426719954e-12
1.35220835973e-09
1.94730048941e-09
3.24039421975e-12
1.36306414956e-09
1.96380252011e-09
9.34236057914e-12
1.35220285549e-09
1.94730150692e-09
1.43530973153e-11
1.32193474126e-09
1.90131950733e-09
1.77547266848e-11
1.27359791253e-09
1.82833517445e-09
1.91905231904e-11
1.20880674713e-09
1.73133719784e-09
1.84165824674e-11
1.13029676821e-09
1.61490578598e-09
1.41326779862e-11
1.04335760028e-09
1.48468450481e-09
9.62094490788e-10
1.34636299313e-09
-2.85074700587e-15
-1.08710853874e-11
1.66368800161e-09
2.10951931489e-09
4.06406349379e-16
-1.33363816777e-11
1.79375580084e-09
2.32974339656e-09
-1.28400421403e-11
1.92980339692e-09
2.53662904392e-09
-1.10948369515e-11
2.05183871064e-09
2.72123446894e-09
-8.5504398944e-12
2.15187102036e-09
2.87477878551e-09
-5.41382525286e-12
2.22601415549e-09
2.99016671421e-09
-1.86914511425e-12
2.27227989931e-09
3.06276204892e-09
1.85772010028e-12
2.28888522648e-09
3.08873800377e-09
5.40460377452e-12
2.27227066089e-09
3.06276348864e-09
8.54503165506e-12
2.22599435428e-09
2.99016945427e-09
1.10933397853e-11
2.1518389258e-09
2.87478250837e-09
1.28408937853e-11
2.05179452151e-09
2.72123872815e-09
1.3337865339e-11
1.92975249935e-09
2.53663359252e-09
1.08724313082e-11
1.79370736985e-09
2.32974978879e-09
1.66365763332e-09
2.10953422563e-09
1.0511041549e-15
-2.08322368926e-12
2.32794953517e-09
2.74092433606e-09
6.42692695792e-15
-2.63245475591e-14
2.49761727559e-09
3.03044094666e-09
2.61492371701e-12
2.67100543337e-09
3.30139115866e-09
4.21589361275e-12
2.82519209933e-09
3.54237579476e-09
4.34301454718e-12
2.95067759351e-09
3.74227452558e-09
3.16093988121e-12
3.04308053279e-09
3.89218061629e-09
1.13393496952e-12
3.10053392391e-09
3.98630746721e-09
-1.13154614602e-12
3.12116444885e-09
4.01989168438e-09
-3.1569258546e-12
3.10052142075e-09
3.98630904401e-09
-4.33649787041e-12
3.04305449205e-09
3.89218358656e-09
-4.20755722801e-12
2.95063685881e-09
3.74227846587e-09
-2.6070367373e-12
2.82513752206e-09
3.5423801127e-09
3.16498404905e-14
2.67094263801e-09
3.30139546078e-09
2.08536121101e-12
2.49755692042e-09
3.03044683638e-09
2.32790868884e-09
2.74093920054e-09
5.93063049577e-15
1.03002543009e-11
2.8854117333e-09
3.24165042568e-09
1.20803678546e-14
1.85508835479e-11
3.08230878019e-09
3.58735603841e-09
2.38691245842e-11
3.27798938045e-09
3.90923826058e-09
2.49279192778e-11
3.45025365113e-09
4.19429112798e-09
2.15769926962e-11
3.58928753057e-09
4.42990438128e-09
1.45341257336e-11
3.69094369524e-09
4.60609860138e-09
5.10315164391e-12
3.75390294995e-09
4.71646372949e-09
-5.08568380884e-12
3.77652355512e-09
4.75572609996e-09
-1.45159485732e-11
3.75388816714e-09
4.7164651832e-09
-2.15581111786e-11
3.69091348303e-09
4.60610128743e-09
-2.49096667283e-11
3.58924138257e-09
4.42990779382e-09
-2.38540878799e-11
3.45019293959e-09
4.19429455418e-09
-1.85411499853e-11
3.2779195483e-09
3.90924114272e-09
-1.02961907271e-11
3.08224053702e-09
3.58735988261e-09
2.88536259927e-09
3.24166280766e-09
1.18432855258e-14
2.45980867835e-11
3.29915017092e-09
3.61471633692e-09
1.73917020373e-14
4.00210993851e-11
3.51067230346e-09
4.00369449908e-09
4.82856978143e-11
3.71375070869e-09
4.36364261799e-09
4.85067627871e-11
3.8904975951e-09
4.6807711064e-09
4.10468054858e-11
4.03173764348e-09
4.94178959132e-09
2.73147461904e-11
4.13418472358e-09
5.13633404327e-09
9.55200918198e-12
4.19735311842e-09
5.25785321397e-09
-9.5195895331e-12
4.22006386307e-09
5.30094823459e-09
-2.72826281068e-11
4.1973371933e-09
5.25785433873e-09
-4.10158709216e-11
4.13415258437e-09
5.13633604427e-09
-4.84788576862e-11
4.03168934631e-09
4.94179190299e-09
-4.82634758849e-11
3.8904347894e-09
4.68077292235e-09
-4.00064686328e-11
3.71367829001e-09
4.36364322993e-09
-2.45910746107e-11
3.51060025063e-09
4.00369530014e-09
3.29909509007e-09
3.61472495422e-09
1.83407905003e-14
3.94301361075e-11
3.55605010727e-09
3.86603083544e-09
2.21899897314e-14
6.24906786241e-11
3.77102264725e-09
4.2862980122e-09
7.3772158365e-11
3.96884703098e-09
4.6725242247e-09
7.2972714763e-11
4.13879616511e-09
5.01085634361e-09
6.11336011744e-11
4.27298836635e-09
5.28802137038e-09
4.0445007613e-11
4.36942921636e-09
5.49384105369e-09
1.41126870842e-11
4.42859040712e-09
5.62200670144e-09
-1.4066529235e-11
4.44987491601e-09
5.66730211472e-09
-4.040008438e-11
4.42857452359e-09
5.62200737126e-09
-6.10915442341e-11
4.3693974187e-09
5.49384212718e-09
-7.29357446041e-11
4.27294102472e-09
5.28802224298e-09
-7.3742852462e-11
4.13873493145e-09
5.01085614281e-09
-6.24707525541e-11
3.96877593433e-09
4.67252212569e-09
-3.94193791351e-11
3.77095066129e-09
4.28629535576e-09
3.55599198422e-09
3.86603526352e-09
2.5188343302e-14
5.37610507115e-11
3.65976168682e-09
4.00427661421e-09
2.63242415189e-14
8.45208906812e-11
3.86924088893e-09
4.44535632396e-09
9.87496202901e-11
4.05241107179e-09
4.84774325036e-09
9.68589989991e-11
4.20741182103e-09
5.19808913811e-09
8.06614164046e-11
4.32804044783e-09
5.48367720121e-09
5.31681652287e-11
4.41379923061e-09
5.69493201602e-09
1.85242237302e-11
4.46609182103e-09
5.82604792021e-09
-1.8466081798e-11
4.48491561726e-09
5.87220628168e-09
-5.31120130798e-11
4.46607699571e-09
5.82604809119e-09
-8.06094607068e-11
4.41376968786e-09
5.69493208406e-09
-9.68136913332e-11
4.32799665976e-09
5.48367654316e-09
-9.87134108035e-11
4.20735521317e-09
5.19808684485e-09
-8.44952990024e-11
4.05234470257e-09
4.84773842764e-09
-5.37459109186e-11
3.86917237419e-09
4.44535034881e-09
3.65970389877e-09
4.00427708746e-09
3.21049346316e-14
6.68774066395e-11
3.62499746792e-09
4.04027367961e-09
2.97902169443e-14
1.05074212385e-10
3.82247933807e-09
4.49352858157e-09
1.22093571064e-10
3.98503613562e-09
4.90394070314e-09
1.19149967204e-10
4.12014497142e-09
5.25906143158e-09
9.88412005467e-11
4.22346166223e-09
5.54709509115e-09
6.49888220151e-11
4.29597793812e-09
5.75932798275e-09
2.26180685352e-11
4.33988111311e-09
5.89059637657e-09
-2.2549852522e-11
4.3556874614e-09
5.93660416177e-09
-6.49231252413e-11
4.33986817019e-09
5.8905960813e-09
-9.87806112212e-11
4.29595217571e-09
5.7593271217e-09
-1.19097049547e-10
4.22342346871e-09
5.54709304478e-09
-1.22050654674e-10
4.12009533738e-09
5.25905728586e-09
-1.0504272329e-10
3.98497716602e-09
4.90393354631e-09
-6.68573599137e-11
3.82241724305e-09
4.49351990961e-09
3.62494299563e-09
4.04027094257e-09
3.89178689706e-14
7.83530579731e-11
3.47299513774e-09
3.98614629032e-09
3.25483410111e-14
1.23468576958e-10
3.6542503497e-09
4.44487482318e-09
1.43082341802e-10
3.79330536625e-09
4.85721063317e-09
1.39227511648e-10
3.90639017562e-09
5.21182650296e-09
1.15221086241e-10
3.99106109539e-09
5.49804899046e-09
7.56368724932e-11
4.0496091257e-09
5.7081457834e-09
2.63048184681e-11
4.08475920367e-09
5.83763254975e-09
-2.62283179463e-11
4.0974049626e-09
5.88278618255e-09
-7.55631964685e-11
4.0847486809e-09
5.83763188847e-09
-1.15153023053e-10
4.04958813468e-09
5.70814420739e-09
-1.39167659306e-10
3.99102982015e-09
5.49804590931e-09
-1.43032933207e-10
3.90634912564e-09
5.21182103067e-09
-1.23431056878e-10
3.79325573908e-09
4.85720188656e-09
-7.83277623492e-11
3.65419699937e-09
4.44486447395e-09
3.47294673231e-09
3.98614147896e-09
4.55263365636e-14
8.80041812448e-11
3.22804265376e-09
3.8544869877e-09
3.4691358366e-14
1.39340391454e-10
3.39073589048e-09
4.31383449186e-09
1.6136756322e-10
3.5057728875e-09
4.72388437749e-09
1.56842983618e-10
3.59688053372e-09
5.07449336091e-09
1.29656429231e-10
3.66346247432e-09
5.35617607216e-09
8.50430973287e-11
3.70875340863e-09
5.56219617439e-09
2.95647001067e-11
3.73568864051e-09
5.68871438953e-09
-2.94814806444e-11
3.74535434232e-09
5.73257769561e-09
-8.49628111315e-11
3.73568080237e-09
5.68871352182e-09
-1.29581912305e-10
3.70873768756e-09
5.5621942194e-09
-1.56776812712e-10
3.66343877739e-09
5.35617249788e-09
-1.61311940577e-10
3.59684888892e-09
5.07448734082e-09
-1.39296885888e-10
3.50573372843e-09
4.72387508498e-09
-8.79734717015e-11
3.39069286663e-09
4.31382378956e-09
3.22800223559e-09
3.85448153167e-09
5.18337411798e-14
9.58305560979e-11
2.91496737018e-09
3.65762906786e-09
3.62123260971e-14
1.52630416651e-10
3.0581267203e-09
4.11438509587e-09
1.76997396851e-10
3.15016193211e-09
4.51957386968e-09
1.72137772949e-10
3.22086956955e-09
4.86415680588e-09
1.42311448909e-10
3.27129140923e-09
5.13981133001e-09
9.33310092517e-11
3.30507240637e-09
5.34074907879e-09
3.2443016408e-11
3.32497133723e-09
5.463700881e-09
-3.23543948972e-11
3.33206733923e-09
5.5060482866e-09
-9.3245267095e-11
3.3249662117e-09
5.4637000181e-09
-1.42231378178e-10
3.30506194853e-09
5.34074718738e-09
-1.72065891465e-10
3.27127533099e-09
5.13980796999e-09
-1.76935942875e-10
3.22084745476e-09
4.86415123748e-09
-1.52581150686e-10
3.15013364731e-09
4.51956531579e-09
-9.57945419584e-11
3.05809479397e-09
4.11437555288e-09
2.91493624243e-09
3.65762456895e-09
5.77821273119e-14
1.02020169654e-10
2.55739990521e-09
3.40708144329e-09
3.71755889533e-14
1.63741625072e-10
2.68069322667e-09
3.85945186352e-09
1.90610757384e-10
2.75154004538e-09
4.25853366876e-09
1.85775301166e-10
2.80452159815e-09
4.59620355822e-09
1.53720548016e-10
2.84169121202e-09
4.86525476289e-09
1.00837022365e-10
2.86639452512e-09
5.0607797066e-09
3.50538284785e-11
2.88083271906e-09
5.17998867702e-09
-3.4960895364e-11
2.88591077544e-09
5.22074563399e-09
-1.00746837261e-10
2.88083008026e-09
5.17998806962e-09
-1.53635736248e-10
2.86638898986e-09
5.0607784024e-09
-1.85698367675e-10
2.84168226386e-09
4.86525245287e-09
-1.90543995966e-10
2.80450860786e-09
4.59619961961e-09
-1.63687071615e-10
2.7515223939e-09
4.25852732091e-09
-1.01979193914e-10
2.68067255699e-09
3.85944503006e-09
2.5573785982e-09
3.40707938503e-09
6.30926161874e-14
1.06768717487e-10
2.17685348183e-09
3.11314247093e-09
3.76206473863e-14
1.7354304835e-10
2.27931987016e-09
3.5606260331e-09
2.03480722342e-10
2.33121068545e-09
3.95334087657e-09
1.98928612786e-10
2.37021882052e-09
4.28395517088e-09
1.64756862012e-10
2.39778815348e-09
4.54641433683e-09
1.08089004162e-10
2.41624427716e-09
4.7366263178e-09
3.75734359545e-11
2.42699095755e-09
4.852183753e-09
-3.74771332866e-11
2.43066992603e-09
4.89137257002e-09
-1.07995247953e-10
2.42699047334e-09
4.85218366008e-09
-1.64668156974e-10
2.41624297144e-09
4.73662613917e-09
-1.98847385606e-10
2.39778546769e-09
4.54641394244e-09
-2.03409432964e-10
2.37021397259e-09
4.28395412111e-09
-1.73483881706e-10
2.33120296915e-09
3.95333834416e-09
-1.06723374718e-10
2.27931001465e-09
3.56062341226e-09
2.17684151872e-09
3.11314386442e-09
6.78091551017e-14
1.03287392559e-10
2.78443840484e-09
3.7493206384e-14
1.80008855759e-09
1.80786867409e-10
3.22804437155e-09
1.86669218963e-09
2.15859438266e-10
3.61453970731e-09
1.90581612977e-09
2.12270612294e-10
3.93838139319e-09
1.93621527289e-09
1.76163585363e-10
4.19465892883e-09
1.95841220733e-09
1.15653701443e-10
4.37997032318e-09
1.97368027787e-09
4.02124998943e-11
4.49216594766e-09
1.98260940455e-09
-4.01135929067e-11
4.52988109983e-09
1.985546977e-09
-1.15557235103e-10
4.49216653379e-09
1.98261065316e-09
-1.76071915346e-10
4.37997160314e-09
1.9736824822e-09
-2.12186143125e-10
4.19466098503e-09
1.95841477545e-09
-2.15784585628e-10
3.93838409397e-09
1.93621748968e-09
-1.8072408491e-10
3.61454223693e-09
1.90581717648e-09
-1.0323845537e-10
3.22804800785e-09
1.86669226673e-09
2.78444240766e-09
7.16090800151e-14
1.80008546383e-09
3.93656115915e-12
2.32685848409e-12
4.59923301572e-10
-1.03164066435e-15
6.88814397214e-12
1.39531749433e-12
5.08577868098e-10
8.57302443698e-12
6.18130813779e-13
5.54575478303e-10
8.76848245351e-12
8.49651022342e-14
5.9588269843e-10
7.50101235123e-12
-2.6626597858e-13
6.30414463727e-10
5.03281315759e-12
-5.07494935657e-13
6.56465070333e-10
1.77172482004e-12
-6.49411540192e-13
6.72911839241e-10
-1.77354437021e-12
-6.94580651649e-13
6.78828632141e-10
-5.03469726143e-12
-6.51652933654e-13
6.72912202198e-10
-7.50290842729e-12
-5.11558000601e-13
6.5646574652e-10
-8.76994990092e-12
-2.71548063567e-13
6.30415364857e-10
-8.57330999142e-12
7.88270847928e-14
5.95883739868e-10
-6.88809081176e-12
6.10361907546e-13
5.54576659873e-10
-3.93606660075e-12
1.38880949315e-12
5.08579660104e-10
2.32222801627e-12
4.59927866098e-10
-5.79106178157e-16
9.54085388461e-12
7.56798257085e-11
1.26347801402e-09
-5.63159506924e-15
1.68958376327e-11
8.20428133296e-11
1.39669460743e-09
2.10896589804e-11
8.90224860846e-11
1.5223224319e-09
2.15771030271e-11
9.61056238784e-11
1.63484261421e-09
1.84580591781e-11
1.02486075165e-10
1.72871557899e-09
1.23776123141e-11
1.07478051363e-10
1.79942793751e-09
4.3516449991e-12
1.10681272876e-10
1.84400947081e-09
-4.36461399277e-12
1.11830908454e-10
1.86000511563e-09
-1.2389563283e-11
1.10674614057e-10
1.84401055566e-09
-1.8467910502e-11
1.07465677041e-10
1.79942993958e-09
-2.15837078416e-11
1.0246980323e-10
1.72871821166e-09
-2.10923102004e-11
9.6087093599e-11
1.63484559339e-09
-1.68957973003e-11
8.90015228705e-11
1.52232573313e-09
-9.53877609686e-12
8.20239144836e-11
1.39669952488e-09
7.5665935007e-11
1.26348931481e-09
-2.22774116151e-15
1.36039802947e-11
2.23031306283e-10
1.9485821331e-09
-4.98304030388e-15
2.41639374525e-11
2.45118517921e-10
2.15612384697e-09
3.01350876061e-11
2.68279644902e-10
2.35141705789e-09
3.07857126458e-11
2.90704543611e-10
2.5260002341e-09
2.63069379494e-11
3.10320013253e-10
2.67143855484e-09
1.7625990914e-11
3.25467045255e-10
2.7808727764e-09
6.19504033097e-12
3.35111627712e-10
2.84977519548e-09
-6.20417143222e-12
3.38552660722e-10
2.87442638568e-09
-1.7634610106e-11
3.35101632764e-10
2.84977654457e-09
-2.63143083174e-11
3.2544827038e-10
2.78087526111e-09
-3.07906650297e-11
3.10294901999e-10
2.67144180244e-09
-3.01367816831e-11
2.9067561793e-10
2.52600386748e-09
-2.41635166368e-11
2.68247923642e-10
2.35142104907e-09
-1.36024761906e-11
2.4508935172e-10
2.15612996697e-09
2.23010040238e-10
1.94859680949e-09
-3.04869313759e-15
1.70902091255e-11
4.20303812449e-10
2.5265780599e-09
-4.10727746316e-15
3.02826224923e-11
4.6293439612e-10
2.79944667595e-09
3.76515171918e-11
5.06797324313e-10
3.05551904111e-09
3.83732328483e-11
5.48444426883e-10
3.28392811654e-09
3.27397822154e-11
5.84366034237e-10
3.47387537906e-09
2.19132346404e-11
6.11880648771e-10
3.61660610729e-09
7.69751622732e-12
6.29310754491e-10
3.70633531348e-09
-7.70322773202e-12
6.35510469403e-10
3.73834457238e-09
-2.19186780993e-11
6.29298325979e-10
3.70633668508e-09
-3.27444362886e-11
6.11857102483e-10
3.61660860275e-09
-3.83761349208e-11
5.84334020936e-10
3.47387855961e-09
-3.76519581024e-11
5.48407107323e-10
3.2839315179e-09
-3.02816104096e-11
5.06757137167e-10
3.05552256569e-09
-1.70887343212e-11
4.62897258835e-10
2.79945223306e-09
4.20276204657e-10
2.52659280307e-09
-2.91814610445e-15
2.07058632341e-11
6.4162484508e-10
2.99963726915e-09
-2.56926921803e-15
3.63969260239e-11
7.0590642312e-10
3.32870483327e-09
4.50131411174e-11
7.70979347557e-10
3.63645268597e-09
4.57198538286e-11
8.31856094973e-10
3.91018494968e-09
3.89274145862e-11
8.8376307769e-10
4.13731158862e-09
2.6022253517e-11
9.23219105514e-10
4.30767642667e-09
9.13511083087e-12
9.48090175322e-10
4.41458154698e-09
-9.13610495083e-12
9.56914263262e-10
4.45260257118e-09
-2.60232464505e-11
9.48076093159e-10
4.41458271954e-09
-3.89281612848e-11
9.23192295096e-10
4.30767850079e-09
-4.57197113242e-11
8.83726274016e-10
4.13731407684e-09
-4.50116161223e-11
8.31812840451e-10
3.91018730734e-09
-3.63948992353e-11
7.70933047437e-10
3.63645470255e-09
-2.07040847368e-11
7.05863656849e-10
3.32870839519e-09
6.41592221711e-10
2.99964978574e-09
-1.82049247663e-15
2.48882953684e-11
8.6167560663e-10
3.36978733066e-09
-4.42352469768e-16
4.32549136291e-11
9.45472996931e-10
3.7457716837e-09
5.31363865481e-11
1.02885551232e-09
4.09589582276e-09
5.37489760872e-11
1.10579313656e-09