/*--------------------------------*- C++ -*----------------------------------*\
  =========                 |
  \\      /  F ield         | OpenFOAM: The Open Source CFD Toolbox
   \\    /   O peration     | Website:  https://openfoam.org
    \\  /    A nd           | Version:  7
     \\/     M anipulation  |
\*---------------------------------------------------------------------------*/
FoamFile
{
    version     2.0;
    format      ascii;
    class       volVectorField;
    location    "1.42";
    object      U;
}
// * * * * * * * * * * * * * * * * * * * * * * * * * * * * * * * * * * * * * //

dimensions      [0 1 -1 0 0 0 0];

internalField   nonuniform List<vector> 
22500
(
(2.96614483867e-05 3.29424577741e-05 0.000639711661064)
(2.77938498559e-05 3.69152259508e-05 0.000671643960386)
(2.43845909771e-05 4.10485459272e-05 0.00070088380846)
(2.05595248411e-05 4.45825350763e-05 0.000726081472428)
(1.60105754521e-05 4.75299699102e-05 0.000746457865721)
(1.0968762513e-05 4.9731897648e-05 0.000761420878404)
(5.56182591758e-06 5.1093383064e-05 0.000770568114577)
(-3.4687220685e-08 5.15537979474e-05 0.000773658015587)
(-5.62963692318e-06 5.10913926963e-05 0.000770563469546)
(-1.10319927302e-05 4.97287790113e-05 0.000761411790035)
(-1.60651423682e-05 4.75278609002e-05 0.000746444884037)
(-2.06012029379e-05 4.45835390433e-05 0.000726066393712)
(-2.44087335272e-05 4.10569186544e-05 0.00070086887021)
(-2.77985123139e-05 3.69318639858e-05 0.00067163056472)
(-2.96507742995e-05 3.29639547446e-05 0.000639686062663)
(8.50414214444e-05 9.48534236688e-05 0.00156626280386)
(7.94216613998e-05 0.000106030060266 0.00162886191511)
(6.98292722363e-05 0.000117453982929 0.00168540017007)
(5.87425002043e-05 0.000127293389283 0.0017334915915)
(4.57234796006e-05 0.000135485370448 0.00177193207283)
(3.13056946798e-05 0.000141600598019 0.00179990569583)
(1.58764982129e-05 0.000145382039433 0.00181690027116)
(-7.69497101181e-08 0.000146661571404 0.00182261523567)
(-1.60271906791e-05 0.000145381088032 0.0018168832751)
(-3.14467775999e-05 0.000141600405068 0.00179987277194)
(-4.58469118232e-05 0.00013548995479 0.00177188560595)
(-5.88391569475e-05 0.000127306474177 0.00173343746995)
(-6.98894848159e-05 0.000117482563105 0.0016853461171)
(-7.94413388155e-05 0.000106074059065 0.00162881263408)
(-8.50258757131e-05 9.49060284677e-05 0.00156619100175)
(0.000123882877982 0.000138216140083 0.00224090432927)
(0.000115038862235 0.000153395238391 0.00231542984631)
(0.000100812464946 0.000168812478132 0.00238189593838)
(8.44630775485e-05 0.00018202090235 0.00243780503102)
(6.55504485374e-05 0.000192964673922 0.00248204149741)
(4.47790457851e-05 0.000201104298379 0.00251397677171)
(2.26774434122e-05 0.00020612697897 0.00253326982751)
(-1.10752203923e-07 0.000207826363361 0.00253973303566)
(-2.28946974268e-05 0.000206131582102 0.00253324457977)
(-4.4983400394e-05 0.000201115570307 0.00251392806023)
(-6.57314544395e-05 0.000192987062942 0.00248197315412)
(-8.46086146817e-05 0.000182058387096 0.00243772553656)
(-0.000100909312914 0.000168870712309 0.00238181721528)
(-0.000115081215386 0.000153471542973 0.00231535954784)
(-0.000123873909143 0.00013830052783 0.00224080646186)
(0.000150548523006 0.000167937426613 0.00273533778243)
(0.000139010108284 0.000184891571222 0.00281097412314)
(0.000121329833821 0.000202105674268 0.00287751165575)
(0.000101228476323 0.000216708518906 0.00293282959044)
(7.83115871066e-05 0.000228744288183 0.0029761326138)
(5.33675287341e-05 0.000237655536628 0.00300712964701)
(2.69870049737e-05 0.000243139696735 0.00302574433753)
(-1.31439061035e-07 0.00024499396843 0.00303195670292)
(-2.72450566493e-05 0.000243149521773 0.00302571562824)
(-5.36108471918e-05 0.000237677214002 0.00300707454836)
(-7.8528612832e-05 0.000228781849682 0.00297605586704)
(-0.000101406057998 0.000216765478697 0.00293274091875)
(-0.000121453303278 0.000202185663397 0.00287742547899)
(-0.000139073090118 0.000184989818791 0.00281090079047)
(-0.000150551430858 0.000168043359124 0.00273524021168)
(0.000168322005737 0.000187767205038 0.00309738036092)
(0.000154587829337 0.000205030676772 0.00316795014498)
(0.00013436994929 0.000222641392216 0.00322909407515)
(0.000111660702787 0.00023741050826 0.0032792735215)
(8.61169966221e-05 0.000249518146215 0.0033180944508)
(5.85511105664e-05 0.000258441660388 0.00334562154537)
(2.95664488832e-05 0.000263918410005 0.00336204282073)
(-1.43563141554e-07 0.000265768743558 0.00336750161578)
(-2.98484536562e-05 0.000263932462176 0.00336201503159)
(-5.88174762989e-05 0.000258471521625 0.00334556858817)
(-8.63558015621e-05 0.000249567064219 0.00331802140503)
(-0.000111858765643 0.000237481148419 0.00327919033292)
(-0.000134512701433 0.000222735873449 0.00322901619556)
(-0.000154668745701 0.000205142483908 0.00316788985316)
(-0.000168339143081 0.000187887103193 0.00309730304237)
(0.000179033640146 0.000199720052181 0.0033607308854)
(0.000163568080839 0.0002162453889 0.00342297831945)
(0.00014158279011 0.000233273269726 0.00347602054046)
(0.00011720218791 0.00024738089773 0.003518925214)
(9.01252577055e-05 0.00025888384402 0.00355168384922)
(6.11416467999e-05 0.000267324633136 0.00357466495321)
(3.08332526464e-05 0.000272491647042 0.00358827146527)
(-1.49488356509e-07 0.000274236216221 0.00359277556414)
(-3.11270558496e-05 0.000272508903774 0.00358824760039)
(-6.14196578034e-05 0.000267360523489 0.0035746199357)
(-9.03757529728e-05 0.000258940723449 0.00355162269819)
(-0.000117412529814 0.000247460440819 0.00351885755677)
(-0.000141739474525 0.000233376293597 0.00347596203173)
(-0.000163664825751 0.000216364404135 0.00342294216878)
(-0.000179065737107 0.000199847754008 0.00336068427436)
(0.000184096313204 0.000205325317528 0.0035501175829)
(0.0001673329939 0.0002203892745 0.00360269729451)
(0.000144238701009 0.000236161743227 0.00364671320737)
(0.000118956323425 0.000249067734132 0.00368175286399)
(9.12182278074e-05 0.000259535107044 0.003708115208)
(6.17547163781e-05 0.000267185420438 0.00372638566908)
(3.11032124941e-05 0.000271857571605 0.00373711075249)
(-1.50877490638e-07 0.000273434375146 0.00374064482201)
(-3.13999193872e-05 0.00027187690305 0.00373709237199)
(-6.20360622695e-05 0.000267225073567 0.00372635157854)
(-9.14730861189e-05 0.000259596539097 0.00370807020746)
(-0.000119172980294 0.000249151685389 0.00368170614024)
(-0.000144405016396 0.000236267935217 0.00364668033222)
(-0.000167443380138 0.000220510056329 0.00360269134524)
(-0.000184143251263 0.000205455519566 0.00355010561741)
(0.000184757846019 0.000205955227263 0.00368414672384)
(0.00016709517027 0.000219110483772 0.00372695666094)
(0.000143445409275 0.000233202523023 0.00376215472071)
(0.00011787744019 0.000244592294464 0.00378970234075)
(9.0152768597e-05 0.000253783727951 0.00381009407629)
(6.09155191272e-05 0.000260479353066 0.0038240339831)
(3.06447550409e-05 0.000264560669644 0.00383213746357)
(-1.49032374258e-07 0.000265937887967 0.00383479435063)
(-3.09380303363e-05 0.000264580934151 0.0038321249689)
(-6.11942995481e-05 0.000260520491086 0.00382401158289)
(-9.0406799157e-05 0.000253846436888 0.00381006639374)
(-0.00011809613217 0.00024467650845 0.00378967828871)
(-0.000143618136972 0.000233307196628 0.00376214980768)
(-0.000167217029007 0.000219228127254 0.00372698280553)
(-0.000184818907509 0.000206083376828 0.00368416893281)
(0.000182069690429 0.000202779708463 0.00377699011271)
(0.000163862361214 0.000213791033713 0.00381069863552)
(0.000140113582531 0.000225959913164 0.00383795689965)
(0.000114742523354 0.000235677823894 0.00385893162843)
(8.75394216424e-05 0.000243485565718 0.00387419157773)
(5.90446343403e-05 0.00024916058811 0.00388446612414)
(2.96717919965e-05 0.000252615632043 0.00389037363569)
(-1.45020157973e-07 0.000253781840498 0.0038923000526)
(-2.99574074578e-05 0.000252635754758 0.00389036666434)
(-5.9316925362e-05 0.000249201109624 0.00388445472078)
(-8.77891897884e-05 0.00024354660475 0.00387418034868)
(-0.000114960404416 0.000235758731974 0.00385892950954)
(-0.000140290445731 0.000226059169305 0.00383797945396)
(-0.000163993842605 0.000213901723288 0.00381075558716)
(-0.000182143756188 0.000202902023144 0.00377704300695)
(0.000176886416418 0.000196756862084 0.00383946971573)
(0.000158438398308 0.000205539237169 0.00386517337348)
(0.000134959790052 0.000215665296683 0.00388570617372)
(0.000110157327853 0.000223657560952 0.00390127407774)
(8.38495483152e-05 0.000230058119318 0.003912408056)
(5.64640303441e-05 0.000234707660234 0.00391978545455)
(2.83471370144e-05 0.000237537949895 0.00392397701105)
(-1.39727774582e-07 0.000238494090206 0.00392533618219)
(-2.86226043499e-05 0.000237556998778 0.00392397478518)
(-5.67275480058e-05 0.00023474578871 0.00391978354945)
(-8.4093050131e-05 0.00023011505186 0.00391241123855)
(-0.00011037271789 0.000223732333128 0.00390129158461)
(-0.000135139328079 0.00021575621281 0.00388575369481)
(-0.000158578173088 0.000205640192053 0.0038652573502)
(-0.000176972439291 0.000196870494188 0.00383954748878)
(0.00016989404996 0.000188665021473 0.0038798241314)
(0.000151453399953 0.000195228604178 0.00389880813075)
(0.000128537985758 0.000203268165449 0.00391393336241)
(0.000104586609799 0.000209542004762 0.00392529853573)
(7.94409296297e-05 0.000214562814389 0.00393330947861)
(5.34154735693e-05 0.000218217239911 0.00393853757078)
(2.67920970664e-05 0.000220444741416 0.00394147334295)
(-1.33871144865e-07 0.000221198421577 0.0039424203952)
(-2.70563313467e-05 0.000220461990685 0.00394147488241)
(-5.36692423701e-05 0.000218251599203 0.00393854322858)
(-7.96773127583e-05 0.000214613808788 0.00393332426604)
(-0.000104798721258 0.000209608584718 0.00392533212749)
(-0.000128719334479 0.000203348761291 0.00391400153366)
(-0.000151600398794 0.000195318068035 0.0038989129174)
(-0.000169991163062 0.000188768296805 0.00387991842408)
(0.000161636425164 0.000179137936377 0.00390431342513)
(0.000143396141417 0.00018353314071 0.00391790100691)
(0.000121275496921 0.000189483764628 0.00392888424309)
(9.83860808044e-05 0.000194083681324 0.00393714441688)
(7.45824145737e-05 0.000197782995115 0.00394291552199)
(5.00771247629e-05 0.000200490939649 0.00394663879483)
(2.5094858901e-05 0.00020214645525 0.00394871035414)
(-1.28006961304e-07 0.000202708036472 0.00394937636858)
(-2.5347873615e-05 0.000202161376971 0.00394871451547)
(-5.0321192976e-05 0.000200520599952 0.00394664964996)
(-7.48116950825e-05 0.000197826844047 0.00394293819004)
(-9.85947866426e-05 0.000194140775611 0.0039371888831)
(-0.000121458173816 0.000189552854623 0.00392896626125)
(-0.000143549382716 0.000183610076508 0.00391801731502)
(-0.000161743788598 0.000179229430918 0.00390441228737)
(0.000152530769648 0.000168661538343 0.00391776398241)
(0.000134657738063 0.000170939546365 0.00392724241588)
(0.000113516613742 0.00017483593196 0.00393518608306)
(9.18320709591e-05 0.000177839640061 0.00394122092138)
(6.94723533776e-05 0.000180295289842 0.00394542629466)
(4.65746053866e-05 0.000182110240366 0.00394812449859)
(2.33159415816e-05 0.000183224279006 0.00394961978549)
(-1.22566504172e-07 0.000183603269368 0.00395010048538)
(-2.35585437429e-05 0.000183236611279 0.00394962514818)
(-4.68097296528e-05 0.000182134743762 0.00394813744022)
(-6.96951696578e-05 0.000180331397309 0.0039454515187)
(-9.20377127586e-05 0.000177886651453 0.0039412681114)
(-0.000113700468088 0.00017489306678 0.00393527088627)
(-0.000134816474523 0.000171003632251 0.00392735665108)
(-0.000152647571886 0.000168740430276 0.00391785182313)
(0.000142942074509 0.00015755453959 0.00392414019766)
(0.00012563321581 0.000157780653092 0.0039307308119)
(0.000105562077576 0.000159692396598 0.00393645227031)
(8.51257869126e-05 0.000161231109243 0.00394080759475)
(6.42364143525e-05 0.000162531281192 0.00394382888504)
(4.2980476325e-05 0.000163502119758 0.0039457631117)
(2.14886280355e-05 0.000164099081121 0.00394683637538)
(-1.17787946294e-07 0.0001643031359 0.00394718251502)
(-2.17221281206e-05 0.000164108857683 0.00394684110197)
(-4.32079155019e-05 0.000163521522938 0.00394577394523)
(-6.44538302558e-05 0.000162559877431 0.00394384900444)
(-8.53289724238e-05 0.000161268411618 0.00394084472738)
(-0.000105747021085 0.000159738003737 0.00393652129248)
(-0.000125796760532 0.00015783260126 0.00393082232033)
(-0.000143067781346 0.000157621671062 0.00392419860329)
(0.000133419096515 0.000145965402541 0.00392728497758)
(0.000116820785821 0.00014341268173 0.00393201455859)
(9.75667317092e-05 0.000143851021521 0.00393579298605)
(7.83397540913e-05 0.000144171473428 0.00393854701829)
(5.89040809485e-05 0.00014447908521 0.00394039708917)
(3.93092699868e-05 0.000144709428538 0.00394156353593)
(1.96199070899e-05 0.000144850617925 0.00394220939452)
(-1.13779688624e-07 0.000144900416379 0.00394241850417)
(-1.98458121145e-05 0.000144857919572 0.00394221180319)
(-3.95303682329e-05 0.00014472388215 0.00394156825431)
(-5.91172538292e-05 0.000144500463553 0.00394040430354)
(-7.85414450872e-05 0.000144199423623 0.00393855940567)
(-9.7752970437e-05 0.000143885706061 0.00393582242464)
(-0.000116988007611 0.000143452755104 0.00393204172788)
(-0.000133553310342 0.000146020857107 0.00392731622907)
(1.00232161968e-06 1.57189714037e-06 0.000409088680446)
(6.91001705956e-07 1.99686629477e-06 0.000429888915813)
(5.76257051301e-07 2.25341202482e-06 0.000448977969224)
(4.35592294594e-07 2.4655160789e-06 0.000465531700324)
(3.08291086132e-07 2.62163683475e-06 0.000478971594215)
(2.03955414786e-07 2.72478427627e-06 0.000488866186586)
(1.16797413995e-07 2.78368510029e-06 0.000494927316372)
(4.00140489105e-08 2.80458568497e-06 0.000496982474509)
(-3.98698941132e-08 2.78896762258e-06 0.000494931735745)
(-1.36486212167e-07 2.73373927668e-06 0.000488874211959)
(-2.56758823297e-07 2.63136251389e-06 0.000478981585462)
(-4.0331263809e-07 2.4730906355e-06 0.000465541446524)
(-5.63368585177e-07 2.25437725681e-06 0.000448985979823)
(-6.93998441769e-07 1.99107291924e-06 0.000429890101097)
(-1.01237605999e-06 1.56010547584e-06 0.000409066494698)
(8.82158456833e-06 1.06130048845e-05 0.00115257330807)
(7.84224441032e-06 1.28176588737e-05 0.00120740979805)
(7.06099559383e-06 1.47396833534e-05 0.0012576734235)
(6.01111862747e-06 1.64585323433e-05 0.00130117097814)
(4.73103301991e-06 1.78701206873e-05 0.0013364097164)
(3.28248787577e-06 1.89147405048e-05 0.00136230869823)
(1.71227606396e-06 1.95582116346e-05 0.00137815143485)
(8.02743432129e-08 1.97794182247e-05 0.00138350862277)
(-1.55823349747e-06 1.95694208506e-05 0.00137816159441)
(-3.14812482917e-06 1.89341075157e-05 0.0013623268787)
(-4.6290828978e-06 1.78920276208e-05 0.0013364316794)
(-5.94861093834e-06 1.64769513466e-05 0.00130119143523)
(-7.03709465584e-06 1.47457533225e-05 0.00125768888645)
(-7.84906082466e-06 1.28101884322e-05 0.00120740732813)
(-8.84128986059e-06 1.05924930852e-05 0.00115251471396)
(1.99635392418e-05 2.29038017705e-05 0.00182409349747)
(1.81311911678e-05 2.71994188557e-05 0.00190555619123)
(1.63632178463e-05 3.1133789023e-05 0.00197987302928)
(1.39906386394e-05 3.46669269308e-05 0.00204387876909)
(1.10508491395e-05 3.75908181395e-05 0.00209549931829)
(7.66785751842e-06 3.97697791212e-05 0.00213330007937)
(3.96565281271e-06 4.11168266668e-05 0.00215635958983)
(9.88760687767e-08 4.15769230648e-05 0.0021641368242)
(-3.77573887035e-06 4.11287908937e-05 0.00215637271193)
(-7.50166463277e-06 3.97903280528e-05 0.00213332333762)
(-1.09236728996e-05 3.76138639996e-05 0.0020955273113)
(-1.39119220316e-05 3.46858306981e-05 0.00204390525152)
(-1.63328276594e-05 3.11392833369e-05 0.00197989388288)
(-1.81393834856e-05 2.71886490247e-05 0.00190555510661)
(-1.99889793615e-05 2.28769343172e-05 0.00182401601401)
(3.21905276815e-05 3.60326893145e-05 0.00242056008821)
(2.93098245313e-05 4.22954594181e-05 0.00252029444963)
(2.63769100301e-05 4.8052277424e-05 0.00261056955553)
(2.2501084019e-05 5.3214519075e-05 0.00268775464984)
(1.77408300534e-05 5.74808396337e-05 0.00274958985697)
(1.22802587366e-05 6.06568460255e-05 0.00279462502084)
(6.31844672785e-06 6.26179843128e-05 0.00282198842207)
(9.82522048486e-08 6.32852663069e-05 0.00283119058393)
(-6.12970518137e-06 6.26292881266e-05 0.00282200116351)
(-1.21149357104e-05 6.06763022865e-05 0.00279464759043)
(-1.76139054462e-05 5.75029112182e-05 0.00274961755799)
(-2.2422367294e-05 5.32328783218e-05 0.00268778263144)
(-2.63471046082e-05 4.80586462223e-05 0.00261059507496)
(-2.93190209391e-05 4.22855843422e-05 0.00252030155265)
(-3.22177894773e-05 3.60056075099e-05 0.00242048554849)
(4.40188004593e-05 4.84534425691e-05 0.00293808038128)
(3.99620905487e-05 5.63431875177e-05 0.00304757142916)
(3.58129053676e-05 6.34902316859e-05 0.00314567363188)
(3.04292298057e-05 6.98775558144e-05 0.00322878021757)
(2.39155545976e-05 7.51342483904e-05 0.00329480366514)
(1.65062017676e-05 7.90337652671e-05 0.0033425612554)
(8.46040531439e-06 8.1435375284e-05 0.0033714355125)
(8.74991655376e-08 8.22499340662e-05 0.00338111519143)
(-8.29231781943e-06 8.14451168887e-05 0.00337144649287)
(-1.6358876951e-05 7.90506129398e-05 0.00334258113568)
(-2.3802201556e-05 7.51535914383e-05 0.00329482966962)
(-3.03588927237e-05 6.98939623996e-05 0.00322881034368)
(-3.57869677815e-05 6.34967739888e-05 0.00314570799881)
(-3.99721196511e-05 5.63355103587e-05 0.00304759622955)
(-4.40457646101e-05 4.84285685597e-05 0.00293802753397)
(5.45834371619e-05 5.93222129497e-05 0.00337609578643)
(4.93002701747e-05 6.84045787697e-05 0.00348766677995)
(4.39672395524e-05 7.64242163643e-05 0.00358644979712)
(3.71819164562e-05 8.35601852695e-05 0.0036692483158)
(2.91125331366e-05 8.93984255086e-05 0.00373439566291)
(2.00302167708e-05 9.37084485269e-05 0.00378114763866)
(1.02340321967e-05 9.63537575542e-05 0.00380925305531)
(7.23907278668e-08 9.72482828516e-05 0.0038186432668)
(-1.00949555455e-05 9.63614313345e-05 0.00380926252247)
(-1.99082369817e-05 9.37217903468e-05 0.00378116571468)
(-2.90184958539e-05 8.94138742627e-05 0.00373442202684)
(-3.71236527401e-05 8.35734837896e-05 0.00366928440578)
(-4.39465138248e-05 7.64299062126e-05 0.00358649934433)
(-4.93109649984e-05 6.83986999064e-05 0.00348771848368)
(-5.46094117277e-05 5.93002467446e-05 0.00337607735781)
(6.33798728157e-05 6.81847280876e-05 0.00373782456402)
(5.68959843435e-05 7.79975940003e-05 0.00384528877869)
(5.04735245052e-05 8.63745286503e-05 0.0039392019913)
(4.24667735292e-05 9.37904337904e-05 0.00401701657884)
(3.31142026318e-05 9.98138051905e-05 0.00407760150338)
(2.27096351208e-05 0.000104234994212 0.00412070141355)
(1.15703029016e-05 0.000106937648597 0.00414644875624)
(5.64490491083e-08 0.000107848860956 0.00415502068794)
(-1.14618400192e-05 0.000106943111236 0.00414645780671)
(-2.26144528819e-05 0.000104244506641 0.00412071996676)
(-3.30407558386e-05 9.98248380669e-05 0.00407763172725)
(-4.24215360241e-05 9.37998746253e-05 0.00401706336004)
(-5.04585476104e-05 8.63784834643e-05 0.00393927275201)
(-5.69072378434e-05 7.79924482808e-05 0.00384537417)
(-6.34048561935e-05 6.81654982364e-05 0.00373784769654)
(7.01674513236e-05 7.48581256226e-05 0.00402942525537)
(6.25756551667e-05 8.49579529999e-05 0.00412833947525)
(5.5204546103e-05 9.32362954038e-05 0.00421361429647)
(4.62019988232e-05 0.000100521070075 0.00428343734051)
(3.58731121845e-05 0.000106387991327 0.00433720564819)
(2.45209741218e-05 0.000110666390717 0.00437510400811)
(1.24609284189e-05 0.000113270168133 0.00439759260625)
(4.16125907574e-08 0.000114145435067 0.00440505236166)
(-1.23809798895e-05 0.000113273484689 0.0043976024725)
(-2.44508326016e-05 0.000110672112929 0.00437512540173)
(-3.58190877246e-05 0.000106394489547 0.00433724298118)
(-4.6169228992e-05 0.000100526287735 0.00428349861205)
(-5.51952631136e-05 9.32377270358e-05 0.00421371027177)
(-6.25875629993e-05 8.49525384006e-05 0.00412846157124)
(-7.01914485331e-05 7.48405395827e-05 0.00402949171248)
(7.49042003711e-05 7.9356864278e-05 0.00425887178301)
(6.63485796985e-05 8.93483965674e-05 0.00434648710242)
(5.81991632742e-05 9.71602453749e-05 0.00442102037687)
(4.84476490737e-05 0.000103984150531 0.00448134823736)
(3.74538358688e-05 0.000109426274556 0.00452729785735)
(2.55178734968e-05 0.000113366269419 0.00455938181253)
(1.29364686498e-05 0.00011575269689 0.00457828935474)
(2.87530739127e-08 0.000116552503457 0.00458453840699)
(-1.28812686562e-05 0.000115754041947 0.00457830091285)
(-2.54695793417e-05 0.000113368446779 0.00455940759465)
(-3.74169699215e-05 0.000109428363264 0.0045273441374)
(-4.84261558125e-05 0.000103984984704 0.00448142562312)
(-5.81952432915e-05 9.7158422448e-05 0.00442114236489)
(-6.63613033808e-05 8.93415190988e-05 0.0043466443845)
(-7.49272872821e-05 7.93394855927e-05 0.0042589779201)
(7.76869231302e-05 8.18278328232e-05 0.00443493974321)
(6.83437592206e-05 9.13773708368e-05 0.00450997291361)
(5.95998483083e-05 9.84488572912e-05 0.00457304025167)
(4.93482382819e-05 0.000104567059111 0.00462356159156)
(3.79852686045e-05 0.000109390614525 0.00466164645053)
(2.57970385707e-05 0.000112854976668 0.00468799756051)
(1.30487408459e-05 0.000114942869562 0.004703421935)
(1.80667604041e-08 0.000115640517959 0.00470850203681)
(-1.30141526119e-05 0.000114942475686 0.00470343540242)
(-2.57670846364e-05 0.000112853963735 0.00468802789616)
(-3.79630522159e-05 0.000109388569387 0.00466170131859)
(-4.93366624516e-05 0.000104563492374 0.00462365360793)
(-5.96009037606e-05 9.8443199256e-05 0.00457318490782)
(-6.83573459146e-05 9.13678487015e-05 0.00451015861824)
(-7.77091676783e-05 8.18091401306e-05 0.00443507615412)
(7.86992337282e-05 8.2496828137e-05 0.00456644756588)
(6.87583537418e-05 9.13328515469e-05 0.00462878079211)
(5.96043995869e-05 9.74737462166e-05 0.00468068599288)
(4.90903859305e-05 0.000102717040494 0.00472192004081)
(3.76267690178e-05 0.000106794839702 0.00475272086664)
(2.54746204156e-05 0.000109698342072 0.00477385479923)
(1.28587841781e-05 0.00011143948198 0.00478614807212)
(9.37529840852e-09 0.000112019531087 0.00479018420882)
(-1.28410128184e-05 0.000111437626291 0.00478616279344)
(-2.5459799283e-05 0.000109694590381 0.00477388802791)
(-3.76169250872e-05 0.00010678909606 0.00475278106215)
(-4.90875366415e-05 0.000102709252139 0.00472202113536)
(-5.96101651467e-05 9.74638936309e-05 0.00468084477196)
(-6.87729672602e-05 9.1319652459e-05 0.0046289819931)
(-7.87206021188e-05 8.24753082556e-05 0.00456659812923)
(7.81649713432e-05 8.16233071436e-05 0.00466178611222)
(6.78159370768e-05 8.95266641297e-05 0.00471217712495)
(5.8431804758e-05 9.46094735848e-05 0.00475390624488)
(4.78761632649e-05 9.88705474641e-05 0.00478684748368)
(3.65480250311e-05 0.000102132306587 0.00481125610653)
(2.46725093916e-05 0.000104434544231 0.00482787939664)
(1.24299684771e-05 0.00010580889414 0.00483749564199)
(2.3368490405e-09 0.000106265409399 0.00484064429959)
(-1.24258694591e-05 0.000105805907347 0.00483750989235)
(-2.46701623141e-05 0.000104428615978 0.00482791158775)
(-3.65486672686e-05 0.000102123485866 0.00481131467213)
(-4.78810759548e-05 9.88590264585e-05 0.00478694681923)
(-5.84421565494e-05 9.45955227379e-05 0.00475406399428)
(-6.78319031063e-05 8.95094023536e-05 0.00471237370794)
(-7.81856347203e-05 8.15982267032e-05 0.00466192679522)
(7.63028430976e-05 7.94521178601e-05 0.00472872867709)
(6.57373324876e-05 8.62402630525e-05 0.00476858648857)
(5.6308735709e-05 9.01836571791e-05 0.00480149000887)
(4.59161051862e-05 9.34072330495e-05 0.00482727600427)
(3.492393935e-05 9.58346803691e-05 0.00484621149215)
(2.35145906152e-05 9.75358623381e-05 0.0048590111283)
(1.18260060969e-05 9.85479256349e-05 0.00486637810874)
(-3.40171320809e-09 9.88832826465e-05 0.00486878419084)
(-1.18331066764e-05 9.85441796434e-05 0.00486638896053)
(-2.3522620456e-05 9.75284146702e-05 0.00485903574619)
(-3.4933545854e-05 9.58236645205e-05 0.00484625706405)
(-4.59279539438e-05 9.33928526739e-05 0.00482735610723)
(-5.63234885726e-05 9.01662882848e-05 0.00480162312733)
(-6.57548513638e-05 8.62192328396e-05 0.00476875039642)
(-7.63229373219e-05 7.94235816723e-05 0.00472882899418)
(7.3325776904e-05 7.61969210704e-05 0.00477450279094)
(6.27693265659e-05 8.18105612087e-05 0.00480575881907)
(5.35049981157e-05 8.45195042331e-05 0.00483121424765)
(4.34484694422e-05 8.66851737206e-05 0.00485080122464)
(3.2943859349e-05 8.82954473151e-05 0.00486496698454)
(2.21302470102e-05 8.94195975035e-05 0.00487444495213)
(1.11120746241e-05 9.00869176476e-05 0.00487986750077)
(-8.14741985225e-09 9.03073217686e-05 0.00488163258102)
(-1.11284730468e-05 9.00828121166e-05 0.00487987099021)
(-2.21469343444e-05 8.94114310727e-05 0.00487445318787)
(-3.29610731102e-05 8.82833076608e-05 0.00486498409915)
(-4.34664084297e-05 8.66692007175e-05 0.00485083748573)
(-5.3523818901e-05 8.44999454594e-05 0.00483128831136)
(-6.27883552289e-05 8.17867130767e-05 0.00480585237364)
(-7.33453501972e-05 7.61652451239e-05 0.00477452994069)
(6.93248200351e-05 7.31688336354e-05 0.00480624784914)
(5.92067193111e-05 7.67477904273e-05 0.00483123474707)
(5.02925578879e-05 7.80293072279e-05 0.00485002941473)
(4.06939898158e-05 7.90901039545e-05 0.00486387642481)
(3.07754380185e-05 7.9854368267e-05 0.0048735940397)
(2.06307153163e-05 8.03825740698e-05 0.00487997436646)
(1.03434658191e-05 8.06931224297e-05 0.0048835849632)
(-1.2078312612e-08 8.07945365471e-05 0.00488475199179)
(-1.03675383203e-05 8.06893492979e-05 0.00488357747285)
(-2.06545480701e-05 8.0375075265e-05 0.00487995821317)
(-3.07988773969e-05 7.98430943814e-05 0.00487356835476)
(-4.07168583508e-05 7.90750335023e-05 0.00486384393322)
(-5.0314751949e-05 7.80102893875e-05 0.0048500057301)
(-5.92265869952e-05 7.67237581599e-05 0.0048311953839)
(-6.93437544246e-05 7.31369385994e-05 0.00480620003408)
(-9.07096221846e-08 -3.36425439521e-07 0.000287865244513)
(1.38821247473e-07 -5.4347638222e-07 0.000302841291511)
(3.30316659617e-07 -6.55285203422e-07 0.000316771196497)
(4.29099730235e-07 -6.77483211618e-07 0.0003290034467)
(4.31798232193e-07 -6.47161047882e-07 0.000339015173153)
(3.42004928069e-07 -5.96354249725e-07 0.000346424611161)
(1.85863974369e-07 -5.53782633592e-07 0.000350977258725)
(-5.25347134129e-09 -5.37799059165e-07 0.000352522439385)
(-1.95461889411e-07 -5.5482352547e-07 0.000350975653357)
(-3.49135347721e-07 -5.98321045243e-07 0.000346421754432)
(-4.36193017562e-07 -6.50064680903e-07 0.000339011439901)
(-4.32883498197e-07 -6.81564253893e-07 0.000328998459705)
(-3.3468871175e-07 -6.59542135362e-07 0.000316763106911)
(-1.43437853006e-07 -5.48297772522e-07 0.000302826130873)
(8.66940648081e-08 -3.40233311884e-07 0.000287828667883)
(7.78422651901e-07 3.17401840931e-07 0.00085397782528)
(1.27868085039e-06 7.44227152518e-08 0.000897261594348)
(1.67417060274e-06 6.57632091792e-08 0.000937615400159)
(1.80734758908e-06 2.58988488362e-07 0.00097306753125)
(1.665854258e-06 5.46145271305e-07 0.00100209373613)
(1.26629800359e-06 8.33300068954e-07 0.00102358204089)
(6.7933076996e-07 1.03969659538e-06 0.00103678481277)
(-6.62692973057e-09 1.1139315143e-06 0.00104125635579)
(-6.91148338386e-07 1.03760118585e-06 0.00103678354226)
(-1.27437432326e-06 8.29028190999e-07 0.00102358016951)
(-1.67040076935e-06 5.39303101451e-07 0.0010020916379)
(-1.81261256885e-06 2.48981759663e-07 0.000973063201801)
(-1.68326445681e-06 5.43569086841e-08 0.000937602770959)
(-1.29047551453e-06 6.10224024134e-08 0.000897227842766)
(-7.89760767673e-07 3.05482356546e-07 0.00085388848073)
(2.80881059142e-06 2.38328190283e-06 0.00140305500285)
(3.41449813362e-06 2.47260939605e-06 0.00147241835474)
(3.83708399585e-06 2.89497358786e-06 0.00153703366184)
(3.82909272208e-06 3.56880009116e-06 0.00159372610228)
(3.37326419881e-06 4.31340440301e-06 0.00164008525138)
(2.50321548763e-06 4.97473331028e-06 0.00167437044336)
(1.33117278343e-06 5.4252835872e-06 0.00169541656571)
(-6.75438974042e-10 5.58447095591e-06 0.00170253302806)
(-1.33160438122e-06 5.42334857105e-06 0.00169541728542)
(-2.50147865878e-06 4.97023256225e-06 0.00167437254269)
(-3.37064978128e-06 4.30508730037e-06 0.00164008877154)
(-3.83068957717e-06 3.55552838842e-06 0.00159372769367)
(-3.84665618196e-06 2.87842439568e-06 0.00153702438607)
(-3.43054314544e-06 2.4529229277e-06 0.00147237851342)
(-2.82540215526e-06 2.36398995357e-06 0.00140293447304)
(6.10110078875e-06 5.91350010929e-06 0.00192920876349)
(6.67040029494e-06 6.65724612308e-06 0.00202125939649)
(6.95003773984e-06 7.79395863194e-06 0.00210670124473)
(6.61698235351e-06 9.17862035141e-06 0.00218141807373)
(5.6566759208e-06 1.05536718687e-05 0.00224233173736)
(4.1247175792e-06 1.17077503291e-05 0.00228726823082)
(2.17576718401e-06 1.24711125766e-05 0.00231479950565)
(6.07500015145e-09 1.27377736817e-05 0.00232409281178)
(-2.16351352042e-06 1.24698198081e-05 0.00231480319782)
(-4.11264169238e-06 1.17041092758e-05 0.00228727613764)
(-5.64710705473e-06 1.05457729502e-05 0.00224234366112)
(-6.61511182306e-06 9.16474718138e-06 0.00218143021883)
(-6.95948878817e-06 7.77501046119e-06 0.00210670371899)
(-6.6895505865e-06 6.63358546284e-06 0.00202122833277)
(-6.12210079384e-06 5.88819619719e-06 0.00192908314116)
(1.03229092939e-05 1.04841528409e-05 0.0024246294753)
(1.07279250725e-05 1.2052873723e-05 0.00253465280142)
(1.07189866294e-05 1.4028532494e-05 0.00263614119685)
(9.91221955147e-06 1.62076944926e-05 0.0027244170931)
(8.30603730303e-06 1.82610662576e-05 0.00279604045347)
(5.98156176881e-06 1.99311055715e-05 0.00284866889545)
(3.1342739565e-06 2.10162559367e-05 0.00288081837928)
(1.05925506012e-08 2.13924448942e-05 0.00289164875928)
(-3.11368968726e-06 2.10156619728e-05 0.00288082494811)
(-5.96313561767e-06 1.9928635137e-05 0.0028486825906)
(-8.29279460566e-06 1.82544342404e-05 0.00279606138972)
(-9.90906677693e-06 1.61947004119e-05 0.00272444228756)
(-1.07290582582e-05 1.40091368312e-05 0.00263616177565)
(-1.07494872942e-05 1.20270369593e-05 0.00253464298395)
(-1.03475184004e-05 1.04546790002e-05 0.00242451945183)
(1.50789244171e-05 1.56255527444e-05 0.00288133860749)
(1.52070308142e-05 1.80470931954e-05 0.00300362736495)
(1.47928823117e-05 2.08394573182e-05 0.00311547147731)
(1.3407415408e-05 2.37623375936e-05 0.00321206896624)
(1.10731153983e-05 2.64289052613e-05 0.00328995303806)