/*--------------------------------*- C++ -*----------------------------------*\
  =========                 |
  \\      /  F ield         | OpenFOAM: The Open Source CFD Toolbox
   \\    /   O peration     | Website:  https://openfoam.org
    \\  /    A nd           | Version:  7
     \\/     M anipulation  |
\*---------------------------------------------------------------------------*/
FoamFile
{
    version     2.0;
    format      ascii;
    class       volVectorField;
    location    "2.36";
    object      U;
}
// * * * * * * * * * * * * * * * * * * * * * * * * * * * * * * * * * * * * * //

dimensions      [0 1 -1 0 0 0 0];

internalField   nonuniform List<vector> 
22500
(
(3.43765342925e-05 3.83396504964e-05 0.000789259683454)
(3.21272767984e-05 4.29837557316e-05 0.000828215257312)
(2.81025105499e-05 4.777045126e-05 0.000863804333178)
(2.36531573023e-05 5.18256774186e-05 0.00089443970829)
(1.83980200711e-05 5.51924233901e-05 0.000919205350297)
(1.26027891934e-05 5.76987056712e-05 0.000937388965413)
(6.40469908725e-06 5.92457958277e-05 0.000948504064296)
(-2.71930706929e-09 5.97692622551e-05 0.000952259408269)
(-6.4100597551e-06 5.9245733712e-05 0.000948503257499)
(-1.26079109912e-05 5.76986376696e-05 0.00093738735976)
(-1.84025859834e-05 5.51924831473e-05 0.000919203053751)
(-2.36568725573e-05 5.18259024106e-05 0.000894437048174)
(-2.81050837408e-05 4.7771052651e-05 0.000863801660882)
(-3.21287147377e-05 4.2984577954e-05 0.000828212376418)
(-3.43768438795e-05 3.83404644638e-05 0.000789251722887)
(9.84311245184e-05 0.000110187299939 0.00190679821105)
(9.17204439718e-05 0.000123191722423 0.00198091396908)
(8.04228364675e-05 0.000136375433424 0.0020475732784)
(6.75341158854e-05 0.000147640191474 0.00210414787041)
(5.25020110649e-05 0.000156977386962 0.00214932336607)
(3.59343118247e-05 0.00016392352412 0.00218217898177)
(1.82526270477e-05 0.000168210589618 0.00220213274747)
(-7.0439437036e-09 0.000169660266367 0.00220884607927)
(-1.82665208982e-05 0.000168210771375 0.00220213010936)
(-3.59475971518e-05 0.000163924010764 0.00218217378783)
(-5.25140251827e-05 0.000156978435356 0.00214931600074)
(-6.75441243691e-05 0.000147641851173 0.00210413932627)
(-8.04301464123e-05 0.000136378000096 0.00204756472391)
(-9.17249957626e-05 0.000123194714936 0.00198090493357)
(-9.84327865516e-05 0.000110190064001 0.0019067787344)
(0.000142770105338 0.000159892989372 0.00270483380905)
(0.000132296980068 0.000177423428897 0.00279099142891)
(0.000115603295281 0.000195096967796 0.00286733938698)
(9.66678184065e-05 0.000210107907451 0.00293133990095)
(7.49199364626e-05 0.000222483955323 0.00298188424544)
(5.11566260688e-05 0.000231653255225 0.00301833070881)
(2.59468707017e-05 0.000237297832014 0.00304033323931)
(-1.03456887939e-08 0.000239204074033 0.00304770795319)
(-2.59672921318e-05 0.000237298584639 0.00304032923972)
(-5.11762012292e-05 0.000231654903613 0.00301832286868)
(-7.49378381257e-05 0.000222486776189 0.00298187318833)
(-9.66830881003e-05 0.000210111911413 0.00293132710117)
(-0.000115614951043 0.000195102240042 0.00286732679789)
(-0.000132304874432 0.000177429137448 0.0027909789542)
(-0.000142773821427 0.000159898042943 0.00270480838216)
(0.000172593486056 0.000193300152915 0.003278580578)
(0.000159027382751 0.000212696243265 0.00336394367018)
(0.000138365390869 0.000232267559603 0.00343834241201)
(0.000115190956209 0.000248705719867 0.00349988429443)
(8.89730785967e-05 0.000262179964019 0.00354791486729)
(6.05966284376e-05 0.000272112012308 0.00358222805964)
(3.06863128274e-05 0.000278206733449 0.00360280786666)
(-1.2903490744e-08 0.000280261559874 0.0036096786895)
(-3.07117790823e-05 0.000278207934426 0.00360280326728)
(-6.06210283847e-05 0.000272114566436 0.00358221908776)
(-8.89954746589e-05 0.000262184140911 0.00354790231507)
(-0.000115210300836 0.000248711529172 0.00349986992965)
(-0.000138380565862 0.000232274920897 0.00343832883801)
(-0.000159038222646 0.00021270409849 0.00336393169853)
(-0.000172599364079 0.000193307208448 0.00327855694242)
(0.000191985277364 0.000215079691249 0.00369037552384)
(0.000175940284126 0.000234635929409 0.00376797402313)
(0.000152409252412 0.000254501189702 0.00383432811627)
(0.000126347845713 0.000270969489756 0.00388838707572)
(9.72723606556e-05 0.000284389715109 0.003930017693)
(6.60864585684e-05 0.000294231105626 0.00395944533037)
(3.34158333948e-05 0.000300250881821 0.00397696386455)
(-1.47817730935e-08 0.000302277023362 0.003982787606)
(-3.34449909357e-05 0.000300252347079 0.00397695933257)
(-6.61143585098e-05 0.000294234193429 0.00395943655271)
(-9.72979918216e-05 0.000284394677014 0.00393000556557)
(-0.0001263701422 0.000270976355026 0.00388837353825)
(-0.000152427101404 0.000254509832957 0.00383431630851)
(-0.000175953537676 0.000234645154171 0.00376796582865)
(-0.000191993220679 0.000215088192599 0.00369035891922)
(0.000203209811287 0.000227727765872 0.00398350932445)
(0.000185248329198 0.000246259384764 0.00404998437041)
(0.000159764358614 0.000265330700389 0.00410559119128)
(0.000131910465578 0.000280921320981 0.00415009726606)
(0.000101240178713 0.000293552606572 0.00418384571315)
(6.86228257681e-05 0.000302770103833 0.00420740898781)
(3.46490835627e-05 0.000308391224316 0.00422131495669)
(-1.6030604821e-08 0.000310280301503 0.00422591544638)
(-3.46806928036e-05 0.000308392828953 0.00422131097046)
(-6.86530471911e-05 0.0003027734638 0.00420740134642)
(-0.000101267971287 0.000293557949018 0.00418383537402)
(-0.000131934791426 0.000280928690405 0.00415008629031)
(-0.00015978421464 0.000265339963762 0.00410558318919)
(-0.000185263623832 0.000246269295623 0.00404998216871)
(-0.000203219712192 0.000227737090414 0.00398350198905)
(0.000207997264109 0.000233119177869 0.00418937318905)
(0.000188635888607 0.000249835385191 0.00424366574771)
(0.000161973964768 0.000267390966368 0.00428794924572)
(0.00013321581944 0.000281537689308 0.00432266066332)
(0.000101943130925 0.000292934750691 0.00434850750696)
(6.89496297334e-05 0.000301214880905 0.00436629136442)
(3.47682388749e-05 0.000306250734891 0.00437667849425)
(-1.67517430174e-08 0.000307940929231 0.00438009558555)
(-3.48012661132e-05 0.000306252361145 0.00437667533314)
(-6.89812068355e-05 0.000301218270122 0.00436628540708)
(-0.000101972227216 0.000292940097938 0.00434849976255)
(-0.000133241458333 0.000281545047989 0.00432265332129)
(-0.000161995287474 0.000267400208497 0.00428794635444)
(-0.000188652901779 0.000249845312791 0.00424367076085)
(-0.00020800898609 0.000233128681602 0.00418937557503)
(0.000207862368984 0.000232921336907 0.00433131973089)
(0.000187567927288 0.000247359590229 0.00437381034707)
(0.000160370927654 0.000262965643374 0.00440747903887)
(0.000131407735269 0.000275362861967 0.00443322758886)
(0.000100285885184 0.000285298737573 0.00445198642754)
(6.76936359661e-05 0.000292491487895 0.00446466517658)
(3.40938786868e-05 0.000296856567408 0.00447197707053)
(-1.70798320582e-08 0.000298320195805 0.00447436621596)
(-3.41275575482e-05 0.000296858097323 0.0044719748502)
(-6.77258622675e-05 0.000292494665902 0.00446466113393)
(-0.000100315669788 0.000285303728556 0.00445198164238)
(-0.00013143418456 0.000275369727395 0.00443322442156)
(-0.000160393343645 0.000262974275935 0.00440748194912)
(-0.00018758641037 0.000247368878995 0.00437382299536)
(-0.000207875776433 0.000232930409226 0.0043313312472)
(0.000204062750422 0.000228534701845 0.00442690960819)
(0.000183243821912 0.000240477278185 0.00445881295097)
(0.000156033471782 0.000253903317136 0.00448326748799)
(0.000127401839736 0.000264421465733 0.00450142767913)
(9.69853195052e-05 0.000272814607513 0.00451430625615)
(6.5347586914e-05 0.00027887691322 0.00452281603783)
(3.2876718263e-05 0.000282551157863 0.00452764398667)
(-1.71628592235e-08 0.000283782495414 0.00452920786687)
(-3.2910575527e-05 0.000282552478082 0.00452764271203)
(-6.53800376921e-05 0.000278879651628 0.00452281392887)
(-9.70154383725e-05 0.000272818905153 0.00451430449921)
(-0.00012742882405 0.000264427396346 0.0045014288585)
(-0.000156056777701 0.00025391081129 0.00448327643144)
(-0.000183263604138 0.000240485365252 0.0044588330463)
(-0.000204077704604 0.00022854278398 0.0044269290518)
(0.000197599303256 0.000221081328286 0.00448934392638)
(0.000176599633088 0.000230475792866 0.00451227716069)
(0.000149791279822 0.000241620604672 0.00452919651957)
(0.00012189602689 0.000250235554929 0.00454132000153)
(9.25822269279e-05 0.000257090850469 0.00454962386356)
(6.22799228887e-05 0.000262041473042 0.00455494577349)
(3.13030939832e-05 0.000265041894135 0.00455789693047)
(-1.71437590796e-08 0.000266047491731 0.00455884131577)
(-3.13369393986e-05 0.000265042904016 0.00455789654318)
(-6.23124453898e-05 0.000262043572221 0.00455494549364)
(-9.2612576515e-05 0.000257094162122 0.00454962501818)
(-0.000121923491908 0.000250240177195 0.00454132543662)
(-0.000149815445958 0.000241626525949 0.00452921135715)
(-0.000176620674275 0.000230482214089 0.00451230400281)
(-0.000197615714753 0.000221087956603 0.00448936964888)
(0.000189255006166 0.000211448809629 0.00452846884792)
(0.000168350126562 0.000218339632916 0.00454415516432)
(0.000142269750204 0.000227175261974 0.00455522308072)
(0.00011541305339 0.000233920299395 0.00456280397849)
(8.74774618993e-05 0.000239290491944 0.00456775237697)
(5.87607811941e-05 0.000243180362247 0.0045707820954)
(2.95085536775e-05 0.000245542117996 0.00457240231368)
(-1.71520585563e-08 0.00024633431734 0.00457291064062)
(-2.95424533183e-05 0.00024554273741 0.00457240271338)
(-5.87934712815e-05 0.000243181662234 0.00457078344562)
(-8.75081695892e-05 0.000239292584266 0.00456775615242)
(-0.000115441142109 0.000233923311229 0.00456281328463)
(-0.000142294897735 0.000227179263922 0.00455524322928)
(-0.000168372471307 0.000218344033528 0.00454418745201)
(-0.000189272861034 0.000211453637084 0.00452849861517)
(0.000179632479072 0.000200337330513 0.00455154387152)
(0.000159034536751 0.00020480180866 0.00456162618501)
(0.000133939743669 0.000211335249677 0.00456836656412)
(0.000108344509302 0.000216275592844 0.00457270634584)
(8.19659406808e-05 0.000220239528064 0.00457533180928)
(5.49849496991e-05 0.000223133085574 0.00457681258666)
(2.75894838508e-05 0.000224896823694 0.00457754874469)
(-1.72942039225e-08 0.000225489327272 0.00457777008985)
(-2.76237161953e-05 0.00022489700603 0.00457754977038)
(-5.50181093176e-05 0.000223133493553 0.00457681521527)
(-8.19973305102e-05 0.000220240258809 0.00457533760568)
(-0.000108373540747 0.000216276796164 0.00457271859857)
(-0.000133966124785 0.000211337087891 0.0045683906656)
(-0.000159058316035 0.000204803915387 0.00456166170108)
(-0.00017965182177 0.000200340053949 0.00455157443266)
(0.000169181015518 0.000188265153175 0.00456387405276)
(0.000149076426749 0.000190370056772 0.00456981549648)
(0.000125175010656 0.000194643101633 0.00457350356513)
(0.000100989889871 0.000197874029481 0.00457564248429)
(7.62609555242e-05 0.000200525044348 0.00457674531684)
(5.10865836572e-05 0.000202485497881 0.00457724170089)
(2.56103123325e-05 0.00020368668811 0.00457742894047)
(-1.76449437717e-08 0.000204090821352 0.00457747433747)
(-2.56453017919e-05 0.000203686439194 0.00457743031229)
(-5.11206570667e-05 0.000202485024566 0.00457724495758)
(-7.62934871559e-05 0.000200524410436 0.00457675193307)
(-0.000101020307695 0.000197873388445 0.00457565570657)
(-0.000125202982483 0.000194642681662 0.00457352878552)
(-0.00014910184016 0.000190369730491 0.00456985057031)
(-0.000169201932667 0.000188265602395 0.00456390099465)
(0.000158292079042 0.000175555736886 0.00456936783534)
(0.000138906985965 0.000175373219402 0.00457240652921)
(0.000116299240761 0.000177469324153 0.00457401683536)
(9.35610652252e-05 0.00017914299504 0.00457469990199)
(7.04909601349e-05 0.000180578596467 0.00457483263606)
(4.71376060409e-05 0.000181656536535 0.00457472599052)
(2.36035647976e-05 0.000182319072719 0.00457458778698)
(-1.82272057268e-08 0.000182541957735 0.00457453074005)
(-2.3639776459e-05 0.000182318466376 0.0045745890447)
(-4.71730686704e-05 0.000181655322794 0.00457472877757)
(-7.0525115103e-05 0.000180576797503 0.00457483795848)
(-9.35933291378e-05 0.000179140715864 0.00457471039517)
(-0.000116329165543 0.000177466801984 0.00457403763322)
(-0.000138934236328 0.000175370534239 0.00457243494618)
(-0.000158314730314 0.000175553891603 0.00456938564516)
(0.000147593767086 0.000162268514571 0.00457108144756)
(0.000129078525516 0.000159017807525 0.00457217577687)
(0.000107463772511 0.000159551569037 0.00457231376112)
(8.61162937544e-05 0.000159949658574 0.00457197289116)
(6.46679151372e-05 0.000160347938146 0.00457144025741)
(4.3139523293e-05 0.000160651426438 0.00457093390714)
(2.15695282989e-05 0.000160837894662 0.00457058673143)
(-1.89933620295e-08 0.000160900433286 0.00457046508803)
(-2.16073238424e-05 0.000160837060333 0.00457058740647)
(-4.31767130932e-05 0.000160649733431 0.00457093506087)
(-6.47040099774e-05 0.000160345368668 0.00457144192039)
(-8.61506998128e-05 0.000159946238456 0.00457197602567)
(-0.000107495875098 0.000159547464993 0.00457232247536)
(-0.000129107585019 0.00015901309737 0.00457218397104)
(-0.000147618429887 0.000162264550644 0.00457109107554)
(1.22506972138e-06 1.9493752389e-06 0.000485662728711)
(7.63588182456e-07 2.52102031953e-06 0.000509933743628)
(5.5633871637e-07 2.85462684283e-06 0.000531999996817)
(3.45978520669e-07 3.10830370052e-06 0.000551059278264)
(1.84660621709e-07 3.27593424037e-06 0.000566511459886)
(8.47175362047e-08 3.37473994695e-06 0.0005778806632)
(3.2247692369e-08 3.42478697512e-06 0.000584842912211)
(8.33373196021e-09 3.44028907811e-06 0.000587202458621)
(-1.6091421583e-08 3.4258943078e-06 0.000584844365203)
(-7.01419835299e-08 3.37661829831e-06 0.000577883482535)
(-1.72928754013e-07 3.27791112405e-06 0.000566515398222)
(-3.38169341454e-07 3.10957337145e-06 0.000551063775649)
(-5.53100200418e-07 2.85412366549e-06 0.000532004252646)
(-7.64682490564e-07 2.5183468299e-06 0.000509935687552)
(-1.22847718965e-06 1.94515952853e-06 0.000485656340863)
(1.11091953934e-05 1.34163819777e-05 0.00137178168338)
(9.69316511263e-06 1.62966329595e-05 0.0014360596987)
(8.53578308637e-06 1.87497058428e-05 0.00149436627401)
(7.11626589548e-06 2.0879352707e-05 0.0015445922914)
(5.49059945759e-06 2.25823346232e-05 0.00158521297844)
(3.73804829612e-06 2.38176402423e-05 0.00161504688709)
(1.89805851476e-06 2.45665984396e-05 0.00163329032807)
(1.88245262677e-08 2.48185517302e-05 0.00163945624428)
(-1.86157684347e-06 2.45687904875e-05 0.00163329446913)
(-3.70516827444e-06 2.38212968082e-05 0.00161505492285)
(-5.46405822369e-06 2.2586018536e-05 0.00158522421771)
(-7.09855158087e-06 2.08813197676e-05 0.00154460524057)
(-8.52834674509e-06 1.87477829099e-05 0.00149437867964)
(-9.69540261745e-06 1.62899256631e-05 0.00143606579352)
(-1.11170111721e-05 1.34058607346e-05 0.00137176705996)
(2.50049558258e-05 2.87746709716e-05 0.00217431946234)
(2.24130671664e-05 3.42837501447e-05 0.00226967618881)
(1.99257087823e-05 3.92200582608e-05 0.00235560475866)
(1.68020711305e-05 4.35491764737e-05 0.0024291732152)
(1.31052425275e-05 4.70635276038e-05 0.0024883484342)
(8.99102022391e-06 4.96457456405e-05 0.0025316240075)
(4.58087796822e-06 5.12257669861e-05 0.00255800342128)
(2.39363687067e-08 5.1758862121e-05 0.00256689434466)
(-4.53447124844e-06 5.12279210017e-05 0.00255800926023)
(-8.94913206495e-06 4.96491878421e-05 0.0025316353665)
(-1.30712367313e-05 4.70665641836e-05 0.00248836444555)
(-1.6779092215e-05 4.35497583903e-05 0.00242919203143)
(-1.99157053765e-05 3.92158277915e-05 0.00235562343461)
(-2.24153849298e-05 3.42736555884e-05 0.00226968694066)
(-2.50148588957e-05 2.87595555668e-05 0.00217430172712)
(4.00697215825e-05 4.49749977376e-05 0.00288514857041)
(3.60748535208e-05 5.28936634041e-05 0.00300099989357)
(3.20658708537e-05 6.00115589135e-05 0.00310431199101)
(2.70444487984e-05 6.62563578085e-05 0.00319195248201)
(2.11093274188e-05 7.13311167335e-05 0.00326187752592)
(1.44871618531e-05 7.50621424103e-05 0.0033126881723)
(7.37852780336e-06 7.73463090556e-05 0.00334351856629)
(2.51223531111e-08 7.81164994459e-05 0.00335387710847)
(-7.32980410071e-06 7.73480485654e-05 0.0033435249904)
(-1.44431283168e-05 7.50647689697e-05 0.00331270074801)
(-2.10734472796e-05 7.13329879518e-05 0.00326189555295)
(-2.70200267332e-05 6.62554614177e-05 0.00319197443057)
(-3.20551054668e-05 6.00056808735e-05 0.00310433521271)
(-3.6077197896e-05 5.28816509453e-05 0.00300101631394)
(-4.00805637186e-05 4.49572474497e-05 0.00288513447985)
(5.44374461346e-05 6.00708077911e-05 0.00349713307562)
(4.8904824598e-05 6.9922593533e-05 0.00362267546935)
(4.3345137095e-05 7.86355237321e-05 0.00373313007621)
(3.64551265354e-05 8.62589382253e-05 0.00382573500491)
(2.83987292172e-05 9.24330637017e-05 0.00389886880114)
(1.94591612773e-05 9.69587820004e-05 0.00395158195053)
(9.89818855551e-06 9.97240054643e-05 0.00398338323331)
(2.38045261946e-08 0.000100654931972 0.0039940306321)
(-9.85200852024e-06 9.97251530051e-05 0.00398338940187)
(-1.94173800848e-05 9.69603118246e-05 0.00395159420198)
(-2.83645792838e-05 9.24335406657e-05 0.00389888690024)
(-3.64317619778e-05 8.6256586231e-05 0.00382575826769)
(-4.33348112388e-05 7.86284057132e-05 0.00373315698051)
(-4.89072505816e-05 6.99095948522e-05 0.00362269884357)
(-5.44485582391e-05 6.00516998356e-05 0.00349712769387)
(6.70532114277e-05 7.30362071016e-05 0.00400904471287)
(5.99498020326e-05 8.42444652579e-05 0.0041347558138)
(5.29160202572e-05 9.38827445319e-05 0.00424359398072)
(4.43234752542e-05 0.000102279692036 0.00433358551507)
(3.44205920497e-05 0.000109040897856 0.00440380514954)
(2.35293186695e-05 0.000113973225479 0.00445393563872)
(1.19487412369e-05 0.000116977229948 0.00448397513658)
(2.10866996102e-08 0.000117986474324 0.00449399379082)
(-1.19078182519e-05 0.000116977655678 0.00448398066349)
(-2.34922407449e-05 0.00011397345892 0.0044539468818)
(-3.43901861912e-05 0.000109039795117 0.00440382251949)
(-4.43025890925e-05 0.000102275824215 0.00433360947647)
(-5.29068427913e-05 9.38745384102e-05 0.00424362462328)
(-5.99523743609e-05 8.4230908015e-05 0.00413478740359)
(-6.70642699061e-05 7.30165155881e-05 0.00400905097911)
(7.7337647817e-05 8.33597617132e-05 0.00442552890582)
(6.87291575195e-05 9.53344424368e-05 0.00454404189657)
(6.03739785324e-05 0.000105256326536 0.00464477360456)
(5.03321869105e-05 0.00011385429922 0.00472675740024)
(3.89421153607e-05 0.000120725351225 0.0047898585571)
(2.65461105438e-05 0.000125707951709 0.00483441644047)
(1.34560450973e-05 0.000128730517347 0.00486091122889)
(1.77448052489e-08 0.000129743627018 0.0048697099747)
(-1.34215944194e-05 0.000128730189801 0.00486091610202)
(-2.65148536449e-05 0.000125706841132 0.0048344266901)
(-3.89164135827e-05 0.000120722622685 0.00478987530773)
(-5.03145087509e-05 0.000113848900635 0.00472678236388)
(-6.03663889738e-05 0.000105247090436 0.0046448086269)
(-6.8731973738e-05 9.53205031368e-05 0.00454408266216)
(-7.73484954954e-05 8.33399308809e-05 0.004425548102)
(8.50538969153e-05 9.08821619868e-05 0.00475546539414)
(7.50912831782e-05 0.000103077959682 0.00486182935848)
(6.56210901768e-05 0.000112737446299 0.00495038596253)
(5.44328608232e-05 0.000121055411147 0.00502120422557)
(4.19471201298e-05 0.000127643263696 0.00507488208942)
(2.85098662853e-05 0.000132387970597 0.00511232032595)
(1.44240622196e-05 0.000135253378509 0.00513438792124)
(1.42725181734e-08 0.000136211418509 0.00514168182627)
(-1.43963495272e-05 0.000135252340431 0.00513439235233)
(-2.84847113334e-05 0.000132385590203 0.00511233000321)
(-4.19264291993e-05 0.00012763899098 0.00507489883246)
(-5.44187088334e-05 0.000121048554793 0.00502123093873)
(-6.56153695485e-05 0.000112727228076 0.00495042612912)
(-7.50945189953e-05 0.000103063703683 0.00486187966483)
(-8.50645008776e-05 9.08623805734e-05 0.0047554973733)
(9.0213932034e-05 9.56904519554e-05 0.00501011297672)
(7.91102718021e-05 0.000107638388382 0.00510162321434)
(6.87626254951e-05 0.000116614561694 0.00517609542759)
(5.67491085558e-05 0.000124285487889 0.00523451074634)
(4.35542323008e-05 0.000130297865884 0.00527803935924)
(2.95134315942e-05 0.000134595577872 0.00530798000511)
(1.49036780477e-05 0.000137178708049 0.00532545452812)
(1.09281001019e-08 0.000138040177976 0.0053311998841)
(-1.48824725605e-05 0.000137177041028 0.00532545879659)
(-2.94942233466e-05 0.000134592065297 0.00530798963524)
(-4.35385186082e-05 0.000130292196934 0.00527805678506)
(-5.67385844554e-05 0.000124277280193 0.00523453990677)
(-6.87589652134e-05 0.000116603382411 0.00517614115223)
(-7.91141043397e-05 0.000107623766708 0.00510168254719)
(-9.02243325717e-05 9.56707239956e-05 0.00501015623945)
(9.29941098138e-05 9.8026684258e-05 0.00520154959798)
(8.09982051053e-05 0.000109344180716 0.00527734391095)
(7.00211807248e-05 0.000117341230088 0.00533751418983)
(5.74981634116e-05 0.00012410893914 0.00538372849774)
(4.39521838735e-05 0.000129349352943 0.00541751993693)
(2.96960354538e-05 0.000133064787346 0.00544040144278)
(1.49687204736e-05 0.00013528717074 0.00545360622882)
(7.81368496277e-09 0.00013602649992 0.00545792191316)
(-1.49535961486e-05 0.000135284982073 0.0054536105424)
(-2.96824478553e-05 0.00013306032624 0.00544041137872)
(-4.39412823657e-05 0.000129342486225 0.00541753841099)
(-5.74912892068e-05 0.000124099529569 0.00538376025649)
(-7.00197472029e-05 0.000117329123809 0.00533756503277)
(-8.10028293237e-05 0.000109329093003 0.00527741050839)
(-9.30043786731e-05 9.80069031202e-05 0.00520160115476)
(9.3664796384e-05 9.82155760266e-05 0.00534154925617)
(8.10368757082e-05 0.000108601391914 0.00540212554754)
(6.96729791897e-05 0.000115429252956 0.00544894919111)
(5.69353582104e-05 0.000121130859771 0.00548409989234)
(4.33555058567e-05 0.000125483215337 0.00550926315041)
(2.92123931185e-05 0.000128542679678 0.00552599946486)
(1.47000959764e-05 0.0001303643674 0.00553553244278)
(4.93107974566e-09 0.000130969049388 0.00553862665927)
(-1.46906213862e-05 0.000130361777217 0.00553553680633)
(-2.92040941119e-05 0.000128537479127 0.00552600961641)
(-4.33492392858e-05 0.000125475387093 0.00550928229289)
(-5.69321397161e-05 0.000121120433297 0.00548413330157)
(-6.96739340341e-05 0.000115416277171 0.0054490032641)
(-8.10424951838e-05 0.000108585739927 0.00540219589881)
(-9.36750411775e-05 9.81955508496e-05 0.00534160420279)
(9.25310413375e-05 9.66072516609e-05 0.00544088509839)
(7.95246264671e-05 0.00010582492422 0.00548764629229)
(6.80042985955e-05 0.000111369204943 0.00552277695234)
(5.53200518355e-05 0.000115913938256 0.00554849062083)
(4.19788738607e-05 0.000119326662403 0.00556645383433)
(2.8215281802e-05 0.000121706069934 0.0055781510214)
(1.41769598352e-05 0.000123117730745 0.00558471009312)
(2.2430767466e-09 0.000123585488059 0.00558682146065)
(-1.41727719628e-05 0.000123114886316 0.00558471417759)
(-2.82119885928e-05 0.000121700382488 0.00557816057385)
(-4.19770946276e-05 0.000119318171381 0.00556647205641)
(-5.53205024953e-05 0.00011590275691 0.00554852297624)
(-6.80077963076e-05 0.000111355506437 0.00552283017221)
(-7.95314714444e-05 0.000105808698674 0.00548771454084)
(-9.25414146037e-05 9.65869141943e-05 0.00544093602314)
(8.98763834421e-05 9.35187951562e-05 0.00550899180365)
(7.67402190813e-05 0.000101376094587 0.00554388312072)
(6.52947476516e-05 0.000105575782594 0.00556928502659)
(5.29068060276e-05 0.000108930324728 0.00558731794699)
(4.00305892818e-05 0.000111407694901 0.00559953580881)
(2.68507548311e-05 0.000113125089024 0.00560728054722)
(1.34741402901e-05 0.000114142249428 0.00561153661944)
(-2.79492689858e-10 0.000114478983822 0.00561289191798)
(-1.3474934106e-05 0.000114139312464 0.00561153965759)
(-2.68522263232e-05 0.000113119209411 0.00560728772846)
(-4.00331515342e-05 0.000111398922987 0.00559954989081)
(-5.2910903514e-05 0.00010891876965 0.00558734409002)
(-6.53008799136e-05 0.000105561632148 0.00556933020614)
(-7.67484395532e-05 0.000101359416489 0.00554394051441)
(-8.98870092669e-05 9.3498242266e-05 0.00550902902474)
(8.59605262339e-05 8.92218771342e-05 0.00555390731574)
(7.29774665927e-05 9.56766321737e-05 0.0055791886382)
(6.18604642848e-05 9.8449510078e-05 0.00559681895769)
(4.99687723331e-05 0.000100614620776 0.00560877539854)
(3.77238222725e-05 0.000102194166692 0.00561652082871)
(2.52625957705e-05 0.00010328787434 0.00562123979668)
(1.26636009592e-05 0.000103935857141 0.00562375573872)
(-2.6437839309e-09 0.000104150166498 0.00562454349353)
(-1.26690668557e-05 0.000103932995392 0.00562375653915)
(-2.52685426335e-05 0.000103282128685 0.00562124190274)
(-3.77304975578e-05 0.000102185540609 0.00561652589273)
(-4.99764068184e-05 0.000100603153115 0.00560878736298)
(-6.18692445728e-05 9.84353322452e-05 0.00559684475533)
(-7.29871402495e-05 9.56597522943e-05 0.00557922268093)
(-8.59715197271e-05 8.92011217455e-05 0.00555391999617)
(8.08653149842e-05 8.52999690843e-05 0.00558250116429)
(6.85721601537e-05 8.93417639512e-05 0.00560066163911)
(5.80060553842e-05 9.04852033623e-05 0.00561205633927)
(4.67439114106e-05 9.14264260662e-05 0.00561917012246)
(3.52344554842e-05 9.2083510013e-05 0.00562341291437)
(2.35649556162e-05 9.25338050888e-05 0.00562580269875)
(1.18014250273e-05 9.27981167965e-05 0.00562699608306)
(-4.81458514122e-09 9.28846550318e-05 0.00562735498784)
(-1.1811175975e-05 9.27955361588e-05 0.00562699347539)
(-2.35750058419e-05 9.25286181803e-05 0.0056257971011)
(-3.52448912869e-05 9.20756559819e-05 0.00562340415965)
(-4.67547653289e-05 9.14158720504e-05 0.00561915942057)
(-5.80173483933e-05 9.0471895962e-05 0.00561204941893)
(-6.8583234761e-05 8.93254981374e-05 0.0056006508414)
(-8.08770510483e-05 8.52798745959e-05 0.00558248836425)
(-9.2184818341e-08 -3.45969491137e-07 0.000337150244118)
(1.50309733435e-07 -5.69761782148e-07 0.000354243819815)
(3.62532033076e-07 -6.93230735554e-07 0.000369860968919)
(4.65896010075e-07 -7.16695738088e-07 0.00038343991079)
(4.68057499127e-07 -6.82947028623e-07 0.000394492749367)
(3.72284996661e-07 -6.27647783428e-07 0.000402648966232)
(2.05471087475e-07 -5.81508285752e-07 0.000407654108662)
(3.32439114363e-11 -5.63930631576e-07 0.000409353817645)
(-2.05317723683e-07 -5.81807704591e-07 0.000407655825362)
(-3.71905451726e-07 -6.2822150221e-07 0.000402652303705)
(-4.67446845248e-07 -6.8376246381e-07 0.000394497430413)
(-4.65199045735e-07 -7.17699794191e-07 0.000383445306114)
(-3.6211900133e-07 -6.94496788208e-07 0.000369865909971)
(-1.50527726337e-07 -5.71253451788e-07 0.000354245943506)
(9.15511218867e-08 -3.47435615422e-07 0.000337144183385)
(1.19591603218e-06 7.7841972486e-07 0.00100748235794)
(1.67324124517e-06 6.0714668124e-07 0.00105755728944)
(2.05899841762e-06 6.7796152529e-07 0.00110339960811)
(2.14086845811e-06 9.59101259023e-07 0.00114325687437)
(1.93334358467e-06 1.32522645401e-06 0.00117570089877)
(1.45548165837e-06 1.6735753333e-06 0.0011996461399)
(7.81511697214e-07 1.91843145065e-06 0.00121433788199)
(2.30962790092e-09 2.00624518379e-06 0.00121931424438)
(-7.76858120669e-07 1.91769095223e-06 0.00121434371389)
(-1.45080093586e-06 1.67206050085e-06 0.00119965745509)
(-1.92889604759e-06 1.32288506051e-06 0.00117571673898)
(-2.1371917437e-06 9.55941455251e-07 0.00114327518331)
(-2.05694023689e-06 6.73823802581e-07 0.00110341674427)
(-1.67339263318e-06 6.02229886327e-07 0.00105756614826)
(-1.19768269773e-06 7.73228825199e-07 0.00100746962302)
(4.10329357554e-06 3.82945054607e-06 0.00166372990384)
(4.6008674346e-06 4.19390374533e-06 0.00174461488011)
(4.91948973135e-06 4.89204863726e-06 0.00181854825253)
(4.73767600682e-06 5.82985940749e-06 0.00188269508344)
(4.0793396057e-06 6.7949996969e-06 0.00193481673414)
(2.98629977581e-06 7.62021874135e-06 0.00197323061276)
(1.57934003183e-06 8.1708823597e-06 0.00199677125585)
(5.45510246983e-09 8.36400387862e-06 0.00200472932107)
(-1.56857728203e-06 8.16978208718e-06 0.00199678107952)
(-2.97605075583e-06 7.61786228924e-06 0.00197324968068)
(-4.07022520727e-06 6.79117474107e-06 0.00193484349682)
(-4.73057943191e-06 5.82444206613e-06 0.00188272630636)
(-4.91550629852e-06 4.88488810388e-06 0.00181857830492)
(-4.60055271399e-06 4.18536611613e-06 0.00174463299761)
(-4.10575509351e-06 3.82026949936e-06 0.00166371625923)
(8.68493696847e-06 8.794759973e-06 0.00229611890097)
(9.02056603448e-06 1.00935041661e-05 0.00240377334987)
(9.04946803146e-06 1.17652865956e-05 0.00250168216141)
(8.36165477095e-06 1.36389624622e-05 0.00258623263766)
(6.99926106416e-06 1.54106581733e-05 0.00265465076164)
(5.03406034213e-06 1.6854035871e-05 0.00270490846262)
(2.63565924471e-06 1.77920333467e-05 0.00273563046274)
(8.45921606648e-09 1.81170587639e-05 0.00274599391913)
(-2.61911873433e-06 1.77907856434e-05 0.00273564338924)
(-5.0186964311e-06 1.6851276137e-05 0.00270493362533)
(-6.98606312877e-06 1.54060023144e-05 0.00265468633728)
(-8.35177953267e-06 1.36321092544e-05 0.00258627483594)
(-9.04409943481e-06 1.17560170987e-05 0.00250172433542)
(-9.02005909432e-06 1.00821956312e-05 0.002403802572)
(-8.68806587205e-06 8.78220158661e-06 0.00229611064533)
(1.44393103052e-05 1.50489345337e-05 0.00289227983107)
(1.44534523976e-05 1.74647000397e-05 0.00302065175703)
(1.40113727502e-05 2.02303305157e-05 0.00313641657371)
(1.2631554243e-05 2.31117239904e-05 0.00323565049953)
(1.03872331552e-05 2.57225225921e-05 0.00331543464129)
(7.38446389718e-06 2.7792955058e-05 0.00337373826118)
(3.83978184939e-06 2.9117409499e-05 0.00340924459549)
(1.04879604192e-08 2.95729102317e-05 0.00342119161888)
(-3.81937164052e-06 2.91161002639e-05 0.00340925932925)
(-7.36576734631e-06 2.77900109841e-05 0.00337376710827)
(-1.03715097716e-05 2.57174376254e-05 0.00331547594461)
(-1.26201177548e-05 2.31040460124e-05 0.00323570069375)
(-1.40053958735e-05 2.0219743029e-05 0.00313646912116)
(-1.44530855862e-05 1.74514968023e-05 0.00302069289442)
(-1.44430755204e-05 1.50337508685e-05 0.00289228141358)
(2.07929699059e-05 2.19208445104e-05 0.00344008614972)
(2.03523806531e-05 2.54411566982e-05 0.00358172212043)
(1.93045040692e-05 2.9221538294e-05 0.00370797469796)
(1.71133335861e-05 3.30030272396e-05 0.00381514263617)
(1.38962820927e-05 3.63369760702e-05 0.00390057751381)