/*--------------------------------*- C++ -*----------------------------------*\
  =========                 |
  \\      /  F ield         | OpenFOAM: The Open Source CFD Toolbox
   \\    /   O peration     | Website:  https://openfoam.org
    \\  /    A nd           | Version:  7
     \\/     M anipulation  |
\*---------------------------------------------------------------------------*/
FoamFile
{
    version     2.0;
    format      ascii;
    class       surfaceScalarField;
    location    "0.16";
    object      phi;
}
// * * * * * * * * * * * * * * * * * * * * * * * * * * * * * * * * * * * * * //

dimensions      [0 3 -1 0 0 0 0];

internalField   nonuniform List<scalar> 
65775
(
1.17098634086e-11
2.2768657736e-09
3.03788828078e-10
2.33935787979e-14
1.75351207986e-11
2.38485622413e-09
3.35953636666e-10
2.06880900434e-11
2.47785994147e-09
3.66371141768e-10
2.02204260309e-11
2.55817778129e-09
3.9363746914e-10
1.6828940229e-11
2.62223831579e-09
4.16407858861e-10
1.11014705733e-11
2.6691248288e-09
4.33572871776e-10
3.90070925149e-12
2.69858052207e-09
4.44404419241e-10
-3.82353541837e-12
2.70971435959e-09
4.48298886962e-10
-1.10267591341e-11
2.69856910445e-09
4.44404376962e-10
-1.67588407401e-11
2.66910263056e-09
4.33572820525e-10
-2.01574461397e-11
2.62220565543e-09
4.1640785572e-10
-2.06340955641e-11
2.55813703243e-09
3.9363763199e-10
-1.74921339653e-11
2.47781337915e-09
3.66371820153e-10
-1.16746573427e-11
2.38481249594e-09
3.3595631869e-10
2.27684237844e-09
3.03799060972e-10
4.41620231265e-14
3.2167751061e-11
3.93660841497e-09
7.7782222377e-10
5.56928955542e-14
5.32776613513e-11
4.10998858556e-09
8.5729105589e-10
6.29131082043e-11
4.25992506338e-09
9.31829234592e-10
6.19695755505e-11
4.3875503692e-09
9.98205542542e-10
5.16793075656e-11
4.48892586805e-09
1.05333543568e-09
3.41266402156e-11
4.56273670611e-09
1.09472687651e-09
1.19658809854e-11
4.60905568627e-09
1.12077954963e-09
-1.17627005087e-11
4.62663030146e-09
1.13013477661e-09
-3.39297739002e-11
4.60902978427e-09
1.12077947452e-09
-5.14946355856e-11
4.56268606732e-09
1.09472680291e-09
-6.18030819107e-11
4.4888516834e-09
1.05333550395e-09
-6.27700875815e-11
4.3874566783e-09
9.98206061809e-10
-5.31614619443e-11
4.259817757e-09
9.31831180355e-10
-3.20759785896e-11
4.109884589e-09
8.57298537493e-10
3.93654301369e-09
7.7784745082e-10
1.12752215519e-13
5.0463378636e-11
5.09120380914e-09
1.14201598167e-09
7.71488478625e-14
8.45985421569e-11
5.29879645501e-09
1.2574421183e-09
9.96664047788e-11
5.47942309421e-09
1.36506023583e-09
9.8050410111e-11
5.63059092621e-09
1.46045063375e-09
8.16530394912e-11
5.75011308324e-09
1.53938080164e-09
5.38593517717e-11
5.83662410833e-09
1.59847442799e-09
1.88628392391e-11
5.89083895712e-09
1.63558910767e-09
-1.85596270767e-11
5.91149723107e-09
1.64888816839e-09
-5.35653880126e-11
5.89080370991e-09
1.63558888462e-09
-8.13771157513e-11
5.83655514976e-09
1.59847409038e-09
-9.78010514892e-11
5.75001225453e-09
1.53938053942e-09
-9.94513158666e-11
5.63046284733e-09
1.46045087878e-09
-8.44220331665e-11
5.47927574027e-09
1.36506233871e-09
-5.0324991936e-11
5.29865126843e-09
1.25745169288e-09
5.09110576192e-09
1.14204939825e-09
1.67045783714e-13
6.72267573291e-11
5.82882519692e-09
1.41957731357e-09
9.13207151975e-14
1.12260918506e-10
6.04824238292e-09
1.56275579451e-09
1.32039930508e-10
6.23987424443e-09
1.6954914896e-09
1.29597848076e-10
6.39752221546e-09
1.81262491228e-09
1.07743668298e-10
6.52137482761e-09
1.90920047787e-09
7.09768557111e-11
6.61043154545e-09
1.98130922288e-09
2.48331740921e-11
6.66614178504e-09
2.02649854248e-09
-2.44516071838e-11
6.68747409209e-09
2.04265127819e-09
-7.06067537859e-11
6.66610232656e-09
2.02649794703e-09
-1.07396023514e-10
6.61035415737e-09
1.98130815657e-09
-1.29283023012e-10
6.52126179459e-09
1.90919914473e-09
-1.31766942598e-10
6.39737818524e-09
1.81262378268e-09
-1.12034971706e-10
6.239707086e-09
1.6954920178e-09
-6.70483303548e-11
6.04807537807e-09
1.56276409559e-09
5.82870513627e-09
1.41961134544e-09
2.1219889264e-13
8.21863548168e-11
6.22565679985e-09
1.62276212177e-09
9.99362950231e-14
1.36539661549e-10
6.44096855385e-09
1.78700756796e-09
1.60385297379e-10
6.62944737483e-09
1.9383992859e-09
1.57100748022e-10
6.78177157349e-09
2.07138918896e-09
1.30415291422e-10
6.90046762381e-09
2.18063868636e-09
8.58139767538e-11
6.98518156121e-09
2.26198303004e-09
2.99992908282e-11
7.03805574701e-09
2.31284039468e-09
-2.95565202583e-11
7.0584150054e-09
2.33096882844e-09
-8.53842950081e-11
7.03801634568e-09
2.31283933947e-09
-1.30011219699e-10
6.98510427629e-09
2.26198096364e-09
-1.56733886791e-10
6.90035468772e-09
2.18063577413e-09
-1.60065311002e-10
6.78162725171e-09
2.07138583024e-09
-1.3627220011e-10
6.62927810744e-09
1.93839678743e-09
-8.19723807121e-11
6.44079792854e-09
1.78701199314e-09
6.22552928397e-09
1.62279162672e-09
2.50992346578e-13
9.54281436887e-11
6.34779692384e-09
1.76157076924e-09
1.04400233792e-13
1.57733436352e-10
6.54822406963e-09
1.94137831075e-09
1.85013009244e-10
6.72394350133e-09
2.10613850035e-09
1.8088915627e-10
6.86330225175e-09
2.25018759564e-09
1.49958279752e-10
6.97080881562e-09
2.36807400352e-09
9.85724183198e-11
7.04688832341e-09
2.45559318405e-09
3.44348663572e-11
7.09424276883e-09
2.51017258515e-09
-3.3943649361e-11
7.11259206796e-09
2.52956650698e-09
-9.80953757664e-11
7.09420740619e-09
2.5101709491e-09
-1.49508968801e-10
7.04681885901e-09
2.45558991167e-09
-1.80479866739e-10
6.97070720947e-09
2.36806916835e-09
-1.84653667741e-10
6.8631718172e-09
2.25018142329e-09
-1.57429530378e-10
6.72378890566e-09
2.10613197218e-09
-9.51811080884e-11
6.54806639033e-09
1.94137722596e-09
6.34767676696e-09
1.76159317326e-09
2.85072946098e-13
1.07135832073e-10
6.25260821405e-09
1.84455407691e-09
1.05856969055e-13
1.76177876748e-10
6.43156195709e-09
2.03541121489e-09
2.06287222216e-10
6.58860030172e-09
2.20924573688e-09
2.01328800427e-10
6.71061105908e-09
2.36048527358e-09
1.6668569242e-10
6.8036030769e-09
2.48377210449e-09
1.09464920662e-10
6.86878245255e-09
2.57502345451e-09
3.82164601941e-11
6.90922015661e-09
2.63177571523e-09
-3.768558997e-11
6.92500104511e-09
2.65186925578e-09
-1.08948881384e-10
6.90919201119e-09
2.63177353568e-09
-1.66198610865e-10
6.86872709325e-09
2.57501902827e-09
-2.00883279254e-10
6.80352195403e-09
2.4837653632e-09
-2.05893089091e-10
6.71050618547e-09
2.36047618535e-09
-1.75840388603e-10
6.5884741148e-09
2.20923485971e-09
-1.06856692957e-10
6.43143250615e-09
2.03540409707e-09
6.25250992582e-09
1.84456861568e-09
3.16244944255e-13
1.17433133324e-10
5.98979031615e-09
1.87925084296e-09
1.04965861905e-13
1.92146403002e-10
6.14398040315e-09
2.07751273277e-09
2.24551545334e-10
6.27930586572e-09
2.25699992295e-09
2.18784932137e-10
6.38207517839e-09
2.41238037701e-09
1.8091867147e-10
6.45929302725e-09
2.53853934937e-09
1.18711358408e-10
6.51284206782e-09
2.63162782637e-09
4.14230636945e-11
6.54594083278e-09
2.6893554029e-09
-4.08578447572e-11
6.55895936955e-09
2.70971029671e-09
-1.18161258858e-10
6.54592238026e-09
2.68935282114e-09
-1.80397996331e-10
6.5128057717e-09
2.63162251288e-09
-2.18306327631e-10
6.45923958658e-09
2.53853105791e-09
-2.24124567666e-10
6.3820052395e-09
2.4123687653e-09
-1.91776055758e-10
6.27921941282e-09
2.25698509854e-09
-1.17121727533e-10
6.14389194485e-09
2.07750011748e-09
5.98972714325e-09
1.87925812559e-09
3.45639562596e-13
1.26404176732e-10
5.60220263981e-09
1.87241651907e-09
1.02402413475e-13
2.05871518164e-10
5.73080734177e-09
2.07520459092e-09
2.40140814844e-10
5.84355327925e-09
2.25769374437e-09
2.33631615442e-10
5.92701571307e-09
2.41488978256e-09
1.92992303753e-10
5.98871755506e-09
2.54201817364e-09
1.26541788585e-10
6.03102475676e-09
2.63553180193e-09
4.41371334065e-11
6.05706983131e-09
2.69334683845e-09
-4.35397358106e-11
6.06739860064e-09
2.71363699414e-09
-1.25959470127e-10
6.05706273436e-09
2.69334410366e-09
-1.92439284838e-10
6.03101084005e-09
2.63552609379e-09
-2.33120344169e-10
5.98869680987e-09
2.54200905211e-09
-2.39680631789e-10
5.92698726967e-09
2.41487657369e-09
-2.05467317525e-10
5.84351492431e-09
2.25767612419e-09
-1.26059363328e-10
5.73076983199e-09
2.07518800413e-09
5.60218585501e-09
1.87241825763e-09
3.7433656396e-13
1.34118746279e-10
5.12655295628e-09
1.83013298709e-09
9.86473492915e-14
2.1757996022e-10
5.23046191755e-09
2.03523853153e-09
2.53415221867e-10
5.32127778857e-09
2.2187518084e-09
2.46279712038e-10
5.38664854119e-09
2.37606795584e-09
2.03273508964e-10
5.43416371517e-09
2.50280468491e-09
1.33205483577e-10
5.46639311969e-09
2.59574804901e-09
4.64472928439e-11
5.48615411491e-09
2.65302895485e-09
-4.58171019532e-11
5.49404965813e-09
2.67302459848e-09
-1.32590075582e-10
5.48615916053e-09
2.6530264277e-09
-2.0268680585e-10
5.46640321786e-09
2.59574267532e-09
-2.45733910025e-10
5.43417825791e-09
2.50279583797e-09
-2.52919526736e-10
5.38666543376e-09
2.37605463455e-09
-2.17139556821e-10
5.32129279749e-09
2.21873328956e-09
-1.33738508887e-10
5.2304823268e-09
2.03522039613e-09
5.12659101953e-09
1.83013180653e-09
4.03259238452e-13
1.40633196594e-10
4.59403749479e-09
1.75785470983e-09
9.41711580467e-14
2.27526233405e-10
4.67513666035e-09
1.96364266725e-09
2.64803828815e-10
4.74563619179e-09
2.14677756817e-09
2.57206763459e-10
4.79500355614e-09
2.30305230036e-09
2.12173137847e-10
4.83039261839e-09
2.42849116302e-09
1.38973462836e-10
4.8542099617e-09
2.52021621687e-09
4.84482278165e-11
4.86875595631e-09
2.57656252458e-09
-4.7782281535e-11
4.87458981215e-09
2.59611382232e-09
-1.3832182913e-10
4.86877304458e-09
2.57656067541e-09
-2.11549329168e-10
4.85424404005e-09
2.52021214273e-09
-2.56622736924e-10
4.83044270125e-09
2.4284840842e-09
-2.64268942098e-10
4.79506671507e-09
2.30304091033e-09
-2.27046352908e-10
4.74570675291e-09
2.14676075132e-09
-1.4021496935e-10
4.67521873605e-09
1.96362616464e-09
4.59413553425e-09
1.75785398541e-09
4.33262747557e-13
1.45990645733e-10
4.03096505751e-09
1.66042466169e-09
8.90197377119e-14
2.36082820159e-10
4.09136936072e-09
1.86574241362e-09
2.74892532747e-10
4.14376383062e-09
2.04757889853e-09
2.66993850081e-10
4.17986928311e-09
2.20208888126e-09
2.20146556687e-10
4.20567838982e-09
2.32569040937e-09
1.44128342855e-10
4.22302032567e-09
2.41582628451e-09
5.02358038331e-11
4.23355893654e-09
2.47101314063e-09
-4.95293866342e-11
4.23775656835e-09
2.49003379657e-09
-1.43435685644e-10
4.23358722026e-09
2.47101253115e-09
-2.19480808286e-10
4.22307666859e-09
2.41582467838e-09
-2.66366845341e-10
4.20576192296e-09
2.32568694151e-09
-2.7431410912e-10
4.17997684474e-09
2.20208197925e-09
-2.35559978243e-10
4.14388907525e-09
2.04756698916e-09
-1.45531984417e-10
4.09151357875e-09
1.86573123348e-09
4.03112497053e-09
1.66042824777e-09
4.65098320858e-13
1.50409542143e-10
3.45919035497e-09
1.54207943911e-09
8.33844132345e-14
2.44053236572e-10
3.50046273603e-09
1.74618757374e-09
2.84563797435e-10
3.53766814807e-09
1.92620473875e-09
2.76313821538e-10
3.56385316038e-09
2.0785681628e-09
2.27630708906e-10
3.58286266518e-09
2.20007049006e-09
1.48912414956e-10
3.59568907105e-09
2.28845390913e-09
5.18876741768e-11
3.60340375078e-09
2.34238764262e-09
-5.11350908234e-11
3.60638838122e-09
2.3608390211e-09
-1.48173227718e-10
3.60344161629e-09
2.34238887109e-09
-2.26917695971e-10
3.59576477857e-09
2.2884560362e-09
-2.75639015445e-10
3.58297558276e-09
2.20007268379e-09
-2.83937834828e-10
3.56400074352e-09
2.07856867778e-09
-2.4348471539e-10
3.53784429925e-09
1.92620138757e-09
-1.49909118532e-10
3.5006667159e-09
1.74618550717e-09
3.45941094945e-09
1.54209085944e-09
4.96814470781e-13
1.55083862301e-10
2.89573790287e-09
1.40645597211e-09
7.70901177362e-14
2.53041233649e-10
2.91926260252e-09
1.60902522619e-09
2.94792240876e-10
2.94562529603e-09
1.78701523606e-09
2.85568111792e-10
2.96554387592e-09
1.93708261305e-09
2.34754569321e-10
2.98028145477e-09
2.05641004922e-09
1.53359162191e-10
2.99025665531e-09
2.14301787665e-09
5.34102775892e-11
2.99615174085e-09
2.19569401254e-09
-5.2606002091e-11
2.99829435836e-09
2.21357027436e-09
-1.5256820755e-10
2.99619735383e-09
2.19569759293e-09
-2.33989777966e-10
2.99034788728e-09
2.14302485003e-09
-2.84841880582e-10
2.98041808692e-09
2.05641980308e-09
-2.94116366607e-10
2.96572443727e-09
1.9370934888e-09
-2.52425814752e-10
2.94584543046e-09
1.78702436348e-09
-1.54541943007e-10
2.91952127421e-09
1.60903587925e-09
2.89601297644e-09
1.40647743304e-09
5.29480552647e-13
1.64291580802e-10
1.25686731617e-09
7.05753601625e-14
2.35003982614e-09
2.65611940935e-10
1.45810801967e-09
2.36247561599e-09
3.06378014669e-10
1.63390967979e-09
2.38377805458e-09
2.9489100522e-10
1.78157737172e-09
2.40025016834e-09
2.41523617289e-10
1.89870370817e-09
2.41240448943e-09
1.57472153474e-10
1.9835538235e-09
2.42073132141e-09
5.48061660753e-11
2.03499521595e-09
2.42560043794e-09
-5.39460245047e-11
2.05230163643e-09
2.42721802315e-09
-1.56626040686e-10
2.03500126737e-09
2.42565219578e-09
-2.40705004942e-10
1.98356593545e-09
2.42083491424e-09
-2.94113047333e-10
1.89872166574e-09
2.41255976124e-09
-3.05653472031e-10
1.78160008445e-09
2.40045659081e-09
-2.64953145094e-10
1.63393387761e-09
2.38403375623e-09
-1.63713219213e-10
1.45813644776e-09
2.36277993587e-09
1.25689545345e-09
5.60551419284e-13
2.35036345401e-09
-3.27915967924e-12
1.1588516604e-10
1.91201914655e-10
7.16084650457e-15
-4.40792077144e-12
1.26931478399e-10
2.10193917872e-10
-4.69571528345e-12
1.38782506759e-10
2.27918904622e-10
-4.39095696127e-12
1.49683092046e-10
2.4368776184e-10
-3.56309914683e-12
1.58828694487e-10
2.56779206184e-10
-2.31784286731e-12
1.6574198029e-10
2.66606809195e-10
-7.95019764164e-13
1.70103776489e-10
2.72796943063e-10
8.26310552894e-13
1.71667476477e-10
2.75029047232e-10
2.35025775718e-12
1.70101887752e-10
2.72797417466e-10
3.59735926017e-12
1.65736604107e-10
2.66607771945e-10
4.4259788857e-12
1.58816742621e-10
2.56780696094e-10
4.72816697101e-12
1.49663377505e-10
2.43689912305e-10
4.43541468682e-12
1.38759825091e-10
2.27922148411e-10
3.29983711579e-12
1.26909018449e-10
2.10199722421e-10
1.15879140309e-10
1.91215010847e-10
2.07632749216e-14
-5.68870689221e-12
3.4300748273e-10
5.56418929231e-10
1.8670717094e-14
-7.88996589568e-12
3.73261982073e-10
6.13228353308e-10
-8.38132086134e-12
4.048424231e-10
6.66328298772e-10
-7.75683807625e-12
4.337306878e-10
7.13591037009e-10
-6.23451033226e-12
4.57836252792e-10
7.52848813861e-10
-4.02238639356e-12
4.75959200158e-10
7.82332192553e-10
-1.36064950861e-12
4.87361051272e-10
8.00892335495e-10
1.46438257382e-12
4.91451095317e-10
8.07557376929e-10
4.12786993859e-12
4.87355172857e-10
8.00893603835e-10
6.34229368822e-12
4.75944497537e-10
7.82334778016e-10
7.86378030885e-12
4.57807443395e-10
7.52852855949e-10
8.47979936108e-12
4.33685240425e-10
7.13596946545e-10
7.9730921951e-12
4.0478832103e-10
6.66337302723e-10
5.7519716294e-12
3.7321072297e-10
6.13244579124e-10
3.42988828064e-10
5.56452971664e-10
6.1573218326e-14
-5.13715761765e-12
6.1244070994e-10
8.77738219545e-10
2.82734875798e-14
-7.06175293107e-12
6.63486012359e-10
9.69202635848e-10
-7.31110329012e-12
7.15623763181e-10
1.05458995723e-09
-6.57976306883e-12
7.63008808538e-10
1.13049286354e-09
-5.16702030398e-12
8.02368663631e-10
1.19347534448e-09
-3.27149618656e-12
8.31831547936e-10
1.24073905155e-09
-1.06970328004e-12
8.50321802819e-10
1.27045654709e-09
1.25106879972e-12
8.5695324784e-10
1.28109461578e-09
3.45390147161e-12
8.50311816314e-10
1.27045835432e-09
5.34979538639e-12
8.31808282776e-10
1.24074275102e-09
6.75775351351e-12
8.02326455921e-10
1.19348116956e-09
7.47400987973e-12
7.62945275669e-10
1.13050144878e-09
7.19941620406e-12
7.15548158081e-10
1.05460307461e-09
5.24326695062e-12
6.63417153014e-10
9.69226117312e-10
6.1241515629e-10
8.77786496319e-10
1.0270624662e-13
-2.39847897579e-12
8.84487770051e-10
1.14993659261e-09
3.64381964937e-14
-2.86431687793e-12
9.54749522546e-10
1.27201288188e-09
-2.46214345002e-12
1.02505903322e-09
1.38570922977e-09
-1.80035017207e-12
1.08844678312e-09
1.48657130598e-09
-1.14959291053e-12
1.14082881644e-09
1.57012628151e-09
-5.92770058815e-13
1.17986824962e-09
1.63274663959e-09
-1.08524660556e-13
1.20430524414e-09
1.67205954806e-09
3.68921744807e-13
1.21306556735e-09
1.68608938975e-09
8.52599582285e-13
1.20429180233e-09
1.67206156446e-09
1.40638994048e-12
1.17983847457e-09
1.63275078789e-09
2.04716297375e-12
1.14077786922e-09
1.57013286432e-09
2.68706143909e-12
1.08837323553e-09
1.48658109264e-09
3.05533799039e-12
1.02497191703e-09
1.38572425579e-09
2.54800857746e-12
9.54671636236e-10
1.27203978817e-09
8.84458589172e-10
1.14999165349e-09
1.45207691711e-13
2.00500725972e-12
1.13138993907e-09
1.37385209773e-09
4.34290612994e-14
3.90201533244e-12
1.21748589915e-09
1.52242368405e-09
5.30407220558e-12
1.30175023962e-09
1.66035442642e-09
5.76109800154e-12
1.3770299843e-09
1.78239018772e-09
5.13783113544e-12
1.43885775168e-09
1.88326649258e-09
3.56353806991e-12
1.48471619183e-09
1.95873822422e-09
1.36443758092e-12
1.51333901732e-09
2.00603257465e-09
-1.02633051829e-12
1.52359353068e-09
2.02285767194e-09
-3.22803494246e-12
1.51332376494e-09
2.006034461e-09
-4.80943288092e-12
1.48468335995e-09
1.95874220441e-09
-5.44831097734e-12
1.43880366309e-09
1.88327289346e-09
-5.01981476207e-12
1.37695407649e-09
1.78239979858e-09
-3.65904908947e-12
1.30166102312e-09
1.66036927788e-09
-1.81175411922e-12
1.21740667369e-09
1.52245069108e-09
1.13136140594e-09
1.37390828697e-09
1.88207279084e-13
7.57927888187e-12
1.33496109368e-09
1.55040930872e-09
4.94185719043e-14
1.25337779708e-11
1.43260973473e-09
1.72134344419e-09
1.5224816148e-11
1.52582306495e-09
1.87941754724e-09
1.53893282257e-11
1.60826419681e-09
2.01882605123e-09
1.31119536833e-11
1.67547954453e-09
2.13376067609e-09
8.81578016475e-12
1.72506200868e-09
2.21957088641e-09
3.21587457317e-12
1.75590636619e-09
2.27323068606e-09
-2.80316711542e-12
1.76694688892e-09
2.29225679328e-09
-8.40786163071e-12
1.75589093658e-09
2.2732323593e-09
-1.27153282205e-11
1.72502947783e-09
2.21957444073e-09
-1.50138373711e-11
1.67542747735e-09
2.1337663964e-09
-1.48838827649e-11
1.60819274113e-09
2.01883461661e-09
-1.22404929442e-11
1.52573968294e-09
1.8794307591e-09
-7.34216062098e-12
1.43253672741e-09
1.72136822695e-09
1.33493652948e-09
1.55046311383e-09
2.30822417659e-13
1.38751132975e-11
1.48469029991e-09
1.68093065261e-09
5.437242872e-14
2.2400512038e-11
1.58934136588e-09
1.87019215247e-09
2.66080846704e-11
1.6864645478e-09
2.04443464804e-09
2.64364425455e-11
1.77141728926e-09
2.19753702355e-09
2.22480534086e-11
1.84008587928e-09
2.32338263127e-09
1.48230846153e-11
1.89042151073e-09
2.4171143458e-09
5.32735397535e-12
1.92161236226e-09
2.47558932515e-09
-4.84423108116e-12
1.93276257658e-09
2.49624812966e-09
-1.43468475769e-11
1.92159853692e-09
2.47559079112e-09
-2.17870165352e-11
1.89039279813e-09
2.4171174508e-09
-2.60015709455e-11
1.84004078329e-09
2.32338754719e-09
-2.62130003872e-11
1.77135635862e-09
2.19754419723e-09
-2.2058409788e-11
1.68639363493e-09
2.04444548985e-09
-1.35944993848e-11
1.58928127046e-09
1.87021351084e-09
1.48467403814e-09
1.68098025127e-09
2.7281418077e-13
2.05134831511e-11
1.57614385655e-09
1.76725698287e-09
5.82596184571e-14
3.29552515995e-11
1.68341407314e-09
1.97103149563e-09
3.88446707755e-11
1.77988828491e-09
2.15771995559e-09
3.83305608618e-11
1.86324518262e-09
2.32109636935e-09
3.20848028806e-11
1.92995212992e-09
2.4549450941e-09
2.12873448058e-11
1.97849482851e-09
2.55437580269e-09
7.59581887528e-12
2.00843661396e-09
2.61624513892e-09
-7.04684297611e-12
2.01912041205e-09
2.63801669216e-09
-2.07471206067e-11
2.00842587432e-09
2.6162465717e-09
-3.15632175939e-11
1.97847280144e-09
2.55437877104e-09
-3.78394724674e-11
1.92991806514e-09
2.45494958765e-09
-3.83978061769e-11
1.86319978665e-09
2.32110249423e-09
-3.25656689574e-11
1.77983577873e-09
2.15772861827e-09
-2.01900750318e-11
1.68337273056e-09
1.97104946922e-09
1.57614168512e-09
1.76730204852e-09
3.13738445917e-13
2.7188585799e-11
1.60959340389e-09
1.81174544797e-09
6.12921743199e-14
4.37350207794e-11
1.71555497536e-09
2.02654603496e-09
5.14123868918e-11
1.80760832351e-09
2.22232517576e-09
5.05802213666e-11
1.88606693778e-09
2.39292667153e-09
4.22272504088e-11
1.94813872248e-09
2.532208377e-09
2.7954529084e-11
1.99293496631e-09
2.63538640858e-09
9.93379816985e-12
2.02041770592e-09
2.69940735159e-09
-9.32352969154e-12
2.03019771006e-09
2.72183708358e-09
-2.73545815465e-11
2.02041128625e-09
2.69940910123e-09
-4.16488112023e-11
1.99292196562e-09
2.63538990968e-09
-5.00358474041e-11
1.94811893244e-09
2.53221337649e-09
-5.09158874833e-11
1.88604096247e-09
2.39293284212e-09
-4.32993847805e-11
1.80757890085e-09
2.2223328351e-09
-2.6823134509e-11
1.71553770701e-09
2.02656189811e-09
1.60961046882e-09
1.81178699732e-09
3.53260926631e-13
3.36677731488e-11
1.58882724918e-09
1.81719316435e-09
6.34366873417e-14
5.43637641635e-11
1.69018375003e-09
2.0399383485e-09
6.38816586772e-11
1.7749650553e-09
2.24190206523e-09
6.27803526195e-11
1.84613300814e-09
2.41712657177e-09
5.23508849866e-11
1.90172268584e-09
2.55967183377e-09
3.46165858762e-11
1.94147458405e-09
2.66496302217e-09
1.22698378946e-11
1.96571313766e-09
2.73009967017e-09
-1.16026679699e-11
1.97430513558e-09
2.75280830379e-09
-3.39610216171e-11
1.96571181651e-09
2.7301022546e-09
-5.17191532097e-11
1.94147208419e-09
2.66496807141e-09
-6.21855859311e-11
1.90171924358e-09
2.55967880781e-09
-6.33377281982e-11
1.8461292032e-09
2.41713463154e-09
-5.38837038482e-11
1.77496236172e-09
2.24191085681e-09
-3.32614825688e-11
1.69019515126e-09
2.03995451276e-09
1.58886917535e-09
1.81723340034e-09
3.91144689626e-13
3.97889505591e-11
1.52013272623e-09
1.78671810415e-09
6.49796886165e-14
6.45566299456e-11
1.61429974389e-09
2.01477994712e-09
7.59253708725e-11
1.68987478469e-09
2.2205205431e-09
7.46230055763e-11
1.75225709364e-09
2.39825114284e-09
6.22089518963e-11
1.80033057893e-09
2.54231675645e-09
4.11150299877e-11
1.83438328932e-09
2.64842002032e-09
1.45493754161e-11
1.85500747801e-09
2.71385165329e-09
-1.38296674373e-11
1.86227741377e-09
2.73653784903e-09
-4.04079862602e-11
1.85501165708e-09
2.71385572876e-09
-6.15276279802e-11
1.83439208277e-09
2.64842792645e-09
-7.39809853273e-11
1.80034456554e-09
2.54232764758e-09
-7.53366373171e-11
1.75227693693e-09
2.39826360429e-09
-6.40343521705e-11
1.6899011344e-09
2.22053343717e-09
-3.93435197779e-11
1.6143433642e-09
2.01479974315e-09
1.52020398896e-09
1.78676019776e-09
4.27040010963e-13
4.54565184797e-11
1.41143593462e-09
1.72361944015e-09
6.58820417035e-14
7.41320252e-11
1.49653241605e-09
1.95485220345e-09
8.73420920949e-11
1.56177789407e-09
2.16248409416e-09
8.59183490937e-11
1.61469673135e-09
2.34109097481e-09
7.16453963406e-11
1.65496238369e-09
2.48534886387e-09
4.73466989075e-11
1.68324242726e-09
2.59128248273e-09
1.67362916801e-11
1.70025404772e-09
2.65639321822e-09
-1.59686993043e-11
1.70620209148e-09
2.67882967174e-09
-4.65926846112e-11
1.70026390235e-09
2.6563995175e-09
-7.0918766135e-11
1.6832626679e-09
2.59129473237e-09
-8.52330151985e-11
1.65499409248e-09
2.48536593667e-09
-8.67121531309e-11
1.61474071385e-09
2.34111084528e-09
-7.35707611282e-11
1.56183456239e-09
2.16250466065e-09
-4.49747992515e-11
1.49661052243e-09
1.95487947608e-09
1.41154029567e-09
1.72366711031e-09
4.60589514138e-13
5.06828720962e-11
1.27155061768e-09
1.63123395583e-09
6.62022799191e-14
8.30944253642e-11
1.34630836573e-09
1.86401553387e-09
9.8136758792e-11
1.40077575808e-09
2.07218041502e-09
9.66500988574e-11
1.44428479906e-09
2.25048224435e-09
8.06252760796e-11
1.47710127145e-09
2.39397171036e-09
5.32779110672e-11
1.50002514483e-09
2.49903353567e-09
1.88166229451e-11
1.51373085366e-09
2.56338649815e-09
-1.80064505496e-11
1.51846764978e-09
2.58541076151e-09
-5.24823085182e-11
1.51374637245e-09
2.56339571939e-09
-7.98586233381e-11
1.50005695201e-09
2.49905157851e-09
-9.59267272395e-11
1.47715056736e-09
2.39399726231e-09
-9.74706791339e-11
1.44435293409e-09
2.25051272176e-09
-8.24990065941e-11
1.40086311757e-09
2.07221250044e-09
-5.0169214948e-11
1.34642258149e-09
1.8640540352e-09
1.27169115504e-09
1.63129037654e-09
4.89762084516e-13
5.55984107265e-11
1.10955599802e-09
1.51280347822e-09
6.59516990032e-14
9.16061929502e-11
1.1731651142e-09
1.74617413686e-09
1.08495793094e-10
1.21691599851e-09
1.95399891177e-09
1.06953782345e-10
1.25176249732e-09
2.13116073806e-09
8.92232525681e-11
1.27805111024e-09
2.27320426341e-09
5.89412613687e-11
1.29642606791e-09
2.37691215005e-09
2.07989943273e-11
1.30736699981e-09
2.44021323467e-09
-1.9952544913e-11
1.31108679531e-09
2.46171511471e-09
-5.8110441103e-11
1.30738844212e-09
2.44022585849e-09
-8.84233102749e-11
1.29646957505e-09
2.37693702782e-09
-1.06199226404e-10
1.27811803309e-09
2.27324009524e-09
-1.0780061593e-10
1.25185430628e-09
2.13120467087e-09
-9.09830031502e-11
1.21703386434e-09
1.95404632593e-09
-5.50585704224e-11
1.17331613949e-09
1.74622710737e-09
1.10973317338e-09
1.51287000568e-09
5.15235645063e-13
5.69384269937e-11
1.37135142027e-09
6.56601187439e-14
9.38083946496e-10
9.82619865682e-11
1.60543128221e-09
9.84530384935e-10
1.17806800217e-10
1.81219596273e-09
1.01909720234e-09
1.16626128898e-10
1.98757550041e-09
1.04695706856e-09
9.7448771164e-11
2.12771188082e-09
1.06823249803e-09
6.44095835945e-11
2.22977169517e-09
1.08325942593e-09
2.27187694046e-11
2.29185322703e-09
1.0922113436e-09
-2.18433191961e-11
2.31276911634e-09
1.09519272554e-09
-6.35512357203e-11
2.29186913405e-09
1.09223924628e-09
-9.66237409516e-11
2.22980322268e-09
1.08331577409e-09
-1.15849501456e-10
2.12775795877e-09
1.06831820589e-09
-1.17092000068e-10
1.98763360435e-09
1.04707353356e-09
-9.76212469535e-11
1.8122605764e-09
1.01924590289e-09
-5.63810666826e-11
1.60550340414e-09
9.84717802976e-10
1.37142264923e-09
5.32672567054e-13
9.38300375485e-10
1.31618434744e-12
-6.16150974352e-12
1.96066761948e-10
1.98545693004e-15
2.06393214981e-12
-7.18412693085e-12
2.16653436562e-10
2.45565503316e-12
-8.42496252934e-12
2.35978945525e-10
2.44989013332e-12
-9.54072129602e-12
2.53255066858e-10
2.07402204506e-12
-1.04765685128e-11
2.67654539698e-10
1.39037170707e-12
-1.11827276599e-11
2.78496817486e-10
5.00775483065e-13
-1.16282239403e-11
2.85336328084e-10
-4.64321163639e-13
-1.17860943186e-11
2.87798709169e-10
-1.35540430898e-12
-1.16327740551e-11
2.85337332098e-10
-2.04161394608e-12
-1.11904714827e-11
2.7849884135e-10
-2.41989904919e-12
-1.04854428664e-11
2.67657631616e-10
-2.42696542069e-12
-9.5499568905e-12
2.53259366012e-10
-2.03957871681e-12
-8.43826527858e-12
2.35984823257e-10
-1.2958596744e-12
-7.19497904767e-12
2.16662188565e-10
-6.16924776494e-12
1.96082490257e-10
1.64713351673e-14
3.21351329449e-12
6.65790976277e-12
5.40416099296e-10
4.10527354636e-15
5.26658572974e-12
6.97926769363e-12
5.97050642713e-10
6.32352169947e-12
6.81742329405e-12
6.50068247565e-10
6.33926104107e-12
6.74826474012e-12
6.97321843283e-10
5.37613771361e-12
6.75750709764e-12
7.36615032427e-10
3.60763104719e-12
6.80442564322e-12
7.66150523861e-10
1.30345316065e-12
6.84878896293e-12
7.84753025729e-10
-1.1944883003e-12
6.86668181263e-12
7.91431744038e-10
-3.50239118651e-12
6.83847870958e-12
7.84755933045e-10
-5.27744299198e-12
6.78609643471e-12
7.66156378238e-10
-6.24761088222e-12
6.73493715015e-12
7.36623970075e-10
-6.23843744362e-12
6.72357805214e-12
6.97334253846e-10
-5.19283675052e-12
6.78717828959e-12
6.50085191185e-10
-3.15318214008e-12
6.9520081729e-12
5.97075695473e-10
6.63965156006e-12
5.40458324585e-10
4.89193279664e-14
4.61516453883e-12
4.29744211985e-11
8.36831648423e-10
5.60178904893e-15
7.74866849634e-12
4.74638485846e-11
9.25620127011e-10
9.36569526926e-12
5.12531730741e-11
1.00857195724e-09
9.41472557942e-12
5.4855126977e-11
1.08236985113e-09
7.99213415643e-12
5.80408269628e-11
1.14364860965e-09
5.36576516323e-12
6.05433419375e-11
1.18966029345e-09
1.94362933268e-12
6.2157352148e-11
1.21860093153e-09
-1.76351829389e-12
6.27353741274e-11
1.22896014219e-09
-5.19116282884e-12
6.2142974762e-11
1.21860547748e-09
-7.82740288678e-12
6.05173243347e-11
1.18966944763e-09
-9.26167248642e-12
5.80078427347e-11
1.14366257621e-09
-9.22540434466e-12
5.481839151e-11
1.08238919413e-09
-7.62658403084e-12
5.1211023649e-11
1.00859817834e-09
-4.51531352164e-12
4.74252593076e-11
9.25658198997e-10
4.29507054507e-11
8.36893778986e-10
8.16050604106e-14
5.79297482391e-12
9.68068449288e-11
1.09033274665e-09
6.7860872657e-15
9.89271766607e-12
1.07392210433e-10
1.20801538825e-09
1.20331742076e-11
1.17122594444e-10
1.31773019382e-09
1.21289886461e-11
1.26195559195e-10
1.41516539329e-09
1.03083107688e-11
1.340581118e-10
1.49596047347e-09
6.92463993963e-12
1.40142635066e-10
1.55656108228e-09
2.51304294908e-12
1.44031297011e-10
1.59462481477e-09
-2.26347703317e-12
1.45417736205e-10
1.60820823902e-09
-6.68204714209e-12
1.44014597772e-10
1.59463066256e-09
-1.00784840711e-11
1.40111917889e-10
1.55657285492e-09
-1.19154365892e-11
1.34018052391e-10
1.49597841209e-09
-1.18387104074e-11
1.26150328919e-10
1.41519013445e-09
-9.72334168159e-12
1.17073206102e-10
1.31776339371e-09
-5.65337719334e-12
1.07347950142e-10
1.20806260396e-09
9.67803967444e-11
1.09040757533e-09
1.14988747905e-13
6.95222757132e-12
1.61831228356e-10
1.30189316711e-09
7.96250479732e-15
1.20017323319e-11
1.79524013905e-10
1.44526794783e-09
1.46644428277e-11
1.96226517044e-10
1.57861490073e-09
1.48119579904e-11
2.11655410551e-10
1.69680951833e-09
1.26005198085e-11
2.24892100643e-10
1.79467111654e-09
8.46787037346e-12
2.35055392943e-10
1.86798480957e-09
3.07631091771e-12
2.41516265187e-10
1.91396397815e-09
-2.75879748607e-12
2.43812594247e-10
1.93032042947e-09
-8.1586707049e-12
2.41498502404e-10
1.91397085153e-09
-1.23068401635e-11
2.35022462275e-10
1.86799862882e-09
-1.45390488581e-11
2.24848606484e-10
1.79469210538e-09
-1.44167493148e-11
2.11606117334e-10
1.69683825732e-09
-1.17858488816e-11
1.96174211121e-10
1.5786529248e-09
-6.77296250788e-12
1.79479228699e-10
1.44532091039e-09
1.61804986413e-10
1.3019751445e-09
1.4879662966e-13
8.25530089397e-12
2.31512993733e-10
1.47248475934e-09
9.12399231131e-15
1.43248213536e-11
2.56435102194e-10
1.63838514448e-09
1.7545682687e-11
2.80187926189e-10
1.79225845962e-09
1.7744085407e-11
3.01956441632e-10