/*--------------------------------*- C++ -*----------------------------------*\
  =========                 |
  \\      /  F ield         | OpenFOAM: The Open Source CFD Toolbox
   \\    /   O peration     | Website:  https://openfoam.org
    \\  /    A nd           | Version:  7
     \\/     M anipulation  |
\*---------------------------------------------------------------------------*/
FoamFile
{
    version     2.0;
    format      ascii;
    class       surfaceScalarField;
    location    "0.72";
    object      phi;
}
// * * * * * * * * * * * * * * * * * * * * * * * * * * * * * * * * * * * * * //

dimensions      [0 3 -1 0 0 0 0];

internalField   nonuniform List<scalar> 
65775
(
-4.60719336509e-11
-7.45208595621e-09
-1.10632760635e-10
-1.60765403399e-12
-8.28283912159e-11
-7.84616640605e-09
-1.22790147536e-10
-9.88497765889e-11
-8.20709837913e-09
-1.37598632843e-10
-9.57060684635e-11
-8.51535043212e-09
-1.5347462886e-10
-7.76310679033e-11
-8.76131283917e-09
-1.68334766505e-10
-4.82761509243e-11
-8.94100853695e-09
-1.80339746475e-10
-1.19076234775e-11
-9.05346562629e-09
-1.88158093027e-10
2.68592689974e-11
-9.095178225e-09
-1.908950228e-10
6.30167430097e-11
-9.05257266726e-09
-1.87921781201e-10
9.19838117204e-11
-8.93926362072e-09
-1.79869182638e-10
1.0957427255e-10
-8.75881126583e-09
-1.67636559214e-10
1.1208918359e-10
-8.51244216074e-09
-1.52558567485e-10
9.53391767989e-11
-8.20404851849e-09
-1.36477160983e-10
5.75132165406e-11
-7.84355643913e-09
-1.21483060833e-10
-7.45028457733e-09
-1.0918944061e-10
8.10563322703e-12
-1.40043771003e-10
-1.3770101806e-08
-7.89447746325e-10
-4.19716716266e-12
-2.4961836418e-10
-1.44818178785e-08
-9.00682540025e-10
-2.99709841835e-10
-1.51369356521e-08
-1.01888898243e-09
-2.94428696589e-10
-1.56872377805e-08
-1.13459721199e-09
-2.41647838652e-10
-1.61211022793e-08
-1.23736169618e-09
-1.52335594588e-10
-1.64348849228e-08
-1.31801097638e-09
-3.99094149343e-11
-1.6630174476e-08
-1.36980588451e-09
8.02800531177e-11
-1.67024306739e-08
-1.38805060075e-09
1.92217151551e-10
-1.66281456816e-08
-1.36915207342e-09
2.80620754514e-10
-1.64309468342e-08
-1.31670096598e-09
3.32181922253e-10
-1.61155023782e-08
-1.23541165747e-09
3.35880550758e-10
-1.56805954291e-08
-1.13203024731e-09
2.83774006303e-10
-1.51299706695e-08
-1.01573801937e-09
1.71168383479e-10
-1.44754965149e-08
-8.96999230703e-10
-1.37652910487e-08
-7.85360795485e-10
2.25120323315e-11
-2.31776837835e-10
-1.86946818729e-08
-1.7294458821e-09
-5.68755643661e-12
-4.02241389772e-10
-1.9618866623e-08
-1.97641822189e-09
-4.83344831497e-10
-2.04598949157e-08
-2.23041125736e-09
-4.77526653085e-10
-2.115475781e-08
-2.47266112946e-09
-3.94463196104e-10
-2.169548939e-08
-2.68390526817e-09
-2.51076524656e-10
-2.20822585535e-08
-2.84767987197e-09
-6.93088501039e-11
-2.23216650674e-08
-2.95213354369e-09
1.25356553189e-10
-2.24103622902e-08
-2.98892880604e-09
3.06592850173e-10
-2.23189134585e-08
-2.95121356749e-09
4.48974001436e-10
-2.20769507423e-08
-2.84583348563e-09
5.30622482752e-10
-2.16879805951e-08
-2.68114477785e-09
5.34525723359e-10
-2.11457882673e-08
-2.46900394771e-09
4.5078961974e-10
-2.04504472798e-08
-2.22588739512e-09
2.76227489057e-10
-1.96099489578e-08
-1.97108194152e-09
-1.86874759438e-08
-1.72346243669e-09
3.27904326893e-11
-3.15027980842e-10
-2.21715300786e-08
-2.73324558607e-09
-6.24643568513e-12
-5.36344533551e-10
-2.32049638779e-08
-3.11452530165e-09
-6.4394782756e-10
-2.41252272041e-08
-3.49719813894e-09
-6.37837125327e-10
-2.48731633904e-08
-3.85518864022e-09
-5.2913578587e-10
-2.54474120352e-08
-4.16288700892e-09
-3.39487770975e-10
-2.585365689e-08
-4.39903907755e-09
-9.81959369716e-11
-2.61038658297e-08
-4.54875025719e-09
1.60497557071e-10
-2.61969201853e-08
-4.60145039116e-09
4.01365419507e-10
-2.61007995904e-08
-4.54771940801e-09
5.9019156789e-10
-2.58477675746e-08
-4.3969662665e-09
6.97675402398e-10
-2.5439117899e-08
-4.15977338077e-09
7.02028055879e-10
-2.48632190167e-08
-3.85103421854e-09
5.91811920792e-10
-2.41146578776e-08
-3.49201317983e-09
3.66240324932e-10
-2.31946816528e-08
-3.10834236439e-09
-2.21626597275e-08
-2.72622079682e-09
3.85373221264e-11
-3.86724924824e-10
-2.42956774096e-08
-3.65415709886e-09
-6.14553418728e-12
-6.51864282294e-10
-2.53541609513e-08
-4.14565552806e-09
-7.81816126761e-10
-2.62722443754e-08
-4.62890085001e-09
-7.75288989004e-10
-2.70064353119e-08
-5.07395474513e-09
-6.44929984107e-10
-2.75627797066e-08
-5.45206230894e-09
-4.16336795209e-10
-2.7952303485e-08
-5.73989934309e-09
-1.25001870392e-10
-2.819118427e-08
-5.92149168287e-09
1.87507378284e-10
-2.82804973962e-08
-5.98536071217e-09
4.78544779153e-10
-2.81881059736e-08
-5.92044719127e-09
7.06539355873e-10
-2.79464145006e-08
-5.73779731164e-09
8.35958094438e-10
-2.7554512774e-08
-5.4488962514e-09
8.4102611828e-10
-2.69965069836e-08
-5.06971121897e-09
7.08749406177e-10
-2.62615909853e-08
-4.62357159984e-09
4.39692489188e-10
-2.5343584171e-08
-4.13924686772e-09
-2.428599323e-08
-3.64679328039e-09
4.06374223594e-11
-4.46714089615e-10
-2.52506555012e-08
-4.40363528097e-09
-5.67504494974e-12
-7.50633731065e-10
-2.62734727934e-08
-4.97488436717e-09
-8.9967070589e-10
-2.71376152738e-08
-5.52721408993e-09
-8.92613793956e-10
-2.78177038812e-08
-6.02978212948e-09
-7.43789546359e-10
-2.83266543618e-08
-6.45305525503e-09
-4.82281246604e-10
-2.8679625689e-08
-6.77336535844e-09
-1.4880236517e-10
-2.88952837551e-08
-6.97472065289e-09
2.08967055567e-10
-2.89763838857e-08
-7.04546709041e-09
5.42215957579e-10
-2.88923842773e-08
-6.97369922183e-09
8.03244064282e-10
-2.86740959986e-08
-6.77131187018e-09
9.51277129622e-10
-2.83189172289e-08
-6.4499646452e-09
9.57058834195e-10
-2.78084094523e-08
-6.0256404422e-09
8.05924545617e-10
-2.71275782815e-08
-5.5220084364e-09
4.98496560135e-10
-2.62633181254e-08
-4.96860587741e-09
-2.52407992525e-08
-4.39637588062e-09
4.04573558857e-11
-4.96661375e-10
-2.52502354516e-08
-4.94953586297e-09
-5.06903899058e-12
-8.35086837991e-10
-2.61972302163e-08
-5.57406255889e-09
-1.00063720541e-09
-2.69793969061e-08
-6.17014850879e-09
-9.9299160342e-10
-2.75849685044e-08
-6.70774674096e-09
-8.28240584983e-10
-2.80328442349e-08
-7.15776194849e-09
-5.38615182531e-10
-2.8340763148e-08
-7.49692746302e-09
-1.69293808163e-10
-2.85282458798e-08
-7.70958136379e-09
2.26897533249e-10
-2.85991271134e-08
-7.7841847183e-09
5.95982216517e-10
-2.85256185355e-08
-7.70858384079e-09
8.85106657924e-10
-2.83357656412e-08
-7.49492801228e-09
1.04903143617e-09
-2.80258703232e-08
-7.15476541738e-09
1.05537621218e-09
-2.7576590772e-08
-6.70375164958e-09
8.8776686851e-10
-2.69702939311e-08
-6.16515312689e-09
5.46068181862e-10
-2.6187892434e-08
-5.56805863987e-09
-2.52406522205e-08
-4.94259442019e-09
3.92161959043e-11
-5.38824891797e-10
-2.45009998341e-08
-5.29668384351e-09
-4.45878362103e-12
-9.07570785642e-10
-2.53476923871e-08
-5.95525247686e-09
-1.08739054745e-09
-2.60352580186e-08
-6.57774230556e-09
-1.07907332913e-09
-2.65585576778e-08
-7.13555237101e-09
-9.00440098518e-10
-2.69413730169e-08
-7.60047516638e-09
-5.86588187057e-10
-2.72024917919e-08
-7.94988058925e-09
-1.86553185139e-10
-2.73609301731e-08
-8.16849529246e-09
2.42485114155e-10
-2.74210675328e-08
-8.24501903027e-09
6.42217236525e-10
-2.73585990729e-08
-8.16751021973e-09
9.55434443684e-10
-2.71980659527e-08
-7.94791452622e-09
1.13305138924e-09
-2.69352018133e-08
-7.59754810658e-09
1.13985479335e-09
-2.65511335062e-08
-7.13168380274e-09
9.5781093187e-10
-2.60271291899e-08
-6.5729529525e-09
5.85796525037e-10
-2.53392344784e-08
-5.94954725052e-09
-2.44918384795e-08
-5.29012679827e-09
3.77656516767e-11
-5.75197407784e-10
-2.318525656e-08
-5.46726326973e-09
-3.91084372936e-12
-9.69998966439e-10
-2.39185731252e-08
-6.14706724731e-09
-1.16197767604e-09
-2.45078952363e-08
-6.78482897626e-09
-1.1528024577e-09
-2.49486035944e-08
-7.35348263988e-09
-9.61952020338e-10
-2.52679724255e-08
-7.82583939171e-09
-6.2716331925e-10
-2.54843789821e-08
-8.18001066295e-09
-2.0081262829e-10
-2.56152112242e-08
-8.40115396696e-09
2.56276075345e-10
-2.56649420581e-08
-8.47832467045e-09
6.82219089573e-10
-2.56131554317e-08
-8.40017083814e-09
1.01616711419e-09
-2.54804750224e-08
-8.17805770732e-09
1.20570819585e-09
-2.52625172113e-08
-7.82295368418e-09
1.21302877674e-09
-2.49420007921e-08
-7.34970823242e-09
1.01850782582e-09
-2.45005777131e-08
-6.78021455483e-09
6.20254250498e-10
-2.39108096024e-08
-6.14163761754e-09
-2.31764869661e-08
-5.4610867426e-09
3.65661975084e-11
-6.07116786301e-10
-2.14573103029e-08
-5.48798183338e-09
-3.44764151504e-12
-1.02379567517e-09
-2.20723086078e-08
-6.18068973539e-09
-1.22593331203e-09
-2.25647720774e-08
-6.82653185826e-09
-1.21556516294e-09
-2.29270616922e-08
-7.3998580405e-09
-1.01383869325e-09
-2.31879864269e-08
-7.87457677236e-09
-6.6100389331e-10
-2.33640233167e-08
-8.22969172449e-09
-2.12321934089e-10
-2.34700357649e-08
-8.45091110041e-09
2.68439330634e-10
-2.35102182869e-08
-8.52780211791e-09
7.16587786812e-10
-2.34682008862e-08
-8.44992513178e-09
1.06833612027e-09
-2.336052775e-08
-8.22774189557e-09
1.2684052922e-09
-2.31830679776e-08
-7.87171676981e-09
1.27650547794e-09
-2.29210355879e-08
-7.39615652079e-09
1.07141728655e-09
-2.25579627316e-08
-6.82206653884e-09
6.50963931587e-10
-2.20648948773e-08
-6.17550714644e-09
-2.14486488915e-08
-5.48216109931e-09
3.58162642345e-11
-6.35195934439e-10
-1.94457742818e-08
-5.3838607263e-09
-3.06553262573e-12
-1.07007266096e-09
-1.99429613133e-08
-6.08396108576e-09
-1.28057300862e-09
-2.03429631886e-08
-6.73300669862e-09
-1.26846290239e-09
-2.06341823417e-08
-7.30658219347e-09
-1.05684662685e-09
-2.08439517481e-08
-7.77983025183e-09
-6.88552185961e-10
-2.09853538991e-08
-8.1328903751e-09
-2.21293620172e-10
-2.1070115265e-08
-8.35221937039e-09
2.78962551948e-10
-2.1101929562e-08
-8.42808310529e-09
7.45552033098e-10
-2.10684204647e-08
-8.35123190901e-09
1.11249662999e-09
-2.09821056176e-08
-8.13094516701e-09
1.32208395679e-09
-2.08393278846e-08
-7.77699556311e-09
1.33148317775e-09
-2.06284109848e-08
-7.30294914293e-09
1.11757910695e-09
-2.03362733278e-08
-6.72868066367e-09
6.78535971915e-10
-1.99354485734e-08
-6.07900944214e-09
-1.94368346763e-08
-5.37837531117e-09
3.55493921965e-11
-6.59469919528e-10
-1.72578658147e-08
-5.17622300226e-09
-2.73920500278e-12
-1.11013707211e-09
-1.76401544038e-08
-5.88004608008e-09
-1.3274338974e-09
-1.79546954118e-08
-6.52885918113e-09
-1.31255689241e-09
-1.81850723038e-08
-7.09926564637e-09
-1.09154864098e-09
-1.83525968939e-08
-7.56789537421e-09
-7.10093937538e-10
-1.84658097112e-08
-7.91636176444e-09
-2.27890484482e-10
-1.85332511607e-08
-8.13211587056e-09
2.8776030536e-10
-1.85580172144e-08
-8.20631476487e-09
7.69154723184e-10
-1.85315971112e-08
-8.13113336848e-09
1.14899177528e-09
-1.84626082476e-08
-7.91443231113e-09
1.36759462311e-09
-1.83479707183e-08
-7.5650986838e-09
1.37931179221e-09
-1.81791776934e-08
-7.09571173775e-09
1.15814501981e-09
-1.79476772343e-08
-6.52467880993e-09
7.02882668174e-10
-1.76320473468e-08
-5.8753268597e-09
-1.72481957375e-08
-5.17106776496e-09
3.57115373086e-11
-6.80761072479e-10
-1.49824313221e-08
-4.88268867503e-09
-2.46209557026e-12
-1.14716011967e-09
-1.52520467699e-08
-5.58805185488e-09
-1.36888496219e-09
-1.54928467305e-08
-6.2342345844e-09
-1.34891368344e-09
-1.56753552158e-08
-6.79868560668e-09
-1.11827295557e-09
-1.58101437815e-08
-7.25999177273e-09
-7.25728466955e-10
-1.59015515315e-08
-7.60165651542e-09
-2.32190688784e-10
-1.59554555478e-08
-7.81237359468e-09
2.94678587286e-10
-1.59745383965e-08
-7.88436056597e-09
7.87269185032e-10
-1.59537189809e-08
-7.81140662615e-09
1.17793148456e-09
-1.58981546772e-08
-7.59976175372e-09
1.40579205916e-09
-1.58051798589e-08
-7.25725628547e-09
1.42216272494e-09
-1.56689122888e-08
-6.79523324501e-09
1.19610340683e-09
-1.54850077461e-08
-6.23021865679e-09
7.24668968519e-10
-1.52427821816e-08
-5.58358341179e-09
-1.49714578746e-08
-4.87788237281e-09
3.61430929999e-11
-7.07994257847e-10
-1.26848409409e-08
-4.51782341745e-09
-2.23128091319e-12
-1.1903682407e-09
-1.28502426395e-08
-5.22422678248e-09
-1.40944322393e-09
-1.30380583417e-08
-5.86607007343e-09
-1.37932372252e-09
-1.31861021956e-08
-6.42211838482e-09
-1.13778917171e-09
-1.3296272973e-08
-6.87373145783e-09
-7.3581998253e-10
-1.33711296264e-08
-7.20670646094e-09
-2.34403607812e-10
-1.34148235875e-08
-7.41116034926e-09
2.99723208689e-10
-1.34294043583e-08
-7.48048428808e-09
8.00061902181e-10
-1.34128601595e-08
-7.41022322601e-09
1.19988498646e-09
-1.33672677065e-08
-7.20487249347e-09
1.438283961e-09
-1.32905714518e-08
-6.87109017174e-09
1.46437359169e-09
-1.31786352794e-08
-6.41880016279e-09
1.24052518062e-09
-1.30288768089e-08
-5.86224530527e-09
7.52698203337e-10
-1.2839244424e-08
-5.22003729865e-09
-1.26719544148e-08
-4.51341123721e-09
3.6875055739e-11
-7.76420684582e-10
-4.09298256714e-09
-1.9725525181e-12
-1.03838892142e-08
-1.26121965491e-09
-4.8023899628e-09
-1.05063315762e-08
-1.46443645195e-09
-5.43795847128e-09
-1.06635220666e-08
-1.41702886938e-09
-5.98348641725e-09
-1.07865392066e-08
-1.16104435809e-09
-6.42367723026e-09
-1.08783190042e-08
-7.47728633838e-10
-6.74671818431e-09
-1.09415805705e-08
-2.37121166522e-10
-6.94414217639e-09
-1.09784207282e-08
3.05331725946e-10
-7.01052578324e-09
-1.09898374985e-08
8.14730813945e-10
-6.94325331278e-09
-1.09760667038e-08
1.22565635122e-09
-6.74497967488e-09
-1.09369308367e-08
1.47814595448e-09
-6.42117674426e-09
-1.08714387595e-08
1.52109580289e-09
-5.98035192693e-09
-1.07775031019e-08
1.31265114622e-09
-5.43436741841e-09
-1.06523836314e-08
8.2201640775e-10
-4.79848872375e-09
-1.04930232139e-08
-4.08906685818e-09
3.77549012042e-11
-1.03684310817e-08
-4.54439131274e-12
6.17339429623e-10
-7.23069054173e-10
1.08203294957e-12
-3.25977527543e-12
6.81506884615e-10
-8.02947717513e-10
-4.22634209056e-13
7.42867332479e-10
-8.79780175114e-10
1.30953828773e-12
7.97897278757e-10
-9.49623167577e-10
1.73930839084e-12
8.42931258027e-10
-1.00854479576e-09
9.58877348811e-13
8.76107832256e-10
-1.05328279777e-09
-5.55579140815e-13
8.96647056958e-10
-1.08161658292e-09
-2.31924212566e-12
9.03798182191e-10
-1.09178311062e-09
-3.86898911641e-12
8.96017347187e-10
-1.08158878207e-09
-4.76585961846e-12
8.7484332311e-10
-1.05322737458e-09
-4.60934232318e-12
8.41116624565e-10
-1.00845985724e-09
-3.19221349258e-12
7.95899383643e-10
-9.49503985982e-10
-6.58220642766e-13
7.40922415938e-10
-8.79621542066e-10
6.83693283609e-13
6.80189420633e-10
-8.02739272009e-10
6.1673675909e-10
-7.2279037755e-10
-2.21014933597e-12
1.73331579989e-12
1.71529544318e-09
-1.8892244497e-09
2.66169315587e-12
1.32223541142e-11
1.86676650315e-09
-2.09306662783e-09
2.34581962188e-11
2.00770042729e-09
-2.28845817757e-09
2.76479365065e-11
2.13012283012e-09
-2.46553508181e-09
2.47850017285e-11
2.22773017507e-09
-2.61457483961e-09
1.58275603195e-11
2.29817014434e-09
-2.72754681001e-09
2.93223914494e-12
2.3412730263e-09
-2.79900459393e-09
-1.13140507593e-11
2.35635141363e-09
-2.82459511059e-09
-2.42997261454e-11
2.34001159252e-09
-2.79891281945e-09
-3.35285387221e-11
2.29565977787e-09
-2.72736826887e-09
-3.69577560252e-11
2.22415218763e-09
-2.61430515521e-09
-3.34578660324e-11
2.12611551971e-09
-2.46516399107e-09
-2.3755107418e-11
2.00394688741e-09
-2.28797241162e-09
-1.19597489898e-11
1.86426058977e-09
-2.09244176462e-09
1.71435417686e-09
-1.88842602791e-09
-6.15770272449e-12
1.60383703509e-11
2.79844954603e-09
-2.8299391504e-09
3.70593556237e-12
4.12766802344e-11
3.00393128708e-09
-3.13482868016e-09
5.93423945779e-11
3.19043227663e-09
-3.4262784222e-09
6.47423611138e-11
3.34683827593e-09
-3.68988222858e-09
5.62774930206e-11
3.46786788545e-09
-3.91142945315e-09
3.61211505585e-11
3.55297349131e-09
-4.07918687306e-09
8.3827020507e-12
3.60428773367e-09
-4.18517325893e-09
-2.19516104292e-11
3.62236058976e-09
-4.22303405016e-09
-4.98111093798e-11
3.60279564932e-09
-4.18501763245e-09
-7.03048435657e-11
3.55003712094e-09
-4.07888389991e-09
-7.94234826129e-11
3.46375106159e-09
-3.91097474851e-09
-7.48093706775e-11
3.34229730861e-09
-3.68926460088e-09
-5.72264671605e-11
3.18641263929e-09
-3.42548251321e-09
-3.13531323661e-11
3.0015200279e-09
-3.13382487262e-09
2.79814247437e-09
-2.82868901234e-09
-9.5753980434e-12
3.32557441379e-11
3.62330180255e-09
-3.59338110278e-09
4.34987816468e-12
7.19618664186e-11
3.83705642397e-09
-3.98273169874e-09
9.66567159556e-11
4.02671648461e-09
-4.353763515e-09
1.01936060953e-10
4.17928415249e-09
-4.68863488124e-09
8.7173632652e-11
4.29297811475e-09
-4.96966004915e-09
5.58347916109e-11
4.37021555629e-09
-5.18222622425e-09
1.38098098317e-11
4.41588488333e-09
-5.31635556132e-09
-3.1862440253e-11
4.43213180717e-09
-5.36414416465e-09
-7.40238097882e-11
4.4143918253e-09
-5.31613350623e-09
-1.05709533786e-10
4.36731655049e-09
-5.1817941435e-09
-1.21100510407e-10
4.28899005441e-09
-4.96901702559e-09
-1.16537914272e-10
4.17497215514e-09
-4.687774667e-09
-9.21578999166e-11
4.02311656529e-09
-4.35267595652e-09
-5.24989556847e-11
3.83526414112e-09
-3.98139099453e-09
3.6238864183e-09
-3.59175546811e-09
-1.24218786192e-11
4.99726593284e-11
4.10917579536e-09
-4.1925522698e-09
4.71450360527e-12
9.92107130994e-11
4.29687983244e-09
-4.65150090789e-09
1.28241513986e-10
4.46006418712e-09
-5.08740878233e-09
1.32324157453e-10
4.58490112901e-09
-5.47998291194e-09
1.11813316942e-10
4.67342599775e-09
-5.80894860415e-09
7.13113396591e-11
4.73065106884e-09
-6.05751587039e-09
1.8021744501e-11
4.76353809303e-09
-6.21416170921e-09
-3.96162675556e-11
4.77545237406e-09
-6.2698166029e-09
-9.30505339857e-11
4.76214888467e-09
-6.21386970481e-09
-1.33885717382e-10
4.72798986822e-09
-6.05694864671e-09
-1.54957716896e-10
4.66982530589e-09
-5.80811256553e-09
-1.51460713639e-10
4.58110120871e-09
-5.47888262819e-09
-1.22551324189e-10
4.45706760192e-09
-5.08604664158e-09
-7.21225655203e-11
4.29577618995e-09
-4.64986199116e-09
4.1105593795e-09
-4.19061704829e-09
-1.46890452599e-11
6.42142552008e-11
4.27922086856e-09
-4.64075206538e-09
4.86391054753e-12
1.20218249045e-10
4.4251826562e-09
-5.15629403415e-09
1.51203544397e-10
4.54949658451e-09
-5.6443034379e-09
1.53459967128e-10
4.63884481891e-09
-6.0828482756e-09
1.28399135405e-10
4.69782529172e-09
-6.44980511992e-09
8.14765710425e-11
4.73298943727e-09
-6.72679019531e-09
2.06711720749e-11
4.75221328382e-09
-6.90110999174e-09
-4.48380886287e-11
4.75944412419e-09
-6.96285506402e-09
-1.0579037335e-10
4.75096588002e-09
-6.9007452391e-09
-1.5302248202e-10
4.73062726502e-09
-6.72608324128e-09
-1.7855719652e-10
4.69467995019e-09
-6.44877298602e-09
-1.76742495926e-10
4.63558450309e-09
-6.08151116296e-09
-1.45689864602e-10
4.54704958918e-09
-5.64268215808e-09
-8.83550178292e-11
4.42452623044e-09
-5.15438967049e-09
4.2810447771e-09
-4.63855886195e-09
-1.64076671301e-11
7.50867034837e-11
4.20286533365e-09
-4.95126518563e-09
4.85686523432e-12
1.34411301065e-10
4.30644985472e-09
-5.51215292337e-09
1.65441776365e-10
4.39240558899e-09
-6.04125990404e-09
1.65647187093e-10
4.44919562043e-09
-6.51566853876e-09
1.37415211429e-10
4.48249467705e-09
-6.91202840124e-09
8.67265577251e-11
4.49929945953e-09
-7.21086795552e-09
2.18725101531e-11
4.50741363572e-09
-7.39866008712e-09
-4.776456561e-11
4.51079798475e-09
-7.46495183279e-09
-1.12759599671e-10
4.50632364579e-09
-7.3982223527e-09
-1.63721359273e-10
4.49725091765e-09
-7.21002147874e-09
-1.92330388643e-10
4.47979276673e-09
-6.91080300439e-09
-1.92417469044e-10
4.44641534868e-09
-6.5141031497e-09
-1.61160092119e-10
4.39036788181e-09
-6.03939744562e-09
-1.00423922695e-10
4.30602174171e-09
-5.51001331567e-09
4.20474655249e-09
-4.94885677871e-09
-1.76159191942e-11
8.24247622064e-11
3.95752358542e-09
-5.13675302047e-09
4.72801632456e-12
1.42456597947e-10
4.02656503137e-09
-5.73322553633e-09
1.72204665779e-10
4.0811763023e-09
-6.29387482688e-09
1.70410344574e-10
4.11296208903e-09
-6.79532995192e-09
1.40275429365e-10
4.12753070468e-09
-7.21355353781e-09
8.80238606237e-11
4.13155479259e-09
-7.52845168648e-09
2.19051557966e-11
4.13212790775e-09
-7.7259906222e-09
-4.88759509685e-11
4.13286219686e-09
-7.79545944395e-09
-1.15119318675e-10
4.13119345395e-09
-7.7254830873e-09
-1.67592117027e-10
4.12980561514e-09
-7.52747225438e-09
-1.97995564412e-10
4.12522977109e-09
-7.21214580231e-09
-1.99926134941e-10
4.11058424764e-09
-6.7935528547e-09
-1.69805296144e-10
4.07940078819e-09
-6.29179490974e-09
-1.08322628808e-10
4.02613691001e-09
-5.73088220486e-09
3.9590841111e-09
-5.13416882306e-09
-1.83969961861e-11
8.6492987166e-11
3.60977471439e-09
-5.20891304872e-09
4.51638635064e-12
1.45445912711e-10
3.65485499816e-09
-5.83243528058e-09
1.73105750622e-10
3.68692791683e-09
-6.41625473869e-09
1.69526812363e-10
3.70185620165e-09
-6.93698161611e-09
1.38535986248e-10
3.70456303621e-09
-7.37036902044e-09
8.63924518456e-11
3.70103202635e-09
-7.69614009684e-09
2.10617673688e-11
3.69732248204e-09
-7.90007880601e-09
-4.86799234966e-11
3.69650651582e-09
-7.9714947209e-09
-1.14106446455e-10
3.69653546085e-09
-7.89950788179e-09
-1.66401253365e-10
3.69955587458e-09
-7.6950402766e-09
-1.97535852177e-10
3.70260653184e-09
-7.36879756151e-09
-2.01088247459e-10
3.69978519516e-09
-6.93501727365e-09
-1.72909919745e-10
3.6852818902e-09
-6.41398739389e-09
-1.12486943701e-10
3.65423758821e-09
-5.82992278391e-09
3.61076100445e-09
-5.20619221925e-09
-1.88396178991e-11
8.7773624958e-11
3.20981167009e-09
-5.17850430054e-09
4.25351285079e-12
1.44491424259e-10
3.24069177182e-09
-5.82162059684e-09
1.69661614338e-10
3.25817859194e-09
-6.42130073174e-09
1.64598220974e-10
3.26302088927e-09
-6.95446653668e-09
1.33574708467e-10
3.25934243947e-09
-7.39707851648e-09
8.27295885576e-11
3.25229138236e-09
-7.72909312354e-09
1.95991552113e-11
3.24677977488e-09
-7.93643212556e-09
-4.76152612061e-11
3.24525116915e-09
-8.00869383489e-09
-1.10801247507e-10
3.24611911834e-09
-7.9358067763e-09
-1.61710385272e-10
3.25104160044e-09
-7.72789015883e-09
-1.92738560176e-10
3.25765281378e-09
-7.39536784372e-09
-1.97601034108e-10
3.26115271185e-09
-6.95234539685e-09
-1.71762971979e-10
3.25652595419e-09
-6.41888085029e-09
-1.1354355775e-10
3.23971774581e-09
-5.81897610868e-09
3.20997590386e-09
-5.17568643107e-09
-1.9038309741e-11
8.68167902358e-11
2.79222750385e-09
-5.05558736095e-09
3.96453323315e-12
1.40593958838e-10
2.81623565299e-09
-5.7119046964e-09
1.63187613963e-10
2.82514711015e-09
-6.32120537767e-09
1.57004885276e-10
2.82475865659e-09
-6.86091599756e-09
1.265720706e-10
2.81854266977e-09
-7.30756511192e-09
7.78060601734e-11
2.8107602821e-09
-7.64174451596e-09
1.77446539318e-11
2.80513612812e-09
-7.84983014072e-09
-4.60408504338e-11
2.80347322038e-09
-7.92196421169e-09
-1.06107880484e-10
2.80456933224e-09
-7.84916115823e-09
-1.54836877073e-10
2.80967187626e-09
-7.6404588801e-09
-1.85123282337e-10
2.81702141942e-09
-7.30574356945e-09
-1.90925160888e-10
2.82296657983e-09
-6.85867208468e-09
-1.67508399416e-10
2.82334612035e-09
-6.31867053514e-09
-1.12182182302e-10
2.81475412144e-09
-5.70916675294e-09
2.79139148307e-09
-5.05271166553e-09
-1.90717293049e-11
8.41580875065e-11
2.37932368292e-09
-4.84980358234e-09
3.64895491478e-12
1.34701922945e-10
2.40089993427e-09
-5.51409170776e-09
1.54950412182e-10
2.40507572453e-09
-6.12791981151e-09
1.48074173694e-10
2.40259447825e-09
-6.66923170314e-09
1.18661315324e-10
2.39637395229e-09
-7.11546820544e-09
7.23613735196e-11
2.38965889903e-09
-7.44827233281e-09
1.57338739789e-11
2.38501796632e-09
-7.65479147889e-09
-4.42709437023e-11
2.38357210658e-09
-7.72595068386e-09
-1.00846329226e-10
2.38450445318e-09
-7.65409101579e-09
-1.46999970825e-10
2.38864687002e-09
-7.44692677467e-09
-1.76109339262e-10
2.39489951004e-09
-7.11356649742e-09
-1.82423184456e-10
2.40073332169e-09
-6.66690066869e-09
-1.6119395966e-10
2.40297209166e-09
-6.12530841259e-09
-1.09037017961e-10
2.39876825188e-09
-5.51129974117e-09
2.37737180687e-09
-4.84690896475e-09
-1.90066984973e-11
8.03934097791e-11
1.98468827442e-09
-4.57058646199e-09
3.32237282286e-12
1.28032760957e-10
2.0051974773e-09
-5.23902022857e-09
1.46573615979e-10
2.00671250041e-09
-5.85350346852e-09
1.39434184959e-10
2.00420360543e-09
-6.39235695556e-09
1.11172287491e-10
1.99971176604e-09
-6.83439260849e-09
6.72662453751e-11
1.99527310136e-09
-7.16277440578e-09
1.38449996363e-11
1.9922522719e-09
-7.36573401597e-09
-4.26148089929e-11
1.99127907868e-09
-7.43519133446e-09
-9.59244629248e-11
1.99173535933e-09
-7.36501557319e-09
-1.39569497338e-10
1.99423393902e-09
-7.1613938895e-09
-1.67368989757e-10
1.99814885582e-09
-6.83244353125e-09
-1.73768890198e-10
2.00211506e-09
-6.38997519241e-09
-1.54089657696e-10
2.00413778337e-09
-5.85085344607e-09
-1.04755565463e-10
2.00224568536e-09
-5.23621560093e-09
1.98148712067e-09
-4.56771725487e-09
-1.88768496685e-11
7.64938608061e-11
1.61570971575e-09
-4.22725895194e-09
2.99384175885e-12
1.22696361734e-10
1.6335128521e-09
-4.89795222034e-09
1.40560463364e-10
1.63382556921e-09
-5.51031946162e-09
1.33369490736e-10
1.633213982e-09
-6.04327885536e-09
1.05898279441e-10
1.63186606304e-09
-6.47783734419e-09
6.36164089485e-11
1.6304890552e-09
-6.79918073303e-09
1.24858540955e-11
1.62953545983e-09
-6.99688673223e-09
-4.14808154949e-11
1.62911021303e-09
-7.06403039739e-09
-9.24383071718e-11
1.62895088981e-09
-6.99616569332e-09
-1.34339079943e-10
1.62930061975e-09
-6.79779364078e-09
-1.61197079074e-10
1.63003852112e-09
-6.47587753604e-09
-1.67484584923e-10
1.63070445335e-09
-6.04088461103e-09
-1.48338773619e-10
1.63060324729e-09
-5.5076667704e-09
-1.00348823323e-10
1.62955951509e-09
-4.89517733578e-09
1.61106601457e-09
-4.22447221838e-09
-1.87207359007e-11
7.13234282835e-11
-3.83044009641e-09
2.6244074851e-12
1.2801669956e-09
1.21128157028e-10
-4.50438864728e-09
1.28637468372e-09
1.39735685936e-10
-5.11150384021e-09
1.2893838801e-09
1.32433821509e-10
-5.63501247163e-09
1.29257598558e-09
1.04883259398e-10
-6.05896557735e-09
1.2951809006e-09
6.28130353846e-11
-6.37089593156e-09
1.29716325062e-09
1.21028104919e-11
-6.56185494639e-09
1.29829789606e-09
-4.12991422103e-11
-6.62615687903e-09
1.29845509586e-09
-9.17745343488e-11
-6.56115058167e-09
1.29756092736e-09
-1.33346798345e-10
-6.36953883319e-09
1.29567673857e-09
-1.60126203477e-10
-6.05704384151e-09
1.29289773853e-09
-1.66358299646e-10
-5.63265741017e-09
1.28943688233e-09
-1.46350403623e-10
-5.10889466052e-09
1.28529574641e-09
-9.47021823438e-11
-4.50166487048e-09
1.28124680224e-09
-3.82784608166e-09
-1.85349650085e-11
1.27382621698e-09
8.40456706254e-12
-1.12452426445e-10
-6.19045811923e-10
-3.79777134947e-13
1.27206691529e-11
-1.25326133149e-10
-6.82718992889e-10
1.45357509043e-11
-1.38694528811e-10
-7.43829600988e-10
1.4145832042e-11
-1.50785360827e-10
-7.99280979751e-10
1.16959252792e-11
-1.60873474341e-10
-8.45962619177e-10
7.57446220836e-12
-1.6837666328e-10
-8.81336183783e-10
2.33856111039e-12
-1.73034108857e-10
-9.03710770533e-10
-3.28897027807e-12
-1.7464097504e-10
-9.11741623794e-10
-8.47542499849e-12
-1.72884970081e-10
-9.03657212899e-10
-1.24887882152e-11
-1.68074507538e-10
-8.81230251684e-10
-1.47629581453e-11
-1.60439954905e-10
-8.45806883843e-10
-1.49396627148e-11
-1.50295981648e-10
-7.99078545219e-10
-1.28507036083e-11
-1.38164480998e-10
-7.43582424148e-10
-8.28495562438e-12
-1.24911143945e-10
-6.82423946531e-10
-1.12241583703e-10
-6.18682347292e-10
-1.7435399973e-13
1.82736938632e-11
-2.5086841108e-10
-1.76893427318e-09
-8.78734498967e-13
2.83490292271e-11
-2.76076114114e-10
-1.9536621356e-09
3.25696299431e-11
-3.01903279237e-10
-2.13089169345e-09
3.16590230638e-11
-3.2507166127e-10
-2.29164697803e-09
2.6140822501e-11
-3.44051419303e-10
-2.42697957385e-09
1.69287882505e-11
-3.57983134711e-10
-2.5295428862e-09
5.28292086893e-12
-3.66554668815e-10
-2.59438269059e-09
-7.21144803575e-12
-3.69506863462e-10
-2.61758114677e-09
-1.87468603711e-11
-3.66248289701e-10
-2.59423046879e-09
-2.77228760536e-11
-3.57365924403e-10
-2.52924114087e-09
-3.28669713849e-11
-3.43161816521e-10
-2.4265353633e-09
-3.33005541424e-11
-3.24029731617e-10
-2.29106865921e-09
-2.84994186159e-11
-3.00808994497e-10
-2.13018507216e-09
-1.79036655344e-11
-2.75173409034e-10
-1.952818793e-09
-2.50364533661e-10
-1.76791345278e-09
-3.21739812018e-13
2.27851113393e-11
-3.57621653361e-10
-2.74549671557e-09
-1.15845332786e-12
3.5643758059e-11
-3.89523907435e-10
-3.03538317618e-09
4.0931812623e-11
-4.21830475593e-10
-3.31290484468e-09
3.9647541796e-11
-4.505739438e-10
-3.56424262395e-09
3.26469005729e-11
-4.7380848292e-10
-3.77562172215e-09
2.11444596644e-11
-4.9065856381e-10
-3.93570892317e-09
6.70880737849e-12
-5.00942305331e-10
-4.03681971416e-09
-8.74466969642e-12
-5.04485092066e-10
-4.072902286e-09
-2.30478035837e-11
-5.00576218316e-10
-4.03657567859e-09
-3.42697394178e-11
-4.89924919122e-10
-3.93522628528e-09
-4.08257066743e-11
-4.72753802234e-10
-3.77491245604e-09
-4.15288341841e-11
-4.49334866136e-10
-3.56332133063e-09
-3.55447061774e-11
-4.20542679201e-10
-3.31178362256e-09
-2.20754047031e-11
-3.8845220941e-10
-3.03405473209e-09
-3.57017642877e-10
-2.74391241105e-09
-2.29424909204e-13
2.38214127838e-11
-4.34462664105e-10
-3.53975351172e-09
-1.27873349174e-12
3.73711080398e-11
-4.69088568174e-10
-3.91774733741e-09
4.28532789581e-11
-5.03585891013e-10
-4.27861708713e-09
4.13681213214e-11
-5.33884343032e-10
-4.60484514662e-09
3.39852184372e-11
-5.58019997499e-10
-4.87887815282e-09
2.20426069259e-11
-5.75299599542e-10
-5.08624007907e-09
7.16061848258e-12
-5.85758855221e-10
-5.21706639158e-09
-8.73901220351e-12
-5.89364548526e-10
-5.2636316604e-09
-2.34924219738e-11
-5.85391359427e-10
-5.21673713039e-09
-3.51660992881e-11
-5.74567785689e-10
-5.08559030935e-09
-4.21211525458e-11
-5.56969564925e-10
-4.87792557332e-09
-4.30355815464e-11
-5.32642145368e-10
-4.60361226627e-09
-3.68728900848e-11
-5.0230186373e-10
-4.27712542482e-09
-2.2737505262e-11
-4.68014754579e-10
-3.91599738281e-09
-4.33837254315e-10
-3.53770111309e-09
8.29623914106e-15
2.27029188471e-11
-4.82961671962e-10
-4.16607875971e-09
-1.29865726718e-12
3.56577799963e-11
-5.17454442505e-10
-4.617005624e-09
4.0816139998e-11
-5.51001889602e-10
-5.04612531783e-09
3.92893424354e-11
-5.79944630166e-10
-5.43324697202e-09