/*--------------------------------*- C++ -*----------------------------------*\
  =========                 |
  \\      /  F ield         | OpenFOAM: The Open Source CFD Toolbox
   \\    /   O peration     | Website:  https://openfoam.org
    \\  /    A nd           | Version:  7
     \\/     M anipulation  |
\*---------------------------------------------------------------------------*/
FoamFile
{
    version     2.0;
    format      ascii;
    class       volVectorField;
    location    "0.72";
    object      U;
}
// * * * * * * * * * * * * * * * * * * * * * * * * * * * * * * * * * * * * * //

dimensions      [0 1 -1 0 0 0 0];

internalField   nonuniform List<vector> 
22500
(
(-3.37650839477e-05 -3.75170683748e-05 8.77616898284e-05)
(-3.18157959249e-05 -4.25737501166e-05 8.96993297546e-05)
(-2.85142303897e-05 -4.76930350072e-05 8.90828466818e-05)
(-2.42212809375e-05 -5.23025621237e-05 8.68432007283e-05)
(-1.89587806455e-05 -5.61844537355e-05 8.40647558887e-05)
(-1.2988016556e-05 -5.91022813274e-05 8.15665224797e-05)
(-6.51371326096e-06 -6.09067272589e-05 7.98858544701e-05)
(2.20784633954e-07 -6.15032227289e-05 7.93381432269e-05)
(6.95101810185e-06 -6.08567437099e-05 8.00557016986e-05)
(1.34131264371e-05 -5.9003871145e-05 8.19060588901e-05)
(1.93659575385e-05 -5.60402224172e-05 8.45742182125e-05)
(2.46059708281e-05 -5.21175983553e-05 8.75226102286e-05)
(2.88718750143e-05 -4.74724863101e-05 8.99323998801e-05)
(3.21451332932e-05 -4.23257208286e-05 9.07158136949e-05)
(3.40454885653e-05 -3.7265469293e-05 8.89215364657e-05)
(-9.94636463009e-05 -0.000110094450251 -8.78657075278e-05)
(-9.33852528481e-05 -0.000124793978531 -0.000117583360217)
(-8.37603855431e-05 -0.000139550794745 -0.000153155022602)
(-7.11900603166e-05 -0.000152800220981 -0.0001897698527)
(-5.58114614533e-05 -0.0001639355997 -0.000222841983091)
(-3.82855039044e-05 -0.000172312683175 -0.000248831411296)
(-1.92387154107e-05 -0.000177500487944 -0.000265310491164)
(5.95905034019e-07 -0.000179217159231 -0.000270829589042)
(2.04198279628e-05 -0.00017736117736 -0.000264823766344)
(3.94361625093e-05 -0.000172038271881 -0.000247856779626)
(5.69155813652e-05 -0.000163533537051 -0.000221375558858)
(7.22347033936e-05 -0.00015228414478 -0.000187806825045)
(8.47322555906e-05 -0.000138937087693 -0.000150689654957)
(9.42732761487e-05 -0.000124106724118 -0.000114618748756)
(0.000100220104903 -0.000109392943933 -8.44573616673e-05)
(-0.000159872705307 -0.000176233324207 -0.000560643726144)
(-0.000149200804184 -0.000199323508278 -0.000643251166164)
(-0.000133447457352 -0.00022201560029 -0.000731596974707)
(-0.000113141152859 -0.000242194159469 -0.000816474410106)
(-8.85819721728e-05 -0.000259019773667 -0.000890012983881)
(-6.07277492645e-05 -0.000271624585298 -0.000946352931279)
(-3.05512275788e-05 -0.000279413379944 -0.00098157111077)
(8.26803313575e-07 -0.000281991976047 -0.000993366516319)
(3.21920553276e-05 -0.000279218163148 -0.000980865879593)
(6.2332255347e-05 -0.000271239487337 -0.000944937147306)
(9.01296221926e-05 -0.00025845434814 -0.000887871323413)
(0.000114614333567 -0.000241465569329 -0.000813584846732)
(0.000134827568699 -0.000221147739056 -0.000727932845546)
(0.000150466995316 -0.000198349650545 -0.00063879295837)
(0.000160964729293 -0.000175230319629 -0.000555443397023)
(-0.000212116881544 -0.000233200064613 -0.00121444371575)
(-0.000196779072412 -0.000262712186535 -0.0013499380597)
(-0.000175278837036 -0.000291098365131 -0.00148730538449)
(-0.000148087220841 -0.000316083271743 -0.00161442215948)
(-0.000115679562235 -0.00033674584506 -0.00172173873335)
(-7.9207002566e-05 -0.000352149135584 -0.00180252727027)
(-3.9881578839e-05 -0.000361642146883 -0.00185248841666)
(9.18422813186e-07 -0.000364787417815 -0.00186917668904)
(4.17069072284e-05 -0.000361426664991 -0.00185167723428)
(8.09996868478e-05 -0.000351723323248 -0.00180089419276)
(0.000117420053016 -0.000336118750382 -0.00171925302617)
(0.000149757427914 -0.0003152711419 -0.00161103688191)
(0.000176858663784 -0.000290125819512 -0.00148296143738)
(0.000198240659582 -0.000261613330808 -0.00134457475259)
(0.000213398813984 -0.000232050968837 -0.00120807247178)
(-0.000254947864152 -0.00027990559214 -0.00192911144585)
(-0.000235242681845 -0.00031366085508 -0.00210279654002)
(-0.00020859736737 -0.00034551470461 -0.00227241711978)
(-0.000175575987836 -0.000373289607883 -0.00242523970391)
(-0.000136802804848 -0.000396092217847 -0.00255179340442)
(-9.35338518893e-05 -0.000413016009317 -0.00264579071709)
(-4.71191294218e-05 -0.000423421498478 -0.00270342944258)
(9.20899012477e-07 -0.000426871982821 -0.00272262212877)
(4.89516534537e-05 -0.00042320872726 -0.00270259229889)
(9.53401612123e-05 -0.000412595153655 -0.00264410156346)
(0.000138566431394 -0.000395471179269 -0.00254920882707)
(0.000177280724466 -0.000372482353479 -0.00242169065235)
(0.000210224348256 -0.000344542879712 -0.00226781318823)
(0.000236761363822 -0.000312555302954 -0.00209703320394)
(0.000256303071883 -0.000278728790845 -0.00192214265233)
(-0.000288319650102 -0.000316407437384 -0.00261660421636)
(-0.000264792330491 -0.00035235593645 -0.00280976729334)
(-0.000233768089117 -0.000385771709705 -0.00299317899047)
(-0.000196055072218 -0.00041466646729 -0.0031552650341)
(-0.000152376693853 -0.00043824556405 -0.0032876476876)
(-0.000104026420757 -0.000455683579043 -0.00338503938414)
(-5.24131294985e-05 -0.000466384941708 -0.00344440065213)
(8.86112467899e-07 -0.000469936004576 -0.00346411337467)
(5.41778204768e-05 -0.000466185529265 -0.00344357479815)
(0.000105769854695 -0.000455289237126 -0.00338337113648)
(0.000154085076884 -0.000437663530677 -0.003285087267)
(0.000197714423577 -0.000413908978437 -0.00315173069064)
(0.000235361842059 -0.000384857130689 -0.00298855992648)
(0.000266290313424 -0.000351310743877 -0.00280392562231)
(0.000289676827525 -0.000315275596335 -0.00260943988604)
(-0.000312943997831 -0.000343465633139 -0.00322980085085)
(-0.000286240069399 -0.000379847433406 -0.00342700441151)
(-0.00025166478287 -0.000413317034209 -0.00361052020506)
(-0.000210369130871 -0.000442038831631 -0.00377065506062)
(-0.000163119813321 -0.000465363080496 -0.00390031498773)
(-0.000111198700877 -0.000482565515519 -0.0039951544989)
(-5.60175711668e-05 -0.000493106828491 -0.00405275331785)
(8.48332399555e-07 -0.000496606235653 -0.0040718419289)
(5.77075460659e-05 -0.000492923704228 -0.00405194558125)
(0.000112869742586 -0.000482203845744 -0.00399352316419)
(0.000164759480712 -0.000464830115522 -0.00389781002126)
(0.000211964873872 -0.00044134606034 -0.00376719200567)
(0.000253202254318 -0.000412480500543 -0.00360598108903)
(0.000287690771797 -0.000378889790652 -0.00342123297099)
(0.000314272968708 -0.00034241306304 -0.00322265732744)
(-0.000329855447724 -0.000362133928256 -0.00375361362396)
(-0.000300612074098 -0.000397508813051 -0.00394506838698)
(-0.000263289411009 -0.000429868085269 -0.00412097879227)
(-0.0002194216416 -0.000457433553154 -0.00427343679489)
(-0.000169770120189 -0.000479730292615 -0.0043963531404)
(-0.000115568361076 -0.000496140476724 -0.0044860217062)
(-5.81925072454e-05 -0.000506184560849 -0.00454039218305)
(8.23827441258e-07 -0.00050951904641 -0.00455838438988)
(5.9833572796e-05 -0.000506017044857 -0.00453959465423)
(0.000117190637595 -0.000495810278172 -0.00448441306805)
(0.000171361256597 -0.000479244997838 -0.00439388724955)
(0.000220969502127 -0.000456804583806 -0.00427003377874)
(0.000264781002111 -0.000429110135679 -0.00411652396718)
(0.00030202101496 -0.000396641894973 -0.0039393998748)
(0.000331154429842 -0.000361169804353 -0.00374656813456)
(-0.000340123631189 -0.00037349823781 -0.00419159549842)
(-0.000308912362051 -0.000406713774492 -0.00437247067746)
(-0.000269574927441 -0.000437051583621 -0.00453760234852)
(-0.000224021272924 -0.000462703892425 -0.00468039135962)
(-0.000172971150816 -0.000483384971641 -0.00479536292512)
(-0.00011758081107 -0.000498581546888 -0.00487917528722)
(-5.91636572759e-05 -0.000507873444525 -0.00492997078529)
(8.17141537556e-07 -0.000510957014934 -0.00494675872356)
(6.07910059176e-05 -0.00050771987554 -0.00492917153693)
(0.000119188221196 -0.00049827945131 -0.00487756630227)
(0.000174545520966 -0.000482942237315 -0.00479290406556)
(0.000225550056036 -0.000462131990222 -0.00467701143293)
(0.000271045556353 -0.000436364436842 -0.00453319633999)
(0.000310300419475 -0.000405929254586 -0.00436687895496)
(0.00034140655554 -0.000372618673021 -0.00418464412577)
(-0.000344716196073 -0.000378554931139 -0.00455528309561)
(-0.000312023609422 -0.000408695185204 -0.00472404339061)
(-0.000271320017664 -0.00043627378518 -0.00487785540941)
(-0.000224844778122 -0.000459419494477 -0.00501089040139)
(-0.000173252131911 -0.000478030809703 -0.00511799231071)
(-0.000117598673935 -0.000491690069421 -0.00519605149759)
(-5.91156117446e-05 -0.000500033785207 -0.00524334745619)
(8.27023219494e-07 -0.000502800181769 -0.00525895560411)
(6.07621984779e-05 -0.000499892749218 -0.0052425358312)
(0.000119223636871 -0.000491413064978 -0.00519442105632)
(0.000174841236011 -0.000477625724835 -0.00511550956508)
(0.000226384559087 -0.000458897540045 -0.00500749455338)
(0.000272797606103 -0.000435648147242 -0.00487345420966)
(0.00031341603312 -0.00040798172026 -0.00471848279608)
(0.000346003212602 -0.000377750880803 -0.00454838587108)
(-0.000344460205533 -0.000378182763307 -0.00485791753971)
(-0.000310689733564 -0.000404508432112 -0.00501485206872)
(-0.000269192630403 -0.000428706905074 -0.00515801257128)
(-0.00022245290687 -0.000448879074341 -0.00528188100062)
(-0.000171045976606 -0.000465072790115 -0.00538150419644)
(-0.000115915796589 -0.000476947119491 -0.00545403586244)
(-5.81980206686e-05 -0.000484191948715 -0.00549794394555)
(8.50126892952e-07 -0.000486590132324 -0.00551240376616)
(5.98902809938e-05 -0.00048406266161 -0.00549711248289)
(0.000117584726363 -0.000476693416928 -0.0054523688074)
(0.000172676142772 -0.000464702116296 -0.00537897440547)
(0.000224029750657 -0.000448401867628 -0.00527843832254)
(0.000270702529754 -0.000428135252266 -0.00515357882008)
(0.000312110751555 -0.000403855880966 -0.00500927947753)
(0.00034577239032 -0.00037744462606 -0.0048510268309)
(-0.000340042177502 -0.00037314681094 -0.00511160796172)
(-0.000305539505604 -0.00039503021988 -0.00525792599742)
(-0.000263765376624 -0.000415320890226 -0.00539149669533)
(-0.000217323480499 -0.000432167599571 -0.00550678102133)
(-0.000166714941246 -0.000445687343989 -0.00559914731396)
(-0.000112774586241 -0.000455589630154 -0.00566619421908)
(-5.65337638167e-05 -0.000461619545854 -0.0057066986916)
(8.82778805717e-07 -0.000463609952882 -0.00571999775624)
(5.82908757293e-05 -0.000461501921121 -0.0057058435932)
(0.000114506928183 -0.000455358782889 -0.00566448234367)
(0.000168406041345 -0.000445349849748 -0.00559655685199)
(0.000218957722893 -0.000431732576047 -0.00550327171291)
(0.000265328227404 -0.000414798760977 -0.00538700515231)
(0.000307009684613 -0.000394431860522 -0.00525231181784)
(0.000341398736195 -0.00037246805569 -0.00510468629198)
(-0.000332021709645 -0.000364029903733 -0.00532653800992)
(-0.000297157683856 -0.000380935654587 -0.00546404843385)
(-0.000255568923014 -0.000396921257397 -0.00558906076011)
(-0.000209880689441 -0.000410219629367 -0.00569596718859)
(-0.000160567735405 -0.000420889681896 -0.00578090901607)
(-0.000108377121054 -0.000428679011071 -0.00584222538887)
(-5.42245823503e-05 -0.00043340312682 -0.00587914059797)
(9.21554664449e-07 -0.00043495499932 -0.005891211926)
(5.60589631993e-05 -0.000433297549961 -0.00587826190644)
(0.00011018573119 -0.000428471553548 -0.00584046778689)
(0.000162333281128 -0.000420585860066 -0.00577825430584)
(0.000211586672965 -0.000409826664563 -0.00569238295857)
(0.000257199913184 -0.000396447328108 -0.0055844986747)
(0.000298692738947 -0.000380388317962 -0.00545838101478)
(0.000333437913645 -0.000363407623694 -0.00531957528763)
(-0.000321062228917 -0.000351141925157 -0.00551112269847)
(-0.000286285955915 -0.000362611381596 -0.00564249703316)
(-0.000245147750457 -0.000374107876059 -0.00575952060405)
(-0.000200511839367 -0.00038378466334 -0.00585758561851)
(-0.000152875438092 -0.000391502366263 -0.00593446397718)
(-0.000102901820691 -0.000397085707465 -0.00598952468635)
(-5.13619028043e-05 -0.000400445689952 -0.00602252167318)
(9.6346464392e-07 -0.000401539583028 -0.00603325587338)
(5.32799895174e-05 -0.000400352424674 -0.00602162378112)
(0.000104793493858 -0.000396902212282 -0.00598772875342)
(0.000154722907461 -0.00039123281406 -0.00593175306412)
(0.000202298027804 -0.000383434364153 -0.00585393097533)
(0.000246856525902 -0.000373682382839 -0.00575488632961)
(0.00028789642124 -0.000362114289316 -0.00563677773598)
(0.000322551848085 -0.000350572897162 -0.00550414792574)
(-0.000308965705362 -0.000335537729251 -0.00567163436833)
(-0.000274295736234 -0.000340026577663 -0.00580133549569)
(-0.000233344228353 -0.000347331675058 -0.005909527789)
(-0.000189901277224 -0.000353325158758 -0.00599763054862)
(-0.000144181308208 -0.000358007027761 -0.00606561601993)
(-9.67381214153e-05 -0.000361329667463 -0.00611388771612)
(-4.81509760899e-05 -0.000363302725511 -0.00614267311525)
(1.00624302402e-06 -0.000363933086076 -0.00615198120243)
(5.01545045191e-05 -0.000363221836222 -0.00614176551138)
(9.87148989955e-05 -0.000361170225536 -0.00611207098136)
(0.000146113107747 -0.000357771999223 -0.00606287277869)
(0.000191770430771 -0.000353018288271 -0.00599393020854)
(0.000235134256937 -0.000346956418815 -0.00590483923091)
(0.000275983486867 -0.000339581615642 -0.00579554317014)
(0.000310539305997 -0.000335022808223 -0.00566476619046)
(1.43034345549e-06 1.84344344844e-06 -0.000229391812274)
(1.37046585796e-06 2.24803117906e-06 -0.00024106653314)
(1.30878125038e-06 2.60763648589e-06 -0.000251890409852)
(1.20399530789e-06 2.93939087363e-06 -0.000261423013613)
(9.93462893368e-07 3.2432798771e-06 -0.000269273632497)
(7.00384826663e-07 3.48309801224e-06 -0.000275119207645)
(3.44602615535e-07 3.63519394403e-06 -0.000278728096328)
(-4.22682342463e-08 3.68330634303e-06 -0.000279957285277)
(-4.28945778963e-07 3.62125742614e-06 -0.000278731395466)
(-7.84732721726e-07 3.45471299208e-06 -0.000275124729197)
(-1.08057154889e-06 3.19932486194e-06 -0.000269278532773)
(-1.29672577173e-06 2.87977809042e-06 -0.000261422136014)
(-1.40789585791e-06 2.53121007708e-06 -0.000251877462058)
(-1.47367678733e-06 2.15870063765e-06 -0.000241033397738)
(-1.52235181397e-06 1.75299863666e-06 -0.000229331353955)
(1.00220540362e-05 1.16423803134e-05 -0.000675652440643)
(9.68648393522e-06 1.37650352005e-05 -0.000709047675509)
(9.01752398374e-06 1.58316212701e-05 -0.000740090457404)
(7.97827424337e-06 1.77315835108e-05 -0.000767469950952)
(6.4450041414e-06 1.93895063267e-05 -0.000790045147507)
(4.50443565076e-06 2.066649535e-05 -0.000806873450974)
(2.26678869091e-06 2.14673485567e-05 -0.000817267638173)
(-1.23174131484e-07 2.17292307104e-05 -0.000820799214959)
(-2.51269624888e-06 2.14292705171e-05 -0.000817271843653)
(-4.7503074521e-06 2.058937919e-05 -0.000806878828573)
(-6.69591712589e-06 1.92715981405e-05 -0.00079004369148)
(-8.24080688321e-06 1.75736083429e-05 -0.00076744716438)
(-9.29298214698e-06 1.5633290903e-05 -0.000740028333911)
(-9.96783109398e-06 1.35367915599e-05 -0.000708923260142)
(-1.02754820944e-05 1.14108596898e-05 -0.000675449626349)
(2.14945455254e-05 2.44982094198e-05 -0.00110591394718)
(2.05805877553e-05 2.84419916692e-05 -0.00115923823511)
(1.88862281276e-05 3.22992410754e-05 -0.00120879983651)
(1.64432301307e-05 3.5779131213e-05 -0.00125250443663)
(1.3130266038e-05 3.87423954435e-05 -0.00128853188747)
(9.1098472467e-06 4.09876606495e-05 -0.00131538532813)
(4.58438439226e-06 4.2380533489e-05 -0.00133196657771)
(-1.99443520509e-07 4.28353376452e-05 -0.00133758996882)
(-4.98253356764e-06 4.23214284282e-05 -0.00133196459947)
(-9.50724023185e-06 4.08685946201e-05 -0.00131537695022)
(-1.35319197885e-05 3.85624642834e-05 -0.00128850538105)
(-1.68566767639e-05 3.55409997247e-05 -0.00125243877381)
(-1.93132911126e-05 3.20072655211e-05 -0.00120866810245)
(-2.10113829212e-05 2.8111616815e-05 -0.00115900644305)
(-2.1886822092e-05 2.41652973467e-05 -0.00110556048674)
(3.28722089778e-05 3.71261173592e-05 -0.00151728803391)
(3.10878395971e-05 4.23815215583e-05 -0.00158820721754)
(2.81545401835e-05 4.74855026114e-05 -0.00165401432904)
(2.41929532068e-05 5.19915415579e-05 -0.00171199017262)
(1.9124321507e-05 5.57491526945e-05 -0.0017597462802)
(1.31757353166e-05 5.85515215865e-05 -0.00179532439605)
(6.6114642408e-06 6.02710072436e-05 -0.00181728137082)
(-2.65358390754e-07 6.08291528243e-05 -0.00182471569934)
(-7.14154495371e-06 6.01985107827e-05 -0.00181726415451)
(-1.37051789842e-05 5.84060407115e-05 -0.00179528517416)
(-1.96575774248e-05 5.5530809799e-05 -0.00175967198237)
(-2.47371441837e-05 5.17043037679e-05 -0.00171185739871)
(-2.87114870556e-05 4.71371143879e-05 -0.00165379209923)
(-3.164585452e-05 4.19897254659e-05 -0.00158785559539)
(-3.33857664502e-05 3.67308086421e-05 -0.00151678371876)
(4.21337215327e-05 4.72635319472e-05 -0.00190683988528)
(3.9304116503e-05 5.30995187212e-05 -0.00199270089077)
(3.51514750391e-05 5.86986257666e-05 -0.00207221717698)
(2.98517280796e-05 6.35322479524e-05 -0.00214221945822)
(2.33809010021e-05 6.74844150595e-05 -0.00219985642701)
(1.60017063265e-05 7.03861106188e-05 -0.00224278555295)
(7.99897800511e-06 7.21467377893e-05 -0.00226927046579)
(-3.17387728366e-07 7.27130801626e-05 -0.00227822498851)
(-8.63350661374e-06 7.20670899922e-05 -0.00226922774044)
(-1.66364420642e-05 7.02267937125e-05 -0.00224269623101)
(-2.40198055306e-05 6.7246330798e-05 -0.00219970890015)
(-3.05010574904e-05 6.32201220598e-05 -0.00214199245589)
(-3.58126157183e-05 5.83218309571e-05 -0.00207188127778)
(-3.99650947399e-05 5.26767533983e-05 -0.00199221542447)
(-4.27489443068e-05 4.6834700827e-05 -0.00190618288033)
(4.86263889741e-05 5.42011359369e-05 -0.0022727222973)
(4.47339612222e-05 6.00171037468e-05 -0.00237090725814)
(3.95458065055e-05 6.55071223681e-05 -0.00246170054578)
(3.32313028564e-05 7.01477191603e-05 -0.00254162495502)
(2.58139319919e-05 7.38722267877e-05 -0.00260743991299)
(1.75605358482e-05 7.65658929463e-05 -0.00265646782134)
(8.74327149352e-06 7.8182209912e-05 -0.00268671283827)
(-3.55145213252e-07 7.86962401867e-05 -0.00269692532173)
(-9.45381521905e-06 7.80999900439e-05 -0.00268663456002)
(-1.82724597497e-05 7.64018202754e-05 -0.00265630953002)
(-2.65307969193e-05 7.36277519055e-05 -0.00260719398786)
(-3.39584460612e-05 6.98279477206e-05 -0.00254127616437)
(-4.02840630408e-05 6.51220457043e-05 -0.0024612260861)
(-4.54721345258e-05 5.95850382222e-05 -0.00237027045112)
(-4.93220673356e-05 5.37599221622e-05 -0.00227190430389)
(5.24783515159e-05 5.81261782797e-05 -0.0026143285523)
(4.76376739288e-05 6.35546440648e-05 -0.00272242704278)
(4.16774843736e-05 6.85725673054e-05 -0.00282229216043)
(3.46992113412e-05 7.27372841594e-05 -0.00291024281919)
(2.67599251574e-05 7.60224684318e-05 -0.00298270008351)
(1.81071105887e-05 7.83649189704e-05 -0.00303669182271)
(8.98053859793e-06 7.97553005184e-05 -0.00306999749144)
(-3.80453695106e-07 8.01916688437e-05 -0.00308122882255)
(-9.74218904394e-06 7.9673994092e-05 -0.00306987528535)
(-1.88712977831e-05 7.82029150017e-05 -0.00303644872842)
(-2.75299215908e-05 7.57815588797e-05 -0.00298233429877)
(-3.54794494397e-05 7.24225244586e-05 -0.00290974794937)
(-4.24684929131e-05 6.81939575878e-05 -0.00282165572666)
(-4.84293640478e-05 6.31291299741e-05 -0.00272161989193)
(-5.32337175248e-05 5.76881649968e-05 -0.00261333602665)
(5.41479368769e-05 5.95992842647e-05 -0.00293179227324)
(4.85499297841e-05 6.44725584695e-05 -0.00304757630674)
(4.20904209742e-05 6.88544558902e-05 -0.00315446491941)
(3.47598532712e-05 7.24370008462e-05 -0.00324865772893)
(2.66379121563e-05 7.52172919432e-05 -0.00332628545129)
(1.79397347985e-05 7.71731211668e-05 -0.00338413398572)
(8.86442457026e-06 7.83217057519e-05 -0.00341980943613)
(-3.96285294809e-07 7.86768865382e-05 -0.00343182272467)
(-9.65814539072e-06 7.82439287818e-05 -0.00341963735578)
(-1.87369411577e-05 7.70182848017e-05 -0.00338379472888)
(-2.74416299243e-05 7.49872830375e-05 -0.00332578409351)
(-3.55736564371e-05 7.21365825697e-05 -0.00324799829963)
(-4.29145993863e-05 6.849302528e-05 -0.00315364750149)
(-4.93758664803e-05 6.40653848676e-05 -0.00304658122952)
(-5.49448546803e-05 5.9175667938e-05 -0.00293060960087)
(5.41649957247e-05 5.92528390131e-05 -0.00322545456865)
(4.80228193767e-05 6.35316815312e-05 -0.00334678763316)
(4.13026322009e-05 6.72383587107e-05 -0.00345870897892)
(3.38659785599e-05 7.02315171863e-05 -0.0035573752043)
(2.58080666032e-05 7.25175407054e-05 -0.00363868124591)
(1.73071698767e-05 7.41045385766e-05 -0.00369924362221)
(8.52052821855e-06 7.50266216095e-05 -0.00373656733079)
(-4.05811175727e-07 7.53071178961e-05 -0.00374911468019)
(-9.333574122e-06 7.49542367386e-05 -0.00373634187001)
(-1.81243173787e-05 7.3960487303e-05 -0.00369880136289)
(-2.66320772893e-05 7.23036048074e-05 -0.00363803451346)
(-3.469967665e-05 6.9951931974e-05 -0.00355653903376)
(-4.21460527896e-05 6.69014795684e-05 -0.00345769698)
(-4.88688263692e-05 6.31507459296e-05 -0.00334559017071)
(-5.49893190317e-05 5.88514879082e-05 -0.00322406652475)
(5.30044245199e-05 5.76443691841e-05 -0.00349558126381)
(4.65157609181e-05 6.13522976332e-05 -0.0036203715521)
(3.97226216396e-05 6.44072233917e-05 -0.00373536518664)
(3.23608158255e-05 6.68458574118e-05 -0.00383673141797)
(2.45357651977e-05 6.86775847489e-05 -0.00392018803577)
(1.63891595336e-05 6.9932402545e-05 -0.00398227576249)
(8.03840780037e-06 7.06536848593e-05 -0.00402049095923)
(-4.11707863014e-07 7.08690896173e-05 -0.00403331207467)
(-8.8633902323e-06 7.05879550635e-05 -0.0040202106227)
(-1.72185292573e-05 6.98015602669e-05 -0.00398172736297)
(-2.53719929519e-05 6.84831174781e-05 -0.00391939094163)
(-3.32060241489e-05 6.65912718922e-05 -0.0038357114875)
(-4.05765694703e-05 6.40995499352e-05 -0.0037341495928)
(-4.73724543547e-05 6.10025327047e-05 -0.00361896012807)
(-5.38459803676e-05 5.72703841078e-05 -0.00349397355361)
(5.10400101439e-05 5.52069191577e-05 -0.00374233205419)
(4.43681901965e-05 5.83832745214e-05 -0.00386857881705)
(3.76399142704e-05 6.08301032956e-05 -0.00398478136236)
(3.04811177382e-05 6.27576807345e-05 -0.00408711868564)
(2.3001057249e-05 6.41798249321e-05 -0.00417119385591)
(1.53063149896e-05 6.51413463178e-05 -0.00423359373307)
(7.4777159439e-06 6.56882720715e-05 -0.00427192135715)
(-4.15903596111e-07 6.58481818729e-05 -0.00428474790308)
(-8.31111936744e-06 6.56299756065e-05 -0.00427158613513)
(-1.61441183911e-05 6.50252062816e-05 -0.00423293871111)
(-2.38454238368e-05 6.40068713093e-05 -0.00417024469358)
(-3.133357541e-05 6.25305179664e-05 -0.00408591125315)
(-3.84999255816e-05 6.05541791349e-05 -0.00398335586024)
(-4.52305317221e-05 5.80672537024e-05 -0.00386694322369)
(-5.18923232177e-05 5.48629547495e-05 -0.00374049010234)
(4.85385813841e-05 5.22474585723e-05 -0.0039658810008)
(4.1809813602e-05 5.49173034423e-05 -0.00409184021312)
(3.5246765277e-05 5.67934280955e-05 -0.00420762888656)
(2.8383305155e-05 5.82470858863e-05 -0.00430932225245)
(2.13230569275e-05 5.930027334e-05 -0.00439250778201)
(1.41385027768e-05 6.00044023075e-05 -0.00445399584608)
(6.87802047321e-06 6.04015072842e-05 -0.00449164276679)
(-4.19544324362e-07 6.05145711832e-05 -0.00450420118771)
(-7.71864649492e-06 6.03511267908e-05 -0.00449125376864)
(-1.49833581023e-05 5.99038162862e-05 -0.00445323560126)
(-2.21740378555e-05 5.91499589622e-05 -0.00439140684933)
(-2.92414610404e-05 5.80485959272e-05 -0.00430792502289)
(-3.61113082705e-05 5.65504862624e-05 -0.00420598778995)
(-4.26760498305e-05 5.46362924424e-05 -0.00408997010812)
(-4.93984727814e-05 5.1935599072e-05 -0.00396378837151)
(4.56664681172e-05 4.895529125e-05 -0.00416659696446)
(3.89856967878e-05 5.11100299137e-05 -0.00429114127455)
(3.26729486861e-05 5.24384145427e-05 -0.00440531015521)
(2.61778743513e-05 5.34490877258e-05 -0.00450486572721)
(1.95880200135e-05 5.41726586258e-05 -0.00458564538733)
(1.29443799646e-05 5.46546775853e-05 -0.00464496359593)
(6.26864261701e-06 5.4925198156e-05 -0.00468111193534)
(-4.23079278521e-07 5.49998956404e-05 -0.00469312063979)
(-7.11626737172e-06 5.4882949334e-05 -0.00468067140597)
(-1.3795980793e-05 5.45700464715e-05 -0.00464410136096)
(-2.04452590585e-05 5.40456088962e-05 -0.0045843946286)
(-2.70415068759e-05 5.32799561411e-05 -0.00450327674293)
(-3.35419763284e-05 5.2229015585e-05 -0.00440344661829)
(-3.98557136529e-05 5.0864450697e-05 -0.00428902586914)
(-4.65327081368e-05 4.86772434224e-05 -0.00416423840751)
(4.25222428656e-05 4.5408020374e-05 -0.00434523259573)
(3.60141061494e-05 4.704555408e-05 -0.00446867156878)
(3.00423547158e-05 4.78235249483e-05 -0.00458045739937)
(2.39710004805e-05 4.84242828884e-05 -0.00467629962336)
(1.78783958889e-05 4.88583538858e-05 -0.00475301120165)
(1.17789985067e-05 4.91512820479e-05 -0.0048088004896)
(5.67709384772e-06 4.93162472736e-05 -0.00484258048805)
(-4.26513876601e-07 4.93594108225e-05 -0.00485374302583)
(-6.53146051583e-06 4.92820305315e-05 -0.00484209242091)
(-1.26369187873e-05 4.90824986416e-05 -0.00480784253706)
(-1.87414245154e-05 4.87543959972e-05 -0.00475161571168)
(-2.48399440961e-05 4.82843777188e-05 -0.00467451789979)
(-3.09161940893e-05 4.76475767405e-05 -0.00457836149391)
(-3.68883401663e-05 4.68347672731e-05 -0.00446629855805)
(-4.33944638058e-05 4.51632537319e-05 -0.00434260180873)
(3.91666463288e-05 4.21054438002e-05 -0.00450375873087)
(3.30671925665e-05 4.28014507523e-05 -0.00462966651893)
(2.74958916439e-05 4.30257258999e-05 -0.00473744357852)
(2.18731531641e-05 4.32329021411e-05 -0.00482730025356)
(1.62740805711e-05 4.33845240367e-05 -0.00489790664821)
(1.06942044012e-05 4.34891666579e-05 -0.00494863764419)
(5.12879973426e-06 4.35470700318e-05 -0.00497911254663)
(-4.29617927351e-07 4.35576506357e-05 -0.0049891167544)
(-5.98916547396e-06 4.35205723203e-05 -0.00497858486213)
(-1.15575557154e-05 4.34358281505e-05 -0.00494759801125)
(-1.71417250076e-05 4.33033255804e-05 -0.00489638248617)
(-2.27460004153e-05 4.31224319968e-05 -0.0048253359054)
(-2.83738044771e-05 4.28839760563e-05 -0.00473511219278)
(-3.39454846151e-05 4.26266219355e-05 -0.00462700025671)
(-4.0045949203e-05 4.1893686703e-05 -0.00450090985607)
(-3.59744112079e-07 -6.74412697144e-07 -0.00031556627759)
(-1.63630580934e-07 -9.17740808176e-07 -0.000331999859842)
(-4.15872666185e-08 -1.06042233208e-06 -0.000347360196197)
(4.09727217179e-08 -1.14572475189e-06 -0.000360913172548)
(7.89957309151e-08 -1.19003377167e-06 -0.000372057423699)
(7.54448866448e-08 -1.20803967671e-06 -0.000380335786259)
(3.96989275021e-08 -1.2131424277e-06 -0.000385431959691)
(-1.41171128883e-08 -1.21432400786e-06 -0.000387156010172)
(-6.73195894551e-08 -1.21462479295e-06 -0.000385409923303)
(-1.01100489332e-07 -1.21057292807e-06 -0.00038029194731)
(-1.00883620224e-07 -1.19284336305e-06 -0.000371992319015)
(-5.76357773313e-08 -1.14802566368e-06 -0.000360827421143)
(3.15104248096e-08 -1.06040722736e-06 -0.000347253672621)
(1.61754868828e-07 -9.14129387201e-07 -0.00033186970555)
(3.63471985516e-07 -6.68284600814e-07 -0.00031539874591)
(-1.32972364901e-06 -2.10568567902e-06 -0.000896765091705)
(-8.3544360362e-07 -2.73566464763e-06 -0.000940331847014)
(-4.9192111221e-07 -3.1461025394e-06 -0.000981071383297)
(-2.39956429627e-07 -3.41287076929e-06 -0.00101700428253)
(-8.0706213204e-08 -3.57069146908e-06 -0.00104653918935)
(-6.81057423135e-09 -3.65269237821e-06 -0.00106847112049)
(8.09904379553e-10 -3.68880690508e-06 -0.00108196525232)
(-2.86928308913e-08 -3.69935813828e-06 -0.00108651795918)
(-5.68543166086e-08 -3.69130320296e-06 -0.00108189898708)
(-4.50102249219e-08 -3.65676067956e-06 -0.00106833934432)
(3.6740006314e-08 -3.57474054822e-06 -0.00104634354817)
(2.07276839729e-07 -3.41520182575e-06 -0.00101674679547)
(4.73608043519e-07 -3.14315821313e-06 -0.000980752082671)
(8.34574700817e-07 -2.72499677303e-06 -0.000939942779554)
(1.34103290155e-06 -2.08966423326e-06 -0.0008962752976)
(-2.53258237892e-06 -3.63354506815e-06 -0.00142506246711)
(-1.8217855415e-06 -4.57265532112e-06 -0.00149052911336)
(-1.28762606183e-06 -5.23248729534e-06 -0.00155170233196)
(-8.61697073138e-07 -5.69006954696e-06 -0.00160563758304)
(-5.3824754671e-07 -5.98606314121e-06 -0.00164995598974)
(-3.0753956563e-07 -6.1604336792e-06 -0.00168285751276)
(-1.48749400891e-07 -6.24897001531e-06 -0.00170309257225)
(-3.03288495303e-08 -6.27600546536e-06 -0.0017099076045)
(8.95666401508e-08 -6.24975804024e-06 -0.00170298346691)
(2.52976049008e-07 -6.1610112364e-06 -0.00168264053096)
(4.92319460807e-07 -5.9848367372e-06 -0.00164963372508)
(8.28663015698e-07 -5.6853498438e-06 -0.00160521329183)
(1.27160445044e-06 -5.22092908866e-06 -0.00155117677801)
(1.8265062559e-06 -4.55188666751e-06 -0.00148989138281)
(2.55221749536e-06 -3.60705896863e-06 -0.00142426993623)
(-3.61196472848e-06 -4.90345023951e-06 -0.00190485893836)
(-2.74621633316e-06 -6.02810176858e-06 -0.00198779337031)
(-2.06335565609e-06 -6.84674159678e-06 -0.00206520315265)
(-1.49062299841e-06 -7.43097220178e-06 -0.00213344578887)
(-1.01597007253e-06 -7.82239550518e-06 -0.00218952073895)
(-6.28031561282e-07 -8.06298855496e-06 -0.00223115041817)
(-3.07000105031e-07 -8.19014760963e-06 -0.00225674834212)
(-2.35750788606e-08 -8.22922496046e-06 -0.00226535858438)
(2.61188954871e-07 -8.18879227929e-06 -0.00225659830955)
(5.86363706035e-07 -8.05941725325e-06 -0.00223085200341)
(9.82075867844e-07 -7.81529439627e-06 -0.00218907734365)
(1.4687850807e-06 -7.41895387566e-06 -0.00213286180104)
(2.05797537893e-06 -6.827116698e-06 -0.00206448061496)
(2.76111700181e-06 -5.9989642745e-06 -0.00198692065975)
(3.64149967568e-06 -4.86867471997e-06 -0.00190378796675)
(-4.5237029575e-06 -5.90581315195e-06 -0.00234072598869)
(-3.54679498465e-06 -7.12239547318e-06 -0.00243743277818)
(-2.74984755936e-06 -8.02270087757e-06 -0.0025275897164)
(-2.05627343389e-06 -8.6745370027e-06 -0.0026070812006)
(-1.45067441091e-06 -9.1185125102e-06 -0.00267241682421)