/*--------------------------------*- C++ -*----------------------------------*\
  =========                 |
  \\      /  F ield         | OpenFOAM: The Open Source CFD Toolbox
   \\    /   O peration     | Website:  https://openfoam.org
    \\  /    A nd           | Version:  7
     \\/     M anipulation  |
\*---------------------------------------------------------------------------*/
FoamFile
{
    version     2.0;
    format      ascii;
    class       surfaceScalarField;
    location    "0.82";
    object      phi;
}
// * * * * * * * * * * * * * * * * * * * * * * * * * * * * * * * * * * * * * //

dimensions      [0 3 -1 0 0 0 0];

internalField   nonuniform List<scalar> 
65775
(
9.59579458494e-12
7.66889677544e-10
1.18168777531e-10
-3.8497191452e-14
1.61821791674e-11
8.02839508444e-10
1.31492868824e-10
1.95778196369e-11
8.34560973347e-10
1.44623131168e-10
1.94649898329e-11
8.61868614087e-10
1.56710745125e-10
1.62713234609e-11
8.83644636921e-10
1.66982955035e-10
1.06615605193e-11
8.99540826643e-10
1.7481360307e-10
3.51963381583e-12
9.09513513904e-10
1.79778900689e-10
-4.15202254919e-12
9.1328268953e-10
1.81555021539e-10
-1.12798435251e-11
9.09521861072e-10
1.79768996778e-10
-1.68629444737e-11
8.9955763033e-10
1.74794046007e-10
-2.00189971258e-11
8.83670957196e-10
1.66954111704e-10
-2.00869752843e-11
8.61905670261e-10
1.56672928687e-10
-1.66422109856e-11
8.34609990737e-10
1.44575998648e-10
-1.0011229061e-11
8.02899287845e-10
1.31432638688e-10
7.66887930468e-10
1.18080283659e-10
-3.3839307159e-13
2.48558592712e-11
1.29298082747e-09
3.01393100433e-10
-7.86901195166e-14
4.36060344786e-11
1.34812081145e-09
3.34352672541e-10
5.32239617188e-11
1.39790115772e-09
3.66825419773e-10
5.33546669126e-11
1.44040212758e-09
3.96711563294e-10
4.48187768465e-11
1.47415633179e-09
4.22094353945e-10
2.94411406931e-11
1.49864374313e-09
4.41432636448e-10
9.69545447051e-12
1.51396780289e-09
4.53686278591e-10
-1.15421146712e-11
1.51977898929e-09
4.58061416761e-10
-3.12474036089e-11
1.51398514477e-09
4.53656120157e-10
-4.65478175074e-11
1.49867983301e-09
4.41373290542e-10
-5.4974673904e-11
1.47421475954e-09
4.22007159389e-10
-5.47103926432e-11
1.44048803375e-09
3.96597808148e-10
-4.49441529737e-11
1.39802061431e-09
3.66684603631e-10
-2.6024337792e-11
1.34825954328e-09
3.34174878713e-10
1.29299060512e-09
3.01146347381e-10
-9.63633474833e-13
3.67783061059e-11
1.62772061824e-09
4.38525259879e-10
-9.87097552076e-14
6.49327919757e-11
1.6899682173e-09
4.858937544e-10
7.95353157973e-11
1.74780310533e-09
5.32531817898e-10
7.99870653784e-11
1.79683313198e-09
5.75448359872e-10
6.73293474515e-11
1.83566942637e-09
6.11891687141e-10
4.42562346635e-11
1.8636726734e-09
6.39650551767e-10
1.45128034541e-11
1.88115167191e-09
6.57228799669e-10
-1.75034401778e-11
1.88780311478e-09
6.63491506487e-10
-4.71821790398e-11
1.88117155689e-09
6.57179056828e-10
-7.01308903876e-11
1.86371588932e-09
6.39552871954e-10
-8.26120227301e-11
1.83574317253e-09
6.1174864084e-10
-8.19410185708e-11
1.79694776281e-09
5.75262689117e-10
-6.70893721092e-11
1.74797113701e-09
5.32304024084e-10
-3.86388077933e-11
1.69015718663e-09
4.85611548221e-10
1.62773670438e-09
4.38147505636e-10
-1.54273627881e-12
4.61329235165e-11
1.81018627955e-09
5.39135812903e-10
-1.07660521555e-13
8.13016471043e-11
1.87120155811e-09
5.97005889245e-10
9.9782474118e-11
1.92970531441e-09
6.5390643177e-10
1.00521765738e-10
1.97913661413e-09
7.06244914995e-10
8.47190155245e-11
2.01821746824e-09
7.50679027404e-10
5.56898751131e-11
2.0462397806e-09
7.84517167326e-10
1.81684093989e-11
2.06368582598e-09
8.05930995548e-10
-2.22444116342e-11
2.07035126839e-09
8.13543109566e-10
-5.9678149157e-11
2.06370155695e-09
8.0586274588e-10
-8.8537858645e-11
2.04627716931e-09
7.84383459063e-10
-1.04098725552e-10
2.01828743603e-09
7.50483957906e-10
-1.03056728036e-10
1.97925459422e-09
7.05993250382e-10
-8.42263359163e-11
1.92989042789e-09
6.53600942545e-10
-4.86451829046e-11
1.87140513748e-09
5.96635353988e-10
1.81019600461e-09
5.38657486009e-10
-2.09205613687e-12
5.31716798182e-11
1.87393005453e-09
6.08504417269e-10
-1.09402753273e-13
9.34128463704e-11
1.92821756861e-09
6.73663074369e-10
1.14752326657e-10
1.982299838e-09
7.37608385956e-10
1.15711133231e-10
2.02803436372e-09
7.96387387611e-10
9.75860769342e-11
2.06417108332e-09
8.46272971184e-10
6.41227082464e-11
2.08995469511e-09
8.84252509287e-10
2.07884079555e-11
2.10596878803e-09
9.08269528537e-10
-2.59046652665e-11
2.11211575176e-09
9.1678637132e-10
-6.91290423765e-11
2.10597366302e-09
9.08183837951e-10
-1.02379417096e-10
2.08997256892e-09
8.8408506718e-10
-1.20198989931e-10
2.06421630479e-09
8.46029748185e-10
-1.18856081678e-10
2.02812682695e-09
7.96075808772e-10
-9.70699588878e-11
1.98246491295e-09
7.37234662606e-10
-5.63098364667e-11
1.9283950563e-09
6.73219069067e-10
1.87390890121e-09
6.07949699403e-10
-2.62311256767e-12
5.81897975316e-11
1.8476406848e-09
6.51200297149e-10
-1.06687315311e-13
1.01848417797e-10
1.89197554523e-09
7.21014953672e-10
1.2509836593e-10
1.93847900624e-09
7.89366139694e-10
1.26163918285e-10
1.97803365282e-09
8.52134750076e-10
1.06408531502e-10
2.00932447288e-09
9.05380441555e-10
6.98548769049e-11
2.03155756609e-09
9.45903314798e-10
2.24711077549e-11
2.04533807809e-09
9.71506773591e-10
-2.85952643416e-11
2.05065683657e-09
9.80561865549e-10
-7.58475937397e-11
2.04532492855e-09
9.7140465766e-10
-1.12145845859e-10
2.03154117556e-09
9.45704323331e-10
-1.31533769493e-10
2.0093217061e-09
9.05092767537e-10
-1.30005018194e-10
1.97806835075e-09
8.51769076271e-10
-1.06215748374e-10
1.9385821129e-09
7.88933012377e-10
-6.19393461448e-11
1.89208199699e-09
7.20510182137e-10
1.84755363679e-09
6.50586677221e-10
-3.14185820231e-12
6.14606617313e-11
1.75570995932e-09
6.71248739902e-10
-1.01255977338e-13
1.07098713685e-10
1.78869561062e-09
7.4358494466e-10
1.31381530797e-10
1.82604100093e-09
8.14202259699e-10
1.32408962363e-10
1.85819369254e-09
8.78967372472e-10
1.11606358046e-10
1.8837147944e-09
9.33867306936e-10
7.31519709203e-11
1.90178591808e-09
9.75626869763e-10
2.33039712767e-11
1.91296802378e-09
1.00198438485e-09
-3.04141214189e-11
1.91731244549e-09
1.01127791663e-09
-8.01098091301e-11
1.91292960796e-09
1.00186681439e-09
-1.18267627297e-10
1.90171999992e-09
9.75398392011e-10
-1.38642596682e-10
1.88363966013e-09
9.33538638838e-10
-1.37075560106e-10
1.85813632824e-09
8.78552939348e-10
-1.12164751923e-10
1.82603765569e-09
8.13717509987e-10
-6.58151914452e-11
1.78868060545e-09
7.43029722841e-10
1.75551136768e-09
6.7058918584e-10
-3.65371155751e-12
6.31936135109e-11
1.61873086433e-09
6.72240042914e-10
-9.39825698405e-14
1.09543826007e-10
1.64040024005e-09
7.45398512788e-10
1.34056204021e-10
1.66824802411e-09
8.16578473314e-10
1.34888868741e-10
1.69272445393e-09
8.81745769953e-10
1.13540535844e-10
1.71226606898e-09
9.36927911008e-10
7.42463864735e-11
1.72606029084e-09
9.78868395631e-10
2.33645660696e-11
1.7345840747e-09
1.00530561551e-09
-3.14467538754e-11
1.73792287781e-09
1.01459480521e-09
-8.21561738969e-11
1.73451317982e-09
1.0051735152e-09
-1.21114122658e-10
1.72592944571e-09
9.78612348454e-10
-1.41976867121e-10
1.71209376803e-09
9.36561368532e-10
-1.40531089035e-10
1.69253959079e-09
8.81287226236e-10
-1.15305559688e-10
1.66809152389e-09
8.16048546462e-10
-6.815256642e-11
1.64020898389e-09
7.44800725691e-10
1.61836503171e-09
6.71544084454e-10
-4.16266507166e-12
6.35422303168e-11
1.45390438917e-09
6.57413086029e-10
-8.55755655532e-14
1.09466479176e-10
1.46535666304e-09
7.30082068573e-10
1.33478074383e-10
1.48427758398e-09
8.00506714784e-10
1.33966023888e-10
1.5014688356e-09
8.64830443078e-10
1.12517662307e-10
1.51530954199e-09
9.1921117439e-10
7.3340497956e-11
1.52504193557e-09
9.60491497688e-10
2.27218304008e-11
1.53104743958e-09
9.86468480224e-10
-3.17673725955e-11
1.53342542734e-09
9.95558977368e-10
-8.21945479251e-11
1.53093714735e-09
9.86322735341e-10
-1.20997753131e-10
1.52483133648e-09
9.60209642372e-10
-1.41905281997e-10
1.51501573216e-09
9.1880947848e-10
-1.40733758901e-10
1.50112114669e-09
8.64331618352e-10
-1.15926722756e-10
1.48392005349e-09
7.99936582105e-10
-6.91092247466e-11
1.46493050633e-09
7.29447267411e-10
1.45330727137e-09
6.56687446006e-10
-4.67184111946e-12
6.26129609728e-11
1.27537003815e-09
6.29723094137e-10
-7.63923186234e-14
1.07067270421e-10
1.27842946078e-09
7.00944110642e-10
1.29922040919e-10
1.28958006979e-09
7.69639432704e-10
1.29940846408e-10
1.30028801093e-09
8.32177550648e-10
1.08804855431e-10
1.30900687905e-09
8.84919535736e-10
7.06165214498e-11
1.31509375185e-09
9.24879358679e-10
2.14396165302e-11
1.31884194793e-09
9.49968461098e-10
-3.14418904222e-11
1.32035106142e-09
9.58706368596e-10
-8.04093435696e-11
1.31868584068e-09
9.49809947049e-10
-1.18188146318e-10
1.31478955392e-09
9.24573334501e-10
-1.38731048286e-10
1.30856861369e-09
8.8448501488e-10
-1.37961451464e-10
1.29974311922e-09
8.31641431619e-10
-1.14231425911e-10
1.28897360705e-09
7.69032625554e-10
-6.87936883702e-11
1.27770739342e-09
7.00275768136e-10
1.27447109121e-09
6.28972125728e-10
-5.18336967351e-12
6.0463811735e-11
1.09448013361e-09
5.91899501612e-10
-6.67737830581e-14
1.02482088295e-10
1.09134480646e-09
6.61045457592e-10
1.23615737173e-10
1.09614532143e-09
7.27345850482e-10
1.2308846993e-10
1.10136581971e-09
7.87417025351e-10
1.02660050251e-10
1.10570245275e-09
8.37887886129e-10
6.62556967256e-11
1.10867256114e-09
8.7601469214e-10
1.95835197613e-11
1.11049344795e-09
8.99879475611e-10
-3.05338715763e-11
1.11125296079e-09
9.08143856017e-10
-7.69797352229e-11
1.11028546694e-09
8.99709149195e-10
-1.1294112864e-10
1.10826179852e-09
8.75686135273e-10
-1.3272723955e-10
1.10509823946e-09
8.37422601581e-10
-1.32439660911e-10
1.10059103451e-09
7.86845883963e-10
-1.1035341247e-10
1.09524293401e-09
7.26704714859e-10
-6.72627282726e-11
1.09026570177e-09
6.60345531908e-10
1.09320672311e-09
5.91125693042e-10
-5.69840746228e-12
5.70995014436e-11
9.20028016513e-10
5.46497600101e-10
-5.63824634264e-14
9.5831625277e-11
9.12837469432e-10
6.13261482257e-10
1.14820451093e-10
9.12674038334e-10
6.76774639424e-10
1.13737878832e-10
9.13454912178e-10
7.33912457437e-10
9.43923052634e-11
9.14234170448e-10
7.81642423642e-10
6.0475380325e-11
9.14685351172e-10
8.17539629975e-10
1.72334031241e-11
9.1495119915e-10
8.39915388254e-10
-2.91160311185e-11
9.15097525246e-10
8.47611495568e-10
-7.21155493839e-11
9.14684942146e-10
8.3973438948e-10
-1.05557567604e-10
9.14155085291e-10
8.17190439693e-10
-1.24213963716e-10
9.1344330169e-10
7.81148491829e-10
-1.24420354254e-10
9.12418946419e-10
7.3330817687e-10
-1.04403862522e-10
9.11429993989e-10
6.76100842467e-10
-6.45127842001e-11
9.11341648518e-10
6.12531590137e-10
9.1831120273e-10
5.4570280437e-10
-6.21515695475e-12
5.25164865171e-11
7.58380669162e-10
4.95944843933e-10
-4.39593816597e-14
8.73857236564e-11
7.48628929351e-10
5.60332252455e-10
1.0401032016e-10
7.44695585056e-10
6.20892808074e-10
1.02414747705e-10
7.42128645288e-10
6.74791791347e-10
8.44609472286e-11
7.40258677391e-10
7.19431136555e-10
5.35864236268e-11
7.38850612999e-10
7.52790206303e-10
1.45029521752e-11
7.37970143683e-10
7.73468451996e-10
-2.72889673363e-11
7.37650890212e-10
7.80522590991e-10
-6.61135078233e-11
7.37637621996e-10
7.73278397697e-10
-9.64811739036e-11
7.38185263907e-10
7.52423084583e-10
-1.13699572188e-10
7.39258615066e-10
7.18911409008e-10
-1.14359225471e-10
7.40800083784e-10
6.74156471933e-10
-9.66338802678e-11
7.43065054539e-10
6.20187935897e-10
-6.05206692217e-11
7.46655535591e-10
5.59575483717e-10
7.56146353606e-10
4.951342874e-10
-6.705848912e-12
4.70454639497e-11
6.13235676886e-10
4.42575914128e-10
-2.60155707866e-14
7.80244492868e-11
6.01269809775e-10
5.04879298622e-10
9.22020185858e-11
5.94833967085e-10
5.62469380076e-10
9.00477564004e-11
5.90179967088e-10
6.1292286083e-10
7.36022831564e-11
5.86669638356e-10
6.54208732589e-10
4.60645502966e-11
5.84120456047e-10
6.84794563558e-10
1.15617182803e-11
5.82531069046e-10
7.03617282405e-10
-2.52029842868e-11
5.81902768137e-10
7.09975148929e-10
-5.94288426353e-11
5.8212015703e-10
7.03420733447e-10
-8.64251308159e-11
5.83297863045e-10
6.84414010069e-10
-1.02086837757e-10
5.85431291371e-10
6.5366822865e-10
-1.03245381681e-10
5.88524729926e-10
6.12260079414e-10
-8.78995126869e-11
5.92776309556e-10
5.61735108145e-10
-5.55979547e-11
5.98759775539e-10
5.04100891282e-10
6.10430482573e-10
4.41762708957e-10
-7.18134854271e-12
4.35761587586e-11
3.88750383617e-10
-1.30936454457e-14
4.83052656266e-10
7.07198163884e-11
4.4941467132e-10
4.70715562094e-10
8.18159541045e-11
5.03995693758e-10
4.6377235505e-10
7.8525271959e-11
5.50830943637e-10
4.58409189582e-10
6.31889688215e-11
5.88569210917e-10
4.54282842315e-10
3.8749815986e-11
6.16218406005e-10
4.51312242716e-10
8.70033295864e-12
6.33079425363e-10
4.49448554515e-10
-2.31253413082e-11
6.38706808338e-10
4.48660953472e-10
-5.28757100573e-11
6.32881083613e-10
4.489387529e-10
-7.67312665393e-11
6.15833377711e-10
4.50294145655e-10
-9.12258766821e-11
5.88019756381e-10
4.52756245824e-10
-9.34531032612e-11
5.50152130879e-10
4.56373955618e-10
-8.11119247986e-11
5.03240541303e-10
4.61230446021e-10
-5.25793882674e-11
4.48611837577e-10
4.67625322799e-10
3.87976451002e-10
-7.60652218219e-12
4.79622877759e-10
6.23577056166e-14
1.8714953614e-11
9.9371491497e-11
-1.38605362249e-14
4.69476414439e-13
2.08053567766e-11
1.10226375004e-10
7.97771984745e-13
2.32037574438e-11
1.21035311608e-10
9.22226553652e-13
2.54596862207e-11
1.31075636566e-10
8.25585810116e-13
2.7377215382e-11
1.39662536276e-10
5.43317662819e-13
2.8827889525e-11
1.46236536638e-10
1.40933098514e-13
2.97395209195e-11
1.50414012031e-10
-3.02138624328e-13
3.00647899646e-11
1.51907037736e-10
-7.03839303227e-13
2.97467990765e-11
1.50398688416e-10
-9.84022625531e-13
2.88435168626e-11
1.46206386026e-10
-1.07504333377e-12
2.74033427874e-11
1.39618427048e-10
-9.39275303416e-13
2.54959496889e-11
1.31018533694e-10
-5.94336114631e-13
2.32435405662e-11
1.20965566274e-10
-1.68116316789e-13
2.08441024547e-11
1.10141151828e-10
1.87264237073e-11
9.92580208515e-11
-9.23553142804e-14
6.41337370647e-13
4.71002458387e-11
2.72337744966e-10
-3.36983337455e-14
1.87102633336e-12
5.18558348888e-11
3.01987722398e-10
2.86540146389e-12
5.74128643874e-11
3.3153312923e-10
3.237712725e-12
6.27127163491e-11
3.59007878996e-10
2.89013825158e-12
6.72257869675e-11
3.82531198797e-10
1.90807368489e-12
7.0635561449e-11
4.00556114621e-10
5.01406524457e-13
7.27757792546e-11
4.12011110176e-10
-1.05097613742e-12
7.35405275207e-11
4.16095019816e-10
-2.45153369941e-12
7.27966718514e-11
4.11965586209e-10
-3.41968690996e-12
7.06788196553e-11
4.00466614918e-10
-3.74160108347e-12
6.72939771961e-11
3.82400455772e-10
-3.32764637805e-12
6.28041663908e-11
3.58839011395e-10
-2.27706900354e-12
5.75146261657e-11
3.3132764712e-10
-9.81003436514e-13
5.19510212641e-11
3.01738376563e-10
4.71383892746e-11
2.72018139811e-10
-2.95892710386e-13
1.45071761727e-12
7.36426065443e-11
4.10519685631e-10
-4.68060408636e-14
3.49021547426e-12
8.04516418205e-11
4.55181563796e-10
5.1107198122e-12
8.85773457154e-11
4.99665647705e-10
5.70607385311e-12
9.64516594873e-11
5.41043143749e-10
5.08034742907e-12
1.03200474494e-10
5.76485616936e-10
3.35252467912e-12
1.08312586295e-10
6.03653765708e-10
8.74810281679e-13
1.11524039275e-10
6.20915396242e-10
-1.86158545395e-12
1.12671841788e-10
6.27056124403e-10
-4.3244303558e-12
1.11558674724e-10
6.20841201386e-10
-6.02052356557e-12
1.083826189e-10
6.03508063828e-10
-6.59359910913e-12
1.03306882778e-10
5.76273185714e-10
-5.92062287928e-12
9.65898902122e-11
5.40769652092e-10
-4.20006448573e-12
8.87302827339e-11
4.9933482817e-10
-2.04380625326e-12
8.05899883346e-11
4.54785104967e-10
7.37033317787e-11
4.10024182706e-10
-5.142544093e-13
2.31891784845e-12
9.51060664284e-11
5.15352638901e-10
-5.57485272284e-14
5.09140397771e-12
1.03194845366e-10
5.71419703018e-10
7.24077639781e-12
1.13059014184e-10
6.27202236949e-10
8.00645970327e-12
1.22779542332e-10
6.79087574212e-10
7.10371539219e-12
1.31187221434e-10
7.23542404115e-10
4.67322760944e-12
1.37588596367e-10
7.57626864368e-10
1.19241687829e-12
1.41619997075e-10
7.79275205919e-10
-2.65140702772e-12
1.43061088584e-10
7.86959393328e-10
-6.10631393262e-12
1.41665536154e-10
7.79174280724e-10
-8.4832709393e-12
1.37679150139e-10
7.57428941379e-10
-9.30179872403e-12
1.31321275899e-10
7.23254527605e-10
-8.41874997355e-12
1.22949335948e-10
6.78718456972e-10
-6.12295024134e-12
1.13245485078e-10
6.26759005982e-10
-3.18276694191e-12
1.03360106119e-10
5.70896085752e-10
9.51833829937e-11
5.14714567237e-10
-7.46335610307e-13
3.12524478358e-12
1.09919170848e-10
5.90575652186e-10
-6.16811665112e-14
6.47850332481e-12
1.18531076734e-10
6.5490989927e-10
9.01436235067e-12
1.29261528141e-10
7.18805413106e-10
9.87980359396e-12
1.4003275146e-10
7.78211728276e-10
8.72676848254e-12
1.49454907252e-10
8.29110506211e-10
5.70924910828e-12
1.56679735373e-10
8.68137463492e-10
1.40153014938e-12
1.61247016244e-10
8.92912395271e-10
-3.3518832042e-12
1.62879567686e-10
9.01685599363e-10
-7.62145755765e-12
1.6129817623e-10
8.92786768926e-10
-1.0561586154e-11
1.56780291246e-10
8.67891493733e-10
-1.15966124605e-11
1.49601024558e-10
8.28753770594e-10
-1.05723553696e-11
1.40214323218e-10
7.77756532183e-10
-7.84318287413e-12
1.29458994409e-10
7.18263360452e-10
-4.27209031009e-12
1.18702707034e-10
6.54278603112e-10
1.10000632484e-10
5.89823673334e-10
-9.87991383803e-13
3.76768504398e-12
1.17715598835e-10
6.39652498628e-10
-6.54588998479e-14
7.49578275324e-12
1.26213364816e-10
7.09548045119e-10
1.02422143041e-11
1.37024200173e-10
7.78799621063e-10
1.11271031155e-11
1.48102821483e-10
8.43128420906e-10
9.77245533558e-12
1.57919610432e-10
8.98226368704e-10
6.3399705024e-12
1.65512101273e-10
9.40464621624e-10
1.46428439938e-12
1.70334715339e-10
9.67259080336e-10
-3.90853250093e-12
1.72057875275e-10
9.76722748371e-10
-8.73358342042e-12
1.70385072871e-10
9.67110798398e-10
-1.20645083841e-11
1.6561013057e-10
9.40174811795e-10
-1.3267289396e-11
1.58059754794e-10
8.97807413644e-10
-1.21826963195e-11
1.48273854228e-10
8.42596733952e-10
-9.19733135452e-12
1.37207760643e-10
7.78172111466e-10
-5.20364266911e-12
1.26367407717e-10
7.0882701869e-10
1.17784815714e-10
6.38809933217e-10
-1.23402870349e-12
4.17696345049e-12
1.18964589972e-10
6.65845119544e-10
-6.76268736422e-14
8.04205993929e-12
1.26878186293e-10
7.39005486224e-10
1.08056701893e-11
1.37144442112e-10
8.11267666346e-10
1.16273556039e-11
1.47906201547e-10
8.78296582038e-10
1.01354996659e-11
1.57575101154e-10
9.35663687339e-10
6.49533406505e-12
1.65124929342e-10
9.79618444849e-10
1.36092447793e-12
1.69945962975e-10
1.00747441339e-09
-4.28542999751e-12
1.71666746692e-10
1.0172840891e-09
-9.35729931124e-12
1.69988443794e-10
1.00730550704e-09
-1.28729875588e-11
1.65206731907e-10
9.79288951774e-10
-1.41810152513e-11
1.57689993771e-10
9.35189027534e-10
-1.31213437196e-11
1.48043210769e-10
8.77697688437e-10
-1.00762575368e-11
1.37288183113e-10
8.10567275864e-10
-5.90123923445e-12
1.26988518182e-10
7.38210686327e-10
1.18999901672e-10
6.64931457507e-10
-1.47964943199e-12
4.31680380196e-12
1.14662748606e-10
6.72252816393e-10
-6.85323729056e-14
8.07195685114e-12
1.21703450575e-10
7.46774508363e-10
1.06603540367e-11
1.30990614512e-10
8.20099418979e-10
1.1342366248e-11
1.40958272343e-10
8.87970837713e-10
9.7871002489e-12
1.50039140246e-10
9.45982614049e-10
6.15914432535e-12
1.57199585354e-10
9.90388504546e-10
1.09064908422e-12
1.61796720744e-10
1.01849240287e-09
-4.46707802064e-12
1.63434148187e-10
1.02835583689e-09
-9.46239090674e-12
1.61824538246e-10
1.01830485572e-09
-1.29454127333e-11
1.57252051855e-10
9.9002334584e-10
-1.42884062839e-11
1.50110241528e-10
9.45458452617e-10
-1.33343657936e-11
1.41038491373e-10
8.87313392065e-10
-1.04267517014e-11
1.31068596034e-10
8.19337491191e-10
-6.32172839e-12
1.2174348233e-10
7.45919621083e-10
1.14637809173e-10
6.71284360252e-10
-1.71960168181e-12
4.1802852264e-12
1.06088565049e-10
6.61838638208e-10
-6.86972442398e-14
7.59096546991e-12
1.12137653297e-10
7.3619925274e-10
9.83081601051e-12
1.20195417904e-10
8.09023385343e-10
1.03118284102e-11
1.29040783704e-10
8.76230748759e-10
8.77076953347e-12
1.37203017436e-10
9.33555443903e-10
5.36624579804e-12
1.4369897823e-10
9.77366210128e-10
6.70461418531e-13
1.47890314447e-10
1.00504208363e-09
-4.45779331039e-12
1.49377591266e-10
1.01471663243e-09
-9.07150370273e-12
1.47897266499e-10
1.00483781039e-09
-1.23140058312e-11
1.43710147449e-10
9.76969197456e-10
-1.36190594872e-11
1.37213381266e-10
9.32987525043e-10
-1.2837523277e-11
1.29043324958e-10
8.75522529419e-10
-1.02466113654e-11
1.2018332791e-10
8.08209744846e-10
-6.45186081452e-12
1.12080921289e-10
7.35295581123e-10
1.05975532653e-10
6.60828825192e-10
-1.94887952431e-12
3.78632707432e-12
9.46111219651e-11
6.37449149284e-10
-6.82673646555e-14
6.64932445255e-12
9.96863731663e-11
7.10499704112e-10
8.40338475151e-12
1.06417484767e-10
7.81629832072e-10
8.64536514344e-12
1.13945134989e-10
8.4699936474e-10
7.19469943872e-12
1.20963938954e-10
9.02579579006e-10
4.19686914897e-12
1.26595276859e-10
9.44953070867e-10
1.32911277584e-13
1.30243495086e-10
9.71652820101e-10
-4.28001163113e-12
1.31529886815e-10
9.80941867855e-10
-8.25501264565e-12
1.3022447042e-10
9.71433675128e-10
-1.10776171951e-11
1.26555240153e-10
9.44527799032e-10
-1.22739006024e-11
1.20899376871e-10
9.019731233e-10
-1.17092635437e-11
1.13851914857e-10
8.46247150459e-10
-9.57905381558e-12
1.06293486749e-10
7.80772687681e-10
-6.3043436236e-12
9.95078825366e-11
7.09556256895e-10
9.43808085939e-11
6.36408767866e-10
-2.16289386257e-12
3.17479679515e-12
8.15420556307e-11
6.01831045269e-10
-6.76554390808e-14
5.33680113325e-12
8.5749106123e-11
6.72792690961e-10
6.52022380132e-12
9.11622108105e-11
7.41388814732e-10
6.51513796032e-12
9.72852362025e-11
8.04054079993e-10
5.22393730198e-12
1.03035371571e-10
8.57081145054e-10
2.77035199529e-12
1.07679213394e-10
8.97359014716e-10
-4.76397180885e-13
1.10695973116e-10
9.22649609822e-10
-3.97220892823e-12
1.11748303626e-10
9.3139803161e-10
-7.12517713666e-12
1.10647025369e-10
9.22417439564e-10
-9.39433374165e-12
1.07580180597e-10
8.9690895242e-10
-1.04183473236e-11
1.02884610407e-10
8.56440924052e-10
-1.00852056587e-11
9.70816066805e-11
8.03263699087e-10
-8.50764222701e-12
9.09078256728e-11
7.4049491065e-10
-5.91359546817e-12
8.54263934979e-11
6.71816634594e-10
8.11668292321e-11
6.0076860418e-10
-2.35750259436e-12
2.402029416e-12
6.8030588064e-11
5.57646637276e-10
-6.6761095296e-14
3.7820917589e-12
7.14957139451e-11
6.26110720581e-10
4.37945980882e-12
7.5653593048e-11
6.91661126782e-10
4.15303884993e-12
8.03732157312e-11
7.51026535611e-10
3.07446746187e-12
8.48262225117e-11
8.0090663298e-10
1.23952069274e-12
8.84417810147e-11
8.3858946615e-10
-1.10140863443e-12
9.07922324651e-11
8.62138131877e-10
-3.58686206113e-12
9.15971845559e-11
8.7022721444e-10
-5.83114476019e-12
9.07104264908e-11
8.61894932182e-10
-7.47616651613e-12
8.82781445993e-11
8.38118219628e-10
-8.27996705987e-12
8.45808227363e-11
8.00237270802e-10
-8.15880657838e-12
8.00477809716e-11
7.50203137546e-10
-7.15618050095e-12
7.52535895479e-11
6.90736167793e-10
-5.33090222088e-12
7.10094465865e-11
6.25108499403e-10
6.74848112774e-11
5.56569562904e-10
-2.52927710177e-12
1.54519697957e-12
5.4983262728e-11
5.07488193065e-10
-6.55413927944e-14
2.17092735776e-12
5.77683365179e-11
5.73413194802e-10
2.25120428213e-12
6.07545013099e-11
6.35690278013e-10
1.85671494607e-12
6.41595926535e-11
6.91378964027e-10
1.01140562909e-12
6.73891675349e-11
7.37692852541e-10
-2.14057922845e-13
7.00225480104e-11
7.72414647487e-10
-1.67766139849e-12
7.17298773673e-11
7.93975115121e-10
-3.18914422549e-12
7.22941423094e-11
8.01318044478e-10
-4.5548123651e-12
7.16132906528e-11
7.93723317033e-10
-5.58816534244e-12
6.97901586564e-11
7.71926524284e-10
-6.15549827488e-12
6.70429739928e-11
7.36999534625e-10
-6.19841454177e-12
6.37034154896e-11
6.9052760749e-10
-5.70759842034e-12
6.0196456856e-11
6.34739448359e-10
-4.6296647903e-12
5.71012132781e-11
5.72392314993e-10
5.42427712912e-11
5.06407000795e-10
-2.67245219518e-12
7.54848606232e-13
4.29605264795e-11
4.53884789924e-10
-6.37278713607e-14
8.13174445875e-13
4.50037996914e-11
5.17567625556e-10
5.21343206166e-13
4.69549530228e-11
5.76542632096e-10
5.97557501831e-15
4.92492499056e-11
6.28329996112e-10
-6.5058574507e-13
5.14386802951e-11
6.70797516863e-10
-1.38374492941e-12
5.32225519463e-11
7.0230997482e-10
-2.13528842826e-12
5.43648513151e-11
7.21716238686e-10
-2.85453973498e-12
5.47156712449e-11
7.28256281787e-10
-3.50832447904e-12
5.42120382624e-11
7.21459218266e-10
-4.04963171701e-12
5.29186614585e-11
7.01811048587e-10
-4.42860395014e-12
5.09870684996e-11
6.70087512276e-10
-4.59230041156e-12
4.86555780397e-11
6.27456972376e-10
-4.47335705627e-12
4.62284887533e-11
5.75570665323e-10
-3.96061942687e-12
4.41402285712e-11
5.16537156776e-10
4.20058553382e-11
4.52817741515e-10
-2.78961178758e-12
2.14187624445e-13
3.99237866866e-10
-6.27568139888e-14
3.23004306061e-11
1.53020482222e-13
4.61186137498e-10
3.32774270113e-11
-3.34940161095e-13
5.16879891015e-10
3.45422630747e-11
-9.67886547361e-13
5.64661196411e-10
3.60357504093e-11
-1.56720543472e-12
6.03157884929e-10
3.74329116119e-11
-2.04828609017e-12
6.31358109849e-10
3.85477222701e-11
-2.40054071336e-12
6.48545206997e-10
3.92358811626e-11
-2.66741007347e-12
6.54263163803e-10
3.9411067642e-11
-2.92255036186e-12
6.48288681616e-10
3.90453123901e-11
-3.21309050492e-12
6.30859279478e-10
3.81687801611e-11
-3.53617199744e-12
6.02445656992e-10
3.68701430985e-11
-3.81874667486e-12
5.63780916637e-10
3.52959119781e-11
-3.89547424637e-12
5.15898268499e-10
3.36350772791e-11
-3.50401972122e-12
4.60145590462e-10
3.22035451253e-11
3.98233067855e-10
-2.87543826215e-12
3.11100621099e-11
5.39602894236e-13
-8.62338077009e-12
1.07431555933e-10
-7.55756484137e-15
7.97650639178e-13
-9.6654738242e-12
1.19596388233e-10
8.93199516523e-13
-1.0798865412e-11
1.31695698082e-10
8.5778990321e-13
-1.18575910774e-11
1.42933068016e-10
7.04445371937e-13
-1.2766870251e-11
1.52547202907e-10
4.57258974339e-13
-1.34617548842e-11
1.59911496781e-10
1.48860205736e-13
-1.39005164812e-11
1.6459276546e-10
-1.8131070651e-13
-1.40538057378e-11
1.66265195574e-10
-4.88538546642e-13
-1.38931922594e-11
1.64576556563e-10
-7.33582000928e-13
-1.34484824451e-11
1.59879596691e-10
-8.84570765501e-13
-1.27498097886e-11
1.52500521406e-10
-9.18103660841e-13
-1.18382244063e-11
1.4287264081e-10
-8.168484195e-13
-1.07744581753e-11
1.31622001244e-10
-5.5378177701e-13
-9.64459671612e-12
1.19506730154e-10
-8.60698030761e-12
1.0731332085e-10
-1.71474203407e-14
1.24621778796e-12
-1.92585958581e-11
2.81694481952e-10
-1.91896216356e-14
1.92739046538e-12
-2.13835697505e-11
3.12962668943e-10
2.1985725422e-12
-2.37001155587e-11
3.44098531517e-10
2.12580742892e-12
-2.58815379235e-11
3.73045748702e-10
1.74999542823e-12
-2.77478908989e-11
3.97830988878e-10
1.13402917194e-12
-2.91692190067e-11
4.16826135761e-10
3.61986626745e-13
-3.00644770233e-11
4.28899817978e-10
-4.65127925085e-13
-3.0376756048e-11
4.33204012545e-10
-1.23384001343e-12
-3.00468034928e-11
4.28851678929e-10
-1.84356516433e-12
-2.91363725309e-11
4.16731494663e-10
-2.21171757625e-12
-2.77042039789e-11
3.97692725322e-10
-2.27586151691e-12
-2.58307568515e-11
3.72867220785e-10
-1.98982869367e-12
-2.3641405237e-11
3.43881606136e-10
-1.29299091714e-12
-2.1328929578e-11
3.12700570519e-10
-1.9214306542e-11
2.81361285255e-10
-5.21157035963e-14
1.6606852304e-12
-2.74577082717e-11
4.17038562762e-10
-2.72820464005e-14
2.63404821533e-12
-3.02611104872e-11
4.63028884694e-10
3.0401279318e-12
-3.33221613032e-11
5.08823747028e-10
2.95256411982e-12
-3.62255175812e-11
5.51420506072e-10
2.43321083016e-12
-3.8708128889e-11
5.8791294107e-10
1.57256786214e-12
-4.05955171647e-11
6.15891656999e-10
4.90648206942e-13
-4.17819828925e-11
6.33671131366e-10
-6.68870705715e-13
-4.21947297095e-11
6.39995380831e-10
-1.7453714649e-12
-4.17558921684e-11
6.3359286064e-10
-2.59574155203e-12
-4.0546656371e-11
6.15737937789e-10
-3.10161478992e-12
-3.86424424546e-11
5.87688789824e-10
-3.17271571051e-12
-3.61488068043e-11
5.51131984967e-10
-2.74330085121e-12
-3.32364694593e-11
5.08475147899e-10
-1.74443283504e-12
-3.01790459193e-11
4.626126729e-10
-2.73899983224e-11
4.16522119354e-10
-8.84449318718e-14
1.87622768708e-12
-3.34365549612e-11
5.19444655612e-10
-3.30988374251e-14
3.03356660622e-12
-3.66239062745e-11
5.76575194858e-10
3.53977140669e-12
-4.00865365666e-11
6.33408711935e-10
3.45504450855e-12
-4.33769117682e-11
6.86274093907e-10
2.85146014192e-12
-4.61856522505e-11
7.31576097824e-10
1.83756625978e-12
-4.83158612512e-11
7.66317013526e-10
5.57787267099e-13
-4.9652127275e-11
7.88385534335e-10
-8.14736213544e-13
-5.01158647982e-11
7.96217880192e-10
-2.08700142645e-12
-4.96202637985e-11
7.88279371592e-10
-3.08652417838e-12
-4.82557937744e-11
7.6610876984e-10
-3.67042646539e-12
-4.61039693821e-11
7.31273117556e-10
-3.73060666932e-12
-4.32810572603e-11
6.85885603299e-10
-3.19268798315e-12
-3.99817891217e-11
6.32942567534e-10
-2.00118119354e-12
-3.65227139697e-11
5.76026153945e-10
-3.33494260388e-11
5.18779720385e-10
-1.26862002961e-13
1.94922024314e-12
-3.73876684341e-11
5.92574965885e-10
-3.7208087914e-14
3.20132949766e-12
-4.07434770708e-11
6.57734608657e-10
3.77090997784e-12
-4.43423759173e-11
7.22446110429e-10
3.69769544433e-12
-4.77498648631e-11
7.82614080507e-10
3.05513379616e-12
-5.0648240256e-11
8.34173562254e-10
1.96130303072e-12
-5.28385763597e-11
8.73714555106e-10
5.75023417655e-13
-5.4208565009e-11
8.98819261897e-10
-9.12755697513e-13
-5.46827994308e-11
9.0770805365e-10
-2.28939022248e-12
-5.41735794575e-11
8.98687506336e-10
-3.36465543521e-12
-5.27724046576e-11
8.73456477627e-10
-3.98127049557e-12
-5.05577757546e-11
8.33799072637e-10
-4.02207443382e-12
-4.76434804203e-11
7.82136083848e-10
-3.4126497029e-12
-4.42271765799e-11
7.21877076885e-10
-2.11831510725e-12
-4.06323978409e-11
6.5707338579e-10
-3.72877713061e-11
5.91791425674e-10
-1.66597478562e-13
1.9267087848e-12
-3.95281150488e-11
6.39871509216e-10
-3.98695057618e-14
3.20194411237e-12