/*--------------------------------*- C++ -*----------------------------------*\
  =========                 |
  \\      /  F ield         | OpenFOAM: The Open Source CFD Toolbox
   \\    /   O peration     | Website:  https://openfoam.org
    \\  /    A nd           | Version:  7
     \\/     M anipulation  |
\*---------------------------------------------------------------------------*/
FoamFile
{
    version     2.0;
    format      ascii;
    class       volVectorField;
    location    "0.38";
    object      U;
}
// * * * * * * * * * * * * * * * * * * * * * * * * * * * * * * * * * * * * * //

dimensions      [0 1 -1 0 0 0 0];

internalField   nonuniform List<vector> 
22500
(
(1.12604543114e-05 1.2958704397e-05 0.000156961064833)
(1.01912839254e-05 1.4792147741e-05 0.000164035131223)
(8.69122538166e-06 1.65005816505e-05 0.00017016260342)
(7.15336207007e-06 1.78660326162e-05 0.000175351049153)
(5.46580912924e-06 1.8943245194e-05 0.000179526769597)
(3.69986744201e-06 1.97148869681e-05 0.000182592395714)
(1.87302623863e-06 2.0179756804e-05 0.000184468457618)
(1.52485817331e-08 2.03356873094e-05 0.000185104100768)
(-1.84303574261e-06 2.01812348354e-05 0.00018446878419)
(-3.67128361498e-06 1.9717643651e-05 0.000182593151209)
(-5.43969176724e-06 1.89467058065e-05 0.000179527937996)
(-7.130733398e-06 1.78696370645e-05 0.000175352569775)
(-8.67367430449e-06 1.65030794421e-05 0.000170165099134)
(-1.01784390205e-05 1.47941478486e-05 0.00016404442169)
(-1.12541055825e-05 1.29599913912e-05 0.000157007396136)
(3.32642024855e-05 3.81139980068e-05 0.000421057491672)
(3.01757536326e-05 4.3329258648e-05 0.000437317312548)
(2.59095983091e-05 4.81938648049e-05 0.000451031917588)
(2.1357365354e-05 5.2152513869e-05 0.000462443249075)
(1.63633787863e-05 5.52951495349e-05 0.000471520219959)
(1.10916380827e-05 5.7559274651e-05 0.000478133752314)
(5.61754287791e-06 5.89284313632e-05 0.000482161325152)
(3.96127443096e-08 5.93875861099e-05 0.000483520395561)
(-5.5394933905e-06 5.89309272361e-05 0.000482162443139)
(-1.10170004533e-05 5.75638413759e-05 0.000478136266109)
(-1.62946085625e-05 5.53005927272e-05 0.000471523943473)
(-2.12970683612e-05 5.21576752978e-05 0.000462447827045)
(-2.58611310729e-05 4.81964353509e-05 0.00045103899798)
(-3.01389783184e-05 4.33309641137e-05 0.000437343517554)
(-3.32444732378e-05 3.81144818543e-05 0.000421171213504)
(5.12697285494e-05 5.85201956093e-05 0.000643686559198)
(4.6369588835e-05 6.61776805877e-05 0.0006656876418)
(3.97974536987e-05 7.32862949043e-05 0.000683789885939)
(3.2739679844e-05 7.90779587591e-05 0.00069861058713)
(2.50537590971e-05 8.3665629497e-05 0.000710271870476)
(1.69637939374e-05 8.69668835205e-05 0.000718709018225)
(8.58503181709e-06 8.89610198352e-05 0.00072382408989)
(5.84005112567e-08 8.96287286723e-05 0.000725544178366)
(-8.46977336484e-06 8.89627667444e-05 0.000723825265887)
(-1.68531043222e-05 8.69698780506e-05 0.000718711811864)
(-2.49508901877e-05 8.3668506177e-05 0.000710275840568)
(-3.2648108717e-05 7.90793285544e-05 0.000698614905712)
(-3.97215771453e-05 7.32840469395e-05 0.000683796243513)
(-4.63097905754e-05 6.61746349685e-05 0.000665718372531)
(-5.12347574836e-05 5.85168320725e-05 0.000643835783097)
(6.58301406243e-05 7.48895982933e-05 0.000831295596437)
(5.93391117371e-05 8.42126635628e-05 0.000856478897455)
(5.08514450713e-05 9.28373566194e-05 0.000876651909062)
(4.17323218405e-05 9.98457912812e-05 0.000892870516937)
(3.18801547603e-05 0.000105380972699 0.000905475669958)
(2.15556101876e-05 0.000109354966207 0.000914523958239)
(1.08988090809e-05 0.000111751471566 0.000919982050777)
(7.24940803703e-08 0.000112552761043 0.000921810866453)
(-1.07556163388e-05 0.000111752374634 0.000919981884177)
(-2.14178121594e-05 0.000109356261019 0.000914524184622)
(-3.17515534381e-05 0.000105381320012 0.000905475510014)
(-4.16168277448e-05 9.98437513833e-05 0.000892868412623)
(-5.07538401167e-05 9.28311586414e-05 0.000876648439573)
(-5.92600051384e-05 8.42058119048e-05 0.000856496968202)
(-6.57802829105e-05 7.48829536318e-05 0.000831439556428)
(7.75159052115e-05 8.7939441982e-05 0.000989214948779)
(6.96444611699e-05 9.83099507361e-05 0.00101567118418)
(5.95681426224e-05 0.000107879287742 0.001036224454)
(4.87650441591e-05 0.000115624730266 0.00105238954923)
(3.71839606357e-05 0.000121721537218 0.00106476512417)
(2.51048857597e-05 0.000126087634999 0.00107356261937)
(1.26813364179e-05 0.000128715858996 0.00107883703978)
(8.27688208639e-08 0.000129593534352 0.00108059698122)
(-1.25177746004e-05 0.000128716184529 0.00107883433623)
(-2.49472954649e-05 0.000126087800259 0.00107355778794)
(-3.70364910553e-05 0.000121720306756 0.00106475689106)
(-4.86317837894e-05 0.00011562073815 0.00105237522309)
(-5.94537318459e-05 0.000107870947195 0.00103620234359)
(-6.9549552468e-05 9.83012378673e-05 0.00101566170835)
(-7.74520761753e-05 8.79311070112e-05 0.000989323778039)
(8.65879341305e-05 9.79901547614e-05 0.0011218291065)
(7.75358418222e-05 0.00010887304434 0.00114813412778)
(6.61673449943e-05 0.00011889404522 0.00116783451938)
(5.40277413897e-05 0.000126966161748 0.00118290023501)
(4.11162219449e-05 0.000133295128264 0.00119420824921)
(2.77172899835e-05 0.000137814937586 0.00120214351027)
(1.39873832256e-05 0.000140530442932 0.00120686260718)
(9.01046861468e-08 0.00014143626262 0.00120842898786)
(-1.38092631388e-05 0.000140530550064 0.00120685653938)
(-2.75455059243e-05 0.000137814710906 0.00120213182227)
(-4.09550957703e-05 0.000133293462821 0.00119418895526)
(-5.3881365953e-05 0.000126961805743 0.00118286904645)
(-6.60398802516e-05 0.000118885585174 0.00116778655029)
(-7.74277871146e-05 0.000108864614492 0.00114808616823)
(-8.65113728614e-05 9.7982244585e-05 0.00112188633926)
(9.32696098252e-05 0.000105301902433 0.0012328520399)
(8.32277845454e-05 0.000116236060596 0.0012579632223)
(7.0842488668e-05 0.000126283574586 0.00127593110205)
(5.76888154749e-05 0.000134332510442 0.00128916295811)
(4.38120776489e-05 0.000140614988271 0.0012988215603)
(2.9487977584e-05 0.000145088558093 0.00130547366745)
(1.48664458333e-05 0.000147770954248 0.00130938332171)
(9.52964302177e-08 0.000148664920597 0.00131067138665)
(-1.46780118101e-05 0.000147771336252 0.00130937341867)
(-2.93060812142e-05 0.00014508891817 0.00130545402094)
(-4.36410867453e-05 0.000140614360637 0.0012987892326)
(-5.75327007276e-05 0.000134329728235 0.00128911164032)
(-7.07048236084e-05 0.00012627736176 0.00127585216032)
(-8.31087429894e-05 0.000116230383908 0.00125787013934)
(-9.31815918968e-05 0.000105296835263 0.00123285031956)
(9.78001058573e-05 0.000110151318595 0.00132551092781)
(8.6951246521e-05 0.000120750068063 0.00134869820391)
(7.38051835607e-05 0.000130466409724 0.00136433826775)
(5.99333300226e-05 0.000138202691471 0.00137525122927)
(4.54206551445e-05 0.000144211846914 0.00138288334078)
(3.05220795275e-05 0.000148478699571 0.00138798342062)
(1.53731589021e-05 0.000151032431004 0.00139092307901)
(9.90382006044e-08 0.000151883021029 0.00139187975608)
(-1.51772753895e-05 0.000151033647828 0.001390909206)
(-3.03328077202e-05 0.000148480770336 0.00138795540105)
(-4.52423191663e-05 0.000144213904574 0.00138283707904)
(-5.97697191751e-05 0.000138203619915 0.00137517810253)
(-7.36592494404e-05 0.000130464961306 0.00136422576313)
(-8.68229113601e-05 0.000120749861612 0.00134855781989)
(-9.77019257927e-05 0.000110151665928 0.00132544985446)
(0.000100414660055 0.000112809838992 0.00140265277508)
(8.89333834598e-05 0.000122753928098 0.00142344507768)
(7.52651651455e-05 0.000131842444047 0.00143639514631)
(6.09459461967e-05 0.000139031832541 0.00144470977365)
(4.60913336498e-05 0.000144589073656 0.00145010819178)
(3.09250401038e-05 0.000148525730563 0.00145351389386)
(1.55623090315e-05 0.000150878527391 0.00145540085329)
(1.01958227246e-07 0.000151662148711 0.00145599939069)
(-1.53605852169e-05 0.000150881158849 0.00145538321748)
(-3.07299041762e-05 0.000148530666 0.00145347782569)
(-4.59070048206e-05 0.000144595501322 0.00145004833253)
(-6.07760210343e-05 0.000139038620224 0.00144461509393)
(-7.51120478766e-05 0.000131848269798 0.00143624952505)
(-8.87969053726e-05 0.000122761830562 0.00142325997896)
(-0.000100307526138 0.000112818172314 0.00140253803131)
(0.000101334476036 0.000113531576589 0.00146679082497)
(8.93877301701e-05 0.000122558329049 0.00148492501369)
(7.54215731368e-05 0.000130774758778 0.00149501390826)
(6.09038083537e-05 0.000137231497375 0.00150062518755)
(4.59681287383e-05 0.000142201624367 0.00150373062323)
(3.07986040503e-05 0.000145717891769 0.00150541122335)
(1.54867127465e-05 0.000147818294906 0.00150623178873)
(1.04623997939e-07 0.000148518382268 0.00150646880222)
(-1.52796257924e-05 0.000147822858009 0.00150621101496)
(-3.05979932962e-05 0.000145726713441 0.00150536837359)
(-4.57780875839e-05 0.000142213923033 0.00150365914829)
(-6.07277604467e-05 0.000137246060311 0.00150051181383)
(-7.52615274713e-05 0.000130790086587 0.00149483949775)
(-8.92436423219e-05 0.000122576707574 0.00148470327351)
(-0.000101219271831 0.000113550253268 0.00146663440729)
(0.000100764759673 0.000112552489394 0.0015200930278)
(8.85130517634e-05 0.000120442382955 0.00153545536452)
(7.44630414094e-05 0.000127586019024 0.00154266742544)
(5.99768894709e-05 0.000133167376502 0.00154562795796)
(4.51895427721e-05 0.000137454409642 0.0015465225075)
(3.0240274263e-05 0.000140489548169 0.00154655666857)
(1.51967943945e-05 0.000142304024354 0.00154636541765)
(1.07536147662e-07 0.000142909966106 0.00154626076041)
(-1.49838211631e-05 0.000142310892888 0.00154634274278)
(-3.00335859346e-05 0.000140503008628 0.00154650968814)
(-4.49931006192e-05 0.000137473698343 0.0015464438227)
(-5.97940210157e-05 0.00013319117898 0.00154550251048)
(-7.42955663643e-05 0.000127612565588 0.00154247381706)
(-8.83612911459e-05 0.000120473107069 0.00153521183882)
(-0.000100641880952 0.000112583353796 0.00151991464813)
(9.8892295128e-05 0.000110088415415 0.00156429923572)
(8.64950726668e-05 0.000116649520284 0.00157685310928)
(7.25718198011e-05 0.000122557765992 0.00158130639476)
(5.83305227443e-05 0.000127162668353 0.00158183373356)
(4.38887626927e-05 0.000130706730919 0.0015807573698)
(2.93423844353e-05 0.000133224904125 0.00157934837714)
(1.47397926539e-05 0.000134734050844 0.00157827813667)
(1.11107860446e-07 0.000135239658889 0.00157787840453)
(-1.45195785538e-05 0.000134743386265 0.00157825570934)
(-2.91281843404e-05 0.000133243315942 0.00157930197092)
(-4.36844236534e-05 0.000130733522435 0.00158067947784)
(-5.81393778986e-05 0.000127196447675 0.00158170835801)
(-7.23957619689e-05 0.000122596483931 0.00158111051926)
(-8.63350483708e-05 0.000116693698111 0.00157661108725)
(-9.87615505315e-05 0.000110132741811 0.00156412835698)
(9.58824929069e-05 0.00010631488924 0.00160053166291)
(8.35199450784e-05 0.000111378674637 0.00161024027019)
(6.99358572004e-05 0.00011594076239 0.00161220469196)
(5.61287353688e-05 0.000119514408204 0.00161073185728)
(4.21914358717e-05 0.000122287937422 0.00160813152716)
(2.81887452784e-05 0.000124270855657 0.00160564413827)
(1.41576130425e-05 0.000125463308725 0.00160392830195)
(1.15643715858e-07 0.00012586469604 0.00160331436718)
(-1.39282194733e-05 0.000125474958155 0.00160390948672)
(-2.79650225894e-05 0.000124293949774 0.00160560575718)
(-4.19771173987e-05 0.000122321896592 0.00160806733185)
(-5.5927301073e-05 0.000119557894773 0.00161062647806)
(-6.97495634155e-05 0.00011599152361 0.00161203378827)
(-8.33506254464e-05 0.000111436365588 0.00161003303651)
(-9.57433610289e-05 0.000106372753484 0.0016004062255)
(9.19369272002e-05 0.000101357058455 0.00162893470628)
(7.9833618264e-05 0.000104859714401 0.00163574842611)
(6.67658745077e-05 0.000108008549662 0.00163576498497)
(5.35245450034e-05 0.000110543382927 0.00163305331281)
(4.02016538546e-05 0.000112533532656 0.00162966419325)
(2.68437869603e-05 0.000113963620785 0.00162667778394)
(1.34813358399e-05 0.000114825518499 0.00162468067373)
(1.21269605581e-07 0.000115117363484 0.00162397760567)
(-1.32405487309e-05 0.000114838972457 0.00162467005668)
(-2.66082744102e-05 0.000113990405183 0.0016266576714)
(-3.99750327505e-05 0.000112573230724 0.00162963187139)
(-5.33105491992e-05 0.000110594923223 0.0016329973747)
(-6.65674402953e-05 0.000108069856422 0.00163566100021)
(-7.96537458209e-05 0.000104929632531 0.00163562258479)
(-9.17882757485e-05 0.000101427466066 0.00162889696707)
(8.73695367326e-05 9.59086936956e-05 0.00164800820667)
(7.57447485066e-05 9.7150320725e-05 0.00165225124413)
(6.31795135704e-05 9.89907564712e-05 0.00165142289645)
(5.05806275605e-05 0.000100489449482 0.00164871127087)
(3.79519149152e-05 0.000101667919007 0.00164563258971)
(2.53258493713e-05 0.000102510937096 0.00164298172775)
(1.27196841733e-05 0.000103018051809 0.00164121978407)
(1.27921881763e-07 0.000103191468713 0.00164060301095)
(-1.2465462995e-05 0.000103032215255 0.00164122153187)
(-2.5076511652e-05 0.000102539232748 0.00164298929614)
(-3.77108998961e-05 0.000101710141722 0.00164564945825)
(-5.03518242185e-05 0.000100545024804 0.0016487358757)
(-6.29668081813e-05 9.90581323046e-05 0.00165143516014)
(-7.55535582182e-05 9.72288846475e-05 0.00165229117626)
(-8.72091113863e-05 9.59883396782e-05 0.00164805605948)
(1.79541123257e-07 4.27889372235e-07 9.19246964339e-05)
(-1.85931033502e-08 6.08302280165e-07 9.54624953794e-05)
(-1.38299069366e-07 6.91290170572e-07 9.80817849004e-05)
(-2.07113195617e-07 7.20174600147e-07 0.000100063564872)
(-2.18726591695e-07 7.13642338166e-07 0.000101545576864)
(-1.78758147361e-07 6.92489865451e-07 0.000102585021471)
(-9.99280427096e-08 6.72920362331e-07 0.000103205597455)
(1.21198211805e-10 6.65297372001e-07 0.000103415047017)
(1.00692942588e-07 6.73127316833e-07 0.000103205439799)
(1.81113423185e-07 6.93017188507e-07 0.000102584832693)
(2.23401680015e-07 7.14554225636e-07 0.000101545581065)
(2.1351761394e-07 7.21346066813e-07 0.00010006432917)
(1.45035084767e-07 6.92922687221e-07 9.80852340354e-05)
(2.46955297976e-08 6.09986933618e-07 9.54769050657e-05)
(-1.76280436857e-07 4.29971733772e-07 9.19800138608e-05)
(2.32587568514e-06 3.1251244156e-06 0.000278687063588)
(1.71569241395e-06 3.94103291817e-06 0.000289453530113)
(1.21543454471e-06 4.52595530712e-06 0.000297448042042)
(7.97917308406e-07 4.93552101213e-06 0.000303478264566)
(4.79422979824e-07 5.19885595713e-06 0.000307968136514)
(2.57489588601e-07 5.35478378945e-06 0.000311107086567)
(1.10058823594e-07 5.43495142007e-06 0.000312975605094)
(3.83861708643e-09 5.45968211417e-06 0.000313601702867)
(-1.01215633366e-07 5.43562673272e-06 0.000312974896248)
(-2.451848922e-07 5.35625249713e-06 0.000311106012689)
(-4.62176488047e-07 5.20111809358e-06 0.000307967374578)
(-7.76832749859e-07 4.93831826342e-06 0.00030347948526)
(-1.19399338585e-06 4.52969932987e-06 0.000297456905091)
(-1.69660026689e-06 3.94536520712e-06 0.000289494202838)
(-2.31507792593e-06 3.13073018517e-06 0.000278831174646)
(5.88573104237e-06 7.26774940491e-06 0.000467634308252)
(4.83058299987e-06 8.89236705664e-06 0.000485743371013)
(3.8392950625e-06 1.01784423663e-05 0.000499205565173)
(2.90138721784e-06 1.11617913705e-05 0.000509336453552)
(2.05254715992e-06 1.18664337393e-05 0.000516850460431)
(1.30326540657e-06 1.23334491345e-05 0.000522086195997)
(6.34174042933e-07 1.25986010345e-05 0.000525193921451)
(1.03854931229e-08 1.26849250835e-05 0.000526230445795)
(-6.119732879e-07 1.25997556389e-05 0.000525191886995)
(-1.27687824778e-06 1.23357394786e-05 0.000522082567098)
(-2.02027388076e-06 1.18695986413e-05 0.000516846179082)
(-2.8645005427e-06 1.11653446624e-05 0.000509333947446)
(-3.80240428104e-06 1.01827875229e-05 0.000499213130445)
(-4.79801185607e-06 8.89818719147e-06 0.000485796335411)
(-5.86627614445e-06 7.27607941328e-06 0.000467835901261)
(1.03922084192e-05 1.2344953629e-05 0.000655773652628)
(8.86040410997e-06 1.48438986663e-05 0.000680879239108)
(7.30505497995e-06 1.69020229317e-05 0.000699479603515)
(5.73105265583e-06 1.85336250982e-05 0.000713391551141)
(4.20257646267e-06 1.97484894222e-05 0.000723637230428)
(2.74992583807e-06 2.05816508784e-05 0.000730734258988)
(1.36456026241e-06 2.10672035795e-05 0.000734927802214)
(1.88147043796e-08 2.12272729414e-05 0.000736320176161)
(-1.32552339949e-06 2.10687820756e-05 0.000734922949151)
(-2.70683001749e-06 2.05846964011e-05 0.000730724897962)
(-4.15391478636e-06 1.97526025865e-05 0.000723624267758)
(-5.67823313373e-06 1.85382756206e-05 0.000713377604894)
(-7.25309059716e-06 1.69074658857e-05 0.000699474116167)
(-8.81467680524e-06 1.48517967857e-05 0.00068092357246)
(-1.03632943068e-05 1.23565412534e-05 0.000655990538658)
(1.53729377038e-05 1.78376699384e-05 0.000840011043773)
(1.33472824204e-05 2.11817190375e-05 0.000871336835052)
(1.11965508932e-05 2.39771407431e-05 0.000894348119026)
(8.92991629299e-06 2.62332638488e-05 0.00091137492215)
(6.64673915739e-06 2.79429747302e-05 0.000923776776514)
(4.40119974277e-06 2.91331590913e-05 0.000932289426044)
(2.20031697273e-06 2.98343863835e-05 0.000937286253513)
(2.83173367732e-08 3.00667238173e-05 0.000938936865842)
(-2.14248329798e-06 2.98364096066e-05 0.000937277060308)
(-4.33997298705e-06 2.91370539386e-05 0.000932271072447)
(-6.58104691673e-06 2.79483146348e-05 0.000923749740098)
(-8.86133606416e-06 2.62395393023e-05 0.000911341273777)
(-1.11300894648e-05 2.39844496191e-05 0.000894316834213)
(-1.32886473373e-05 2.11922065513e-05 0.000871351865802)
(-1.53338994159e-05 1.78529049698e-05 0.000840207281332)
(2.04795111727e-05 2.33728153584e-05 0.00101743217798)
(1.7957102309e-05 2.74669712204e-05 0.00105386124787)
(1.52105784185e-05 3.08959233435e-05 0.00108025139629)
(1.22395444357e-05 3.3688795934e-05 0.00109947065189)
(9.18167534644e-06 3.58234446374e-05 0.0011132511752)
(6.11673583498e-06 3.73202731702e-05 0.00112258811333)
(3.06951974263e-06 3.82068151236e-05 0.00112801804106)
(3.82229974588e-08 3.85012852392e-05 0.00112980040091)
(-2.9921888918e-06 3.82093721112e-05 0.00112800321694)
(-6.03696612488e-06 3.73252184849e-05 0.00112255800678)
(-9.09893857752e-06 3.5830366231e-05 0.001113205434)
(-1.21555696456e-05 3.36971971497e-05 0.00109941002028)
(-1.51301830053e-05 3.09057669765e-05 0.00108018296596)
(-1.78857662938e-05 2.74805906878e-05 0.00105382975536)
(-2.04297676581e-05 2.33918977611e-05 0.00101758230499)
(2.54311655616e-05 2.86574918122e-05 0.00118559974355)
(2.2423093225e-05 3.33579003808e-05 0.00122580215393)
(1.91055433885e-05 3.72699524327e-05 0.00125436397942)
(1.54551675344e-05 4.04690510529e-05 0.00127471906584)
(1.16473371276e-05 4.29229965198e-05 0.00128900490552)
(7.78672468362e-06 4.46493275227e-05 0.00129851161866)
(3.91612720138e-06 4.56743203812e-05 0.00130396897154)
(4.80409616277e-08 4.60152331886e-05 0.00130574545058)
(-3.81951151879e-06 4.56775226553e-05 0.00130394764423)
(-7.68871248227e-06 4.46555668168e-05 0.00129846794987)
(-1.15479575216e-05 4.29318809122e-05 0.00128893738282)
(-1.53562851451e-05 4.04800877675e-05 0.00127462639194)
(-1.90116598624e-05 3.72829141646e-05 0.0012542503277)
(-2.23393097583e-05 3.33752348317e-05 0.00122571259072)
(-2.53702154762e-05 2.86805508989e-05 0.00118568793873)
(3.00003097867e-05 3.34586496358e-05 0.00134269183948)
(2.65315851207e-05 3.85871684819e-05 0.00138525440978)
(2.26888771075e-05 4.28036992105e-05 0.001414735827)
(1.84149990249e-05 4.62535423439e-05 0.00143515726915)
(1.39183983966e-05 4.89009960638e-05 0.00144908409922)
(9.32586188644e-06 5.07650041654e-05 0.00145812365891)
(4.69687106749e-06 5.18726860857e-05 0.0014632179508)
(5.74761720619e-08 5.22413888693e-05 0.00146485697019)
(-4.58172448267e-06 5.18766493198e-05 0.00146318983039)
(-9.21032406012e-06 5.07727849944e-05 0.00145806602435)
(-1.3803012802e-05 4.89122183101e-05 0.00144899409586)
(-1.83017598227e-05 4.62677014533e-05 0.00143503096112)
(-2.25818925379e-05 4.28203604284e-05 0.00141457385873)
(-2.64355770418e-05 3.86087385237e-05 0.00138510282859)
(-2.99279645377e-05 3.34860170395e-05 0.00134271217195)
(3.40111546408e-05 3.76001142631e-05 0.00148750933162)
(3.01197419845e-05 4.29576431117e-05 0.00153104641898)
(2.58151626774e-05 4.72881990698e-05 0.00156026060817)
(2.09982872855e-05 5.08238114606e-05 0.00157977323495)
(1.59023614462e-05 5.35323648307e-05 0.00159257868446)
(1.06718040603e-05 5.54379665873e-05 0.0016006026034)
(5.38035410297e-06 5.65702136341e-05 0.00160500275398)
(6.63705249077e-08 5.69472972936e-05 0.00160639366546)
(-5.2477142416e-06 5.65750325431e-05 0.00160496823406)
(-1.05396532742e-05 5.54474830327e-05 0.00160053243153)
(-1.57716843903e-05 5.35462331718e-05 0.00159246876664)
(-2.08712004848e-05 5.08414974924e-05 0.0015796170747)
(-2.56954210455e-05 4.73090800788e-05 0.001560054838)
(-3.00117041981e-05 4.29839151114e-05 0.00153083853406)
(-3.39274193726e-05 3.763217183e-05 0.00148746757866)
(3.7336963444e-05 4.09585369847e-05 0.0016193924335)
(3.30722793436e-05 4.63370914027e-05 0.00166261771103)
(2.83829006697e-05 5.05929041443e-05 0.00169052445026)
(2.31218678425e-05 5.40524097113e-05 0.00170833109851)
(1.75364052345e-05 5.66938727681e-05 0.00171943204085)
(1.17827127435e-05 5.8548962572e-05 0.00172604231408)
(5.94569065574e-06 5.96504214654e-05 0.00172951630075)
(7.46751298275e-08 6.00174445078e-05 0.00173058388003)
(-5.79669134861e-06 5.96561362667e-05 0.00172947837591)
(-1.16349291469e-05 5.85602957536e-05 0.00172596525395)
(-1.7391180827e-05 5.67105217761e-05 0.00171931053824)
(-2.29814306772e-05 5.40738215977e-05 0.00170815591451)
(-2.8250721036e-05 5.06183051352e-05 0.00169028814026)
(-3.29524732798e-05 4.63683923864e-05 0.00166237047397)
(-3.72419400684e-05 4.09955770961e-05 0.00161930703041)
(3.98955158776e-05 4.34580877519e-05 0.00173805138372)
(3.53168148405e-05 4.8651149899e-05 0.00177980828707)
(3.03297149754e-05 5.2655352784e-05 0.00180557416327)
(2.4735393733e-05 5.58896182929e-05 0.00182112755053)
(1.87829879646e-05 5.83480282358e-05 0.00183018672104)
(1.26337990604e-05 6.00703747171e-05 0.00183518789455)
(6.38056751983e-06 6.10919806505e-05 0.00183763604133)
(8.23596085828e-08 6.14326270992e-05 0.00183835139307)
(-6.21639488481e-06 6.10985129072e-05 0.0018375992447)
(-1.24714009526e-05 6.00833870802e-05 0.00183511305033)
(-1.86239783679e-05 5.8367288264e-05 0.00183006758884)
(-2.45821130851e-05 5.59146085573e-05 0.00182095226093)
(-3.01854492232e-05 5.2685212365e-05 0.00180533115074)
(-3.51855702085e-05 4.8687523481e-05 0.00177955161703)
(-3.97894482909e-05 4.35001732817e-05 0.00173795558397)
(4.1642360863e-05 4.50626605399e-05 0.00184330722052)
(3.68171518327e-05 4.98737403562e-05 0.00188256392921)
(3.16261905485e-05 5.34690719494e-05 0.00190561796886)
(2.58155319167e-05 5.6349138158e-05 0.00191869324297)
(1.96246724784e-05 5.85265220171e-05 0.00192568473801)
(1.32133598901e-05 6.00476863427e-05 0.00192913304947)
(6.67906961331e-06 6.09488709021e-05 0.00193061784399)
(8.93835127282e-08 6.12496203217e-05 0.00193100845097)
(-6.50099256009e-06 6.09560234296e-05 0.00193058855058)
(-1.30374669476e-05 6.00619830902e-05 0.00192907354969)
(-1.94527745181e-05 5.85478577562e-05 0.00192558861788)
(-2.56500644388e-05 5.63770868658e-05 0.00191854656604)
(-3.14703410155e-05 5.35028095288e-05 0.00190540466341)
(-3.66749625678e-05 4.9914687612e-05 0.00188234193333)
(-4.15255770354e-05 4.51094328793e-05 0.00184325070942)
(4.25613266075e-05 4.57601942604e-05 0.001934711989)
(3.75675720617e-05 5.00139392945e-05 0.00197056727813)
(3.22718655467e-05 5.30730334573e-05 0.001990695785)
(2.6361599347e-05 5.54959101459e-05 0.00200148280457)
(2.00596705536e-05 5.73163962553e-05 0.00200676128999)
(1.35192174544e-05 5.85839608603e-05 0.0020090105584)
(6.83970031358e-06 5.9333642878e-05 0.00200978246124)
(9.56726450823e-08 5.95840873849e-05 0.00200994045355)
(-6.64916586625e-06 5.93410882113e-05 0.00200976887269)
(-1.33311677992e-05 5.85989131942e-05 0.00200898360687)
(-1.98760501004e-05 5.73388861995e-05 0.00200671594846)
(-2.61849270904e-05 5.55257208017e-05 0.002001404582)
(-3.21052816671e-05 5.31094892943e-05 0.00199056319577)
(-3.7415253196e-05 5.00583983085e-05 0.00197043811253)
(-4.24345236805e-05 4.58106531738e-05 0.00193475642681)
(4.268231279e-05 4.55656290914e-05 0.00201099106855)
(3.76078356689e-05 4.91741325198e-05 0.00204286712517)
(3.23025485504e-05 5.1580153448e-05 0.00206040793784)
(2.63944848625e-05 5.34625899607e-05 0.00206962213384)
(2.00986863916e-05 5.48650976147e-05 0.00207398226345)
(1.35557038647e-05 5.58362976965e-05 0.00207571297583)
(6.86368313517e-06 5.64087374552e-05 0.00207622305609)
(1.01103961374e-07 5.6600123533e-05 0.0020763084549)
(-6.66237805076e-06 5.64160656859e-05 0.00207623446695)
(-1.33571477539e-05 5.58510755808e-05 0.00207573837389)
(-1.9904907745e-05 5.48875080941e-05 0.00207402075559)
(-2.62080529009e-05 5.3492690705e-05 0.00206966267345)
(-3.21265556422e-05 5.16176661535e-05 0.00206042432075)
(-3.7446582495e-05 4.92204764686e-05 0.00204290428594)
(-4.25462006236e-05 4.56185382183e-05 0.00201120039107)
(4.20327598995e-05 4.51039816428e-05 0.00206929932242)
(3.69947862116e-05 4.76066008716e-05 0.00209789403373)
(3.17349492707e-05 4.92042560293e-05 0.00211389901277)
(2.59171945355e-05 5.043724781e-05 0.00212282891117)
(1.97393011495e-05 5.13355804174e-05 0.00212749922959)
(1.33187441361e-05 5.19482156214e-05 0.00212969384108)
(6.74812837981e-06 5.23055699916e-05 0.00213057190617)
(1.05548490666e-07 5.24249990054e-05 0.0021308033108)
(-6.53804133267e-06 5.23121697256e-05 0.00213061560466)
(-1.31116645056e-05 5.1961588291e-05 0.00212978725468)
(-1.95373329697e-05 5.13560486889e-05 0.0021276488089)
(-2.57228674141e-05 5.04651779458e-05 0.00212303465738)
(-3.15512181684e-05 4.92398141849e-05 0.00211413590523)
(-3.68266781629e-05 4.76519495782e-05 0.00209821534738)
(-4.18875944916e-05 4.5155946235e-05 0.00206967230336)
(-5.00262036438e-08 -5.97174861878e-08 5.73539039724e-05)
(-5.62275469415e-08 -7.11074148614e-08 5.91816639455e-05)
(-6.65192255763e-08 -8.25848651321e-08 6.01661296094e-05)
(-6.77298061398e-08 -9.90559927601e-08 6.06589390328e-05)
(-6.08329812652e-08 -1.15683963359e-07 6.08736851596e-05)
(-4.41155421135e-08 -1.30640303833e-07 6.09462759777e-05)
(-2.09450398701e-08 -1.40863174343e-07 6.09611685394e-05)
(5.28154009831e-09 -1.44306296586e-07 6.09641077373e-05)
(3.12211609253e-08 -1.40262402958e-07 6.09628130855e-05)
(5.35817248251e-08 -1.2939695142e-07 6.09495150691e-05)
(6.93430205548e-08 -1.1364832269e-07 6.08786020296e-05)
(7.61902923128e-08 -9.59245807048e-08 6.06662441575e-05)
(7.47994721041e-08 -7.91040985789e-08 6.01782387603e-05)
(6.34956564653e-08 -6.6971127428e-08 5.9206272517e-05)
(5.5491971155e-08 -5.59595164906e-08 5.74154645853e-05)
(2.3521355601e-07 2.61767880084e-07 0.000187092874642)
(1.97167946612e-07 3.18635988711e-07 0.000193925243217)
(1.33621008822e-07 3.65495335379e-07 0.000198147737562)
(7.9706768398e-08 3.91503680124e-07 0.000200708727136)
(3.97583593951e-08 4.04384091642e-07 0.000202217643158)
(1.93933423849e-08 4.0724962916e-07 0.000203064608746)
(1.34579478131e-08 4.06346789276e-07 0.000203490408143)
(1.47559481748e-08 4.06059984366e-07 0.000203624437913)
(1.54620600085e-08 4.07914708259e-07 0.000203494577726)
(7.87137540984e-09 4.10545031136e-07 0.00020307284884)
(-1.44532310154e-08 4.09776282661e-07 0.000202230352047)
(-5.49983445889e-08 3.99539596218e-07 0.000200728205769)
(-1.09626534788e-07 3.74770084626e-07 0.000198181308721)
(-1.75901489591e-07 3.29716926804e-07 0.000193995696523)
(-2.1926949273e-07 2.72317890787e-07 0.000187259186953)
(9.40889523704e-07 1.05908600011e-06 0.000329773591651)
(8.5168317736e-07 1.27574975726e-06 0.000342760874775)
(6.99235526901e-07 1.46573740042e-06 0.000351302111641)
(5.40242848192e-07 1.61217386385e-06 0.000356864270721)
(3.87357765438e-07 1.71983386983e-06 0.00036041499496)
(2.52784763668e-07 1.79018252779e-06 0.000362580223473)
(1.33883446701e-07 1.82949845295e-06 0.000363745971287)
(2.33715440111e-08 1.84272979828e-06 0.000364119501292)
(-8.78446881745e-08 1.83164428392e-06 0.000363751295913)
(-2.08709505724e-07 1.79478041939e-06 0.000362590804734)
(-3.45692584092e-07 1.72752178024e-06 0.000360431659591)
(-4.99817833469e-07 1.62361704058e-06 0.000356890833366)
(-6.60379588219e-07 1.47948269606e-06 0.000351349924005)
(-8.16858698786e-07 1.2921367604e-06 0.000342864357102)
(-9.14623682898e-07 1.07569811845e-06 0.000330018527661)
(2.10194602762e-06 2.3660256687e-06 0.000482980820083)
(1.94219102457e-06 2.83375357245e-06 0.00050292109448)
(1.66406249719e-06 3.25516549848e-06 0.000516534644635)
(1.3449956192e-06 3.60179728209e-06 0.00052574753768)
(1.00797982437e-06 3.87130596517e-06 0.000531856044314)
(6.75051279001e-07 4.06008979796e-06 0.000535710926058)
(3.5045519255e-07 4.17152986793e-06 0.000537839215416)
(3.12225463952e-08 4.20915655829e-06 0.000538525027047)
(-2.88721954042e-07 4.17428299971e-06 0.000537843679326)
(-6.15306962913e-07 4.06597246054e-06 0.000535719916527)
(-9.50817836868e-07 3.88105086255e-06 0.000531870882321)
(-1.28974324836e-06 3.61609583649e-06 0.000525773273891)
(-1.61146940564e-06 3.27285220428e-06 0.000516585373805)
(-1.89479545821e-06 2.85504366599e-06 0.00050303901636)
(-2.06568254016e-06 2.38861501644e-06 0.000483269686989)
(3.65704851539e-06 4.10510950939e-06 0.000644138234402)
(3.40895708737e-06 4.88827485367e-06 0.000671442124731)
(2.97381985991e-06 5.60395992548e-06 0.000690511011916)
(2.44775819583e-06 6.20670207664e-06 0.00070369747357)
(1.86550721399e-06 6.6847973438e-06 0.000712610901761)
(1.26167563884e-06 7.02729069596e-06 0.00071832623307)
(6.50977855562e-07 7.23285146701e-06 0.000721515822202)
(3.86447263722e-08 7.30236405739e-06 0.000722545112006)
(-5.74376599616e-07 7.23625312601e-06 0.000721517397879)
(-1.18701888178e-06 7.03447494592e-06 0.000718329692042)
(-1.79354751481e-06 6.69647711211e-06 0.00071261799755)
(-2.37838232852e-06 6.22356759908e-06 0.000703714012149)
(-2.90826460369e-06 5.62520448097e-06 0.000690552399859)
(-3.34985330625e-06 4.91426230406e-06 0.000671555735622)
(-3.61099950815e-06 4.13328060476e-06 0.000644440882816)
(5.53133106765e-06 6.18430652509e-06 0.000810508201479)
(5.17931714685e-06 7.31770069279e-06 0.000845170126707)