/*--------------------------------*- C++ -*----------------------------------*\
  =========                 |
  \\      /  F ield         | OpenFOAM: The Open Source CFD Toolbox
   \\    /   O peration     | Website:  https://openfoam.org
    \\  /    A nd           | Version:  7
     \\/     M anipulation  |
\*---------------------------------------------------------------------------*/
FoamFile
{
    version     2.0;
    format      ascii;
    class       surfaceScalarField;
    location    "1.5";
    object      phi;
}
// * * * * * * * * * * * * * * * * * * * * * * * * * * * * * * * * * * * * * //

dimensions      [0 3 -1 0 0 0 0];

internalField   nonuniform List<scalar> 
65775
(
-4.52138426492e-11
-8.59478766082e-09
1.78468897378e-11
-1.8885536004e-12
-8.20961374261e-11
-9.0559938308e-09
2.07918136691e-11
-9.61191400321e-11
-9.48110155366e-09
2.07319526264e-11
-9.14539441294e-11
-9.84306790312e-09
1.84717569183e-11
-7.32344312197e-11
-1.01320479663e-08
1.5280460245e-11
-4.51673187674e-11
-1.0343278053e-08
1.22416774235e-11
-1.1070404263e-11
-1.04755363356e-08
1.01379217211e-11
2.50986866045e-11
-1.0524566216e-08
9.4526666916e-12
5.90352803202e-11
-1.04745839099e-08
1.0397613927e-11
8.68085240638e-11
-1.03414027042e-08
1.27554592672e-11
1.04682578923e-10
-1.01293294369e-08
1.60354587824e-11
1.08878393729e-10
-9.83988221832e-09
1.94488444874e-11
9.43133671362e-11
-9.47772207257e-09
2.19070342868e-11
5.65049160346e-11
-9.05309379817e-09
2.21332164899e-11
-8.59290794574e-09
1.92956572913e-11
7.80433998924e-12
-1.43668295681e-10
-1.60288057621e-08
-6.35041465499e-10
-4.90016473242e-12
-2.53952908587e-10
-1.68728865317e-08
-7.37233052869e-10
-3.00644541308e-10
-1.76515161492e-08
-8.47219166316e-10
-2.9195343072e-10
-1.83031723531e-08
-9.55525000482e-10
-2.37840819463e-10
-1.88166073565e-08
-1.0520055022e-09
-1.49519403655e-10
-1.91881047155e-08
-1.12786010315e-09
-3.97285166976e-11
-1.94194556636e-08
-1.17659204983e-09
7.72737940073e-11
-1.95050758901e-08
-1.193698192e-09
1.86713905096e-10
-1.9417378816e-08
-1.17589147979e-09
2.7439034214e-10
-1.91840373915e-08
-1.12646139848e-09
3.27663605854e-10
-1.88107510817e-08
-1.0499385185e-09
3.35236359295e-10
-1.82961490028e-08
-9.52835215352e-10
2.87040766093e-10
-1.76440587611e-08
-8.43964400655e-10
1.74173189673e-10
-1.68660948495e-08
-7.33496484085e-10
-1.6023864335e-08
-6.30982861743e-10
2.15499545175e-11
-2.44728863699e-10
-2.18793097245e-08
-1.70755580067e-09
-6.62004282912e-12
-4.18475693358e-10
-2.29817863046e-08
-1.97152436119e-09
-4.97549443918e-10
-2.39815605932e-08
-2.24227619451e-09
-4.87929401312e-10
-2.48045700532e-08
-2.49941194425e-09
-4.01561861173e-10
-2.54442464101e-08
-2.72283169864e-09
-2.55857868271e-10
-2.59022081246e-08
-2.89562710265e-09
-7.25467589481e-11
-2.61860063462e-08
-3.00564976819e-09
1.23409205639e-10
-2.62912859302e-08
-3.04434807429e-09
3.06392515344e-10
-2.61832991111e-08
-3.00470079952e-09
4.51484688664e-10
-2.5896939432e-08
-2.89372372995e-09
5.37012685575e-10
-2.54366974091e-08
-2.72000111977e-09
5.45446604043e-10
-2.47954405136e-08
-2.4956968688e-09
4.64564263983e-10
-2.39718208606e-08
-2.23773856258e-09
2.87516117076e-10
-2.29725578548e-08
-1.96625373171e-09
-2.1872111569e-08
-1.70174535278e-09
3.08345944695e-11
-3.39164261743e-10
-2.60249181689e-08
-2.9093664653e-09
-7.17190678298e-12
-5.68609256554e-10
-2.7261086862e-08
-3.33518082209e-09
-6.77214171094e-10
-2.83522725911e-08
-3.75917197219e-09
-6.67631914107e-10
-2.92367599036e-08
-4.1528031133e-09
-5.53020848204e-10
-2.99155103052e-08
-4.48914258431e-09
-3.55902246024e-10
-3.03968180205e-08
-4.74624369188e-09
-1.06236266908e-10
-3.06939389037e-08
-4.90883875303e-09
1.61145329573e-10
-3.08046852934e-08
-4.96603033847e-09
4.10612613156e-10
-3.06910165693e-08
-4.90782380433e-09
6.0735077707e-10
-3.03911565881e-08
-4.74420054087e-09
7.21401881377e-10
-2.99074427741e-08
-4.48608266319e-09
7.30085499149e-10
-2.92269719834e-08
-4.14874583563e-09
6.19881736994e-10
-2.8341742548e-08
-3.75415345623e-09
3.87236388819e-10
-2.72508139981e-08
-3.32926368636e-09
-2.60162641513e-08
-2.90272994817e-09
3.53774449214e-11
-4.21790429988e-10
-2.85649751434e-08
-4.02435101576e-09
-6.93202991986e-12
-7.01615930464e-10
-2.98350817912e-08
-4.57992609083e-09
-8.36296319095e-10
-3.09227928104e-08
-5.12048417837e-09
-8.2671162779e-10
-3.17921981692e-08
-5.61390219869e-09
-6.8740638718e-10
-3.24521040477e-08
-6.0303067175e-09
-4.45438564851e-10
-3.29164114921e-08
-6.34587379346e-09
-1.37982396451e-10
-3.32022954711e-08
-6.54444579216e-09
1.91571104948e-10
-3.3309459301e-08
-6.6142730709e-09
4.98938258838e-10
-3.31994202782e-08
-6.54346323551e-09
7.40721342999e-10
-3.29108691115e-08
-6.34389096376e-09
8.79716723034e-10
-3.24442455749e-08
-6.02732307294e-09
8.88693005747e-10
-3.1782667185e-08
-5.609917174e-09
7.52737378069e-10
-3.09124589124e-08
-5.11550736656e-09
4.70158573198e-10
-2.98248279422e-08
-4.5739861754e-09
-2.8555729354e-08
-4.0175881277e-09
3.6337345764e-11
-4.91373791393e-10
-2.97236243386e-08
-4.92865601779e-09
-6.29725133156e-12
-8.17395547841e-10
-3.09575254408e-08
-5.57519235946e-09
-9.74973029817e-10
-3.19847349756e-08
-6.19338388896e-09
-9.65133326739e-10
-3.27953207858e-08
-6.75091673308e-09
-8.04188761251e-10
-3.34050626719e-08
-7.21746897237e-09
-5.23410274917e-10
-3.38315025791e-08
-7.56902839615e-09
-1.66214532908e-10
-3.40936255183e-08
-7.78951205367e-09
2.16744400924e-10
-3.4192407931e-08
-7.86699946274e-09
5.73885247041e-10
-3.4090942597e-08
-7.78858457607e-09
8.54535669247e-10
-3.38263520157e-08
-7.56715674803e-09
1.01523606453e-09
-3.33978008976e-08
-7.21465134754e-09
1.02456074097e-09
-3.27865372158e-08
-6.74714765042e-09
8.65858923728e-10
-3.19751844671e-08
-6.18866230318e-09
5.37468304551e-10
-3.09479077318e-08
-5.56952599358e-09
-2.97143847907e-08
-4.92214827426e-09
3.53061267878e-11
-5.49564477479e-10
-2.97618868221e-08
-5.58345801708e-09
-5.55966991303e-12
-9.17599154586e-10
-3.09133657976e-08
-6.28970134521e-09
-1.09533395507e-09
-3.18505289564e-08
-6.95672419118e-09
-1.08504877313e-09
-3.25808237351e-08
-7.55351856858e-09
-9.05081032158e-10
-3.31261923019e-08
-8.05028200633e-09
-5.90629558099e-10
-3.35058647438e-08
-8.42331372209e-09
-1.90535767171e-10
-3.37389342081e-08
-8.65675191653e-09
2.38380113727e-10
-3.38271158386e-08
-8.73869224288e-09
6.38382144129e-10
-3.37365048365e-08
-8.65586544862e-09
9.52626248347e-10
-3.35012182186e-08
-8.42152955359e-09
1.13222944158e-09
-3.31196747752e-08
-8.0476064842e-09
1.14186683395e-09
-3.25729669642e-08
-7.54995571098e-09
9.62931122077e-10
-3.18419697239e-08
-6.95227990977e-09
5.92663553346e-10
-3.0904677944e-08
-6.28438036799e-09
-2.97530478427e-08
-5.57734164674e-09
3.3563458055e-11
-5.9917387565e-10
-2.8925983949e-08
-6.00062948636e-09
-4.86205986771e-12
-1.00471378688e-09
-2.99656987658e-08
-6.74572393037e-09
-1.20016961108e-09
-3.07992306215e-08
-7.44354379411e-09
-1.1892809806e-09
-3.14404513205e-08
-8.06463540145e-09
-9.92469266924e-10
-3.1916609487e-08
-8.57988634392e-09
-6.48578807998e-10
-3.22469746907e-08
-8.96595448867e-09
-2.11209272944e-10
-3.24495030795e-08
-9.20713618234e-09
2.57547150388e-10
-3.25262719869e-08
-9.29161649153e-09
6.9474083929e-10
-3.24473383602e-08
-9.20626946172e-09
1.03825345895e-09
-3.22428464196e-08
-8.96421767359e-09
1.23445276617e-09
-3.19108363424e-08
-8.57729925254e-09
1.24439913761e-09
-3.14335059633e-08
-8.0612202869e-09
1.04747591872e-09
-3.07916408673e-08
-7.43932533779e-09
6.39598179077e-10
-2.99579330575e-08
-6.74071731711e-09
-2.89176482364e-08
-5.99490913704e-09
3.19025999106e-11
-6.42820106071e-10
-2.74275446699e-08
-6.21204938369e-09
-4.26295235204e-12
-1.08121452574e-09
-2.83379223143e-08
-6.98308907835e-09
-1.29218110627e-09
-2.90626269825e-08
-7.70087959346e-09
-1.28045463724e-09
-2.96129608681e-08
-8.33731181756e-09
-1.06853357201e-09
-3.00201800956e-08
-8.86394506636e-09
-6.98681361046e-10
-3.03021476995e-08
-9.25784241053e-09
-2.28707449505e-10
-3.04747218577e-08
-9.50348006879e-09
2.74794218652e-10
-3.0540070576e-08
-9.58925708809e-09
7.4448237523e-10
-3.04728029654e-08
-9.50261787899e-09
1.11373849731e-09
-3.02984911108e-08
-9.25612316851e-09
1.32472955107e-09
-3.00150662114e-08
-8.8614037652e-09
1.33513070637e-09
-2.96067897855e-08
-8.33399223648e-09
1.12231429493e-09
-2.90558307717e-08
-7.69683048468e-09
6.81317580271e-10
-2.8330865613e-08
-6.97834283672e-09
-2.74196684369e-08
-6.20668422055e-09
3.06753995269e-11
-6.82318314966e-10
-2.54422042377e-08
-6.25196690093e-09
-3.77250968734e-12
-1.14917720585e-09
-2.6214153448e-08
-7.04080408358e-09
-1.37367995015e-09
-2.68293941812e-08
-7.77160739683e-09
-1.36071248412e-09
-2.72914522347e-08
-8.41736673078e-09
-1.13496498402e-09
-2.76333210241e-08
-8.95037054559e-09
-7.42032190566e-10
-2.78700092908e-08
-9.3482698821e-09
-2.43472839203e-10
-2.80145522763e-08
-9.59587641266e-09
2.90348910413e-10
-2.8069009762e-08
-9.68199468977e-09
7.88501303749e-10
-2.8012836054e-08
-9.59501241501e-09
1.18059895629e-09
-2.78667315516e-08
-9.34655505356e-09
1.40507173665e-09
-2.7628714277e-08
-8.94785440812e-09
1.4162933677e-09
-2.72858393738e-08
-8.41411433483e-09
1.18950821209e-09
-2.68231120021e-08
-7.76769233355e-09
7.19681337435e-10
-2.62074750788e-08
-7.03627761928e-09
-2.54345023517e-08
-6.24691622093e-09
2.99802228634e-11
-7.18589095838e-10
-2.31150219577e-08
-6.14997567292e-09
-3.3764791754e-12
-1.21034548664e-09
-2.37454960919e-08
-6.95101935168e-09
-1.44670868376e-09
-2.42538040619e-08
-7.68979766717e-09
-1.4318026704e-09
-2.463389285e-08
-8.34020889261e-09
-1.19300162335e-09
-2.49166442099e-08
-8.87545603186e-09
-7.79387098704e-10
-2.51128057889e-08
-9.27408935828e-09
-2.55841050075e-10
-2.5232184354e-08
-9.52150398143e-09
3.04270551774e-10
-2.52766723294e-08
-9.60713533525e-09
8.27285048675e-10
-2.52306053848e-08
-9.52063935567e-09
1.23982001118e-09
-2.51097759034e-08
-9.27238014379e-09
1.4769969401e-09
-2.49123429902e-08
-8.87296426782e-09
1.48973268871e-09
-2.4628563823e-08
-8.33701869457e-09
1.25064144327e-09
-2.42476955368e-08
-7.68600594375e-09
7.55518077586e-10
-2.37387904055e-08
-6.94669531214e-09
-2.31071364094e-08
-6.14521620681e-09
2.97777684041e-11
-7.518763463e-10
-2.05671239344e-08
-5.92972327744e-09
-3.04004553148e-12
-1.2666709197e-09
-2.10562036363e-08
-6.73887569864e-09
-1.51341159421e-09
-2.14636747339e-08
-7.48169631726e-09
-1.49521320195e-09
-2.17719356343e-08
-8.13279945487e-09
-1.243487021e-09
-2.20039785609e-08
-8.66662667444e-09
-8.11185815892e-10
-2.21654277437e-08
-9.06303592563e-09
-2.66025979427e-10
-2.22631052045e-08
-9.30829518671e-09
3.16523350663e-10
-2.22987781235e-08
-9.39269490748e-09
8.61026023174e-10
-2.22615823661e-08
-9.30743648041e-09
1.29200670142e-09
-2.21624788053e-08
-9.0613438256e-09
1.54176576029e-09
-2.19997332039e-08
-8.66417286546e-09
1.55737993645e-09
-2.17665691889e-08
-8.12968377234e-09
1.30747443074e-09
-2.14573545195e-08
-7.47803666568e-09
7.88903470511e-10
-2.10490399982e-08
-6.73475845154e-09
-2.05586541195e-08
-5.92525296254e-09
2.9973097168e-11
-7.83554580408e-10
-1.78997269451e-08
-5.6098317206e-09
-2.75394094853e-12
-1.32225347955e-09
-1.8247900905e-08
-6.42426541623e-09
-1.5765752983e-09
-1.85673649464e-08
-7.16807002888e-09
-1.55206437303e-09
-1.88176200529e-08
-7.81640720325e-09
-1.28668359549e-09
-1.90083583701e-08
-8.34550759269e-09
-8.37462972378e-10
-1.91411354573e-08
-8.73701604867e-09
-2.740731579e-10
-1.922064384e-08
-8.97835476292e-09
3.26943393108e-10
-1.92488021759e-08
-9.06086198749e-09
8.89554879211e-10
-1.92190727156e-08
-8.97751225887e-09
1.33722140129e-09
-1.9138061732e-08
-8.7353597286e-09
1.6003008066e-09
-1.90038841483e-08
-8.34311521071e-09
1.62183115958e-09
-1.88118525697e-08
-7.81338984825e-09
1.36392201303e-09
-1.85604093593e-08
-7.16456382082e-09
8.21044260875e-10
-1.82397911707e-08
-6.42037601769e-09
-1.78901706786e-08
-5.6056717701e-09
3.03995772424e-11
-8.25234213591e-10
-1.51875465424e-08
-5.20521154551e-09
-2.5171764137e-12
-1.38814413002e-09
-1.54061428662e-08
-6.02381176267e-09
-1.64107411815e-09
-1.56621082365e-08
-6.76621006551e-09
-1.60400854553e-09
-1.58686035167e-08
-7.40863531157e-09
-1.32318220267e-09
-1.60260006169e-08
-7.93003222571e-09
-8.58464914881e-10
-1.61351796426e-08
-8.31428928755e-09
-2.80147487824e-10
-1.619981561e-08
-8.55018626736e-09
3.35524723683e-10
-1.62216650209e-08
-8.63023987145e-09
9.1295179895e-10
-1.6198071958e-08
-8.54937317293e-09
1.37588420205e-09
-1.61317503542e-08
-8.31269305512e-09
1.6540988052e-09
-1.60209493087e-08
-7.92773255639e-09
1.68780430023e-09
-1.58620209159e-08
-7.4057484812e-09
1.4308950705e-09
-1.56540643185e-08
-6.76288559593e-09
8.63433896573e-10
-1.5396591762e-08
-6.02017947771e-09
-1.5176360384e-08
-5.20140471996e-09
3.10748329674e-11
-9.19780526539e-10
-4.72691220307e-09
-2.25385538823e-12
-1.24513956455e-08
-1.48845043302e-09
-5.55148981268e-09
-1.26212796002e-08
-1.72420367492e-09
-6.28989724903e-09
-1.28381819793e-08
-1.66652361996e-09
-6.92369350452e-09
-1.30101373662e-08
-1.36607426921e-09
-7.43517344296e-09
-1.31404487797e-08
-8.83073021458e-10
-7.81057913356e-09
-1.32314168155e-08
-2.8737120709e-10
-8.04004356448e-09
-1.3284992165e-08
3.45267402187e-10
-8.11728131563e-09
-1.33020938831e-08
9.39966762461e-10
-8.03927585723e-09
-1.32829345789e-08
1.42097572031e-09
-7.8090731865e-09
-1.32273517113e-08
1.71850284992e-09
-7.43300734656e-09
-1.31344407025e-08
1.77245148813e-09
-6.92098155861e-09
-1.30022677595e-08
1.53232353439e-09
-6.28679419869e-09
-1.28285153369e-08
9.58766070113e-10
-5.5481288294e-09
-1.26097859802e-08
-4.72354308958e-09
3.18728762963e-11
-1.24380155083e-08
-1.14607982101e-11
8.38971668471e-10
-8.09362840625e-10
1.02050564877e-12
-1.48250500538e-11
9.25922469202e-10
-8.99270110858e-10
-1.42521160845e-11
1.00910692064e-09
-9.85483746478e-10
-1.25815846708e-11
1.08395677065e-09
-1.06372214396e-09
-9.98198507007e-12
1.14549436435e-09
-1.12966183218e-09
-6.74832096428e-12
1.19107155775e-09
-1.17969942289e-09
-3.02474205008e-12
1.2194077807e-09
-1.21138098623e-09
8.78212978302e-13
1.22935291047e-09
-1.22275113277e-09
4.55022621847e-12
1.21876868505e-09
-1.21135245124e-09
7.63221714141e-12
1.1897879194e-09
-1.17964063098e-09
9.90608790114e-12
1.14366838706e-09
-1.12957076845e-09
1.12178786128e-11
1.08199178361e-09
-1.06359454464e-09
1.14319595843e-11
1.00721261877e-09
-9.85315631357e-10
8.08516153688e-12
9.2470747309e-10
-8.99055789735e-10
8.38475015141e-10
-8.09093200981e-10
-1.85671666591e-12
-1.05868623534e-11
2.30538676732e-09
-2.09104120993e-09
2.52213258686e-12
-7.69047933115e-12
2.50697767724e-09
-2.31701460857e-09
-2.08081187213e-12
2.69436958567e-09
-2.53271102039e-09
1.77746139667e-12
2.85762443531e-09
-2.72763998071e-09
2.86768147598e-12
2.98847807008e-09
-2.89139118491e-09
1.45956185969e-12
3.08347604672e-09
-3.01535839821e-09
-1.50058510242e-12
3.14190439299e-09
-3.09372180494e-09
-4.97373418908e-12
3.16252037359e-09
-3.12179518037e-09
-8.06618339151e-12
3.14066845032e-09
-3.09363461431e-09
-9.83031426363e-12
3.0810099969e-09
-3.01518651532e-09
-9.42555186842e-12
2.98498292975e-09
-2.8911298412e-09
-6.37821032579e-12
2.85379080925e-09
-2.72727883603e-09
-1.43289769775e-12
2.6908647395e-09
-2.53224223129e-09
1.64004845911e-12
2.50482090436e-09
-2.31642311673e-09
2.30483135886e-09
-2.09030644685e-09
-5.19291565723e-12
3.34698471067e-12
3.71745008105e-09
-3.12430221318e-09
3.51849864993e-12
1.94954742685e-11
3.9843948108e-09
-3.46128335719e-09
3.21848774345e-11
4.22613761049e-09
-3.78194180058e-09
3.68960264461e-11
4.42936350961e-09
-4.07105437121e-09
3.25512947882e-11
4.58758350515e-09
-4.31351477592e-09
2.06290057841e-11
4.69965690345e-09
-4.49684391959e-09
3.87567614511e-12
4.76769211234e-09
-4.61258586356e-09
-1.45006005749e-11
4.79189774819e-09
-4.65394563675e-09
-3.14359939327e-11
4.76628558349e-09
-4.61243957444e-09
-4.38170305018e-11
4.69688171484e-09
-4.49655931203e-09
-4.89890198586e-11
4.5837151178e-09
-4.31308476882e-09
-4.52612637078e-11
4.42519911396e-09
-4.0704653014e-09
-3.32701408607e-11
4.2226078714e-09
-3.78118007834e-09
-1.67146081386e-11
3.98258199041e-09
-3.46033245308e-09
3.7178019838e-09
-3.12315415176e-09
-8.07598280821e-12
2.27243790556e-11
4.75380391466e-09
-3.97046628116e-09
4.13531551763e-12
5.33577787753e-11
5.02342259613e-09
-4.40139720638e-09
7.26845809625e-11
5.26205133772e-09
-4.81013242811e-09
7.6828955191e-11
5.45441361362e-09
-5.17781717754e-09
6.55575095108e-11
5.59885888876e-09
-5.48566787442e-09
4.17686912165e-11
5.69796641399e-09
-5.71816594061e-09
1.00446405014e-11
5.75715786254e-09
-5.8647582309e-09
-2.4345950259e-11
5.77850437353e-09
-5.91700374132e-09
-5.62801436678e-11
5.75579961973e-09
-5.8645515306e-09
-8.05607882581e-11
5.69532414031e-09
-5.71776402692e-09
-9.26711270121e-11
5.59525064413e-09
-5.4850662071e-09
-8.94967802024e-11
5.45062484898e-09
-5.17700587883e-09
-7.07703204853e-11
5.25910113071e-09
-4.80910210396e-09
-3.94907225808e-11
5.02238768197e-09
-4.40013550291e-09
4.75520554593e-09
-3.96897496875e-09
-1.04941767296e-11
4.25802393148e-11
5.32613105892e-09
-4.64175012463e-09
4.46467004115e-12
8.5042738784e-11
5.55534007293e-09
-5.1512666089e-09
1.08957724928e-10
5.75435982918e-09
-5.63296741113e-09
1.11473853534e-10
5.90689840127e-09
-6.06534571503e-09
9.35956325985e-11
6.01618712038e-09
-6.4268197937e-09
5.95076033666e-11
6.08788919471e-09
-6.69952249139e-09
1.52306211932e-11
6.1297740351e-09
-6.87123966954e-09
-3.24609111284e-11
6.14525708447e-09
-6.93226624424e-09
-7.6961950289e-11
6.12854511604e-09
-6.8709680867e-09
-1.11538015934e-10
6.08553394473e-09
-6.69899523408e-09
-1.30205521858e-10
6.01302925486e-09
-6.42603902919e-09
-1.28559842764e-10
5.90368283957e-09
-6.06431158119e-09
-1.05099786768e-10
5.75206290104e-09
-5.63168191027e-09
-6.18123850434e-11
5.555037708e-09
-5.14972739841e-09
5.32835538684e-09
-4.63997135317e-09
-1.2414777442e-11
6.01150386975e-11
5.48598791198e-09
-5.15138436107e-09
4.57339179303e-12
1.10555752826e-10
5.65855434948e-09
-5.72610398182e-09
1.36812036263e-10
5.80565112937e-09
-6.26773430493e-09
1.37201271176e-10
5.91150824319e-09
-6.75290201403e-09
1.13939229834e-10
5.98238902869e-09
-7.15794397623e-09
7.21909764611e-11
6.02567003081e-09
-7.46320517823e-09
1.89073397093e-11
6.0500441685e-09
-7.65516411661e-09
-3.82302233999e-11
6.05951111441e-09
-7.72317252522e-09
-9.17411923903e-11
6.04896277391e-09
-7.65482353881e-09
-1.33955806649e-10
6.02362422926e-09
-7.46254530485e-09
-1.57925587112e-10
5.97969489129e-09
-7.15697720053e-09
-1.58280426034e-10
5.90882529473e-09
-6.75164353642e-09
-1.32320885482e-10
5.80387689747e-09
-6.26620341334e-09
-8.09636679055e-11
5.65864929191e-09
-5.72431308297e-09
5.48858699148e-09
-5.14936046332e-09
-1.38458901844e-11
7.40581120477e-11
5.33854053885e-09
-5.51291392536e-09
4.52728923248e-12
1.28992384666e-10
5.45755660441e-09
-6.14128196343e-09
1.5583478254e-10
5.55639809514e-09
-6.73161764645e-09
1.54037222865e-10
5.62160421788e-09
-7.25930783018e-09
1.26850666276e-10
5.66054812022e-09
-7.69921363177e-09
8.00743310625e-11
5.68106342816e-09
-8.03038748255e-09
2.11510381392e-11
5.69166842449e-09
-8.23832861701e-09
-4.18184583031e-11
5.69633843762e-09
-8.31174563825e-09
-1.00961704423e-10
5.69074014307e-09
-8.23791783749e-09
-1.48165580685e-10
5.67932226166e-09
-8.02959321954e-09
-1.75962359451e-10
5.65827999646e-09
-7.69806074396e-09
-1.78362964968e-10
5.61936628526e-09
-7.25782970666e-09
-1.51678083644e-10
5.55497945484e-09
-6.72985448224e-09
-9.57825498542e-11
5.4578036634e-09
-6.13926376884e-09
5.34110297467e-09
-5.51068051241e-09
-1.48120343519e-11
8.41008105146e-11
4.9901258522e-09
-5.73909375091e-09
4.36410759947e-12
1.40994314141e-10
5.06794489466e-09
-6.41096608426e-09
1.67249315121e-10
5.12896867418e-09
-7.04011041413e-09
1.63451736393e-10
5.16403850673e-09
-7.60120420475e-09
1.33672019745e-10
5.18031338105e-09
-8.06817948688e-09
8.40621863293e-11
5.18528866859e-09
-8.41927176667e-09
2.22244191608e-11
5.18666828416e-09
-8.63933527257e-09
-4.36698657208e-11
5.18805734115e-09
-8.71673487505e-09
-1.05708791098e-10
5.18588714828e-09
-8.6388570767e-09
-1.55690114719e-10
5.18383083334e-09
-8.41834887559e-09
-1.85968028581e-10
5.17842193646e-09
-8.06685014978e-09
-1.90214665689e-10
5.1621662732e-09
-7.59952115746e-09
-1.6398451674e-10
5.12776207136e-09
-7.03813614093e-09
-1.06115338241e-10
5.06812826423e-09
-6.40874896116e-09
4.99228058188e-09
-5.73668624516e-09
-1.53904027008e-11
9.04884671949e-11
4.52629456722e-09
-5.84136199497e-09
4.12442502992e-12
1.47679864359e-10
4.57706185165e-09
-6.54764363829e-09
1.72659953013e-10
4.61165393866e-09
-7.20668140052e-09
1.6716695249e-10
4.6268175043e-09
-7.79290614209e-09
1.35882503868e-10
4.62886163354e-09
-8.27982475509e-09
8.51159033801e-11
4.62460656289e-09
-8.64531994527e-09
2.24009592277e-11
4.62065324524e-09
-8.87394187462e-09
-4.42576318985e-11
4.62007186423e-09
-8.9540092382e-09
-1.07142576852e-10
4.62001071396e-09
-8.87340278517e-09
-1.58206703379e-10
4.62340623167e-09
-8.64428122391e-09
-1.89860803007e-10
4.62729405674e-09
-8.27833785093e-09
-1.95640125353e-10
4.62522720517e-09
-7.79104275398e-09
-1.70546615407e-10
4.61054930067e-09
-7.20452588802e-09
-1.12379041601e-10
4.57702398215e-09
-6.54526184593e-09
4.52783587495e-09
-5.83881869385e-09
-1.56655113338e-11
9.37542291617e-11
4.00810767961e-09
-5.82995152513e-09
3.84223365013e-12
1.5018159146e-10
4.04378185014e-09
-6.56243223023e-09
1.73554188606e-10
4.0615371124e-09
-7.24332447444e-09
1.66716561974e-10
4.06485069065e-09
-7.84718828707e-09
1.34782659875e-10
4.05911219443e-09
-8.34755577573e-09
8.40757623149e-11
4.05033407689e-09
-8.72240135957e-09
2.1920929525e-11
4.04392314356e-09
-8.95630898441e-09
-4.39892919226e-11
4.04234466334e-09
-9.0378389449e-09
-1.06272405291e-10
4.04339977072e-09
-8.95571843104e-09
-1.57187382578e-10
4.04934867745e-09
-8.72126501642e-09
-1.89349601916e-10
4.05780021594e-09
-8.34593720912e-09
-1.96299358836e-10
4.0634554088e-09
-7.84517666597e-09
-1.72669033459e-10
4.06042555951e-09
-7.24102439948e-09
-1.15245572022e-10
4.04339390169e-09
-6.55992498919e-09
4.00883146044e-09
-5.82731374241e-09
-1.57294277486e-11
9.4523532152e-11
3.47574762931e-09
-5.71430721148e-09
3.54210442755e-12
1.4951851993e-10
3.50473587979e-09
-6.46568306982e-09
1.71223129153e-10
3.51263632398e-09
-7.16134184953e-09
1.63432877479e-10
3.50974599885e-09
-7.77620430006e-09
1.31504468657e-10
3.50071740591e-09
-8.28421508358e-09
8.16792289377e-11
3.49066938479e-09
-8.66386701638e-09
2.10041974307e-11
3.48377315224e-09
-8.90010933786e-09
-4.32028123895e-11
3.48187646074e-09
-8.98201675122e-09
-1.03956366057e-10
3.48333954392e-09
-8.89947877882e-09
-1.53889149609e-10
3.48984096805e-09
-8.66265492402e-09
-1.85896026775e-10
3.4995745932e-09
-8.28249531675e-09
-1.93620689657e-10
3.50843938544e-09
-7.77408119341e-09
-1.71507710019e-10
3.5114062327e-09
-7.15893795783e-09
-1.15477755631e-10
3.50388727551e-09
-6.46309256708e-09
3.47552976375e-09
-5.71161772846e-09
-1.5655563319e-11
9.33979053195e-11
2.95414922684e-09
-5.50350923324e-09
3.22310952339e-12
1.46664262246e-10
2.98122267107e-09
-6.2675472841e-09
1.66941913209e-10
2.98368225275e-09
-6.97199751317e-09
1.58644028961e-10
2.97829044142e-09
-7.59215465159e-09
1.27179809164e-10
2.96902812458e-09
-8.10273386834e-09
7.86667000794e-11
2.95991056069e-09
-8.48318390495e-09
1.98897061546e-11
2.95387770791e-09
-8.71915001712e-09
-4.22053269335e-11
2.95210721605e-09
-8.80047618441e-09
-1.01005182781e-10
2.95349851795e-09
-8.71849231481e-09
-1.49520680482e-10
2.95916480913e-09
-8.48192034561e-09
-1.80911423823e-10
2.96794914345e-09
-8.10094605389e-09
-1.88967719855e-10
2.97695043262e-09
-7.58995906042e-09
-1.68129590891e-10
2.98221122481e-09
-6.96953221064e-09
-1.13769599254e-10
2.97981432062e-09
-6.26491730083e-09
2.95292858775e-09
-5.5008113591e-09
-1.55063760364e-11
9.1028733608e-11
2.45804845064e-09
-5.20655598017e-09
2.90311235229e-12
1.42917299868e-10
2.48439410966e-09
-5.97842808309e-09
1.6243838206e-10
2.48388137414e-09
-6.68696587099e-09
1.54075685353e-10
2.47858485682e-09
-7.30763286632e-09
1.23214235193e-10
2.4713486466e-09
-7.81638944999e-09
7.59573909159e-11
2.46478306371e-09
-8.19413787491e-09
1.88739223262e-11
2.46050765821e-09
-8.42754706996e-09
-4.13178263171e-11
2.45921792342e-09
-8.5074574161e-09
-9.83687083426e-11
2.46013403653e-09
-8.42687627844e-09
-1.45521454208e-10
2.4640307798e-09
-8.19284909187e-09
-1.76159540276e-10
2.47022027776e-09
-7.81456865018e-09
-1.84112198164e-10
2.4770806215e-09
-7.30540465351e-09
-1.638787564e-10
2.48203503405e-09
-6.68448141627e-09
-1.10819083602e-10
2.48229716743e-09
-5.97580394053e-09
2.45574581327e-09
-5.20389710812e-09
-1.53095382414e-11
8.84655071768e-11
1.99525363742e-09
-4.83247305171e-09
2.59361988481e-12
1.40625974892e-10
2.01862014345e-09
-5.60947062771e-09
1.60517442108e-10
2.01703560207e-09
-6.31860336082e-09
1.52279368191e-10
2.0144177178e-09
-6.93565347857e-09
1.21601974882e-10
2.01121084618e-09
-7.43872464727e-09
7.47679419576e-11
2.00841326998e-09
-7.81071479488e-09
1.84082139754e-11
2.00661673481e-09
-8.0395940208e-09
-4.09893925386e-11
2.00598156188e-09
-8.11737288603e-09
-9.7261143245e-11
2.00619474288e-09
-8.03892563163e-09
-1.43881019661e-10
2.00755253585e-09
-7.80942959229e-09
-1.74197443496e-10
2.00988259048e-09
-7.43690873431e-09
-1.81871597246e-10
2.01258751515e-09
-6.93343366924e-09
-1.61130138635e-10
2.01467337443e-09
-6.31614005821e-09
-1.07707051571e-10
2.01569874068e-09
-5.60689778495e-09
1.99173035773e-09
-4.82990958803e-09
-1.50927390859e-11
8.33362807934e-11
-4.39219632426e-09
2.25772436666e-12
1.57581975579e-09
1.42172407447e-10
-5.17504044885e-09
1.58394178166e-09
1.64183299546e-10
-5.88076416688e-09
1.58644392549e-09
1.56042775364e-10
-6.4897975579e-09
1.58912127791e-09
1.24617445334e-10
-6.9833524656e-09
1.59121359474e-09
7.66752741972e-11
-7.34668814207e-09
1.59281433827e-09
1.90005107088e-11
-7.56921738888e-09
1.59372797864e-09
-4.1710167794e-11
-7.6442176394e-09
1.59386803494e-09
-9.92419764872e-11
-7.56856977387e-09
1.59318512472e-09
-1.46865868748e-10
-7.34544120066e-09
1.59172047522e-09
-1.77787017861e-10
-6.98158801654e-09
1.58952888231e-09
-1.85210714177e-10
-6.48763665147e-09
1.58679661159e-09
-1.62238843731e-10
-5.87836913592e-09
1.58339010179e-09
-1.02081100236e-10
-5.17254718996e-09
1.58006430789e-09
-4.3898241066e-09
-1.48457133002e-11
1.57087455869e-09
1.27057698256e-11
-1.57680319351e-10
-6.64488415961e-10
-4.63926830284e-13
1.95718380947e-11
-1.7559650331e-10
-7.31533024995e-10
2.26096345005e-11
-1.94254731407e-10
-7.9544891928e-10
2.21532075544e-11
-2.1111690783e-10
-8.53180550349e-10
1.84052851909e-11
-2.25234095588e-10
-9.01623065238e-10
1.1987207169e-11
-2.3576892304e-10
-9.38249005311e-10
3.80197340295e-12
-2.42321955481e-10
-9.6139127655e-10
-5.00331025542e-12
-2.44589871976e-10
-9.69705950795e-10
-1.31234277324e-11
-2.42134018735e-10
-9.61341196221e-10
-1.94039738875e-11
-2.3539270874e-10
-9.38149567247e-10
-2.29415615931e-11
-2.24701623284e-10
-9.01476646531e-10
-2.31586898369e-11
-2.10514420415e-10
-8.52990242806e-10
-1.97989747243e-11
-1.93571189958e-10
-7.95217304796e-10
-1.26454023878e-11
-1.75052758379e-10
-7.31260633211e-10
-1.57377094864e-10
-6.64164554786e-10
-2.90255695996e-13
2.79054950515e-11
-3.46742352583e-10
-1.92977453965e-09
-1.1013916417e-12
4.40976772956e-11
-3.81226141496e-10
-2.12920070008e-09
5.12859858074e-11
-4.16553263871e-10
-2.31939295076e-09
5.02576392843e-11
-4.481733683e-10
-2.49119245515e-09
4.17371865549e-11
-4.74117758868e-10
-2.6354012911e-09
2.7188664153e-11
-4.93197445024e-10
-2.74447629938e-09
8.6832658013e-12
-5.04951757189e-10
-2.8133640619e-09
-1.12018276596e-11
-5.09011830917e-10
-2.83802573111e-09
-2.95626458154e-11
-5.04564752459e-10
-2.81322215809e-09
-4.38107081745e-11
-4.92422955052e-10
-2.74419351463e-09
-5.18774437979e-11
-4.73010906052e-10
-2.63498406236e-09
-5.23483640673e-11
-4.46872401621e-10
-2.49064909757e-09
-4.44679930327e-11
-4.15140185484e-10
-2.3187314813e-09
-2.7650842664e-11
-3.80029476843e-10
-2.12842282871e-09
-3.46025269579e-10
-1.92886226599e-09
-5.81874020219e-13
3.52213383535e-11
-4.88639229136e-10
-3.01706865836e-09
-1.4746481687e-12
5.62130400477e-11
-5.31621759529e-10
-3.33333813829e-09
6.54709044062e-11
-5.74994087172e-10
-3.63434272082e-09
6.40406220096e-11
-6.13423433611e-10
-3.90580950202e-09
5.30912055848e-11
-6.44466327599e-10
-4.13343932899e-09
3.4578302008e-11
-6.66987717308e-10
-4.30548641292e-09
1.11417242431e-11
-6.80739806709e-10
-4.41403827036e-09
-1.40051370623e-11
-6.85487305555e-10
-4.45279624225e-09
-3.72662877237e-11
-6.80270280745e-10
-4.41381124327e-09
-5.54183004838e-11
-6.66052324844e-10
-4.30503539249e-09
-6.58201510158e-11
-6.43129176736e-10
-4.13277501078e-09
-6.65543924318e-11
-6.11841117061e-10
-3.90494597143e-09
-5.64503175833e-11
-5.73293543342e-10
-3.63329496421e-09
-3.46970301164e-11
-5.30149397855e-10
-3.33211252104e-09
-4.8774108485e-10
-3.0156471984e-09
-6.18482681659e-13
3.73473765293e-11
-5.87409873766e-10
-3.90827945306e-09
-1.65287004717e-12
5.99068101551e-11
-6.33332805925e-10
-4.32354898151e-09
6.98235239575e-11
-6.78748660214e-10
-4.71770262339e-09
6.81933819295e-11
-7.18362838298e-10
-5.07251352844e-09
5.64622136353e-11
-7.49805200794e-10
-5.36965060555e-09
3.68017853258e-11
-7.72275786094e-10
-5.59402886519e-09
1.20164540365e-11
-7.85868778035e-10
-5.73543657868e-09
-1.45464918301e-11
-7.90560820712e-10
-5.78579012871e-09
-3.91594816702e-11
-7.85387835236e-10
-5.73513006769e-09
-5.84685403828e-11
-7.71322186641e-10
-5.59342189363e-09
-6.96612690679e-11
-7.48439013349e-10
-5.36875902521e-09
-7.05883522821e-11
-7.1673087386e-10
-5.07135881906e-09
-5.98207580313e-11
-6.77005578321e-10
-4.71630916395e-09
-3.65011278572e-11
-6.31804869426e-10
-4.32193203898e-09
-5.86430216621e-10
-3.90642850234e-09
-4.66843818581e-13
3.62095323554e-11
-6.46234561408e-10
-4.61826067825e-09
-1.69270171393e-12
5.83122163824e-11
-6.91185006189e-10
-5.11666074482e-09
6.80167030025e-11
-7.34386644402e-10
-5.58824750455e-09
6.63762831968e-11
-7.71261575432e-10
-6.01187731123e-09
5.49355390294e-11