/*--------------------------------*- C++ -*----------------------------------*\
  =========                 |
  \\      /  F ield         | OpenFOAM: The Open Source CFD Toolbox
   \\    /   O peration     | Website:  https://openfoam.org
    \\  /    A nd           | Version:  7
     \\/     M anipulation  |
\*---------------------------------------------------------------------------*/
FoamFile
{
    version     2.0;
    format      ascii;
    class       volScalarField;
    location    "0.98";
    object      p;
}
// * * * * * * * * * * * * * * * * * * * * * * * * * * * * * * * * * * * * * //

dimensions      [0 2 -2 0 0 0 0];

internalField   nonuniform List<scalar> 
22500
(
2.25724086723e-05
2.25663462841e-05
2.25651012904e-05
2.25630458675e-05
2.2561625975e-05
2.2560524526e-05
2.25598469158e-05
2.25595986666e-05
2.25598224761e-05
2.25604764804e-05
2.25615555755e-05
2.25629558526e-05
2.25649950136e-05
2.25662320243e-05
2.25722876485e-05
2.24831720649e-05
2.24724884695e-05
2.24673472056e-05
2.24618848305e-05
2.24577106739e-05
2.24545855719e-05
2.24526732637e-05
2.24520122177e-05
2.24526485063e-05
2.24545368503e-05
2.24576393621e-05
2.2461793554e-05
2.24672396847e-05
2.24723725949e-05
2.24830486788e-05
2.23957715989e-05
2.23806842536e-05
2.23721620772e-05
2.23636476493e-05
2.23570484401e-05
2.23521427511e-05
2.23491475398e-05
2.23481245226e-05
2.23491235935e-05
2.23520956202e-05
2.23569795528e-05
2.23635594913e-05
2.23720582855e-05
2.23805720158e-05
2.23956504136e-05
2.23174877757e-05
2.22987141288e-05
2.22875755633e-05
2.22767278093e-05
2.22682876074e-05
2.22620424867e-05
2.22582361688e-05
2.22569429255e-05
2.22582134279e-05
2.22619977229e-05
2.22682222571e-05
2.22766442647e-05
2.22874771264e-05
2.22986074452e-05
2.23173709874e-05
2.22441917056e-05
2.22222171799e-05
2.22089105391e-05
2.2196197897e-05
2.21862854783e-05
2.21789812299e-05
2.21745362449e-05
2.21730311971e-05
2.217451475e-05
2.21789389355e-05
2.21862237691e-05
2.21961190678e-05
2.22088176256e-05
2.22221163575e-05
2.22440803252e-05
2.21750608465e-05
2.2150372451e-05
2.21352767026e-05
2.21210978757e-05
2.2110023195e-05
2.21018926702e-05
2.2096950802e-05
2.20952815386e-05
2.20969305983e-05
2.21018529027e-05
2.21099651986e-05
2.21210237969e-05
2.21351894449e-05
2.21502774396e-05
2.21749548685e-05
2.21104615316e-05
2.20835713018e-05
2.20670325721e-05
2.20517501627e-05
2.20397922072e-05
2.20310419995e-05
2.20257282797e-05
2.20239364882e-05
2.20257093244e-05
2.20310046881e-05
2.20397377964e-05
2.20516806532e-05
2.20669507092e-05
2.20834819169e-05
2.21103605974e-05
2.20503815192e-05
2.20217702423e-05
2.20040742049e-05
2.19879934117e-05
2.19753847578e-05
2.19661848184e-05
2.19606019471e-05
2.19587217983e-05
2.19605841734e-05
2.1966149838e-05
2.1975333722e-05
2.19879281874e-05
2.20039973809e-05
2.20216859867e-05
2.20502851097e-05
2.19945484137e-05
2.19646551578e-05
2.19460397364e-05
2.1929416845e-05
2.19163527979e-05
2.19068438476e-05
2.19010769208e-05
2.18991367068e-05
2.19010602315e-05
2.19068109917e-05
2.19163048408e-05
2.19293554773e-05
2.19459674323e-05
2.19645753633e-05
2.19944558631e-05
2.19426578502e-05
2.19118909775e-05
2.18925741937e-05
2.18756352494e-05
2.18622897234e-05
2.1852595111e-05
2.18467189595e-05
2.18447435728e-05
2.18467032352e-05
2.18525641408e-05
2.18622444762e-05
2.18755772703e-05
2.1892505792e-05
2.1911814904e-05
2.1942568321e-05
2.18944249781e-05
2.18631761565e-05
2.18433817714e-05
2.18263356256e-05
2.18128702121e-05
2.18031030187e-05
2.17971865241e-05
2.17951989851e-05
2.17971716335e-05
2.18030736734e-05
2.18128272794e-05
2.1826280489e-05
2.18433165904e-05
2.18631029877e-05
2.18943375393e-05
2.18495697911e-05
2.18182577431e-05
2.17982434564e-05
2.17812846689e-05
2.17678477597e-05
2.17581114173e-05
2.17522183993e-05
2.17502401467e-05
2.17522042123e-05
2.17580834029e-05
2.17678066964e-05
2.17812317745e-05
2.17981807154e-05
2.18181865591e-05
2.18494835659e-05
2.18077393645e-05
2.17769550483e-05
2.17570428043e-05
2.17403374461e-05
2.17270551227e-05
2.17174419898e-05
2.17116313261e-05
2.17096827073e-05
2.17116176758e-05
2.17174150356e-05
2.17270154503e-05
2.17402861112e-05
2.17569815826e-05
2.17768847847e-05
2.18076532097e-05
2.1768727535e-05
2.17391872042e-05
2.17196462884e-05
2.17033202624e-05
2.1690315729e-05
2.16809348995e-05
2.16752799485e-05
2.16733861881e-05
2.16752667213e-05
2.16809086929e-05
2.1690276945e-05
2.17032696753e-05
2.17195855071e-05
2.17391165578e-05
2.17686405674e-05
2.17342249173e-05
2.17043209781e-05
2.16854461324e-05
2.16695705693e-05
2.16570544303e-05
2.16481025807e-05
2.1642731009e-05
2.16409359872e-05
2.16427180608e-05
2.16480768637e-05
2.16570161244e-05
2.16695200462e-05
2.1685384306e-05
2.17042481593e-05
2.17341377195e-05
1.22408687358e-05
1.22438605793e-05
1.22462357745e-05
1.22485398325e-05
1.22505679041e-05
1.22521377943e-05
1.22531388813e-05
1.22534851325e-05
1.22531491544e-05
1.22521572281e-05
1.22505941002e-05
1.2248570224e-05
1.22462695729e-05
1.22438977073e-05
1.22409085733e-05
1.22522123361e-05
1.22557479613e-05
1.22586452114e-05
1.22614230073e-05
1.22638574428e-05
1.22657360377e-05
1.22669313114e-05
1.2267344311e-05
1.22669413899e-05
1.22657550505e-05
1.22638830011e-05
1.22614524117e-05
1.22586773926e-05
1.22557837325e-05
1.22522510064e-05
1.226799532e-05
1.2272860619e-05
1.22768706079e-05
1.22806843966e-05
1.22840026979e-05
1.22865514919e-05
1.22881665013e-05
1.22887226014e-05
1.22881765273e-05
1.22865705111e-05
1.22840285766e-05
1.2280714629e-05
1.22769037373e-05
1.22728976867e-05
1.22680348648e-05
1.22892891231e-05
1.22963748883e-05
1.2302144517e-05
1.23075629752e-05
1.23122319291e-05
1.23157964003e-05
1.23180428028e-05
1.23188131645e-05
1.23180527387e-05
1.23158153784e-05
1.23122581103e-05
1.23075941136e-05
1.2302178867e-05
1.22964132781e-05
1.22893295302e-05
1.23166714942e-05
1.23266444072e-05
1.23345982373e-05
1.23419666852e-05
1.23482504427e-05
1.23530162431e-05
1.23560034016e-05
1.23570241138e-05
1.23560131752e-05
1.23530349735e-05
1.2348276522e-05
1.23419980767e-05
1.23346331538e-05
1.23266833722e-05
1.23167121575e-05
1.23493293432e-05
1.23625447283e-05
1.23728413906e-05
1.23822570035e-05
1.23902073822e-05
1.23961983089e-05
1.239993415e-05
1.2401206699e-05
1.239994358e-05
1.23962164439e-05
1.23902328315e-05
1.23822879389e-05
1.23728760524e-05
1.2362583541e-05
1.23493692279e-05
1.23859267131e-05
1.24024505463e-05
1.24150328315e-05
1.24263967928e-05
1.24359046297e-05
1.24430253314e-05
1.24474446512e-05
1.24489459077e-05
1.24474536165e-05
1.24430426248e-05
1.24359290275e-05
1.24264266708e-05
1.24150664769e-05
1.24024884196e-05
1.23859651114e-05
1.24250912502e-05
1.24447510866e-05
1.24594086201e-05
1.24724877094e-05
1.24833387021e-05
1.24914187729e-05
1.24964115041e-05
1.24981034251e-05
1.24964198946e-05
1.24914349942e-05
1.24833616939e-05
1.24725160384e-05
1.24594407133e-05
1.24447872879e-05
1.24251276987e-05
1.24655843386e-05
1.24880313371e-05
1.2504459365e-05
1.25189429298e-05
1.25308670449e-05
1.25396988028e-05
1.25451337235e-05
1.25469714215e-05
1.25451414855e-05
1.2539713829e-05
1.25308884153e-05
1.251896936e-05
1.25044894669e-05
1.24880653767e-05
1.24656182623e-05
1.25063605595e-05
1.25311300248e-05
1.25489753087e-05
1.25645208592e-05
1.25772299177e-05
1.25865960901e-05
1.25923377549e-05
1.25942751725e-05
1.25923448624e-05
1.25866098659e-05
1.25772495599e-05
1.25645452401e-05
1.25490032057e-05
1.25311616355e-05
1.25063917222e-05
1.25465814215e-05
1.25731407721e-05
1.25920324634e-05
1.26082985852e-05
1.26215113295e-05
1.26312024739e-05
1.26371213955e-05
1.26391146882e-05
1.26371278779e-05
1.26312150553e-05
1.26215292974e-05
1.26083209206e-05
1.25920581092e-05
1.25731698724e-05
1.25466096068e-05
1.25855818133e-05
1.26133683866e-05
1.26329443792e-05
1.26496178108e-05
1.26630773184e-05
1.2672902101e-05
1.26788803178e-05
1.26808895361e-05
1.26788862605e-05
1.26729136263e-05
1.26630938185e-05
1.26496383258e-05
1.26329679747e-05
1.26133950796e-05
1.25856071776e-05
1.26228165276e-05
1.26513051288e-05
1.26712461019e-05
1.26880545191e-05
1.27015296384e-05
1.27113130527e-05
1.27172423378e-05
1.27192309906e-05
1.27172478397e-05
1.27113237969e-05
1.27015450026e-05
1.26880736479e-05
1.26712680584e-05
1.26513298115e-05
1.2622839375e-05
1.26581915577e-05
1.26869827774e-05
1.27068843e-05
1.27235157064e-05
1.27367267108e-05
1.27462571888e-05
1.27520090412e-05
1.27539339341e-05
1.27520142537e-05
1.27462673623e-05
1.2736741332e-05
1.27235338677e-05
1.27069051951e-05
1.26870058513e-05
1.26582123984e-05
1.26935117799e-05
1.27204870461e-05
1.27397883106e-05
1.27558755357e-05
1.27684628579e-05
1.27774752795e-05
1.27828917228e-05
1.278470077e-05
1.27828966648e-05
1.27774850342e-05
1.27684769551e-05
1.27558932015e-05
1.27398084893e-05
1.27205089962e-05
1.2693531858e-05
1.4002306758e-05
1.40016781942e-05
1.40005306222e-05
1.39992475134e-05
1.39980107295e-05
1.39970097853e-05
1.39963594828e-05
1.39961333961e-05
1.39963586856e-05
1.39970086415e-05
1.39980100324e-05
1.39992476714e-05
1.4000528616e-05
1.40016756233e-05
1.40023010231e-05
1.40039207605e-05
1.40033688946e-05
1.40022940706e-05
1.40010785242e-05
1.39998917712e-05
1.3998924222e-05
1.39982923537e-05
1.39980719734e-05
1.39982913198e-05
1.39989225712e-05
1.39998902868e-05
1.40010775673e-05
1.40022912535e-05
1.40033649944e-05
1.40039141517e-05
1.40059609609e-05
1.40055151463e-05
1.40045276072e-05
1.40033986807e-05
1.40022776525e-05
1.40013569617e-05
1.40007526133e-05
1.40005413505e-05
1.40007517477e-05
1.40013555841e-05
1.40022764131e-05
1.40033978443e-05
1.40045252922e-05
1.4005511591e-05
1.40059546918e-05
1.40074322669e-05
1.40070802281e-05
1.40061576801e-05
1.40051057499e-05
1.40040476877e-05
1.40031752047e-05
1.40026009267e-05
1.40023999966e-05
1.40026003302e-05
1.4003174283e-05
1.40040468973e-05
1.40051052758e-05
1.40061560665e-05
1.40070775414e-05
1.40074263458e-05
1.40085858537e-05
1.40083744321e-05
1.40075475848e-05
1.40066128568e-05
1.40056577548e-05
1.40048667585e-05
1.40043446283e-05
1.40041616986e-05
1.4004344232e-05
1.40048661936e-05
1.40056573557e-05
1.40066127297e-05
1.40075464978e-05
1.40083725141e-05
1.40085803189e-05
1.40098032016e-05
1.40098225545e-05
1.40091559315e-05
1.40084066362e-05
1.40076161812e-05
1.40069548688e-05
1.4006515683e-05
1.40063613166e-05
1.40065154597e-05
1.40069545969e-05
1.40076160856e-05
1.40084067661e-05
1.40091552919e-05
1.40098210902e-05
1.40097981484e-05
1.40113267236e-05
1.40116763436e-05
1.40112394466e-05
1.40107419815e-05
1.40101742227e-05
1.4009686466e-05
1.40093576604e-05
1.40092411791e-05
1.40093575524e-05
1.40096863908e-05
1.40101743259e-05
1.40107422612e-05
1.40112390921e-05
1.40116751991e-05
1.40113219278e-05
1.40132905905e-05
1.40140558374e-05
1.40139059892e-05
1.40137086541e-05
1.40134045956e-05
1.40131201479e-05
1.40129198627e-05
1.40128473557e-05
1.40129198126e-05
1.40131201579e-05
1.40134047403e-05
1.40137088881e-05
1.40139056595e-05
1.40140547692e-05
1.40132857643e-05
1.40157481803e-05
1.40169842852e-05
1.40171581729e-05
1.40172844715e-05
1.4017263187e-05
1.40171946566e-05
1.40171300614e-05
1.40171038553e-05
1.40171300133e-05
1.40171946416e-05
1.40172632377e-05
1.40172844948e-05
1.40171576245e-05
1.40169830243e-05
1.40157431288e-05
1.40186882521e-05
1.40204115225e-05
1.40209223633e-05
1.40213709559e-05
1.40216301418e-05
1.40217740099e-05
1.40218422094e-05
1.40218612113e-05
1.40218421066e-05
1.40217738672e-05
1.40216299481e-05
1.40213705873e-05
1.40209213644e-05
1.40204097818e-05
1.4018682742e-05
1.40220524421e-05
1.40242379599e-05
1.40250764616e-05
1.40258256598e-05
1.40263457429e-05
1.40266859301e-05
1.40268763009e-05
1.40269368386e-05
1.4026876109e-05
1.40266855953e-05
1.40263452282e-05
1.40258247983e-05
1.40250748883e-05
1.40242355848e-05
1.40220462966e-05
1.40257434175e-05
1.40283303677e-05
1.4029470652e-05
1.40304865877e-05
1.40312371009e-05
1.4031749733e-05
1.40320470698e-05
1.40321438906e-05
1.40320467762e-05
1.40317491714e-05
1.40312362182e-05
1.40304852049e-05
1.40294684506e-05
1.40283273286e-05
1.40257366711e-05
1.40296273475e-05
1.40325439861e-05
1.40339548298e-05
1.40351970023e-05
1.40361404101e-05
1.40367971427e-05
1.40371836947e-05
1.40373108777e-05
1.4037183292e-05
1.4036796367e-05
1.40361392027e-05
1.40351951373e-05
1.40339520633e-05
1.40325403014e-05
1.40296199849e-05
1.40336954268e-05
1.40368755637e-05
1.40384643586e-05
1.40398605638e-05
1.40409342301e-05
1.40416904003e-05
1.40421397308e-05
1.40422882889e-05
1.40421392224e-05
1.40416894554e-05
1.40409327209e-05
1.40398583137e-05
1.40384611397e-05
1.40368713085e-05
1.40336876395e-05
1.40386887038e-05
1.40412207248e-05
1.40428258377e-05
1.40442793744e-05
1.40454020356e-05
1.40462022483e-05
1.40466812675e-05
1.40468402766e-05
1.40466806525e-05
1.40462010679e-05
1.40454002531e-05
1.40442767555e-05
1.40428221457e-05
1.40412158124e-05
1.40386807427e-05
1.09034869761e-05
1.09040164246e-05
1.09047206579e-05
1.09054552415e-05
1.09061276793e-05
1.09066631821e-05
1.09070077518e-05
1.09071283182e-05
1.0907012366e-05
1.09066715954e-05
1.0906138109e-05
1.09054648743e-05
1.0904727823e-05
1.09040192028e-05
1.09034891834e-05
1.09042078091e-05
1.09047548861e-05
1.09054819279e-05
1.09062398937e-05
1.09069367036e-05
1.0907493312e-05
1.09078522557e-05
1.09079780201e-05
1.09078570074e-05
1.09075019636e-05
1.09069473865e-05
1.09062497022e-05
1.09054887771e-05
1.09047575106e-05
1.09042089526e-05
1.09047290063e-05
1.090528014e-05
1.09060162007e-05
1.09067824896e-05
1.09074905734e-05
1.09080578809e-05
1.090842441e-05
1.09085528593e-05
1.09084289006e-05
1.09080660623e-05
1.09075007048e-05
1.09067919849e-05
1.09060228502e-05
1.09052832794e-05
1.0904730128e-05
1.09052103554e-05
1.09057682795e-05
1.09065158558e-05
1.09072880854e-05
1.09080035813e-05
1.09085778929e-05
1.09089493366e-05
1.09090794455e-05
1.09089534424e-05
1.09085853716e-05
1.09080128603e-05
1.09072969114e-05
1.09065221854e-05
1.09057715524e-05
1.09052115301e-05
1.09057044516e-05
1.09062731199e-05
1.09070376043e-05
1.09078174906e-05
1.09085407871e-05
1.09091220714e-05
1.0909498221e-05
1.09096298968e-05
1.09095019466e-05
1.09091288532e-05
1.09085492447e-05
1.0907825608e-05
1.09070436189e-05
1.09062763548e-05
1.09057056573e-05
1.09062169911e-05
1.09068046926e-05
1.09075957725e-05
1.09083903089e-05
1.09091269772e-05
1.09097192153e-05
1.09101024863e-05
1.09102364907e-05
1.09101057712e-05
1.09097251944e-05
1.09091344391e-05
1.09083975317e-05
1.09076011829e-05
1.09068078972e-05
1.09062178544e-05
1.09067732254e-05
1.09073974833e-05
1.09082295799e-05
1.09090514398e-05
1.09098116442e-05
1.09104222133e-05
1.09108170559e-05
1.09109548613e-05
1.09108198907e-05
1.09104273798e-05
1.09098181026e-05
1.0909057752e-05
1.09082343293e-05
1.09074005517e-05
1.09067738244e-05
1.09074115804e-05
1.09080971246e-05
1.090898666e-05
1.09098505034e-05
1.09106452503e-05
1.09112817108e-05
1.09116924703e-05
1.09118354812e-05
1.09116948377e-05
1.09112860244e-05
1.09106506622e-05
1.09098558378e-05
1.09089907646e-05
1.09080999269e-05
1.09074120652e-05
1.0908165611e-05
1.0908939026e-05
1.09098999446e-05
1.09108171874e-05
1.09116539734e-05
1.09123207128e-05
1.0912749588e-05
1.09128984536e-05
1.09127515212e-05
1.09123242366e-05
1.09116584174e-05
1.09108216055e-05
1.09099034309e-05
1.09089415554e-05
1.09081658705e-05
1.09090548006e-05
1.09099396279e-05
1.09109794748e-05
1.09119546959e-05
1.09128345658e-05
1.09135306745e-05
1.09139764351e-05
1.09141306162e-05
1.09139779727e-05
1.09135334858e-05
1.09128381264e-05
1.09119582932e-05
1.09109824037e-05
1.09099419275e-05
1.09090548566e-05
1.09100836387e-05
1.09110959623e-05
1.0912213909e-05
1.09132433703e-05
1.09141599472e-05
1.09148788123e-05
1.09153365931e-05
1.09154943518e-05
1.09153378076e-05
1.09148810353e-05
1.09141627871e-05
1.09132462619e-05
1.09122163392e-05
1.09110979772e-05
1.09100833868e-05
1.09112376798e-05
1.09123856933e-05
1.09135743959e-05
1.09146476266e-05
1.09155886503e-05
1.09163191029e-05
1.09167812918e-05
1.09169399132e-05
1.09167822638e-05
1.0916320888e-05
1.09155909327e-05
1.09146499907e-05
1.09135764186e-05
1.09123874068e-05
1.09112370593e-05
1.09124824222e-05
1.09137756071e-05
1.09150263575e-05
1.09161280167e-05
1.09170770414e-05
1.09178051737e-05
1.09182623967e-05
1.0918418725e-05
1.09182632065e-05
1.09178066546e-05
1.0917078982e-05
1.09161300102e-05
1.09150280974e-05
1.09137770386e-05
1.09124814503e-05
1.09138760375e-05
1.09153269193e-05
1.09165885096e-05
1.09176781864e-05
1.09186014145e-05
1.09193017361e-05
1.09197383801e-05
1.09198869753e-05
1.09197390812e-05
1.0919303085e-05
1.09186031433e-05
1.09176800115e-05
1.09165900964e-05
1.09153280952e-05
1.09138746381e-05
1.09161060325e-05
1.09172208784e-05
1.09183278003e-05
1.09192916006e-05
1.09201046317e-05
1.09207180088e-05
1.09210986508e-05
1.09212279283e-05
1.09210993178e-05
1.09207192635e-05
1.09201063265e-05
1.09192933916e-05
1.09183293463e-05
1.09172218745e-05
1.09161047126e-05
1.00428331624e-05
1.0042667691e-05
1.00424561448e-05
1.00421916401e-05
1.00419401136e-05
1.00417319173e-05
1.00415945354e-05
1.00415451763e-05
1.0041590729e-05
1.00417251329e-05
1.00419318443e-05
1.00421819882e-05
1.00424434913e-05
1.00426541012e-05
1.00428153306e-05
1.00433799193e-05
1.00432359381e-05
1.00430425608e-05
1.00427928346e-05
1.00425522649e-05
1.00423510858e-05
1.0042217554e-05
1.00421693856e-05
1.00422136634e-05
1.00423441059e-05
1.00425436308e-05
1.00427828231e-05
1.0043029703e-05
1.00432215262e-05
1.00433616044e-05
1.00440103489e-05
1.00438856555e-05
1.00437128956e-05
1.00434774358e-05
1.00432473869e-05
1.00430527021e-05
1.00429227774e-05
1.00428757999e-05
1.00429189905e-05
1.00430458301e-05
1.00432387017e-05
1.00434673263e-05
1.00437003675e-05
1.00438714045e-05
1.00439925435e-05
1.00444834841e-05
1.00443616854e-05
1.00441984651e-05
1.00439661142e-05
1.00437376916e-05
1.00435430005e-05
1.00434127937e-05
1.00433657473e-05
1.00434091776e-05
1.00435363499e-05
1.00437290591e-05
1.00439560437e-05
1.00441863569e-05
1.00443480269e-05
1.00444662111e-05
1.00448194164e-05
1.00446911351e-05
1.00445312686e-05
1.00442962281e-05
1.00440653402e-05
1.00438681325e-05
1.00437362241e-05
1.00436886568e-05
1.00437327882e-05
1.00438617593e-05
1.00440569354e-05
1.00442863809e-05
1.00445196028e-05
1.0044678177e-05
1.00448027118e-05
1.00450636786e-05
1.00449278622e-05
1.00447714067e-05
1.00445345792e-05
1.00443028986e-05
1.00441051017e-05
1.0043972946e-05
1.00439254065e-05
1.00439697228e-05
1.00440990746e-05
1.00442948232e-05
1.00445250682e-05
1.00447602689e-05
1.00449153951e-05
1.00450477625e-05
1.00452509004e-05
1.00451130964e-05
1.00449664335e-05
1.00447348086e-05
1.00445092675e-05
1.00443169471e-05
1.00441885926e-05
1.00441425088e-05
1.00441855961e-05
1.00443113125e-05
1.00445016302e-05
1.00447257423e-05
1.00449558965e-05
1.00451011867e-05
1.00452356569e-05
1.00454152925e-05
1.00452881032e-05
1.0045162941e-05
1.00449487029e-05
1.00447405561e-05
1.00445630059e-05
1.00444445237e-05
1.0044402008e-05
1.00444417623e-05
1.00445577814e-05
1.00447333813e-05
1.00449400789e-05
1.00451529095e-05
1.00452766927e-05
1.00454005263e-05
1.0045592382e-05
1.00454942195e-05
1.00454056488e-05
1.00452242341e-05
1.00450471818e-05
1.00448953747e-05
1.00447937928e-05
1.00447572646e-05
1.00447912582e-05
1.00448905462e-05
1.00450404742e-05
1.00452160544e-05
1.00453960563e-05
1.00454832348e-05
1.00455780523e-05
1.00458151839e-05
1.0045767463e-05
1.00457310913e-05
1.00455982635e-05
1.00454658262e-05
1.00453503173e-05
1.00452723249e-05
1.00452440501e-05
1.00452699893e-05
1.00453458419e-05
1.00454595182e-05
1.00455904427e-05
1.0045721812e-05
1.00457567386e-05
1.00458011977e-05
1.00461095041e-05
1.0046132918e-05
1.00461618269e-05
1.00460907693e-05
1.00460139462e-05
1.00459431878e-05
1.00458940236e-05
1.00458757868e-05
1.00458918583e-05
1.00459390052e-05
1.00460079863e-05
1.00460832398e-05
1.00461528008e-05
1.0046122382e-05
1.00460957929e-05
1.00464874436e-05
1.00465993095e-05
1.0046702378e-05
1.0046702101e-05
1.00466883312e-05
1.00466678263e-05
1.0046650935e-05
1.00466438308e-05
1.00466489032e-05
1.00466638806e-05
1.00466826133e-05
1.00466948017e-05
1.00466935264e-05
1.00465889664e-05
1.00464740569e-05
1.00469464368e-05
1.00471609926e-05
1.0047342296e-05
1.00474164813e-05
1.00474690334e-05
1.00475014677e-05
1.00475183144e-05
1.00475229374e-05
1.00475163864e-05
1.00474976622e-05
1.00474635347e-05
1.00474093072e-05
1.0047333588e-05
1.00471507859e-05
1.00469333535e-05
1.00475387281e-05
1.00478634084e-05
1.00480934739e-05
1.00482261101e-05
1.00483349589e-05
1.00484132191e-05
1.00484597977e-05
1.00484745751e-05
1.00484579121e-05
1.00484095689e-05
1.00483295378e-05
1.00482190865e-05
1.00480848349e-05
1.00478533125e-05
1.00475259977e-05
1.00486619129e-05
1.00487914686e-05
1.00489683784e-05
1.00490989895e-05
1.0049221637e-05
1.00493158583e-05
1.00493738961e-05
1.00493929019e-05
1.00493720629e-05
1.00493122254e-05
1.0049216318e-05
1.00490919577e-05
1.00489597404e-05
1.00487812128e-05
1.00486494378e-05
8.41756913353e-06
8.41767903543e-06
8.4178241837e-06
8.41796951489e-06
8.4181023978e-06
8.41820716006e-06
8.41827500356e-06
8.41829976802e-06
8.41827911888e-06
8.41821471457e-06
8.41811205018e-06
8.41797951319e-06
8.41783328695e-06
8.41768536907e-06
8.41757563718e-06
8.41795843682e-06
8.41808157219e-06
8.41824093743e-06
8.41839884308e-06
8.418543311e-06
8.41865736306e-06
8.41873128098e-06
8.41875821879e-06
8.41873556798e-06
8.41866522909e-06
8.41855332934e-06
8.41840914407e-06
8.41825004232e-06
8.41808804074e-06
8.41796416091e-06
8.41832807755e-06
8.41846269188e-06
8.41863512416e-06
8.41880341047e-06
8.41895764726e-06
8.41907923199e-06
8.41915794651e-06
8.4191864473e-06
8.41916198145e-06
8.41908663793e-06
8.41896710542e-06
8.41881328165e-06
8.41864389421e-06
8.4184695293e-06
8.4183337332e-06
8.41865447171e-06
8.41879979882e-06
8.41898441183e-06
8.41916141563e-06
8.41932359431e-06
8.41945118185e-06
8.41953364341e-06
8.41956330021e-06
8.41953732725e-06
8.4194579491e-06
8.41933225983e-06
8.41917054982e-06
8.41899268694e-06
8.41880654198e-06
8.41866016168e-06
8.4189610895e-06
8.4191172597e-06
8.41931443517e-06
8.41949969068e-06
8.41966914478e-06
8.41980217564e-06
8.41988796875e-06
8.41991864909e-06
8.41989131805e-06
8.41980833284e-06
8.41967707817e-06
8.41950812641e-06
8.41932228971e-06
8.41912379758e-06
8.4189667447e-06
8.41925710502e-06
8.41942461626e-06
8.41963554771e-06
8.41982900971e-06
8.42000561946e-06
8.42014393641e-06
8.42023294751e-06
8.42026459708e-06
8.42023595169e-06
8.42014946973e-06
8.42001277586e-06
8.41983667264e-06
8.41964276338e-06
8.41943097427e-06
8.41926236806e-06
8.41954646483e-06
8.41972746598e-06
8.41995357618e-06
8.42015606474e-06
8.4203404071e-06
8.42048443295e-06
8.42057690302e-06
8.42060960354e-06
8.42057956492e-06
8.420489355e-06
8.42034681163e-06
8.42016300361e-06
8.41996018311e-06
8.41973359036e-06
8.41955141603e-06
8.41983524957e-06
8.42003353297e-06
8.42027696252e-06
8.42049024944e-06
8.4206836012e-06
8.42083433674e-06
8.42093087039e-06
8.42096483727e-06
8.42093320128e-06
8.42083866129e-06
8.42068927154e-06
8.42049646597e-06
8.42028300476e-06
8.42003932371e-06
8.41984004971e-06
8.42013150955e-06
8.42035204882e-06
8.42061568859e-06
8.4208421916e-06
8.421046375e-06
8.42120522746e-06
8.42130668705e-06
8.42134222336e-06
8.42130871843e-06
8.42120901152e-06
8.42105139348e-06
8.42084777846e-06
8.42062126004e-06
8.42035756506e-06
8.42013606766e-06
8.42044365489e-06
8.42069280458e-06
8.42097965288e-06
8.42122181372e-06
8.42143859226e-06
8.42160684948e-06
8.42171403135e-06
8.42175140177e-06
8.42171579457e-06
8.42161016035e-06
8.42144302441e-06
8.4212268527e-06
8.42098481964e-06
8.42069810311e-06
8.42044803004e-06
8.4207802493e-06
8.42106478776e-06
8.42137691853e-06
8.42163633286e-06
8.42186662796e-06
8.42204495959e-06
8.42215820336e-06
8.4221975458e-06
8.42215975127e-06
8.42204787849e-06
8.42187059627e-06
8.4216409124e-06
8.42138174885e-06
8.421069852e-06
8.42078435459e-06
8.42114603073e-06
8.4214726534e-06
8.42181091972e-06
8.42208797143e-06
8.42233177422e-06
8.42251995325e-06
8.42263910979e-06
8.42268032837e-06
8.42264048637e-06
8.42252258368e-06
8.42233535341e-06
8.42209220547e-06
8.42181546085e-06
8.42147746528e-06
8.42114980928e-06
8.42154156764e-06
8.42191725878e-06
8.42228120863e-06
8.4225747527e-06
8.42283092542e-06
8.42302817219e-06
8.42315248841e-06
8.42319542803e-06
8.42315375549e-06
8.42303054804e-06
8.42283427205e-06
8.42257867818e-06
8.4222855224e-06
8.42192180856e-06
8.42154502418e-06
8.42201934863e-06
8.42244926726e-06
8.42281459384e-06
8.4231096941e-06
8.4233678942e-06
8.42356625765e-06
8.42369101252e-06
8.42373388038e-06
8.42369216843e-06
8.42356853292e-06
8.42337100308e-06
8.42311347236e-06
8.42281868901e-06
8.42245354048e-06
8.422022343e-06
8.42293987048e-06
8.42320293738e-06
8.42347706069e-06
8.42371436977e-06
8.42392996482e-06
8.42409697529e-06
8.42420199214e-06
8.42423816428e-06
8.42420311868e-06
8.42409912061e-06
8.42393300783e-06
8.42371799668e-06
8.42348103554e-06
8.42320691757e-06
8.4229427543e-06
7.17718274261e-06
7.17718063726e-06
7.17718044117e-06
7.17716473192e-06
7.17714570677e-06
7.17712673686e-06
7.17711314046e-06
7.17710765262e-06
7.17711149314e-06
7.17712368931e-06
7.17714170226e-06
7.17716074805e-06
7.17717734735e-06
7.17717916924e-06
7.17717800281e-06
7.17749185295e-06
7.17750110177e-06
7.17751095526e-06
7.17750397381e-06
7.17749206886e-06
7.17747828946e-06
7.17746779906e-06
7.17746333467e-06
7.17746609677e-06
7.17747513157e-06
7.17748794868e-06
7.17749986898e-06
7.17750778108e-06
7.17749921482e-06
7.17748701463e-06
7.1778064732e-06
7.17782467624e-06
7.17784327779e-06
7.17784290451e-06
7.17783649902e-06
7.17782666689e-06
7.17781854775e-06
7.17781488704e-06
7.17781689643e-06
7.17782362891e-06
7.17783258983e-06
7.17783902854e-06
7.17784032483e-06
7.17782259192e-06
7.1778018531e-06
7.178055392e-06
7.17807669375e-06
7.17810040668e-06
7.17810236547e-06
7.17809801726e-06
7.17808956014e-06
7.17808222601e-06
7.17807885297e-06
7.17808068736e-06
7.17808676975e-06
7.17809451645e-06
7.17809897536e-06
7.17809782664e-06
7.17807484939e-06
7.17805094895e-06
7.17825494572e-06
7.17827621228e-06
7.1783030758e-06
7.1783051589e-06
7.17830104861e-06
7.17829263352e-06
7.17828529051e-06
7.17828195698e-06
7.17828391035e-06
7.17829016005e-06
7.17829801386e-06
7.17830230819e-06
7.17830091338e-06
7.17827475752e-06
7.17825080796e-06
7.17842017212e-06
7.1784407566e-06
7.17847008782e-06
7.17847176812e-06
7.1784675199e-06
7.17845897329e-06
7.17845155895e-06
7.17844826816e-06
7.17845038237e-06
7.17845689628e-06
7.17846504896e-06
7.17846955176e-06
7.17846844709e-06
7.17843955895e-06
7.17841656205e-06
7.17856058177e-06
7.17858118095e-06
7.178613905e-06
7.17861611283e-06
7.17861255659e-06
7.17860464081e-06
7.1785976871e-06
7.17859464291e-06
7.17859673447e-06
7.17860298812e-06
7.17861065418e-06
7.17861450181e-06
7.17861280037e-06
7.17858027227e-06
7.17855738601e-06
7.17868531102e-06
7.17870854194e-06
7.17874693519e-06
7.17875182367e-06
7.1787509094e-06
7.17874527513e-06
7.17873988122e-06
7.17873747092e-06
7.17873915785e-06
7.17874404912e-06
7.17874955553e-06
7.17875075151e-06
7.17874623886e-06
7.17870785781e-06
7.17868231058e-06
7.17880398421e-06
7.17883441734e-06
7.17888178015e-06
7.1788925755e-06
7.17889714227e-06
7.17889610025e-06
7.1788937714e-06
7.17889250797e-06
7.17889325323e-06
7.17889524382e-06
7.17889623995e-06
7.17889191706e-06
7.17888135056e-06
7.17883384801e-06
7.17880112133e-06
7.17892646557e-06
7.17897005407e-06
7.17903018926e-06
7.17905060738e-06
7.17906388279e-06
7.17907006422e-06
7.17907249762e-06
7.17907296186e-06
7.17907214391e-06
7.17906949457e-06
7.17906330956e-06
7.17905019435e-06
7.17902984572e-06
7.17896941102e-06
7.17892361138e-06
7.17906178514e-06
7.17912512386e-06
7.17920169011e-06
7.17923527618e-06
7.17926039185e-06
7.17927632996e-06
7.17928516049e-06
7.17928789499e-06
7.17928491112e-06
7.17927593935e-06
7.17925999155e-06
7.17923494275e-06
7.17920129182e-06
7.17912429994e-06
7.17905886006e-06
7.17921560249e-06
7.17930546633e-06
7.17940153353e-06
7.17945131252e-06
7.1794910666e-06
7.17951907775e-06
7.17953578254e-06
7.17954127444e-06
7.17953558063e-06
7.17951873513e-06
7.17949069006e-06
7.17945089199e-06
7.17940092897e-06
7.17930441061e-06
7.17921260875e-06
7.17939032169e-06
7.17951331169e-06
7.17963085476e-06
7.1796988643e-06
7.1797557353e-06
7.17979791848e-06
7.17982387218e-06
7.17983256114e-06
7.17982364137e-06
7.17979753544e-06
7.17975522299e-06
7.1796982189e-06
7.17962994237e-06
7.17951193453e-06
7.17938722224e-06
7.17962591512e-06
7.17978663253e-06
7.17990952236e-06
7.1799878272e-06
7.18005749298e-06
7.18011108721e-06
7.18014455863e-06
7.18015584167e-06
7.18014425453e-06
7.18011053659e-06
7.18005673495e-06
7.17998681159e-06
7.17990817262e-06
7.17978481947e-06
7.17962266295e-06
7.18018790519e-06
7.18022478419e-06
7.18028590158e-06
7.18033311348e-06
7.18038547117e-06
7.18042832302e-06
7.18045569657e-06
7.18046493918e-06
7.1804552608e-06
7.18042750732e-06
7.1803843097e-06
7.18033156463e-06
7.18028392824e-06
7.18022228088e-06
7.18018430518e-06
5.9387424704e-06
5.93875682825e-06
5.93877952003e-06
5.93879835763e-06
5.93881567216e-06
5.93882885821e-06
5.93883745397e-06
5.93884116797e-06
5.93883999442e-06
5.93883383975e-06
5.93882284442e-06
5.93880682618e-06
5.9387879909e-06
5.9387631486e-06
5.93874763823e-06
5.93897419324e-06
5.93899680186e-06
5.93902817659e-06
5.93905427909e-06
5.93907786382e-06
5.93909580946e-06
5.93910739793e-06
5.93911216555e-06
5.93911002851e-06
5.9391009621e-06
5.93908526838e-06
5.93906302585e-06
5.93903686891e-06
5.93900354034e-06
5.93897890782e-06
5.93922293074e-06
5.93925412457e-06
5.93929495595e-06
5.9393280201e-06
5.93935757495e-06
5.9393798489e-06
5.9393941283e-06
5.93939978311e-06
5.93939668624e-06
5.9393848458e-06
5.93936470484e-06
5.93933647825e-06
5.93930336762e-06
5.93926111876e-06
5.93922769084e-06
5.93943269325e-06
5.93946984237e-06
5.93951782137e-06
5.93955558626e-06
5.93958903334e-06
5.93961403644e-06
5.93962997784e-06
5.93963615398e-06
5.93963241686e-06
5.93961878777e-06
5.93959577761e-06
5.9395636312e-06
5.93952599069e-06
5.93947691227e-06
5.93943779327e-06
5.93961332828e-06
5.93965465109e-06