/*--------------------------------*- C++ -*----------------------------------*\
  =========                 |
  \\      /  F ield         | OpenFOAM: The Open Source CFD Toolbox
   \\    /   O peration     | Website:  https://openfoam.org
    \\  /    A nd           | Version:  7
     \\/     M anipulation  |
\*---------------------------------------------------------------------------*/
FoamFile
{
    version     2.0;
    format      ascii;
    class       volVectorField;
    location    "0.98";
    object      U;
}
// * * * * * * * * * * * * * * * * * * * * * * * * * * * * * * * * * * * * * //

dimensions      [0 1 -1 0 0 0 0];

internalField   nonuniform List<vector> 
22500
(
(3.17100335917e-05 3.55330755901e-05 0.00069860701978)
(2.94984665336e-05 3.99386567724e-05 0.00073277642297)
(2.57029357515e-05 4.44060779752e-05 0.000763887341873)
(2.15666961751e-05 4.81526681113e-05 0.00079066269807)
(1.67341751268e-05 5.12398225292e-05 0.000812316127129)
(1.14452900642e-05 5.35253759048e-05 0.000828220848008)
(5.81417051507e-06 5.49315656662e-05 0.000837945364681)
(5.67001049593e-09 5.54068386619e-05 0.000841231828696)
(-5.80307270564e-06 5.49322169955e-05 0.000837945524346)
(-1.14348719075e-05 5.35265788806e-05 0.00082822123299)
(-1.67248900262e-05 5.12413141611e-05 0.000812316764622)
(-2.1558979331e-05 4.81541255005e-05 0.000790663510505)
(-2.5697337598e-05 4.44069631435e-05 0.000763888279721)
(-2.94948107327e-05 3.99390381304e-05 0.000732778858811)
(-3.17084574336e-05 3.55329729944e-05 0.000698623037378)
(9.10786358672e-05 0.000102315426223 0.00170422658984)
(8.45547556054e-05 0.00011464588172 0.00177025855464)
(7.39138028459e-05 0.000126982858429 0.00182937006152)
(6.19168865757e-05 0.000137438676648 0.0018795319006)
(4.80446607844e-05 0.000146052473902 0.00191961804017)
(3.28446989626e-05 0.000152432176594 0.00194879483172)
(1.66791354485e-05 0.000156359061105 0.00196652281376)
(1.31462818639e-08 0.000157685491035 0.00197248940398)
(-1.66533506283e-05 0.000156360183704 0.0019665234782)
(-3.28203787233e-05 0.000152434211215 0.00194879629286)
(-4.80227684595e-05 0.000146054881161 0.00191962028684)
(-6.1898390286e-05 0.000137440807984 0.00187953462854)
(-7.38997595018e-05 0.0001269837045 0.00182937298942)
(-8.45448911088e-05 0.000114645713204 0.00177026558164)
(-9.10737455801e-05 0.000102314235482 0.00170426310124)
(0.000132994751933 0.000149396122705 0.00243432459613)
(0.000122816123601 0.000166184754435 0.0025120501877)
(0.000107028770103 0.000182884732514 0.00258051023451)
(8.93011838054e-05 0.000196962872809 0.00263789074612)
(6.90951647254e-05 0.000208500858432 0.002683260834)
(4.71304680806e-05 0.000217012923233 0.002716014986)
(2.39008154281e-05 0.000222239023162 0.00273580268965)
(1.80081407756e-08 0.000224001682879 0.00274243787772)
(-2.38654262394e-05 0.00022223991664 0.00273580348694)
(-4.70969116537e-05 0.000217014454594 0.00271601676351)
(-6.90646441281e-05 0.000208502410876 0.00268326350629)
(-8.92749028882e-05 0.000196963685502 0.00263789377866)
(-0.000107008003858 0.000182883809242 0.00258051284823)
(-0.00012280056531 0.000166182613976 0.00251205679357)
(-0.000132985927882 0.000149392870235 0.00243436881085)
(0.000161799381715 0.000181694692022 0.00296761484875)
(0.000148598112947 0.000200482304617 0.00304550303027)
(0.000128975038868 0.000219164676374 0.0031128684408)
(0.000107155980607 0.000234748816658 0.00316857918308)
(8.26413620203e-05 0.000247447003403 0.00321212936209)
(5.62320099031e-05 0.000256767672348 0.003243293213)
(2.84733232902e-05 0.000262471936233 0.00326200278729)
(2.10254076206e-08 0.000264392372455 0.00326825226239)
(-2.84319552529e-05 0.000262472479232 0.00326200325691)
(-5.6192655578e-05 0.000256768491806 0.00324329433318)
(-8.26053414129e-05 0.000247447495932 0.00321213092355)
(-0.000107124568756 0.000234748221525 0.00316858034703)
(-0.000128949531396 0.000219162112512 0.0031128675973)
(-0.000148578113024 0.000200478453711 0.00304550315824)
(-0.000161786829188 0.000181689638099 0.00296765051989)
(0.000181039517197 0.000203294044483 0.00335655975049)
(0.000165391914308 0.000222464709114 0.00342811311319)
(0.000142948225433 0.000241615997778 0.00348869633093)
(0.000118278064426 0.000257393536336 0.0035380231173)
(9.09305878438e-05 0.000270172500531 0.00357608536959)
(6.17248878535e-05 0.000279503750536 0.00360304842519)
(3.12090395094e-05 0.000285195764454 0.00361912043016)
(2.2771285123e-08 0.000287108581815 0.00362446608334)
(-3.11642021924e-05 0.000285195979016 0.00361912036182)
(-6.16821384213e-05 0.000279503926058 0.00360304840218)
(-9.08912869974e-05 0.000270172087213 0.0035760849843)
(-0.000118243479091 0.000257391842379 0.0035380210727)
(-0.000142919539312 0.000241612247282 0.00348868981574)
(-0.000165368635596 0.000222459723639 0.00342810266751)
(-0.000181023700168 0.000203287772144 0.00335657708787)
(0.000192671187726 0.00021636328228 0.00363813102449)
(0.000175105042256 0.0002347644725 0.00370001548875)
(0.000150693089079 0.000253327735904 0.00375109635824)
(0.000124189029617 0.000268416755253 0.00379191258304)
(9.51831565253e-05 0.00028056307978 0.00382292844395)
(6.44638972287e-05 0.00028938721466 0.00384463922052)
(3.25485762719e-05 0.000294752679519 0.00385747139587)
(2.36624845888e-08 0.000296552696252 0.00386171865045)
(-3.25019567508e-05 0.000294752641975 0.0038574707625)
(-6.44193737608e-05 0.000289386912058 0.00384463794964)
(-9.51420816555e-05 0.000280562034402 0.00382292584584)
(-0.000124152619424 0.000268414372149 0.00379190672406)
(-0.000150662340027 0.000253323366275 0.0037510829247)
(-0.000175079353913 0.000234759026905 0.00369999241762)
(-0.000192652675857 0.000216356578686 0.00363812717348)
(0.000198208798134 0.000222550720979 0.00383953974711)
(0.000179210811822 0.000239387638679 0.00389048999647)
(0.000153558408938 0.000256637754306 0.00393125858281)
(0.000126057564314 0.000270465077951 0.00396308432519)
(9.63316226038e-05 0.000281526991679 0.00398681800951)
(6.50997715047e-05 0.000289524900658 0.004003190447)
(3.28265110474e-05 0.00029437345542 0.00401276763739)
(2.4016227888e-08 0.000295997611072 0.00401591895115)
(-3.27791756807e-05 0.000294373296589 0.00401276649749)
(-6.50545068659e-05 0.000289524382116 0.00400318800902)
(-9.62897467442e-05 0.000281525717221 0.00398681321831)
(-0.000126020216358 0.000270462549576 0.00396307444775)
(-0.000153526383954 0.000256633458076 0.00393123763861)
(-0.000179183378875 0.000239382511326 0.00389045376663)
(-0.000198188119295 0.000222544445299 0.0038395155657)
(0.000199003516509 0.000223349287096 0.00398136282853)
(0.000179016862529 0.000238131381895 0.00402145835505)
(0.000152735064022 0.0002536112473 0.00405230494723)
(0.000124907174258 0.000265846333274 0.00407566897995)
(9.51866601381e-05 0.000275575903299 0.00409267362517)
(6.41949084621e-05 0.000282581498035 0.0041041841755)
(3.2330880585e-05 0.000286817641959 0.00411082721321)
(2.40674584116e-08 0.000288234947771 0.00411299648969)
(-3.22834314389e-05 0.000286817517752 0.00411082563297)
(-6.41494894729e-05 0.000282581080249 0.00410418067599)
(-9.51445413444e-05 0.000275574868858 0.00409266671304)
(-0.000124869410499 0.000265844277501 0.00407565500402)
(-0.000152702245913 0.000253607768918 0.00405227625869)
(-0.000178988168768 0.000238127409077 0.00402140942675)
(-0.000198981144599 0.000223344290575 0.00398132099569)
(0.000196196029444 0.000220033037241 0.00407935915165)
(0.000175613228195 0.000232501329725 0.00410950471793)
(0.000149205758598 0.000245948305328 0.00413150923015)
(0.000121575112298 0.000256430288017 0.00414748913328)
(9.24057324765e-05 0.000264720759917 0.00415872461966)
(6.22023106752e-05 0.000270672460767 0.00416612571508)
(3.12926482928e-05 0.000274264925029 0.00417031389056)
(2.39953911248e-08 0.000275465992821 0.00417166628847)
(-3.1245329497e-05 0.000274265004192 0.00417031189419)
(-6.21569754911e-05 0.000270672482542 0.00416612118402)
(-9.23635956924e-05 0.000264720463917 0.00415871557137)
(-0.00012153714668 0.000256429344424 0.00414747094501)
(-0.000149172373474 0.000245946398523 0.00413147274123)
(-0.000175583568172 0.000232499313369 0.00410944418304)
(-0.000196172361951 0.000220030124079 0.00407930316052)
(0.000190708348829 0.000213637629022 0.00414561490487)
(0.000169865506125 0.000223692528863 0.00416715688393)
(0.000143741961419 0.000234971618775 0.00418171984252)
(0.00011671409358 0.000243646090657 0.00419161459461)
(8.84972275116e-05 0.000250479285588 0.00419818043502)
(5.94697223851e-05 0.000255379752657 0.00420230355864)
(2.9888212095e-05 0.000258336123583 0.00420455415827)
(2.39405236073e-08 0.000259324488523 0.0042052655908)
(-2.98409862456e-05 0.00025833656954 0.00420455171592)
(-5.94244250762e-05 0.000255380538514 0.00420229793209)
(-8.84550196882e-05 0.000250480206261 0.00419816914103)
(-0.00011667587294 0.000243646867564 0.00419159206906)
(-0.000143707998166 0.000234971984044 0.00418167570738)
(-0.000169834982355 0.000223693196263 0.00416708640257)
(-0.000190683652982 0.000213637518623 0.00414554875665)
(0.000183271857306 0.000204992309613 0.00418932890374)
(0.000162445987861 0.000212629303037 0.00420377491274)
(0.000136937801961 0.000221680784854 0.00421236253527)
(0.000110825501582 0.000228555459771 0.00421747630139)
(8.38487695479e-05 0.000233966184691 0.00422044197033)
(5.62599677192e-05 0.000237854793133 0.00422207647921)
(2.8250030357e-05 0.000240203848533 0.00422287233795)
(2.40164429947e-08 0.000240989890829 0.00422310544926)
(-2.8202629958e-05 0.000240204803121 0.00422286940114)
(-5.62144256407e-05 0.000237856628073 0.00422206968775)
(-8.38061931837e-05 0.000233968741618 0.00422042840099)
(-0.00011078673541 0.000228558492902 0.00421744958702)
(-0.000136903035917 0.000221684026073 0.00421231147797)
(-0.00016241451958 0.000212633271198 0.00420369706124)
(-0.000183246237153 0.000204995575788 0.00418925751658)
(0.000174455838616 0.000194755874527 0.00421738278272)
(0.00015387091788 0.00020000431283 0.00422620230304)
(0.000129251943508 0.000206807430161 0.00423018749053)
(0.000104296399553 0.000211928165423 0.00423170992579)
(7.87554697555e-05 0.00021598325251 0.00423202946448)
(5.27697868615e-05 0.000218917743954 0.00423186595655)
(2.64760933231e-05 0.000220696870117 0.00423162334634)
(2.43168432947e-08 0.000221293360053 0.0042315172075)
(-2.64280574335e-05 0.000220698439138 0.00423161994643)
(-5.27235118506e-05 0.000218920832549 0.00423185815618)
(-7.87120133819e-05 0.000215987754751 0.00423201409379)
(-0.000104256581541 0.000211933854215 0.00423168011003)
(-0.000129215952716 0.000206814000156 0.00423013163854)
(-0.00015383825578 0.000200012030053 0.0042261213567)
(-0.000174429197589 0.00019476295934 0.00421731302935)
(0.000164688974781 0.000183415220022 0.00423474882524)
(0.000144554857222 0.000186298248989 0.00423923484724)
(0.000121059952581 0.000190873165454 0.00423982282814)
(9.74340730652e-05 0.000194322121547 0.00423879575662)
(7.3440364476e-05 0.000197108062555 0.0042372955636)
(4.91416961822e-05 0.000199148772661 0.00423592353617)
(2.46355971828e-05 0.000200392383029 0.00423499322953)
(2.49189230852e-08 0.000200810436396 0.0042346641856)
(-2.45863139064e-05 0.000200394602165 0.00423498964501)
(-4.90940378375e-05 0.000199153191969 0.00423591549478)
(-7.33953324568e-05 0.000197114630179 0.00423728008122)
(-9.73925074571e-05 0.00019433064162 0.00423876603777)
(-0.000121022138237 0.000190883270326 0.00423976725505)
(-0.000144520587594 0.000186309914398 0.00423915794819)
(-0.000164661055133 0.000183426272845 0.00423468989565)
(0.000154355831819 0.000171272749568 0.00424473013854)
(0.000134932164493 0.000171841801179 0.00424591368895)
(0.000112700228548 0.000174254244069 0.00424415979672)
(9.04681416263e-05 0.000176171747683 0.00424152578169)
(6.80482704401e-05 0.000177779490913 0.00423895447681)
(4.54597732443e-05 0.000178973402435 0.00423690320216)
(2.27675035386e-05 0.000179703458076 0.00423559716248)
(2.58642014362e-08 0.000179949501714 0.00423514816774)
(-2.27162649843e-05 0.000179706266068 0.00423559409736)
(-4.54099770409e-05 0.000178979032026 0.00423689670758)
(-6.80008488283e-05 0.000177787941529 0.00423894257086)
(-9.04239923752e-05 0.000176182891302 0.00424150300932)
(-0.00011265985368 0.000174267722462 0.00424411520497)
(-0.000134895766397 0.000171857257609 0.0042458531508)
(-0.000154326213571 0.00017128754462 0.00424469322558)
(0.000144069015832 0.000158552813762 0.00424895115693)
(0.000125556350473 0.000155986263158 0.00424766411141)
(0.000104341659701 0.000156795980459 0.0042446297031)
(8.34727276638e-05 0.00015743017937 0.00424135091014)
(6.26039981683e-05 0.000158007787692 0.00423846795326)
(4.17341938504e-05 0.00015843943738 0.00423627107249)
(2.08763885347e-05 0.000158703305307 0.0042349026222)
(2.71520236155e-08 0.000158792861372 0.00423443678832)
(-2.08224991673e-05 0.000158706495769 0.00423490088697)
(-4.16815263133e-05 0.000158445853004 0.00423626822309)
(-6.25533771968e-05 0.000158017472991 0.00423846407004)
(-8.34250743117e-05 0.000157443119058 0.00424134412786)
(-0.00010429782191 0.000156811905337 0.00424461140945)
(-0.00012551729171 0.000156004808153 0.00424764802718)
(-0.000144037004129 0.000158570853502 0.00424893280531)
(1.05466702896e-06 1.75308273386e-06 0.000424891122242)
(5.8349743989e-07 2.29740901813e-06 0.0004455937542)
(3.62428690653e-07 2.60011150445e-06 0.000464171166874)
(1.63466292917e-07 2.81371832667e-06 0.000480136002528)
(3.25656040938e-08 2.94217877282e-06 0.000493057684964)
(-2.57794294191e-08 3.00978180393e-06 0.000502560755394)
(-2.90391063585e-08 3.03976963971e-06 0.000508379958244)
(-2.19900662694e-10 3.04797061552e-06 0.000510352505767)
(2.88030889145e-08 3.03964806663e-06 0.000508380333154)
(2.61291333813e-08 3.00956664799e-06 0.000502561608134)
(-3.1482790861e-08 2.94184479044e-06 0.000493059100145)
(-1.62011943197e-07 2.81317495869e-06 0.000480137879729)
(-3.61243809459e-07 2.59932771451e-06 0.000464173443237)
(-5.82788600092e-07 2.29636281044e-06 0.000445598861459)
(-1.0551372294e-06 1.75208274256e-06 0.000424912846731)
(9.95206565909e-06 1.21835908436e-05 0.00120978398705)
(8.49915829237e-06 1.48787738137e-05 0.00126534033611)
(7.3323019578e-06 1.71110507936e-05 0.00131502575288)
(6.00290544565e-06 1.90007075416e-05 0.00135758907894)
(4.56414559261e-06 2.0480164987e-05 0.00139195307355)
(3.07119628761e-06 2.15372748229e-05 0.00141718385476)
(1.54269555039e-06 2.21714592458e-05 0.00143261352638)
(1.41136778589e-09 2.23830309056e-05 0.00143782891278)
(-1.53949922816e-06 2.21711698736e-05 0.00143261472761)
(-3.06695511753e-06 2.1536692093e-05 0.00141718650036)
(-4.55865932673e-06 2.04791561442e-05 0.00139195731912)
(-5.99694879607e-06 1.89990457911e-05 0.00135759451967)
(-7.32737790337e-06 1.71086543554e-05 0.00131503207596)
(-8.49586532586e-06 1.48757809831e-05 0.00126535445143)
(-9.95230343458e-06 1.21807094066e-05 0.00120983804649)
(2.26891344068e-05 2.63684926289e-05 0.0019306772574)
(2.00617269605e-05 3.15434350172e-05 0.00201416583504)
(1.75934395283e-05 3.60833147259e-05 0.00208828303762)
(1.46606406745e-05 3.9992811782e-05 0.00215137744577)
(1.13296259115e-05 4.31201342715e-05 0.00220204757922)
(7.7184337738e-06 4.53946149779e-05 0.00223910165152)
(3.90952823642e-06 4.67767926797e-05 0.00226169517003)
(4.29019142257e-09 4.72408802906e-05 0.00226931107127)
(-3.90058047588e-06 4.67764039042e-05 0.00226169678477)
(-7.70848138659e-06 4.53937382494e-05 0.00223910514017)
(-1.13185600258e-05 4.31184651349e-05 0.00220205296912)
(-1.46494026643e-05 3.99899570365e-05 0.00215138387415)
(-1.75839366166e-05 3.60791476742e-05 0.00208828959945)
(-2.00549430319e-05 3.15385557242e-05 0.00201418159638)
(-2.26879131023e-05 2.63640160586e-05 0.00193074770953)
(3.67667596568e-05 4.16169650269e-05 0.00257845795637)
(3.2771798844e-05 4.91135351248e-05 0.00268122781796)
(2.88187754296e-05 5.57402642744e-05 0.00277142240036)
(2.40788227804e-05 6.14672454774e-05 0.00284747496379)
(1.86581247034e-05 6.60659355878e-05 0.00290806449384)
(1.27361161564e-05 6.94193252098e-05 0.00295210151854)
(6.46018286415e-06 7.14611284181e-05 0.00297883609208)
(7.47580861495e-09 7.21471711675e-05 0.00298782029028)
(-6.44496297479e-06 7.14607031382e-05 0.00297883728053)
(-1.27201963243e-05 6.94183148434e-05 0.0029521040324)
(-1.86415704508e-05 6.60639345978e-05 0.00290806801001)
(-2.40626407426e-05 6.14637728052e-05 0.00284747795486)
(-2.8804944498e-05 5.57351016974e-05 0.00277142295291)
(-3.27614951239e-05 4.91076332836e-05 0.00268123487947)
(-3.67633309959e-05 4.16116911861e-05 0.00257852384998)
(5.04391299689e-05 5.60924215565e-05 0.00314479148808)
(4.49655711908e-05 6.54959095567e-05 0.00325763829743)
(3.94970104938e-05 7.37034293709e-05 0.00335518875597)
(3.29552705342e-05 8.078950647e-05 0.00343642550015)
(2.55137258106e-05 8.64690088818e-05 0.00350047876151)
(1.74036176708e-05 9.0602848156e-05 0.00354666509312)
(8.82471590597e-06 9.31168255841e-05 0.00357454910276)
(1.04339856684e-08 9.39607968957e-05 0.00358388727952)
(-8.80370813366e-06 9.31164363979e-05 0.00357454909003)
(-1.73822949077e-05 9.06018767843e-05 0.00354666498758)
(-2.54923384031e-05 8.64670095076e-05 0.0035004776817)
(-3.29348329793e-05 8.07859593217e-05 0.00343642099381)
(-3.94793746096e-05 7.36980185345e-05 0.00335517742416)
(-4.49518782515e-05 6.5489726013e-05 0.00325762767088)
(-5.04329907829e-05 5.60870098368e-05 0.00314483679522)
(6.26793446456e-05 6.87799290744e-05 0.00362633641713)
(5.5704792794e-05 7.95635548524e-05 0.00374081490612)
(4.87896819646e-05 8.87458491744e-05 0.00383794571478)
(4.05834220436e-05 9.66467783308e-05 0.00391760476946)
(3.13443427553e-05 0.000102948627975 0.00397962848011)
(2.13421423367e-05 0.000107516851528 0.00402392213852)
(1.08103720922e-05 0.000110287501664 0.00405048521579)
(1.29276041068e-08 0.000111216232494 0.00405934644752)
(-1.07845042288e-05 0.000110287219336 0.00405048354743)
(-2.13163282021e-05 0.000107516074384 0.00402391839257)
(-3.13189814658e-05 0.00010294690677 0.00397962103003)
(-4.05594790155e-05 9.66435806394e-05 0.00391758996091)
(-4.87687905088e-05 8.87407890834e-05 0.0038379182398)
(-5.56878991587e-05 7.95577268678e-05 0.00374078042691)
(-6.26702196831e-05 6.87748894901e-05 0.00362635198482)
(7.28856140885e-05 7.91298530545e-05 0.00402505971448)
(6.44740151785e-05 9.07370658324e-05 0.00413435254703)
(5.62540462489e-05 0.00010029315881 0.00422502304765)
(4.6607894461e-05 0.000108474812145 0.0042980302011)
(3.58837570267e-05 0.000114955319113 0.00435402644486)
(2.43751235363e-05 0.000119627376103 0.00439355818704)
(1.2329260129e-05 0.000122450770926 0.00441707824212)
(1.49018189427e-08 0.000123395407718 0.00442488950908)
(-1.2299550291e-05 0.000122450658944 0.00441707474143)
(-2.43457660096e-05 0.000119626939348 0.00439355036587)
(-3.58552495732e-05 0.000114954127679 0.00435401178387)
(-4.65811153933e-05 0.000108472339919 0.00429800361412)
(-5.62303686987e-05 0.0001002889529 0.00422497707269)
(-6.44541699104e-05 9.07321752014e-05 0.00413429119933)
(-7.28733925768e-05 7.91256180436e-05 0.00402504188475)
(8.07684581254e-05 8.69172048797e-05 0.00434705657131)
(7.10598285511e-05 9.88186659413e-05 0.00444633074117)
(6.17293687557e-05 0.000108219781204 0.00452650011353)
(5.09213713703e-05 0.000116217647281 0.00458964108327)
(3.90661863771e-05 0.000122498090243 0.00463720128876)
(2.64669353099e-05 0.000126996537558 0.00467031508045)
(1.33662762553e-05 0.000129703612789 0.00468982979562)
(1.64183190209e-08 0.000130607477632 0.00469627699995)
(-1.33336119619e-05 0.000129703741803 0.00468982449604)
(-2.64348381528e-05 0.000126996596004 0.00467030320262)
(-3.90352038842e-05 0.000122497677022 0.00463717933723)
(-5.0892279105e-05 0.000116216253727 0.00458960241899)
(-6.1703266333e-05 0.000108216892448 0.00452643511539)
(-7.10372831305e-05 9.88152284512e-05 0.00444624249946)
(-8.07532416413e-05 8.69142459447e-05 0.00434700604609)
(8.62738276339e-05 9.21530792954e-05 0.0046010266099)
(7.5465533795e-05 0.000103880182347 0.00468740063411)
(6.52518830944e-05 0.000112703050528 0.00475491468242)
(5.35849378016e-05 0.00012014956497 0.00480666726812)
(4.09589813605e-05 0.000125937640555 0.00484478502282)
(2.76740268066e-05 0.000130053200531 0.00487086951116)
(1.39533637838e-05 0.00013251863751 0.00488605963941)
(1.75895552105e-08 0.000133340127864 0.00489104566477)
(-1.39184059969e-05 0.000132519074702 0.00488605270651)
(-2.7639765793e-05 0.000130053895771 0.00487085391043)
(-4.09259748834e-05 0.000125938231428 0.00484475629349)
(-5.35538614255e-05 0.000120149560779 0.00480661725526)
(-6.52236035525e-05 0.000112701889427 0.00475483185529)
(-7.54405065732e-05 0.000103878650757 0.00468728821432)
(-8.62558345602e-05 9.21518531745e-05 0.00460094766857)
(8.95112161973e-05 9.50057770608e-05 0.0047968851246)
(7.78360476698e-05 0.000106164666138 0.00486915455657)
(6.69811139273e-05 0.000114097791333 0.0049234175015)
(5.47604698778e-05 0.00012072561446 0.00496360768734)
(4.17065705362e-05 0.000125816399328 0.00499235882089)
(2.81047810175e-05 0.000129407499725 0.00501158798749)
(1.41485498048e-05 0.000131548865093 0.00502260845398)
(1.85432575375e-08 0.000132261031045 0.00502619443055)
(-1.41117078671e-05 0.000131549662029 0.00502260017355)
(-2.80686917868e-05 0.000129408937787 0.00501156930607)
(-4.16717774096e-05 0.000125818160043 0.00499232445227)
(-5.47275639394e-05 0.000120727229873 0.00496354818424)
(-6.69507910217e-05 0.00011409866721 0.00492331989072)
(-7.78087325029e-05 0.000106165405685 0.00486902342187)
(-8.94906942921e-05 9.50066784851e-05 0.00479678535128)
(9.0691144884e-05 9.5735801898e-05 0.00494466544944)
(7.83965579127e-05 0.00010600693313 0.00500291287256)
(6.71420796159e-05 0.000112837907854 0.00504447707954)
(5.46596611649e-05 0.000118468473278 0.00507388649915)
(4.14893001255e-05 0.000122734122541 0.00509408673188)
(2.78905153557e-05 0.000125718457999 0.00510715452925)
(1.40209303154e-05 0.000127490433065 0.00511446656136)
(1.93913568652e-08 0.000128078902993 0.00511681442004)
(-1.39823945051e-05 0.000127491605821 0.00511445742662)
(-2.78527296169e-05 0.000125720676606 0.00510713391778)
(-4.14527771873e-05 0.000122737115339 0.00509404884242)
(-5.46249387817e-05 0.000118471809407 0.00507382101333)
(-6.71097600173e-05 0.000112840978394 0.00504437016452)
(-7.83671096862e-05 0.000106010173251 0.00500277169418)
(-9.06683483854e-05 9.57390986639e-05 0.00494455616124)
(9.00704090142e-05 9.46424976003e-05 0.00505372101295)
(7.74024889592e-05 0.000103768986457 0.00509890316859)
(6.59831656741e-05 0.000109360891345 0.00512907230337)
(5.35098992044e-05 0.000113887972662 0.00514908287286)
(4.04968868233e-05 0.000117265024623 0.00516199292216)
(2.71670240457e-05 0.000119609620118 0.0051698930084)
(1.36411542389e-05 0.000120997241517 0.00517412824944)
(2.02162281817e-08 0.000121457772968 0.00517545487941)
(-1.36009555714e-05 0.000120998765294 0.00517411915459)
(-2.71275356814e-05 0.000119612562721 0.00516987254772)
(-4.0458588712e-05 0.00011726917592 0.00516195531839)
(-5.34733035332e-05 0.000113892947072 0.00514901757525)
(-6.59488522136e-05 0.000109366104564 0.00512896513095)
(-7.73710437931e-05 0.000103774730189 0.00509876465666)
(-9.00455483061e-05 9.46482878933e-05 0.00505361815928)
(8.78986940844e-05 9.20070789118e-05 0.00513216557438)
(7.51039593924e-05 9.97804957575e-05 0.00516574831956)
(6.37571574952e-05 0.000104055266037 0.00518625950173)
(5.15415801219e-05 0.000107432868287 0.00519858436915)
(3.89179129924e-05 0.000109914297251 0.00520569710252)
(2.60666207397e-05 0.000111628061433 0.00520957001902)
(1.30770964667e-05 0.000112640968549 0.00521143893423)
(2.10664381646e-08 0.000112977325327 0.00521198580807)
(-1.30351864006e-05 0.000112642763204 0.00521143142)
(-2.60253693196e-05 0.000111631575058 0.00520955324628)
(-3.88777720096e-05 0.000109919375284 0.00520566617679)
(-5.15030696007e-05 0.000107439203307 0.00519852949182)
(-6.37208844603e-05 0.000104062325296 0.00518616641108)
(-7.50706698052e-05 9.97884949081e-05 0.00516563014201)
(-8.78719976332e-05 9.20152017934e-05 0.00513208908105)
(8.44188392007e-05 8.80818549639e-05 0.00518645984458)
(7.17772368673e-05 9.44513827173e-05 0.00521019512622)
(6.07566211918e-05 9.73197306032e-05 0.00522302006186)
(4.90035191404e-05 9.95387119193e-05 0.00522953420661)
(3.69445078243e-05 0.000101150383366 0.00523244652175)
(2.47180813354e-05 0.000102261761672 0.00523349168875)
(1.23930017607e-05 0.000102918818582 0.00523373281053)
(2.19492154575e-08 0.000103137319052 0.00523374954023)
(-1.23493139815e-05 0.000102920754955 0.00523372917357)
(-2.46750224228e-05 0.000102265583412 0.00523348381134)
(-3.69025133505e-05 0.000101155990424 0.00523243167134)
(-4.89631400849e-05 9.95458930044e-05 0.00522950513765)
(-6.07185211302e-05 9.73280913944e-05 0.00522296308589)
(-7.17423095742e-05 9.44611026192e-05 0.00521012173615)
(-8.43904743477e-05 8.80919053856e-05 0.00518643120347)
(7.97212694161e-05 8.43963297321e-05 0.00522107970789)
(6.77403920231e-05 8.83834954851e-05 0.00523716004463)
(5.72539430391e-05 8.9653354559e-05 0.00524435505186)
(4.61021155294e-05 9.0671971308e-05 0.00524699650955)
(3.47259743772e-05 9.13811827996e-05 0.00524733776072)
(2.3216707248e-05 9.18639156924e-05 0.00524676490234)
(1.16352095237e-05 9.21465141047e-05 0.00524611748551)
(2.28467477912e-08 9.22402985417e-05 0.00524585288823)
(-1.15897366995e-05 9.21483532015e-05 0.00524612005019)
(-2.31718776052e-05 9.18675715657e-05 0.00524677112763)
(-3.46822303759e-05 9.13866157012e-05 0.00524734845513)
(-4.60600243172e-05 9.06790989718e-05 0.00524700995021)
(-5.72142258112e-05 8.96619553873e-05 0.00524436040742)
(-6.77042772124e-05 8.83939478185e-05 0.00523717427596)
(-7.96913105976e-05 8.44072362531e-05 0.00522109950778)
(-1.05889047763e-07 -2.92606719149e-07 0.00029035548963)
(6.25564590196e-08 -4.62616702221e-07 0.000304461619237)
(2.11512174624e-07 -5.62506774189e-07 0.000316998382668)
(2.87686782745e-07 -5.92343360966e-07 0.000327744146784)
(2.96550027054e-07 -5.80344929229e-07 0.000336426499676)
(2.39239811788e-07 -5.50602040679e-07 0.000342809820277)
(1.33446154637e-07 -5.23897359007e-07 0.000346720549528)
(8.17428742969e-10 -5.1343984058e-07 0.000348048664551)
(-1.3188863163e-07 -5.23981801801e-07 0.000346721710929)
(-2.37881144338e-07 -5.50750018174e-07 0.000342811987667)
(-2.95357796071e-07 -5.80480256638e-07 0.000336429374363)
(-2.86248377025e-07 -5.92290823945e-07 0.000327747495139)
(-2.09887564379e-07 -5.62472083499e-07 0.000317002563835)
(-6.10995804393e-08 -4.62368691834e-07 0.000304469410029)
(1.06808771329e-07 -2.92418870004e-07 0.000290379545618)
(1.0711973463e-06 8.07568955079e-07 0.000876828025777)
(1.37035183469e-06 7.39480930893e-07 0.000919018358345)
(1.59946037677e-06 8.33695708491e-07 0.000956614393096)
(1.61691777022e-06 1.06594023082e-06 0.000988836878768)
(1.43728751326e-06 1.34913501573e-06 0.00101487408505)
(1.07289178666e-06 1.6116779246e-06 0.00103402186265)
(5.74095575038e-07 1.79414121285e-06 0.00104575116151)
(2.41639011677e-09 1.85937744157e-06 0.00104972259641)
(-5.69397018385e-07 1.79382216496e-06 0.00104575418165)
(-1.06853105914e-06 1.6111024514e-06 0.00103402745242)
(-1.43317619312e-06 1.34847994886e-06 0.00101488138217)
(-1.61240127111e-06 1.065557984e-06 0.000988845179658)
(-1.59460933016e-06 8.3327748652e-07 0.000956624685381)
(-1.36602065623e-06 7.39605719461e-07 0.000919038846961)
(-1.06856357737e-06 8.07704845788e-07 0.000876888660428)
(3.7725628578e-06 3.70146032507e-06 0.00145981027545)
(4.02473175045e-06 4.16523155104e-06 0.00152905878975)
(4.1238851135e-06 4.84352050518e-06 0.00159069312649)
(3.85985464091e-06 5.66227869508e-06 0.00164341326117)
(3.26141264445e-06 6.46755536892e-06 0.00168594127033)
(2.35992517147e-06 7.13931989908e-06 0.0017171767161)
(1.24027304731e-06 7.58177823485e-06 0.00173628918503)
(4.05239662157e-09 7.73613983777e-06 0.00174274669839)
(-1.23230199817e-06 7.58114259594e-06 0.00173629309974)
(-2.35228198625e-06 7.13815188903e-06 0.0017171838594)
(-3.25399663522e-06 6.46612648222e-06 0.00168595028655)
(-3.85205280387e-06 5.66102024589e-06 0.00164342291446)
(-4.11584201226e-06 4.84224228394e-06 0.00159070449523)
(-4.01747026032e-06 4.1646563204e-06 0.00152908367539)
(-3.76811193182e-06 3.70134726433e-06 0.0014598917533)
(8.06441393232e-06 8.4031861099e-06 0.00202986523004)
(8.11710246924e-06 9.7639215112e-06 0.00212341901979)
(7.88995002569e-06 1.1351270494e-05 0.00220627605307)
(7.12028729788e-06 1.30254019436e-05 0.00227681434334)
(5.86015201957e-06 1.45584240116e-05 0.00233348383963)
(4.16824186123e-06 1.57832127363e-05 0.00237497271144)
(2.16837753315e-06 1.65703812417e-05 0.00240029817721)
(5.78813280617e-09 1.68418211165e-05 0.00240883561359)
(-2.15692978344e-06 1.65695790889e-05 0.0024003016034)
(-4.15710733303e-06 1.57817188457e-05 0.00237497868652)
(-5.84927241568e-06 1.45565248123e-05 0.00233349056696)
(-7.10921829552e-06 1.30235332425e-05 0.00227681994985)
(-7.87894632154e-06 1.13494112049e-05 0.00220628109957)
(-8.10715185612e-06 9.76290819538e-06 0.00212343694802)
(-8.05811573724e-06 8.40311289868e-06 0.00202994743098)
(1.35106522698e-05 1.436812936e-05 0.00257526362103)
(1.32306250015e-05 1.68027399391e-05 0.00268846564634)
(1.25179217496e-05 1.94277403757e-05 0.00278783688615)
(1.10689602416e-05 2.20453002337e-05 0.00287177724758)
(8.97060680652e-06 2.4358626248e-05 0.00293876652053)
(6.31452758442e-06 2.61640854614e-05 0.00298755515565)
(3.26430600439e-06 2.73082806311e-05 0.00301722501543)
(7.60180563654e-09 2.77001463365e-05 0.0030272006646)
(-3.24923983456e-06 2.7307462562e-05 0.00301722666666)
(-6.29980487432e-06 2.61625442335e-05 0.00298755739052)
(-8.95624136311e-06 2.43566109081e-05 0.00293876707402)
(-1.10546928562e-05 2.20432126313e-05 0.00287177344011)
(-1.25041070502e-05 1.94256898052e-05 0.00278782820293)
(-1.32181803518e-05 1.68016980989e-05 0.00268846592466)
(-1.35024103327e-05 1.43683205765e-05 0.0025753300954)
(1.96022408287e-05 2.09974524988e-05 0.00308422533643)
(1.88783186608e-05 2.45064100134e-05 0.0032109521849)
(1.75625683222e-05 2.81166661394e-05 0.00332078712304)
(1.53208465824e-05 3.16019364931e-05 0.0034125694435)
(1.22858549382e-05 3.46118123541e-05 0.0034851510953)