/*--------------------------------*- C++ -*----------------------------------*\
  =========                 |
  \\      /  F ield         | OpenFOAM: The Open Source CFD Toolbox
   \\    /   O peration     | Website:  https://openfoam.org
    \\  /    A nd           | Version:  7
     \\/     M anipulation  |
\*---------------------------------------------------------------------------*/
FoamFile
{
    version     2.0;
    format      ascii;
    class       surfaceScalarField;
    location    "1.44";
    object      phi;
}
// * * * * * * * * * * * * * * * * * * * * * * * * * * * * * * * * * * * * * //

dimensions      [0 3 -1 0 0 0 0];

internalField   nonuniform List<scalar> 
65775
(
5.02185632722e-11
7.77630731569e-09
1.57571174379e-09
4.9926224889e-14
7.0783419394e-11
8.12588960764e-09
1.7426876938e-09
8.24955321385e-11
8.41429976966e-09
1.90105543656e-09
8.01964915438e-11
8.66338703348e-09
2.04305775455e-09
6.66176902606e-11
8.86041853068e-09
2.16164645427e-09
4.38841447603e-11
9.00405212973e-09
2.25102714992e-09
1.53558450644e-11
9.09425432731e-09
2.30741459469e-09
-1.52305843186e-11
9.12867615827e-09
2.3276760716e-09
-4.37637023257e-11
9.09423917661e-09
2.30741451836e-09
-6.65061466735e-11
9.00402277995e-09
2.25102707615e-09
-8.00981133614e-11
8.86037512054e-09
2.16164645423e-09
-8.2413493191e-11
8.66333173096e-09
2.04305779357e-09
-7.07198750738e-11
8.4142345716e-09
1.90105563375e-09
-5.01655209419e-11
8.12582423325e-09
1.74269079549e-09
7.77626213342e-09
1.57573432005e-09
8.32995698784e-14
1.25929504303e-10
1.28406875749e-08
3.76714308585e-09
1.1062337093e-13
2.01927366913e-10
1.33503119126e-08
4.14216147281e-09
2.3643395266e-10
1.37636161212e-08
4.49395061295e-09
2.3203317221e-10
1.41129024642e-08
4.8066258353e-09
1.93149339754e-10
1.43866156817e-08
5.06584579537e-09
1.27367071166e-10
1.45842963909e-08
5.26016561324e-09
4.44921642107e-11
1.47083419225e-08
5.38238507708e-09
-4.42028191941e-11
1.47563011707e-08
5.4262989548e-09
-1.27088363468e-10
1.47083084604e-08
5.38238507249e-09
-1.92890829145e-10
1.45842309632e-08
5.2601657365e-09
-2.31803960614e-10
1.43865191488e-08
5.06584613535e-09
-2.3624143331e-10
1.41127780642e-08
4.80662617429e-09
-2.01773647572e-10
1.37634682841e-08
4.493951137e-09
-1.25804226266e-10
1.33501559125e-08
4.14216965366e-09
1.28405602059e-08
3.76719372648e-09
1.9091100827e-13
1.83531198514e-10
1.5889780932e-08
5.28001201645e-09
1.44640621058e-13
3.03189146264e-10
1.64363364895e-08
5.79026882252e-09
3.54724886829e-10
1.68756858617e-08
6.26480155667e-09
3.47706767644e-10
1.72354195092e-08
6.68376863497e-09
2.88887441561e-10
1.75140308126e-08
7.02917722709e-09
1.90215249728e-10
1.77128108049e-08
7.28701653983e-09
6.63672538442e-11
1.78374725966e-08
7.44872923786e-09
-6.59746494947e-11
1.78865482529e-08
7.50675090701e-09
-1.8983672025e-10
1.78374276239e-08
7.44872890408e-09
-2.88535917623e-10
1.77127225474e-08
7.28701605445e-09
-3.47394041048e-10
1.75139005955e-08
7.0291765922e-09
-3.54460379315e-10
1.72352504609e-08
6.68376735872e-09
-3.0297429034e-10
1.68754830623e-08
6.26479942278e-09
-1.83356479491e-10
1.6436115787e-08
5.79027480336e-09
1.58895830467e-08
5.28007155818e-09
2.60052794976e-13
2.28622241043e-10
1.74257983421e-08
6.30319907773e-09
1.62864994623e-13
3.80276646452e-10
1.79338157088e-08
6.90018728406e-09
4.44724887002e-10
1.83397452495e-08
7.45053346075e-09
4.34850980028e-10
1.86589670792e-08
7.93312028477e-09
3.60490068071e-10
1.8902055115e-08
8.32872418696e-09
2.36953287498e-10
1.90726839348e-08
8.62275412551e-09
8.25841978576e-11
1.91796619119e-08
8.80660657403e-09
-8.21274835508e-11
1.92228924159e-08
8.87245174348e-09
-2.36512743047e-10
1.91796115712e-08
8.80660565856e-09
-3.60080640316e-10
1.90725848303e-08
8.62275213184e-09
-4.34485949133e-10
1.89019089878e-08
8.32872082053e-09
-4.44414156016e-10
1.86587767613e-08
7.93311466734e-09
-3.80021284522e-10
1.83395144593e-08
7.45052456447e-09
-2.28412807327e-10
1.79335592376e-08
6.90018288647e-09
1.7425552368e-08
6.30324654165e-09
3.06239317652e-13
2.62430374206e-10
1.78482090087e-08
6.93820852724e-09
1.70572475394e-13
4.37340778309e-10
1.82756027382e-08
7.58599422732e-09
5.11408714714e-10
1.86175505278e-08
8.17780367689e-09
4.99051059507e-10
1.88725998223e-08
8.693046994e-09
4.12954629499e-10
1.90621954169e-08
9.11295940242e-09
2.71040896214e-10
1.91922522806e-08
9.42366824662e-09
9.43776851418e-11
1.92738347132e-08
9.61733280889e-09
-9.38830000114e-11
1.93081238711e-08
9.68654180508e-09
-2.70563617404e-10
1.92737840719e-08
9.61733094946e-09
-4.12510825545e-10
1.91921525091e-08
9.42366419473e-09
-4.98654727713e-10
1.90620482283e-08
9.11295257836e-09
-5.11069494286e-10
1.88724078586e-08
8.69303580561e-09
-4.37058993468e-10
1.86173156967e-08
8.17778563952e-09
-2.62196160469e-10
1.8275339125e-08
7.58597475726e-09
1.78479459775e-08
6.93823261139e-09
3.38030893294e-13
2.87317333787e-10
1.74753189449e-08
7.26384056454e-09
1.7148263676e-13
4.78261949166e-10
1.78042331558e-08
7.93648920483e-09
5.59017611748e-10
1.80716071509e-08
8.54550072777e-09
5.44543654224e-10
1.82570209314e-08
9.07190426217e-09
4.49896496858e-10
1.83900308149e-08
9.49843142941e-09
2.94919976275e-10
1.84781379363e-08
9.81264702469e-09
1.02613997276e-10
1.85335410252e-08
1.00078584529e-08
-1.02097739299e-10
1.85583418614e-08
1.00774356783e-08
-2.94421795047e-10
1.85334946736e-08
1.00078557443e-08
-4.4943308857e-10
1.84780464899e-08
9.81264102403e-09
-5.44129116846e-10
1.83898960234e-08
9.49842106291e-09
-5.58660932324e-10
1.82568449873e-08
9.07188707158e-09
-4.77961948601e-10
1.80713908364e-08
8.5454726165e-09
-2.8706345144e-10
1.78039881032e-08
7.93645319963e-09
1.74750684939e-08
7.26383897875e-09
3.60829341204e-13
3.05619366867e-10
1.65577480004e-08
7.34544242446e-09
1.68222020542e-13
5.06700637749e-10
1.67872850379e-08
8.02530376125e-09
5.91573469375e-10
1.69821365304e-08
8.63554907656e-09
5.75235346377e-10
1.71033781508e-08
9.15936271006e-09
4.74581665828e-10
1.71854486213e-08
9.58147285006e-09
3.10766141755e-10
1.72365912167e-08
9.89115230259e-09
1.08058741901e-10
1.72690024707e-08
1.00829215278e-08
-1.07529968763e-10
1.72852530505e-08
1.01510489903e-08
-3.10255803381e-10
1.72689640165e-08
1.00829181753e-08
-4.74106671547e-10
1.72365153823e-08
9.89114473084e-09
-5.74809545947e-10
1.71853371433e-08
9.58145940739e-09
-5.9120474743e-10
1.7103232727e-08
9.15933995927e-09
-5.06386158642e-10
1.69819569194e-08
8.63551132802e-09
-3.05347393822e-10
1.67870810615e-08
8.02525234943e-09
1.65575357541e-08
7.34541781551e-09
3.78941517203e-13
3.1895534317e-10
1.52894362956e-08
7.23807348812e-09
1.62205428153e-13
5.25615893521e-10
1.54292977319e-08
7.91413824783e-09
6.12545324222e-10
1.55606237586e-08
8.51617441226e-09
5.94562901769e-10
1.56286238961e-08
9.0296502126e-09
4.89895191834e-10
1.56695736242e-08
9.44139811017e-09
3.20497323796e-10
1.56916474601e-08
9.74236634407e-09
1.11384609985e-10
1.57060546941e-08
9.92815363869e-09
-1.10847117178e-10
1.57153951364e-08
9.99389120554e-09
-3.1997838641e-10
1.57060270911e-08
9.92814983352e-09
-4.89411609263e-10
1.56915932599e-08
9.74235758561e-09
-5.94128026594e-10
1.56694943297e-08
9.44138215636e-09
-6.12165695488e-10
1.56285208162e-08
9.029622668e-09
-5.25286886691e-10
1.55604955992e-08
8.51612826924e-09
-3.18664602225e-10
1.54291523569e-08
7.91407418723e-09
1.52892829422e-08
7.23803090062e-09
3.94787244969e-13
3.2844061508e-10
1.38173071593e-08
6.98763426309e-09
1.54613576796e-13
5.37378062667e-10
1.38826463807e-08
7.65390149241e-09
6.24885045508e-10
1.3962280136e-08
8.24306883929e-09
6.05511292651e-10
1.39896916505e-08
8.7427525541e-09
4.98351217423e-10
1.40004546093e-08
9.14175358708e-09
3.2577949792e-10
1.4001984529e-08
9.43249473971e-09
1.13174139944e-10
1.4003746066e-08
9.61142505574e-09
-1.12627828236e-10
1.40080003756e-08
9.67442856035e-09
-3.25251596223e-10
1.40037315947e-08
9.61142092613e-09
-4.97858203713e-10
1.40019565066e-08
9.43248508747e-09
-6.05065725021e-10
1.40004143539e-08
9.14173564639e-09
-6.24492180544e-10
1.39896397105e-08
8.74272112921e-09
-5.37031660413e-10
1.39622144056e-08
8.24301606658e-09
-3.28128634234e-10
1.38825723793e-08
7.65382850333e-09
1.38172276279e-08
6.98757970396e-09
4.10325319676e-13
3.34879281634e-10
1.22500677107e-08
6.63153656997e-09
1.46111952128e-13
5.4391630814e-10
1.22576681985e-08
7.28550619865e-09
6.31141581211e-10
1.22975684082e-08
7.86036152302e-09
6.10707429812e-10
1.22965185674e-08
8.34558795791e-09
5.02161486019e-10
1.2287394894e-08
8.73170043761e-09
3.28067923773e-10
1.22762429075e-08
9.01233133958e-09
1.13933692793e-10
1.2270274151e-08
9.18453574567e-09
-1.13375406392e-10
1.22711500402e-08
9.24482187875e-09
-3.27527599867e-10
1.22702743655e-08
9.184531376e-09
-5.01655000407e-10
1.22762441781e-08
9.01232103525e-09
-6.10246468158e-10
1.22873982914e-08
8.73168105671e-09
-6.30730216133e-10
1.229652392e-08
8.3455537793e-09
-5.43547385493e-10
1.22975724504e-08
7.86030438087e-09
-3.34542118038e-10
1.22576739248e-08
7.28542865283e-09
1.22500716174e-08
6.63147636751e-09
4.2710970311e-13
3.3880494696e-10
1.06662227729e-08
6.19944843405e-09
1.37334727773e-13
5.46829480845e-10
1.06317408799e-08
6.8408461919e-09
6.33594489382e-10
1.06424400992e-08
7.4018823599e-09
6.12519166919e-10
1.06235280333e-08
7.87358180475e-09
5.03291557222e-10
1.06034502809e-08
8.24788790701e-09
3.28634242526e-10
1.05862527384e-08
8.51938048898e-09
1.14101319497e-10
1.05766512026e-08
8.68550421714e-09
-1.13525339676e-10
1.05755944562e-08
8.74327571107e-09
-3.28075393894e-10
1.05766668345e-08
8.6854997261e-09
-5.02764825808e-10
1.05862848736e-08
8.51936988541e-09
-6.12035319469e-10
1.06034997161e-08
8.24786790311e-09
-6.33156923769e-10
1.06235938211e-08
7.87354651091e-09
-5.46431022241e-10
1.06425177975e-08
7.4018238377e-09
-3.38437361632e-10
1.06318304977e-08
6.8407691315e-09
1.06663140666e-08
6.19938918855e-09
4.46545918049e-13
3.40518272772e-10
9.12113247363e-09
5.71421188362e-09
1.28167948936e-13
5.47703914117e-10
9.05688128841e-09
6.34399671997e-09
6.34559845944e-10
9.04705946153e-09
6.89268863654e-09
6.13209590899e-10
9.01939906231e-09
7.35253125652e-09
5.03508559668e-10
8.99585874103e-09
7.71663003782e-09
3.2857280275e-10
8.97787219178e-09
7.98028607843e-09
1.14046130085e-10
8.96778352672e-09
8.14116194283e-09
-1.13444482331e-10
8.96591706432e-09
8.19669190639e-09
-3.27986952346e-10
8.96781442849e-09
8.14115760394e-09
-5.029523874e-10
8.97793468485e-09
7.9802758897e-09
-6.1269303009e-10
8.99595374155e-09
7.71661088329e-09
-6.34086328332e-10
9.01952508527e-09
7.35249748391e-09
-5.47267489385e-10
9.0472109373e-09
6.89263289146e-09
-3.40114316045e-10
9.05705459858e-09
6.34392601685e-09
9.12131049949e-09
5.71416063542e-09
4.70279599029e-13
3.40626282675e-10
7.65250843043e-09
5.19286990348e-09
1.18800642471e-13
5.49031239238e-10
7.56565520367e-09
5.81252395456e-09
6.3680368017e-10
7.54341288278e-09
6.35068384941e-09
6.14916538571e-10
7.51534520688e-09
6.80052972508e-09
5.0422275403e-10
7.49440946824e-09
7.15610263404e-09
3.2867337692e-10
7.47938644047e-09
7.41324288818e-09
1.14022319575e-10
7.47091817876e-09
7.56970261821e-09
-1.13385077995e-10
7.46901212377e-09
7.62326781273e-09
-3.28050254751e-10
7.47096279424e-09
7.56969898362e-09
-5.03626032659e-10
7.47947656183e-09
7.41323444264e-09
-6.14355717261e-10
7.49454604983e-09
7.15608685199e-09
-6.36283169686e-10
7.5155270388e-09
6.80050165903e-09
-5.48547917272e-10
7.54363377211e-09
6.35063677783e-09
-3.40180075249e-10
7.56590780679e-09
5.81246636892e-09
7.6527672022e-09
5.19283342122e-09
4.97454876412e-13
3.42628788578e-10
6.28228265873e-09
4.64770378027e-09
1.09032991623e-13
5.55709429006e-10
6.17687270279e-09
5.2587853832e-09
6.43163594958e-10
6.15323779871e-09
5.78817698574e-09
6.18678264561e-10
6.13219150607e-09
6.22976583864e-09
5.05669207303e-10
6.11765381643e-09
6.57834760719e-09
3.28935092485e-10
6.107408485e-09
6.83015736741e-09
1.14013431994e-10
6.10150487072e-09
6.98294156173e-09
-1.13329637245e-10
6.09995047271e-09
7.03479044083e-09
-3.28263339963e-10
6.10156038375e-09
6.98293948998e-09
-5.05020212551e-10
6.10752036601e-09
6.83015264456e-09
-6.18061214175e-10
6.11782328236e-09
6.57833882362e-09
-6.42585080489e-10
6.13241834204e-09
6.22974944437e-09
-5.55170593892e-10
6.15351735573e-09
5.78814688007e-09
-3.42135751999e-10
6.17719537437e-09
5.25874887214e-09
6.28261022918e-09
4.64768726843e-09
5.27769186776e-13
3.71055657116e-10
4.08816780282e-09
9.85577215137e-14
4.99840099003e-09
5.81186114926e-10
4.69201204913e-09
4.911195911e-09
6.58714936514e-10
5.21392091342e-09
4.89789222851e-09
6.25873081378e-10
5.64848336777e-09
4.88621526949e-09
5.07979410351e-10
5.99113397221e-09
4.8776202882e-09
3.29199770892e-10
6.23841667074e-09
4.87145609981e-09
1.13932905324e-10
6.38802163658e-09
4.86777615379e-09
-1.13191932253e-10
6.43832068775e-09
4.86657231485e-09
-3.28468976048e-10
6.38802184311e-09
4.86783868878e-09
-5.07268102433e-10
6.23841729786e-09
4.87158198251e-09
-6.25190311224e-10
5.99113516855e-09
4.87781078525e-09
-6.58069688264e-10
5.64848398758e-09
4.88647155642e-09
-5.80585938849e-10
5.21391587241e-09
4.89821286607e-09
-3.70515814264e-10
4.69200980801e-09
4.91157159852e-09
4.08816642423e-09
5.63445111958e-13
4.99878564099e-09
-2.01533029653e-11
7.16439985366e-10
8.7946006897e-10
3.07251425157e-14
-2.69172390168e-11
7.82057670125e-10
9.67498432774e-10
-2.97184064732e-11
8.53866462748e-10
1.05009975766e-09
-2.8817451955e-11
9.18415045783e-10
1.12384211618e-09
-2.39856317445e-11
9.71672798802e-10
1.18522123797e-09
-1.58834854437e-11
1.01160997391e-09
1.23137763683e-09
-5.55085339547e-12
1.03666450405e-09
1.26047208333e-09
5.57313849223e-12
1.04564792157e-09
1.2709551516e-09
1.59075073231e-11
1.03665560848e-09
1.26047302453e-09
2.40119558651e-11
1.01158968838e-09
1.23137944757e-09
2.88429401024e-11
9.71636299209e-10
1.1852237113e-09
2.97369964945e-11
9.18361942734e-10
1.12384496989e-09
2.69258194513e-11
8.53805438027e-10
1.05010319193e-09
2.01537021057e-11
7.81997315642e-10
9.67505948126e-10
7.16417951777e-10
8.79488875434e-10
1.95496561961e-14
-3.09239108335e-11
1.98208430926e-09
2.53246316735e-09
7.88868320685e-14
-4.20887686888e-11
2.1432831309e-09
2.79226321245e-09
-4.59109680005e-11
2.31550754453e-09
3.03630322627e-09
-4.39106075323e-11
2.46898292282e-09
3.25420978742e-09
-3.62241156895e-11
2.59432349086e-09
3.43563015403e-09
-2.38369907434e-11
2.68739491443e-09
3.57209266552e-09
-8.29600264021e-12
2.74553878508e-09
3.65805750658e-09
8.39146049888e-12
2.7664296935e-09
3.68891152817e-09
2.39340298295e-11
2.74551619679e-09
3.6580596239e-09
3.63216290405e-11
2.68734531852e-09
3.57209667325e-09
4.40007721868e-11
2.59423892701e-09
3.43563550091e-09
4.59803556275e-11
2.46886141899e-09
3.2542157144e-09
4.21294575592e-11
2.31536341435e-09
3.03631027906e-09
3.09372044933e-11
2.14314103657e-09
2.79228124497e-09
1.98201622867e-09
2.53253035074e-09
6.10408366324e-14
-2.37180561851e-11
3.330897215e-09
3.95491429968e-09
1.14557879325e-13
-3.15262685176e-11
3.57595462422e-09
4.36555094566e-09
-3.32632605196e-11
3.83210407288e-09
4.75009636091e-09
-3.09041876216e-11
4.05809441946e-09
5.09243379519e-09
-2.5013103714e-11
4.24098687212e-09
5.37673238267e-09
-1.62594898325e-11
4.37558799314e-09
5.59016060091e-09
-5.60608357323e-12
4.45932937598e-09
5.72436596712e-09
5.78570710673e-12
4.48946781862e-09
5.77239631768e-09
1.64382740086e-11
4.45929588542e-09
5.72436813605e-09
2.51869970697e-11
4.37551634e-09
5.59016457566e-09
3.10619774157e-11
4.24086870983e-09
5.37673730708e-09
3.33880710255e-11
4.05792741688e-09
5.09243844757e-09
3.16072606641e-11
3.83190339803e-09
4.75010111793e-09
2.37553873308e-11
3.57575672813e-09
4.36556882112e-09
3.33079280571e-09
3.95499692038e-09
1.07090088094e-13
-5.78222062677e-12
4.53048452874e-09
5.10935831892e-09
1.40778485543e-13
-5.04613692176e-12
4.83337033719e-09
5.64216668991e-09
-2.9192459025e-12
5.14224771518e-09
6.13839973549e-09
-1.04525348538e-12
5.41143147841e-09
6.57802911289e-09
1.94779968686e-14
5.62711125188e-09
6.94163396518e-09
3.53519660507e-13
5.78436563955e-09
7.21372598037e-09
2.23114548352e-13
5.88176186525e-09
7.38437942284e-09
3.54390760423e-14
5.91688834548e-09
7.44528877907e-09
-9.87764074756e-14
5.88172188307e-09
7.38438005811e-09
2.24413171287e-13
5.78428136684e-09
7.21372706412e-09
1.26493676631e-12
5.62697520523e-09
6.94163442744e-09
3.09681247142e-12
5.41124150109e-09
6.57802716322e-09
5.16967119798e-12
5.14201635947e-09
6.13839494769e-09
5.85117345903e-12
4.83313860385e-09
5.64217241645e-09
4.53034975988e-09
5.10943181276e-09
1.57447954424e-13
1.81231554072e-11
5.45811809709e-09
5.99238862345e-09
1.59054968005e-13
3.00022326865e-11
5.79043146544e-09
6.61717117788e-09
3.67964749312e-11
6.11848984867e-09
7.19488693572e-09
3.74348766379e-11
6.40042334102e-09
7.70352255892e-09
3.1907150426e-11
6.62368318454e-09
8.12200383888e-09
2.13443780828e-11
6.78479498897e-09
8.43387778881e-09
7.55201906405e-12
6.8840920634e-09
8.6288637289e-09
-7.22651725303e-12
6.92000780003e-09
8.69826514594e-09
-2.10254867443e-11
6.88405039082e-09
8.62886224582e-09
-3.16042675276e-11
6.78470796588e-09
8.43387446275e-09
-3.71622542524e-11
6.62354440543e-09
8.12199712273e-09
-3.65716276417e-11
6.40023035822e-09
7.70351002501e-09
-2.98366993297e-11
6.11825141687e-09
7.1948670643e-09
-1.80178818189e-11
5.7901866655e-09
6.61715624101e-09
5.45796375949e-09
5.99243738289e-09
2.08218743733e-13
4.42114513081e-11
6.06650989109e-09
6.61115600085e-09
1.70798709364e-13
6.82461182956e-11
6.40380912036e-09
7.29917991678e-09
7.9837808403e-11
6.72244698982e-09
7.93005688644e-09
7.86915858834e-11
6.99203649569e-09
8.48153140377e-09
6.57908220789e-11
7.20252987469e-09
8.9325658689e-09
4.35062589623e-11
7.35265375449e-09
9.26714312233e-09
1.52610647941e-11
7.44467337202e-09
9.47558633586e-09
-1.48819536725e-11
7.47808732206e-09
9.54955899718e-09
-4.31359086341e-11
7.4446342721e-09
9.47558248677e-09
-6.54401820158e-11
7.3525724593e-09
9.26713483672e-09
-7.83749017389e-11
7.20240105619e-09
8.93255107318e-09
-7.95712353158e-11
6.99185695859e-09
8.48150678017e-09
-6.80401690029e-11
6.72222117553e-09
7.93001942749e-09
-4.40670765692e-11
6.40357066237e-09
7.29914048151e-09
6.06634727699e-09
6.61117379043e-09
2.55910457606e-13
6.96853133867e-11
6.35844093398e-09
6.98373078441e-09
1.77199701805e-13
1.05889114397e-10
6.68286917274e-09
7.71012969064e-09
1.219931384e-10
6.97178176612e-09
8.37020240805e-09
1.18748128481e-10
7.21191946598e-09
8.94280787302e-09
9.84309775942e-11
7.39619495636e-09
9.4081973153e-09
6.47324583859e-11
7.52581999845e-09
9.75174883444e-09
2.26208877387e-11
7.60478038191e-09
9.96498508259e-09
-2.21998033243e-11
7.63360230763e-09
1.00404100568e-08
-6.43215119937e-11
7.6047475697e-09
9.96497904376e-09
-9.80418178189e-11
7.52575174126e-09
9.75173586957e-09
-1.18394367529e-10
7.396086441e-09
9.40817472272e-09
-1.21689020962e-10
7.21176645266e-09
8.94277132809e-09
-1.05644127547e-10
6.97158400131e-09
8.37014739482e-09
-6.95008294943e-11
6.68265451326e-09
7.71006601879e-09
6.35828443691e-09
6.98371778712e-09
2.99826728118e-13
9.27056383387e-11
6.36723579536e-09
7.13646741041e-09
1.79203949512e-13
1.40461037637e-10
6.66777820249e-09
7.88155240163e-09
1.60590149219e-10
6.91548027116e-09
8.55242708504e-09
1.55171958587e-10
7.11711134867e-09
9.12995019424e-09
1.27912390308e-10
7.2684924043e-09
9.59642584987e-09
8.38092541578e-11
7.37321478096e-09
9.93913391786e-09
2.92175532242e-11
7.43654135933e-09
1.01510391802e-08
-2.87628928344e-11
7.45981596908e-09
1.02257095814e-08
-8.33653479813e-11
7.43651740212e-09
1.01510313713e-08
-1.27490912661e-10
7.37316458871e-09
9.93911708912e-09
-1.54785435316e-10
7.26841144269e-09
9.59639665506e-09
-1.60250898845e-10
7.11699433662e-09
9.12990333001e-09
-1.40177570875e-10
6.91532284406e-09
8.55235676676e-09
-9.24810387673e-11
6.66760161557e-09
7.88146809853e-09
6.36710185158e-09
7.13642816869e-09
3.39473341127e-13
1.12238943622e-10
6.14208227997e-09
7.10043748315e-09
1.78091694222e-13
1.70535401159e-10
6.41348002744e-09
7.84997149665e-09
1.94162562588e-10
6.61607120804e-09
8.51892038611e-09
1.86728045738e-10
6.77679110036e-09
9.09057237111e-09
1.53337625611e-10
6.89408407547e-09
9.54961128406e-09
1.00203778587e-10
6.97354720785e-09
9.88535029871e-09
3.48763450784e-11
7.02117764137e-09
1.00921667777e-08
-3.43929659992e-11
7.03884100863e-09
1.01647206343e-08
-9.9731093574e-11
7.02116419702e-09
1.00921577369e-08
-1.52886821188e-10
6.97351824031e-09
9.88533072382e-09
-1.86310348189e-10
6.89403519713e-09
9.5495772836e-09
-1.93788712597e-10
6.77671593308e-09
9.09051785721e-09
-1.70213505962e-10
6.61596242713e-09
8.51883873814e-09
-1.11974334609e-10
6.41335299246e-09
7.84987262753e-09
6.14198483948e-09
7.10037935708e-09
3.75133043001e-13
1.27893346859e-10
5.73757074911e-09
6.90804045063e-09
1.74526231865e-13
1.95486575304e-10
5.9786957805e-09
7.65275613768e-09
2.22158972866e-10
6.1377784128e-09
8.31204215759e-09
2.13079697695e-10
6.25984179703e-09
8.87167372464e-09
1.74564038541e-10
6.34564272771e-09
9.31871054638e-09
1.13882517873e-10
6.40223719348e-09
9.64437235972e-09
3.95967388343e-11
6.43579508178e-09
9.84425083652e-09
-3.90862229926e-11
6.44838479755e-09
9.91400537177e-09
-1.13382134838e-10
6.43579264593e-09
9.84424118344e-09
-1.74084140797e-10
6.40223040446e-09
9.64435138945e-09
-2.12630327748e-10
6.34562741069e-09
9.31867404367e-09
-2.21749735798e-10
6.25981110598e-09
8.87161515071e-09
-1.95125900302e-10
6.13772308394e-09
8.31195456954e-09
-1.27589233642e-10
5.97862626461e-09
7.65265055082e-09
5.73752175591e-09
6.90797260146e-09
4.07453842661e-13
1.39751040069e-10
5.20683527283e-09
6.59031834501e-09
1.69605655428e-13
2.15291786383e-10
5.4190411513e-09
7.32501072929e-09
2.44728718304e-10
5.53945049528e-09
7.97082541763e-09
2.34576943647e-10
5.62780413324e-09
8.51582144495e-09
1.92014737713e-10
5.68691977344e-09
8.94922053558e-09
1.25178411377e-10
5.72461912632e-09
9.26388001314e-09
4.35042120132e-11
5.74668420621e-09
9.45633214819e-09
-4.29656180745e-11
5.75508332616e-09
9.52308811514e-09
-1.24649095907e-10
5.74669231301e-09
9.45632263578e-09
-1.91504080967e-10
5.72463372779e-09
9.26385933159e-09
-2.34094042821e-10
5.68693696135e-09
8.94918447334e-09
-2.44282750731e-10
5.62781720303e-09
8.51576342425e-09
-2.14892124181e-10
5.539449574e-09
7.97073861555e-09
-1.39408164336e-10
5.41903310113e-09
7.32490762377e-09
5.20684167178e-09
6.59025116285e-09
4.37006597076e-13
1.48184084769e-10
4.5976093368e-09
6.1751396769e-09
1.63592904599e-13
2.30395258564e-10
4.78324829139e-09
6.89762214917e-09
2.62640055742e-10
4.87099105364e-09
7.52894808663e-09
2.52175894465e-10
4.93174234973e-09
8.05910112468e-09
2.06585737929e-10
4.97003142336e-09
8.47915079063e-09
1.34714061485e-10
4.99354223703e-09
8.78327503605e-09
4.68207981152e-11
5.00711344245e-09
8.96866510926e-09
-4.62515969902e-11
5.01235822832e-09
9.03252658117e-09
-1.34153200744e-10
5.00713096445e-09
8.96865672867e-09
-2.06041853474e-10
4.99357571723e-09
8.78325685919e-09
-2.51657443663e-10
4.9700778908e-09
8.47911901892e-09
-2.62156431812e-10
4.93179571232e-09
8.05904956363e-09
-2.29957142176e-10
4.87104216945e-09
7.52887021444e-09
-1.47804246775e-10
4.78330120035e-09
6.89753168486e-09
4.59767410232e-09
6.17508427333e-09
4.64452912598e-13
1.53733940777e-10
3.95043145415e-09
5.68620139479e-09
1.57002080948e-13
2.41868122735e-10
4.11133323636e-09
6.39634262341e-09
2.77539455471e-10
4.17209997093e-09
7.01394239034e-09
2.6760419112e-10
4.21176688537e-09
7.53047844215e-09
2.19698784003e-10
4.23552707717e-09
7.93854972193e-09
1.43401470141e-10
4.24976332727e-09
8.23335559121e-09
4.98587839699e-11
4.25789811258e-09
8.41249538094e-09
-4.92557965691e-11
4.26104792156e-09
8.473726915e-09
-1.42806336852e-10
4.2579231792e-09
8.41248943783e-09
-2.19119415526e-10
4.2498124892e-09
8.23334279794e-09
-2.67049167856e-10
4.23559794304e-09
7.93852716655e-09
-2.77018614544e-10
4.21185511946e-09
7.53044075049e-09
-2.41393724655e-10
4.1721977038e-09
7.01388312317e-09
-1.53320263807e-10
4.1114433042e-09
6.39627531805e-09
3.95055326311e-09
5.68616793009e-09
4.88304626341e-13
1.56418371866e-10
3.29891223051e-09
5.14269636086e-09
1.50302095776e-13
2.5132294948e-10
3.43353084573e-09
5.84171607603e-09
2.92039589774e-10
3.47227182287e-09
6.44732173264e-09
2.83347219213e-10
3.49812744799e-09
6.95213148247e-09
2.33240626904e-10
3.51396908885e-09
7.3500453902e-09
1.52396182827e-10
3.52376463439e-09
7.63703272843e-09
5.30069775713e-11
3.52936756558e-09
7.81089317222e-09
-5.23674760231e-11
3.53142429896e-09
7.86981857315e-09
-1.51764556331e-10
3.52939841324e-09
7.81089118603e-09
-2.32625032633e-10
3.52382554002e-09
7.63702861105e-09
-2.82756417202e-10
3.51405871707e-09
7.35003764036e-09
-2.9148448557e-10
3.49824300404e-09
6.9521162093e-09
-2.50816248329e-10
3.47240857791e-09
6.44729235271e-09
-1.55975671792e-10
3.43369112795e-09
5.841682517e-09
3.2990836438e-09
5.14269171518e-09
5.09628164395e-13
1.43702418309e-10
4.55885805407e-09
1.43713460737e-13
2.68441499186e-09
2.57412686434e-10
5.24917062754e-09
2.76269150868e-09
3.07287863968e-10
5.84482838044e-09
2.7915192462e-09
3.00973353796e-10
6.34006054645e-09
2.81289443465e-09
2.48698313481e-10
6.72982437967e-09
2.82758366217e-09
1.62770637932e-10
7.01060731318e-09
2.83753117457e-09
5.66554231771e-11
7.1802217148e-09
2.84331085726e-09
-5.5977811933e-11
7.23718938846e-09
2.84521632126e-09
-1.62102181281e-10
7.1802247315e-09
2.84334593221e-09
-2.48048062733e-10
7.01061406209e-09
2.83760103078e-09
-3.00351090844e-10
6.72983512721e-09
2.82768749019e-09
-3.0670459344e-10
6.34007391559e-09
2.81303113514e-09
-2.56882074349e-10
5.8448381109e-09
2.79168654136e-09
-1.43238640082e-10
5.2491856885e-09
2.76289289407e-09
4.55887588706e-09
5.23385062927e-13
2.6846317057e-09
7.33178909684e-12
3.96880965902e-11
8.3249148051e-10
1.11537977903e-14
1.41778462169e-11
4.07601737291e-11
9.19969419788e-10
1.80011432019e-11
4.39656055585e-11
1.00239918953e-09
1.8553089627e-11
4.71079820263e-11
1.07625643163e-09
1.58983453954e-11
5.0046316964e-11
1.13790189503e-09
1.06741230845e-11
5.23085210058e-11
1.18436090359e-09
3.76719151933e-12
5.37586683568e-11
1.21367984011e-09
-3.74134928221e-12
5.42830979822e-11
1.2242314892e-09
-1.06504805643e-11
5.37457123353e-11
1.2136809351e-09
-1.58783142891e-11
5.22843955571e-11
1.18436299436e-09
-1.85361936392e-11
5.00137764897e-11
1.13790476749e-09
-1.79853425515e-11
4.70690993427e-11
1.07625989508e-09
-1.41689387406e-11
4.39163450504e-11
1.00240359688e-09
-7.32810304489e-12
4.07182911995e-11
9.19978367544e-10
3.96623758686e-11
8.32520739559e-10
7.42585431499e-15
1.71301623066e-11
2.55206841018e-10
2.29988714699e-09
3.01291540939e-14
3.24174814701e-11
2.76487840897e-10
2.54137449988e-09
4.11458282298e-11
3.03249213077e-10
2.76842380305e-09
4.22346186135e-11
3.29002233371e-10
2.97134717464e-09
3.61008169648e-11
3.51531204911e-10
3.14039332962e-09
2.41843120232e-11
3.68805149226e-10
3.267617674e-09
8.52736159658e-12
3.79769105563e-10
3.34779645974e-09
-8.45046093612e-12
3.83681369217e-10
3.37657122517e-09
-2.41126444738e-11
3.79739219896e-10
3.34779903344e-09
-3.6038115964e-11
3.6874798159e-10
3.26762251674e-09
-4.21810508213e-11
3.51451579906e-10
3.14039983527e-09
-4.11002108432e-11
3.28904873448e-10
2.97135481564e-09
-3.2388382117e-11
3.03133965224e-10
2.76843365458e-09
-1.71185648966e-11
2.76382691573e-10
2.54139668264e-09
2.55140897463e-10
2.29995657896e-09
2.24934039685e-14
2.39042704098e-11
6.30829180585e-10
3.55543463766e-09
4.65174921712e-14
4.42133171726e-11
6.89158276189e-10
3.93268652147e-09
5.56759378395e-11
7.55427080255e-10
4.28657392855e-09
5.6807091295e-11
8.18235923115e-10
4.60217868869e-09
4.8369635372e-11
8.7215277692e-10
4.86465188147e-09
3.23185835942e-11
9.13178278198e-10
5.06193404794e-09
1.13835678575e-11
9.39071472177e-10
5.18608302591e-09
-1.12565716413e-11
9.48283699674e-10
5.23050782731e-09
-3.21989858312e-11
9.39029325675e-10
5.1860858386e-09
-4.82630876775e-11
9.13096819639e-10
5.06193920524e-09
-5.67154875897e-11
8.7203789552e-10
4.86465843837e-09
-5.56003473098e-11
8.18094283431e-10
4.60218576341e-09
-4.41622751764e-11
7.55263280904e-10
4.2865828268e-09
-2.38810316571e-11
6.8900526297e-10
3.93271101823e-09
6.3073495727e-10
3.55552222257e-09
4.1991527324e-14
3.00653537868e-11
1.0990906787e-09
4.61105644951e-09
6.17264747051e-14
5.40811698375e-11
1.20122583971e-09
5.10618374197e-09
6.72582732194e-11
1.31166048713e-09
5.56909340845e-09
6.81336838876e-11
1.41478490452e-09
5.98070358358e-09
5.77689862585e-11
1.502055987e-09
6.32218816449e-09
3.8502573135e-11
1.56789170969e-09
6.57836384961e-09
1.35485516018e-11
1.60921020765e-09
6.73927032106e-09
-1.33721102066e-11
1.62388100524e-09
6.79667909897e-09
-3.83351995455e-11
1.60916068088e-09
6.73927181135e-09
-5.76179540025e-11
1.56779530737e-09
6.57836622463e-09
-6.80029954304e-11
1.50191834004e-09
6.32219019305e-09
-6.71510379271e-11
1.41461380421e-09
5.98070399731e-09
-5.40054467083e-11
1.31146508443e-09
5.56909324534e-09
-3.00245170214e-11
1.20104127135e-09
5.10619797969e-09
1.0989738878e-09
4.6111386525e-09
6.82332784273e-14
3.72455700548e-11
1.58971584571e-09
5.46452089945e-09
7.54805001794e-14
6.4923428331e-11
1.73293675419e-09
6.05786829582e-09
7.95639417007e-11
1.88200446687e-09
6.60999366644e-09
7.99685755595e-11
2.01906953682e-09
7.09891995369e-09
6.75121670412e-11
2.13343819613e-09
7.50315967862e-09
4.48915686278e-11
2.21888022227e-09
7.80558516185e-09
1.57813153476e-11
2.27217017144e-09
7.99508184202e-09
-1.55571429184e-11
2.29105978707e-09
8.06248560144e-09
-4.46777398074e-11
2.27211765093e-09
7.99508085317e-09
-6.7317303813e-11
2.21877753235e-09
7.80558242936e-09
-7.979849863e-11
2.13329036156e-09
7.50315365942e-09
-7.94232483177e-11
2.01888445255e-09
7.09890888404e-09
-6.48197838364e-11
1.88179301475e-09
6.60997788336e-09
-3.71818801782e-11
1.73273603212e-09
6.05786277845e-09
1.58958386711e-09
5.46458218282e-09
9.9468627732e-14
4.61233563255e-11
2.04002088118e-09
6.11470882246e-09
8.70724867361e-14
7.815086028e-11
2.21475078083e-09
6.78541331385e-09
9.44422735149e-11
2.39011267602e-09
7.40573542848e-09
9.42094502333e-11
2.54873619096e-09
7.95217318578e-09
7.92056362842e-11