/*--------------------------------*- C++ -*----------------------------------*\
  =========                 |
  \\      /  F ield         | OpenFOAM: The Open Source CFD Toolbox
   \\    /   O peration     | Website:  https://openfoam.org
    \\  /    A nd           | Version:  7
     \\/     M anipulation  |
\*---------------------------------------------------------------------------*/
FoamFile
{
    version     2.0;
    format      ascii;
    class       volScalarField;
    location    "2.48";
    object      p;
}
// * * * * * * * * * * * * * * * * * * * * * * * * * * * * * * * * * * * * * //

dimensions      [0 2 -2 0 0 0 0];

internalField   nonuniform List<scalar> 
22500
(
-8.70360057464e-06
-8.70297941936e-06
-8.70287905001e-06
-8.7025832438e-06
-8.70237889514e-06
-8.70222284535e-06
-8.70213428215e-06
-8.70211117838e-06
-8.70216104163e-06
-8.70227550792e-06
-8.70245541406e-06
-8.70268003313e-06
-8.70299106954e-06
-8.70309932766e-06
-8.70372668086e-06
-8.6973626044e-06
-8.69639224562e-06
-8.69602490756e-06
-8.69548658926e-06
-8.69507818051e-06
-8.69476793158e-06
-8.69458354942e-06
-8.69452861841e-06
-8.69461048075e-06
-8.69482092038e-06
-8.69515520952e-06
-8.69558417697e-06
-8.69613825571e-06
-8.69651414974e-06
-8.69749143298e-06
-8.6912225079e-06
-8.68991949729e-06
-8.68929206748e-06
-8.68851109227e-06
-8.68790355704e-06
-8.68744179137e-06
-8.68716321809e-06
-8.68707671253e-06
-8.68719034034e-06
-8.68749516259e-06
-8.68798118637e-06
-8.68860955107e-06
-8.68940675272e-06
-8.69004321757e-06
-8.69135397678e-06
-8.6854453472e-06
-8.6838326507e-06
-8.68293235391e-06
-8.68190737775e-06
-8.68109713467e-06
-8.68048173133e-06
-8.68010728842e-06
-8.67998844979e-06
-8.68013442151e-06
-8.68053512428e-06
-8.68117484916e-06
-8.68200610348e-06
-8.6830476844e-06
-8.68395750496e-06
-8.68557877533e-06
-8.67964281236e-06
-8.67771160623e-06
-8.67650392602e-06
-8.67521563773e-06
-8.67418313549e-06
-8.67340012986e-06
-8.67292092921e-06
-8.67276663787e-06
-8.67294789537e-06
-8.67345320383e-06
-8.67426043235e-06
-8.67531399403e-06
-8.67661916559e-06
-8.67783695685e-06
-8.6797777329e-06
-8.67368331515e-06
-8.67141423736e-06
-8.6698662698e-06
-8.66829496072e-06
-8.66702142141e-06
-8.66605742087e-06
-8.66546509235e-06
-8.6652724672e-06
-8.66549180059e-06
-8.66610999365e-06
-8.66709804613e-06
-8.66839264184e-06
-8.66998108548e-06
-8.67153975722e-06
-8.67381931007e-06
-8.6675534377e-06
-8.6649257183e-06
-8.66301266487e-06
-8.66114438327e-06
-8.65961713609e-06
-8.65846337092e-06
-8.65775262996e-06
-8.65751985746e-06
-8.65777900052e-06
-8.65851529197e-06
-8.65969286501e-06
-8.6612410996e-06
-8.663126686e-06
-8.66505108426e-06
-8.6676901484e-06
-8.66125807713e-06
-8.65825320382e-06
-8.65596013292e-06
-8.65378925226e-06
-8.65200388144e-06
-8.65065785619e-06
-8.6498275227e-06
-8.64955422653e-06
-8.64985353211e-06
-8.65070908258e-06
-8.65207865502e-06
-8.65388493135e-06
-8.65607324751e-06
-8.65837827392e-06
-8.66139517271e-06
-8.65481271976e-06
-8.65141892544e-06
-8.64874288517e-06
-8.64627428608e-06
-8.64423631409e-06
-8.64270308512e-06
-8.64175684707e-06
-8.64144433589e-06
-8.64178248609e-06
-8.64275360264e-06
-8.64431011696e-06
-8.64636889798e-06
-8.64885503603e-06
-8.65154361624e-06
-8.65495010257e-06
-8.64824600612e-06
-8.64446145156e-06
-8.64141303567e-06
-8.63866362883e-06
-8.63638954132e-06
-8.63468247248e-06
-8.63362931322e-06
-8.63328074232e-06
-8.63365460151e-06
-8.63473232252e-06
-8.63646244862e-06
-8.6387572686e-06
-8.64152430586e-06
-8.64458581918e-06
-8.64838358245e-06
-8.6415946525e-06
-8.6374299129e-06
-8.63403530208e-06
-8.63103501497e-06
-8.62855239444e-06
-8.62669317917e-06
-8.6255473963e-06
-8.62516772838e-06
-8.62557235232e-06
-8.62674241486e-06
-8.62862448793e-06
-8.63112781133e-06
-8.6341458432e-06
-8.63755410961e-06
-8.64173266e-06
-8.63487800052e-06
-8.63037066881e-06
-8.62668088265e-06
-8.62347438647e-06
-8.62082156185e-06
-8.61884000723e-06
-8.61762100358e-06
-8.61721700366e-06
-8.61764564231e-06
-8.61888866159e-06
-8.62089293531e-06
-8.62356647601e-06
-8.62679088901e-06
-8.63049489824e-06
-8.63501670625e-06
-8.62804959929e-06
-8.62332755308e-06
-8.61943375985e-06
-8.61607807933e-06
-8.61330214826e-06
-8.6112357772e-06
-8.60996831799e-06
-8.60954855466e-06
-8.60999262212e-06
-8.61128383799e-06
-8.61337279381e-06
-8.61616952372e-06
-8.61954339007e-06
-8.62345199657e-06
-8.62818915978e-06
-8.62123907735e-06
-8.61646536749e-06
-8.61241063844e-06
-8.60894282605e-06
-8.60608571579e-06
-8.6039748721e-06
-8.60268682442e-06
-8.60226121103e-06
-8.60271073404e-06
-8.60402222345e-06
-8.60615552449e-06
-8.60903355215e-06
-8.61251994279e-06
-8.6165903805e-06
-8.62137918991e-06
-8.61598887978e-06
-8.60997609618e-06
-8.60567150735e-06
-8.60203902929e-06
-8.59910727204e-06
-8.59697423605e-06
-8.59568371285e-06
-8.59525880133e-06
-8.59570727763e-06
-8.59702096952e-06
-8.59917637469e-06
-8.60212928676e-06
-8.60578119686e-06
-8.61010297923e-06
-8.61612974074e-06
-8.53247570551e-06
-8.53243317575e-06
-8.53237817914e-06
-8.53234238208e-06
-8.53231092854e-06
-8.53228626911e-06
-8.53226765499e-06
-8.53225577727e-06
-8.532250952e-06
-8.53225371191e-06
-8.53226441641e-06
-8.53228490525e-06
-8.53231370929e-06
-8.53236635155e-06
-8.53240959039e-06
-8.53189195291e-06
-8.53184754542e-06
-8.5317889869e-06
-8.53175267627e-06
-8.53172208526e-06
-8.53169895251e-06
-8.53168171348e-06
-8.5316705051e-06
-8.53166549711e-06
-8.53166738589e-06
-8.53167705514e-06
-8.53169705497e-06
-8.53172643494e-06
-8.53178223721e-06
-8.53182669558e-06
-8.53153038503e-06
-8.53150841365e-06
-8.53146574986e-06
-8.53144642088e-06
-8.53143025708e-06
-8.53141851927e-06
-8.5314086027e-06
-8.53139998258e-06
-8.53139258231e-06
-8.53138728159e-06
-8.53138556166e-06
-8.53139102395e-06
-8.53140325208e-06
-8.531443022e-06
-8.53146504553e-06
-8.53146887298e-06
-8.53148369687e-06
-8.53146801724e-06
-8.53147446231e-06
-8.5314790626e-06
-8.531482772e-06
-8.53148240447e-06
-8.53147711029e-06
-8.53146669466e-06
-8.53145208861e-06
-8.53143503332e-06
-8.53141970109e-06
-8.53140602697e-06
-8.53141864033e-06
-8.53140370296e-06
-8.53156804411e-06
-8.5316151512e-06
-8.53162163251e-06
-8.53164737064e-06
-8.53166633577e-06
-8.53167992457e-06
-8.53168538731e-06
-8.53168214536e-06
-8.53167014023e-06
-8.53165009842e-06
-8.53162340925e-06
-8.53159377416e-06
-8.53156069424e-06
-8.531550954e-06
-8.53150346788e-06
-8.53172076158e-06
-8.53178316232e-06
-8.53179735205e-06
-8.53182718207e-06
-8.53184705059e-06
-8.53185981313e-06
-8.53186424172e-06
-8.53186073514e-06
-8.53184959698e-06
-8.53183112612e-06
-8.53180566318e-06
-8.53177532021e-06
-8.53173810221e-06
-8.53172042048e-06
-8.53165722774e-06
-8.53185792007e-06
-8.53191226419e-06
-8.53191561528e-06
-8.53193103059e-06
-8.53193595066e-06
-8.53193565533e-06
-8.5319313661e-06
-8.53192500329e-06
-8.53191740885e-06
-8.53190827632e-06
-8.53189634746e-06
-8.53188121379e-06
-8.53185842092e-06
-8.53185132828e-06
-8.53179585047e-06
-8.53193120035e-06
-8.53195208307e-06
-8.53192575972e-06
-8.53190878354e-06
-8.53188385506e-06
-8.5318593143e-06
-8.53183941137e-06
-8.53182788159e-06
-8.53182622197e-06
-8.53183340867e-06
-8.53184629044e-06
-8.53186135269e-06
-8.53187101196e-06
-8.53189337491e-06
-8.53187092109e-06
-8.53190938698e-06
-8.53187351709e-06
-8.5318011448e-06
-8.53173693614e-06
-8.53167025873e-06
-8.53161282877e-06
-8.53157210074e-06
-8.53155367822e-06
-8.53155971784e-06
-8.53158847518e-06
-8.53163485779e-06
-8.53169206649e-06
-8.53174907651e-06
-8.53181730932e-06
-8.53185127254e-06
-8.53177722701e-06
-8.53166614452e-06
-8.5315354095e-06
-8.531413626e-06
-8.53129736129e-06
-8.53120169651e-06
-8.53113705979e-06
-8.5311107647e-06
-8.53112551684e-06
-8.5311789641e-06
-8.53126424063e-06
-8.53137147724e-06
-8.53148622402e-06
-8.53161266793e-06
-8.53172153209e-06
-8.53153274049e-06
-8.53133467078e-06
-8.53113798561e-06
-8.53095304169e-06
-8.53078355878e-06
-8.53064762287e-06
-8.53055813867e-06
-8.53052369966e-06
-8.53054744126e-06
-8.53062653211e-06
-8.53075275035e-06
-8.53091368827e-06
-8.53109180341e-06
-8.53128408363e-06
-8.53147974438e-06
-8.53118598058e-06
-8.53089556661e-06
-8.53062922618e-06
-8.53037952886e-06
-8.53015687632e-06
-8.52998164511e-06
-8.5298682506e-06
-8.52982607893e-06
-8.52985839527e-06
-8.52996219498e-06
-8.53012840474e-06
-8.53034300868e-06
-8.53058611814e-06
-8.5308479773e-06
-8.53113574265e-06
-8.53075910769e-06
-8.53037276914e-06
-8.5300344454e-06
-8.52972149273e-06
-8.52944901773e-06
-8.52923803785e-06
-8.52910347853e-06
-8.52905446971e-06
-8.52909446584e-06
-8.52922022902e-06
-8.52942286631e-06
-8.52968781833e-06
-8.52999446837e-06
-8.53032827782e-06
-8.53071184704e-06
-8.53026361535e-06
-8.52977560385e-06
-8.52937050754e-06
-8.52900195605e-06
-8.52868890352e-06
-8.52845029535e-06
-8.52829970392e-06
-8.52824586072e-06
-8.52829153029e-06
-8.52843411797e-06
-8.52866512593e-06
-8.52897119403e-06
-8.52933367706e-06
-8.52973423345e-06
-8.53021947302e-06
-8.52958234986e-06
-8.52910808405e-06
-8.52865612445e-06
-8.528251799e-06
-8.52791628401e-06
-8.52766383231e-06
-8.52750611796e-06
-8.52745024062e-06
-8.52749875706e-06
-8.52764921388e-06
-8.52789472037e-06
-8.52822375653e-06
-8.52862235187e-06
-8.5290695215e-06
-8.52954102534e-06
-7.82939604045e-06
-7.82942425258e-06
-7.8294595449e-06
-7.82949685136e-06
-7.82953257365e-06
-7.82956305538e-06
-7.82958565059e-06
-7.82959833905e-06
-7.82960021593e-06
-7.82959158074e-06
-7.82957351223e-06
-7.82954755156e-06
-7.82951633248e-06
-7.82948153093e-06
-7.82944837956e-06
-7.82947971283e-06
-7.82950876888e-06
-7.82954570516e-06
-7.82958411477e-06
-7.82962071591e-06
-7.82965174786e-06
-7.82967459234e-06
-7.82968725776e-06
-7.82968880304e-06
-7.82967954782e-06
-7.82966057983e-06
-7.82963348606e-06
-7.82960101198e-06
-7.82956480133e-06
-7.82953127652e-06
-7.82949800087e-06
-7.82952236045e-06
-7.82955562173e-06
-7.82959044531e-06
-7.8296241708e-06
-7.8296529845e-06
-7.82967436205e-06
-7.82968641023e-06
-7.82968821004e-06
-7.82968007658e-06
-7.82966305091e-06
-7.82963864989e-06
-7.82960962613e-06
-7.82957726612e-06
-7.82954880584e-06
-7.82948931579e-06
-7.82950827715e-06
-7.82953706417e-06
-7.82956748319e-06
-7.82959756597e-06
-7.82962355755e-06
-7.8296430566e-06
-7.82965429661e-06
-7.82965640186e-06
-7.829649676e-06
-7.8296351034e-06
-7.82961411344e-06
-7.8295893968e-06
-7.82956166175e-06
-7.82953901557e-06
-7.82947171098e-06
-7.8294858939e-06
-7.82951064644e-06
-7.82953687478e-06
-7.82956336518e-06
-7.82958652683e-06
-7.82960412081e-06
-7.82961449323e-06
-7.82961681609e-06
-7.82961137583e-06
-7.82959910424e-06
-7.82958134306e-06
-7.82956067779e-06
-7.82953717744e-06
-7.82951992478e-06
-7.82944766298e-06
-7.82945745031e-06
-7.82947857977e-06
-7.82950096217e-06
-7.8295240668e-06
-7.82954453132e-06
-7.82956026901e-06
-7.82956975948e-06
-7.82957221923e-06
-7.82956792526e-06
-7.82955775414e-06
-7.82954296613e-06
-7.82952600774e-06
-7.82950635971e-06
-7.82949404052e-06
-7.82941820404e-06
-7.82942422064e-06
-7.82944214952e-06
-7.82946104652e-06
-7.82948100744e-06
-7.82949892665e-06
-7.82951288731e-06
-7.82952149603e-06
-7.82952401671e-06
-7.82952071607e-06
-7.82951241417e-06
-7.82950029367e-06
-7.82948663392e-06
-7.8294704486e-06
-7.82946252121e-06
-7.829384887e-06
-7.8293877236e-06
-7.82940279689e-06
-7.82941865804e-06
-7.82943580473e-06
-7.82945140436e-06
-7.82946371368e-06
-7.82947146813e-06
-7.82947398743e-06
-7.82947152594e-06
-7.82946484619e-06
-7.82945505511e-06
-7.82944424375e-06
-7.82943112269e-06
-7.82942694149e-06
-7.82934884563e-06
-7.82934913802e-06
-7.82936169029e-06
-7.82937493899e-06
-7.82938957155e-06
-7.82940306557e-06
-7.82941384991e-06
-7.82942078428e-06
-7.82942325306e-06
-7.82942149182e-06
-7.82941620329e-06
-7.829408417e-06
-7.82940001812e-06
-7.82938959817e-06
-7.8293885379e-06
-7.82931079424e-06
-7.82930896623e-06
-7.82931927097e-06
-7.82933028923e-06
-7.82934271139e-06
-7.82935432081e-06
-7.82936370664e-06
-7.82936986979e-06
-7.82937225279e-06
-7.82937107845e-06
-7.8293669786e-06
-7.82936090103e-06
-7.82935451631e-06
-7.82934648711e-06
-7.82934797195e-06
-7.82927088271e-06
-7.82926736209e-06
-7.82927568691e-06
-7.82928483422e-06
-7.82929533097e-06
-7.829305247e-06
-7.82931336301e-06
-7.82931879755e-06
-7.82932107809e-06
-7.82932039292e-06
-7.82931730616e-06
-7.82931266601e-06
-7.82930792002e-06
-7.82930198341e-06
-7.82930554601e-06
-7.82922877302e-06
-7.82922407648e-06
-7.82923082019e-06
-7.82923852842e-06
-7.8292473993e-06
-7.82925585161e-06
-7.82926282041e-06
-7.8292675907e-06
-7.829269746e-06
-7.82926946136e-06
-7.82926720572e-06
-7.8292637104e-06
-7.82926016777e-06
-7.82925586788e-06
-7.82926092059e-06
-7.82918262324e-06
-7.82917816806e-06
-7.8291843323e-06
-7.8291912374e-06
-7.82919895738e-06
-7.82920624292e-06
-7.82921228719e-06
-7.82921646376e-06
-7.82921847123e-06
-7.8292184273e-06
-7.82921672258e-06
-7.82921393861e-06
-7.82921094724e-06
-7.82920724969e-06
-7.82921233961e-06
-7.82913364402e-06
-7.82913167706e-06
-7.82913726929e-06
-7.82914353486e-06
-7.82915024064e-06
-7.82915658554e-06
-7.82916183329e-06
-7.82916551007e-06
-7.82916734696e-06
-7.82916744915e-06
-7.82916614767e-06
-7.82916392588e-06
-7.82916132445e-06
-7.82915817973e-06
-7.82916093598e-06
-7.82912088488e-06
-7.82910078762e-06
-7.82909965152e-06
-7.82910021275e-06
-7.8291023889e-06
-7.82910536942e-06
-7.82910846167e-06
-7.82911119999e-06
-7.82911337826e-06
-7.82911508718e-06
-7.82911663412e-06
-7.8291185537e-06
-7.82912140002e-06
-7.82912498761e-06
-7.82914610195e-06
-7.60252618798e-06
-7.60250347868e-06
-7.60248073876e-06
-7.60245741911e-06
-7.60243570252e-06
-7.60241733702e-06
-7.60240414942e-06
-7.602397533e-06
-7.6023983335e-06
-7.60240650276e-06
-7.60242140686e-06
-7.60244183773e-06
-7.60246605707e-06
-7.60249136973e-06
-7.60251664786e-06
-7.60250074627e-06
-7.60247841172e-06
-7.60245524294e-06
-7.60243158553e-06
-7.60240954692e-06
-7.60239100452e-06
-7.60237776773e-06
-7.60237122175e-06
-7.60237223387e-06
-7.60238071499e-06
-7.60239599859e-06
-7.60241682968e-06
-7.60244137824e-06
-7.60246692272e-06
-7.60249168581e-06
-7.60252057234e-06
-7.60250202479e-06
-7.60248173327e-06
-7.60246046624e-06
-7.60244031146e-06
-7.60242323306e-06
-7.60241097371e-06
-7.60240485783e-06
-7.60240570396e-06
-7.6024134055e-06
-7.60242729665e-06
-7.6024461341e-06
-7.60246809716e-06
-7.60249049306e-06
-7.60251153278e-06
-7.60254617387e-06
-7.60253062003e-06
-7.60251289654e-06
-7.60249385233e-06
-7.60247554489e-06
-7.60245991861e-06
-7.60244863897e-06
-7.60244297216e-06
-7.60244368623e-06
-7.60245065782e-06
-7.60246322376e-06
-7.60248016048e-06
-7.60249968416e-06
-7.60251923964e-06
-7.60253717588e-06
-7.60256799282e-06
-7.60255449642e-06
-7.60253858048e-06
-7.60252116251e-06
-7.60250427005e-06
-7.60248979572e-06
-7.60247934793e-06
-7.60247410022e-06
-7.60247477029e-06
-7.60248120629e-06
-7.60249275155e-06
-7.6025082083e-06
-7.6025258483e-06
-7.6025433158e-06
-7.60255906492e-06
-7.60258769133e-06
-7.6025755966e-06
-7.60256095043e-06
-7.60254484996e-06
-7.60252915549e-06
-7.60251569739e-06
-7.60250598771e-06
-7.60250113678e-06
-7.60250180351e-06
-7.60250782072e-06
-7.60251853386e-06
-7.60253278319e-06
-7.60254890927e-06
-7.60256477661e-06
-7.6025789367e-06
-7.60260646211e-06
-7.60259531238e-06
-7.60258155224e-06
-7.60256644297e-06
-7.6025516917e-06
-7.60253906956e-06
-7.60252999676e-06
-7.6025255122e-06
-7.60252620825e-06
-7.60253190316e-06
-7.60254194809e-06
-7.60255522689e-06
-7.60257015796e-06
-7.60258482128e-06
-7.60259785968e-06
-7.60262439594e-06
-7.60261364154e-06
-7.60260042206e-06
-7.60258601551e-06
-7.60257201147e-06
-7.60256007839e-06
-7.60255155036e-06
-7.60254739035e-06
-7.60254813835e-06
-7.60255359753e-06
-7.60256313368e-06
-7.60257567747e-06
-7.60258972903e-06
-7.60260356342e-06
-7.60261594024e-06
-7.60264144789e-06
-7.60263075361e-06
-7.60261776076e-06
-7.60260377671e-06
-7.60259028855e-06
-7.60257887125e-06
-7.6025707798e-06
-7.60256689654e-06
-7.60256770906e-06
-7.60257301101e-06
-7.60258218663e-06
-7.6025942189e-06
-7.60260769106e-06
-7.60262104847e-06
-7.60263315737e-06
-7.60265776865e-06
-7.60264675782e-06
-7.60263369387e-06
-7.6026198895e-06
-7.6026067318e-06
-7.60259570745e-06
-7.6025879619e-06
-7.60258431735e-06
-7.602585198e-06
-7.60259040417e-06
-7.60259934545e-06
-7.60261106388e-06
-7.60262422905e-06
-7.60263741981e-06
-7.60264963438e-06
-7.60267342588e-06
-7.60266185607e-06
-7.60264849292e-06
-7.60263465228e-06
-7.60262167545e-06
-7.6026109165e-06
-7.60260344726e-06
-7.60259999506e-06
-7.60260094197e-06
-7.60260609055e-06
-7.60261489502e-06
-7.60262646552e-06
-7.60263956433e-06
-7.60265287625e-06
-7.60266548019e-06
-7.60268877037e-06
-7.60267632331e-06
-7.60266238796e-06
-7.60264831464e-06
-7.60263536688e-06
-7.60262482314e-06
-7.6026175595e-06
-7.6026142829e-06
-7.60261527202e-06
-7.60262039271e-06
-7.60262912531e-06
-7.60264068609e-06
-7.60265395054e-06
-7.60266766502e-06
-7.60268097518e-06
-7.60270458561e-06
-7.60269079539e-06
-7.60267587234e-06
-7.60266124649e-06
-7.60264819769e-06
-7.60263768034e-06
-7.60263062175e-06
-7.60262743648e-06
-7.60262850777e-06
-7.60263361225e-06
-7.60264238542e-06
-7.60265412845e-06
-7.60266788052e-06
-7.6026824742e-06
-7.60269698137e-06
-7.60272132111e-06
-7.60270545619e-06
-7.60268923383e-06
-7.6026738571e-06
-7.60266047322e-06
-7.60265000949e-06
-7.60264296964e-06
-7.60263993446e-06
-7.6026410221e-06
-7.60264619593e-06
-7.60265508281e-06
-7.60266715545e-06
-7.60268164704e-06
-7.60269742053e-06
-7.60271393557e-06
-7.60272332675e-06
-7.60271074154e-06
-7.60269607092e-06
-7.6026824836e-06
-7.60267084858e-06
-7.60266171801e-06
-7.6026556458e-06
-7.602652933e-06
-7.60265379439e-06
-7.6026581326e-06
-7.60266570849e-06
-7.60267609992e-06
-7.60268878188e-06
-7.60270292539e-06
-7.60271595341e-06
-7.02700202365e-06
-7.02701881228e-06
-7.02703834826e-06
-7.02706001852e-06
-7.02708044179e-06
-7.0270976954e-06
-7.02711060601e-06
-7.02711818645e-06
-7.02711991506e-06
-7.02711592188e-06
-7.02710676518e-06
-7.02709337814e-06
-7.02707707122e-06
-7.02705983686e-06
-7.02704236918e-06
-7.02701892841e-06
-7.0270355077e-06
-7.02705526884e-06
-7.02707702475e-06
-7.02709753927e-06
-7.02711487678e-06
-7.02712780179e-06
-7.02713532379e-06
-7.02713690644e-06
-7.0271327008e-06
-7.02712328237e-06
-7.02710962719e-06
-7.02709310561e-06
-7.02707573945e-06
-7.02705869233e-06
-7.02700397022e-06
-7.02701795523e-06
-7.027035468e-06
-7.02705516535e-06
-7.02707408765e-06
-7.02709029621e-06
-7.02710248467e-06
-7.02710968331e-06
-7.02711137414e-06
-7.02710772305e-06
-7.02709929995e-06
-7.02708707771e-06
-7.02707241784e-06
-7.02705733403e-06
-7.02704299022e-06
-7.02698559823e-06
-7.0269974585e-06
-7.02701291288e-06
-7.02703071879e-06
-7.02704810669e-06
-7.02706317451e-06
-7.02707459039e-06
-7.02708142621e-06
-7.02708318654e-06
-7.02708004469e-06
-7.02707256066e-06
-7.02706169535e-06
-7.02704877983e-06
-7.02703574355e-06
-7.02702364828e-06
-7.02697045826e-06
-7.0269809515e-06
-7.02699485153e-06
-7.02701106875e-06
-7.02702710207e-06
-7.02704112727e-06
-7.02705182343e-06
-7.0270582863e-06
-7.02706004999e-06
-7.02705728589e-06
-7.02705054553e-06
-7.02704076249e-06
-7.02702922293e-06
-7.02701772125e-06
-7.02700723982e-06
-7.02695694885e-06
-7.02696632125e-06
-7.02697898268e-06
-7.02699383887e-06
-7.02700863495e-06
-7.02702165957e-06
-7.02703163375e-06
-7.02703770659e-06
-7.02703943426e-06
-7.02703698794e-06
-7.02703089828e-06
-7.0270220613e-06
-7.02701170059e-06
-7.02700145159e-06
-7.02699224322e-06
-7.02694395459e-06
-7.02695250518e-06
-7.02696412845e-06
-7.02697771424e-06
-7.02699131641e-06
-7.02700334556e-06
-7.02701259172e-06
-7.0270182585e-06
-7.02701992463e-06
-7.02701775743e-06
-7.02701226021e-06
-7.02700427797e-06
-7.02699495892e-06
-7.02698577453e-06
-7.02697761064e-06
-7.02693115809e-06
-7.02693902618e-06
-7.0269497508e-06
-7.02696221649e-06
-7.02697471345e-06
-7.0269857806e-06
-7.0269943059e-06
-7.0269995578e-06
-7.02700114535e-06
-7.02699922517e-06
-7.02699426765e-06
-7.02698705638e-06
-7.02697865477e-06
-7.02697037348e-06
-7.02696307601e-06
-7.02691832673e-06
-7.02692569196e-06
-7.02693564405e-06
-7.02694710154e-06
-7.02695855749e-06
-7.02696869722e-06
-7.02697652123e-06
-7.02698135845e-06
-7.02698285689e-06
-7.02698115515e-06
-7.02697668602e-06
-7.02697016418e-06
-7.02696256006e-06
-7.02695504049e-06
-7.02694845533e-06
-7.02690530965e-06
-7.02691219719e-06
-7.02692150062e-06
-7.02693207521e-06
-7.02694257977e-06
-7.02695185429e-06
-7.02695900067e-06
-7.02696343722e-06
-7.02696483619e-06
-7.02696332946e-06
-7.02695929848e-06
-7.02695338395e-06
-7.02694646047e-06
-7.0269395688e-06
-7.02693357539e-06
-7.0268918538e-06
-7.02689837889e-06
-7.02690715989e-06
-7.02691696266e-06
-7.02692661188e-06
-7.02693507221e-06
-7.026941587e-06
-7.0269456315e-06
-7.02694693633e-06
-7.02694559846e-06
-7.0269419571e-06
-7.02693656718e-06
-7.02693020171e-06
-7.02692380588e-06
-7.02691827683e-06
-7.0268777992e-06
-7.02688408615e-06
-7.02689248149e-06
-7.02690166837e-06
-7.02691054849e-06
-7.0269182892e-06
-7.02692420161e-06
-7.02692789201e-06
-7.02692909035e-06
-7.02692791012e-06
-7.02692460533e-06
-7.02691964836e-06
-7.02691369977e-06
-7.02690762613e-06
-7.02690240535e-06
-7.02686253628e-06
-7.02686891686e-06
-7.0268772471e-06
-7.02688603052e-06
-7.02689436875e-06
-7.02690147041e-06
-7.02690690289e-06
-7.02691023968e-06
-7.02691136204e-06
-7.02691027367e-06
-7.02690721229e-06
-7.02690253344e-06
-7.02689676514e-06
-7.02689069081e-06
-7.02688540604e-06
-7.02684578763e-06
-7.02685280523e-06
-7.02686130605e-06
-7.02686999958e-06
-7.02687790987e-06
-7.02688461757e-06
-7.0268896194e-06
-7.02689271963e-06
-7.02689370807e-06
-7.02689265779e-06
-7.02688970883e-06
-7.02688513899e-06
-7.02687932186e-06
-7.0268729726e-06
-7.02686702954e-06
-7.02683827745e-06
-7.02684259404e-06
-7.02684947983e-06
-7.02685630747e-06
-7.02686261732e-06
-7.02686797616e-06
-7.02687211291e-06
-7.02687477268e-06
-7.02687586775e-06
-7.02687540167e-06
-7.02687349179e-06
-7.02687035327e-06
-7.02686620445e-06
-7.02686146249e-06
-7.0268582577e-06
-6.70215771612e-06
-6.70214771194e-06
-6.70213806349e-06
-6.70212783477e-06
-6.70211817201e-06
-6.70210989243e-06
-6.7021037691e-06
-6.70210059636e-06
-6.70210094364e-06
-6.70210492531e-06
-6.70211227527e-06
-6.70212242037e-06
-6.70213447565e-06
-6.70214705024e-06
-6.70215964806e-06
-6.70214606331e-06
-6.70213630048e-06
-6.70212641072e-06
-6.70211603224e-06
-6.70210621146e-06
-6.70209780479e-06
-6.70209164561e-06
-6.70208851031e-06
-6.7020889739e-06
-6.70209311317e-06
-6.70210065092e-06
-6.7021109831e-06
-6.70212318747e-06
-6.70213585181e-06
-6.70214815515e-06
-6.70215732087e-06
-6.70214945178e-06
-6.70214089401e-06
-6.70213164658e-06
-6.70212274889e-06
-6.70211509523e-06
-6.70210948052e-06
-6.70210662301e-06
-6.70210705305e-06
-6.70211083003e-06
-6.70211768027e-06
-6.70212700689e-06
-6.70213789868e-06
-6.7021489528e-06
-6.70215935765e-06
-6.70217115199e-06
-6.7021646555e-06
-6.70215727709e-06
-6.70214908581e-06
-6.70214110288e-06
-6.70213419549e-06
-6.70212912288e-06
-6.70212655297e-06
-6.70212697297e-06
-6.70213042065e-06
-6.70213662778e-06
-6.70214500676e-06
-6.70215467377e-06
-6.70216428862e-06
-6.70217312258e-06
-6.70218286485e-06
-6.70217730516e-06
-6.70217071195e-06
-6.70216325061e-06
-6.70215594694e-06
-6.70214963977e-06
-6.70214504741e-06
-6.70214276427e-06
-6.7021432262e-06
-6.70214644645e-06
-6.70215215854e-06
-6.70215979464e-06
-6.70216850647e-06
-6.70217705436e-06
-6.7021847741e-06
-6.70219350203e-06
-6.70218858467e-06
-6.70218255677e-06
-6.7021757491e-06
-6.70216907428e-06
-6.70216332806e-06
-6.70215917475e-06
-6.70215715897e-06
-6.70215766773e-06
-6.70216069457e-06
-6.70216597454e-06
-6.7021729656e-06
-6.70218086507e-06
-6.70218854881e-06
-6.70219540525e-06
-6.70220389408e-06
-6.70219948159e-06
-6.70219389849e-06
-6.70218761235e-06
-6.70218146785e-06
-6.70217621901e-06
-6.70217247322e-06
-6.70217071605e-06
-6.70217127972e-06
-6.7021741364e-06
-6.70217902756e-06
-6.7021854409e-06
-6.70219262916e-06
-6.70219958714e-06
-6.70220574024e-06
-6.70221423778e-06
-6.70221013255e-06
-6.70220491093e-06
-6.7021990979e-06
-6.70219345531e-06
-6.7021886739e-06
-6.7021853027e-06
-6.70218377735e-06
-6.70218438341e-06
-6.70218707754e-06
-6.70219160874e-06
-6.70219750088e-06
-6.70220406491e-06
-6.70221041065e-06
-6.70221599311e-06
-6.70222462478e-06
-6.70222080974e-06
-6.70221588001e-06
-6.70221046067e-06
-6.70220524586e-06
-6.70220086813e-06
-6.70219783151e-06
-6.70219650963e-06
-6.70219714698e-06
-6.702199686e-06
-6.70220388572e-06
-6.70220931075e-06
-6.70221533339e-06
-6.70222116659e-06
-6.70222627832e-06
-6.70223524265e-06
-6.70223161032e-06
-6.70222690677e-06
-6.70222182573e-06
-6.70221699139e-06
-6.70221299026e-06
-6.70221024769e-06
-6.70220910471e-06
-6.70220975593e-06
-6.70221214106e-06
-6.70221603409e-06
-6.70222104221e-06
-6.70222660107e-06
-6.7022320119e-06
-6.7022367428e-06
-6.70224613174e-06
-6.70224266613e-06
-6.70223815173e-06
-6.70223333832e-06
-6.7022288435e-06
-6.70222515607e-06
-6.70222267655e-06
-6.70222167647e-06
-6.70222232707e-06
-6.70222455689e-06
-6.70222816641e-06
-6.70223280722e-06
-6.7022379823e-06
-6.70224305977e-06
-6.70224748455e-06
-6.70225747444e-06
-6.70225407787e-06
-6.7022496424e-06
-6.7022450352e-06
-6.702240794e-06
-6.70223741949e-06
-6.70223514858e-06
-6.70223428289e-06
-6.70223490477e-06
-6.70223698669e-06
-6.70224033543e-06
-6.70224466268e-06
-6.70224954606e-06
-6.70225440443e-06
-6.702258634e-06
-6.70226959696e-06
-6.7022660577e-06
-6.70226153034e-06
-6.70225694362e-06
-6.70225294884e-06
-6.70224972687e-06
-6.70224768969e-06
-6.70224687861e-06
-6.70224749946e-06
-6.70224943752e-06
-6.70225258308e-06
-6.70225669565e-06
-6.70226144455e-06
-6.70226630356e-06
-6.70227057306e-06
-6.70228269476e-06
-6.70227868569e-06
-6.70227385562e-06
-6.70226924742e-06
-6.70226524499e-06
-6.70226224105e-06
-6.70226024853e-06
-6.70225954133e-06
-6.70226010912e-06
-6.70226196399e-06
-6.70226497878e-06
-6.70226898634e-06
-6.70227375556e-06
-6.70227879579e-06
-6.7022835098e-06
-6.70228922392e-06
-6.70228702295e-06
-6.70228334258e-06
-6.70227984048e-06
-6.70227690962e-06
-6.70227460959e-06
-6.70227314099e-06
-6.7022725635e-06
-6.70227296972e-06
-6.70227432574e-06
-6.70227655045e-06
-6.70227952112e-06
-6.70228310112e-06
-6.70228699739e-06
-6.70228975892e-06
-6.20005669847e-06
-6.20006328605e-06
-6.20007173214e-06
-6.20008230005e-06
-6.20009302145e-06
-6.20010238282e-06
-6.20010941054e-06
-6.20011364003e-06
-6.20011494203e-06
-6.2001134759e-06
-6.20010958682e-06
-6.20010376093e-06
-6.20009667862e-06
-6.20008933944e-06
-6.20008213938e-06
-6.20006506668e-06
-6.20007161857e-06
-6.20008024565e-06
-6.20009079742e-06
-6.20010147434e-06
-6.20011080764e-06
-6.20011781355e-06
-6.20012201376e-06
-6.2001232481e-06
-6.2001216865e-06
-6.20011767487e-06
-6.2001117245e-06
-6.2001045381e-06
-6.20009713504e-06
-6.20009013544e-06
-6.20005815045e-06
-6.20006350065e-06
-6.20007114364e-06
-6.20008071536e-06
-6.2000905311e-06
-6.20009918886e-06
-6.20010575917e-06
-6.20010976832e-06
-6.20011104628e-06
-6.2001097539e-06
-6.20010622814e-06
-6.20010097535e-06
-6.20009469134e-06
-6.20008838769e-06
-6.20008267952e-06
-6.2000495546e-06
-6.20005401373e-06
-6.20006075728e-06
-6.2000693847e-06
-6.20007832531e-06
-6.20008628669e-06
-6.20009239609e-06
-6.2000961895e-06
-6.20009748948e-06
-6.20009644622e-06
-6.20009338253e-06
-6.20008879618e-06
-6.20008336248e-06
-6.20007804877e-06
-6.20007341572e-06
-6.20004255831e-06
-6.20004648752e-06
-6.20005255196e-06
-6.20006039271e-06
-6.20006855188e-06
-6.20007586564e-06
-6.20008152335e-06
-6.20008508417e-06
-6.20008636431e-06
-6.20008550142e-06
-6.20008280263e-06
-6.20007874723e-06
-6.20007398406e-06
-6.20006940545e-06
-6.20006553119e-06
-6.20003634804e-06
-6.20003987493e-06
-6.20004542692e-06
-6.20005255449e-06
-6.20005998233e-06
-6.20006667199e-06
-6.20007188695e-06
-6.20007520684e-06
-6.20007644833e-06
-6.20007573446e-06
-6.200073354e-06
-6.20006976133e-06
-6.2000655701e-06
-6.20006158912e-06
-6.20005829497e-06
-6.20003036002e-06
-6.20003363645e-06
-6.20003874945e-06
-6.20004522667e-06
-6.20005197233e-06
-6.20005806102e-06
-6.20006283516e-06
-6.2000659035e-06
-6.20006708935e-06
-6.20006650149e-06
-6.2000644066e-06
-6.20006122908e-06
-6.20005753896e-06
-6.20005405587e-06
-6.20005123477e-06
-6.20002441333e-06
-6.20002752125e-06
-6.20003226564e-06
-6.20003816437e-06
-6.20004427544e-06
-6.20004979572e-06
-6.20005414474e-06
-6.20005696497e-06
-6.20005808833e-06
-6.20005760948e-06
-6.20005577206e-06
-6.20005296458e-06
-6.2000497102e-06
-6.20004664525e-06
-6.20004419476e-06
-6.20001838897e-06
-6.20002139222e-06
-6.20002581922e-06
-6.20003120711e-06
-6.20003674793e-06
-6.20004174853e-06
-6.20004569816e-06
-6.20004828049e-06
-6.20004933804e-06
-6.20004895371e-06
-6.20004734646e-06
-6.20004486608e-06
-6.20004198536e-06
-6.20003926229e-06
-6.20003711444e-06
-6.20001218808e-06
-6.20001510439e-06
-6.20001928144e-06
-6.20002423012e-06
-6.20002926473e-06
-6.20003378906e-06
-6.20003737256e-06
-6.20003973069e-06
-6.20004072486e-06
-6.20004042424e-06
-6.20003902039e-06
-6.20003682347e-06
-6.20003425378e-06
-6.20003180463e-06
-6.20002988227e-06
-6.20000570749e-06
-6.20000857586e-06
-6.20001254588e-06
-6.20001712393e-06
-6.20002171505e-06
-6.20002582441e-06
-6.20002907718e-06
-6.20003123544e-06
-6.20003217309e-06
-6.20003194782e-06
-6.20003072365e-06
-6.20002876786e-06
-6.20002644577e-06
-6.20002419851e-06
-6.20002244437e-06
-6.19999887064e-06
-6.20000172566e-06
-6.20000556201e-06
-6.20000985008e-06
-6.200014075e-06
-6.20001781059e-06
-6.20002078184e-06
-6.20002275884e-06
-6.20002365387e-06
-6.20002349849e-06
-6.20002242881e-06
-6.20002066862e-06
-6.20001852094e-06
-6.2000163853e-06
-6.20001470196e-06
-6.19999140282e-06
-6.19999436777e-06
-6.19999821468e-06
-6.2000023458e-06
-6.20000628914e-06
-6.20000976553e-06
-6.2000124808e-06
-6.20001432694e-06
-6.20001517556e-06
-6.20001507319e-06
-6.20001411531e-06
-6.20001247416e-06
-6.20001038237e-06
-6.20000819244e-06
-6.20000640273e-06
-6.19998306492e-06
-6.19998641008e-06
-6.1999904155e-06
-6.1999945285e-06
-6.19999834205e-06
-6.20000160334e-06
-6.20000418554e-06