/*--------------------------------*- C++ -*----------------------------------*\
  =========                 |
  \\      /  F ield         | OpenFOAM: The Open Source CFD Toolbox
   \\    /   O peration     | Website:  https://openfoam.org
    \\  /    A nd           | Version:  7
     \\/     M anipulation  |
\*---------------------------------------------------------------------------*/
FoamFile
{
    version     2.0;
    format      ascii;
    class       surfaceScalarField;
    location    "0.46";
    object      phi;
}
// * * * * * * * * * * * * * * * * * * * * * * * * * * * * * * * * * * * * * //

dimensions      [0 3 -1 0 0 0 0];

internalField   nonuniform List<scalar> 
65775
(
-2.31433177576e-11
-5.1168475882e-09
-1.03306041583e-10
-2.30405477041e-13
-4.13525100871e-11
-5.38450562982e-09
-1.1253849014e-10
-4.98040256335e-11
-5.62957595982e-09
-1.21543504306e-10
-4.85924319647e-11
-5.8410534016e-09
-1.29977308021e-10
-3.99683485683e-11
-6.0108305881e-09
-1.37264352977e-10
-2.58178940241e-11
-6.13545120786e-09
-1.42881342504e-10
-8.28695826835e-12
-6.21364225907e-09
-1.46471976733e-10
1.04170586793e-11
-6.24278044202e-09
-1.47764230877e-10
2.79169142079e-11
-6.2134914307e-09
-1.46430659521e-10
4.20097499151e-11
-6.13515413559e-09
-1.42799968429e-10
5.05638387824e-11
-6.010400907e-09
-1.37145479458e-10
5.16860149862e-11
-5.84055202069e-09
-1.29824804445e-10
4.31362744597e-11
-5.62904724659e-09
-1.21362236044e-10
2.47823138462e-11
-5.38406002305e-09
-1.12334218139e-10
-5.11654187173e-09
-1.0308711239e-10
1.14817498294e-12
-7.37014509972e-11
-9.49569414725e-09
-5.42563657648e-10
-6.1473546586e-13
-1.30525352298e-10
-9.98506519685e-09
-6.09114670966e-10
-1.56342418908e-10
-1.04382844667e-08
-6.74787959264e-10
-1.53911851482e-10
-1.08252740101e-08
-7.36026942068e-10
-1.27472298469e-10
-1.11342723715e-08
-7.88772957089e-10
-8.28596220413e-11
-1.13597546411e-08
-8.2941228411e-10
-2.68843384054e-11
-1.15007338524e-08
-8.55322096769e-10
3.29101192522e-11
-1.1553127627e-08
-8.64549624582e-10
8.88036794263e-11
-1.15003875105e-08
-8.55204035772e-10
1.33263950118e-10
-1.13590749132e-08
-8.29179533856e-10
1.59502086342e-10
-1.11332964554e-08
-7.8843271278e-10
1.61679925743e-10
-1.08241098809e-08
-7.3558999345e-10
1.35555870739e-10
-1.04370589588e-08
-6.74268183054e-10
7.82792875249e-11
-9.98396796771e-09
-6.08528435949e-10
-9.49486248989e-09
-5.41934236048e-10
3.28458164144e-12
-1.27885015782e-10
-1.30026307404e-08
-1.11195431638e-09
-8.71356722914e-13
-2.19595595497e-10
-1.36536362156e-08
-1.25706259041e-09
-2.62068907372e-10
-1.42548142338e-08
-1.39960472738e-09
-2.58673827328e-10
-1.47624403432e-08
-1.53161072086e-09
-2.14996972502e-10
-1.51650231704e-08
-1.64465019534e-09
-1.40277632573e-10
-1.54568506699e-08
-1.73137363445e-09
-4.59821267492e-11
-1.56386457209e-08
-1.78648038601e-09
5.48658454627e-11
-1.57061608791e-08
-1.80604333649e-09
1.4905559093e-10
-1.56381667532e-08
-1.7863074458e-09
2.2357457079e-10
-1.54559154942e-08
-1.73103093016e-09
2.6697508905e-10
-1.5163687066e-08
-1.6441471648e-09
2.70015051478e-10
-1.47608336196e-08
-1.53096174471e-09
2.27086141793e-10
-1.42531163222e-08
-1.39882834414e-09
1.34702747674e-10
-1.36520521428e-08
-1.25618152756e-09
-1.3001358246e-08
-1.11100198574e-09
4.98426486266e-12
-1.82079887548e-10
-1.55958122462e-08
-1.72331781627e-09
-1.00499222776e-12
-3.05894042752e-10
-1.63464149505e-08
-1.95159158063e-09
-3.64028147538e-10
-1.70307846034e-08
-2.17379555353e-09
-3.59545870097e-10
-1.76020940925e-08
-2.37776454965e-09
-2.99438324736e-10
-1.8051661028e-08
-2.5511437134e-09
-1.95903573235e-10
-1.83753695977e-08
-2.68341666525e-09
-6.48485795373e-11
-1.85763281591e-08
-2.76713213289e-09
7.54228511727e-11
-1.86510176582e-08
-2.79677528074e-09
2.06370961635e-10
-1.85757801175e-08
-2.766927692e-09
3.09699614367e-10
-1.83743026092e-08
-2.68301053656e-09
3.69512190848e-10
-1.80501419945e-08
-2.5505451474e-09
3.73601390428e-10
-1.76002573516e-08
-2.37698803018e-09
3.14942230947e-10
-1.7028822387e-08
-2.17286102482e-09
1.90348555675e-10
-1.63445201883e-08
-1.95052308847e-09
-1.55941930316e-08
-1.72215163337e-09
6.15919050123e-12
-2.33241896711e-10
-1.73056862544e-08
-2.30735154897e-09
-1.03863141374e-12
-3.87223963809e-10
-1.81001287221e-08
-2.61133474101e-09
-4.59879669297e-10
-1.88113832561e-08
-2.9039482526e-09
-4.54169744933e-10
-1.93983107481e-08
-3.16999743238e-09
-3.7861994238e-10
-1.985644698e-08
-3.39439999323e-09
-2.48170078954e-10
-2.0184272278e-08
-3.56460365146e-09
-8.28478732295e-11
-2.03871804533e-08
-3.67189336051e-09
9.41615064508e-11
-2.04627193677e-08
-3.70979830257e-09
2.59386824432e-10
-2.03866144863e-08
-3.67167686763e-09
3.89645913059e-10
-2.01831728278e-08
-3.56417261057e-09
4.64913465496e-10
-1.98548836062e-08
-3.39376235715e-09
4.70233849617e-10
-1.9396411313e-08
-3.16916599805e-09
3.97041630304e-10
-1.88093269682e-08
-2.90294135554e-09
2.42263088193e-10
-1.80980892302e-08
-2.61017471769e-09
-1.73038464458e-08
-2.30607365024e-09
6.84507565675e-12
-2.79654951361e-10
-1.82155584295e-08
-2.81290021103e-09
-1.00321040215e-12
-4.62118175458e-10
-1.90087932145e-08
-3.17876110444e-09
-5.48173246808e-10
-1.9704854362e-08
-3.52698049442e-09
-5.4117723503e-10
-2.02726447834e-08
-3.84074776647e-09
-4.51320898219e-10
-2.07123856783e-08
-4.10352817436e-09
-2.96175167648e-10
-2.10253421368e-08
-4.30179888704e-09
-9.95413397086e-11
-2.12185794307e-08
-4.42633074647e-09
1.10997648535e-10
-2.12906552189e-08
-4.47023104905e-09
3.07544352142e-10
-2.12180323115e-08
-4.42611371149e-09
4.62515437348e-10
-2.10242801714e-08
-4.30136623158e-09
5.52106168835e-10
-2.0710876013e-08
-4.10288683335e-09
5.58727367797e-10
-2.02708020626e-08
-3.83990901239e-09
4.72146239751e-10
-1.97028363778e-08
-3.52596080369e-09
2.88914516231e-10
-1.9006737437e-08
-3.17758017187e-09
-1.82136037173e-08
-2.81158993363e-09
7.15395113676e-12
-3.20872204739e-10
-1.84375750429e-08
-3.2115391772e-09
-9.29621433177e-13
-5.29995556143e-10
-1.91961034638e-08
-3.62431322951e-09
-6.28373663955e-10
-1.98491135849e-08
-4.01319210856e-09
-6.20134045106e-10
-2.03756701742e-08
-4.36089471267e-09
-5.17183707351e-10
-2.0780547308e-08
-4.65038376649e-09
-3.39633699339e-10
-2.10674126434e-08
-4.86787450845e-09
-1.14722965796e-10
-2.12441990509e-08
-5.00406171514e-09
1.26051092071e-10
-2.13102356748e-08
-5.05195798149e-09
3.50878090116e-10
-2.12436926285e-08
-5.00384885669e-09
5.28258129986e-10
-2.10664297647e-08
-4.86745026425e-09
6.30946407335e-10
-2.07791487567e-08
-4.64975505146e-09
6.38814314412e-10
-2.03739544184e-08
-4.3600725627e-09
5.39917701285e-10
-1.98472118573e-08
-4.01219235978e-09
3.30058190786e-10
-1.91941226828e-08
-3.62315366552e-09
-1.84355917794e-08
-3.21024805065e-09
7.21661248001e-12
-3.57319083693e-10
-1.80926177758e-08
-3.49409071118e-09
-8.39374776396e-13
-5.91037931279e-10
-1.87932516124e-08
-3.94075344985e-09
-7.00707025077e-10
-1.93866538103e-08
-4.35795831965e-09
-6.91331757599e-10
-1.98596789e-08
-4.7286576577e-09
-5.76483043881e-10
-2.02211257609e-08
-5.03586357412e-09
-3.78708064975e-10
-2.04763679889e-08
-5.26589713116e-09
-1.2837827489e-10
-2.06334162689e-08
-5.40956548943e-09
1.39533400192e-10
-2.06920994652e-08
-5.45995455816e-09
3.89774780655e-10
-2.06329597282e-08
-5.40935751635e-09
5.87369540251e-10
-2.04754813508e-08
-5.26548328223e-09
7.0194073322e-10
-2.02198607162e-08
-5.03525178938e-09
7.10926951045e-10
-1.98581173318e-08
-4.72786020584e-09
6.00728673131e-10
-1.93849002157e-08
-4.35699202781e-09
3.66288999899e-10
-1.87913856784e-08
-3.93963556147e-09
-1.80906496678e-08
-3.49284682738e-09
7.15221384736e-12
-3.89823440372e-10
-1.72972555247e-08
-3.66401922149e-09
-7.47626380007e-13
-6.45929783411e-10
-1.79251537649e-08
-4.13449944082e-09
-7.65930273237e-10
-1.84502749853e-08
-4.57089866761e-09
-7.55536836725e-10
-1.88642603138e-08
-4.956726638e-09
-6.29870937891e-10
-1.91790870508e-08
-5.27530474416e-09
-4.13815929733e-10
-1.94009655429e-08
-5.51322356938e-09
-1.40613599383e-10
-1.95372884055e-08
-5.66146853398e-09
1.51675312836e-10
-1.95881470013e-08
-5.71329112226e-09
4.247774206e-10
-1.95368815879e-08
-5.66126461429e-09
6.40628868731e-10
-1.94001737583e-08
-5.51281882471e-09
7.65984016455e-10
-1.91779519559e-08
-5.274708868e-09
7.75950869427e-10
-1.88628461973e-08
-4.95595422771e-09
6.55389132505e-10
-1.84486621113e-08
-4.56996887867e-09
3.98554146592e-10
-1.79233968677e-08
-4.13343022252e-09
-1.72953188829e-08
-3.66283498487e-09
7.04667802255e-12
-4.19242544534e-10
-1.61572685251e-08
-3.73125984305e-09
-6.63091160488e-13
-6.95613623857e-10
-1.67039512286e-08
-4.21823903605e-09
-8.2512108134e-10
-1.71572486543e-08
-4.66740684374e-09
-8.13777685379e-10
-1.75112495578e-08
-5.06290445774e-09
-6.78169376386e-10
-1.77798458321e-08
-5.38846730143e-09
-4.45473271229e-10
-1.79690801672e-08
-5.63104370163e-09
-1.51589490501e-10
-1.80851637271e-08
-5.7818376408e-09
1.62686975771e-10
-1.81282781577e-08
-5.83434137235e-09
4.56453615666e-10
-1.80847990394e-08
-5.78163691363e-09
6.88913236815e-10
-1.79683675361e-08
-5.630646487e-09
8.24164717753e-10
-1.7778816362e-08
-5.38788536454e-09
8.3502817764e-10
-1.75099507594e-08
-5.0621552887e-09
7.04909885206e-10
-1.71557381943e-08
-4.66651271285e-09
4.27778002978e-10
-1.67022632331e-08
-4.21721938167e-09
-1.61553333487e-08
-3.73013917146e-09
6.95560128108e-12
-4.46238173265e-10
-1.47656529687e-08
-3.70791976238e-09
-5.89231746986e-13
-7.41166345612e-10
-1.52271342578e-08
-4.20620201865e-09
-8.7957504858e-10
-1.56084423778e-08
-4.6636626122e-09
-8.67212648353e-10
-1.59048138195e-08
-5.06499340403e-09
-7.22228491366e-10
-1.61300749448e-08
-5.39439769376e-09
-4.7418580439e-10
-1.62890106052e-08
-5.63927665553e-09
-1.61471617175e-10
-1.63862844674e-08
-5.79111666808e-09
1.72738619422e-10
-1.6422098772e-08
-5.84373462974e-09
4.85315581085e-10
-1.63859485002e-08
-5.79091893019e-09
7.33082960925e-10
-1.62883507801e-08
-5.63888651557e-09
8.77656200796e-10
-1.61291121445e-08
-5.39382893863e-09
8.8947553423e-10
-1.59035797554e-08
-5.06426649522e-09
7.50393950983e-10
-1.56069750075e-08
-4.6628032326e-09
4.54656073402e-10
-1.52254493425e-08
-4.20523143568e-09
-1.47636675106e-08
-3.70686331096e-09
6.90774984519e-12
-4.71225265726e-10
-1.32031055773e-08
-3.60587336458e-09
-5.24287610771e-13
-7.8394276349e-10
-1.35778438738e-08
-4.11179738701e-09
-9.30856983664e-10
-1.3889769336e-08
-4.57440805456e-09
-9.17036283544e-10
-1.41337330535e-08
-4.97874940813e-09
-7.62796123745e-10
-1.43204125184e-08
-5.30957714034e-09
-5.00350942097e-10
-1.445243051e-08
-5.5548939296e-09
-1.70389986692e-10
-1.45328969647e-08
-5.70656964559e-09
1.8194166037e-10
-1.45620817795e-08
-5.75884113401e-09
5.11743367322e-10
-1.45325723305e-08
-5.70637554672e-09
7.73871449996e-10
-1.44517886002e-08
-5.55451195933e-09
9.27642504785e-10
-1.43194653319e-08
-5.30902275717e-09
9.40851805548e-10
-1.41324996157e-08
-4.97804572685e-09
7.93195544167e-10
-1.38882705183e-08
-4.57358415504e-09
4.79607388054e-10
-1.35760816808e-08
-4.11087661407e-09
-1.32010019215e-08
-3.60488193468e-09
6.91269506253e-12
-4.95199875095e-10
-1.15387459996e-08
-3.43571337572e-09
-4.69071544839e-13
-8.26552114942e-10
-1.18257945603e-08
-3.94683690559e-09
-9.80987238302e-10
-1.20749802612e-08
-4.41239352386e-09
-9.64256240236e-10
-1.22744521683e-08
-4.8175185929e-09
-8.00262051532e-10
-1.24283696714e-08
-5.14774590923e-09
-5.24098329675e-10
-1.25372738609e-08
-5.39190334137e-09
-1.78380164124e-10
-1.26031611916e-08
-5.5423700692e-09
1.90302429872e-10
-1.26265149193e-08
-5.59389810298e-09
5.35838799941e-10
-1.26028256968e-08
-5.54218110121e-09
8.11642506409e-10
-1.25366064718e-08
-5.39153220417e-09
9.75107234012e-10
-1.24273784064e-08
-5.14720912861e-09
9.91156651646e-10
-1.22731442581e-08
-4.81684123062e-09
8.35906561976e-10
-1.2073363786e-08
-4.41160781653e-09
5.03615670489e-10
-1.18238574928e-08
-3.94596905934e-09
-1.15364297483e-08
-3.43479075254e-09
6.9546338233e-12
-5.23993180279e-10
-9.82682685339e-09
-3.20647695547e-09
-4.24335015189e-13
-8.74849183444e-10
-1.00302937291e-08
-3.72170308878e-09
-1.03250565188e-09
-1.02301511262e-08
-4.18860704683e-09
-1.00953617191e-09
-1.03940525009e-08
-4.59254031782e-09
-8.34681971054e-10
-1.05206461152e-08
-4.92033246499e-09
-5.45378636771e-10
-1.06099750443e-08
-5.16189401749e-09
-1.85435289956e-10
-1.06635087181e-08
-5.31022152748e-09
1.97781890349e-10
-1.068187122e-08
-5.36065652107e-09
5.57521415272e-10
-1.0663135707e-08
-5.31003998516e-09
8.46420209681e-10
-1.06092325645e-08
-5.16153790843e-09
1.02068564494e-09
-1.05195375032e-08
-4.91981857701e-09
1.04290248691e-09
-1.03925833504e-08
-4.59189446478e-09
8.84359478944e-10
-1.02283225951e-08
-4.18786383204e-09
5.32497008946e-10
-1.002807795e-08
-3.72089313879e-09
-9.82419277042e-09
-3.20563135146e-09
7.04495032307e-12
-5.77276830513e-10
-2.92528325043e-09
-3.76368763077e-13
-8.094815884e-09
-9.39943974643e-10
-3.44565760251e-09
-8.24995151681e-09
-1.09286693211e-09
-3.91210477861e-09
-8.41595959886e-09
-1.05954712505e-09
-4.31295343504e-09
-8.55125863986e-09
-8.71867732376e-10
-4.63675363288e-09
-8.65536978801e-09
-5.68203001297e-10
-4.87458416349e-09
-8.72907051731e-09
-1.92984657386e-10
-5.02006242321e-09
-8.77299046984e-09
2.05779913266e-10
-5.06913969891e-09
-8.78745175063e-09
5.80771345735e-10
-5.0198914505e-09
-8.77254897565e-09
8.8398858128e-10
-4.87424902529e-09
-8.72819180481e-09
1.0710160993e-09
-4.63627064354e-09
-8.65406029691e-09
1.10350881112e-09
-4.31234760301e-09
-8.54952559702e-09
9.49621351551e-10
-3.91141141483e-09
-8.41380430689e-09
5.85883991615e-10
-3.44490730957e-09
-8.2473503326e-09
-2.92453369583e-09
7.15371327577e-12
-8.09174494244e-09
-5.99223134502e-12
3.56326741712e-10
-4.53572906595e-10
1.54390727589e-13
-8.84703406072e-12
3.93754205619e-10
-5.03020545263e-10
-9.35834928422e-12
4.29640723838e-10
-5.50100741584e-10
-8.69124443675e-12
4.62517058343e-10
-5.92595738162e-10
-7.02539737126e-12
4.89849777404e-10
-6.28264755923e-10
-4.61980060924e-12
5.10352291928e-10
-6.55253700313e-10
-1.72111834543e-12
5.23211722328e-10
-6.72318183687e-10
1.35332648369e-12
5.27784525719e-10
-6.78448797865e-10
4.24911672223e-12
5.23101096923e-10
-6.72311127876e-10
6.63993821235e-12
5.10130301963e-10
-6.55239598924e-10
8.2654584526e-12
4.8953177034e-10
-6.28243594105e-10
8.88599256524e-12
4.62168737941e-10
-5.92567249648e-10
8.32557367067e-12
4.29300456215e-10
-5.5006462312e-10
5.47571323453e-12
3.93523726578e-10
-5.02975802746e-10
3.56215330634e-10
-4.53516715952e-10
-2.82396670255e-13
-8.00326815783e-12
1.01912722235e-09
-1.19735410892e-09
3.9085550237e-13
-1.0658945495e-11
1.11329552944e-09
-1.3253017487e-09
-1.03546742294e-11
1.20205007204e-09
-1.44660685487e-09
-8.80226947779e-12
1.28150936208e-09
-1.55567583563e-09
-6.70257212912e-12
1.34669804319e-09
-1.64694866578e-09
-4.34687370887e-12
1.39501735691e-09
-1.71585705888e-09
-1.84414624432e-12
1.42513954539e-09
-1.7593541067e-09
7.24193291336e-13
1.43588418984e-09
-1.77495000504e-09
3.21816504637e-12
1.4249169263e-09
-1.75933258934e-09
5.53846515785e-12
1.39457177829e-09
-1.71581398035e-09
7.55495504416e-12
1.34606060212e-09
-1.64688420887e-09
9.0027196489e-12
1.28079393934e-09
-1.55558973288e-09
9.22007045339e-12
1.20137304824e-09
-1.44649866318e-09
6.60158874988e-12
1.11283256612e-09
-1.32516941546e-09
1.01892599225e-09
-1.19719252064e-09
-8.1155902897e-13
-3.6472594681e-12
1.72116709401e-09
-1.81052963472e-09
5.55156555957e-13
-2.06457100465e-12
1.85978413174e-09
-2.00449166076e-09
5.77323456381e-13
1.98845914493e-09
-2.18785186035e-09
2.59372042329e-12
2.10103030524e-09
-2.35234527937e-09
3.11016745931e-12
2.19197646829e-09
-2.48976663942e-09
2.15451510866e-12
2.25849222532e-09
-2.59338657545e-09
2.04490272245e-13
2.29966650786e-09
-2.65870588043e-09
-2.06170765066e-12
2.31440859181e-09
-2.68206363781e-09
-4.02435245165e-12
2.29940319594e-09
-2.65866856566e-09
-5.02467691788e-12
2.25796962091e-09
-2.59331329471e-09
-4.6052037062e-12
2.19123767665e-09
-2.48965808921e-09
-2.7114620733e-12
2.10020777225e-09
-2.35220183339e-09
-1.53099660741e-13
1.98771552194e-09
-2.18767426737e-09
1.51234431126e-12
1.85930930034e-09
-2.00427815059e-09
1.72103773628e-09
-1.8102744314e-09
-1.28811901399e-12
4.47388887971e-12
2.31282718094e-09
-2.31975216002e-09
6.62765404166e-13
1.2278483236e-11
2.47172312613e-09
-2.57075026781e-09
1.78818862672e-11
2.61711096231e-09
-2.80732819139e-09
1.98496814648e-11
2.74110943241e-09
-3.01910834719e-09
1.75716267313e-11
2.83944918063e-09
-3.1957543353e-09
1.16273087724e-11
2.91025098084e-09
-3.32879415136e-09
3.28769888469e-12
2.95372767946e-09
-3.41254525183e-09
-5.83577262768e-12
2.96938169518e-09
-3.44241214729e-09
-1.41895403809e-11
2.95347056953e-09
-3.41249310188e-09
-2.01783517844e-11
2.9097458381e-09
-3.32869188395e-09
-2.25475977851e-11
2.83874526533e-09
-3.19560357799e-09
-2.06907503948e-11
2.74033657222e-09
-3.01891082006e-09
-1.51443617965e-11
2.61644500016e-09
-2.8070857214e-09
-7.20645119927e-12
2.47135216677e-09
-2.57046261008e-09
2.31283694698e-09
-2.31941655722e-09
-1.70951156442e-12
1.43720293579e-11
2.72164205043e-09
-2.73092493658e-09
7.25943032471e-13
2.86084435543e-11
2.8773855235e-09
-3.03071445474e-09
3.69369216068e-11
3.01787727639e-09
-3.31240892949e-09
3.83461563096e-11
3.13433332523e-09
-3.56402879423e-09
3.27827709887e-11
3.22468411914e-09
-3.77357529616e-09
2.14840932633e-11
3.28852572058e-09
-3.93120936703e-09
6.51109675092e-12
3.32737472801e-09
-4.03030378121e-09
-9.66751250668e-12
3.34148649306e-09
-4.065540128e-09
-2.46542894579e-11
3.32714711052e-09
-4.0302369219e-09
-3.59915721527e-11
3.28808363545e-09
-3.93107852786e-09
-4.16299745049e-11
3.22407686229e-09
-3.77338352076e-09
-4.0304339354e-11
3.1336823199e-09
-3.56377988514e-09
-3.1995248306e-11
3.01734866354e-09
-3.31210721981e-09
-1.75800540782e-11
2.87716238042e-09
-3.03036208199e-09
2.72180893061e-09
-2.73052192752e-09
-2.07152094589e-12
2.45346329397e-11
2.93385882216e-09
-3.05009175882e-09
7.54136788551e-13
4.43979429789e-11
3.07045248956e-09
-3.39122256238e-09
5.48008213314e-11
3.19179134614e-09
-3.71075335584e-09
5.52743006824e-11
3.28917225307e-09
-3.99554823254e-09
4.64614265339e-11
3.3627430412e-09
-4.23235544486e-09
3.02505987885e-11
3.41354480506e-09
-4.41029081054e-09
9.37322000914e-12
3.44413474998e-09
-4.52198428993e-09
-1.30312858562e-11
3.4554007407e-09
-4.56157701795e-09
-3.39208501504e-11
3.44394350685e-09
-4.52190288352e-09
-5.01621027087e-11
3.413177876e-09
-4.41013189989e-09
-5.90288770027e-11
3.36224832664e-09
-4.23212395705e-09
-5.86066533914e-11
3.28865607571e-09
-3.99525072437e-09
-4.81816021207e-11
3.19140436186e-09
-3.71039746254e-09
-2.8104819464e-11
3.07035412631e-09
-3.39081345409e-09
2.93414762085e-09
-3.04963232523e-09
-2.37353635834e-12
3.39184505306e-11
2.97135071138e-09
-3.28341538536e-09
7.56853980519e-13
5.82033326554e-11
3.08150104202e-09
-3.65924314043e-09
6.99484731832e-11
3.17747314398e-09
-4.01015897426e-09
6.92891496743e-11
3.25160839114e-09
-4.32224395704e-09
5.75871225956e-11
3.30575138364e-09
-4.58134187551e-09
3.72987440058e-11
3.34202154301e-09
-4.77579849183e-09
1.16648621766e-11
3.36357495062e-09
-4.8976739571e-09
-1.57110921298e-11
3.371688307e-09
-4.94072911947e-09
-4.13547333883e-11
3.36341976118e-09
-4.89757839783e-09
-6.16641030545e-11
3.34172700502e-09
-4.77561243655e-09
-7.33981237405e-11
3.30536103515e-09
-4.58107249607e-09
-7.40756087254e-11
3.25121175319e-09
-4.32190106561e-09
-6.22707528097e-11
3.17720166043e-09
-4.00975407167e-09
-3.77455040516e-11
3.08149237096e-09
-3.65878478138e-09
2.97170564558e-09
-3.2829092893e-09
-2.61354169038e-12
4.19131377624e-11
2.87185889941e-09
-3.43697795714e-09
7.39336406705e-13
6.9416179057e-11
2.95519087226e-09
-3.84159684798e-09
8.18673842855e-11
3.02564032144e-09
-4.21819064198e-09
8.00426654936e-11
3.07749434425e-09
-4.5523654825e-09
6.59624690368e-11
3.11361540985e-09
-4.82935757257e-09
4.25371312626e-11
3.13675789976e-09
-5.03698479869e-09
1.33581319326e-11
3.15025047856e-09
-5.16689502981e-09
-1.76870203429e-11
3.15551945489e-09
-5.21261674668e-09
-4.68726204766e-11
3.15012646741e-09
-5.166786115e-09
-7.03088473155e-11
3.13652467455e-09
-5.03677325948e-09
-8.43996937282e-11
3.11331049008e-09
-4.82905302636e-09
-8.6210814417e-11
3.0771909193e-09
-4.55198126538e-09
-7.36668395201e-11
3.02544632066e-09
-4.21774240741e-09
-4.59047928806e-11
2.95522258007e-09
-3.84109661189e-09
2.87220894015e-09
-3.43643425422e-09
-2.79576038264e-12
4.82360144704e-11
2.67572647492e-09
-3.51657773943e-09
7.0761183276e-13
7.79367525356e-11
2.7360031648e-09
-3.94471216009e-09
9.06279105144e-11
2.78427325505e-09
-4.34190387605e-09
8.77332882466e-11
2.81748661866e-09
-4.69353451482e-09
7.18236862997e-11
2.83894538298e-09
-4.98448729575e-09
4.61480510931e-11
2.85166930208e-09
-5.20227381625e-09
1.4515747704e-11
2.85883724892e-09
-5.33828220365e-09
-1.90394318957e-11
2.86184132339e-09
-5.38595145965e-09
-5.06742232723e-11
2.85873885297e-09
-5.33816119984e-09
-7.63498433271e-11
2.85148473278e-09
-5.202039308e-09
-9.22492000991e-11
2.83870449113e-09
-4.98415137149e-09
-9.51011050092e-11
2.81724572198e-09
-4.69311406853e-09
-8.22879436908e-11
2.78411811371e-09
-4.34141873145e-09
-5.23167580396e-11
2.73602676089e-09
-3.94417763094e-09
2.67601408789e-09
-3.51600519142e-09
-2.92584019952e-12
5.28365338974e-11
2.41883267969e-09
-3.52762602012e-09
6.66876884677e-13
8.39350324909e-11
2.46145873504e-09
-3.97453368942e-09
9.65802444525e-11
2.49226597487e-09
-4.3877814465e-09
9.28018837565e-11
2.51131094941e-09
-4.75271462677e-09
7.55890146367e-11
2.52196582887e-09
-5.05407984788e-09
4.84239339629e-11
2.52723673019e-09
-5.2792918425e-09
1.52360929714e-11
2.5299396211e-09
-5.41963276867e-09
-1.98874241072e-11
2.53130855894e-09
-5.46859340824e-09
-5.30727093488e-11
2.52986025318e-09
-5.41950139228e-09
-8.02259933183e-11
2.5270868287e-09
-5.27903769393e-09
-9.74083075589e-11
2.5217667428e-09
-5.05371734308e-09
-1.01116689797e-10
2.51110303511e-09
-4.75226404208e-09
-8.83239680678e-11
2.4921121985e-09
-4.38726657753e-09
-5.69457798614e-11
2.46142977906e-09
-3.97397279573e-09
2.4189972873e-09
-3.52703332434e-09
-3.01249220273e-12
5.58193172657e-11
2.12985890832e-09
-3.47515328838e-09
6.21258942207e-13
8.77215867322e-11
2.16015088129e-09
-3.9365774069e-09
1.00206459844e-10
2.1781824445e-09
-4.36184842176e-09
9.57956483741e-11
2.18729531549e-09
-4.73637619895e-09
7.77487617298e-11
2.19072592389e-09
-5.04495229779e-09
4.9697348682e-11
2.19124086005e-09
-5.27510187449e-09
1.56304588821e-11
2.19115088698e-09
-5.41816099053e-09
-2.03618285733e-11
2.1914578232e-09
-5.46781286041e-09
-5.44202214747e-11
2.19108340707e-09
-5.41802134418e-09
-8.24472445445e-11
2.19111119577e-09
-5.2748321016e-09
-1.00443652027e-10
2.19054651188e-09
-5.04456883955e-09
-1.04759467251e-10
2.18709131269e-09
-4.73590236093e-09
-9.21044451125e-11
2.17799600009e-09
-4.36131163505e-09
-5.99148591549e-11
2.16003141321e-09
-3.93599842894e-09
2.12985488249e-09
-3.47454911627e-09
-3.06398796481e-12
5.73775894754e-11
1.83012733479e-09
-3.36388085365e-09
5.70855556617e-13
8.97186271907e-11
1.85227693911e-09
-3.83608058334e-09
1.02116481051e-10
1.86143843308e-09
-4.26988701231e-09
9.73659575537e-11
1.86419206827e-09
-4.65074224768e-09
7.88610194779e-11
1.86343445257e-09
-4.96365259856e-09
5.0336265054e-11
1.86145239312e-09
-5.19647926084e-09
1.58225452745e-11
1.85996155158e-09
-5.34078320227e-09
-2.06018974993e-11
1.85968348674e-09
-5.39057890816e-09
-5.51002906741e-11
1.85989864322e-09
-5.3406377196e-09
-8.35876131052e-11
1.86132756984e-09
-5.19619845521e-09
-1.02022683738e-10
1.86325209147e-09
-4.96325446989e-09
-1.06655163455e-10
1.86396400992e-09
-4.65025260611e-09
-9.40670311856e-11
1.86118799634e-09
-4.26933654701e-09
-6.14315389157e-11
1.8520356767e-09
-3.83549222537e-09
1.82992434166e-09
-3.36327401899e-09
-3.08903727673e-12
5.78167157539e-11
1.53457110772e-09
-3.19830591133e-09
5.19012346694e-13
9.06228506504e-11
1.55100970623e-09
-3.67822348206e-09
1.0322038264e-10
1.55428832955e-09
-4.11769999745e-09
9.83911759874e-11
1.55365366532e-09
-4.50202927746e-09
7.96236093341e-11
1.55123704391e-09
-4.81668057223e-09
5.07845638567e-11
1.54860057616e-09
-5.05012603238e-09
1.59586304387e-11
1.54681233896e-09
-5.1943318341e-09
-2.07640797303e-11
1.5463398964e-09
-5.24377404226e-09
-5.55676660606e-11
1.54674490107e-09
-5.19418327668e-09
-8.43558025599e-11
1.54846364244e-09
-5.04983935102e-09
-1.03034457966e-10
1.55102955557e-09
-4.81627466888e-09
-1.07724513034e-10
1.55337473277e-09
-4.50153170291e-09
-9.49182394537e-11
1.55394428154e-09
-4.11714432111e-09
-6.18099864204e-11
1.55061509568e-09
-3.67763510476e-09
1.53414122758e-09
-3.19770646847e-09
-3.0920336307e-12
5.77889771693e-11
1.25276975763e-09
-2.98276348416e-09
4.67931961342e-13
9.17494279095e-11
1.26397102807e-09
-3.46850141551e-09
1.04949124528e-10
1.26398852627e-09
-3.91139533224e-09
1.00088504622e-10
1.26268280505e-09
-4.29660947618e-09
8.09418782273e-11
1.26073979217e-09
-4.6106030455e-09
5.15905761702e-11
1.25889925185e-09
-4.84277605803e-09
1.6227616874e-11
1.25767501075e-09
-4.98566088392e-09
-2.10431482193e-11
1.25729687799e-09
-5.03430050904e-09
-5.6376382628e-11
1.2575931124e-09
-4.98551241858e-09
-8.56620058987e-11
1.25873145406e-09
-4.84248940056e-09
-1.04702119069e-10
1.26047943291e-09
-4.61019713468e-09
-1.09404661252e-10
1.26232251055e-09
-4.29611239036e-09
-9.59807888333e-11
1.26352274802e-09
-3.91084279651e-09
-6.17099450677e-11
1.26339383391e-09
-3.46792281383e-09
1.25208074529e-09
-2.98218399563e-09
-3.07920577903e-12
5.70158339583e-11
-2.72244923808e-09
4.1122128832e-13
9.92656741506e-10
9.47078469529e-11
-3.2143076584e-09
9.950323622e-10
1.08859004413e-10
-3.65796987287e-09
9.95797018023e-10
1.03750413673e-10
-4.04122663017e-09
9.96143972418e-10
8.38264395016e-11
-4.35210500594e-09
9.96084527439e-10
5.34231784186e-11
-4.58114908213e-09
9.95928722029e-10
1.68534222336e-11
-4.7215419886e-09
9.95771067562e-10
-2.1665574754e-11
-4.76895663625e-09
9.95675490856e-10
-5.81976697855e-11
-4.72139749753e-09
9.95661503081e-10
-8.852045456e-11
-4.58086983644e-09
9.95707004765e-10
-1.08318016934e-10
-4.35170907373e-09
9.95742124293e-10
-1.13248543158e-10
-4.04074092417e-09
9.95670550139e-10
-9.88612929687e-11
-3.6574307378e-09
9.9517604148e-10
-6.08565846651e-11
-3.21374489985e-09
9.9424626897e-10
-2.72191204279e-09
-3.04853100173e-12
9.91669318599e-10
5.0962966638e-12
-7.52530179028e-11
-3.83439973994e-10
-7.34264062332e-14
7.85003421681e-12
-8.3881635121e-11
-4.2206831343e-10
9.00378174644e-12
-9.28679529224e-11
-4.58596504783e-10
8.76591127114e-12
-1.01136048313e-10
-4.91408877095e-10
7.27248631791e-12
-1.0810327314e-10
-5.18836883504e-10
4.77442998081e-12
-1.13361777011e-10
-5.39523261289e-10
1.6148667674e-12
-1.16666815012e-10
-5.52581320859e-10
-1.78096950709e-12
-1.17831745186e-10
-5.57280970312e-10
-4.93174073164e-12
-1.16630921817e-10
-5.52570266038e-10
-7.41014146825e-12
-1.13289864696e-10
-5.39501441005e-10
-8.87182429799e-12
-1.0800054567e-10
-5.18804910982e-10
-9.07275437335e-12
-1.01019106695e-10
-4.91367584113e-10
-7.8692232535e-12
-9.27393649854e-11
-4.58546647581e-10
-5.07166855286e-12
-8.37796284909e-11
-4.2200998638e-10
-7.51981040751e-11
-3.83370588525e-10
-3.40980228354e-14
1.13901219583e-11
-1.71688765016e-10
-1.11230181329e-09
-1.79472870689e-13
1.81169627805e-11
-1.89169517653e-10
-1.22702792346e-09
2.10252680436e-11
-2.07119082386e-10
-1.33558510133e-09
2.0541290428e-11
-2.23522594494e-10
-1.43310130288e-09
1.70606440243e-11
-2.37187408162e-10
-1.51463702869e-09
1.1203482667e-11
-2.4740498747e-10
-1.5761496857e-09
3.7953000453e-12
-2.53790714266e-10
-1.61495718794e-09
-4.16314257901e-12
-2.56043710685e-10
-1.62887182424e-09
-1.15502255929e-11
-2.53715343597e-10
-1.61492511056e-09
-1.73613778058e-11
-2.47253716801e-10
-1.57608632406e-09
-2.07697267907e-11
-2.36969744943e-10
-1.51454419499e-09
-2.11630905669e-11
-2.2326601995e-10
-1.43298143089e-09
-1.81430776454e-11
-2.0684560646e-10
-1.33544060149e-09
-1.13176526619e-11
-1.8894006539e-10
-1.22685930625e-09
-1.71554391469e-10
-1.11210470424e-09
-6.99609606031e-14
1.46797965243e-11
-2.51963994758e-10
-1.7448483094e-09
-2.46675092267e-13
2.36997965143e-11
-2.75125847556e-10
-1.92781414747e-09
2.76578819319e-11
-2.98567568261e-10
-2.10064660566e-09
2.70479690126e-11
-3.19841127808e-10
-2.25567702719e-09
2.24577960227e-11
-3.3741120935e-10
-2.38517227574e-09
1.47429316355e-11
-3.50447108674e-10
-2.4827968724e-09
5.00464603809e-12
-3.58554112198e-10
-2.54432227038e-09
-5.44833792126e-12
-3.61415932313e-10
-2.56631976026e-09
-1.51589682045e-11
-3.58459940326e-10
-2.54427057295e-09
-2.28147260715e-11
-3.50259117771e-10
-2.48269490547e-09
-2.73125502768e-11
-3.37141228383e-10
-2.38502310873e-09
-2.78035788645e-11
-3.19521522185e-10
-2.25548481916e-09
-2.37030279787e-11
-2.98230695005e-10
-2.10041575394e-09
-1.45584906419e-11
-2.74839221333e-10
-1.92754650008e-09
-2.51791936124e-10
-1.74453952792e-09
-7.60287103359e-14
1.58877757899e-11
-3.15157410465e-10
-2.27231865825e-09
-2.84255681347e-13
2.58909895201e-11
-3.4161865741e-10
-2.51449305795e-09
3.03500757142e-11
-3.67901874708e-10
-2.74270684043e-09
2.97117387937e-11
-3.91486919921e-10
-2.94705336993e-09
2.46674295899e-11
-4.10781248345e-10
-3.11752917257e-09
1.61947313738e-11
-4.24982023972e-10
-3.24593052676e-09
5.51677311151e-12
-4.33770838102e-10
-3.32675436337e-09
-5.93806177112e-12
-4.36875914436e-10
-3.35557035454e-09
-1.65866792651e-11
-4.33672519954e-10
-3.32668442776e-09
-2.49976204985e-11
-4.24786743692e-10
-3.24579282156e-09
-2.99454660213e-11
-4.1050083611e-10
-3.117328155e-09
-3.04573928547e-11
-3.91152634932e-10
-2.94679517026e-09
-2.58485401722e-11
-3.67551081184e-10
-2.74239828424e-09
-1.57155955104e-11
-3.41317229384e-10
-2.5141382794e-09
-3.14967569701e-10
-2.2719151336e-09
-5.80469773903e-14
1.5662791094e-11
-3.6071804149e-10
-2.70087197595e-09
-2.99367929115e-13
2.57111952942e-11
-3.88576394609e-10
-2.99400986483e-09
3.02520412747e-11
-4.15590513802e-10
-3.26948013905e-09
2.96500323627e-11
-4.39452257049e-10
-3.51565547214e-09
2.46220756948e-11