/*--------------------------------*- C++ -*----------------------------------*\
  =========                 |
  \\      /  F ield         | OpenFOAM: The Open Source CFD Toolbox
   \\    /   O peration     | Website:  https://openfoam.org
    \\  /    A nd           | Version:  7
     \\/     M anipulation  |
\*---------------------------------------------------------------------------*/
FoamFile
{
    version     2.0;
    format      ascii;
    class       surfaceScalarField;
    location    "2.24";
    object      phi;
}
// * * * * * * * * * * * * * * * * * * * * * * * * * * * * * * * * * * * * * //

dimensions      [0 3 -1 0 0 0 0];

internalField   nonuniform List<scalar> 
65775
(
7.79287198641e-12
1.14620305889e-09
1.42397209532e-10
-2.39981443681e-14
1.24806145859e-11
1.20096520438e-09
1.57819814254e-10
1.49450203351e-11
1.2487553323e-09
1.72625118813e-10
1.47503333411e-11
1.2900132127e-09
1.86025871962e-10
1.23128410956e-11
1.32296698785e-09
1.97287428291e-10
8.10544991238e-12
1.34709143094e-09
2.0581070715e-10
2.77853296452e-12
1.36224642535e-09
2.11198574901e-10
-2.94072570587e-12
1.36796950592e-09
2.13133026608e-10
-8.26370124725e-12
1.36225667564e-09
2.11197624865e-10
-1.24636490202e-11
1.34711144183e-09
2.05808773146e-10
-1.48901218775e-11
1.32299668666e-09
1.97284429749e-10
-1.50712881106e-11
1.29005087263e-09
1.86021618674e-10
-1.25911612549e-11
1.24879938442e-09
1.72619079889e-10
-7.89069114618e-12
1.20100839258e-09
1.57809995801e-10
1.14621917733e-09
1.4237679632e-10
-9.14547995338e-14
2.11690998962e-11
1.99097754433e-09
3.69126339229e-10
-5.80689705902e-14
3.61408276366e-11
2.07985382789e-09
4.07995530437e-10
4.33865390471e-11
2.15822670275e-09
4.45132419313e-10
4.31121700963e-11
2.22509056525e-09
4.78618754754e-10
3.60958149879e-11
2.27831237404e-09
5.0666826072e-10
2.38069806589e-11
2.31708516898e-09
5.27845662511e-10
8.16408984728e-12
2.34140731264e-09
5.41209586762e-10
-8.62240370333e-12
2.35061643144e-09
5.45999917921e-10
-2.42543702988e-11
2.34142968394e-09
5.4120662144e-10
-3.65221257587e-11
2.31712918881e-09
5.27839692511e-10
-4.35077541369e-11
2.27837769758e-09
5.06659094492e-10
-4.37433059819e-11
2.22517487454e-09
4.78605898326e-10
-3.64535501376e-11
2.1583264245e-09
4.45114422931e-10
-2.14354907008e-11
2.07995288532e-09
4.07966917048e-10
1.99102281361e-09
3.69072146562e-10
-2.50309027657e-13
3.28181821652e-11
2.58640181175e-09
5.45524020456e-10
-7.64086652331e-14
5.63463229769e-11
2.69406394553e-09
6.02545509866e-10
6.75957838988e-11
2.79005995128e-09
6.56819310438e-10
6.71957540597e-11
2.87091031008e-09
7.05624424527e-10
5.62685337206e-11
2.93504011088e-09
7.46416228776e-10
3.71123386975e-11
2.9815175817e-09
7.771632146e-10
1.27241897677e-11
3.01062272286e-09
7.96537155539e-10
-1.34364824247e-11
3.02167019671e-09
8.03466608671e-10
-3.78082620025e-11
3.01065178452e-09
7.96532256437e-10
-5.69326503492e-11
2.98157499746e-09
7.77153397223e-10
-6.78136906148e-11
2.93512566942e-09
7.46401268107e-10
-6.81549278732e-11
2.87102221338e-09
7.05603679918e-10
-5.68381901271e-11
2.79019411466e-09
6.56790821416e-10
-3.32342430213e-11
2.6941975019e-09
6.02501829161e-10
2.58646596578e-09
5.45445238343e-10
-3.86925569156e-13
4.32035348985e-11
2.97409464952e-09
6.81558860916e-10
-8.81342204874e-14
7.37805697155e-11
3.08938669052e-09
7.52812890228e-10
8.84331469715e-11
3.19299519728e-09
8.203674459e-10
8.78381329259e-11
3.27922358323e-09
8.8094986722e-10
7.35270829827e-11
3.34730841873e-09
9.31479481359e-10
4.84795675913e-11
3.39638741425e-09
9.69506360384e-10
1.6614880023e-11
3.42705757643e-09
9.9343119802e-10
-1.75523942059e-11
3.43872827963e-09
1.00196805301e-09
-4.93960237094e-11
3.42708790047e-09
9.93424651243e-10
-7.44024413688e-11
3.3964477316e-09
9.69493300458e-10
-8.86538224965e-11
3.34739886988e-09
9.31459724003e-10
-8.91728420948e-11
3.2793433567e-09
8.80922794228e-10
-7.44322656472e-11
3.19314150243e-09
8.20331041628e-10
-4.37550517587e-11
3.08953241795e-09
7.52759089115e-10
2.9741661027e-09
6.8146594672e-10
-5.10360892729e-13
5.22833998782e-11
3.19044081308e-09
7.82511056459e-10
-9.48213598668e-14
8.876445097e-11
3.30528535933e-09
8.64761699892e-10
1.06281150937e-10
3.40907006474e-09
9.42416430288e-10
1.05461915008e-10
3.49447763631e-09
1.01185667159e-09
8.82342692799e-11
3.56154291494e-09
1.06964955755e-09
5.81532786922e-11
3.60961436655e-09
1.11307197034e-09
1.99205082479e-11
3.639581251e-09
1.14034741648e-09
-2.10598347437e-11
3.65101249537e-09
1.15005441315e-09
-5.92674837586e-11
3.63960809699e-09
1.14033944284e-09
-8.92993508515e-11
3.60966811174e-09
1.11305615233e-09
-1.06455612557e-10
3.56162442015e-09
1.06962585194e-09
-1.0718402214e-10
3.4945873276e-09
1.01182468646e-09
-8.95615845725e-11
3.40920749848e-09
9.4237451543e-10
-5.29605274272e-11
3.30542137924e-09
8.64701976651e-10
3.19050359284e-09
7.82411676775e-10
-6.24635044263e-13
6.0156030353e-11
3.26726247253e-09
8.52844449317e-10
-9.77885188483e-14
1.01574343885e-10
3.37603100539e-09
9.43405297897e-10
1.21449093549e-10
3.47472950366e-09
1.02852669835e-09
1.20372918558e-10
3.55505816449e-09
1.10440993933e-09
1.00641719881e-10
3.61772845724e-09
1.1674214136e-09
6.62978514784e-11
3.66238135125e-09
1.21468361183e-09
2.26965452299e-11
3.6901383346e-09
1.2443190924e-09
-2.40199762151e-11
3.70075094727e-09
1.25483524443e-09
-6.75926456113e-11
3.6901572798e-09
1.24430980942e-09
-1.01880402074e-10
3.66241980417e-09
1.21466531911e-09
-1.21530063943e-10
3.61778803819e-09
1.16739432192e-09
-1.22502590466e-10
3.55514091832e-09
1.10437408845e-09
-1.02507267425e-10
3.47483755184e-09
1.02848113133e-09
-6.09526598705e-11
3.37613665174e-09
9.43342680861e-10
3.26729925797e-09
8.52743245931e-10
-7.32020159458e-13
6.69498262827e-11
3.23238658271e-09
8.96426912852e-10
-9.80984466273e-14
1.12459282598e-10
3.33144749001e-09
9.93071315486e-10
1.342189586e-10
3.42159581919e-09
1.0834864909e-09
1.3284627589e-10
3.49414287841e-09
1.16382442938e-09
1.10975235056e-10
3.55032066553e-09
1.2303734392e-09
7.30602025063e-11
3.59009396852e-09
1.28019767566e-09
2.4992275369e-11
3.61473762857e-09
1.31137993872e-09
-2.6487416965e-11
3.62417816e-09
1.32240860461e-09
-7.45236328699e-11
3.61474498482e-09
1.31136934585e-09
-1.12376477327e-10
3.59010968884e-09
1.28017695486e-09
-1.34157146601e-10
3.55034713345e-09
1.23034316611e-09
-1.35415140154e-10
3.49418390019e-09
1.16378525662e-09
-1.13522176957e-10
3.4216564308e-09
1.08343837539e-09
-6.78626715532e-11
3.33150270465e-09
9.93007536454e-10
3.23237904315e-09
8.96326362567e-10
-8.3492914098e-13
7.27562970652e-11
3.11013805217e-09
9.1666940673e-10
-9.63346949645e-14
1.21605106945e-10
3.1974572441e-09
1.01756545041e-09
1.44819958863e-10
3.27704517093e-09
1.11149881686e-09
1.43115263926e-10
3.3403333306e-09
1.1946718959e-09
1.19431629494e-10
3.38892529468e-09
1.26339163412e-09
7.85700667836e-11
3.42309863663e-09
1.31474010252e-09
2.68514043708e-11
3.44419476272e-09
1.34680872534e-09
-2.85106066659e-11
3.45228622447e-09
1.35810862455e-09
-8.01948706203e-11
3.4441875566e-09
1.34679668957e-09
-1.20988970004e-10
3.42308551294e-09
1.31471672864e-09
-1.44574524279e-10
3.38890937187e-09
1.26335795899e-09
-1.46154891409e-10
3.34032000463e-09
1.19462932903e-09
-1.22795620809e-10
3.27704246143e-09
1.11144835767e-09
-7.37842174442e-11
3.19744385323e-09
1.01750091016e-09
3.11006773402e-09
9.16570258311e-10
-9.35061517139e-13
7.76374805075e-11
2.92173254461e-09
9.16619665696e-10
-9.31047731455e-14
1.29148705534e-10
2.99651538646e-09
1.02028038627e-09
1.53438585623e-10
3.06466392649e-09
1.11630394934e-09
1.51379890779e-10
3.11815543086e-09
1.20101452928e-09
1.26184802762e-10
3.15883917935e-09
1.27081134866e-09
8.29435770396e-11
3.18725660051e-09
1.32285394136e-09
2.83133059359e-11
3.20472750967e-09
1.35528039846e-09
-3.01330730137e-11
3.21142778486e-09
1.36665796281e-09
-8.47266147635e-11
3.20470361383e-09
1.35526664647e-09
-1.27895761337e-10
3.18721021805e-09
1.32282739567e-09
-1.52986025575e-10
3.15877382898e-09
1.27077357864e-09
-1.54911748303e-10
3.11807792194e-09
1.20096780535e-09
-1.30467224654e-10
3.06458476739e-09
1.11625038056e-09
-7.87811173358e-11
2.99641740931e-09
1.02021418996e-09
2.92158175159e-09
9.16521209706e-10
-1.03396580118e-12
8.16360263241e-11
2.68559425821e-09
8.99026502494e-10
-8.88100893464e-14
1.35197176349e-10
2.74795832739e-09
1.00427041457e-09
1.60239439809e-10
2.80461989278e-09
1.10126266636e-09
1.57825524738e-10
2.84847259777e-09
1.18649406155e-09
1.31398772133e-10
2.88150264695e-09
1.25651006338e-09
8.62908236593e-11
2.90442775498e-09
1.30859439955e-09
2.94154782901e-11
2.91845846804e-09
1.34096247447e-09
-3.13957282905e-11
2.92382562706e-09
1.35226472746e-09
-8.82322976083e-11
2.91841670397e-09
1.34094659684e-09
-1.33264096696e-10
2.90434552682e-09
1.3085638709e-09
-1.59579954711e-10
2.88138346035e-09
1.25646702256e-09
-1.61852904271e-10
2.84832397423e-09
1.18644170612e-09
-1.36646030654e-10
2.80445425883e-09
1.1012042588e-09
-8.28973875418e-11
2.74776240624e-09
1.00420047911e-09
2.68534704393e-09
8.98926776947e-10
-1.13292014974e-12
8.47742935939e-11
2.417630283e-09
8.66385225279e-10
-8.38555253855e-14
1.39846757767e-10
2.46827890875e-09
9.72305568832e-10
1.65393632352e-10
2.51396464738e-09
1.0694167588e-09
1.62646849277e-10
2.5488401732e-09
1.15439511724e-09
1.35242824524e-10
2.57489785956e-09
1.22397171087e-09
8.87234555542e-11
2.59289746845e-09
1.27559361454e-09
3.01959386978e-11
2.60385892958e-09
1.3075801607e-09
-3.23389738684e-11
2.60802203432e-09
1.31868778797e-09
-9.08258474357e-11
2.6037990483e-09
1.30756163847e-09
-1.37265322697e-10
2.59277860111e-09
1.27555804364e-09
-1.64552777591e-10
2.57472297671e-09
1.22392178926e-09
-1.67150772568e-10
2.54861665246e-09
1.15433499918e-09
-1.41429107862e-10
2.51370572882e-09
1.06935092666e-09
-8.61559584346e-11
2.46797486576e-09
9.72228850976e-10
2.41727361901e-09
8.66281246052e-10
-1.23299660118e-12
8.70533190625e-11
2.13147257718e-09
8.20971162651e-10
-7.81895243959e-14
1.43233154417e-10
2.17130565738e-09
9.26915457555e-10
1.69137164481e-10
2.20687795434e-09
1.02353788782e-09
1.66086265632e-10
2.23383103865e-09
1.10769386146e-09
1.37910485038e-10
2.25391778682e-09
1.17633423162e-09
9.03628568235e-11
2.26776748018e-09
1.22710790305e-09
3.06953977819e-11
2.27615030422e-09
1.25846384167e-09
-3.30045019874e-11
2.27928500507e-09
1.26928446075e-09
-9.26294663938e-11
2.27607273665e-09
1.25844211023e-09
-1.40093426893e-10
2.2676127981e-09
1.22706609914e-09
-1.68146891071e-10
2.25368775156e-09
1.17627553154e-09
-1.71040880641e-10
2.23353179419e-09
1.10762335165e-09
-1.44951188412e-10
2.20652213408e-09
1.02346141737e-09
-8.85567269752e-11
2.17088670705e-09
9.2682840728e-10
2.13099717021e-09
8.20859396825e-10
-1.3346952921e-12
8.85522147541e-11
1.83859165174e-09
7.64865402141e-10
-7.17274915284e-14
1.4571205348e-10
1.86825918183e-09
8.70431595053e-10
1.71882994117e-10
1.89493783599e-09
9.66170524502e-10
1.6847544253e-10
1.91539488044e-09
1.04909500269e-09
1.39628935392e-10
1.9307340724e-09
1.11642378633e-09
9.13401431818e-11
1.94131967083e-09
1.16605231902e-09
3.09572328763e-11
1.94767109627e-09
1.19658486336e-09
-3.34349141132e-11
1.9499751984e-09
1.2070468973e-09
-9.37730891954e-11
1.94757672183e-09
1.19655943635e-09
-1.41973952941e-10
1.94113070557e-09
1.166003198e-09
-1.70691674535e-10
1.93045097824e-09
1.11635443567e-09
-1.73933336759e-10
1.91502144181e-09
1.0490112855e-09
-1.47564660924e-10
1.89448438714e-09
9.66079897407e-10
-9.01749665059e-11
1.86772104456e-09
8.70330868162e-10
1.83799028264e-09
7.64743159314e-10
-1.43202650479e-12
8.98736001829e-11
1.5479484322e-09
6.99973672277e-10
-6.36618809596e-14
1.48127874819e-10
1.56793275494e-09
8.05039574505e-10
1.7422846486e-10
1.58762006974e-09
8.99664279597e-10
1.70156644011e-10
1.60328615299e-09
9.81048316513e-10
1.40591789176e-10
1.6151364244e-09
1.04677034822e-09
9.17605765371e-11
1.62333152158e-09
1.09502077066e-09
3.10159239468e-11
1.62819233309e-09
1.12457983539e-09
-3.36617526441e-11
1.62986805267e-09
1.13462800109e-09
-9.4358744494e-11
1.6280815401e-09
1.12455051842e-09
-1.43096404893e-10
1.62310951453e-09
1.09496379063e-09
-1.72524489437e-10
1.61480268856e-09
1.0466891214e-09
-1.76419973052e-10
1.60284193457e-09
9.80948997848e-10
-1.50109157121e-10
1.58707172614e-09
8.99555956682e-10
-9.16091837805e-11
1.56727378815e-09
8.04922473093e-10
1.54722147028e-09
6.9984072045e-10
-1.52776548273e-12
9.29627462488e-11
6.28185966233e-10
-5.60869449474e-14
1.26467141257e-09
1.51908349974e-10
7.32979480247e-10
1.27739641556e-09
1.76932196696e-10
8.26226202132e-10
1.29286148866e-09
1.71612311116e-10
9.05760429142e-10
1.30532952086e-09
1.41161855219e-10
9.69608907165e-10
1.31479969588e-09
9.18647625373e-11
1.01628313732e-09
1.32143125317e-09
3.09586684807e-11
1.04474532619e-09
1.32534381289e-09
-3.3767324944e-11
1.05433533121e-09
1.32659884913e-09
-9.46213426485e-11
1.04471270669e-09
1.325215344e-09
-1.43816578023e-10
1.01621935492e-09
1.32117409814e-09
-1.74118866343e-10
9.69516965903e-10
1.31441364005e-09
-1.79249002413e-10
9.05645872721e-10
1.30481474366e-09
-1.53998791378e-10
8.26099124706e-10
1.2922195881e-09
-9.47921875118e-11
7.32841048389e-10
1.27662092956e-09
6.28051466993e-10
-1.61368103199e-12
1.2638182126e-09
-6.30357330933e-13
3.85520426106e-11
1.04459062988e-10
-8.00038814881e-15
-5.98973015227e-13
4.24669944357e-11
1.1528175951e-10
-4.26031187253e-13
4.67355392572e-11
1.25677645807e-10
-2.69021820918e-13
5.07234984651e-11
1.35110374922e-10
-1.57734878757e-13
5.40999999361e-11
1.43050525046e-10
-9.27527640239e-14
5.66594296907e-11
1.49066675577e-10
-5.7699070132e-14
5.8273238679e-11
1.52872407579e-10
-3.23187401274e-14
5.88499807266e-11
1.54239839011e-10
3.19558599213e-15
5.82755038368e-11
1.52868814481e-10
6.9412238281e-14
5.66653776152e-11
1.49059562056e-10
1.8421217011e-13
5.41124194241e-11
1.43040007981e-10
3.48890466195e-13
5.07435369108e-11
1.35096527883e-10
5.32731414205e-13
4.67585249643e-11
1.25660257078e-10
5.76983579954e-13
4.24903690345e-11
1.15259440473e-10
3.85580179483e-11
1.04426743235e-10
-4.61323212201e-14
-7.43327479819e-13
1.11487081744e-10
2.96909179891e-10
-2.01914802347e-14
-3.9297822537e-13
1.21965688431e-10
3.28084963679e-10
1.8237353302e-13
1.33207344417e-10
3.58022964697e-10
5.77611301472e-13
1.43712370705e-10
3.85181644199e-10
6.73051830548e-13
1.52587596554e-10
4.08045267735e-10
4.78631641024e-13
1.59295028639e-10
4.25372202481e-10
8.55959575802e-14
1.63518180099e-10
4.36327840167e-10
-3.74631500973e-13
1.65028753786e-10
4.40251899735e-10
-7.64656451378e-13
1.63525725763e-10
4.36317206461e-10
-9.52109638768e-13
1.5931269228e-10
4.25351145724e-10
-8.42733253685e-13
1.52619985467e-10
4.08014158079e-10
-4.22859908708e-13
1.4376153215e-10
3.85140758273e-10
1.86472854863e-13
1.33265336568e-10
3.57971817949e-10
5.77102323192e-13
1.22021593662e-10
3.28019824546e-10
1.11507918496e-10
2.96819225553e-10
-1.43396721243e-13
-6.1953729792e-14
1.96246839152e-10
4.60811816671e-10
-2.90667057512e-14
9.07036299503e-13
2.13690509942e-10
5.09796231944e-10
1.95351655447e-12
2.32171058091e-10
5.5675221133e-10
2.51725387258e-12
2.49426252161e-10
5.99299155944e-10
2.39897595899e-12
2.63993876895e-10
6.35091463547e-10
1.63608903989e-12
2.74987574822e-10
6.6220319345e-10
4.28944260631e-13
2.8190320405e-10
6.79331047272e-10
-9.29649527592e-13
2.84376246286e-10
6.85449929038e-10
-2.12966822885e-12
2.81916739812e-10
6.79313815302e-10
-2.87702140611e-12
2.75017430832e-10
6.62169103589e-10
-2.96793613951e-12
2.64044759472e-10
6.35041185719e-10
-2.36113663019e-12
2.49499593799e-10
5.99233292648e-10
-1.25735387502e-12
2.32257296481e-10
5.56670395945e-10
-2.21530884799e-13
2.13770537919e-10
5.09693594936e-10
1.96279876883e-10
4.60674204709e-10
-2.44165924817e-13
1.16811196553e-12
2.81268862974e-10
5.95363264207e-10
-3.59364286716e-14
2.99657852137e-12
3.05150469016e-10
6.59473622125e-10
4.55759978107e-12
3.30149598089e-10
7.20776775913e-10
5.21709618195e-12
3.53436504737e-10
7.76237326244e-10
4.73086962044e-12
3.73079923368e-10
8.22845445456e-10
3.18279918313e-12
3.87888586463e-10
8.58124357118e-10
9.04342461879e-13
3.97197041501e-10
8.80388685525e-10
-1.62369730194e-12
4.00523974895e-10
8.88321896101e-10
-3.88997779745e-12
3.97216270196e-10
8.80365438179e-10
-5.41237607104e-12
3.87929344451e-10
8.58078429076e-10
-5.85631421603e-12
3.73145850846e-10
8.22777874421e-10
-5.13471579722e-12
3.53527590869e-10
7.76149205643e-10
-3.49368364704e-12
3.30255912951e-10
7.20668261015e-10
-1.57323321452e-12
3.05247578123e-10
6.59339839891e-10
2.81312727338e-10
5.95189080105e-10
-3.49157901882e-13
2.78593368492e-12
3.58425468421e-10
7.02571816392e-10
-4.12912121592e-14
5.62468557983e-12
3.87678990926e-10
7.79348413115e-10
7.71493330877e-12
4.1789199016e-10
8.52538904456e-10
8.39998926978e-12
4.45944793448e-10
9.18625018361e-10
7.43114802272e-12
4.69577664443e-10
9.74089370284e-10
4.95835601378e-12
4.87374557529e-10
1.01603160833e-09
1.45628288326e-12
4.98552405606e-10
1.04246866077e-09
-2.3973226938e-12
5.02544126605e-10
1.05186307437e-09
-5.88166546795e-12
4.98575878241e-10
1.04243996306e-09
-8.31785650665e-12
4.87423055069e-10
1.01597501296e-09
-9.22885308344e-12
4.69653356107e-10
9.74006376901e-10
-8.46254032808e-12
4.46046290017e-10
9.18517407564e-10
-6.27047147755e-12
4.18009260583e-10
8.52407745014e-10
-3.31608147738e-12
3.87785585684e-10
7.79189509435e-10
3.58476570722e-10
7.0237028269e-10
-4.57062082943e-13
4.64080280619e-12
4.22352591463e-10
7.84286034078e-10
-4.55078543066e-14
8.57312544597e-12
4.55639824258e-10
8.71471602169e-10
1.11819850732e-11
4.8948117932e-10
9.54288663842e-10
1.18296106955e-11
5.2078045894e-10
1.02889191118e-09
1.03008463675e-11
5.47096197905e-10
1.09140242062e-09
6.83005137881e-12
5.66886892895e-10
1.13861618875e-09
2.03920511037e-12
5.79304679958e-10
1.16833335169e-09
-3.20136096663e-12
5.83734025135e-10
1.17886241292e-09
-7.96876139606e-12
5.79330529969e-10
1.16829970003e-09
-1.13918589466e-11
5.66939300239e-10
1.13854996768e-09
-1.28472420224e-11
5.47175769759e-10
1.09130570088e-09
-1.20997066421e-11
5.20884585879e-10
1.02876736143e-09
-9.36815136026e-12
4.89600304234e-10
9.54138584661e-10
-5.29825569406e-12
4.55747033716e-10
8.71292796015e-10
4.2240654532e-10
7.84064191347e-10
-5.66430020182e-13
6.60204863453e-12
4.69907779122e-10
8.42285275901e-10
-4.87274805979e-14
1.1655671278e-11
5.05799197893e-10
9.37822845967e-10
1.47509968125e-11
5.41628050087e-10
1.02820884417e-09
1.53066378405e-11
5.74610009415e-10
1.10940814274e-09
1.31746124921e-11
6.02261783901e-10
1.17731304144e-09
8.688836553e-12
6.23019755341e-10
1.22852646219e-09
2.61599791409e-12
6.36027199772e-10
1.26070747886e-09
-3.99548510181e-12
6.40659327398e-10
1.27207279408e-09
-1.00392817925e-11
6.36053074876e-10
1.26066927281e-09
-1.44666008462e-11
6.23071405133e-10
1.22845146579e-09
-1.65102980766e-11
6.02338529629e-10
1.17720400755e-09
-1.5837029704e-11
5.74708382245e-10
1.10926880879e-09
-1.25993347305e-11
5.41739626791e-10
1.02804297534e-09
-7.38755629e-12
5.05897351085e-10
9.3762832523e-10
4.69957453899e-10
8.42048478495e-10
-6.76322709071e-13
8.56423806888e-12
4.99707171645e-10
8.78327243331e-10
-5.10369398155e-14
1.47212427262e-11
5.36810639116e-10
9.80365855941e-10
1.82543136905e-11
5.73086318972e-10
1.0764763653e-09
1.86728745017e-11
6.0628516275e-10
1.16255016383e-09
1.59238134512e-11
6.34009981162e-10
1.23436766872e-09
1.04512306659e-11
6.54771517354e-10
1.2884382319e-09
3.15857562965e-12
6.67757843295e-10
1.32234925478e-09
-4.74887298706e-12
6.72372143904e-10
1.33428257046e-09
-1.2007221133e-11
6.67781348775e-10
1.32230677295e-09
-1.74112584057e-11
6.54817722642e-10
1.28835506437e-09
-2.00580556448e-11
6.34077130769e-10
1.2342473513e-09
-1.95053562188e-11
6.06369259121e-10
1.16239766124e-09
-1.58117406343e-11
5.73180219188e-10
1.07629705535e-09
-9.47711987236e-12
5.36889255315e-10
9.80158651313e-10
4.99742017091e-10
8.78079373818e-10
-7.8554532701e-13
1.04464492147e-11
5.11735376517e-10
8.94171003473e-10
-5.27137267539e-14
1.76525040913e-11
5.48783845022e-10
1.00107410354e-09
2.15642848121e-11
5.84162724637e-10
1.10128866706e-09
2.1812079992e-11
6.16301139652e-10
1.19072578338e-09
1.84574652668e-11
6.43000010705e-10
1.26515333667e-09
1.20600280657e-11
6.62927046111e-10
1.32107484387e-09
3.64820437341e-12
6.75361395222e-10
1.35606867776e-09
-5.44032739813e-12
6.79766116441e-10
1.36833325683e-09
-1.38130529473e-11
6.75380035486e-10
1.35602207083e-09
-2.01327839684e-11
6.62962963323e-10
1.32098384121e-09
-2.33725036588e-11
6.43050621083e-10
1.26502233488e-09
-2.29755473703e-11
6.16362270111e-10
1.19056109572e-09
-1.88865480316e-11
5.8422852412e-10
1.10109737738e-09
-1.14848536576e-11
5.48831184996e-10
1.00085604992e-09
5.1174338488e-10
8.93914598997e-10
-8.92948289381e-13
1.21920361669e-11
5.070153576e-10
8.91584460035e-10
-5.37546466468e-14
2.03657621515e-11
5.42918383361e-10
1.00193902474e-09
2.45949414147e-11
5.76302126002e-10
1.10487063576e-09
2.46522269398e-11
6.06338635956e-10
1.19637715794e-09
2.07241593952e-11
6.31122144619e-10
1.27229541187e-09
1.34854788539e-11
6.49540681763e-10
1.32920005585e-09
4.07592681696e-12
6.60997698979e-10
1.36471711625e-09
-6.05857197214e-12
6.65039464737e-10
1.37710797772e-09
-1.5424772534e-11
6.61009083763e-10
1.36466642178e-09
-2.25776426596e-11
6.49561660895e-10
1.32910130549e-09
-2.63796205092e-11
6.31149493346e-10
1.27215390374e-09
-2.61598166558e-11
6.06368050388e-10
1.19620063032e-09
-2.17384092989e-11
5.76328954062e-10
1.10466794784e-09
-1.33524963339e-11
5.42921682246e-10
1.00171083795e-09
5.06981869813e-10
8.91320836254e-10
-9.97444088725e-13
1.37675267479e-11
4.87323919545e-10
8.72342065109e-10
-5.44373809723e-14
2.28133427493e-11
5.21189364989e-10
9.84969022468e-10
2.73073611833e-11
5.51732762538e-10
1.08947185e-09
2.71716867064e-11
5.78877902161e-10
1.18197202866e-09
2.27171058066e-11
6.01088579318e-10
1.25844134959e-09
1.47283041579e-11
6.1750990043e-10
1.31559541425e-09
4.44363876708e-12
6.27684804753e-10
1.35116062636e-09
-6.60308529539e-12
6.31253975417e-10
1.36350340119e-09
-1.68406866888e-11
6.27686559435e-10
1.35110581095e-09
-2.47366442082e-11
6.17511288931e-10
1.31548882713e-09
-2.90554559452e-11
6.01085965732e-10
1.25828917412e-09
-2.90169856528e-11
5.78866897662e-10
1.18178345974e-09
-2.43175188933e-11
5.51709600973e-10
1.08925759984e-09
-1.504484128e-11
5.21135192181e-10
9.84730541048e-10
4.87233437884e-10
8.72071528341e-10
-1.09779437381e-12
1.51638188222e-11
4.54950571334e-10
8.38216154443e-10
-5.46798714799e-14
2.4993158419e-11
4.86072642046e-10
9.52185889502e-10
2.97245648365e-11
5.13160926222e-10
1.0573609381e-09
2.94134085605e-11
5.36877103189e-10
1.14998873268e-09
2.4484011278e-11
5.56099709993e-10
1.22623599291e-09
1.58252583777e-11
5.70232001256e-10
1.28302864073e-09
4.76575397865e-12
5.78948127693e-10
1.31824443786e-09
-7.08566851763e-12
5.81981938983e-10
1.33039297063e-09
-1.80948881871e-11
5.78937733985e-10
1.3181854839e-09
-2.66546954113e-11
5.70209079425e-10
1.28291410938e-09
-3.1440053559e-11
5.56060270036e-10
1.2260728466e-09
-3.15671630361e-11
5.36816790061e-10
1.14978757682e-09
-2.66190294447e-11
5.13076398519e-10
1.05713448226e-09
-1.65501526906e-11
4.85947240872e-10
9.51936582074e-10
4.54786640335e-10
8.37938525498e-10
-1.19260357298e-12
1.64194299477e-11
4.12469939371e-10
7.90963789541e-10
-5.44256010455e-14
2.6991695786e-11
4.40289377665e-10
9.05627990727e-10
3.19743410292e-11
4.63511463689e-10
1.01082230009e-09
3.15169234465e-11
4.83518571698e-10
1.10289622932e-09
2.61470598095e-11
4.99589128295e-10
1.17828965712e-09
1.68591345512e-11
5.11342231833e-10
1.23421567393e-09
5.07244728788e-12
5.18553465918e-10
1.26875244282e-09
-7.53376661327e-12
5.21035686345e-10
1.28058569682e-09
-1.92672199939e-11
5.18528201686e-10
1.26868949687e-09
-2.84508926821e-11
5.11289595667e-10
1.23409335552e-09
-3.36695289806e-11
4.99505430093e-10
1.17811546112e-09
-3.39346313688e-11
4.83399394276e-10
1.10268194925e-09
-2.87259143316e-11
4.63353830028e-10
1.01058286088e-09
-1.79036155064e-11
4.40078122307e-10
9.05367737179e-10
4.12214821316e-10
7.90679985984e-10
-1.27757264399e-12
1.76777557915e-11
3.62493549695e-10
7.32309517126e-10
-5.34501429535e-14
2.90259984034e-11
3.86589083791e-10
8.47378933704e-10
3.43215378282e-11
4.057169061e-10
9.52150494804e-10
3.37388189614e-11
4.22019460095e-10
1.04311699787e-09
2.79152663575e-11
4.35039270304e-10
1.117130844e-09
1.7966142975e-11
4.44526851653e-10
1.17177264808e-09
5.41145634102e-12
4.50314958333e-10
1.20536046183e-09
-7.99247955339e-12
4.5227564447e-10
1.21678004535e-09
-2.04912321158e-11
4.50271445925e-10
1.20529406963e-09
-3.0331073073e-11
4.44438329921e-10
1.17164344234e-09
-3.59970264053e-11
4.3490270917e-10
1.11694641744e-09
-3.63802871993e-11
4.21831234448e-10
1.0428896992e-09
-3.0851850758e-11
4.05474065956e-10
9.51897386531e-10
-1.92457916441e-11
3.86277305519e-10
8.47108407687e-10
3.62131957364e-10
7.3202334097e-10
-1.35357601807e-12
1.80237724992e-11
6.63929479657e-10
-5.2929421716e-14
3.08763985771e-10
3.08237252535e-11
7.79648329156e-10
3.27108837113e-10
3.68158832353e-11
8.83552892776e-10
3.42386362545e-10
3.62816233424e-11
9.72911946917e-10
3.55390744149e-10
3.00266108562e-11
1.04511680519e-09
3.65774720696e-10
1.93290562916e-11
1.09815494503e-09
3.73341059343e-10
5.85160048913e-12
1.13059443713e-09
3.77932243682e-10
-8.52865039793e-12
1.14152878708e-09
3.79451568996e-10
-2.1947264357e-11
1.13052607779e-09
3.77866376158e-10
-3.25303404557e-11
1.09802164887e-09
3.73208561307e-10
-3.86208986516e-11
1.0449257683e-09
3.6557418772e-10
-3.89487064889e-11
9.72674920429e-10
3.55120158534e-10
-3.27164800773e-11
8.83288196759e-10
3.42043665939e-10
-1.96550014196e-11
7.79365414059e-10
3.26683029153e-10
6.63655360618e-10
-1.41417605511e-12
3.08279450679e-10
7.1581603039e-13
-8.56167794687e-12
1.12287628723e-10
-3.31918887469e-15
1.10819332207e-12
-9.58273972317e-12
1.24449813478e-10
1.28764405521e-12
-1.06860583895e-11
1.36158520569e-10
1.26599674346e-12
-1.16953959796e-11
1.46807269001e-10
1.05645961963e-12
-1.25523464552e-11
1.5579041424e-10
6.94095140997e-13
-1.32025972063e-11
1.62609033608e-10
2.31476567953e-13
-1.36118759721e-11
1.66926276579e-10
-2.66708450814e-13
-1.37551985866e-11
1.68475516369e-10
-7.27904131034e-13
-1.36063288576e-11
1.6692091431e-10
-1.08777333197e-12
-1.31928749733e-11
1.62598459996e-10
-1.29479471345e-12
-1.25405852143e-11
1.55774892114e-10
-1.31477556405e-12
-1.16825688435e-11
1.46787091188e-10
-1.13070272542e-12
-1.06689971765e-11
1.36133801377e-10
-7.34166992046e-13
-9.56750882569e-12
1.24419595251e-10
-8.54956388446e-12
1.12247606801e-10
-1.56684174635e-14
1.6884256543e-12
-1.7094602684e-11
3.03728369275e-10
-7.63866990067e-15
2.73150179253e-12
-1.88879838593e-11
3.36309735047e-10
3.22816096872e-12
-2.08113887408e-11
3.67613685808e-10
3.19886802195e-12
-2.25519990031e-11
3.96033142099e-10
2.67922342437e-12
-2.40000517347e-11
4.1997683772e-10
1.7598674451e-12
-2.50814289405e-11
4.38134916221e-10
5.77942573948e-13
-2.57550496624e-11
4.4962077871e-10
-6.96522955999e-13
-2.59896002797e-11
4.5373270496e-10
-1.87425965216e-12
-2.5740966663e-11
4.49604862207e-10
-2.78610548459e-12
-2.50557331339e-11
4.38103566392e-10
-3.29712993931e-12
-2.39668749217e-11
4.19930895135e-10
-3.31772195416e-12
-2.25141207986e-11
3.9597357583e-10
-2.80759730939e-12
-2.07665727551e-11
3.67540979903e-10
-1.74937255209e-12
-1.88445411741e-11
3.36221471967e-10
-1.70596361193e-11
3.03615697797e-10
-5.15789431232e-14
2.30727596883e-12
-2.10841786332e-11
4.62475420342e-10
-1.09243108801e-14
3.8264194642e-12
-2.29628621861e-11
5.12317700592e-10
4.57352103653e-12
-2.49465970736e-11
5.60106725431e-10
4.5561734472e-12
-2.66981846437e-11
6.03430891021e-10
3.82455073384e-12
-2.81078986336e-11
6.39898190312e-10
2.50907201174e-12
-2.91310955809e-11
6.67535881034e-10
8.09619561591e-13
-2.97556074365e-11
6.85001454475e-10
-1.02452354313e-12
-2.99698580008e-11
6.91238275794e-10
-2.71698216533e-12
-2.97333964207e-11
6.8497559077e-10
-4.01963721721e-12
-2.90899005825e-11
6.67484992869e-10
-4.73518168758e-12
-2.80532678191e-11
6.39823758075e-10
-4.73424927867e-12
-2.66346618176e-11
6.03334699138e-10
-3.96326857464e-12
-2.48743275007e-11
5.59989985019e-10
-2.41681085292e-12
-2.28911360616e-11
5.1217767077e-10
-2.10255276535e-11
4.62300946919e-10
-9.24228313588e-14
2.68707467497e-12
-2.11938361436e-11
5.92771694024e-10
-1.32397340059e-14
4.54105577981e-12
-2.26541737034e-11
6.57281295014e-10
5.48403536841e-12
-2.41208631564e-11
7.18978105006e-10
5.49235655575e-12
-2.53202823773e-11
7.7482165795e-10
4.62074891618e-12
-2.61990336139e-11
8.21778402778e-10
3.02679771866e-12
-2.6781727867e-11
8.57339938853e-10
9.56962439346e-13
-2.71134138452e-11
8.79789689224e-10
-1.2791001495e-12
-2.72213853745e-11
8.87785642878e-10
-3.33899794526e-12
-2.70841230692e-11
8.79754644873e-10
-4.91441336181e-12
-2.67266987775e-11
8.57271071307e-10
-5.76148193014e-12
-2.61244353716e-11
8.21677899436e-10
-5.72402524831e-12
-2.52323450515e-11
7.7469227998e-10
-4.74547287609e-12
-2.40229723341e-11
7.18822183936e-10
-2.85187598621e-12
-2.25566820717e-11
6.57096801541e-10
-2.11108238813e-11
5.92547311658e-10
-1.38351778948e-13
2.90438724065e-12
-1.81125943507e-11
6.96576280381e-10
-1.49072012536e-14
4.98157274753e-12
-1.88103637873e-11
7.73402586137e-10
6.0675650957e-12
-1.93589752379e-11
8.46664696773e-10
6.10472836288e-12
-1.96131671529e-11
9.128547975e-10
5.14483484121e-12
-1.96207165882e-11
9.68444618797e-10
3.36252064299e-12
-1.95016930212e-11
1.01050807544e-09
1.03742294262e-12
-1.93752381619e-11
1.03703159291e-09
-1.47647033774e-12
-1.9319038993e-11
1.04645283658e-09
-3.78847753285e-12
-1.93400836117e-11
1.03698814563e-09
-5.54605490035e-12
-1.94351549636e-11
1.01042281779e-09
-6.47220498767e-12
-1.95294714041e-11
9.68320530916e-10
-6.39425225484e-12
-1.95047448234e-11
9.12695799225e-10
-5.26003275955e-12
-1.92391395195e-11
8.46474603461e-10
-3.13039647347e-12
-1.86914484298e-11
7.73180687207e-10
-1.80071372512e-11
6.96312183391e-10
-1.88791331941e-13
3.02374810876e-12
-1.26150380144e-11
7.75759681441e-10
-1.59969403162e-14
5.24015571599e-12