/*--------------------------------*- C++ -*----------------------------------*\
  =========                 |
  \\      /  F ield         | OpenFOAM: The Open Source CFD Toolbox
   \\    /   O peration     | Website:  https://openfoam.org
    \\  /    A nd           | Version:  7
     \\/     M anipulation  |
\*---------------------------------------------------------------------------*/
FoamFile
{
    version     2.0;
    format      ascii;
    class       volScalarField;
    location    "1.14";
    object      p;
}
// * * * * * * * * * * * * * * * * * * * * * * * * * * * * * * * * * * * * * //

dimensions      [0 2 -2 0 0 0 0];

internalField   nonuniform List<scalar> 
22500
(
-7.21994125307e-06
-7.21937831777e-06
-7.21921325468e-06
-7.21889810303e-06
-7.21866076089e-06
-7.21847705972e-06
-7.21836662668e-06
-7.21833121734e-06
-7.21837757411e-06
-7.21849860423e-06
-7.21869222872e-06
-7.21893840255e-06
-7.21926128713e-06
-7.21943148459e-06
-7.22000317716e-06
-7.21426585956e-06
-7.21339771325e-06
-7.21299135492e-06
-7.21245843328e-06
-7.21203836429e-06
-7.21171691711e-06
-7.21152102489e-06
-7.21145724101e-06
-7.2115324093e-06
-7.21173933767e-06
-7.21207115157e-06
-7.21250053262e-06
-7.21304169395e-06
-7.21345367477e-06
-7.21433082736e-06
-7.20877093216e-06
-7.2076216071e-06
-7.20699355329e-06
-7.20625483811e-06
-7.20566588986e-06
-7.2052163622e-06
-7.20494098803e-06
-7.2048506339e-06
-7.20495281147e-06
-7.20523966219e-06
-7.2056999924e-06
-7.20629868013e-06
-7.20704608676e-06
-7.20768004455e-06
-7.20883879378e-06
-7.20373673971e-06
-7.20234017443e-06
-7.2014983117e-06
-7.2005684485e-06
-7.1998210579e-06
-7.1992518241e-06
-7.19890195801e-06
-7.19878662035e-06
-7.19891417415e-06
-7.19927591001e-06
-7.19985634025e-06
-7.20061386209e-06
-7.20155281631e-06
-7.20240084033e-06
-7.20380727846e-06
-7.19883902323e-06
-7.19720533906e-06
-7.19613947378e-06
-7.19501836605e-06
-7.1941100045e-06
-7.19341980655e-06
-7.19299456101e-06
-7.19285390701e-06
-7.19300714633e-06
-7.19344463454e-06
-7.19414640089e-06
-7.19506526637e-06
-7.1961958274e-06
-7.19726817291e-06
-7.19891224803e-06
-7.1939741603e-06
-7.192106867e-06
-7.19080748985e-06
-7.18949426074e-06
-7.18842259669e-06
-7.18761029072e-06
-7.18710896658e-06
-7.18694275039e-06
-7.18712192059e-06
-7.18763585945e-06
-7.18846010626e-06
-7.18954265395e-06
-7.19086568696e-06
-7.19217190966e-06
-7.19405008739e-06
-7.18913680063e-06
-7.18703891581e-06
-7.18550166532e-06
-7.183998932e-06
-7.18276550111e-06
-7.18183285183e-06
-7.1812566949e-06
-7.1810653447e-06
-7.18127001758e-06
-7.18185916111e-06
-7.18280411971e-06
-7.18404880926e-06
-7.18556167386e-06
-7.18710617544e-06
-7.1892154241e-06
-7.18433051794e-06
-7.18200596347e-06
-7.18023227198e-06
-7.17854723259e-06
-7.17715835041e-06
-7.17611073863e-06
-7.17546337479e-06
-7.1752481514e-06
-7.17547708266e-06
-7.17613781958e-06
-7.17719812357e-06
-7.17859865193e-06
-7.18029414247e-06
-7.18207551215e-06
-7.18441181321e-06
-7.17956179616e-06
-7.1770173201e-06
-7.17501540711e-06
-7.17316090904e-06
-7.17162847199e-06
-7.17047549821e-06
-7.16976328816e-06
-7.16952639802e-06
-7.16977739806e-06
-7.17050338522e-06
-7.17166945102e-06
-7.17321393657e-06
-7.17507920798e-06
-7.17708925025e-06
-7.17964583802e-06
-7.17484313527e-06
-7.17208953219e-06
-7.16987518207e-06
-7.16787051264e-06
-7.1662124559e-06
-7.16496828097e-06
-7.16420049404e-06
-7.16394515374e-06
-7.16421502658e-06
-7.16499701616e-06
-7.16625471231e-06
-7.16792524618e-06
-7.1699410307e-06
-7.17216398944e-06
-7.17493001611e-06
-7.17018948907e-06
-7.16724236103e-06
-7.16484009234e-06
-7.16271157016e-06
-7.16095187626e-06
-7.15963516887e-06
-7.1588239387e-06
-7.15855433656e-06
-7.15883890238e-06
-7.15966477822e-06
-7.16099545966e-06
-7.16276810188e-06
-7.16490812419e-06
-7.16731953037e-06
-7.17027948919e-06
-7.16560034927e-06
-7.16248926153e-06
-7.15993850162e-06
-7.15772082923e-06
-7.15588937561e-06
-7.15452318907e-06
-7.15368338652e-06
-7.15340467008e-06
-7.15369876896e-06
-7.15455365879e-06
-7.15593430075e-06
-7.15777921686e-06
-7.16000884532e-06
-7.16256933293e-06
-7.16569375915e-06
-7.16102566432e-06
-7.15783639535e-06
-7.15520284471e-06
-7.15293810987e-06
-7.15106953445e-06
-7.14968109569e-06
-7.14883048035e-06
-7.14854875279e-06
-7.14884622663e-06
-7.14971232838e-06
-7.15111569708e-06
-7.15299829827e-06
-7.15527555555e-06
-7.15791949268e-06
-7.1611225958e-06
-7.15652262198e-06
-7.15336842784e-06
-7.15068561769e-06
-7.1484023645e-06
-7.14652644471e-06
-7.14514342511e-06
-7.14430084354e-06
-7.14402274014e-06
-7.14431684263e-06
-7.1451752228e-06
-7.14657360008e-06
-7.1484641442e-06
-7.15076064057e-06
-7.15345483967e-06
-7.15662273786e-06
-7.15312610875e-06
-7.14917496986e-06
-7.14639078084e-06
-7.14405581955e-06
-7.14217639732e-06
-7.1408126879e-06
-7.1399893714e-06
-7.1397189292e-06
-7.14000564197e-06
-7.14084507636e-06
-7.14222460005e-06
-7.14411934481e-06
-7.14646872932e-06
-7.14926591131e-06
-7.15322922942e-06
-6.86290373235e-06
-6.86291038245e-06
-6.8629138213e-06
-6.86292375943e-06
-6.86293074676e-06
-6.86293415133e-06
-6.8629327639e-06
-6.86292642094e-06
-6.86291505813e-06
-6.86289933592e-06
-6.86288042099e-06
-6.86286087206e-06
-6.86284279537e-06
-6.86283698424e-06
-6.86283266419e-06
-6.8626504969e-06
-6.86265599322e-06
-6.86265784513e-06
-6.86266793498e-06
-6.86267595842e-06
-6.86268072645e-06
-6.86268048657e-06
-6.86267470186e-06
-6.86266321503e-06
-6.86264682465e-06
-6.862627041e-06
-6.86260687533e-06
-6.8625887838e-06
-6.86258421837e-06
-6.86258047375e-06
-6.86247751724e-06
-6.86249067943e-06
-6.86249749737e-06
-6.86251345872e-06
-6.86252670005e-06
-6.86253578361e-06
-6.86253842272e-06
-6.86253372264e-06
-6.86252140244e-06
-6.86250236602e-06
-6.86247843067e-06
-6.86245311283e-06
-6.86242910604e-06
-6.86241941277e-06
-6.86240784564e-06
-6.86243445319e-06
-6.86246054751e-06
-6.86247628065e-06
-6.8625009449e-06
-6.86252121888e-06
-6.86253561376e-06
-6.86254160737e-06
-6.86253816426e-06
-6.86252496176e-06
-6.86250292171e-06
-6.86247394658e-06
-6.86244173885e-06
-6.86240902238e-06
-6.86239025468e-06
-6.86236547006e-06
-6.86245696993e-06
-6.86249255168e-06
-6.86251395243e-06
-6.86254332467e-06
-6.86256679921e-06
-6.86258325004e-06
-6.86259045281e-06
-6.86258755563e-06
-6.86257432861e-06
-6.86255157709e-06
-6.86252095742e-06
-6.86248580281e-06
-6.86244841023e-06
-6.86242380365e-06
-6.86238912095e-06
-6.86249310554e-06
-6.86252923478e-06
-6.86254883429e-06
-6.86257517158e-06
-6.8625949897e-06
-6.86260805558e-06
-6.86261299235e-06
-6.8626094918e-06
-6.86259753074e-06
-6.86257768134e-06
-6.86255099323e-06
-6.86251986088e-06
-6.86248559733e-06
-6.86246259471e-06
-6.86242687798e-06
-6.86251119743e-06
-6.86253646084e-06
-6.86254530274e-06
-6.86255972017e-06
-6.86256823097e-06
-6.8625719943e-06
-6.86257094653e-06
-6.86256560661e-06
-6.86255625039e-06
-6.86254311916e-06
-6.86252637021e-06
-6.86250698454e-06
-6.86248479501e-06
-6.86247234733e-06
-6.86244702116e-06
-6.86249066633e-06
-6.86249321079e-06
-6.86248256528e-06
-6.8624767176e-06
-6.86246694141e-06
-6.86245613052e-06
-6.86244584302e-06
-6.8624375869e-06
-6.86243199843e-06
-6.86242892241e-06
-6.8624274581e-06
-6.86242686359e-06
-6.86242513616e-06
-6.86243201919e-06
-6.86242889104e-06
-6.8624190921e-06
-6.86238846684e-06
-6.86235097071e-06
-6.86231817141e-06
-6.86228468223e-06
-6.86225532309e-06
-6.86223339236e-06
-6.86222143347e-06
-6.8622204495e-06
-6.86222987754e-06
-6.8622477135e-06
-6.86227137764e-06
-6.86229684527e-06
-6.862330465e-06
-6.86236007076e-06
-6.86229136189e-06
-6.8622196949e-06
-6.86215004318e-06
-6.86208583215e-06
-6.86202520136e-06
-6.86197494313e-06
-6.86194001436e-06
-6.86192392936e-06
-6.86192800736e-06
-6.86195132297e-06
-6.86199083624e-06
-6.86204220884e-06
-6.86209936609e-06
-6.8621650713e-06
-6.86223534636e-06
-6.86210844821e-06
-6.86199125402e-06
-6.86188647542e-06
-6.8617886934e-06
-6.86169954152e-06
-6.8616276552e-06
-6.86157943011e-06
-6.86155914237e-06
-6.86156836793e-06
-6.86160587541e-06
-6.86166779432e-06
-6.86174826875e-06
-6.86183930262e-06
-6.86194010758e-06
-6.86205565226e-06
-6.86187690474e-06
-6.86171295512e-06
-6.86157198862e-06
-6.86144036021e-06
-6.86132307239e-06
-6.86123029678e-06
-6.86116940053e-06
-6.86114517026e-06
-6.86115927601e-06
-6.86121034303e-06
-6.86129392028e-06
-6.8614031013e-06
-6.86152829716e-06
-6.86166530379e-06
-6.86182736227e-06
-6.86160878437e-06
-6.86139802222e-06
-6.86122043415e-06
-6.86105607641e-06
-6.86091260633e-06
-6.86080095573e-06
-6.86072892749e-06
-6.86070125534e-06
-6.86071972879e-06
-6.8607827903e-06
-6.86088598474e-06
-6.86102190118e-06
-6.86118014604e-06
-6.861353803e-06
-6.86156252614e-06
-6.8613119143e-06
-6.86105282976e-06
-6.86084108451e-06
-6.86064780195e-06
-6.86048296274e-06
-6.86035676431e-06
-6.86027638669e-06
-6.86024635401e-06
-6.86026808578e-06
-6.86034034007e-06
-6.86045882092e-06
-6.86061664899e-06
-6.86080406926e-06
-6.86101187019e-06
-6.86126884097e-06
-6.86094165356e-06
-6.86068335636e-06
-6.86044514713e-06
-6.86023150344e-06
-6.8600538144e-06
-6.85991981582e-06
-6.85983552893e-06
-6.85980452382e-06
-6.85982807778e-06
-6.85990501977e-06
-6.86003197612e-06
-6.86020314393e-06
-6.86041118504e-06
-6.86064517389e-06
-6.86090119141e-06
-6.45835351009e-06
-6.45835262125e-06
-6.45835597732e-06
-6.45836136901e-06
-6.45836811383e-06
-6.45837504645e-06
-6.45838132281e-06
-6.45838630994e-06
-6.45838975359e-06
-6.45839165186e-06
-6.45839212462e-06
-6.45839122319e-06
-6.45838935735e-06
-6.45838566351e-06
-6.45838288829e-06
-6.45838886828e-06
-6.45838889943e-06
-6.45839325043e-06
-6.4583991182e-06
-6.45840612803e-06
-6.45841315016e-06
-6.45841942934e-06
-6.45842435955e-06
-6.45842767574e-06
-6.45842935839e-06
-6.45842950271e-06
-6.45842814371e-06
-6.4584256933e-06
-6.45842124265e-06
-6.45841788704e-06
-6.4584096083e-06
-6.45840884959e-06
-6.45841276783e-06
-6.4584178815e-06
-6.45842423516e-06
-6.45843067629e-06
-6.45843653486e-06
-6.45844126509e-06
-6.45844461807e-06
-6.45844655853e-06
-6.45844714473e-06
-6.45844635358e-06
-6.45844458877e-06
-6.45844070993e-06
-6.45843834108e-06
-6.45841644146e-06
-6.45841395723e-06
-6.45841661414e-06
-6.45842026071e-06
-6.45842533901e-06
-6.45843073369e-06
-6.45843586635e-06
-6.45844026977e-06
-6.45844371958e-06
-6.45844616306e-06
-6.45844761477e-06
-6.4584479865e-06
-6.45844764103e-06
-6.45844513229e-06
-6.4584447464e-06
-6.45841455215e-06
-6.45840995588e-06
-6.45841101856e-06
-6.45841289667e-06
-6.45841639752e-06
-6.45842050968e-06
-6.45842476456e-06
-6.45842876843e-06
-6.45843231861e-06
-6.45843534497e-06
-6.45843781798e-06
-6.45843958975e-06
-6.4584409587e-06
-6.45844017241e-06
-6.45844224041e-06
-6.45840634714e-06
-6.45839935355e-06
-6.45839867602e-06
-6.4583986628e-06
-6.45840046643e-06
-6.45840320751e-06
-6.45840651611e-06
-6.45841007782e-06
-6.45841371045e-06
-6.45841733127e-06
-6.45842086862e-06
-6.4584241254e-06
-6.45842732151e-06
-6.45842844144e-06
-6.45843320714e-06
-6.45839303141e-06
-6.45838359652e-06
-6.45838109614e-06
-6.45837916025e-06
-6.45837923113e-06
-6.45838057261e-06
-6.45838291333e-06
-6.45838600919e-06
-6.45838969895e-06
-6.45839388864e-06
-6.4583984717e-06
-6.45840321243e-06
-6.45840824292e-06
-6.45841136099e-06
-6.45841891941e-06
-6.45837564403e-06
-6.45836378696e-06
-6.45835940153e-06
-6.45835560562e-06
-6.45835399648e-06
-6.45835398221e-06
-6.45835537789e-06
-6.45835800522e-06
-6.45836172392e-06
-6.458366434e-06
-6.45837200052e-06
-6.45837816219e-06
-6.45838496057e-06
-6.45839010545e-06
-6.45840042717e-06
-6.45835503837e-06
-6.45834084664e-06
-6.45833456616e-06
-6.45832901726e-06
-6.45832581814e-06
-6.45832452538e-06
-6.45832502593e-06
-6.45832719538e-06
-6.458330915e-06
-6.45833608216e-06
-6.45834254221e-06
-6.4583500214e-06
-6.45835847257e-06
-6.45836562995e-06
-6.45837861394e-06
-6.45833187723e-06
-6.45831541854e-06
-6.45830726358e-06
-6.45830010177e-06
-6.45829545337e-06
-6.45829300059e-06
-6.45829268041e-06
-6.45829441743e-06
-6.45829811004e-06
-6.45830366007e-06
-6.45831090163e-06
-6.45831956134e-06
-6.4583295148e-06
-6.45833863584e-06
-6.45835412993e-06
-6.45830655275e-06
-6.458287961e-06
-6.45827800216e-06
-6.45826940834e-06
-6.45826348842e-06
-6.45826001723e-06
-6.45825897476e-06
-6.45826031064e-06
-6.45826394952e-06
-6.45826979306e-06
-6.45827768254e-06
-6.458287353e-06
-6.45829861845e-06
-6.45830960446e-06
-6.45832743569e-06
-6.45827918449e-06
-6.45825870028e-06
-6.45824712541e-06
-6.45823735709e-06
-6.45823039407e-06
-6.45822609659e-06
-6.45822444845e-06
-6.4582254318e-06
-6.458228978e-06
-6.4582350112e-06
-6.45824337785e-06
-6.4582538398e-06
-6.45826615975e-06
-6.4582787865e-06
-6.45829866768e-06
-6.45824929569e-06
-6.45822762345e-06
-6.45821492362e-06
-6.45820434322e-06
-6.45819665466e-06
-6.45819176691e-06
-6.45818967922e-06
-6.45819036101e-06
-6.45819377508e-06
-6.45819985014e-06
-6.45820847093e-06
-6.45821943019e-06
-6.45823244391e-06
-6.45824621427e-06
-6.45826743613e-06
-6.45821779057e-06
-6.45819605611e-06
-6.45818233066e-06
-6.45817109883e-06
-6.4581628656e-06
-6.45815758158e-06
-6.45815517345e-06
-6.45815561071e-06
-6.45815885211e-06
-6.45816485762e-06
-6.45817356579e-06
-6.45818484323e-06
-6.45819840134e-06
-6.45821323173e-06
-6.45823466764e-06
-6.45819873845e-06
-6.45816874532e-06
-6.45815215333e-06
-6.45813879743e-06
-6.45812912309e-06
-6.45812285252e-06
-6.45811980454e-06
-6.45811989304e-06
-6.45812308053e-06
-6.45812936342e-06
-6.45813874051e-06
-6.45815123908e-06
-6.4581668156e-06
-6.45818461731e-06
-6.45821461901e-06
-6.13415015801e-06
-6.13414758915e-06
-6.13414439241e-06
-6.13414019965e-06
-6.13413572736e-06
-6.13413144121e-06
-6.13412783615e-06
-6.13412526797e-06
-6.13412393254e-06
-6.13412381025e-06
-6.13412479734e-06
-6.13412671047e-06
-6.1341293182e-06
-6.13413229286e-06
-6.13413545975e-06
-6.1341450696e-06
-6.13414248602e-06
-6.13413915777e-06
-6.13413499202e-06
-6.13413054136e-06
-6.13412629396e-06
-6.13412273703e-06
-6.13412021752e-06
-6.13411893739e-06
-6.13411888111e-06
-6.1341199457e-06
-6.13412195092e-06
-6.13412465353e-06
-6.13412772555e-06
-6.13413088281e-06
-6.13414837847e-06
-6.13414644466e-06
-6.13414351081e-06
-6.13413975902e-06
-6.13413563753e-06
-6.13413167969e-06
-6.13412833611e-06
-6.13412592856e-06
-6.1341246387e-06
-6.13412445508e-06
-6.13412528063e-06
-6.13412694753e-06
-6.13412922012e-06
-6.13413178385e-06
-6.13413434621e-06
-6.13415293874e-06
-6.13415149184e-06
-6.13414896658e-06
-6.13414561163e-06
-6.13414185138e-06
-6.13413820567e-06
-6.13413509003e-06
-6.13413280546e-06
-6.13413151641e-06
-6.13413121424e-06
-6.13413180767e-06
-6.13413314072e-06
-6.13413498838e-06
-6.13413706525e-06
-6.13413910369e-06
-6.1341569016e-06
-6.13415576806e-06
-6.13415354134e-06
-6.13415046971e-06
-6.13414699581e-06
-6.13414360061e-06
-6.13414068627e-06
-6.13413851961e-06
-6.13413725533e-06
-6.13413687974e-06
-6.1341373094e-06
-6.13413839615e-06
-6.1341399276e-06
-6.13414165195e-06
-6.13414332127e-06
-6.13416031808e-06
-6.13415937359e-06
-6.13415729085e-06
-6.13415443971e-06
-6.1341511983e-06
-6.13414802391e-06
-6.1341452859e-06
-6.13414323633e-06
-6.13414201459e-06
-6.13414160915e-06
-6.13414193774e-06
-6.13414286065e-06
-6.13414417659e-06
-6.1341456671e-06
-6.13414711378e-06
-6.13416333151e-06
-6.13416243579e-06
-6.1341603927e-06
-6.13415766404e-06
-6.13415456823e-06
-6.13415155052e-06
-6.13414895224e-06
-6.13414701118e-06
-6.13414585024e-06
-6.1341454582e-06
-6.13414575228e-06
-6.13414659757e-06
-6.13414780132e-06
-6.13414917368e-06
-6.13415053229e-06
-6.134165881e-06
-6.13416483651e-06
-6.13416274243e-06
-6.13416003211e-06
-6.13415701229e-06
-6.1341540959e-06
-6.13415160558e-06
-6.13414976101e-06
-6.13414867784e-06
-6.13414834063e-06
-6.13414866735e-06
-6.13414952373e-06
-6.13415072224e-06
-6.13415209487e-06
-6.13415351568e-06
-6.1341678649e-06
-6.13416657677e-06
-6.13416433483e-06
-6.13416154952e-06
-6.13415852141e-06
-6.13415564034e-06
-6.13415321642e-06
-6.13415145322e-06
-6.13415045898e-06
-6.13415021486e-06
-6.13415063658e-06
-6.13415158837e-06
-6.13415288377e-06
-6.13415437172e-06
-6.13415598389e-06
-6.13416929719e-06
-6.13416765176e-06
-6.13416516797e-06
-6.13416222847e-06
-6.13415912237e-06
-6.13415622972e-06
-6.13415383721e-06
-6.13415214443e-06
-6.13415124676e-06
-6.1341511267e-06
-6.13415169574e-06
-6.13415281529e-06
-6.13415429726e-06
-6.13415599939e-06
-6.13415793166e-06
-6.13417018305e-06
-6.13416812178e-06
-6.13416533672e-06
-6.13416217789e-06
-6.13415894244e-06
-6.1341559875e-06
-6.13415359958e-06
-6.13415196067e-06
-6.13415116476e-06
-6.13415118838e-06
-6.13415194483e-06
-6.13415329038e-06
-6.13415503265e-06
-6.1341570371e-06
-6.1341593713e-06
-6.13417066921e-06
-6.13416812027e-06
-6.1341649718e-06
-6.13416154088e-06
-6.13415812129e-06
-6.13415508564e-06
-6.13415267118e-06
-6.13415108283e-06
-6.13415038071e-06
-6.13415056592e-06
-6.13415153302e-06
-6.13415314851e-06
-6.13415521569e-06
-6.13415759119e-06
-6.13416040531e-06
-6.13417096597e-06
-6.13416788108e-06
-6.13416428998e-06
-6.13416050701e-06
-6.13415687841e-06
-6.13415369439e-06
-6.13415126715e-06
-6.1341496925e-06
-6.13414910695e-06
-6.13414944449e-06
-6.13415065352e-06
-6.13415258418e-06
-6.13415504901e-06
-6.13415789665e-06
-6.13416124714e-06
-6.13417129691e-06
-6.13416761217e-06
-6.13416347535e-06
-6.13415928761e-06
-6.13415537393e-06
-6.13415208542e-06
-6.13414957628e-06
-6.13414805929e-06
-6.13414754658e-06
-6.1341480611e-06
-6.13414950994e-06
-6.13415178493e-06
-6.13415471075e-06
-6.13415811391e-06
-6.13416210168e-06
-6.13416969939e-06
-6.13416594302e-06
-6.13416163652e-06
-6.13415741224e-06
-6.13415357441e-06
-6.13415035715e-06
-6.13414797174e-06
-6.13414650811e-06
-6.13414604593e-06
-6.13414655802e-06
-6.13414800297e-06
-6.13415028815e-06
-6.13415328461e-06
-6.13415683065e-06
-6.13416076647e-06
-5.75661998811e-06
-5.75661853894e-06
-5.756619219e-06
-5.7566222797e-06
-5.75662622985e-06
-5.75663033058e-06
-5.75663418658e-06
-5.75663740173e-06
-5.75663976822e-06
-5.75664127022e-06
-5.75664198519e-06
-5.7566420516e-06
-5.75664166711e-06
-5.75664111226e-06
-5.75664059539e-06
-5.7566228158e-06
-5.75662156843e-06
-5.75662246856e-06
-5.75662550133e-06
-5.75662936867e-06
-5.75663338866e-06
-5.75663716119e-06
-5.75664030303e-06
-5.75664260661e-06
-5.7566440481e-06
-5.75664469968e-06
-5.75664469918e-06
-5.75664424743e-06
-5.7566436259e-06
-5.75664310309e-06
-5.75662069543e-06
-5.75661915646e-06
-5.75661982776e-06
-5.75662250836e-06
-5.75662609945e-06
-5.75662991194e-06
-5.75663352078e-06
-5.75663656356e-06
-5.75663884715e-06
-5.75664034832e-06
-5.75664113308e-06
-5.75664133147e-06
-5.75664113698e-06
-5.75664082102e-06
-5.7566406467e-06
-5.75661795988e-06
-5.75661620404e-06
-5.75661661542e-06
-5.75661896777e-06
-5.75662226921e-06
-5.75662584906e-06
-5.75662926514e-06
-5.75663218585e-06
-5.75663443396e-06
-5.75663598571e-06
-5.75663689979e-06
-5.75663729749e-06
-5.75663736107e-06
-5.75663734122e-06
-5.75663748002e-06
-5.75661568446e-06
-5.75661386122e-06
-5.75661407047e-06
-5.75661612758e-06
-5.75661913405e-06
-5.75662245855e-06
-5.75662566673e-06
-5.7566284483e-06
-5.7566306404e-06
-5.75663221612e-06
-5.75663322723e-06
-5.75663378383e-06
-5.75663405433e-06
-5.75663426242e-06
-5.7566346317e-06
-5.75661373281e-06
-5.7566118358e-06
-5.75661192255e-06
-5.75661372045e-06
-5.75661643775e-06
-5.75661949635e-06
-5.75662247834e-06
-5.7566251037e-06
-5.75662722018e-06
-5.75662879956e-06
-5.75662988378e-06
-5.75663057143e-06
-5.7566310143e-06
-5.75663140563e-06
-5.75663195588e-06
-5.75661191796e-06
-5.75661003372e-06
-5.7566100316e-06
-5.75661157211e-06
-5.75661399534e-06
-5.75661677303e-06
-5.75661951693e-06
-5.75662197315e-06
-5.75662399889e-06
-5.75662556389e-06
-5.75662670113e-06
-5.75662749586e-06
-5.75662808202e-06
-5.75662862346e-06
-5.75662931651e-06
-5.75661018409e-06
-5.75660834517e-06
-5.75660826466e-06
-5.75660958388e-06
-5.75661173275e-06
-5.75661423373e-06
-5.75661673652e-06
-5.75661901532e-06
-5.75662093778e-06
-5.7566224717e-06
-5.75662364121e-06
-5.75662451823e-06
-5.75662521896e-06
-5.75662587856e-06
-5.75662668447e-06
-5.75660849839e-06
-5.75660673887e-06
-5.75660659436e-06
-5.75660771746e-06
-5.75660960608e-06
-5.75661183845e-06
-5.75661410595e-06
-5.7566162047e-06
-5.75661801539e-06
-5.75661950265e-06
-5.75662068317e-06
-5.75662161675e-06
-5.7566224016e-06
-5.75662314982e-06
-5.75662403752e-06
-5.75660684143e-06
-5.75660513298e-06
-5.75660494576e-06
-5.75660590544e-06
-5.75660756458e-06
-5.75660955336e-06
-5.75661159554e-06
-5.75661351882e-06
-5.75661520949e-06
-5.75661663598e-06
-5.75661780581e-06
-5.75661876849e-06
-5.75661960706e-06
-5.75662041316e-06
-5.75662135982e-06
-5.75660513593e-06
-5.75660349153e-06
-5.75660328351e-06
-5.756604109e-06
-5.75660557559e-06
-5.75660734359e-06
-5.75660918261e-06
-5.75661093297e-06
-5.75661250209e-06
-5.75661385118e-06
-5.75661498826e-06
-5.75661595156e-06
-5.7566168106e-06
-5.75661764502e-06
-5.75661862292e-06
-5.75660333369e-06
-5.75660176409e-06
-5.75660155445e-06
-5.75660229464e-06
-5.75660360262e-06
-5.75660519577e-06
-5.75660684646e-06
-5.75660844041e-06
-5.75660987648e-06
-5.75661113822e-06
-5.75661221748e-06
-5.75661314987e-06
-5.75661399324e-06
-5.75661481716e-06
-5.75661579982e-06
-5.75660128398e-06
-5.75659984377e-06
-5.75659970638e-06
-5.75660041415e-06
-5.75660164768e-06
-5.75660309051e-06
-5.75660460234e-06
-5.75660603351e-06
-5.75660734811e-06
-5.75660849487e-06
-5.75660948668e-06
-5.7566103467e-06
-5.75661112057e-06
-5.75661187257e-06
-5.75661279977e-06
-5.75659886748e-06
-5.75659766908e-06
-5.75659769761e-06
-5.75659849101e-06
-5.75659967463e-06
-5.75660105694e-06
-5.75660243207e-06
-5.75660374357e-06
-5.75660490972e-06
-5.75660592712e-06
-5.7566067952e-06
-5.75660753574e-06
-5.75660817873e-06
-5.75660877533e-06
-5.7566095528e-06
-5.75659716038e-06
-5.75659614677e-06
-5.75659625047e-06
-5.75659691192e-06
-5.75659795527e-06
-5.75659913991e-06
-5.75660035316e-06
-5.75660150245e-06
-5.75660255929e-06
-5.75660351049e-06
-5.75660436018e-06
-5.75660513522e-06
-5.75660584118e-06
-5.75660647286e-06
-5.75660729278e-06
-5.41092402716e-06
-5.41092307562e-06
-5.41092246864e-06
-5.41092164241e-06
-5.41092076143e-06
-5.41091986805e-06
-5.41091907786e-06
-5.41091849606e-06
-5.41091819796e-06
-5.41091818849e-06
-5.41091845251e-06
-5.41091896411e-06
-5.41091969485e-06
-5.41092061347e-06
-5.41092173425e-06
-5.41092266762e-06
-5.41092178453e-06
-5.41092112611e-06
-5.41092032958e-06
-5.41091945448e-06
-5.41091855574e-06
-5.4109177592e-06
-5.41091717404e-06
-5.41091687859e-06
-5.41091687903e-06
-5.41091716154e-06
-5.41091770143e-06
-5.41091846824e-06
-5.41091942877e-06
-5.41092055893e-06
-5.4109240358e-06
-5.41092338432e-06
-5.41092276875e-06
-5.41092206721e-06
-5.41092126901e-06
-5.41092045922e-06
-5.41091973871e-06
-5.41091920085e-06
-5.41091890921e-06
-5.41091887278e-06
-5.41091908143e-06
-5.41091951791e-06
-5.41092015634e-06
-5.41092096863e-06
-5.41092192481e-06
-5.41092581446e-06
-5.41092528664e-06
-5.41092476031e-06
-5.41092415948e-06
-5.41092346831e-06
-5.41092276089e-06
-5.41092212057e-06
-5.41092163015e-06
-5.41092134273e-06
-5.41092126797e-06
-5.41092140048e-06
-5.41092172844e-06
-5.41092223239e-06
-5.41092289174e-06
-5.41092367863e-06
-5.41092743253e-06
-5.41092700479e-06
-5.41092654837e-06
-5.41092600245e-06
-5.41092538853e-06
-5.41092476114e-06
-5.41092419447e-06
-5.41092375017e-06
-5.41092347388e-06
-5.41092337261e-06
-5.4109234453e-06
-5.41092368559e-06
-5.41092408023e-06
-5.41092461752e-06
-5.41092526974e-06
-5.41092890438e-06
-5.4109285727e-06
-5.41092813844e-06
-5.4109276623e-06
-5.41092712886e-06
-5.41092658211e-06
-5.41092608061e-06
-5.41092567817e-06
-5.41092541186e-06
-5.41092528944e-06
-5.41092531154e-06
-5.41092547713e-06
-5.41092577891e-06
-5.41092621418e-06
-5.41092675773e-06
-5.41093035165e-06
-5.41093009789e-06
-5.41092967675e-06
-5.41092924087e-06
-5.41092875976e-06
-5.41092827555e-06
-5.41092783155e-06
-5.41092747061e-06
-5.41092721889e-06
-5.41092708299e-06
-5.41092706551e-06
-5.41092716902e-06
-5.41092739269e-06
-5.41092774163e-06
-5.41092819345e-06
-5.41093178778e-06
-5.41093155175e-06
-5.41093114666e-06
-5.41093074262e-06
-5.41093031191e-06
-5.41092988434e-06
-5.41092949178e-06
-5.41092916686e-06
-5.41092892951e-06
-5.41092878424e-06
-5.41092873507e-06
-5.41092878761e-06
-5.41092894561e-06
-5.41092922139e-06
-5.41092959825e-06
-5.41093318165e-06
-5.41093299116e-06
-5.41093259706e-06
-5.4109322082e-06
-5.41093180736e-06
-5.4109314173e-06
-5.41093106576e-06
-5.41093077115e-06
-5.41093054857e-06
-5.4109303995e-06
-5.41093032768e-06
-5.41093034097e-06
-5.41093044649e-06
-5.41093066106e-06
-5.41093097332e-06
-5.41093456892e-06
-5.41093440751e-06
-5.41093401796e-06
-5.41093363824e-06
-5.41093325615e-06
-5.41093289911e-06
-5.41093257705e-06
-5.41093230903e-06
-5.41093209973e-06
-5.410931951e-06
-5.41093186514e-06
-5.41093185033e-06
-5.41093191523e-06
-5.41093207943e-06
-5.4109323381e-06
-5.41093592972e-06
-5.4109358196e-06
-5.41093544682e-06
-5.410935067e-06
-5.41093469835e-06
-5.41093435291e-06
-5.41093405203e-06
-5.4109338002e-06
-5.41093360418e-06
-5.4109334591e-06
-5.41093336834e-06
-5.41093333748e-06
-5.41093337499e-06
-5.41093349897e-06
-5.41093370613e-06
-5.41093731647e-06
-5.41093725979e-06
-5.41093689739e-06
-5.41093651794e-06
-5.41093613622e-06
-5.41093580768e-06
-5.41093550587e-06
-5.41093527157e-06
-5.41093508111e-06
-5.41093494846e-06
-5.41093486213e-06
-5.41093482925e-06
-5.4109348554e-06
-5.41093495236e-06
-5.41093511394e-06
-5.41093876605e-06
-5.41093877029e-06
-5.41093841853e-06
-5.41093800391e-06
-5.41093763445e-06
-5.4109372629e-06
-5.41093698346e-06
-5.41093673319e-06
-5.41093656717e-06
-5.41093644407e-06
-5.41093637877e-06
-5.41093636489e-06
-5.41093640566e-06
-5.41093650135e-06
-5.41093661964e-06
-5.41094033806e-06
-5.4109404338e-06
-5.41094004248e-06
-5.41093961474e-06
-5.41093916706e-06
-5.41093880956e-06
-5.4109384771e-06
-5.41093824818e-06
-5.41093807737e-06
-5.41093798556e-06
-5.41093795553e-06
-5.41093798755e-06
-5.41093807856e-06
-5.41093821431e-06
-5.41093830528e-06
-5.41094173609e-06
-5.41094186324e-06
-5.41094155457e-06
-5.41094115171e-06
-5.41094076316e-06
-5.4109403887e-06
-5.41094008485e-06
-5.41093983873e-06
-5.41093967205e-06
-5.41093957136e-06
-5.41093953142e-06
-5.41093954838e-06
-5.41093961457e-06
-5.41093971626e-06
-5.41093974599e-06
-5.05088800323e-06
-5.05088627092e-06
-5.05088526579e-06
-5.05088542185e-06
-5.05088632385e-06
-5.05088758363e-06
-5.05088892634e-06
-5.05089026763e-06
-5.05089158952e-06
-5.0508928931e-06
-5.0508941804e-06
-5.0508954421e-06
-5.05089667536e-06
-5.05089787103e-06
-5.05089906136e-06
-5.05088843963e-06
-5.0508867897e-06
-5.05088586502e-06
-5.05088597564e-06
-5.05088680869e-06
-5.05088800722e-06
-5.05088930708e-06
-5.05089061783e-06
-5.0508919159e-06
-5.05089320061e-06
-5.05089446923e-06
-5.05089571186e-06
-5.05089692204e-06
-5.05089809134e-06
-5.05089925846e-06
-5.05088838967e-06
-5.05088671579e-06
-5.0508858426e-06
-5.05088591468e-06
-5.05088668257e-06
-5.05088780654e-06
-5.05088904975e-06
-5.05089032318e-06
-5.05089160228e-06
-5.05089288153e-06
-5.05089415507e-06
-5.05089540865e-06
-5.0508966323e-06
-5.050897812e-06
-5.05089898657e-06
-5.05088820271e-06
-5.05088654185e-06
-5.05088566598e-06
-5.05088569026e-06
-5.05088637009e-06
-5.05088740354e-06
-5.05088857958e-06
-5.0508898098e-06
-5.05089106759e-06
-5.05089234275e-06
-5.05089362557e-06
-5.05089489856e-06
-5.05089614729e-06
-5.05089735259e-06
-5.05089855357e-06
-5.05088804925e-06
-5.05088642132e-06
-5.05088551918e-06
-5.050885487e-06
-5.05088606802e-06
-5.05088700387e-06
-5.05088810322e-06
-5.0508892832e-06
-5.05089051279e-06
-5.05089177836e-06
-5.05089306539e-06
-5.05089435309e-06
-5.05089562302e-06
-5.05089684949e-06
-5.05089806782e-06
-5.05088797381e-06
-5.05088634524e-06
-5.05088544809e-06
-5.05088534959e-06
-5.05088582621e-06
-5.05088665813e-06
-5.05088767701e-06
-5.0508888018e-06
-5.05088999845e-06
-5.05089124843e-06
-5.05089253276e-06
-5.05089382769e-06
-5.05089511129e-06
-5.05089635263e-06
-5.05089757812e-06
-5.05088794406e-06
-5.0508863528e-06
-5.05088545858e-06
-5.05088528906e-06
-5.05088566491e-06
-5.05088639353e-06
-5.05088732869e-06
-5.05088839249e-06
-5.05088954968e-06
-5.05089077607e-06
-5.0508920493e-06
-5.05089334272e-06
-5.05089463065e-06
-5.05089587696e-06
-5.05089710127e-06
-5.05088794587e-06
-5.05088641759e-06
-5.0508855256e-06
-5.0508852959e-06
-5.05088557624e-06
-5.05088620473e-06
-5.05088705558e-06
-5.05088805608e-06
-5.05088916862e-06
-5.05089036449e-06
-5.05089161804e-06
-5.05089290024e-06
-5.05089418278e-06
-5.05089542554e-06
-5.05089663599e-06
-5.05088798392e-06
-5.05088652806e-06
-5.05088563901e-06
-5.05088535818e-06
-5.05088555501e-06
-5.05088609448e-06
-5.05088686534e-06
-5.05088780296e-06
-5.05088886617e-06
-5.05089002478e-06
-5.05089124968e-06
-5.05089251095e-06
-5.05089377777e-06
-5.05089500635e-06
-5.05089619371e-06
-5.0508880473e-06
-5.0508866593e-06
-5.05088578754e-06
-5.0508854692e-06
-5.05088559914e-06
-5.05088605905e-06
-5.05088675803e-06
-5.05088763272e-06
-5.05088864432e-06
-5.05088975874e-06
-5.05089094576e-06
-5.05089217546e-06
-5.05089341579e-06
-5.05089461963e-06
-5.05089577034e-06
-5.05088811183e-06
-5.05088680063e-06
-5.05088595049e-06
-5.05088560874e-06
-5.05088568714e-06
-5.0508860876e-06
-5.05088672389e-06
-5.05088754168e-06
-5.05088849959e-06
-5.05088956354e-06
-5.050890704e-06
-5.05089189173e-06
-5.05089309408e-06
-5.05089426252e-06
-5.05089536686e-06
-5.05088815495e-06
-5.05088692092e-06
-5.05088610406e-06
-5.05088575818e-06
-5.05088581179e-06
-5.05088616445e-06
-5.05088675671e-06
-5.05088752017e-06
-5.05088842588e-06
-5.05088943369e-06
-5.050890517e-06
-5.05089165143e-06
-5.05089280387e-06
-5.05089392286e-06
-5.05089496907e-06
-5.05088813451e-06
-5.05088697649e-06
-5.05088621651e-06
-5.05088589865e-06
-5.0508859439e-06
-5.05088629075e-06
-5.05088683836e-06
-5.05088756584e-06
-5.05088841292e-06
-5.05088935955e-06
-5.05089037598e-06
-5.05089144292e-06
-5.0508925281e-06
-5.05089358148e-06
-5.05089456479e-06
-5.05088794369e-06
-5.05088688846e-06
-5.05088624894e-06
-5.05088600418e-06
-5.05088609694e-06
-5.05088643433e-06
-5.05088698156e-06