/*--------------------------------*- C++ -*----------------------------------*\
  =========                 |
  \\      /  F ield         | OpenFOAM: The Open Source CFD Toolbox
   \\    /   O peration     | Website:  https://openfoam.org
    \\  /    A nd           | Version:  7
     \\/     M anipulation  |
\*---------------------------------------------------------------------------*/
FoamFile
{
    version     2.0;
    format      ascii;
    class       volVectorField;
    location    "1.14";
    object      U;
}
// * * * * * * * * * * * * * * * * * * * * * * * * * * * * * * * * * * * * * //

dimensions      [0 1 -1 0 0 0 0];

internalField   nonuniform List<vector> 
22500
(
(-6.42286639273e-06 -7.16176086172e-06 -3.82996383993e-05)
(-6.03202159429e-06 -8.08610559748e-06 -4.03040513347e-05)
(-5.36621112116e-06 -9.02593346331e-06 -4.22124901836e-05)
(-4.56072560215e-06 -9.85553263349e-06 -4.39324822416e-05)
(-3.57622175324e-06 -1.05567178467e-05 -4.53715635068e-05)
(-2.46122620252e-06 -1.10860429385e-05 -4.64538122121e-05)
(-1.25102984357e-06 -1.14154237915e-05 -4.71253073496e-05)
(8.67448633621e-09 -1.15268564479e-05 -4.73530614458e-05)
(1.26816352889e-06 -1.14137298987e-05 -4.71204697775e-05)
(2.47773742633e-06 -1.10827375834e-05 -4.64441537668e-05)
(3.59174382451e-06 -1.05519675925e-05 -4.53571087569e-05)
(4.57497917904e-06 -9.84957562999e-06 -4.39132392073e-05)
(5.37886104264e-06 -9.01909462052e-06 -4.21883779844e-05)
(6.04328992801e-06 -8.07851652422e-06 -4.0274658857e-05)
(6.43155817075e-06 -7.1543617273e-06 -3.82639138947e-05)
(-1.88819645041e-05 -2.1028095451e-05 -0.000122570376452)
(-1.7681823597e-05 -2.37071100439e-05 -0.000129222859954)
(-1.57546376065e-05 -2.64160172632e-05 -0.000135574571339)
(-1.33778091207e-05 -2.8820515419e-05 -0.00014130307675)
(-1.04952312925e-05 -3.08516550617e-05 -0.000146100405022)
(-7.22392870527e-06 -3.23860232295e-05 -0.000149712432871)
(-3.67198950685e-06 -3.33415951372e-05 -0.000151954897143)
(2.61672434631e-08 -3.3664765457e-05 -0.000152713958432)
(3.72366771316e-06 -3.33364809459e-05 -0.000151940074531)
(7.27369253884e-06 -3.23760836668e-05 -0.00014968284773)
(1.0541926217e-05 -3.08374570452e-05 -0.000146056142925)
(1.34204891485e-05 -2.88028259389e-05 -0.000141244168192)
(1.57923555531e-05 -2.6395887014e-05 -0.000135500778364)
(1.77146172045e-05 -2.36851250647e-05 -0.000129132992288)
(1.89070339195e-05 -2.1006462192e-05 -0.000122461977608)
(-2.96563535046e-05 -3.29229504324e-05 -0.000211321825296)
(-2.76427910943e-05 -3.70098204524e-05 -0.000222859816259)
(-2.45981141487e-05 -4.1105559861e-05 -0.000233866487562)
(-2.08455392974e-05 -4.47393768092e-05 -0.000243780109463)
(-1.63357960833e-05 -4.77995567996e-05 -0.000252074444607)
(-1.12342311805e-05 -5.01077933871e-05 -0.000258315910606)
(-5.70727248708e-06 -5.15438940655e-05 -0.000262188674093)
(4.12027151532e-08 -5.20292435399e-05 -0.000263497619254)
(5.78870501462e-06 -5.15359770682e-05 -0.00026216357736)
(1.13128209322e-05 -5.00923850845e-05 -0.000258265842706)
(1.64098185504e-05 -4.77774920589e-05 -0.000251999598226)
(2.09135480518e-05 -4.47118276096e-05 -0.000243680629584)
(2.46586730139e-05 -4.1074091577e-05 -0.00023374215849)
(2.76955697591e-05 -3.69754428587e-05 -0.000222708986169)
(2.96973113679e-05 -3.28886724817e-05 -0.000211141028871)
(-3.88862046333e-05 -4.30451685675e-05 -0.000302106575528)
(-3.60907306711e-05 -4.82204121098e-05 -0.000318408688232)
(-3.20539965359e-05 -5.33666615962e-05 -0.000333914647643)
(-2.71030434203e-05 -5.7923207257e-05 -0.000347846469307)
(-2.12084685612e-05 -6.17482609715e-05 -0.000359480005569)
(-1.45690195667e-05 -6.46275994584e-05 -0.000368221700266)
(-7.3960657972e-06 -6.64165938924e-05 -0.000373639817153)
(5.4515790071e-08 -6.70206487666e-05 -0.000375468601205)
(7.50387395732e-06 -6.64063952974e-05 -0.000373604887122)
(1.46732441198e-05 -6.46077390743e-05 -0.000368152019258)
(2.13069105907e-05 -6.17197873331e-05 -0.000359375848364)
(2.71938130574e-05 -5.78876021439e-05 -0.000347708083733)
(3.21352356275e-05 -5.33258959343e-05 -0.000333741896992)
(3.61616851298e-05 -4.81757971279e-05 -0.000318199641181)
(3.89420630224e-05 -4.30002306323e-05 -0.000301857004388)
(-4.66734127807e-05 -5.15445286884e-05 -0.000392678488604)
(-4.31480148985e-05 -5.75118240708e-05 -0.000413329263376)
(-3.82343843648e-05 -6.34023660668e-05 -0.000432886024748)
(-3.22510065747e-05 -6.86042565851e-05 -0.000450400782127)
(-2.51943855136e-05 -7.29560366133e-05 -0.000464988022557)
(-1.72853635699e-05 -7.62245039942e-05 -0.000475927485853)
(-8.76787689505e-06 -7.82520949138e-05 -0.000482697821796)
(6.60239150593e-08 -7.89359988374e-05 -0.00048497992733)
(8.8985106885e-06 -7.82401139028e-05 -0.000482653671872)
(1.74118455297e-05 -7.62011573944e-05 -0.000475839411022)
(2.5314138879e-05 -7.29225244236e-05 -0.000464856366428)
(3.23617698046e-05 -6.85622817449e-05 -0.000450225906098)
(3.83339616064e-05 -6.33541926702e-05 -0.000432667951392)
(4.32352717554e-05 -5.74589631535e-05 -0.000413065913784)
(4.67431135802e-05 -5.14908297694e-05 -0.000392364977129)
(-5.30667721709e-05 -5.84908288004e-05 -0.000481112541869)
(-4.88755345137e-05 -6.49669650948e-05 -0.000505488153995)
(-4.31988360305e-05 -7.13150002758e-05 -0.000528450266509)
(-3.63456309294e-05 -7.69039383396e-05 -0.000548938939092)
(-2.83404427755e-05 -8.15620072527e-05 -0.000565951658542)
(-1.94170024686e-05 -8.50520415434e-05 -0.000578680540496)
(-9.84031126664e-06 -8.72133670926e-05 -0.000586545003598)
(7.58171845941e-08 -8.79415632716e-05 -0.000589192194856)
(9.99039770484e-06 -8.72000873283e-05 -0.000586492298652)
(1.95625330839e-05 -8.50261422963e-05 -0.000578575404601)
(2.8478561201e-05 -8.15247744202e-05 -0.000565794514632)
(3.64737856658e-05 -7.68572065563e-05 -0.000548730306041)
(4.33145830075e-05 -7.12612069418e-05 -0.000528190429744)
(4.89774281848e-05 -6.49077355036e-05 -0.000505174970346)
(5.31493372849e-05 -5.84301771987e-05 -0.000480740434239)
(-5.81266553966e-05 -6.39564150629e-05 -0.000565871630891)
(-5.33406602198e-05 -7.06765842187e-05 -0.000593228331751)
(-4.70146825043e-05 -7.72190513271e-05 -0.000618848735198)
(-3.94503952113e-05 -8.29593441375e-05 -0.000641620325595)
(-3.07000911389e-05 -8.77242164124e-05 -0.000660467921643)
(-2.10025805849e-05 -9.12851100687e-05 -0.000674534343693)
(-1.06335344164e-05 -9.34862986123e-05 -0.000683209315258)
(8.41271676271e-08 -9.42270392296e-05 -0.00068612503825)
(1.08001550684e-05 -9.34721567891e-05 -0.000683148686768)
(2.11643830018e-05 -9.12575004151e-05 -0.000674413423555)
(3.0854027701e-05 -8.76844492471e-05 -0.00066028724688)
(3.95937037851e-05 -8.29093049587e-05 -0.000641380647381)
(4.71447511357e-05 -7.71612451238e-05 -0.000618550722164)
(5.34557950462e-05 -7.06126813841e-05 -0.000592869812019)
(5.822125317e-05 -6.38904683136e-05 -0.000565446289907)
(-6.1932849569e-05 -6.80312746879e-05 -0.000645816142421)
(-5.66261883832e-05 -7.47545810633e-05 -0.000675368385519)
(-4.97631605665e-05 -8.12560728027e-05 -0.000702879327575)
(-4.16404165722e-05 -8.69379462682e-05 -0.000727236071757)
(-3.23360550863e-05 -9.16338461955e-05 -0.000747329146508)
(-2.20871864746e-05 -9.51337546457e-05 -0.00076228564956)
(-1.11709895289e-05 -9.7293137329e-05 -0.000771491700903)
(9.12474952958e-08 -9.80188812023e-05 -0.000774581092039)
(1.13518044463e-05 -9.72785165212e-05 -0.000771423690569)
(2.22630368651e-05 -9.51051716912e-05 -0.000762150049377)
(3.25037763102e-05 -9.15925824458e-05 -0.000747126659097)
(4.17971041503e-05 -8.68858661985e-05 -0.000726967776287)
(4.99061017766e-05 -8.11956610103e-05 -0.000702546402831)
(5.67534808485e-05 -7.46874912086e-05 -0.000674968617249)
(6.20388261222e-05 -6.79615026151e-05 -0.000645342479265)
(-6.45759448478e-05 -7.08154362536e-05 -0.00072017646067)
(-5.88227962279e-05 -7.73272520216e-05 -0.000751159081134)
(-5.15317164966e-05 -8.35806753657e-05 -0.000779833334597)
(-4.29953967817e-05 -8.90208342034e-05 -0.000805124402445)
(-3.33143450566e-05 -9.34961098588e-05 -0.000825917538853)
(-2.27179913093e-05 -9.68222695614e-05 -0.000841351818408)
(-1.14771232983e-05 -9.88704429311e-05 -0.000850832142712)
(9.74738222269e-08 -9.955786046e-05 -0.000854008137636)
(1.1670376382e-05 -9.88556761637e-05 -0.000850757175193)
(2.29062274808e-05 -9.67933536641e-05 -0.000841202407713)
(3.34943432543e-05 -9.34542498301e-05 -0.00082569460763)
(4.31641656397e-05 -8.89678105303e-05 -0.000804829459044)
(5.16864896664e-05 -8.35188764695e-05 -0.000779468189769)
(5.89614840176e-05 -7.72582625347e-05 -0.000750721407257)
(6.46928470775e-05 -7.07431177659e-05 -0.000719658535138)
(-6.61519685394e-05 -7.24145829346e-05 -0.000788504918328)
(-6.00244785911e-05 -7.85266745442e-05 -0.000820219641175)
(-5.24097757426e-05 -8.43517279605e-05 -0.000849413063418)
(-4.35959696419e-05 -8.93923904928e-05 -0.000875067510998)
(-3.37012093272e-05 -9.35188036329e-05 -0.000896082109557)
(-2.29420201548e-05 -9.65769143212e-05 -0.000911631620189)
(-1.15762194967e-05 -9.84562554265e-05 -0.000921160122603)
(1.03066033401e-07 -9.90860460825e-05 -0.000924346032759)
(1.17806688296e-05 -9.84416382733e-05 -0.000921078504323)
(2.31414779534e-05 -9.65482340016e-05 -0.000911469020808)
(3.38924471744e-05 -9.34771457262e-05 -0.000895839710078)
(4.37759533979e-05 -8.93393932243e-05 -0.000874747336713)
(5.25757148748e-05 -8.42896163591e-05 -0.000849017666195)
(6.01741024488e-05 -7.84569091952e-05 -0.00081974644106)
(6.62795554456e-05 -7.23408306697e-05 -0.000787945613884)
(-6.67594380912e-05 -7.29389949684e-05 -0.000850620390651)
(-6.03260258544e-05 -7.84867933019e-05 -0.000882472076841)
(-5.24869020511e-05 -8.37267232935e-05 -0.000911652389737)
(-4.35223107359e-05 -8.82340797175e-05 -0.000937194302899)
(-3.3561908449e-05 -9.19057631999e-05 -0.000958023977946)
(-2.28051794278e-05 -9.46190215238e-05 -0.000973376881778)
(-1.14918655295e-05 -9.62829271244e-05 -0.000982757827802)
(1.08227357082e-07 -9.68395355271e-05 -0.000985887094057)
(1.17066716464e-05 -9.62687335787e-05 -0.000982669770756)
(2.30150857609e-05 -9.45911043274e-05 -0.000973201501223)
(3.37637211695e-05 -9.18650498575e-05 -0.000957762709177)
(4.37129874053e-05 -8.81820087497e-05 -0.000936849738154)
(5.26636439093e-05 -8.36652918962e-05 -0.000911227926466)
(6.04863814649e-05 -7.84172781631e-05 -0.000881964696218)
(6.68976786987e-05 -7.28648185965e-05 -0.000850021195799)
(-6.64952638378e-05 -7.2500889861e-05 -0.000906555119429)
(-5.98210710657e-05 -7.73370025153e-05 -0.00093808978975)
(-5.18526247444e-05 -8.18555874823e-05 -0.000966857413452)
(-4.28540903681e-05 -8.57193873973e-05 -0.000991904179614)
(-3.29602964756e-05 -8.88521984922e-05 -0.00101220399054)
(-2.23517454656e-05 -9.11602081946e-05 -0.00102708865731)
(-1.12466381327e-05 -9.25721367845e-05 -0.00103614983308)
(1.13094276506e-07 -9.30433938654e-05 -0.00103916371259)
(1.14712313808e-05 -9.25586323763e-05 -0.00103605550851)
(2.25715871876e-05 -9.11335703597e-05 -0.00102690077779)
(3.31722633552e-05 -8.88131615701e-05 -0.00101192415962)
(4.30551610638e-05 -8.56691335076e-05 -0.00099153552318)
(5.20399974577e-05 -8.17958171631e-05 -0.000966404305327)
(5.99921116602e-05 -7.7268748187e-05 -0.000937548703825)
(6.66442792982e-05 -7.24272924635e-05 -0.000905916244729)
(-6.54493352888e-05 -7.11974769342e-05 -0.000956510045181)
(-5.86063999056e-05 -7.51896382464e-05 -0.000987481202979)
(-5.06011254757e-05 -7.88760436356e-05 -0.00101558145085)
(-4.16722563513e-05 -8.2012459416e-05 -0.00103981778826)
(-3.19589316062e-05 -8.45440582693e-05 -0.00105927567853)
(-2.162408829e-05 -8.64015921661e-05 -0.00107344055565)
(-1.08619242292e-05 -8.75339899578e-05 -0.00108202200311)
(1.17734589872e-07 -8.7910718626e-05 -0.00108486600836)
(1.10958642894e-05 -8.75214355825e-05 -0.00108192164193)
(2.18534675718e-05 -8.63767460728e-05 -0.00107324051531)
(3.21807282705e-05 -8.4507438675e-05 -0.00105897750341)
(4.18834947904e-05 -8.19649382092e-05 -0.00103942490733)
(5.07990004501e-05 -7.88189473654e-05 -0.00101509935715)
(5.87880876814e-05 -7.51236716561e-05 -0.000986906418217)
(6.56091755442e-05 -7.11255939209e-05 -0.000955831776218)
(-6.373680607e-05 -6.9098636961e-05 -0.00100082285174)
(-5.68145182488e-05 -7.21601632629e-05 -0.00103135303024)
(-4.88418513845e-05 -7.49220375069e-05 -0.00105864040701)
(-4.00587986536e-05 -7.7275551837e-05 -0.00108174508378)
(-3.0617384316e-05 -7.91609405999e-05 -0.00110003460517)
(-2.06616307324e-05 -8.05341666386e-05 -0.00111322300065)
(-1.03575472316e-05 -8.13663988074e-05 -0.00112116496843)
(1.22150918281e-07 -8.16417927047e-05 -0.00112378534863)
(1.06003931882e-05 -8.1355035789e-05 -0.00112105904472)
(2.09001271737e-05 -8.05115949313e-05 -0.00111301155632)
(3.08486299768e-05 -7.9127459205e-05 -0.00109971869871)
(4.02798850115e-05 -7.72316865606e-05 -0.00108132776695)
(4.9049980368e-05 -7.48686520376e-05 -0.0010581280552)
(5.70066885011e-05 -7.20975437789e-05 -0.0010307439731)
(6.39076953275e-05 -6.90293225049e-05 -0.00100010760974)
(-6.15764857283e-05 -6.66364037546e-05 -0.00103998793193)
(-5.46431044876e-05 -6.82935931333e-05 -0.00107095417748)
(-4.66757703677e-05 -7.00985748679e-05 -0.0010970776457)
(-3.80929618221e-05 -7.16127392424e-05 -0.00111859796991)
(-2.89975498997e-05 -7.28047681993e-05 -0.0011353423504)
(-1.95085593816e-05 -7.36604516968e-05 -0.00114728759512)
(-9.75677839524e-06 -7.41737780181e-05 -0.00115443292927)
(1.26288976971e-07 -7.43419544077e-05 -0.00115677826706)
(1.00079770703e-05 -7.41639159642e-05 -0.00115432258745)
(1.97556289205e-05 -7.36407848738e-05 -0.0011470668555)
(2.92377169997e-05 -7.27753994568e-05 -0.00113501130316)
(3.83234008779e-05 -7.15738672069e-05 -0.00111815807586)
(4.68937026306e-05 -7.00506251371e-05 -0.00109653500546)
(5.48449779544e-05 -6.82360762198e-05 -0.00107030466853)
(6.17589319797e-05 -6.65715919577e-05 -0.00103925158519)
(3.40124542834e-08 3.50929784336e-08 -5.53168756684e-05)
(3.98178390321e-08 3.88064646171e-08 -5.81547025712e-05)
(4.34335358184e-08 4.45124243466e-08 -6.07889526576e-05)
(4.39528009095e-08 5.19461715452e-08 -6.3101835721e-05)
(3.86509450504e-08 6.04377634508e-08 -6.49990363948e-05)
(2.83772529199e-08 6.8067535723e-08 -6.64062591812e-05)
(1.42526083216e-08 7.32839540684e-08 -6.72722203637e-05)
(-1.89063971775e-09 7.50083840929e-08 -6.75658931271e-05)
(-1.79563889309e-08 7.28396663218e-08 -6.72706813248e-05)
(-3.18526640383e-08 6.71853340232e-08 -6.64031855652e-05)
(-4.17975319843e-08 5.91282452888e-08 -6.4994422948e-05)
(-4.67731017015e-08 5.02494117823e-08 -6.30956255371e-05)
(-4.59825472266e-08 4.24969059669e-08 -6.07809550947e-05)
(-4.22164714447e-08 3.65612333078e-08 -5.81442606305e-05)
(-3.60563003287e-08 3.29708125676e-08 -5.53019703933e-05)
(3.32044433202e-07 3.56013266897e-07 -0.000159940483119)
(3.39540086248e-07 4.14143035133e-07 -0.00016773544961)
(3.30310987915e-07 4.79273584103e-07 -0.000174973873843)
(3.02970322554e-07 5.45709197658e-07 -0.000181329983251)
(2.51439166709e-07 6.08150278996e-07 -0.000186543401378)
(1.78743100935e-07 6.58933650889e-07 -0.000190410602504)
(8.99881431385e-08 6.91907249381e-07 -0.000192789797994)
(-7.26995674308e-09 7.02919962653e-07 -0.000193594671942)
(-1.04277024788e-07 6.90473901157e-07 -0.000192784906533)
(-1.92267382e-07 6.56154272707e-07 -0.000190400842575)
(-2.63712666693e-07 6.04203449599e-07 -0.000186528773419)
(-3.13650057944e-07 5.40870105416e-07 -0.000181310347828)
(-3.3923369131e-07 4.73941194348e-07 -0.000174948709969)
(-3.46804103617e-07 4.08669224372e-07 -0.000167702896644)
(-3.37455444417e-07 3.51071519973e-07 -0.000159895826751)
(7.82653160472e-07 8.5253398975e-07 -0.000257970128207)
(7.80003326463e-07 9.88322182436e-07 -0.000270052869227)
(7.41766435267e-07 1.13472936882e-06 -0.000281263512413)
(6.66351544381e-07 1.27845640434e-06 -0.000291105472479)
(5.45785448634e-07 1.40900110675e-06 -0.000299176348213)
(3.85706767878e-07 1.51295438886e-06 -0.000305162525294)
(1.95952348396e-07 1.57969712624e-06 -0.000308844303149)
(-9.5322605357e-09 1.60211126668e-06 -0.000310087920006)
(-2.14729877487e-07 1.57762431565e-06 -0.000308835876211)
(-4.03635229745e-07 1.5088667744e-06 -0.000305145726154)
(-5.62388530489e-07 1.40303093275e-06 -0.000299151210885)
(-6.81361608265e-07 1.27087718961e-06 -0.000291071834089)
(-7.55098963036e-07 1.12600472627e-06 -0.000281220653277)
(-7.91748260544e-07 9.7899727691e-07 -0.000269998104965)
(-7.92281083373e-07 8.43620545096e-07 -0.00025789680499)
(1.31083571995e-06 1.43399562846e-06 -0.000349617742952)
(1.28506823658e-06 1.6513576637e-06 -0.000365358157142)
(1.20445527631e-06 1.88132386745e-06 -0.000379940307277)
(1.06763011216e-06 2.10221659493e-06 -0.000392737097893)
(8.66224401583e-07 2.2990304723e-06 -0.000403228113308)
(6.08687967384e-07 2.45369531625e-06 -0.00041100797758)
(3.09363808205e-07 2.55220390788e-06 -0.000415791528777)
(-1.20691571082e-08 2.58528695456e-06 -0.000417405409725)
(-3.33192229821e-07 2.54962694407e-06 -0.00041577935687)
(-6.3161099598e-07 2.44860202502e-06 -0.000410983739268)
(-8.87750595397e-07 2.29156082779e-06 -0.00040319192213)
(-1.08747998632e-06 2.09266201001e-06 -0.000392688868451)
(-1.22251112562e-06 1.87019184541e-06 -0.000379879329392)
(-1.30133140806e-06 1.63927782124e-06 -0.000365281381425)
(-1.3245420737e-06 1.4221112464e-06 -0.000349517473285)
(1.84038937668e-06 2.01407135266e-06 -0.000435073160261)
(1.78060441431e-06 2.30066073816e-06 -0.000453875175311)
(1.65004469019e-06 2.59980893865e-06 -0.00047125896445)
(1.44745871183e-06 2.88264267215e-06 -0.000486506262907)
(1.1652861397e-06 3.13115521669e-06 -0.000499001928908)
(8.14578690023e-07 3.3244642566e-06 -0.000508266285762)
(4.13286497961e-07 3.44677066562e-06 -0.000513960826895)
(-1.46824330516e-08 3.48776183079e-06 -0.00051588020594)
(-4.42322511481e-07 3.443785962e-06 -0.000513944701761)
(-8.42655738473e-07 3.31856968243e-06 -0.000508234218106)
(-1.19187335093e-06 3.12252054116e-06 -0.000498954173889)
(-1.47221808689e-06 2.87159705827e-06 -0.000486442936073)
(-1.67277896228e-06 2.58690552969e-06 -0.000471179590461)
(-1.80122043647e-06 2.28656922188e-06 -0.000453776683417)
(-1.85800079449e-06 1.99998271889e-06 -0.000434947363654)
(2.32347795678e-06 2.53906966953e-06 -0.000514520215129)
(2.22179073044e-06 2.87510941156e-06 -0.000535820695629)
(2.03850537822e-06 3.22159520505e-06 -0.000555468749056)
(1.77207953604e-06 3.54496273568e-06 -0.000572691142532)
(1.41665625438e-06 3.82577579591e-06 -0.000586799739426)
(9.85400114907e-07 4.04227626055e-06 -0.000597256928197)
(4.98661878247e-07 4.17842889627e-06 -0.00060368249872)
(-1.72183990452e-08 4.22392298094e-06 -0.000605846410176)
(-5.32756292355e-07 4.17514728218e-06 -0.000603662209265)
(-1.01849304361e-06 4.03580346796e-06 -0.00059721664082)
(-1.44817200246e-06 3.81631324721e-06 -0.000586739923398)
(-1.80160573567e-06 3.53287523529e-06 -0.000572612247419)
(-2.06575432391e-06 3.20747127444e-06 -0.000555370747182)
(-2.24658030979e-06 2.85962625444e-06 -0.000535700717029)
(-2.34487415488e-06 2.5234113644e-06 -0.000514369773942)
(2.73207459969e-06 2.97831713517e-06 -0.000588140239933)
(2.58397390061e-06 3.34213062335e-06 -0.000611408966127)
(2.34906589449e-06 3.71246052322e-06 -0.000632818062466)
(2.02495096177e-06 4.05418062591e-06 -0.0006515711436)
(1.60809677753e-06 4.3477549662e-06 -0.000666926393312)
(1.11314248032e-06 4.57221280656e-06 -0.000678303362193)
(5.61573084487e-07 4.71254526861e-06 -0.000685291337244)
(-1.95946526746e-08 4.75926178249e-06 -0.000687642680874)
(-6.00412061028e-07 4.70907628025e-06 -0.000685266666694)
(-1.15095135876e-06 4.56537772996e-06 -0.000678254455285)
(-1.64425994323e-06 4.33777929088e-06 -0.000666854008913)
(-2.05898436148e-06 4.04145408643e-06 -0.000651476196103)
(-2.38059809811e-06 3.69758933182e-06 -0.000632701157177)
(-2.61274975635e-06 3.3257798262e-06 -0.000611267549918)
(-2.75714772778e-06 2.96162051012e-06 -0.000587965597355)
(3.05195679507e-06 3.31694937742e-06 -0.000656112484215)
(2.8562574021e-06 3.68819795251e-06 -0.000680852715287)
(2.57384164897e-06 4.06063597277e-06 -0.000703555605785)
(2.20088250706e-06 4.40074996063e-06 -0.000723427833676)
(1.73653251531e-06 4.68990567492e-06 -0.000739690019274)
(1.19622432727e-06 4.90917610283e-06 -0.000751732745316)
(6.01400578427e-07 5.04546149338e-06 -0.000759125859779)
(-2.17726683138e-08 5.09063308025e-06 -0.000761611327636)
(-6.44593097376e-07 5.04190930144e-06 -0.000759096579649)
(-1.23837375852e-06 4.90218159275e-06 -0.000751674792906)
(-1.77699324039e-06 4.67970628261e-06 -0.000739604513)
(-2.23911019175e-06 4.38774566043e-06 -0.000723316271089)
(-2.60939339704e-06 4.04543166321e-06 -0.000703419376632)
(-2.88882157469e-06 3.67142984314e-06 -0.00068068961222)
(-3.08059989166e-06 3.29967503671e-06 -0.000655913617455)
(3.27918385964e-06 3.55179895563e-06 -0.000718614630815)
(3.03760887842e-06 3.91326488696e-06 -0.000744364803693)
(2.71389765637e-06 4.26967220266e-06 -0.000767932925571)
(2.30236657845e-06 4.59189030935e-06 -0.000788547560345)
(1.80496316772e-06 4.86292494421e-06 -0.000805404050781)
(1.23726235658e-06 5.06673789507e-06 -0.000817877161416)
(6.19659815256e-07 5.19265018833e-06 -0.000825528931017)
(-2.37368328942e-08 5.2341726426e-06 -0.000828098735364)
(-6.66783251813e-07 5.18911066706e-06 -0.000825494793649)
(-1.28334512495e-06 5.05976899568e-06 -0.000817809690683)
(-1.84934181657e-06 4.85276307664e-06 -0.000805304779464)
(-2.34445179629e-06 4.57892867421e-06 -0.000788418666208)
(-2.75319108504e-06 4.25449649749e-06 -0.000767776699236)
(-3.07375144997e-06 3.89646613201e-06 -0.000744179339821)
(-3.31127503409e-06 3.53434261507e-06 -0.000718390955794)
(3.41712541565e-06 3.68796871041e-06 -0.000775824194453)
(3.13362285261e-06 4.02623359505e-06 -0.000802162175055)
(2.77602939665e-06 4.35269625756e-06 -0.000826210572258)
(2.3366219596e-06 4.64472679795e-06 -0.000847228014575)
(1.82001638775e-06 4.88758784088e-06 -0.000864392930813)
(1.24132674058e-06 5.06861658112e-06 -0.000877078183115)
(6.19098536747e-07 5.17974625939e-06 -0.000884851501094)
(-2.54815742636e-08 5.216178226e-06 -0.000887458822252)
(-6.69719250758e-07 5.17630717701e-06 -0.000884812232995)
(-1.29092529052e-06 5.06184133637e-06 -0.000877000653617)
(-1.86792483171e-06 4.87769792617e-06 -0.000864279114878)
(-2.38222160296e-06 4.63209113766e-06 -0.000847080836936)
(-2.81878148439e-06 4.33786329789e-06 -0.000826033310111)
(-3.17312584459e-06 4.00973595688e-06 -0.000801953117369)
(-3.45252142923e-06 3.67066600254e-06 -0.000775574411112)
(3.47383598109e-06 3.73584319074e-06 -0.000827921368207)
(3.15377089543e-06 4.04109235142e-06 -0.00085447449843)
(2.77014542048e-06 4.32761278591e-06 -0.000878670963873)
(2.31328635656e-06 4.58076093047e-06 -0.000899791191246)
(1.79009279592e-06 4.78866119878e-06 -0.00091700311714)
(1.2146409333e-06 4.94219655528e-06 -0.00092969586502)
(6.0302832485e-07 5.03582651025e-06 -0.000937460316237)
(-2.70062582071e-08 5.06630899242e-06 -0.000940060332184)
(-6.56711507362e-07 5.03256747103e-06 -0.000937415617842)
(-1.26733686e-06 4.93576740221e-06 -0.000929607658002)
(-1.84114231921e-06 4.77925415935e-06 -0.000916873802037)
(-2.36205760975e-06 4.56870314624e-06 -0.000899624463438)
(-2.81607288824e-06 4.31339629909e-06 -0.000878471156354)
(-3.19641215517e-06 4.02518020962e-06 -0.000854239946693)
(-3.51237903397e-06 3.71897432149e-06 -0.000827643274562)
(3.45980547532e-06 3.7085845878e-06 -0.00087509364487)
(3.10922947667e-06 3.97372271571e-06 -0.000901562555987)
(2.70740594327e-06 4.21330642545e-06 -0.000925643275635)
(2.24289498912e-06 4.42177043689e-06 -0.000946605616906)
(1.7241918328e-06 4.59063365275e-06 -0.000963620418203)
(1.16377612504e-06 4.71415548507e-06 -0.000976122412046)
(5.74914747921e-07 4.78897510431e-06 -0.000983749614778)
(-2.83116025234e-08 4.81313094971e-06 -0.000986297938416)
(-6.31226715526e-07 4.78596962324e-06 -0.000983699177474)
(-1.21915236601e-06 4.70821120766e-06 -0.000976022850367)
(-1.77799572282e-06 4.58190225546e-06 -0.000963474467938)
(-2.29449600621e-06 4.41051680838e-06 -0.000946417695233)
(-2.75622352353e-06 4.19994639049e-06 -0.000925418855656)
(-3.15478181512e-06 3.95863839475e-06 -0.00090129995182)
(-3.50132541847e-06 3.69238580928e-06 -0.000874784086408)
(3.38599608158e-06 3.6196156663e-06 -0.000917542291272)
(3.01154315388e-06 3.83904847326e-06 -0.000943759851798)
(2.59940896803e-06 4.0268849087e-06 -0.000967549480575)
(2.13630165921e-06 4.18719829855e-06 -0.000988119689327)
(1.63146239624e-06 4.31526564356e-06 -0.00100469258854)
(1.09533022732e-06 4.40809774374e-06 -0.00101679903919)
(5.38208424792e-07 4.46395598867e-06 -0.00102415553779)
(-2.93969725686e-08 4.48179966976e-06 -0.00102660601303)
(-5.96714896397e-07 4.46126857676e-06 -0.00102409909949)
(-1.15296638293e-06 4.40276416727e-06 -0.00101668748188)
(-1.68762681986e-06 4.30738530705e-06 -0.00100452877042)
(-2.19038170634e-06 4.17695768902e-06 -0.000987908542829)
(-2.65081808042e-06 4.01459692248e-06 -0.000967297726379)
(-3.05976110613e-06 3.82499377239e-06 -0.000943466178737)
(-3.43029247105e-06 3.60429346191e-06 -0.000917197990332)
(3.26406449939e-06 3.48085858623e-06 -0.000955489871271)
(2.87372141932e-06 3.65226251003e-06 -0.000981577318613)
(2.45910657791e-06 3.78390282825e-06 -0.0010049807608)
(2.00505785389e-06 3.89450179521e-06 -0.00102489940913)
(1.52131354101e-06 3.9817059376e-06 -0.00104074988588)
(1.01591633583e-06 4.0443903529e-06 -0.00105223106472)
(4.96317996822e-07 4.08184602094e-06 -0.00105916995297)
(-3.02601971574e-08 4.09361691725e-06 -0.00106147230581)
(-5.5657489151e-07 4.07952707586e-06 -0.00105910743002)
(-1.075374567e-06 4.03976683518e-06 -0.00105210716572)
(-1.57941507995e-06 3.9748197145e-06 -0.00104056719693)
(-2.06122383942e-06 3.88544851608e-06 -0.00102466279981)
(-2.51276358475e-06 3.77286672927e-06 -0.00100469803644)
(-2.9243171491e-06 3.63937610457e-06 -0.0009812490365)
(-3.31093266848e-06 3.4664583264e-06 -0.000955108940519)
(3.10596917157e-06 3.33360776662e-06 -0.000989326029241)
(2.71144049602e-06 3.4273722398e-06 -0.00101606821673)
(2.29896479291e-06 3.49918844817e-06 -0.00103879108506)
(1.85988330497e-06 3.558579784e-06 -0.00105764424437)
(1.40221747281e-06 3.60439150364e-06 -0.00107240689303)
(9.31388156519e-07 3.63685198792e-06 -0.00108299175326)
(4.52238291854e-07 3.65597616261e-06 -0.00108934790925)
(-3.08832792141e-08 3.66173044574e-06 -0.00109144693031)
(-5.13769533942e-07 3.65407275713e-06 -0.00108927980715)
(-9.92201920736e-07 3.6330320593e-06 -0.00108285634771)
(-1.4618056324e-06 3.59863740448e-06 -0.00107220600329)
(-1.91771022251e-06 3.55088764157e-06 -0.00105738157806)
(-2.35449660562e-06 3.489595206e-06 -0.0010384746298)
(-2.76405246971e-06 3.41580248413e-06 -0.00101569720443)
(-3.15527749613e-06 3.32017660586e-06 -0.000988917431385)
(-6.30243019246e-09 -7.73945783656e-09 -5.47160214348e-05)
(-5.69345533734e-09 -9.86143973036e-09 -5.75412701382e-05)
(-5.19919819557e-09 -1.15432130386e-08 -6.01693451797e-05)
(-4.70067993554e-09 -1.30179321623e-08 -6.24840325846e-05)
(-3.82273789508e-09 -1.42955879024e-08 -6.43858128892e-05)
(-2.62887516766e-09 -1.53056706538e-08 -6.57980620773e-05)
(-1.21568046129e-09 -1.59596901266e-08 -6.66676036896e-05)
(2.8312792186e-10 -1.61813990658e-08 -6.69623744752e-05)
(1.75496575098e-09 -1.59366824394e-08 -6.66653833353e-05)
(3.08610930675e-09 -1.52522957558e-08 -6.5793636973e-05)
(4.16362996897e-09 -1.42009195278e-08 -6.43792082649e-05)
(4.95135669606e-09 -1.28813219266e-08 -6.24752521016e-05)
(5.362179713e-09 -1.14232533451e-08 -6.01582705112e-05)
(5.79659854146e-09 -9.75705545551e-09 -5.75272604502e-05)
(6.3691399376e-09 -7.72455817086e-09 -5.46967777492e-05)
(-4.26294012202e-08 -4.74086741884e-08 -0.000158744677857)
(-3.99820078957e-08 -5.78996913134e-08 -0.000166555922409)
(-3.63125862541e-08 -6.77187627496e-08 -0.000173830521291)
(-3.16654170147e-08 -7.66718649526e-08 -0.000180239077181)
(-2.52052717715e-08 -8.43814722064e-08 -0.000185505630048)
(-1.7186776593e-08 -9.03353870963e-08 -0.000189417442894)
(-8.01314969679e-09 -9.40741834311e-08 -0.000191825726295)
(1.72013672473e-09 -9.52834036883e-08 -0.000192640107823)
(1.13682524227e-08 -9.38546269904e-08 -0.000191818783299)
(2.02710640571e-08 -8.9928790246e-08 -0.000189403616619)
(2.78301596467e-08 -8.38605383066e-08 -0.000185485021592)
(3.3701361426e-08 -7.61441868272e-08 -0.000180211743612)
(3.76263973637e-08 -6.74164209028e-08 -0.000173796183413)
(4.05466933006e-08 -5.78940470689e-08 -0.000166512802924)
(4.25685579829e-08 -4.77754720416e-08 -0.00015868749127)
(-9.7806414967e-08 -1.09957426444e-07 -0.000256566671402)
(-9.30510561046e-08 -1.31526473315e-07 -0.000268723426291)
(-8.53558742787e-08 -1.52378072456e-07 -0.000280041576804)
(-7.47622333323e-08 -1.71543754684e-07 -0.000290011283836)
(-6.0050470964e-08 -1.88126759068e-07 -0.00029820429199)
(-4.17243004547e-08 -2.00962861556e-07 -0.000304289950798)
(-2.06983592207e-08 -2.09085185194e-07 -0.000308035834168)
(1.70587790032e-09 -2.11804846811e-07 -0.000309300663604)
(2.4023463011e-08 -2.08865361096e-07 -0.000308024234853)
(4.47866800348e-08 -2.00527733797e-07 -0.000304266858205)
(6.27036298916e-08 -1.87496444828e-07 -0.000298169884562)
(7.69501567236e-08 -1.70791694048e-07 -0.000289965677195)
(8.70217148287e-08 -1.51715947119e-07 -0.000279984399464)
(9.41974554028e-08 -1.31044147821e-07 -0.000268652125849)
(9.84318546358e-08 -1.09824604791e-07 -0.000256473814885)
(-1.65139000387e-07 -1.85283390987e-07 -0.000348359200576)
(-1.57416475647e-07 -2.18949939867e-07 -0.000364255332759)
(-1.44333339588e-07 -2.5204176111e-07 -0.000379038726618)
(-1.26057627843e-07 -2.82503037398e-07 -0.000392057268906)
(-1.01166795181e-07 -3.08855961372e-07 -0.000402754531671)
(-7.04617337757e-08 -3.29222453405e-07 -0.00041069984127)
(-3.54056699722e-08 -3.42100721166e-07 -0.000415589316765)
(1.91413813208e-09 -3.46443865931e-07 -0.000417238432922)
(3.91505790127e-08 -3.41866948543e-07 -0.000415572958814)
(7.39618057255e-08 -3.28755291842e-07 -0.000410667298611)
(1.04301710823e-07 -3.08164460319e-07 -0.000402706104171)
(1.28795916243e-07 -2.81644880494e-07 -0.000391993217255)
(1.4664238513e-07 -2.51191683646e-07 -0.000378958779556)