/*--------------------------------*- C++ -*----------------------------------*\
  =========                 |
  \\      /  F ield         | OpenFOAM: The Open Source CFD Toolbox
   \\    /   O peration     | Website:  https://openfoam.org
    \\  /    A nd           | Version:  7
     \\/     M anipulation  |
\*---------------------------------------------------------------------------*/
FoamFile
{
    version     2.0;
    format      ascii;
    class       volScalarField;
    location    "2.02";
    object      p;
}
// * * * * * * * * * * * * * * * * * * * * * * * * * * * * * * * * * * * * * //

dimensions      [0 2 -2 0 0 0 0];

internalField   nonuniform List<scalar> 
22500
(
2.41651624289e-05
2.41630910326e-05
2.41611447483e-05
2.4159042872e-05
2.4157228516e-05
2.41558354199e-05
2.41549700768e-05
2.41546862277e-05
2.41550084213e-05
2.41559110838e-05
2.41573402428e-05
2.41591883457e-05
2.4161323059e-05
2.41632948857e-05
2.4165418865e-05
2.41508099455e-05
2.41481012524e-05
2.41455866821e-05
2.41429713526e-05
2.41407205181e-05
2.41389956123e-05
2.41379233368e-05
2.41375701823e-05
2.41379633958e-05
2.41390747007e-05
2.414083726e-05
2.41431234375e-05
2.41457728802e-05
2.41483139679e-05
2.41510743502e-05
2.41376681344e-05
2.41344498139e-05
2.41315082563e-05
2.41285009266e-05
2.41259205439e-05
2.41239448667e-05
2.41227162195e-05
2.41223105803e-05
2.41227575137e-05
2.41240263844e-05
2.41260407907e-05
2.41286574949e-05
2.41316997721e-05
2.41346676154e-05
2.41379376961e-05
2.41265993485e-05
2.41230286026e-05
2.41197933959e-05
2.41165264861e-05
2.41137287071e-05
2.41115892038e-05
2.4110258877e-05
2.41098193194e-05
2.4110301249e-05
2.41116728e-05
2.41138518736e-05
2.4116686607e-05
2.41199888473e-05
2.4123249593e-05
2.41268722054e-05
2.41169294098e-05
2.41131203293e-05
2.41096774534e-05
2.41062399656e-05
2.41032987273e-05
2.41010528116e-05
2.40996570487e-05
2.4099196003e-05
2.40997005654e-05
2.41011385997e-05
2.41034249519e-05
2.41064037543e-05
2.41098767075e-05
2.41133444235e-05
2.41172056989e-05
2.41084163885e-05
2.41044681311e-05
2.41008900931e-05
2.40973550372e-05
2.40943308871e-05
2.40920252045e-05
2.40905933851e-05
2.40901208871e-05
2.40906381313e-05
2.40921133631e-05
2.4094460409e-05
2.40975228002e-05
2.41010933187e-05
2.41046958074e-05
2.41086971703e-05
2.4101012016e-05
2.4097013308e-05
2.40933647124e-05
2.40897954546e-05
2.40867414493e-05
2.40844167239e-05
2.40829744882e-05
2.40824992964e-05
2.4083020579e-05
2.4084507478e-05
2.40868746072e-05
2.40899676344e-05
2.40935723814e-05
2.40972452524e-05
2.41012985513e-05
2.40946550366e-05
2.40906792788e-05
2.40870152919e-05
2.40834652487e-05
2.40804273877e-05
2.40781190822e-05
2.40766888638e-05
2.40762186675e-05
2.40767364315e-05
2.40782127084e-05
2.40805646319e-05
2.4083642476e-05
2.40872281639e-05
2.40909166588e-05
2.4094948841e-05
2.40892596683e-05
2.40853622051e-05
2.40817291896e-05
2.40782441597e-05
2.40752639724e-05
2.40730045718e-05
2.40716071274e-05
2.40711490654e-05
2.40716563114e-05
2.4073101392e-05
2.40754058412e-05
2.40784272548e-05
2.40819483439e-05
2.40856066278e-05
2.40895627232e-05
2.40847263212e-05
2.40809419598e-05
2.40773796825e-05
2.40740022262e-05
2.40711208782e-05
2.40689433011e-05
2.40675998207e-05
2.40671612062e-05
2.4067650755e-05
2.40690436446e-05
2.40712679877e-05
2.40741921584e-05
2.40776065344e-05
2.4081195494e-05
2.40850411976e-05
2.40809355124e-05
2.40772758662e-05
2.40738214068e-05
2.40705968805e-05
2.40678602956e-05
2.40658016245e-05
2.40645360111e-05
2.40641250474e-05
2.4064588783e-05
2.40659057552e-05
2.40680132201e-05
2.40707947052e-05
2.4074057631e-05
2.40775410229e-05
2.40812656299e-05
2.40777320037e-05
2.40741858916e-05
2.40708813832e-05
2.40678661207e-05
2.40653304336e-05
2.40634354283e-05
2.40622760739e-05
2.40619024723e-05
2.40623306446e-05
2.40635434077e-05
2.40654895372e-05
2.40680727489e-05
2.40711287088e-05
2.4074465331e-05
2.40780810347e-05
2.40748733937e-05
2.40714246918e-05
2.40683408907e-05
2.40656177727e-05
2.40633572937e-05
2.40616822485e-05
2.4060664027e-05
2.40603393057e-05
2.40607200939e-05
2.40617935869e-05
2.40635222458e-05
2.40658334525e-05
2.40686006479e-05
2.40717206032e-05
2.40752432971e-05
2.40718590894e-05
2.40685563643e-05
2.40658723607e-05
2.40635905468e-05
2.40617198658e-05
2.40603465639e-05
2.40595181094e-05
2.40592583902e-05
2.40595748629e-05
2.40604598561e-05
2.40618889667e-05
2.40638139563e-05
2.40661447055e-05
2.40688714695e-05
2.40722475869e-05
2.40678231647e-05
2.40650292556e-05
2.40630958317e-05
2.40614685393e-05
2.40601464338e-05
2.40591864777e-05
2.40586142566e-05
2.40584411268e-05
2.40586710736e-05
2.40593005391e-05
2.4060318167e-05
2.40616985428e-05
2.40633826293e-05
2.40653697896e-05
2.4068225972e-05
2.1607038551e-05
2.16071827711e-05
2.16072461842e-05
2.16073104475e-05
2.16073778689e-05
2.16074397874e-05
2.16074821546e-05
2.16074932092e-05
2.16074684249e-05
2.16074133929e-05
2.16073409065e-05
2.16072652499e-05
2.16071945082e-05
2.16071238833e-05
2.16069777135e-05
2.16075783037e-05
2.16077506253e-05
2.16078479038e-05
2.16079430275e-05
2.16080354421e-05
2.16081154332e-05
2.16081688776e-05
2.16081838157e-05
2.16081554466e-05
2.16080896776e-05
2.16079994475e-05
2.16078991928e-05
2.16077981063e-05
2.16076934744e-05
2.16075195345e-05
2.16080428023e-05
2.16082595128e-05
2.16084001922e-05
2.16085399567e-05
2.16086716763e-05
2.16087823797e-05
2.16088554895e-05
2.16088772392e-05
2.16088420582e-05
2.16087566098e-05
2.16086355389e-05
2.16084957575e-05
2.16083501007e-05
2.16082017607e-05
2.1607984749e-05
2.16087224685e-05
2.16090258196e-05
2.16092454881e-05
2.16094646836e-05
2.16096673163e-05
2.16098340478e-05
2.16099431347e-05
2.16099772328e-05
2.1609929431e-05
2.16098077412e-05
2.16096302962e-05
2.16094192016e-05
2.1609194005e-05
2.16089665418e-05
2.16086645155e-05
2.16096915673e-05
2.16101138373e-05
2.16104385683e-05
2.16107611047e-05
2.16110554035e-05
2.16112941558e-05
2.16114492585e-05
2.16114990485e-05
2.16114350712e-05
2.16112669352e-05
2.1611017029e-05
2.16107138753e-05
2.16103851375e-05
2.16100525836e-05
2.16096332943e-05
2.16108943856e-05
2.16114473425e-05
2.1611883932e-05
2.16123147963e-05
2.1612704175e-05
2.16130170508e-05
2.16132192016e-05
2.16132849433e-05
2.16132044098e-05
2.16129887015e-05
2.16126641889e-05
2.16122655692e-05
2.16118283052e-05
2.16113838634e-05
2.16108356433e-05
2.1612246999e-05
2.16129226246e-05
2.16134610641e-05
2.16139886797e-05
2.16144617509e-05
2.16148391254e-05
2.16150818228e-05
2.16151611824e-05
2.16150663536e-05
2.16148095136e-05
2.16144200047e-05
2.16139373289e-05
2.16134031467e-05
2.16128569226e-05
2.1612187575e-05
2.16136646079e-05
2.16144392481e-05
2.16150572547e-05
2.16156580758e-05
2.16161929559e-05
2.16166169556e-05
2.16168884468e-05
2.16169773159e-05
2.16168723183e-05
2.16165861186e-05
2.1616149511e-05
2.16156047061e-05
2.16149971341e-05
2.16143716221e-05
2.16136042936e-05
2.16150699299e-05
2.16159099897e-05
2.16165781347e-05
2.16172221187e-05
2.16177912445e-05
2.16182395644e-05
2.16185252831e-05
2.16186186125e-05
2.16185085779e-05
2.16182076523e-05
2.16177463116e-05
2.16171670032e-05
2.16165161178e-05
2.16158408695e-05
2.16150088104e-05
2.16163996775e-05
2.1617267427e-05
2.1617954411e-05
2.1618610294e-05
2.16191850792e-05
2.1619634673e-05
2.16199196085e-05
2.16200122374e-05
2.1619902503e-05
2.16196019933e-05
2.16191390668e-05
2.16185538807e-05
2.16178909704e-05
2.16171973823e-05
2.16163377838e-05
2.16176078143e-05
2.16184671116e-05
2.16191443896e-05
2.16197841534e-05
2.16203389123e-05
2.16207689985e-05
2.16210396591e-05
2.16211269636e-05
2.16210223934e-05
2.16207359703e-05
2.16202923566e-05
2.16197270401e-05
2.16190801408e-05
2.1618396803e-05
2.1617545377e-05
2.16186659737e-05
2.16194870944e-05
2.16201324976e-05
2.16207345391e-05
2.16212491215e-05
2.16216433417e-05
2.16218890907e-05
2.16219675205e-05
2.16218719672e-05
2.1621610517e-05
2.16212027028e-05
2.16206774273e-05
2.16200681159e-05
2.16194172098e-05
2.16186031239e-05
2.16195577733e-05
2.16203229448e-05
2.16209236958e-05
2.16214747794e-05
2.16219360789e-05
2.16222836968e-05
2.16224977708e-05
2.16225650516e-05
2.1622481183e-05
2.16222517267e-05
2.16218906288e-05
2.16214184699e-05
2.162085989e-05
2.16202540429e-05
2.1619494743e-05
2.16202690586e-05
2.16209744542e-05
2.1621530141e-05
2.1622026959e-05
2.16224305715e-05
2.16227283738e-05
2.16229090047e-05
2.16229649454e-05
2.1622893537e-05
2.16226983859e-05
2.16223875308e-05
2.16219730325e-05
2.16214682112e-05
2.16209074677e-05
2.16202057909e-05
2.1620816348e-05
2.16214611438e-05
2.16219811578e-05
2.16224257984e-05
2.1622772773e-05
2.16230232355e-05
2.16231732253e-05
2.16232193056e-05
2.16231604339e-05
2.16229981128e-05
2.16227362192e-05
2.16223791252e-05
2.16219264997e-05
2.16214011431e-05
2.16207551566e-05
2.13517158453e-05
2.13515695015e-05
2.13514200657e-05
2.13512748688e-05
2.1351146323e-05
2.13510470511e-05
2.13509846333e-05
2.13509634603e-05
2.13509853323e-05
2.13510484208e-05
2.13511482983e-05
2.13512775918e-05
2.13514257126e-05
2.13515767216e-05
2.13517262553e-05
2.13515432172e-05
2.13513935054e-05
2.13512369531e-05
2.13510836216e-05
2.13509476154e-05
2.1350842213e-05
2.13507757776e-05
2.13507532299e-05
2.13507766843e-05
2.13508440169e-05
2.13509502517e-05
2.13510872548e-05
2.13512433123e-05
2.13514017708e-05
2.13515546251e-05
2.13515537535e-05
2.13514131297e-05
2.13512628971e-05
2.13511130134e-05
2.1350978927e-05
2.13508742914e-05
2.1350808003e-05
2.13507853992e-05
2.13508087965e-05
2.13508759031e-05
2.13509813714e-05
2.1351116515e-05
2.13512688715e-05
2.13514211378e-05
2.13515652788e-05
2.13515635254e-05
2.13514276647e-05
2.13512812593e-05
2.13511338277e-05
2.135100115e-05
2.13508970867e-05
2.13508308668e-05
2.1350808164e-05
2.13508314394e-05
2.13508983088e-05
2.13510031629e-05
2.13511369306e-05
2.13512866426e-05
2.13514350385e-05
2.13515751461e-05
2.13515345867e-05
2.13513990374e-05
2.13512536436e-05
2.13511073278e-05
2.13509753294e-05
2.13508715296e-05
2.13508053105e-05
2.13507825085e-05
2.13508056542e-05
2.13508723334e-05
2.13509768193e-05
2.13511098883e-05
2.13512583904e-05
2.13514057319e-05
2.13515461848e-05
2.13514832453e-05
2.13513462753e-05
2.13512016418e-05
2.13510568945e-05
2.13509264234e-05
2.13508237643e-05
2.13507581795e-05
2.13507355092e-05
2.13507582843e-05
2.1350824133e-05
2.13509273658e-05
2.13510588752e-05
2.13512057079e-05
2.13513524265e-05
2.13514946431e-05
2.13514222114e-05
2.13512839248e-05
2.13511407444e-05
2.13509988018e-05
2.13508712434e-05
2.13507709482e-05
2.13507068459e-05
2.13506846128e-05
2.13507067187e-05
2.13507708831e-05
2.13508716143e-05
2.13510001519e-05
2.1351144091e-05
2.13512895006e-05
2.13514333716e-05
2.13513583748e-05
2.13512194789e-05
2.13510787492e-05
2.1350940932e-05
2.13508176693e-05
2.13507209212e-05
2.13506590981e-05
2.13506375925e-05
2.13506587608e-05
2.13507204606e-05
2.13508175156e-05
2.13509416985e-05
2.13510814403e-05
2.13512245363e-05
2.13513692395e-05
2.13512968656e-05
2.13511583432e-05
2.13510210924e-05
2.13508885131e-05
2.13507706381e-05
2.13506783527e-05
2.13506194344e-05
2.13505988915e-05
2.13506189217e-05
2.13506775584e-05
2.1350770021e-05
2.13508887458e-05
2.13510231915e-05
2.1351162944e-05
2.13513073033e-05
2.13512417721e-05
2.13511046999e-05
2.13509717708e-05
2.13508451652e-05
2.13507333927e-05
2.13506461909e-05
2.13505906012e-05
2.13505711979e-05
2.13505899736e-05
2.13506451656e-05
2.13507324435e-05
2.13508449893e-05
2.1350973393e-05
2.13511089444e-05
2.13512516448e-05
2.1351196291e-05
2.13510617471e-05
2.1350933648e-05
2.13508133113e-05
2.13507079592e-05
2.13506261352e-05
2.13505741277e-05
2.13505559729e-05
2.13505734601e-05
2.13506250121e-05
2.13507068313e-05
2.13508128799e-05
2.13509349102e-05
2.13510656901e-05
2.13512054685e-05
2.13511637404e-05
2.13510323056e-05
2.13509089039e-05
2.1350794571e-05
2.13506955067e-05
2.13506191125e-05
2.13505707513e-05
2.13505539458e-05
2.13505701411e-05
2.1350618075e-05
2.13506944364e-05
2.13507941038e-05
2.13509099936e-05
2.13510359996e-05
2.13511720198e-05
2.13511500638e-05
2.13510207676e-05
2.13509004813e-05
2.13507908285e-05
2.13506972002e-05
2.13506256906e-05
2.13505808268e-05
2.13505652961e-05
2.13505804083e-05
2.13506249754e-05
2.13506964845e-05
2.13507906665e-05
2.1350901684e-05
2.13510244033e-05
2.13511575159e-05
2.13511580224e-05
2.13510272655e-05
2.13509089998e-05
2.1350802839e-05
2.13507138272e-05
2.13506468153e-05
2.13506051224e-05
2.13505909686e-05
2.13506050774e-05
2.13506467499e-05
2.13507139794e-05
2.13508035542e-05
2.13509108944e-05
2.13510312898e-05
2.13511649723e-05
2.13511021413e-05
2.13510001736e-05
2.13508988911e-05
2.13508095089e-05
2.13507358048e-05
2.13506809632e-05
2.13506473076e-05
2.13506361223e-05
2.13506479402e-05
2.13506822054e-05
2.13507377122e-05
2.13508122892e-05
2.1350902867e-05
2.13510059943e-05
2.13511098025e-05
1.94600450989e-05
1.94601651752e-05
1.94603078709e-05
1.94604530582e-05
1.94605834581e-05
1.94606849366e-05
1.94607486457e-05
1.94607691002e-05
1.94607443062e-05
1.94606766716e-05
1.94605722175e-05
1.94604404586e-05
1.9460294808e-05
1.94601526943e-05
1.94600298138e-05
1.94601299689e-05
1.9460247538e-05
1.94603894422e-05
1.94605348953e-05
1.94606660165e-05
1.94607684267e-05
1.94608328702e-05
1.94608535895e-05
1.94608284181e-05
1.94607599692e-05
1.94606545683e-05
1.94605221485e-05
1.94603765677e-05
1.94602351779e-05
1.9460115489e-05
1.94600697384e-05
1.94601737054e-05
1.94603032608e-05
1.94604386847e-05
1.94605620999e-05
1.94606593266e-05
1.94607208268e-05
1.94607406479e-05
1.94607164941e-05
1.94606510746e-05
1.9460550857e-05
1.94604259374e-05
1.94602902741e-05
1.9460160813e-05
1.94600551763e-05
1.9459986409e-05
1.94600773362e-05
1.94601947922e-05
1.94603193016e-05
1.94604340959e-05
1.94605252807e-05
1.94605832492e-05
1.94606019741e-05
1.94605791007e-05
1.94605173597e-05
1.94604232307e-05
1.94603067719e-05
1.94601817623e-05
1.94600641544e-05
1.94599716713e-05
1.94599076108e-05
1.94599866783e-05
1.94600929294e-05
1.94602063922e-05
1.94603120948e-05
1.94603965914e-05
1.94604505429e-05
1.94604679718e-05
1.94604465581e-05
1.94603889673e-05
1.94603015478e-05
1.94601940648e-05
1.94600798173e-05
1.94599732811e-05
1.94598926714e-05
1.94598245374e-05
1.94598918071e-05
1.94599862823e-05
1.94600878627e-05
1.94601833258e-05
1.94602600825e-05
1.94603092488e-05
1.94603251182e-05
1.94603054428e-05
1.94602527827e-05
1.94601731686e-05
1.946007583e-05
1.94599732737e-05
1.94598781948e-05
1.94598096359e-05
1.94597322792e-05
1.9459787218e-05
1.94598693576e-05
1.94599581536e-05
1.94600422512e-05
1.94601102151e-05
1.94601538527e-05
1.94601678907e-05
1.94601502177e-05
1.94601032181e-05
1.94600324509e-05
1.94599463828e-05
1.94598564522e-05
1.94597734228e-05
1.94597173453e-05
1.94596302191e-05
1.94596724729e-05
1.94597420294e-05
1.94598174546e-05
1.94598894723e-05
1.94599479299e-05
1.94599855341e-05
1.94599975502e-05
1.94599820754e-05
1.94599412526e-05
1.94598800488e-05
1.94598059881e-05
1.94597292265e-05
1.94596585888e-05
1.94596151497e-05
1.94595187228e-05
1.94595486516e-05
1.94596056667e-05
1.94596676823e-05
1.94597273602e-05
1.94597759785e-05
1.94598072794e-05
1.94598171667e-05
1.94598039849e-05
1.94597695967e-05
1.94597182799e-05
1.94596564955e-05
1.9459592962e-05
1.94595346834e-05
1.94595036007e-05
1.94593989252e-05
1.94594172994e-05
1.94594622181e-05
1.94595112839e-05
1.94595588366e-05
1.94595977082e-05
1.94596227086e-05
1.94596304675e-05
1.94596195806e-05
1.94595916196e-05
1.945955011e-05
1.94595003838e-05
1.94594496372e-05
1.9459403256e-05
1.94593837562e-05
1.9459272291e-05
1.94592804536e-05
1.9459314223e-05
1.94593512688e-05
1.94593873914e-05
1.94594169514e-05
1.94594359158e-05
1.94594416128e-05
1.94594329453e-05
1.9459411147e-05
1.94593790018e-05
1.94593406796e-05
1.94593018161e-05
1.94592664337e-05
1.94592571967e-05
1.94591404138e-05
1.94591403592e-05
1.94591644762e-05
1.94591909014e-05
1.94592166599e-05
1.94592377407e-05
1.94592511319e-05
1.9459254953e-05
1.9459248317e-05
1.9459232215e-05
1.94592086312e-05
1.94591806457e-05
1.94591523191e-05
1.94591264689e-05
1.94591254963e-05
1.94590028761e-05
1.94589980593e-05
1.94590149885e-05
1.94590328017e-05
1.94590499474e-05
1.94590637973e-05
1.94590725235e-05
1.94590746934e-05
1.94590698694e-05
1.94590585805e-05
1.94590422823e-05
1.94590229593e-05
1.94590031781e-05
1.9458984451e-05
1.94589882926e-05
1.94588632282e-05
1.94588582576e-05
1.94588688011e-05
1.94588795311e-05
1.94588896676e-05
1.94588979054e-05
1.94589028726e-05
1.94589038656e-05
1.94589004029e-05
1.94588929784e-05
1.94588824469e-05
1.94588701486e-05
1.94588574522e-05
1.94588450846e-05
1.94588493046e-05
1.94587977071e-05
1.94587615074e-05
1.94587531278e-05
1.94587470219e-05
1.94587436126e-05
1.94587417977e-05
1.94587406637e-05
1.94587395595e-05
1.94587383062e-05
1.94587371123e-05
1.94587366529e-05
1.94587379527e-05
1.94587420896e-05
1.94587485928e-05
1.9458784141e-05
1.87610940105e-05
1.87610068693e-05
1.87609046926e-05
1.87608015468e-05
1.87607071693e-05
1.87606324496e-05
1.87605855376e-05
1.87605706577e-05
1.87605892505e-05
1.87606394153e-05
1.87607165542e-05
1.87608134438e-05
1.87609202294e-05
1.87610243124e-05
1.87611150911e-05
1.87610237012e-05
1.87609384607e-05
1.87608370789e-05
1.87607338105e-05
1.87606389676e-05
1.8760563745e-05
1.87605163809e-05
1.87605013246e-05
1.87605201735e-05
1.87605708918e-05
1.87606486776e-05
1.87607460583e-05
1.8760852867e-05
1.87609565798e-05
1.87610452026e-05
1.87610623021e-05
1.87609870938e-05
1.87608945117e-05
1.87607981658e-05
1.8760708856e-05
1.87606375878e-05
1.87605924904e-05
1.87605781322e-05
1.87605962129e-05
1.87606446592e-05
1.87607185884e-05
1.87608104441e-05
1.87609100048e-05
1.87610050251e-05
1.87610833932e-05
1.8761119749e-05
1.87610541944e-05
1.87609701246e-05
1.87608812346e-05
1.87607980618e-05
1.87607313292e-05
1.87606888766e-05
1.87606753434e-05
1.87606924952e-05
1.87607382661e-05
1.87608077669e-05
1.87608934786e-05
1.87609853002e-05
1.87610716755e-05
1.87611404275e-05
1.87611752411e-05
1.8761118566e-05
1.87610423812e-05
1.87609610641e-05
1.87608843115e-05
1.87608224063e-05
1.87607828675e-05
1.87607702721e-05
1.87607863939e-05
1.87608292049e-05
1.87608939108e-05
1.87609731823e-05
1.87610572398e-05
1.87611355242e-05
1.87611954743e-05
1.87612352703e-05
1.87611874157e-05
1.87611196374e-05
1.87610465846e-05
1.87609770752e-05
1.87609207553e-05
1.87608846583e-05
1.87608731948e-05
1.87608880874e-05
1.87609273989e-05
1.87609865385e-05
1.87610585445e-05
1.87611341683e-05
1.87612040323e-05
1.87612549248e-05
1.87613036282e-05
1.87612652441e-05
1.87612064119e-05
1.87611423785e-05
1.87610809707e-05
1.8761030988e-05
1.87609988752e-05
1.87609887421e-05
1.87610022052e-05
1.87610374583e-05
1.87610902376e-05
1.87611541109e-05
1.87612205562e-05
1.87612814556e-05
1.87613227722e-05
1.87613810078e-05
1.8761352518e-05
1.87613030112e-05
1.87612485863e-05
1.87611959619e-05
1.87611529414e-05
1.87611252587e-05
1.87611166174e-05
1.87611284841e-05
1.87611592255e-05
1.87612050121e-05
1.87612600858e-05
1.87613168233e-05
1.87613683521e-05
1.87613997551e-05
1.87614673001e-05
1.87614487318e-05
1.87614086943e-05
1.87613641345e-05
1.87613206609e-05
1.87612849768e-05
1.87612620183e-05
1.87612549761e-05
1.87612651341e-05
1.87612910644e-05
1.87613294605e-05
1.87613753595e-05
1.87614221712e-05
1.87614641901e-05
1.87614856568e-05
1.87615617775e-05
1.87615526295e-05
1.87615218755e-05
1.8761487056e-05
1.87614527743e-05
1.87614245554e-05
1.87614064281e-05
1.87614010383e-05
1.8761409434e-05
1.87614304375e-05
1.87614613202e-05
1.87614980056e-05
1.87615350451e-05
1.87615677707e-05
1.8761579765e-05
1.87616630334e-05
1.87616623154e-05
1.87616402214e-05
1.87616146112e-05
1.87615892246e-05
1.87615682857e-05
1.87615549285e-05
1.87615511565e-05
1.87615578166e-05
1.87615739533e-05
1.87615974816e-05
1.87616252554e-05
1.87616530463e-05
1.87616771218e-05
1.87616806572e-05
1.87617693992e-05
1.87617753012e-05
1.87617606897e-05
1.87617434209e-05
1.87617262659e-05
1.87617122117e-05
1.87617033313e-05
1.87617011183e-05
1.87617060947e-05
1.87617176423e-05
1.87617342317e-05
1.87617537113e-05
1.876177314e-05
1.87617896915e-05
1.87617865661e-05
1.87618800126e-05
1.87618894513e-05
1.87618804968e-05
1.87618701941e-05
1.87618602718e-05
1.87618521716e-05
1.87618473139e-05
1.8761846392e-05
1.87618499407e-05
1.87618573754e-05
1.8761867873e-05
1.87618801187e-05
1.87618924995e-05
1.87619033832e-05
1.8761896681e-05
1.87619907386e-05
1.87620000948e-05
1.87619962279e-05
1.87619920494e-05
1.87619880965e-05
1.87619850264e-05
1.8761983286e-05
1.87619835192e-05
1.87619857902e-05
1.87619899229e-05
1.87619953608e-05
1.87620014765e-05
1.87620077246e-05
1.87620134545e-05
1.87620068115e-05
1.87620462029e-05
1.87620779378e-05
1.87620882613e-05
1.87620969762e-05
1.87621036075e-05
1.8762108206e-05
1.87621112727e-05
1.87621130194e-05
1.87621136106e-05
1.87621128393e-05
1.87621104113e-05
1.8762105911e-05
1.87620991311e-05
1.87620906793e-05
1.87620614117e-05
1.71610407676e-05
1.71611096445e-05
1.71611906608e-05
1.71612720864e-05
1.71613447629e-05
1.7161401055e-05
1.71614361018e-05
1.71614469939e-05
1.7161432743e-05
1.71613947083e-05
1.71613362276e-05
1.71612625462e-05
1.71611809684e-05
1.71611009786e-05
1.71610304486e-05
1.71610949551e-05
1.71611627358e-05
1.71612433403e-05
1.71613250127e-05
1.71613981639e-05
1.71614549856e-05
1.716149042e-05
1.71615014308e-05
1.71614869383e-05
1.71614484199e-05
1.716138938e-05
1.71613152851e-05
1.71612336938e-05
1.71611540481e-05
1.71610853085e-05
1.71610681502e-05
1.71611283343e-05
1.71612017465e-05
1.71612777444e-05
1.71613465514e-05
1.71614004932e-05
1.71614343285e-05
1.71614448934e-05
1.71614310186e-05
1.7161394237e-05
1.716133813e-05
1.71612682554e-05
1.7161192233e-05
1.7161119303e-05
1.71610585307e-05
1.71610268156e-05
1.71610795071e-05
1.71611460005e-05
1.71612158488e-05
1.71612798814e-05
1.71613305241e-05
1.71613624769e-05
1.716137251e-05
1.71613593967e-05
1.71613246839e-05
1.71612719694e-05
1.71612068018e-05
1.7161136722e-05
1.71610704458e-05
1.71610171157e-05
1.71609865941e-05
1.71610324406e-05
1.71610925797e-05
1.71611562344e-05
1.7161215275e-05
1.71612623027e-05
1.71612921382e-05
1.7161301537e-05
1.7161289271e-05
1.71612568514e-05
1.716120782e-05
1.71611475888e-05
1.71610834662e-05
1.71610233957e-05
1.71609768304e-05
1.7160942384e-05
1.71609814616e-05
1.71610348527e-05
1.71610919434e-05
1.7161145414e-05
1.71611882785e-05
1.71612155825e-05
1.7161224199e-05
1.71612129178e-05
1.71611831959e-05
1.71611384181e-05
1.71610837334e-05
1.71610260562e-05
1.71609724196e-05
1.7160932794e-05
1.71608914982e-05
1.71609233685e-05
1.71609697e-05
1.71610197155e-05
1.71610669723e-05
1.71611050805e-05
1.71611294341e-05
1.71611371136e-05
1.71611269622e-05
1.71611003416e-05
1.71610603948e-05
1.71610118803e-05
1.71609611734e-05
1.71609143383e-05
1.71608820076e-05
1.71608335482e-05
1.71608578181e-05
1.71608969488e-05
1.7160939538e-05
1.7160980153e-05
1.71610130704e-05
1.71610341579e-05
1.71610407738e-05
1.71610318626e-05
1.71610086524e-05
1.71609739686e-05
1.71609320723e-05
1.71608886726e-05
1.71608488813e-05
1.7160824043e-05
1.71607686449e-05
1.71607854941e-05
1.71608174224e-05
1.71608524961e-05
1.71608862388e-05
1.71609136933e-05
1.71609313052e-05
1.71609367695e-05
1.71609291649e-05
1.7160909557e-05
1.7160880387e-05
1.71608453326e-05
1.71608093326e-05
1.71607766076e-05
1.71607591947e-05
1.7160697608e-05
1.71607074601e-05
1.71607324353e-05
1.71607601937e-05
1.71607870831e-05
1.71608090351e-05
1.71608230911e-05
1.71608273737e-05
1.71608210927e-05
1.71608051474e-05
1.71607815406e-05
1.71607533007e-05
1.71607245154e-05
1.71606986083e-05
1.71606881725e-05
1.71606215593e-05
1.7160625342e-05
1.71606439716e-05
1.71606648667e-05
1.71606851896e-05
1.71607017521e-05
1.71607123201e-05
1.71607154157e-05
1.71607104401e-05
1.71606980822e-05
1.71606798984e-05
1.71606582157e-05
1.7160636203e-05
1.71606165599e-05
1.71606122136e-05
1.71605420495e-05
1.71605412281e-05
1.71605544277e-05
1.71605691735e-05
1.71605833594e-05
1.71605948986e-05
1.71606021297e-05
1.71606041206e-05
1.71606003599e-05
1.71605914112e-05
1.71605783251e-05
1.71605627355e-05
1.71605468263e-05
1.71605325587e-05
1.71605328373e-05
1.71604597944e-05
1.71604568266e-05
1.71604660146e-05
1.71604755234e-05
1.71604844492e-05
1.71604914609e-05
1.71604958369e-05
1.71604967825e-05
1.71604941593e-05
1.71604881959e-05
1.71604796177e-05
1.71604693572e-05
1.71604586021e-05
1.71604483357e-05
1.7160450779e-05
1.71603782525e-05
1.71603760798e-05
1.71603813525e-05
1.71603862794e-05
1.71603905334e-05
1.71603939509e-05
1.71603958595e-05
1.71603960776e-05
1.71603943165e-05
1.71603908436e-05
1.71603860166e-05
1.71603803503e-05
1.71603742153e-05
1.71603678148e-05
1.7160369648e-05
1.71603425622e-05
1.71603219031e-05
1.71603157646e-05
1.71603103501e-05
1.71603064292e-05
1.71603037626e-05
1.71603020707e-05
1.71603010359e-05
1.7160300603e-05
1.71603008657e-05
1.71603021004e-05
1.7160304696e-05
1.71603088138e-05
1.71603137994e-05
1.71603340651e-05
1.62625658705e-05
1.62625132727e-05
1.62624506392e-05
1.62623879042e-05
1.6262332023e-05
1.62622885315e-05
1.6262261113e-05
1.62622522796e-05
1.62622630167e-05
1.6262292297e-05
1.62623375682e-05
1.62623947619e-05
1.62624583017e-05
1.62625209258e-05
1.62625766302e-05
1.6262522283e-05
1.62624708006e-05
1.62624086421e-05
1.62623458132e-05
1.6262289573e-05
1.62622456359e-05
1.62622178836e-05
1.62622089323e-05
1.62622198423e-05
1.62622495121e-05
1.62622952474e-05
1.62623528165e-05
1.62624164194e-05
1.62624788153e-05
1.62625331428e-05
1.62625440422e-05
1.62624985458e-05
1.62624419068e-05
1.62623833574e-05
1.62623303242e-05
1.62622885479e-05
1.62622620485e-05
1.62622534952e-05
1.62622639742e-05
1.62622923414e-05
1.6262335842e-05
1.62623901735e-05
1.62624494732e-05
1.62625066294e-05
1.62625546667e-05
1.62625772811e-05
1.6262537655e-05
1.62624862698e-05
1.62624323548e-05
1.62623828617e-05
1.62623435577e-05
1.62623185281e-05
1.62623104456e-05
1.62623203921e-05
1.62623472054e-05
1.62623881178e-05
1.62624388358e-05
1.62624935453e-05
1.62625455239e-05
1.62625877344e-05
1.62626095363e-05
1.62625752812e-05
1.62625287141e-05
1.62624794528e-05
1.62624336896e-05
1.62623971058e-05
1.62623737244e-05
1.62623661747e-05
1.62623755128e-05
1.62624005913e-05
1.6262438686e-05
1.62624856078e-05
1.62625357138e-05
1.62625828595e-05
1.62626197325e-05
1.62626448875e-05
1.62626158779e-05
1.62625744771e-05
1.62625302436e-05
1.62624886997e-05
1.62624552876e-05
1.62624338696e-05
1.62624269622e-05
1.6262435572e-05
1.62624585944e-05
1.62624934146e-05
1.62625360526e-05
1.62625811637e-05
1.6262623294e-05
1.62626546906e-05
1.62626854689e-05
1.62626620958e-05
1.62626261305e-05
1.6262587306e-05
1.62625504943e-05
1.62625207263e-05
1.62625015978e-05
1.62624954452e-05
1.62625032116e-05
1.62625238553e-05
1.62625549495e-05
1.62625928132e-05
1.62626325134e-05
1.62626693304e-05
1.62626949614e-05
1.62627315455e-05
1.62627140745e-05
1.62626836952e-05
1.62626505839e-05
1.62626188822e-05
1.62625931125e-05
1.62625765216e-05
1.62625712155e-05
1.62625780473e-05
1.62625960675e-05
1.62626230946e-05
1.62626558299e-05
1.62626898517e-05
1.62627211627e-05
1.6262740869e-05
1.62627829998e-05
1.62627713644e-05
1.62627465761e-05
1.62627192589e-05
1.62626928553e-05
1.62626713015e-05
1.62626574121e-05
1.62626530193e-05
1.62626588591e-05
1.62626741075e-05
1.62626968711e-05
1.62627243048e-05
1.62627525741e-05
1.62627783527e-05
1.62627921728e-05
1.62628392606e-05
1.62628330983e-05
1.62628137312e-05
1.62627920771e-05
1.62627709757e-05
1.62627536895e-05
1.62627425628e-05
1.62627391071e-05
1.62627439409e-05
1.62627563692e-05
1.62627748303e-05
1.62627969807e-05
1.62628196388e-05
1.62628400684e-05
1.62628483413e-05
1.62628994291e-05
1.62628980806e-05
1.62628836915e-05
1.62628673444e-05
1.62628513426e-05
1.62628382302e-05
1.62628298253e-05
1.62628273028e-05
1.62628311506e-05
1.62628408091e-05
1.62628550807e-05
1.62628721499e-05
1.62628895372e-05
1.62629050453e-05
1.62629084307e-05
1.62629624501e-05
1.62629647625e-05
1.626295461e-05
1.62629430346e-05
1.62629317774e-05
1.62629225933e-05
1.62629167785e-05
1.62629151487e-05
1.6262918058e-05
1.6262925106e-05
1.62629354234e-05
1.6262947772e-05
1.62629604186e-05
1.62629716866e-05
1.62629713161e-05
1.6263027834e-05
1.6263031868e-05
1.62630248468e-05
1.62630172741e-05
1.62630101417e-05
1.62630044493e-05
1.62630009185e-05
1.62630000871e-05
1.62630021751e-05
1.62630068896e-05
1.62630137298e-05
1.62630219508e-05
1.62630306028e-05
1.62630387394e-05
1.62630365334e-05
1.62630929838e-05
1.62630964764e-05
1.62630923834e-05
1.62630883504e-05
1.62630847812e-05
1.62630819674e-05
1.6263080335e-05
1.62630801581e-05
1.62630815634e-05
1.62630843729e-05
1.62630883046e-05
1.62630929822e-05
1.62630980896e-05
1.62631032872e-05
1.62631015163e-05
1.62631224186e-05
1.62631402744e-05
1.62631449697e-05
1.62631489378e-05
1.62631518735e-05
1.62631538593e-05
1.62631551685e-05
1.62631559965e-05
1.62631563911e-05
1.6263156251e-05
1.62631553911e-05
1.62631535727e-05
1.62631506676e-05
1.62631470687e-05
1.62631307329e-05
1.4800069266e-05
1.48001154771e-05
1.4800168494e-05
1.48002207622e-05
1.48002669817e-05
1.48003027903e-05
1.48003252905e-05
1.48003324314e-05
1.48003234073e-05
1.48002990415e-05
1.48002614377e-05
1.4800213922e-05
1.48001611405e-05
1.48001090971e-05
1.48000628122e-05
1.4800106826e-05
1.48001524712e-05
1.4800205067e-05
1.48002573276e-05
1.48003037247e-05
1.48003397953e-05
1.48003625031e-05
1.48003697045e-05
1.48003605405e-05
1.48003358969e-05
1.48002979793e-05
1.4800250252e-05
1.48001975251e-05
1.48001457736e-05
1.48001007439e-05
1.48000916989e-05
1.48001323007e-05
1.48001801167e-05
1.48002287001e-05
1.4800272328e-05
1.48003065548e-05
1.48003281858e-05
1.48003350489e-05
1.48003262545e-05
1.48003027265e-05
1.48002667158e-05
1.48002217385e-05
1.48001726488e-05
1.48001252878e-05
1.48000855025e-05
1.48000670061e-05
1.48001025797e-05
1.48001458644e-05
1.480019045e-05
1.48002310318e-05
1.48002631514e-05
1.48002835333e-05
1.48002900032e-05
1.48002816632e-05
1.48002594509e-05
1.48002256232e-05
1.48001836867e-05
1.48001384469e-05
1.4800095395e-05
1.48000604739e-05
1.480004289e-05
1.48000738917e-05
1.4800113023e-05