/*--------------------------------*- C++ -*----------------------------------*\
  =========                 |
  \\      /  F ield         | OpenFOAM: The Open Source CFD Toolbox
   \\    /   O peration     | Website:  https://openfoam.org
    \\  /    A nd           | Version:  7
     \\/     M anipulation  |
\*---------------------------------------------------------------------------*/
FoamFile
{
    version     2.0;
    format      ascii;
    class       volVectorField;
    location    "2.28";
    object      U;
}
// * * * * * * * * * * * * * * * * * * * * * * * * * * * * * * * * * * * * * //

dimensions      [0 1 -1 0 0 0 0];

internalField   nonuniform List<vector> 
22500
(
(-4.24788818255e-05 -4.74352827945e-05 0.000241961938062)
(-3.96252517205e-05 -5.41966958808e-05 0.000251882417102)
(-3.52593909737e-05 -6.08540939716e-05 0.000259004482516)
(-2.96608158238e-05 -6.67794989983e-05 0.000263924480684)
(-2.30484977303e-05 -7.16704234657e-05 0.000267296717185)
(-1.57131570771e-05 -7.52959634717e-05 0.000269506115648)
(-7.88301844315e-06 -7.75186165053e-05 0.000270768310507)
(2.02395414825e-07 -7.82551754107e-05 0.000271217023219)
(8.28352616901e-06 -7.74738599425e-05 0.000270929632434)
(1.61010501297e-05 -7.52082228263e-05 0.000269826814391)
(2.34170906611e-05 -7.1542691772e-05 0.000267773122986)
(3.00045950823e-05 -6.66171261383e-05 0.000264550465672)
(3.55744177911e-05 -6.06623101102e-05 0.000259772100012)
(3.99101288876e-05 -5.39836590857e-05 0.000252779328927)
(4.27202178387e-05 -4.72203271927e-05 0.000242958829536)
(-0.000126291513263 -0.000140236037888 0.000132466809947)
(-0.000117457868344 -0.000160045549843 0.000101194437087)
(-0.000104616231686 -0.000179372546601 6.4497495542e-05)
(-8.81623726295e-05 -0.000196465048019 2.76444069997e-05)
(-6.86713217163e-05 -0.000210545589676 -5.05250790777e-06)
(-4.69127234774e-05 -0.000220998165145 -3.04972442609e-05)
(-2.35927528366e-05 -0.000227419187438 -4.65715245849e-05)
(5.33306539162e-07 -0.000229550573818 -5.19619492495e-05)
(2.4648931868e-05 -0.000227297045242 -4.61142214516e-05)
(4.79384938201e-05 -0.000220758237145 -2.95861837649e-05)
(6.96494657772e-05 -0.000210195738957 -3.69475457151e-06)
(8.90787172592e-05 -0.000196018882961 2.94358066138e-05)
(0.000105459419982 -0.000178845609796 6.67045687531e-05)
(0.000118218281513 -0.000159460561104 0.000103787179905)
(0.000126938373112 -0.000139640998903 0.000135370966918)
(-0.000205597279575 -0.000227134584216 -0.000497152585303)
(-0.000190202598836 -0.000258576320478 -0.000606629250533)
(-0.00016902072323 -0.000288544373163 -0.000718388861479)
(-0.000142256354323 -0.000314782693511 -0.000821799640002)
(-0.000110775227301 -0.000336264404109 -0.000909130628832)
(-7.5698918609e-05 -0.000352173565771 -0.000975018239683)
(-3.81390139034e-05 -0.00036194003162 -0.00101589018122)
(7.03766535589e-07 -0.000365187769963 -0.00102959467868)
(3.95351052829e-05 -0.000361777274893 -0.00101526005172)
(7.70616847419e-05 -0.000351852736889 -0.00097375776615)
(0.000112084797771 -0.000335794200043 -0.000907238560182)
(0.00014349546423 -0.000314178352225 -0.000819277995764)
(0.000170174477403 -0.000287825947822 -0.000715243647243)
(0.00019125351542 -0.000257772757375 -0.000602879128453)
(0.000206507454161 -0.000226306344215 -0.000492876325754)
(-0.000274829348477 -0.000302663326376 -0.00142911153367)
(-0.00025291807635 -0.000342977004787 -0.00161329159804)
(-0.000223929027648 -0.000380502835852 -0.00179089676241)
(-0.000187988128533 -0.000413059493561 -0.00194890893109)
(-0.000146178586898 -0.000439555361415 -0.00207871349871)
(-9.98390678178e-05 -0.000459125914784 -0.00217477560637)
(-5.03625093207e-05 -0.00047112884958 -0.00223363841921)
(7.36011498914e-07 -0.000475127568087 -0.00225330263609)
(5.18252297959e-05 -0.000470959113276 -0.00223295943006)
(0.000101274702117 -0.000458790329334 -0.00217341150914)
(0.000147570187379 -0.000439061011336 -0.00207664930737)
(0.000189319946964 -0.000412419121677 -0.00194612525129)
(0.000225186505321 -0.00037973475332 -0.00178737221592)
(0.000254078859433 -0.00034210862806 -0.00160901072037)
(0.000275856921846 -0.000301750439152 -0.00142411839377)
(-0.000331532604653 -0.000364572806463 -0.00243987823749)
(-0.000303715698642 -0.000410686722933 -0.00267071204494)
(-0.000267826870775 -0.000452764717666 -0.00288445056609)
(-0.00022418497117 -0.000489010088319 -0.00306939134767)
(-0.000174004156055 -0.000518378609114 -0.00321830823081)
(-0.000118734709803 -0.000540030882262 -0.00332696964563)
(-5.99333817097e-05 -0.000553302984583 -0.00339294964329)
(6.96016864427e-07 -0.000557731893831 -0.00341491043587)
(6.13186153868e-05 -0.000553144134603 -0.00339229251908)
(0.000120100151591 -0.000539716350861 -0.00332564505171)
(0.000175336941675 -0.000517913869829 -0.00321629070578)
(0.000225472535441 -0.000488405057414 -0.00306664321944)
(0.000269057085183 -0.000452033769983 -0.00288092414265)
(0.000304865296551 -0.000409853179426 -0.00266635539577)
(0.000332571777317 -0.000363677352943 -0.00243468605346)
(-0.000375715530576 -0.000413056457784 -0.00338208925945)
(-0.000342909216265 -0.000462210413657 -0.00362957841226)
(-0.000301227128614 -0.000506427029106 -0.00385197029974)
(-0.00025143402642 -0.000544301381806 -0.00404077847226)
(-0.000194786009461 -0.000574904681516 -0.00419084726284)
(-0.000132775238099 -0.000597444769499 -0.00429938570593)
(-6.70343430749e-05 -0.00061125825252 -0.00436492327441)
(6.38971579363e-07 -0.000615874024285 -0.00438668030722)
(6.83070585762e-05 -0.000611115538628 -0.00436430795288)
(0.0001340327639 -0.000597162276061 -0.00429814329978)
(0.000196018291494 -0.000574487249294 -0.00418894813127)
(0.000252631123385 -0.000543757399839 -0.00403817592703)
(0.000302379474101 -0.000505767931713 -0.00384860123431)
(0.000343994877926 -0.000461455764268 -0.00362536574336)
(0.000376713504896 -0.000412229719951 -0.00337698560194)
(-0.000408592254478 -0.000449409364008 -0.00419325959186)
(-0.000371764876295 -0.000499316341611 -0.00443723631239)
(-0.000325417557489 -0.000543845827067 -0.00465220924664)
(-0.000270926846671 -0.000581798679022 -0.00483283007824)
(-0.000209510894675 -0.000612416546991 -0.00497551020144)
(-0.000142657344571 -0.000634957808742 -0.00507831844568)
(-7.20142577602e-05 -0.000648771992998 -0.00514025688388)
(5.93074460899e-07 -0.000653392375711 -0.00516079263132)
(7.31957867595e-05 -0.000648644524246 -0.0051396765587)
(0.00014382541668 -0.0006347059217 -0.00507714670133)
(0.00021065661523 -0.00061204527287 -0.00497371814599)
(0.00027204160294 -0.000581316094596 -0.00483037018092)
(0.000326493565966 -0.000543261973343 -0.00464901418868)
(0.00037278207709 -0.000498648302379 -0.00443321740759)
(0.00040953708835 -0.000448666275723 -0.004188342908)
(-0.000431712250154 -0.000475192585302 -0.00486691591662)
(-0.000391740532638 -0.000523989428315 -0.00509797203956)
(-0.000341771668439 -0.000567420876379 -0.00529955256711)
(-0.00028386724002 -0.000604250019639 -0.00546841767103)
(-0.000219145959269 -0.000633936529802 -0.00560171332131)
(-0.000149054718352 -0.000655790171374 -0.00569776070354)
(-7.52154053807e-05 -0.000669183741196 -0.00575563283941)
(5.66594299461e-07 -0.000673665877177 -0.0057748136367)
(7.63439696724e-05 -0.000669068873949 -0.00575507305463)
(0.000150169733881 -0.000655563742426 -0.00569663173834)
(0.000220238517035 -0.000633604020691 -0.0055999895648)
(0.00028492898522 -0.000603819805451 -0.0054660554959)
(0.000342795479334 -0.000566902600857 -0.00529648768663)
(0.000392708205952 -0.00052339892407 -0.00509411373127)
(0.000432614863684 -0.000474529036087 -0.00486217753371)
(-0.000446517687108 -0.000491843738943 -0.00542173631179)
(-0.000404140222293 -0.000537995985138 -0.00563759580922)
(-0.000351475062953 -0.000579170269129 -0.00582549945273)
(-0.000291263954151 -0.00061389638952 -0.00598322450989)
(-0.000224486006088 -0.000641880133763 -0.00610800535286)
(-0.000152515272106 -0.000662483368541 -0.00619807384031)
(-7.6917637884e-05 -0.000675110905319 -0.00625240164474)
(5.58205044061e-07 -0.000679337397773 -0.00627040689733)
(7.80291469018e-05 -0.000675006351902 -0.00625184939788)
(0.000153612338513 -0.000662277748995 -0.0061969619283)
(0.000225559106751 -0.000641579261537 -0.00610631224266)
(0.000292304350523 -0.000613508905762 -0.00598091238344)
(0.000352475479545 -0.000578705803693 -0.00582251043967)
(0.000405083981092 -0.000537469339866 -0.00563384172839)
(0.000447397917011 -0.000491248916189 -0.00541712637861)
(-0.00045419722287 -0.000500558220356 -0.00588216865311)
(-0.000410021620162 -0.00054277858635 -0.0060839529809)
(-0.000355477273965 -0.00058068493654 -0.00626004437284)
(-0.000293913837873 -0.000612484063587 -0.00640844748986)
(-0.000226151005157 -0.000638119673776 -0.00652615927503)
(-0.000153462867833 -0.000657001321509 -0.00661125642037)
(-7.73375823183e-05 -0.000668572498615 -0.00666262658943)
(5.63651837718e-07 -0.00067244459909 -0.00667964666868)
(7.84596509296e-05 -0.000668476847175 -0.0066620729442)
(0.000154569419881 -0.000656813509073 -0.00661014357859)
(0.000227231736409 -0.000637845550779 -0.00652446967371)
(0.000294959326072 -0.000612132146115 -0.00640614945352)
(0.00035647963079 -0.000580264699154 -0.00625708748595)
(0.000410965258405 -0.000542303611556 -0.00608025274795)
(0.000455075588469 -0.000500020786578 -0.00587763334227)
(-0.00045569464565 -0.000502311576689 -0.00626982750284)
(-0.000410225286119 -0.000539490307831 -0.00645970710639)
(-0.000354538981642 -0.000573216399305 -0.00662612379126)
(-0.000292454518874 -0.000601396834063 -0.00676682069223)
(-0.000224631971019 -0.000624148493689 -0.00687851657728)
(-0.00015223021714 -0.000640914407495 -0.00695926715366)
(-7.664473006e-05 -0.000651184293411 -0.00700800327928)
(5.78662324059e-07 -0.000654618519109 -0.00702413680041)
(7.77965383601e-05 -0.000651096939464 -0.00700744327791)
(0.000153365575961 -0.000640743014985 -0.00695814317388)
(0.00022573984897 -0.000623898566211 -0.00687681451823)
(0.000293524788161 -0.00060107629841 -0.00676451469072)
(0.000355562946006 -0.000572834103237 -0.00662317102298)
(0.000411188182694 -0.0005390581644 -0.0064560264702)
(0.000456588991668 -0.00050182218634 -0.00626532522888)
(-0.000451756996631 -0.000497907281307 -0.00660120115312)
(-0.000405447034303 -0.000529051204687 -0.00678138571806)
(-0.000349306625264 -0.000557788277965 -0.00693986195805)
(-0.000287425096394 -0.000581798492751 -0.00707381616192)
(-0.00022033514466 -0.000601233372515 -0.00717990841372)
(-0.000149088085324 -0.000615553534736 -0.00725644338425)
(-7.49758453358e-05 -0.00062431296285 -0.00730256689692)
(5.99802558633e-07 -0.000627237622019 -0.00731781217776)
(7.61697390387e-05 -0.000624233905628 -0.0073019988396)
(0.000150264876447 -0.000615398353122 -0.00725530444785)
(0.000221483243367 -0.000601006938766 -0.00717818724135)
(0.000288533760673 -0.000581507674424 -0.00707149205112)
(0.00035036638538 -0.000557440761095 -0.00693689977138)
(0.000406443740792 -0.000528656760608 -0.0067777081241)
(0.000452681565311 -0.000497460207617 -0.00659670894311)
(-0.000442990943556 -0.000487893227876 -0.00688806852135)
(-0.000396356912627 -0.00051214457802 -0.00706074474969)
(-0.000340387560685 -0.000535278453802 -0.00721249489766)
(-0.000279302707369 -0.000554737993956 -0.00733992988416)
(-0.000213601864392 -0.000570516281541 -0.00744020615949)
(-0.000144258167116 -0.000582109569184 -0.00751222805914)
(-7.24419197549e-05 -0.000589176087335 -0.00755551693292)
(6.24422774387e-07 -0.000591528719216 -0.00756979445267)
(7.36849982014e-05 -0.000589105642965 -0.00755494183563)
(0.000145483804929 -0.000581971117568 -0.00751107563968)
(0.000214798106564 -0.000570313859004 -0.00743846686663)
(0.000280458386624 -0.000554477070932 -0.00733758707517)
(0.000341492539758 -0.000534965052643 -0.00720952116435)
(0.00039739749274 -0.000511785736289 -0.00705706962417)
(0.000443956026432 -0.000487485919821 -0.00688358730362)
(-0.000430239257606 -0.000472471996576 -0.00713856867239)
(-0.000383871301156 -0.000489114785382 -0.00730662628957)
(-0.000328413959276 -0.000506378507276 -0.00745218176488)
(-0.000268522440822 -0.000521092170854 -0.00757251587269)
(-0.000204732295338 -0.000532957603041 -0.00766623420512)
(-0.000137939463119 -0.000541601967456 -0.00773314328342)
(-6.91453813908e-05 -0.000546835998861 -0.00777322299568)
(6.50477355004e-07 -0.000548569824111 -0.00778640769541)
(7.04405869322e-05 -0.000546774297332 -0.00777264443312)
(0.00013921714627 -0.000541480511061 -0.0077319837854)
(0.000205980324311 -0.00053277944663 -0.0076644849377)
(0.000269729396624 -0.000520861387689 -0.00757016232336)
(0.000329569313499 -0.000506099264104 -0.00744920305189)
(0.0003849616204 -0.000488790932012 -0.00730296330541)
(0.00043125340032 -0.000472101633238 -0.00713412540423)
(-0.000416109059515 -0.000452855559762 -0.00735672184932)
(-0.000369771533693 -0.000460134470271 -0.00752543657538)
(-0.00031449007184 -0.000471843401705 -0.00766398480636)
(-0.00025599236129 -0.000481559772231 -0.00777614528074)
(-0.000194460358489 -0.000489247268364 -0.00786253200306)
(-0.000130663689894 -0.000494757103934 -0.00792383297974)
(-6.5367111564e-05 -0.000498059996494 -0.00796042833205)
(6.76562187898e-07 -0.000499144592421 -0.00797243482139)
(6.67145189043e-05 -0.000498006832 -0.00795985220754)
(0.000131993622301 -0.000494652179506 -0.00792267744093)
(0.000195760555334 -0.000489092743001 -0.00786078833538)
(0.000257251103571 -0.000481358520408 -0.00777379888323)
(0.000315696628902 -0.000471598167118 -0.0076610179945)
(0.000370911442493 -0.000459845697874 -0.00752178532814)
(0.000417177297436 -0.000452520752962 -0.00735238901903)
(2.32419813143e-06 3.23858520721e-06 -0.000223739315119)
(1.90516575551e-06 4.12867149143e-06 -0.000234638174463)
(1.534433972e-06 4.82677516329e-06 -0.000244537399433)
(1.21874814785e-06 5.36574517156e-06 -0.000253178001122)
(8.87039391924e-07 5.78378430778e-06 -0.000260258696901)
(5.69439073009e-07 6.0748853638e-06 -0.00026551484753)
(2.62568070751e-07 6.24499421796e-06 -0.000268753645684)
(-3.53382448677e-08 6.29810518805e-06 -0.000269854586281)
(-3.33014977162e-07 6.23496024668e-06 -0.00026874796428)
(-6.39433006437e-07 6.05464547934e-06 -0.000265502801717)
(-9.57532690542e-07 5.75320364825e-06 -0.000260238567209)
(-1.28989875769e-06 5.3257517388e-06 -0.000253147036476)
(-1.60509216683e-06 4.7775234474e-06 -0.000244493075822)
(-1.97342700631e-06 4.07367917942e-06 -0.00023457822336)
(-2.38101836645e-06 3.18470263408e-06 -0.000223665125203)
(1.61113075537e-05 1.93148931198e-05 -0.000684737971636)
(1.47678609027e-05 2.32503610783e-05 -0.00071878632863)
(1.30127137962e-05 2.68156479675e-05 -0.000749901550875)
(1.09784238753e-05 2.98445601652e-05 -0.000777120574738)
(8.54293216034e-06 3.23112907878e-05 -0.000799465382386)
(5.82478680255e-06 3.41179739984e-05 -0.000816080751316)
(2.90946163366e-06 3.52168180586e-05 -0.000826328075795)
(-1.02400040701e-07 3.55781827448e-05 -0.000829803686583)
(-3.11367521541e-06 3.51907100577e-05 -0.000826314447652)
(-6.02765168719e-06 3.40655251922e-05 -0.000816051280339)
(-8.74567197974e-06 3.22327552165e-05 -0.000799414579275)
(-1.11816718912e-05 2.97425062533e-05 -0.00077703973967)
(-1.32135097173e-05 2.66918179751e-05 -0.000749782260449)
(-1.49606360351e-05 2.31131352931e-05 -0.000718621153728)
(-1.62754457733e-05 1.91799405284e-05 -0.000684529332664)
(3.40100241308e-05 3.96132649987e-05 -0.00115086274068)
(3.13957514164e-05 4.64819755138e-05 -0.00120812656528)
(2.77387135322e-05 5.28367890647e-05 -0.00126050222648)
(2.33641506857e-05 5.82426985081e-05 -0.00130630427222)
(1.81797030331e-05 6.2619805054e-05 -0.00134388396613)
(1.24033693788e-05 6.58155131989e-05 -0.0013718179989)
(6.22089709301e-06 6.77549438862e-05 -0.00138903743727)
(-1.63225259636e-07 6.83940269289e-05 -0.00139486727911)
(-6.54650862043e-06 6.77168447803e-05 -0.00138901263625)
(-1.27267754129e-05 6.57391684765e-05 -0.00137176495665)
(-1.85015450228e-05 6.25062348818e-05 -0.00134379431734)
(-2.36850327851e-05 5.80959273545e-05 -0.00130616490777)
(-2.80550326026e-05 5.26614814953e-05 -0.00126029981611)
(-3.1699385729e-05 4.62891012993e-05 -0.00120784951065)
(-3.42742560642e-05 3.94243224975e-05 -0.0011505155699)
(5.10727141642e-05 5.86852870878e-05 -0.00161462586548)
(4.68558963319e-05 6.74424619492e-05 -0.00169373889103)
(4.11241577043e-05 7.55405920659e-05 -0.00176596163484)
(3.4379578948e-05 8.23318094969e-05 -0.0018290153579)
(2.65997503768e-05 8.77537475309e-05 -0.00188067452729)
(1.80759073377e-05 9.16686109997e-05 -0.00191903448312)
(9.05344407316e-06 9.4026014225e-05 -0.0019426599792)
(-2.14474694158e-07 9.47997653415e-05 -0.00195064605181)
(-9.4816197184e-06 9.39810711696e-05 -0.00194261953198)
(-1.85018152335e-05 9.15788247389e-05 -0.00191894965214)
(-2.70234920124e-05 8.76207463132e-05 -0.00188053577558)
(-3.48015016103e-05 8.2160238274e-05 -0.00182880782949)
(-4.15404981268e-05 7.53370212604e-05 -0.00176566952021)
(-4.7256860404e-05 6.72185408609e-05 -0.00169334759204)
(-5.14287631685e-05 5.84654310958e-05 -0.00161414471575)
(6.41995375686e-05 7.3073038949e-05 -0.00206838490527)
(5.82548679154e-05 8.24568307291e-05 -0.00216712977898)
(5.065698744e-05 9.10478138414e-05 -0.00225707026703)
(4.19754641223e-05 9.81127519172e-05 -0.00233548948933)
(3.22545649778e-05 0.00010365903721 -0.00239967422557)
(2.18099382876e-05 0.000107609768822 -0.00244730386414)
(1.08929100433e-05 0.000109966222824 -0.00247662137445)
(-2.53206771239e-07 0.000110734693096 -0.00248651896793)
(-1.13988268904e-05 0.000109918206159 -0.00247655879933)
(-2.23141657725e-05 0.000107514141448 -0.00244717526242)
(-3.27569697029e-05 0.00010351770843 -0.00239947101015)
(-4.24761513258e-05 9.79304864533e-05 -0.00233519823804)
(-5.11522074375e-05 9.08318980757e-05 -0.00225667622164)
(-5.87345416541e-05 8.22190412859e-05 -0.00216661832882)
(-6.46333437805e-05 7.28381606273e-05 -0.00206776996358)
(7.27364430185e-05 8.21017045865e-05 -0.00250720330656)
(6.51956616515e-05 9.12018880313e-05 -0.00262329588335)
(5.61704828034e-05 9.93998467628e-05 -0.00272886573882)
(4.61566278694e-05 0.000106012895867 -0.00282086285738)
(3.52407455671e-05 0.000111119384988 -0.00289613435356)
(2.37187788134e-05 0.000114709216994 -0.00295197731033)
(1.18116702112e-05 0.000116830671913 -0.00298633918517)
(-2.79051623724e-07 0.000117517529274 -0.00299792728548)
(-1.2369648178e-05 0.000116782274413 -0.00298624743494)
(-2.42759951279e-05 0.000114613023485 -0.00295179173346)
(-3.5797061826e-05 0.00011097736062 -0.00289584916481)
(-4.67120605237e-05 0.000105829636448 -0.00282046883232)
(-5.67214275185e-05 9.91826467706e-05 -0.00272835255033)
(-6.57327732006e-05 9.09619689963e-05 -0.00262265192717)
(-7.32308020129e-05 8.18629323605e-05 -0.00250644753676)
(7.72676432356e-05 8.65228819492e-05 -0.00292881002242)
(6.84423761614e-05 9.48700676014e-05 -0.00306015234254)
(5.84896073603e-05 0.000102222894015 -0.0031794371427)
(4.77184181382e-05 0.000108059661786 -0.0032833569015)
(3.62359741236e-05 0.000112500104848 -0.00336835990906)
(2.42933313607e-05 0.000115585629675 -0.00343140278902)
(1.206622635e-05 0.000117394194492 -0.00347017891556)
(-2.93968954453e-07 0.000117975595263 -0.00348324149608)
(-1.26544214777e-05 0.000117347474558 -0.00347005213576)
(-2.48817735067e-05 0.000115492832231 -0.00343114914535)
(-3.68246803048e-05 0.000112363090842 -0.00336797764584)
(-4.8307393246e-05 0.000107882554562 -0.00328284284907)
(-5.90756491395e-05 0.000102012612463 -0.00317878780944)
(-6.90171524066e-05 9.46366488284e-05 -0.00305936148325)
(-7.78054080113e-05 8.628845025e-05 -0.00292790204129)
(7.87399090377e-05 8.74912896959e-05 -0.0033321957108)
(6.90055915882e-05 9.49253508425e-05 -0.00347672178935)
(5.85712998206e-05 0.000101273986104 -0.0036077648075)
(4.74996064386e-05 0.000106251885153 -0.00372185668768)
(3.59080395831e-05 0.000109988179063 -0.00381511270598)
(2.39953740708e-05 0.000112557870664 -0.0038842233628)
(1.18909444166e-05 0.000114053233946 -0.00392669922042)
(-3.01000788887e-07 0.000114530689342 -0.00394099058958)
(-1.24935358837e-05 0.000114009698508 -0.00392653363182)
(-2.45991074437e-05 0.000112471378256 -0.00388389441652)
(-3.65131353265e-05 0.000109860350012 -0.00381462329294)
(-4.81060746379e-05 0.000106086228834 -0.0037212106141)
(-5.91764327425e-05 0.000101076674166 -0.00360696675176)
(-6.96023059339e-05 9.47050804083e-05 -0.00347577214603)
(-7.93063030345e-05 8.72671961198e-05 -0.00333112438927)
(7.80468451573e-05 8.60748338217e-05 -0.00371645525545)
(6.77564135838e-05 9.25956285996e-05 -0.00387192369589)
(5.71868587134e-05 9.79312609765e-05 -0.004012544674)
(4.61427442739e-05 0.000102074211872 -0.0041348229634)
(3.47493884982e-05 0.000105143017661 -0.0042346307298)
(2.3156371397e-05 0.000107233183768 -0.00430849452918)
(1.1451055725e-05 0.000108441280611 -0.0043538367333)
(-3.03172061081e-07 0.00010882445935 -0.00436907071479)
(-1.20582297091e-05 0.000108401922792 -0.00435363065149)
(-2.3765349678e-05 0.000107154929823 -0.00430808699381)
(-3.5360563563e-05 0.000105027150853 -0.00423402942523)
(-4.67561510272e-05 0.000101923544011 -0.00413403889152)
(-5.78002293255e-05 9.77509651246e-05 -0.00401159115682)
(-6.83639405109e-05 9.2392936152e-05 -0.00387080811622)
(-7.86306719327e-05 8.58653452105e-05 -0.00371521258387)
(7.58902745422e-05 8.30960397398e-05 -0.00408032497174)
(6.53329166014e-05 8.87609909373e-05 -0.00424424779976)
(5.48745853271e-05 9.31353677587e-05 -0.00439204193128)
(4.4081362052e-05 9.64997503528e-05 -0.00452032018689)
(3.30846182551e-05 9.89565165304e-05 -0.00462480191948)
(2.19914566855e-05 0.000100613178495 -0.00470196550201)
(1.08526892023e-05 0.000101564283903 -0.00474925280089)
(-3.02889505388e-07 0.000101863890756 -0.00476511379392)
(-1.1459437433e-05 0.000101529662247 -0.00474900624831)
(-2.26004151048e-05 0.000100544244551 -0.00470147931604)
(-3.36962886226e-05 9.88541612668e-05 -0.00462408837303)
(-4.46957684195e-05 9.6366046295e-05 -0.004519397226)
(-5.54898278384e-05 9.29743892467e-05 -0.00439093140695)
(-6.59442427238e-05 8.85784452536e-05 -0.0042429637366)
(-7.64838441984e-05 8.29038722451e-05 -0.00407890661492)
(7.27692910272e-05 7.91296982012e-05 -0.00442220383323)
(6.21626257205e-05 8.39965651448e-05 -0.00459193912324)
(5.19826572674e-05 8.74738882357e-05 -0.00474443774308)
(4.15904760595e-05 9.01160295309e-05 -0.00487647935587)
(3.11179919113e-05 9.20140983874e-05 -0.00498369992512)
(2.06355375879e-05 9.32806588366e-05 -0.00506265768476)
(1.01622586394e-05 9.40029778173e-05 -0.00511093411547)
(-3.01770914003e-07 9.422882553e-05 -0.00512709498528)
(-1.07668238375e-05 9.39733182562e-05 -0.00511064838522)
(-2.1242499528e-05 9.32214854096e-05 -0.00506209515185)
(-3.17279086436e-05 9.19258755625e-05 -0.00498287693968)
(-4.220335071e-05 9.00000752933e-05 -0.00487542019977)
(-5.25968584429e-05 8.73331107016e-05 -0.00474317233506)
(-6.27741916331e-05 8.38351697492e-05 -0.00459048731291)
(-7.33678834987e-05 7.89560691063e-05 -0.00442060812723)
(6.90103078223e-05 7.45503674114e-05 -0.00474034192867)
(5.85121306623e-05 7.8646802927e-05 -0.00491334608333)
(4.87267336575e-05 8.1279067762e-05 -0.00506828698614)
(3.88421035968e-05 8.32459141617e-05 -0.00520198275917)
(2.89794450346e-05 8.46336758965e-05 -0.00531005666982)
(1.91755766821e-05 8.55507437306e-05 -0.00538931734127)
(9.422977543e-06 8.60708610389e-05 -0.00543763059102)
(-3.00714882112e-07 8.62320640021e-05 -0.0054537653199)
(-1.00254193278e-05 8.60461891003e-05 -0.0054373079707)
(-1.97804517363e-05 8.55013421082e-05 -0.00538868255702)
(-2.95873472903e-05 8.45596027234e-05 -0.00530912928534)
(-3.94530230593e-05 8.31477247287e-05 -0.00520079240301)
(-4.93392599365e-05 8.11585230343e-05 -0.00506687098452)
(-5.91228815595e-05 7.85067145915e-05 -0.00491172922515)
(-6.9611712554e-05 7.43960731627e-05 -0.00473856850536)
(6.47944317483e-05 6.95665991283e-05 -0.00503298185887)
(5.45347359035e-05 7.28739210929e-05 -0.00520732547904)
(4.52458439073e-05 7.46989952366e-05 -0.00536298636293)
(3.59562583934e-05 7.60351177625e-05 -0.00549645263945)
(2.67641609628e-05 7.69648146698e-05 -0.00560356237764)
(1.76770546262e-05 7.75767049872e-05 -0.00568165435524)
(8.66790749697e-06 7.79229484665e-05 -0.00572906013796)
(-3.0004641766e-07 7.80293027322e-05 -0.00574484571175)
(-9.26898878123e-06 7.79031372951e-05 -0.00572870391917)
(-1.82805221678e-05 7.75368553736e-05 -0.00568095317951)
(-2.73706368538e-05 7.69046258387e-05 -0.00560253767675)
(-3.65657713621e-05 7.59543980839e-05 -0.00549513778163)
(-4.58571427165e-05 7.45983344868e-05 -0.00536142521865)
(-5.51448384047e-05 7.27547971596e-05 -0.00520554782467)
(-6.53978921831e-05 6.94321667246e-05 -0.00503103276199)
(6.02098217852e-05 6.42355620299e-05 -0.00529834162278)
(5.03552159014e-05 6.67649504353e-05 -0.00547394506451)
(4.16834570509e-05 6.77924067899e-05 -0.00562933746752)
(3.30584275175e-05 6.85515606311e-05 -0.00576073914712)
(2.45710048825e-05 6.9082169829e-05 -0.00586499857288)
(1.62068457748e-05 6.94350563449e-05 -0.00594040143507)
(7.93065110757e-06 6.96356581952e-05 -0.00598593501936)
(-2.9974419438e-07 6.9696312233e-05 -0.0060010440182)
(-8.53104627135e-06 6.96204659248e-05 -0.00598554987507)
(-1.68094642025e-05 6.94043149087e-05 -0.00593964223876)
(-2.51765318663e-05 6.90352662898e-05 -0.00586388665763)
(-3.36670638383e-05 6.8487666722e-05 -0.00575930881667)
(-4.22941695658e-05 6.77110236598e-05 -0.00562763718335)
(-5.09651546509e-05 6.66659264846e-05 -0.00547201210854)
(-6.08151439064e-05 6.41202736269e-05 -0.00529622522943)
(5.52799383905e-05 5.93382524928e-05 -0.00553531659167)
(4.61854643658e-05 6.04769009985e-05 -0.00571698142703)
(3.82188321677e-05 6.07034546669e-05 -0.00587026317353)
(3.02875297083e-05 6.09098354491e-05 -0.00599703826106)
(2.25010414588e-05 6.10463355355e-05 -0.00609618798192)
(1.48304871471e-05 6.11359613173e-05 -0.00616722636051)
(7.24340733802e-06 6.11847344315e-05 -0.00620986963933)
(-2.99570378164e-07 6.11967959547e-05 -0.0062239636205)
(-7.84335534705e-06 6.11737549317e-05 -0.0062094627763)
(-1.54323896769e-05 6.11136806648e-05 -0.00616642252352)
(-2.31055342622e-05 6.10119401461e-05 -0.00609500612233)
(-3.08949690315e-05 6.08621783691e-05 -0.00599550931332)
(-3.88288225015e-05 6.06410310335e-05 -0.00586843603891)
(-4.67952046461e-05 6.03979411666e-05 -0.00571489043584)
(-5.58875797623e-05 5.92411478782e-05 -0.00553307373207)
(-6.22923473926e-07 -1.20209561882e-06 -0.000389146709008)
(-2.27632561783e-07 -1.66052646783e-06 -0.000408937994279)
(2.64636359105e-08 -1.92344388053e-06 -0.000427145905918)
(1.92013929595e-07 -2.06877472262e-06 -0.000443048885226)
(2.56261237819e-07 -2.13201666372e-06 -0.000456040981059)
(2.2702888232e-07 -2.14703965389e-06 -0.00046565331684)
(1.26218045785e-07 -2.14326297039e-06 -0.000471558045332)
(-1.40318986949e-08 -2.14035527985e-06 -0.000473556787758)
(-1.53473653172e-07 -2.14513474977e-06 -0.000471541455704)
(-2.51895697654e-07 -2.15040999286e-06 -0.000465620356006)
(-2.77328911348e-07 -2.13629214308e-06 -0.000455992129593)
(-2.09019099343e-07 -2.07343345505e-06 -0.000442984683838)
(-3.86933696917e-08 -1.92667589801e-06 -0.000427066594067)
(2.21534033454e-07 -1.66168019338e-06 -0.000408843783783)
(6.21297634239e-07 -1.20135346904e-06 -0.000389033465639)
(-2.20874534136e-06 -3.62712921256e-06 -0.00110225092791)
(-1.21361441358e-06 -4.78207443333e-06 -0.00115418545245)
(-5.13885515215e-07 -5.50375218646e-06 -0.00120185520196)
(-2.86905301194e-08 -5.93240331064e-06 -0.0012433837902)
(2.28845977452e-07 -6.14791514717e-06 -0.00127724173905)
(2.78149294097e-07 -6.23057931771e-06 -0.00130225381028)
(1.68090456524e-07 -6.24965480462e-06 -0.00131759894225)
(-2.95758009699e-08 -6.25177065887e-06 -0.00132277785014)
(-2.25543462686e-07 -6.25322103078e-06 -0.0013175495335)
(-3.30633742017e-07 -6.23688683942e-06 -0.00130215558569)
(-2.73538981799e-07 -6.15573597063e-06 -0.00127709602272)
(-7.08659915679e-09 -5.94051582715e-06 -0.00124319218876)
(4.88475175073e-07 -5.50862623264e-06 -0.00120161871309)
(1.2012317577e-06 -4.78242385472e-06 -0.00115390466043)
(2.20642894113e-06 -3.62324550818e-06 -0.0011019180333)
(-4.12789672525e-06 -6.12746963058e-06 -0.00174748301589)
(-2.70235222062e-06 -7.81254052552e-06 -0.001824955188)
(-1.63549702519e-06 -8.93760611363e-06 -0.00189584705114)
(-8.4139296159e-07 -9.65267797866e-06 -0.00195747365162)
(-3.27081330809e-07 -1.00582925749e-05 -0.00200763634572)
(-6.56904873068e-08 -1.02574122832e-05 -0.00204464991089)
(3.01241119579e-09 -1.03380070232e-05 -0.00206733574541)
(-3.39317473069e-08 -1.03591123642e-05 -0.00207497728461)
(-6.89295581306e-08 -1.03411289018e-05 -0.0020672551026)
(5.35886043147e-09 -1.0262714006e-05 -0.00204448943372)
(2.7544544138e-07 -1.006453396e-05 -0.00200739786551)
(8.00089727772e-07 -9.65847774943e-06 -0.00195715958195)
(1.60647625473e-06 -8.93934125251e-06 -0.00189545950038)
(2.68863966958e-06 -7.80864235882e-06 -0.00182449535247)
(4.12685070547e-06 -6.11903127426e-06 -0.00174694158069)
(-5.78050355938e-06 -8.10975863725e-06 -0.0023318810008)
(-4.05629322855e-06 -1.00880983739e-05 -0.00242963359044)
(-2.71748530419e-06 -1.14442319444e-05 -0.00251881070162)
(-1.67771792066e-06 -1.23276274401e-05 -0.00259621468611)
(-9.372216786e-07 -1.28481437134e-05 -0.0026591576337)
(-4.63637548754e-07 -1.31202209394e-05 -0.00270557089625)
(-1.92045031177e-07 -1.32406800697e-05 -0.0027340010973)
(-3.08360680014e-08 -1.32740462992e-05 -0.00274356456958)
(1.32200361818e-07 -1.32425499143e-05 -0.00273389094666)
(4.08924427003e-07 -1.31231491672e-05 -0.00270535151359)
(8.90447280334e-07 -1.28510749466e-05 -0.00265883109822)
(1.64071759469e-06 -1.23292888131e-05 -0.00259578403931)
(2.69244189227e-06 -1.14415269977e-05 -0.00251827938334)
(4.04609434046e-06 -1.00795286624e-05 -0.0024290038361)
(5.78310392997e-06 -8.09683512701e-06 -0.00233114398317)
(-7.10830531345e-06 -9.5804787996e-06 -0.00286331667269)
(-5.180957302e-06 -1.1676497675e-05 -0.00297735703791)
(-3.64857299373e-06 -1.31233159165e-05 -0.00308110868574)
(-2.42105110113e-06 -1.40726398393e-05 -0.0031710804014)
(-1.49501883552e-06 -1.46380299691e-05 -0.00324421196259)