/*--------------------------------*- C++ -*----------------------------------*\
  =========                 |
  \\      /  F ield         | OpenFOAM: The Open Source CFD Toolbox
   \\    /   O peration     | Website:  https://openfoam.org
    \\  /    A nd           | Version:  7
     \\/     M anipulation  |
\*---------------------------------------------------------------------------*/
FoamFile
{
    version     2.0;
    format      ascii;
    class       volScalarField;
    location    "2";
    object      p;
}
// * * * * * * * * * * * * * * * * * * * * * * * * * * * * * * * * * * * * * //

dimensions      [0 2 -2 0 0 0 0];

internalField   nonuniform List<scalar> 
22500
(
-3.66201105439e-06
-3.66170266328e-06
-3.66146887616e-06
-3.6611981535e-06
-3.66097119361e-06
-3.66079755057e-06
-3.66069022121e-06
-3.66065424802e-06
-3.66069292893e-06
-3.66080296211e-06
-3.66097935186e-06
-3.66120907194e-06
-3.66148291961e-06
-3.66171945265e-06
-3.66203543832e-06
-3.65956698803e-06
-3.65914157825e-06
-3.65880633762e-06
-3.65844299336e-06
-3.65813690048e-06
-3.65790289955e-06
-3.65775783136e-06
-3.65770921776e-06
-3.65776080048e-06
-3.65790883298e-06
-3.65814583093e-06
-3.65845493772e-06
-3.65882163213e-06
-3.65915979237e-06
-3.65959266198e-06
-3.65729085917e-06
-3.65676737893e-06
-3.65635029547e-06
-3.65591058294e-06
-3.65554008996e-06
-3.65525674096e-06
-3.65508078197e-06
-3.65502178205e-06
-3.65508396539e-06
-3.65526310073e-06
-3.65554964849e-06
-3.65592334564e-06
-3.65636658729e-06
-3.65678659584e-06
-3.65731756401e-06
-3.65532633705e-06
-3.65472899225e-06
-3.65424776499e-06
-3.65375019894e-06
-3.65333072482e-06
-3.65300998847e-06
-3.65281061421e-06
-3.65274375273e-06
-3.65281399937e-06
-3.65301674766e-06
-3.65334086457e-06
-3.65376369861e-06
-3.65426491616e-06
-3.65474902017e-06
-3.65535391432e-06
-3.65355257969e-06
-3.65289813493e-06
-3.65236344893e-06
-3.65182042692e-06
-3.65136204634e-06
-3.651011834e-06
-3.65079401699e-06
-3.65072099422e-06
-3.65079761955e-06
-3.65101902023e-06
-3.6513728025e-06
-3.65183469917e-06
-3.65238146257e-06
-3.65291899398e-06
-3.65358109317e-06
-3.65193055648e-06
-3.65123382108e-06
-3.65065560804e-06
-3.65007826436e-06
-3.64959018999e-06
-3.64921773023e-06
-3.64898604114e-06
-3.6489084204e-06
-3.64898987883e-06
-3.64922537812e-06
-3.64960160825e-06
-3.65009336408e-06
-3.65067451955e-06
-3.65125558778e-06
-3.65196014244e-06
-3.65045743657e-06
-3.64973245683e-06
-3.64912092258e-06
-3.6485202026e-06
-3.64801173205e-06
-3.64762431575e-06
-3.64738339219e-06
-3.64730276421e-06
-3.64738748514e-06
-3.64763246317e-06
-3.6480238661e-06
-3.64853619571e-06
-3.64914079641e-06
-3.64975522532e-06
-3.65048823298e-06
-3.64912962309e-06
-3.64838907076e-06
-3.64775430198e-06
-3.6471407418e-06
-3.64662110311e-06
-3.64622598246e-06
-3.64598046712e-06
-3.64589843053e-06
-3.64598483696e-06
-3.64623467171e-06
-3.64663401674e-06
-3.64715771172e-06
-3.64777523173e-06
-3.64841298357e-06
-3.64916179098e-06
-3.64794009246e-06
-3.64719483428e-06
-3.64654662675e-06
-3.64593037264e-06
-3.64540875625e-06
-3.64501318157e-06
-3.64476774375e-06
-3.64468591057e-06
-3.64477241426e-06
-3.64502246207e-06
-3.64542252578e-06
-3.64594842696e-06
-3.64656874607e-06
-3.6472200857e-06
-3.6479738501e-06
-3.64687985518e-06
-3.64613848281e-06
-3.64548633894e-06
-3.64487738098e-06
-3.64436311622e-06
-3.64397447992e-06
-3.64373389016e-06
-3.64365391036e-06
-3.6437388872e-06
-3.64398440636e-06
-3.64437783258e-06
-3.64489665121e-06
-3.64550982788e-06
-3.64616532702e-06
-3.64691550113e-06
-3.64593680989e-06
-3.64520514239e-06
-3.64455856395e-06
-3.64396719775e-06
-3.64347004806e-06
-3.64309606967e-06
-3.64286529863e-06
-3.64278888694e-06
-3.64287064731e-06
-3.64310669779e-06
-3.64348580919e-06
-3.64398783862e-06
-3.64458364693e-06
-3.64523389647e-06
-3.64597476172e-06
-3.64509180323e-06
-3.64437394792e-06
-3.64374387349e-06
-3.64318158359e-06
-3.64271213539e-06
-3.64236106964e-06
-3.64214537046e-06
-3.64207433542e-06
-3.64215108879e-06
-3.64237244596e-06
-3.6427290332e-06
-3.64320375473e-06
-3.64377080273e-06
-3.64440496271e-06
-3.64513253108e-06
-3.6443091505e-06
-3.64361478242e-06
-3.64301760252e-06
-3.64249845791e-06
-3.6420686551e-06
-3.64174955006e-06
-3.64155460182e-06
-3.64149086071e-06
-3.64156068941e-06
-3.64176167952e-06
-3.64208673086e-06
-3.64252227612e-06
-3.64304661872e-06
-3.64364838147e-06
-3.64435293962e-06
-3.64353859781e-06
-3.64288848902e-06
-3.64234653149e-06
-3.64188858263e-06
-3.64151259947e-06
-3.64123611927e-06
-3.64106849601e-06
-3.64101427683e-06
-3.64107492448e-06
-3.64124895825e-06
-3.64153181671e-06
-3.64191408696e-06
-3.64237786062e-06
-3.64292517814e-06
-3.64358531996e-06
-3.64282358665e-06
-3.64213701764e-06
-3.64167993358e-06
-3.64129978353e-06
-3.64099274062e-06
-3.64077067802e-06
-3.6406376963e-06
-3.64059546367e-06
-3.64064455875e-06
-3.64078440945e-06
-3.64101337949e-06
-3.64132741679e-06
-3.64171445974e-06
-3.64217819126e-06
-3.64287314972e-06
-3.32029596845e-06
-3.32031493141e-06
-3.32033355675e-06
-3.32035078873e-06
-3.3203654478e-06
-3.32037645994e-06
-3.32038324326e-06
-3.32038545527e-06
-3.32038292726e-06
-3.32037585264e-06
-3.32036461443e-06
-3.32034977995e-06
-3.3203323076e-06
-3.32031329069e-06
-3.32029372106e-06
-3.32032972149e-06
-3.32034923787e-06
-3.32036904791e-06
-3.32038749952e-06
-3.320403256e-06
-3.32041512536e-06
-3.32042246137e-06
-3.3204248784e-06
-3.3204221774e-06
-3.32041458415e-06
-3.32040252148e-06
-3.32038662839e-06
-3.32036798488e-06
-3.32034777801e-06
-3.32032769453e-06
-3.32032971515e-06
-3.32034693963e-06
-3.32036499387e-06
-3.32038201295e-06
-3.32039665144e-06
-3.32040772165e-06
-3.32041458438e-06
-3.32041685323e-06
-3.32041432207e-06
-3.32040721775e-06
-3.32039595436e-06
-3.32038116587e-06
-3.32036396041e-06
-3.32034550534e-06
-3.32032780036e-06
-3.32032106375e-06
-3.32033551639e-06
-3.32035119988e-06
-3.32036604149e-06
-3.32037887681e-06
-3.32038860525e-06
-3.32039464544e-06
-3.32039664361e-06
-3.32039440284e-06
-3.32038813387e-06
-3.32037820869e-06
-3.32036520388e-06
-3.32035017203e-06
-3.3203340989e-06
-3.32031925398e-06
-3.3203093466e-06
-3.32032069666e-06
-3.32033365465e-06
-3.32034585607e-06
-3.32035644659e-06
-3.32036446967e-06
-3.32036944942e-06
-3.3203710934e-06
-3.32036922639e-06
-3.32036403268e-06
-3.32035581515e-06
-3.32034504607e-06
-3.32033264849e-06
-3.320319313e-06
-3.32030764578e-06
-3.32029251444e-06
-3.3203002735e-06
-3.32031003022e-06
-3.32031911537e-06
-3.32032702303e-06
-3.32033299472e-06
-3.32033669221e-06
-3.32033790654e-06
-3.32033649083e-06
-3.32033259714e-06
-3.32032643806e-06
-3.32031834868e-06
-3.32030906475e-06
-3.32029893255e-06
-3.32029094618e-06
-3.32026968607e-06
-3.32027344595e-06
-3.32027964901e-06
-3.32028531e-06
-3.32029025859e-06
-3.32029396716e-06
-3.32029624854e-06
-3.32029698684e-06
-3.32029606879e-06
-3.32029360928e-06
-3.32028972381e-06
-3.32028459465e-06
-3.32027873682e-06
-3.32027215588e-06
-3.32026825713e-06
-3.32024125412e-06
-3.32024082605e-06
-3.32024334806e-06
-3.32024551689e-06
-3.32024745673e-06
-3.32024887111e-06
-3.32024972036e-06
-3.32024997763e-06
-3.32024956343e-06
-3.32024855591e-06
-3.32024697726e-06
-3.32024486154e-06
-3.32024249581e-06
-3.32023960158e-06
-3.32023996296e-06
-3.32020799157e-06
-3.32020344089e-06
-3.32020237053e-06
-3.32020122301e-06
-3.32020032408e-06
-3.32019958546e-06
-3.32019909586e-06
-3.32019890423e-06
-3.32019896112e-06
-3.32019931266e-06
-3.32019990141e-06
-3.32020063385e-06
-3.32020158656e-06
-3.32020229142e-06
-3.32020685615e-06
-3.32017077876e-06
-3.32016237594e-06
-3.32015800119e-06
-3.32015392548e-06
-3.32015054491e-06
-3.32014794259e-06
-3.3201463007e-06
-3.32014572466e-06
-3.32014618842e-06
-3.32014771301e-06
-3.32015018206e-06
-3.32015340717e-06
-3.32015729269e-06
-3.32016131149e-06
-3.32016980766e-06
-3.32013047907e-06
-3.32011865904e-06
-3.32011145089e-06
-3.32010501031e-06
-3.32009965807e-06
-3.32009559224e-06
-3.32009305551e-06
-3.32009218141e-06
-3.32009296465e-06
-3.32009540421e-06
-3.32009935468e-06
-3.32010456747e-06
-3.32011082663e-06
-3.32011769177e-06
-3.32012969401e-06
-3.32008773346e-06
-3.32007309445e-06
-3.32006373032e-06
-3.32005564291e-06
-3.3200489436e-06
-3.32004389894e-06
-3.32004076982e-06
-3.32003970366e-06
-3.32004069779e-06
-3.32004374997e-06
-3.3200486969e-06
-3.32005527574e-06
-3.32006319567e-06
-3.32007223848e-06
-3.32008714089e-06
-3.32004227932e-06
-3.32002584596e-06
-3.32001536816e-06
-3.32000656357e-06
-3.3199992851e-06
-3.3199938412e-06
-3.31999048989e-06
-3.31998934771e-06
-3.31999043481e-06
-3.31999372219e-06
-3.3199990877e-06
-3.32000626439e-06
-3.3200149237e-06
-3.32002510972e-06
-3.32004189813e-06
-3.31999363552e-06
-3.31997701476e-06
-3.3199665499e-06
-3.31995802237e-06
-3.31995101348e-06
-3.31994583757e-06
-3.31994267498e-06
-3.31994161086e-06
-3.3199426295e-06
-3.31994574076e-06
-3.3199508504e-06
-3.31995777989e-06
-3.3199661793e-06
-3.3199764012e-06
-3.31999348472e-06
-3.31995600151e-06
-3.31993408274e-06
-3.3199224567e-06
-3.31991292354e-06
-3.31990533506e-06
-3.3198998988e-06
-3.31989664773e-06
-3.31989555533e-06
-3.31989660836e-06
-3.31989981016e-06
-3.31990518665e-06
-3.31991270246e-06
-3.31992214321e-06
-3.31993355356e-06
-3.31995590457e-06
-3.25631465672e-06
-3.25629817794e-06
-3.25628269558e-06
-3.25626820594e-06
-3.25625582642e-06
-3.2562464632e-06
-3.25624067214e-06
-3.25623877038e-06
-3.25624090787e-06
-3.25624691632e-06
-3.25625645783e-06
-3.25626896782e-06
-3.25628371405e-06
-3.25629923622e-06
-3.25631581503e-06
-3.25630013412e-06
-3.25628386788e-06
-3.25626814396e-06
-3.25625327573e-06
-3.25624052578e-06
-3.25623084435e-06
-3.25622484261e-06
-3.25622287163e-06
-3.25622510761e-06
-3.25623135743e-06
-3.25624124596e-06
-3.2562541567e-06
-3.25626926942e-06
-3.25628507008e-06
-3.25630142357e-06
-3.25631210648e-06
-3.25629793958e-06
-3.25628396893e-06
-3.2562704412e-06
-3.25625872938e-06
-3.25624976875e-06
-3.25624418898e-06
-3.25624235499e-06
-3.25624445344e-06
-3.25625028271e-06
-3.25625945683e-06
-3.25627134011e-06
-3.25628509129e-06
-3.25629915463e-06
-3.25631343332e-06
-3.25632591175e-06
-3.25631336877e-06
-3.25630086566e-06
-3.25628854962e-06
-3.25627779585e-06
-3.25626951138e-06
-3.25626432792e-06
-3.25626262141e-06
-3.25626458392e-06
-3.25627001123e-06
-3.25627851217e-06
-3.25628944463e-06
-3.25630196702e-06
-3.25631455843e-06
-3.25632727138e-06
-3.25633604506e-06
-3.25632448009e-06
-3.2563129421e-06
-3.25630149864e-06
-3.25629144696e-06
-3.25628366571e-06
-3.25627878103e-06
-3.25627717179e-06
-3.25627903072e-06
-3.2562841539e-06
-3.25629215008e-06
-3.25630238339e-06
-3.25631402586e-06
-3.25632564438e-06
-3.256337428e-06
-3.25634403327e-06
-3.25633305108e-06
-3.25632220152e-06
-3.25631143143e-06
-3.25630194864e-06
-3.25629459012e-06
-3.25628996112e-06
-3.25628843608e-06
-3.2562902044e-06
-3.25629506671e-06
-3.25630263827e-06
-3.25631230435e-06
-3.25632326439e-06
-3.25633420276e-06
-3.25634542642e-06
-3.25635089412e-06
-3.25634025383e-06
-3.25632988867e-06
-3.25631965677e-06
-3.25631065376e-06
-3.25630366696e-06
-3.25629926978e-06
-3.2562978224e-06
-3.25629950692e-06
-3.25630413137e-06
-3.25631132715e-06
-3.25632051283e-06
-3.25633092701e-06
-3.25634138645e-06
-3.25635230039e-06
-3.25635697601e-06
-3.25634648524e-06
-3.25633643464e-06
-3.25632662572e-06
-3.25631802906e-06
-3.25631137368e-06
-3.25630718973e-06
-3.2563058152e-06
-3.25630742086e-06
-3.25631182628e-06
-3.25631868703e-06
-3.25632746605e-06
-3.25633745159e-06
-3.25634760026e-06
-3.25635839939e-06
-3.25636254214e-06
-3.25635204733e-06
-3.25634217241e-06
-3.25633268811e-06
-3.25632443424e-06
-3.25631807465e-06
-3.25631408859e-06
-3.25631278311e-06
-3.25631431355e-06
-3.25631851551e-06
-3.25632507587e-06
-3.25633351161e-06
-3.25634316951e-06
-3.25635314661e-06
-3.25636398144e-06
-3.25636784201e-06
-3.25635722515e-06
-3.25634741172e-06
-3.25633816703e-06
-3.25633020313e-06
-3.25632411196e-06
-3.25632031144e-06
-3.25631907257e-06
-3.25632053089e-06
-3.25632454199e-06
-3.25633083061e-06
-3.25633897595e-06
-3.2563483927e-06
-3.25635831422e-06
-3.2563692986e-06
-3.25637307942e-06
-3.25636224956e-06
-3.25635240147e-06
-3.25634332342e-06
-3.25633560772e-06
-3.2563297616e-06
-3.25632613875e-06
-3.25632496342e-06
-3.2563263525e-06
-3.2563301806e-06
-3.25633622006e-06
-3.25634411759e-06
-3.25635336596e-06
-3.25636332836e-06
-3.25637455441e-06
-3.25637846743e-06
-3.25636731078e-06
-3.25635732727e-06
-3.2563483461e-06
-3.25634083974e-06
-3.25633522313e-06
-3.25633176783e-06
-3.25633065674e-06
-3.25633197513e-06
-3.25633563076e-06
-3.25634143704e-06
-3.25634912357e-06
-3.25635827447e-06
-3.25636837491e-06
-3.25637994871e-06
-3.25638448416e-06
-3.25637276559e-06
-3.25636247073e-06
-3.25635346511e-06
-3.25634609035e-06
-3.25634064285e-06
-3.25633732934e-06
-3.25633626508e-06
-3.25633753034e-06
-3.25634103745e-06
-3.25634666864e-06
-3.25635422285e-06
-3.25636339539e-06
-3.25637381273e-06
-3.2563859735e-06
-3.25639110983e-06
-3.25637851433e-06
-3.25636794959e-06
-3.2563588788e-06
-3.25635157608e-06
-3.2563462432e-06
-3.25634301114e-06
-3.25634198755e-06
-3.2563432055e-06
-3.25634662151e-06
-3.25635213492e-06
-3.25635961063e-06
-3.25636884319e-06
-3.25637953517e-06
-3.25639260514e-06
-3.25638795702e-06
-3.25637854145e-06
-3.25636977779e-06
-3.25636231682e-06
-3.25635634086e-06
-3.25635197304e-06
-3.25634933729e-06
-3.25634850835e-06
-3.2563495244e-06
-3.256352339e-06
-3.25635687633e-06
-3.25636301976e-06
-3.2563706395e-06
-3.25637952156e-06
-3.25638937389e-06
-2.97484234888e-06
-2.97485517615e-06
-2.97486739888e-06
-2.97487860248e-06
-2.97488798021e-06
-2.97489496159e-06
-2.97489925741e-06
-2.97490068051e-06
-2.97489913773e-06
-2.97489474389e-06
-2.97488772343e-06
-2.97487841896e-06
-2.97486733335e-06
-2.97485528041e-06
-2.97484230585e-06
-2.97485827235e-06
-2.97487103981e-06
-2.97488356509e-06
-2.97489514933e-06
-2.97490487983e-06
-2.97491214309e-06
-2.97491661873e-06
-2.97491810415e-06
-2.97491649045e-06
-2.97491191148e-06
-2.97490461087e-06
-2.97489496508e-06
-2.97488353745e-06
-2.97487117891e-06
-2.9748583319e-06
-2.97485161767e-06
-2.97486261109e-06
-2.97487361995e-06
-2.97488399105e-06
-2.97489277151e-06
-2.97489936932e-06
-2.9749034517e-06
-2.97490481328e-06
-2.97490333748e-06
-2.97489916216e-06
-2.97489252843e-06
-2.97488381341e-06
-2.97487358948e-06
-2.97486270432e-06
-2.97485168086e-06
-2.97484117017e-06
-2.97485055539e-06
-2.97486011967e-06
-2.97486922952e-06
-2.97487701501e-06
-2.97488290623e-06
-2.97488656834e-06
-2.97488779685e-06
-2.97488647258e-06
-2.97488273208e-06
-2.97487680971e-06
-2.97486907416e-06
-2.97486008648e-06
-2.97485062248e-06
-2.97484122511e-06
-2.9748318524e-06
-2.97484000013e-06
-2.97484842787e-06
-2.97485646981e-06
-2.97486340093e-06
-2.9748686717e-06
-2.97487196299e-06
-2.97487307158e-06
-2.97487188113e-06
-2.97486852267e-06
-2.97486322215e-06
-2.97485633076e-06
-2.97484838489e-06
-2.97484004729e-06
-2.97483189466e-06
-2.97482280649e-06
-2.97482994521e-06
-2.97483737734e-06
-2.9748444674e-06
-2.97485061292e-06
-2.97485530719e-06
-2.97485824838e-06
-2.97485924414e-06
-2.97485818017e-06
-2.9748551828e-06
-2.97485046357e-06
-2.97484434914e-06
-2.97483733869e-06
-2.97482996825e-06
-2.97482285928e-06
-2.974813469e-06
-2.97481972935e-06
-2.97482628253e-06
-2.97483250922e-06
-2.97483792255e-06
-2.97484207043e-06
-2.97484467569e-06
-2.97484556158e-06
-2.97484461852e-06
-2.97484196523e-06
-2.9748377953e-06
-2.97483240432e-06
-2.97482624484e-06
-2.97481972879e-06
-2.97481352222e-06
-2.97480376528e-06
-2.9748092565e-06
-2.97481505065e-06
-2.97482050329e-06
-2.97482525193e-06
-2.97482889564e-06
-2.97483118901e-06
-2.97483197138e-06
-2.97483114201e-06
-2.9748288088e-06
-2.97482514524e-06
-2.97482041178e-06
-2.97481500898e-06
-2.97480923859e-06
-2.97480380509e-06
-2.97479365753e-06
-2.97479850874e-06
-2.97480365472e-06
-2.97480844012e-06
-2.97481260268e-06
-2.97481579424e-06
-2.97481780435e-06
-2.97481849138e-06
-2.97481776489e-06
-2.97481572083e-06
-2.97481250999e-06
-2.97480835617e-06
-2.97480360518e-06
-2.97479847123e-06
-2.9747936896e-06
-2.97478311558e-06
-2.97478743961e-06
-2.97479204857e-06
-2.97479628373e-06
-2.97479994864e-06
-2.9748027518e-06
-2.97480451415e-06
-2.97480511756e-06
-2.97480448119e-06
-2.97480268926e-06
-2.97479986771e-06
-2.97479620377e-06
-2.97479198918e-06
-2.97478737949e-06
-2.97478313705e-06
-2.97477209726e-06
-2.97477600715e-06
-2.97478020386e-06
-2.97478401743e-06
-2.97478728692e-06
-2.97478977013e-06
-2.97479132656e-06
-2.97479185758e-06
-2.97479129789e-06
-2.97478971512e-06
-2.97478721263e-06
-2.9747839397e-06
-2.97478013485e-06
-2.97477592992e-06
-2.97477211551e-06
-2.97476051955e-06
-2.97476415587e-06
-2.97476810033e-06
-2.97477164481e-06
-2.97477463003e-06
-2.97477687596e-06
-2.9747782701e-06
-2.97477874583e-06
-2.97477824415e-06
-2.97477682532e-06
-2.97477456072e-06
-2.97477156607e-06
-2.97476802303e-06
-2.97476406647e-06
-2.97476053845e-06
-2.97474793997e-06
-2.97475161865e-06
-2.97475559724e-06
-2.97475909379e-06
-2.97476196723e-06
-2.9747640892e-06
-2.97476540129e-06
-2.97476583894e-06
-2.97476537739e-06
-2.97476404293e-06
-2.97476189888e-06
-2.97475901574e-06
-2.97475551354e-06
-2.97475152425e-06
-2.97474796688e-06
-2.97473427278e-06
-2.97473850951e-06
-2.97474266719e-06
-2.97474629359e-06
-2.97474920613e-06
-2.97475135003e-06
-2.9747526578e-06
-2.9747531009e-06
-2.97475263744e-06
-2.97475130479e-06
-2.97474914341e-06
-2.97474621567e-06
-2.97474258028e-06
-2.9747384151e-06
-2.97473432932e-06
-2.97472917168e-06
-2.97473008561e-06
-2.97473281099e-06
-2.97473519576e-06
-2.97473714792e-06
-2.97473861566e-06
-2.97473953201e-06
-2.97473983723e-06
-2.97473951151e-06
-2.97473857285e-06
-2.9747370809e-06
-2.97473511182e-06
-2.97473271354e-06
-2.97472997501e-06
-2.97472920411e-06
-2.87511150644e-06
-2.87510072866e-06
-2.87509057011e-06
-2.87508139939e-06
-2.87507359708e-06
-2.87506768459e-06
-2.87506404844e-06
-2.87506284911e-06
-2.87506415875e-06
-2.87506787326e-06
-2.87507380277e-06
-2.87508165157e-06
-2.87509100009e-06
-2.87510115875e-06
-2.87511209135e-06
-2.87509809488e-06
-2.87508740673e-06
-2.87507704439e-06
-2.87506758513e-06
-2.87505950392e-06
-2.87505337466e-06
-2.87504959556e-06
-2.87504834629e-06
-2.87504971635e-06
-2.87505358615e-06
-2.87505974814e-06
-2.8750678802e-06
-2.87507751036e-06
-2.87508791951e-06
-2.87509874239e-06
-2.87510398329e-06
-2.87509481897e-06
-2.87508572011e-06
-2.87507724798e-06
-2.87506995707e-06
-2.87506440302e-06
-2.87506096499e-06
-2.87505982467e-06
-2.8750610789e-06
-2.87506460697e-06
-2.87507020337e-06
-2.87507754636e-06
-2.87508615659e-06
-2.87509531691e-06
-2.8751045992e-06
-2.87511304284e-06
-2.87510525547e-06
-2.87509734541e-06
-2.87508988645e-06
-2.87508341999e-06
-2.87507847624e-06
-2.87507540069e-06
-2.87507437624e-06
-2.87507550385e-06
-2.87507866572e-06
-2.87508366195e-06
-2.87509017908e-06
-2.87509774713e-06
-2.8751057083e-06
-2.87511362707e-06
-2.87512108546e-06
-2.87511435393e-06
-2.87510737129e-06
-2.87510076625e-06
-2.87509500411e-06
-2.87509058305e-06
-2.87508782211e-06
-2.87508689948e-06
-2.87508791657e-06
-2.87509075898e-06
-2.87509523502e-06
-2.87510104563e-06
-2.8751077418e-06
-2.87511475764e-06
-2.87512163631e-06
-2.87512883299e-06
-2.87512294483e-06
-2.87511676914e-06
-2.8751109232e-06
-2.87510580299e-06
-2.87510186589e-06
-2.87509939842e-06
-2.87509857165e-06
-2.87509948437e-06
-2.87510202798e-06
-2.87510602152e-06
-2.87511118748e-06
-2.87511710777e-06
-2.87512331973e-06
-2.87512933687e-06
-2.87513676319e-06
-2.87513160576e-06
-2.87512613455e-06
-2.87512097213e-06
-2.87511644305e-06
-2.87511295528e-06
-2.87511076417e-06
-2.87511002868e-06
-2.87511084228e-06
-2.87511310323e-06
-2.87511664513e-06
-2.87512121662e-06
-2.87512643778e-06
-2.87513194677e-06
-2.87513722809e-06
-2.87514493903e-06
-2.87514040432e-06
-2.87513553702e-06
-2.87513097978e-06
-2.87512698422e-06
-2.87512390681e-06
-2.8751219706e-06
-2.87512131994e-06
-2.87512204122e-06
-2.8751240411e-06
-2.87512717028e-06
-2.8751312065e-06
-2.87513581265e-06
-2.87514071586e-06
-2.87514537775e-06
-2.87515338903e-06
-2.87514936942e-06
-2.87514500978e-06
-2.87514097046e-06
-2.87513743963e-06
-2.87513472396e-06
-2.87513301605e-06
-2.87513244182e-06
-2.87513307957e-06
-2.87513484533e-06
-2.87513760867e-06
-2.87514117807e-06
-2.87514526054e-06
-2.87514965417e-06
-2.87515380219e-06
-2.87516215025e-06
-2.87515854164e-06
-2.87515459583e-06
-2.87515097872e-06
-2.87514783691e-06
-2.87514543064e-06
-2.87514391932e-06
-2.87514341261e-06
-2.87514397682e-06
-2.87514554028e-06
-2.87514799157e-06
-2.87515117046e-06
-2.87515482789e-06
-2.87515880838e-06
-2.87516254169e-06
-2.87517125732e-06
-2.87516796817e-06
-2.87516433483e-06
-2.87516103333e-06
-2.87515819858e-06
-2.87515604075e-06
-2.8751546931e-06
-2.87515424162e-06
-2.87515474497e-06
-2.87515614013e-06
-2.87515833861e-06
-2.8751612102e-06
-2.87516454851e-06
-2.87516821838e-06
-2.87517162883e-06
-2.87518080382e-06
-2.87517771034e-06
-2.87517425397e-06
-2.87517114647e-06
-2.87516852196e-06
-2.8751665521e-06
-2.87516532669e-06
-2.87516492154e-06
-2.87516537374e-06
-2.87516664191e-06
-2.87516865147e-06
-2.87517130852e-06
-2.87517445148e-06
-2.8751779399e-06
-2.87518114752e-06
-2.87519115573e-06
-2.8751879982e-06
-2.87518448569e-06
-2.87518138423e-06
-2.8751788409e-06
-2.87517695121e-06
-2.8751757983e-06
-2.87517541165e-06
-2.87517584127e-06
-2.87517703635e-06
-2.87517895783e-06
-2.87518153704e-06
-2.87518466646e-06
-2.87518820923e-06
-2.87519147338e-06
-2.87520239352e-06
-2.87519876287e-06
-2.87519506491e-06
-2.87519183275e-06
-2.87518922719e-06
-2.87518732452e-06
-2.8751861553e-06
-2.87518577715e-06
-2.87518619826e-06
-2.87518740187e-06
-2.87518934251e-06
-2.87519197313e-06
-2.87519523398e-06
-2.87519895287e-06
-2.87520268792e-06
-2.87520654693e-06
-2.87520560706e-06
-2.87520306971e-06
-2.87520084307e-06
-2.87519903533e-06
-2.87519768029e-06
-2.87519684837e-06
-2.87519657586e-06
-2.87519688853e-06
-2.87519775833e-06
-2.8751991422e-06
-2.87520097986e-06
-2.87520322451e-06
-2.87520577836e-06
-2.87520680527e-06
-2.62199009292e-06
-2.6219994301e-06
-2.6220083723e-06
-2.62201653434e-06
-2.62202334587e-06
-2.6220284096e-06
-2.62203151421e-06
-2.6220325315e-06
-2.62203140055e-06
-2.62202820519e-06
-2.6220231078e-06
-2.62201635891e-06
-2.62200832225e-06
-2.62199959344e-06
-2.62199020044e-06
-2.62200149257e-06
-2.62201080735e-06
-2.62201996291e-06
-2.62202839619e-06
-2.62203546123e-06
-2.62204072468e-06
-2.62204395437e-06
-2.62204501239e-06
-2.62204382684e-06
-2.62204049565e-06
-2.6220351957e-06
-2.62202820129e-06
-2.62201992015e-06
-2.62201097394e-06
-2.62200167504e-06
-2.62199656569e-06
-2.62200459971e-06
-2.62201263495e-06
-2.62202018442e-06
-2.62202656064e-06
-2.6220313451e-06
-2.62203429447e-06
-2.6220352669e-06
-2.62203418383e-06
-2.6220311466e-06
-2.62202633077e-06
-2.62202001159e-06
-2.6220126034e-06
-2.6220047263e-06
-2.62199674841e-06
-2.62198892988e-06
-2.62199578771e-06
-2.62200276752e-06
-2.6220094006e-06
-2.62201506064e-06
-2.62201933915e-06
-2.62202199053e-06
-2.62202287201e-06
-2.62202190159e-06
-2.62201918007e-06
-2.62201487889e-06
-2.62200926757e-06
-2.62200275276e-06
-2.62199590375e-06
-2.62198909852e-06
-2.62198214065e-06
-2.62198809704e-06
-2.6219942514e-06
-2.62200010942e-06
-2.62200515533e-06
-2.62200899111e-06
-2.62201138104e-06
-2.62201218098e-06
-2.62201130985e-06
-2.62200886472e-06
-2.6220050115e-06
-2.6220000077e-06
-2.62199424262e-06
-2.62198820551e-06
-2.62198229481e-06
-2.62197557131e-06
-2.62198080588e-06
-2.62198623549e-06
-2.62199141123e-06
-2.62199589729e-06
-2.62199932357e-06
-2.62200146701e-06
-2.62200218976e-06
-2.62200141144e-06
-2.62199922581e-06
-2.62199578893e-06
-2.62199134114e-06
-2.62198624538e-06
-2.62198090118e-06
-2.62197573467e-06
-2.62196882675e-06
-2.62197343533e-06
-2.62197823121e-06
-2.62198279052e-06
-2.62198675565e-06
-2.62198979499e-06
-2.62199170269e-06
-2.62199235054e-06
-2.62199166059e-06
-2.62198972117e-06
-2.62198667587e-06
-2.62198274302e-06
-2.62197825283e-06
-2.62197351674e-06
-2.62196898885e-06
-2.62196185469e-06
-2.62196591387e-06
-2.62197016893e-06
-2.62197418027e-06
-2.62197767567e-06
-2.62198035971e-06
-2.62198204882e-06
-2.62198262571e-06
-2.62198201802e-06
-2.62198030639e-06
-2.62197762012e-06
-2.62197415264e-06
-2.62197019736e-06
-2.62196598785e-06
-2.6219620008e-06
-2.62195462027e-06
-2.62195823137e-06
-2.62196202905e-06
-2.62196556994e-06
-2.62196865233e-06
-2.62197101803e-06
-2.6219725091e-06
-2.62197302035e-06
-2.62197248683e-06
-2.62197098016e-06
-2.62196861343e-06
-2.62196555395e-06
-2.62196205652e-06
-2.62195829226e-06
-2.62195475665e-06
-2.62194710388e-06
-2.62195034872e-06
-2.62195377077e-06
-2.62195692665e-06
-2.62195965975e-06
-2.62196175353e-06
-2.62196307102e-06
-2.62196352477e-06
-2.62196305568e-06
-2.62196172708e-06
-2.62195963412e-06
-2.62195691765e-06
-2.62195379418e-06
-2.62195039331e-06
-2.62194722534e-06
-2.62193926713e-06
-2.62194222983e-06
-2.62194536893e-06
-2.62194823143e-06
-2.62195068902e-06
-2.62195255797e-06
-2.62195373153e-06
-2.62195413476e-06
-2.62195372043e-06
-2.62195253927e-06
-2.62195066991e-06
-2.62194822571e-06
-2.62194538554e-06
-2.62194226087e-06
-2.62193938084e-06
-2.62193104665e-06
-2.6219338301e-06
-2.62193680048e-06
-2.62193947986e-06
-2.62194173782e-06
-2.62194344234e-06
-2.6219445006e-06
-2.62194486599e-06
-2.62194449256e-06
-2.62194342709e-06
-2.62194172474e-06
-2.62193947313e-06
-2.62193681079e-06
-2.62193385124e-06
-2.62193115682e-06
-2.62192212294e-06
-2.62192495113e-06
-2.62192795914e-06
-2.62193060858e-06
-2.62193279601e-06
-2.62193440982e-06
-2.6219354136e-06
-2.62193575015e-06
-2.62193540636e-06
-2.62193440101e-06
-2.62193278205e-06
-2.62193060523e-06
-2.62192796393e-06
-2.62192496792e-06
-2.62192223428e-06
-2.62191242098e-06
-2.62191566673e-06
-2.62191881288e-06
-2.62192156884e-06
-2.62192378119e-06
-2.62192541773e-06
-2.62192641483e-06
-2.62192675753e-06
-2.62192641181e-06
-2.62192540712e-06
-2.62192377504e-06
-2.62192156227e-06
-2.62191881808e-06
-2.62191568323e-06
-2.62191255389e-06
-2.62190887819e-06
-2.62190976015e-06
-2.62191189377e-06
-2.62191375645e-06
-2.62191528437e-06
-2.62191642941e-06
-2.62191714577e-06
-2.62191738712e-06
-2.62191714074e-06
-2.62191642196e-06
-2.62191527218e-06
-2.62191374874e-06
-2.6219118896e-06
-2.62190977079e-06
-2.62190899419e-06
-2.50028228003e-06
-2.5002742437e-06
-2.50026648866e-06
-2.50025943838e-06
-2.50025355814e-06
-2.50024915694e-06
-2.50024642335e-06
-2.50024550409e-06
-2.50024647728e-06
-2.50024926962e-06
-2.50025373754e-06
-2.50025965332e-06
-2.50026669606e-06
-2.50027434424e-06
-2.50028255072e-06
-2.50027222154e-06
-2.50026423944e-06
-2.5002563224e-06
-2.50024905844e-06
-2.50024296981e-06
-2.50023839938e-06
-2.50023555769e-06
-2.50023460106e-06
-2.50023561788e-06
-2.50023852484e-06
-2.50024316469e-06
-2.50024929087e-06
-2.50025654326e-06
-2.50026437913e-06
-2.50027250879e-06
-2.50027660576e-06
-2.50026974759e-06
-2.50026279763e-06
-2.50025629468e-06
-2.50025079416e-06
-2.50024663995e-06
-2.50024404886e-06
-2.50024317458e-06
-2.50024410618e-06
-2.50024675789e-06
-2.50025097407e-06
-2.50025650873e-06
-2.50026299649e-06
-2.50026989659e-06
-2.50027687339e-06
-2.50028336834e-06
-2.5002775397e-06
-2.50027149712e-06
-2.50026577949e-06
-2.50026088981e-06
-2.50025717318e-06
-2.50025484754e-06
-2.500254061e-06
-2.50025489988e-06
-2.50025727839e-06
-2.5002610452e-06
-2.50026596078e-06
-2.50027166711e-06
-2.5002776682e-06
-2.50028362517e-06
-2.50028937979e-06
-2.50028434125e-06
-2.50027900729e-06
-2.50027394929e-06
-2.50026958341e-06
-2.50026624856e-06
-2.50026415547e-06
-2.50026344599e-06
-2.5002642027e-06
-2.50026634189e-06
-2.5002697178e-06
-2.50027410232e-06
-2.50027915333e-06
-2.5002844438e-06
-2.50028961844e-06
-2.50029518623e-06
-2.50029077617e-06
-2.50028606438e-06
-2.50028159348e-06
-2.50027770661e-06
-2.50027472604e-06
-2.50027285075e-06
-2.50027221365e-06
-2.5002728925e-06
-2.50027480694e-06
-2.50027781901e-06
-2.50028171728e-06
-2.50028618335e-06
-2.50029086776e-06
-2.50029539211e-06
-2.50030114011e-06
-2.50029727802e-06
-2.50029311123e-06
-2.50028916749e-06
-2.50028572561e-06
-2.50028307965e-06
-2.5002814119e-06
-2.50028084387e-06
-2.50028144836e-06
-2.50028314891e-06
-2.50028581908e-06
-2.50028926724e-06
-2.5002932042e-06
-2.50029735626e-06
-2.50030132196e-06
-2.50030728669e-06
-2.50030389919e-06
-2.50030020099e-06
-2.50029672679e-06
-2.50029368921e-06
-2.50029135092e-06
-2.50028987538e-06
-2.50028937174e-06
-2.50028990649e-06
-2.50029140868e-06
-2.500293765e-06
-2.50029680615e-06
-2.50030027563e-06
-2.50030396687e-06
-2.50030745943e-06
-2.50031365249e-06
-2.50031065857e-06
-2.50030735595e-06
-2.50030428471e-06
-2.50030160236e-06
-2.50029953931e-06
-2.50029823743e-06
-2.50029779282e-06
-2.50029826378e-06
-2.50029958744e-06
-2.50030166415e-06
-2.50030434865e-06
-2.50030741803e-06
-2.50031071932e-06
-2.50031381633e-06
-2.50032026104e-06
-2.50031758452e-06
-2.50031460762e-06
-2.50031186743e-06
-2.50030948621e-06
-2.50030765979e-06
-2.50030650943e-06
-2.50030611637e-06
-2.50030653156e-06
-2.50030769967e-06
-2.50030953653e-06
-2.50031192078e-06
-2.5003146632e-06
-2.50031764603e-06
-2.50032042146e-06
-2.50032713993e-06
-2.50032471156e-06
-2.50032198208e-06
-2.50031949264e-06
-2.5003173506e-06
-2.50031571842e-06
-2.50031469462e-06
-2.50031434548e-06
-2.50031471369e-06
-2.50031575183e-06
-2.50031739298e-06
-2.50031953893e-06
-2.50032203318e-06
-2.50032477442e-06
-2.5003272972e-06
-2.50033435626e-06
-2.50033208116e-06
-2.50032949603e-06
-2.50032716433e-06
-2.50032519274e-06
-2.50032370641e-06
-2.50032278168e-06
-2.50032246783e-06
-2.50032279815e-06
-2.50032373655e-06
-2.50032522941e-06
-2.50032720653e-06
-2.50032954539e-06
-2.50033214142e-06
-2.50033450358e-06
-2.50034218161e-06
-2.5003398609e-06
-2.50033724347e-06
-2.50033493164e-06
-2.5003330262e-06
-2.50033161476e-06
-2.50033074409e-06
-2.50033045118e-06
-2.50033076045e-06
-2.50033164137e-06
-2.5003330612e-06
-2.50033497145e-06
-2.50033729038e-06
-2.50033991845e-06
-2.50034231741e-06
-2.50035065716e-06
-2.50034798419e-06
-2.50034524363e-06
-2.50034284418e-06
-2.5003409118e-06