/*--------------------------------*- C++ -*----------------------------------*\
  =========                 |
  \\      /  F ield         | OpenFOAM: The Open Source CFD Toolbox
   \\    /   O peration     | Website:  https://openfoam.org
    \\  /    A nd           | Version:  7
     \\/     M anipulation  |
\*---------------------------------------------------------------------------*/
FoamFile
{
    version     2.0;
    format      ascii;
    class       surfaceScalarField;
    location    "2";
    object      phi;
}
// * * * * * * * * * * * * * * * * * * * * * * * * * * * * * * * * * * * * * //

dimensions      [0 3 -1 0 0 0 0];

internalField   nonuniform List<scalar> 
65775
(
-4.22528238815e-12
-3.72799851333e-10
-4.82057667473e-11
1.45824686659e-14
-7.20393233394e-12
-3.90625584264e-10
-5.36212598577e-11
-8.76267719532e-12
-4.06497230467e-10
-5.89715946134e-11
-8.73792770973e-12
-4.20193647984e-10
-6.39154214975e-11
-7.31657573049e-12
-4.31142827076e-10
-6.8130696304e-11
-4.79578004007e-12
-4.39149363126e-10
-7.13521425844e-11
-1.57666363579e-12
-4.44173278987e-10
-7.33979175212e-11
1.88424906469e-12
-4.46066645364e-10
-7.41298431802e-11
5.09746721813e-12
-4.44177274862e-10
-7.33932447696e-11
7.60699507042e-12
-4.39157260281e-10
-7.1342916007e-11
9.01228196373e-12
-4.31154920686e-10
-6.81171059861e-11
9.01755690481e-12
-4.2021026461e-10
-6.38976256307e-11
7.43671673841e-12
-4.06518424174e-10
-5.89494533038e-11
4.43650871739e-12
-3.90650282314e-10
-5.35933002732e-11
-3.72795320473e-10
-4.81666872141e-11
1.71716016261e-13
-1.11849069751e-11
-6.4005341113e-10
-1.26677459689e-10
2.89660253639e-14
-1.97659070176e-11
-6.68419684671e-10
-1.40635594936e-10
-2.42219269754e-11
-6.94300586693e-10
-1.54429090768e-10
-2.43481253276e-11
-7.16492396619e-10
-1.6718018404e-10
-2.04873202201e-11
-7.34191765277e-10
-1.78054812655e-10
-1.34629146384e-11
-7.4707228792e-10
-1.86366753643e-10
-4.41254060554e-12
-7.55136161629e-10
-1.9164364484e-10
5.33069036722e-12
-7.58178738717e-10
-1.93527665565e-10
1.43633775015e-11
-7.55144583719e-10
-1.91629581803e-10
2.13536360122e-11
-7.47089302284e-10
-1.86339030741e-10
2.51656909036e-11
-7.34218388915e-10
-1.78014063946e-10
2.49787056593e-11
-7.16530068933e-10
-1.67126989622e-10
2.04530686946e-11
-6.94350523241e-10
-1.54363210061e-10
1.17892494816e-11
-6.684734868e-10
-1.4055315426e-10
-6.40043881485e-10
-1.26567092666e-10
4.97824154133e-13
-1.68260643103e-11
-8.20011980836e-10
-1.88225343677e-10
3.66359926949e-14
-2.98096024595e-11
-8.53395936241e-10
-2.08855453727e-10
-3.66157546622e-11
-8.84637851339e-10
-2.29226535262e-10
-3.69076946695e-11
-9.11288615885e-10
-2.48057181672e-10
-3.11136253756e-11
-9.32518764469e-10
-2.6411795059e-10
-2.04564346477e-11
-9.47899623908e-10
-2.76394572053e-10
-6.67383840827e-12
-9.57506809052e-10
-2.84184864835e-10
8.17488396897e-12
-9.61135501965e-10
-2.86960104081e-10
2.19284708494e-11
-9.57516569506e-10
-2.84161845244e-10
3.25293331586e-11
-9.47919803702e-10
-2.76349248233e-10
3.82425072195e-11
-9.32551399967e-10
-2.64051472081e-10
3.78483645218e-11
-9.11336569706e-10
-2.47970712637e-10
3.0922938741e-11
-8.84704032303e-10
-2.29120167903e-10
1.77939049707e-11
-8.53462140532e-10
-2.0872426782e-10
-8.19990931895e-10
-1.88054564209e-10
8.03409451516e-13
-2.13954760449e-11
-9.28047236776e-10
-2.35468824081e-10
4.02949971642e-14
-3.77285235579e-11
-9.62435348574e-10
-2.6124766654e-10
-4.63782668333e-11
-9.95379998727e-10
-2.866597152e-10
-4.67984197331e-11
-1.02341786732e-09
-3.10136661138e-10
-3.94871275738e-11
-1.04573324192e-09
-3.30155781174e-10
-2.59585884118e-11
-1.06183654014e-09
-3.45455923319e-10
-8.42408137878e-12
-1.07187202602e-09
-3.55159013337e-10
1.0475617524e-11
-1.07566695379e-09
-3.58607938752e-10
2.79703335343e-11
-1.07187979644e-09
-3.55127640962e-10
4.14212832091e-11
-1.06185334538e-09
-3.45394241063e-10
4.86205059633e-11
-1.04576207157e-09
-3.30065538837e-10
4.80577779312e-11
-1.02346284386e-09
-3.10019807064e-10
3.92395667455e-11
-9.95445801703e-10
-2.86517161719e-10
2.27036886387e-11
-9.62495235184e-10
-2.61074723004e-10
-9.28006806883e-10
-2.35249891449e-10
1.09218752391e-12
-2.49616180589e-11
-9.7797885083e-10
-2.69894083527e-10
4.14370899884e-14
-4.37811003741e-11
-1.01054953028e-09
-2.9949138031e-10
-5.38021955355e-11
-1.04249527279e-09
-3.28596832745e-10
-5.42999797777e-11
-1.06968864894e-09
-3.55458137196e-10
-4.58276563577e-11
-1.09132140924e-09
-3.78351229446e-10
-3.01083974375e-11
-1.10687792768e-09
-3.95841850197e-10
-9.71028890493e-12
-1.11655099183e-09
-4.06925724622e-10
1.22810517713e-11
-1.12021358964e-09
-4.10856081814e-10
3.26290728104e-11
-1.11655340061e-09
-4.06886610224e-10
4.82503761817e-11
-1.10688446864e-09
-3.95765075752e-10
5.65806213427e-11
-1.09133584697e-09
-3.78239255036e-10
5.59014535907e-11
-1.06971610994e-09
-3.55313927568e-10
4.56651601924e-11
-1.04254220313e-09
-3.28422584812e-10
2.65912792532e-11
-1.0105833365e-09
-2.99283439013e-10
-9.77907409208e-10
-2.69637453828e-10
1.36725293306e-12
-2.76332657409e-11
-9.82087242151e-10
-2.92931812527e-10
4.10373513918e-14
-4.82043146362e-11
-1.01100485308e-09
-3.25203165982e-10
-5.91617814062e-11
-1.04011178445e-09
-3.56840779612e-10
-5.9673010589e-11
-1.06494935163e-09
-3.85995147375e-10
-5.0342240697e-11
-1.08470573976e-09
-4.1082149113e-10
-3.30370691745e-11
-1.09886842598e-09
-4.29778142536e-10
-1.05764340694e-11
-1.10765528039e-09
-4.41779615289e-10
1.36380413817e-11
-1.11098667037e-09
-4.46024229142e-10
3.60387526829e-11
-1.10764877957e-09
-4.41733343953e-10
5.32264743332e-11
-1.09885745354e-09
-4.29687496471e-10
6.23864892948e-11
-1.08469447795e-09
-4.1068976297e-10
6.16570260279e-11
-1.06494381531e-09
-3.85826549531e-10
5.04408765057e-11
-1.04012012168e-09
-3.56639168434e-10
2.95689364061e-11
-1.01099211429e-09
-3.24966331625e-10
-9.81969523663e-10
-2.92645816078e-10
1.62989618618e-12
-2.9523637636e-11
-9.51168214718e-10
-3.05953990517e-10
3.9688127434e-14
-5.1211829501e-11
-9.75418223087e-10
-3.39932572479e-10
-6.27109466557e-11
-1.00058756944e-09
-3.73121000038e-10
-6.31645034091e-11
-1.02216012698e-09
-4.03642980413e-10
-5.3231687598e-11
-1.03931966439e-09
-4.29601799963e-10
-3.48738053104e-11
-1.05158335985e-09
-4.49405850198e-10
-1.10659588754e-11
-1.05917437639e-09
-4.61928689644e-10
1.4593393916e-11
-1.06205571308e-09
-4.66344635692e-10
3.83319215203e-11
-1.05915541082e-09
-4.61875811317e-10
5.65537753447e-11
-1.05154751295e-09
-4.49302480988e-10
6.62886141469e-11
-1.03927118709e-09
-4.29452182296e-10
6.55821814872e-11
-1.02210577096e-09
-4.03452776058e-10
5.37840976337e-11
-1.0005373178e-09
-3.72895988235e-10
3.1752575857e-11
-9.75337136169e-10
-3.39672116912e-10
-9.50985129465e-10
-3.05645393568e-10
1.88174639874e-12
-3.07264055826e-11
-8.94615662328e-10
-3.10269115862e-10
3.76637758714e-14
-5.2977638116e-11
-9.13848988255e-10
-3.451562202e-10
-6.46654304937e-11
-9.34591289698e-10
-3.79085103146e-10
-6.49915091775e-11
-9.52474120799e-10
-4.10207091149e-10
-5.46775158617e-11
-9.66693475909e-10
-4.36630629387e-10
-3.57375353076e-11
-9.76821639946e-10
-4.5676381362e-10
-1.12191365116e-11
-9.83074024851e-10
-4.69475138879e-10
1.51907241668e-11
-9.8544887745e-10
-4.73942355633e-10
3.96308725111e-11
-9.8303907e-10
-4.69416159247e-10
5.84172263701e-11
-9.76753593881e-10
-4.56648771067e-10
6.85075855843e-11
-9.66596347015e-10
-4.36464812127e-10
6.78962327095e-11
-9.52355142281e-10
-4.09997764894e-10
5.58721490032e-11
-9.34462281721e-10
-3.78840127913e-10
3.32380706608e-11
-9.13676775735e-10
-3.44876486795e-10
-8.94344476349e-10
-3.09943368494e-10
2.12420281181e-12
-3.13149501549e-11
-8.20505887728e-10
-3.071215223e-10
3.52018605861e-14
-5.3637084983e-11
-8.3489137623e-10
-3.4227740738e-10
-6.52004929365e-11
-8.51187510811e-10
-3.76297371248e-10
-6.53372200332e-11
-8.65324583705e-10
-4.0739950944e-10
-5.48376923422e-11
-8.76547085386e-10
-4.33743744363e-10
-3.57338007318e-11
-8.8450597052e-10
-4.53780711467e-10
-1.10720827187e-11
-8.89402409089e-10
-4.66406098331e-10
1.54690743639e-11
-8.91261420369e-10
-4.70825576448e-10
4.00441136565e-11
-8.89348061203e-10
-4.6634147541e-10
5.89778113635e-11
-8.84398686808e-10
-4.53654930728e-10
6.92296956936e-11
-8.76390237451e-10
-4.33563199516e-10
6.87774651985e-11
-8.65125607919e-10
-4.07173168749e-10
5.68430046809e-11
-8.50959707975e-10
-3.76035248597e-10
3.41006316225e-11
-8.3460436401e-10
-3.41981782054e-10
-8.20120920831e-10
-3.0678289358e-10
2.3585584365e-12
-3.13433786417e-11
-7.35678311001e-10
-2.9769404208e-10
3.2414465834e-14
-5.32914515885e-11
-7.45758362227e-10
-3.32630203016e-10
-6.44566760819e-11
-7.57916594503e-10
-3.66242583401e-10
-6.43564994108e-11
-7.68509604234e-10
-3.96841044037e-10
-5.38505652867e-11
-7.76883463729e-10
-4.22674406462e-10
-3.49570952893e-11
-7.82785817908e-10
-4.42273600656e-10
-1.0657611712e-11
-7.86399685175e-10
-4.54591158405e-10
1.54633945848e-11
-7.87767795729e-10
-4.58882797246e-10
3.96682854804e-11
-7.86322739858e-10
-4.54521310266e-10
5.83760631461e-11
-7.82632684762e-10
-4.42137907413e-10
6.86119630693e-11
-7.76656517082e-10
-4.22480375523e-10
6.83684652881e-11
-7.68215912086e-10
-3.96599384697e-10
5.67996107973e-11
-7.57570403209e-10
-3.65965482978e-10
3.4395603559e-11
-7.45332442999e-10
-3.32321159993e-10
-7.35151641691e-10
-2.97345719546e-10
2.58590149531e-12
-3.08447161453e-11
-6.45812876115e-10
-2.83113198737e-10
2.94241682698e-14
-5.20154217695e-11
-6.52349046478e-10
-3.17486945816e-10
-6.25545407271e-11
-6.60860643949e-10
-3.50333298018e-10
-6.21914997542e-11
-6.68270777407e-10
-3.80066641984e-10
-5.18472491754e-11
-6.7408277614e-10
-4.05056630737e-10
-3.3498456972e-11
-6.78143517506e-10
-4.23949662979e-10
-1.00079065393e-11
-6.8061201522e-10
-4.35783294271e-10
1.52068370304e-11
-6.8153826496e-10
-4.39883514803e-10
3.85953568872e-11
-6.8050942878e-10
-4.35708627189e-10
5.67439461791e-11
-6.77938306784e-10
-4.23804817948e-10
6.67972769628e-11
-6.73776004674e-10
-4.04850164769e-10
6.6790273159e-11
-6.67868470028e-10
-3.79810977174e-10
5.5816816334e-11
-6.6037708053e-10
-3.5004280783e-10
3.41562020522e-11
-6.51760362269e-10
-3.17166225992e-10
-6.45116079215e-10
-2.82757443225e-10
2.80712872894e-12
-2.98291308108e-11
-5.55502575625e-10
-2.64456195557e-10
2.60753385909e-14
-4.98804643881e-11
-5.59280901022e-10
-2.98067939622e-10
-5.96307829968e-11
-5.64688086159e-10
-3.29918014559e-10
-5.90054292273e-11
-5.69369180097e-10
-3.58530348049e-10
-4.89765649994e-11
-5.7300216686e-10
-3.82427740512e-10
-3.14605371536e-11
-5.75509129139e-10
-4.00407597798e-10
-9.15954268384e-12
-5.7701417239e-10
-4.11619876077e-10
1.47354519643e-11
-5.77564570352e-10
-4.15479171206e-10
3.69273222751e-11
-5.76882819873e-10
-4.11540849505e-10
5.42293581474e-11
-5.75245711828e-10
-4.00254409325e-10
6.39475629353e-11
-5.72606235072e-10
-3.82209827956e-10
6.41778952633e-11
-5.68844946482e-10
-3.58261722419e-10
5.39639082462e-11
-5.64048644268e-10
-3.29615307066e-10
3.33903401308e-11
-5.58506076555e-10
-2.97736972842e-10
-5.54608741979e-10
-2.64094802939e-10
3.02209167443e-12
-2.83114686777e-11
-4.68288940567e-10
-2.42758610974e-10
2.18353387777e-14
-4.70338940882e-11
-4.69861352693e-10
-2.7555082637e-10
-5.59160740376e-11
-4.72695849398e-10
-3.06284860312e-10
-5.50403633306e-11
-4.75183105331e-10
-3.33603621055e-10
-4.54436399621e-11
-4.77098913616e-10
-3.56224712434e-10
-2.89795768261e-11
-4.78394422806e-10
-3.73134178351e-10
-8.16092812436e-12
-4.79150026086e-10
-3.83619967815e-10
1.40954626324e-11
-4.79401520233e-10
-3.87200799547e-10
3.47979079679e-11
-4.78986313215e-10
-3.83537216018e-10
5.10344308017e-11
-4.78065853012e-10
-3.72973732425e-10
6.03012571305e-11
-4.76603932686e-10
-3.55996565484e-10
6.07577558517e-11
-4.745235606e-10
-3.3332305103e-10
5.13833816952e-11
-4.71882077999e-10
-3.05970898672e-10
3.21068689715e-11
-4.68875865995e-10
-2.75211395222e-10
-4.67168285166e-10
-2.42394467857e-10
3.22037079442e-12
-2.64864654847e-11
-3.8651778894e-10
-2.19019789143e-10
1.5275524982e-14
-4.3895896943e-11
-3.86035374948e-10
-2.51072628888e-10
-5.18589118227e-11
-3.86938441699e-10
-2.80648062605e-10
-5.06882175024e-11
-3.87878122177e-10
-3.06555524432e-10
-4.15524766624e-11
-3.8859926018e-10
-3.27766214752e-10
-2.62498087429e-11
-3.8906047046e-10
-3.43490375645e-10
-7.07981736854e-12
-3.89299141129e-10
-3.53173620991e-10
1.33508667603e-11
-3.89335343531e-10
-3.56449467148e-10
3.23972650321e-11
-3.89098142018e-10
-3.53088162426e-10
4.7458291571e-11
-3.8865768942e-10
-3.43324466218e-10
5.62445115151e-11
-3.87993171652e-10
-3.27529874572e-10
5.69719287531e-11
-3.87068898445e-10
-3.06264530438e-10
4.84900557344e-11
-3.85933068192e-10
-2.80323667384e-10
3.04962946654e-11
-3.84814241329e-10
-2.50727061231e-10
-3.85147433885e-10
-2.18658579591e-10
3.40878974871e-12
-2.55081716585e-11
-1.94243827158e-10
1.07529415052e-14
-3.10381448132e-10
-4.16509090862e-11
-2.2573966622e-10
-3.08610878556e-10
-4.84155612749e-11
-2.54109398404e-10
-3.08596286606e-10
-4.67032537049e-11
-2.78510184232e-10
-3.08697931005e-10
-3.78620511359e-11
-2.98215941177e-10
-3.0876122033e-10
-2.36183487896e-11
-3.12680203717e-10
-3.08775488411e-10
-6.03575056669e-12
-3.21513887795e-10
-3.0873642362e-10
1.2616580347e-11
-3.2446935932e-10
-3.08641615687e-10
3.00669680723e-11
-3.21427661809e-10
-3.08490227249e-10
4.40525552087e-11
-3.12512497006e-10
-3.08283576446e-10
5.25213760443e-11
-2.97976210247e-10
-3.08024142312e-10
5.3763261369e-11
-2.78213390628e-10
-3.07717007463e-10
4.64484864955e-11
-2.53777971756e-10
-3.07374557012e-10
2.96943957013e-11
-2.25386784504e-10
-3.07133688103e-10
-1.93902203966e-10
3.57509769435e-12
-3.08735497554e-10
2.04070221616e-13
-3.74892784094e-12
-4.46516410889e-11
4.7053640696e-15
3.1092010969e-13
-4.19795858036e-12
-4.95078635106e-11
3.49886408714e-13
-4.68158601168e-12
-5.43059750454e-11
3.3559902296e-13
-5.13974908167e-12
-5.87403569671e-11
2.76222805796e-13
-5.53477950229e-12
-6.25200894818e-11
1.82801754091e-13
-5.83814766009e-12
-6.54075734995e-11
6.78425376321e-14
-6.03078668379e-12
-6.72406908773e-11
-5.4872294461e-14
-6.09979772142e-12
-6.78964628609e-11
-1.69892270615e-13
-6.03274859221e-12
-6.72350452365e-11
-2.63597895133e-13
-5.84269718061e-12
-6.53964478805e-11
-3.24185428587e-13
-5.54307968872e-12
-6.25037732136e-11
-3.41327527451e-13
-5.15194399164e-12
-5.87191578535e-11
-3.06294821361e-13
-4.69546486149e-12
-5.42799407002e-11
-2.03319996995e-13
-4.21173873923e-12
-4.94757824677e-11
-3.75716968411e-12
-4.46084007593e-11
3.86658637587e-15
4.75847498141e-13
-8.58594961371e-12
-1.22302554008e-10
1.20581595587e-14
7.59795265974e-13
-9.53526869159e-12
-1.3554722452e-10
8.74852812987e-13
-1.05559357948e-11
-1.48633131681e-10
8.48610863974e-13
-1.15295591854e-11
-1.60731772838e-10
7.03809591561e-13
-1.23695389027e-11
-1.71049554861e-10
4.6935162802e-13
-1.30141803794e-11
-1.78935190916e-10
1.78150952351e-13
-1.34238569729e-11
-1.8394050065e-10
-1.33483975503e-13
-1.35713636595e-11
-1.85726637645e-10
-4.25400788593e-13
-1.34296242091e-11
-1.8392371789e-10
-6.61755862877e-13
-1.3026853973e-11
-1.78902149239e-10
-8.10973169784e-13
-1.23910268174e-11
-1.7100117058e-10
-8.45488733833e-13
-1.15601970612e-11
-1.6066905658e-10
-7.41450475501e-13
-1.05916935082e-11
-1.48556409586e-10
-4.68109133984e-13
-9.57100006809e-12
-1.35453362236e-10
-8.61223334258e-12
-1.22180875928e-10
1.36200945599e-14
6.42210480469e-13
-1.26929549399e-11
-1.84753880261e-10
1.78432326583e-14
1.053715046e-12
-1.40125577622e-11
-2.0475791431e-10
1.23174021966e-12
-1.54278145047e-11
-2.24499152236e-10
1.20479706837e-12
-1.67859348805e-11
-2.4274455898e-10
1.00533062012e-12
-1.79608155501e-11
-2.58303584371e-10
6.75058299135e-13
-1.88637142454e-11
-2.70195059823e-10
2.61906863712e-13
-1.94382826185e-11
-2.77739528048e-10
-1.8121116017e-13
-1.96458196942e-11
-2.80425759058e-10
-5.96153282623e-13
-1.9448300629e-11
-2.777121877e-10
-9.30638248114e-13
-1.88849514588e-11
-2.70141288983e-10
-1.13825298985e-12
-1.79951274795e-11
-2.58224994165e-10
-1.17862616513e-12
-1.68332924808e-11
-2.42643017947e-10
-1.01787906426e-12
-1.54832607196e-11
-2.24375687196e-10
-6.23033775882e-13
-1.4068390281e-11
-2.04608795754e-10
-1.27382365032e-11
-1.8456551578e-10
2.58554832873e-14
7.348550394e-13
-1.60689243045e-11
-2.32826497104e-10
2.21700860916e-14
1.23156014922e-12
-1.7658469078e-11
-2.58069318002e-10
1.46002852224e-12
-1.93515441326e-11
-2.82934209565e-10
1.44090196993e-12
-2.09779525711e-11
-3.05899134644e-10
1.21063075713e-12
-2.23868343946e-11
-3.25477700549e-10
8.19262655882e-13
-2.34706656348e-11
-3.40439041799e-10
3.2546108829e-13
-2.41611104677e-11
-3.4992552735e-10
-2.05623689018e-13
-2.4411254332e-11
-3.5329553432e-10
-7.0257972545e-13
-2.41754849435e-11
-3.49888354491e-10
-1.10090097859e-12
-2.35003510982e-11
-3.40366025882e-10
-1.34328569504e-12
-2.24331289917e-11
-3.25371232126e-10
-1.38070526091e-12
-2.10401518157e-11
-3.05762136174e-10
-1.17498422499e-12
-1.94244431115e-11
-2.8276887813e-10
-7.00495353716e-13
-1.77330301588e-11
-2.57872569792e-10
-1.61337453094e-11
-2.32584368684e-10
4.04418245234e-14
7.71971478126e-13
-1.86810355611e-11
-2.68057794e-10
2.54022251387e-14
1.31695589243e-12
-2.04514048011e-11
-2.97217098553e-10
1.58130102297e-12
-2.23178957194e-11
-3.25868115016e-10
1.57454490779e-12
-2.41045260615e-11
-3.52301218729e-10
1.33260040076e-12
-2.56514749738e-11
-3.74824839657e-10
9.09743339429e-13
-2.68414808943e-11
-3.92031000514e-10
3.71252450523e-13
-2.75999572858e-11
-4.02932690789e-10
-2.09701593173e-13
-2.78755133493e-11
-4.06796051064e-10
-7.52867593341e-13
-2.7618385777e-11
-4.02886432343e-10
-1.18562816767e-12
-2.68788789783e-11
-3.91940275751e-10
-1.44371866898e-12
-2.57084021366e-11
-3.74692924097e-10
-1.47343897506e-12
-2.41795926662e-11
-3.52132309808e-10
-1.23681163047e-12
-2.24057705979e-11
-3.25666018014e-10
-7.19288241041e-13
-2.05427642547e-11
-2.96980131803e-10
-1.87641597709e-11
-2.67772994402e-10
5.68906936417e-14
7.69126822012e-13
-2.05002806178e-11
-2.91889155967e-10
2.77985910541e-14
1.33125714685e-12
-2.23668541923e-11
-3.23826461508e-10
1.61653178608e-12
-2.43105221733e-11
-3.55109667288e-10
1.62335345722e-12
-2.61579397171e-11
-3.83927282346e-10
1.38433478203e-12
-2.77534788349e-11
-4.0846222251e-10
9.54462867929e-13
-2.89793520846e-11
-4.27194297205e-10
4.01848493263e-13
-2.9760586115e-11
-4.39051561312e-10
-1.96353291655e-13
-3.00452262543e-11
-4.43242352909e-10
-7.55233519861e-13
-2.97825951992e-11
-4.38996962413e-10
-1.19803210349e-12
-2.90234745682e-11
-4.27087399489e-10
-1.45721865706e-12
-2.78194757059e-11
-4.08307297528e-10
-1.47786502485e-12
-2.62437728475e-11
-3.8373001348e-10
-1.22504836866e-12
-2.44108430049e-11
-3.54875808526e-10
-6.95359073487e-13
-2.24724284496e-11
-3.2355608519e-10
-2.06000008425e-11
-2.91570684001e-10
7.48619081642e-14
7.37355899774e-13
-2.15226792097e-11
-3.05679712656e-10
2.95139644394e-14
1.29216416043e-12
-2.34051028686e-11
-3.39428632667e-10
1.58477687628e-12
-2.53393752277e-11
-3.72363759624e-10
1.60440829325e-12
-2.71598465278e-11
-4.02641768815e-10
1.37902512184e-12
-2.87248564241e-11
-4.28388463702e-10
9.61647476487e-13
-2.9924272847e-11
-4.48028713913e-10
4.19952947329e-13
-3.06879824065e-11
-4.60445843822e-10
-1.68538380151e-13
-3.09670399395e-11
-4.64821329629e-10
-7.18097705994e-13
-3.07128296e-11
-4.60383640663e-10
-1.1513963291e-12
-2.99736552995e-11
-4.47907157049e-10
-1.40090093472e-12
-2.87978588026e-11
-4.28212920035e-10
-1.41310750451e-12
-2.72538793756e-11
-4.02419580468e-10
-1.15758761578e-12
-2.54492436402e-11
-3.72102850655e-10
-6.4014351354e-13
-2.35215920589e-11
-3.39130898393e-10
-2.16360875929e-11
-3.05335073695e-10
9.43490010553e-14
6.84877870406e-13
-2.17759965486e-11
-3.10714424687e-10
3.06399949273e-14
1.21437266208e-12
-2.36021853669e-11
-3.45470588313e-10
1.50305160866e-12
-2.54531291994e-11
-3.79241608007e-10
1.53377187584e-12
-2.71736952134e-11
-4.10207036531e-10
1.32947997303e-12
-2.86431507118e-11
-4.36492896851e-10
9.39453511566e-13
-2.97651326281e-11
-4.56519152779e-10
4.28293375319e-13
-3.04784185804e-11
-4.69160691764e-10
-1.29194950567e-13
-3.07398298676e-11
-4.73599911914e-10
-6.49781071838e-13
-3.0505223187e-11
-4.69091601737e-10
-1.05864495563e-12
-2.98180730102e-11
-4.56384400286e-10
-1.29089996335e-12
-2.87207457892e-11
-4.36299015865e-10
-1.29630478771e-12
-2.72729193047e-11
-4.09963145911e-10
-1.04925441149e-12
-2.55689564362e-11
-3.78957911393e-10
-5.6216459791e-13
-2.37257141502e-11
-3.45150697613e-10
-2.18987722161e-11
-3.10349890475e-10
1.15205767563e-13
6.18513767525e-13
-2.13201927771e-11
-3.08211856372e-10
3.1359774437e-14
1.11035304038e-12
-2.30309461393e-11
-3.43324779857e-10
1.3865189871e-12
-2.47395249511e-11
-3.77271125111e-10
1.42619314887e-12
-2.63045860965e-11
-4.08293305172e-10
1.24773593845e-12
-2.76301724868e-11
-4.34564617233e-10
8.95644475287e-13
-2.86373337532e-11
-4.54543795736e-10
4.29463770285e-13
-2.92761802522e-11
-4.67130287599e-10
-8.11872287228e-14
-2.95110001583e-11
-4.71532478058e-10
-5.58284125537e-13
-2.93038417793e-11
-4.67055002042e-10
-9.32002103145e-13
-2.86917294039e-11
-4.54397237464e-10
-1.1421136281e-12
-2.77094079331e-11
-4.34354517631e-10
-1.14275703713e-12
-2.64054005128e-11
-4.08030615493e-10
-9.12745032229e-13
-2.48570767134e-11
-3.76968348626e-10
-4.68381728146e-13
-2.31567293538e-11
-3.42987045378e-10
-2.14473574753e-11
-3.0783259345e-10
1.3732905378e-13
5.43925535222e-13
-2.02439945863e-11
-2.99332078159e-10
3.1716987025e-14
9.90393680686e-13
-2.17947104734e-11
-3.34299368917e-10
1.24778861531e-12
-2.33178544942e-11
-3.67907783064e-10
1.29413977108e-12
-2.46900711701e-11
-3.98488708052e-10
1.14416317169e-12
-2.58410865603e-11
-4.24301197878e-10
8.36981515054e-13
-2.67105679974e-11
-4.43881640768e-10
4.25698744337e-13
-2.72604418794e-11
-4.56184646831e-10
-2.71190643287e-14
-2.74631194522e-11
-4.60467427486e-10
-4.50720961107e-13
-2.72877234521e-11
-4.56103833291e-10
-7.82157606e-13
-2.67640446223e-11
-4.43724587593e-10
-9.67315860599e-13
-2.59186104512e-11
-4.2407680871e-10
-9.65347656417e-13
-2.47882595947e-11
-3.98209757376e-10
-7.58605808988e-13
-2.3432147668e-11
-3.67589036749e-10
-3.64749024595e-13
-2.19171084449e-11
-3.33947241548e-10
-2.03693260425e-11
-2.98942227397e-10
1.60621951723e-13
4.65662713328e-13
-1.86574008936e-11
-2.85184749479e-10
3.18813085636e-14
8.61801995916e-13
-2.0017173811e-11
-3.19649011709e-10
1.0954214814e-12
-2.13273024765e-11
-3.52545502505e-10
1.14615384293e-12
-2.24873904406e-11
-3.82308479394e-10
1.02599309067e-12
-2.34506642553e-11
-4.0731589981e-10
7.68259285805e-13
-2.41737280597e-11
-4.26218261074e-10
4.18495743475e-13
-2.46293732711e-11
-4.38054582086e-10
3.09481539073e-14
-2.47975418669e-11
-4.42151906569e-10
-3.32438360697e-13
-2.46548755401e-11
-4.37968906078e-10
-6.16874611731e-13
-2.42235685688e-11
-4.2605197607e-10
-7.7553105664e-13
-2.3522646923e-11
-4.07078982629e-10
-7.73095077667e-13
-2.25781956194e-11
-3.82015449266e-10
-5.94562598132e-13
-2.14327227509e-11
-3.52213341744e-10
-2.56123975918e-13
-2.01297646988e-11
-3.19285235049e-10
-1.87740251312e-11
-2.84787554924e-10
1.84891527725e-13
3.86530748306e-13
-1.66833939169e-11
-2.66837312247e-10
3.18289933489e-14
7.26702955175e-13
-1.78294929345e-11
-3.00585814266e-10
9.31093933899e-13
-1.89134415348e-11
-3.32526008305e-10
9.84208007119e-13
-1.98598279147e-11
-3.61200927736e-10
8.95374704959e-13
-2.06388142392e-11
-3.85141009379e-10
6.9102599448e-13
-2.12198612502e-11
-4.0314776783e-10
4.08220941254e-13
-2.15842113757e-11
-4.14373136411e-10
9.18405193778e-14
-2.17185585558e-11
-4.18233123724e-10
-2.05780122756e-13
-2.16063483499e-11
-4.14283317082e-10
-4.39109912811e-13
-2.12630888029e-11
-4.02973563195e-10
-5.69528644781e-13
-2.07009891499e-11
-3.84893264857e-10
-5.68421705692e-13
-1.99379495971e-11
-3.60895733278e-10
-4.23381068698e-13
-1.90037437961e-11
-3.32182575652e-10
-1.45919467822e-13
-1.79252612315e-11
-3.00212822041e-10
-1.67834363708e-11
-2.6643555231e-10
2.09890092192e-13
3.03434523915e-13
-1.4444216809e-11
-2.4532276871e-10
3.16208392647e-14
5.75070025438e-13
-1.53547383527e-11
-2.78288640753e-10
7.43739566095e-13
-1.6216018624e-11
-3.09142109731e-10
7.99649139819e-13
-1.69658090204e-11
-3.36544873874e-10
7.46653320406e-13
-1.75791237814e-11
-3.59222850409e-10
6.02176987652e-13
-1.80334868368e-11
-3.76167677784e-10
3.934873889e-13
-1.83165244297e-11
-3.86670967223e-10
1.55870615535e-13
-1.84198305956e-11
-3.90254000845e-10
-6.87791178978e-14
-1.83336121867e-11
-3.8657788913e-10
-2.44313478497e-13
-1.80667373241e-11
-3.75987126087e-10
-3.41811909403e-13
-1.76268057402e-11
-3.58966179283e-10
-3.41372797811e-13
-1.70253713644e-11
-3.36229374954e-10
-2.36072896338e-13
-1.62844931542e-11
-3.08789313999e-10
-3.18064478461e-14
-1.54261434297e-11
-2.77909199505e-10
-1.45192759559e-11
-2.44920288867e-10
2.34870625478e-13
1.86915127793e-13
-1.20283949185e-11
-2.21644413409e-10
3.1301276214e-14
3.66163168576e-13
-1.269483567e-11
-2.53904374266e-10
4.97765834998e-13
-1.33654566995e-11
-2.83622720852e-10
5.66249458671e-13
-1.39544683446e-11
-3.09627651608e-10
5.62287132203e-13
-1.44327222649e-11
-3.30901084155e-10
4.91413113764e-13
-1.47837028399e-11
-3.46661933271e-10
3.70670449626e-13
-1.49997780173e-11
-3.56362321675e-10
2.2526858911e-13
-1.50767980542e-11
-3.59640223424e-10
8.75235986883e-14
-1.50099317215e-11
-3.56267233787e-10
-1.64254362033e-14
-1.48034450851e-11
-3.46477276539e-10
-6.76229189616e-14
-1.4460858166e-11
-3.30638160789e-10
-5.79799073254e-14
-1.39893320954e-11
-3.09304145463e-10
6.63514843925e-15
-1.34049365747e-11
-2.83262259716e-10
1.14440928734e-13
-1.27342907223e-11
-2.53521758138e-10
-1.2070584117e-11
-2.21247828015e-10
2.59500551709e-13
-2.92584206879e-14
-1.9676516088e-10
3.08671690913e-14
-9.49990231318e-12
3.05075588108e-14
-2.28512395685e-10
-9.97521635307e-12
1.35673506806e-13
-2.57057667795e-10
-1.0515535855e-11
2.37129745948e-13
-2.81578011227e-10
-1.09813903217e-11
3.06647390983e-13
-3.01359852562e-10
-1.13515264685e-11
3.36253647515e-13
-3.15867906272e-10
-1.16188880117e-11
3.31369082378e-13
-3.24721993722e-10
-1.1780387685e-11
3.06851078001e-13
-3.2768061857e-10
-1.18347530251e-11
2.83930394744e-13
-3.24627041167e-10
-1.1781721121e-11
2.78560340571e-13
-3.15683215202e-10
-1.16213380701e-11
2.98122382358e-13
-3.01096052947e-10
-1.13547330854e-11
3.37521624143e-13
-2.81251819633e-10
-1.09847283026e-11
3.7185284729e-13
-2.56693729944e-10
-1.05183686716e-11
3.56771861815e-13
-2.28126252346e-10
-9.97498919204e-12
-1.96392127611e-10
2.8302719035e-13
-9.50252885328e-12
-1.87496158585e-13
2.5907065976e-12
-4.7045280577e-11
3.384340436e-15
-2.80270077387e-13
2.90667493339e-12
-5.23062617813e-11
-3.14901289722e-13
3.25019282492e-12
-5.75037495448e-11
-3.01906275616e-13
3.57105011836e-12
-6.23096538129e-11
-2.46778516531e-13
3.84835320384e-12
-6.64088311169e-11
-1.58877341161e-13
4.06101644548e-12
-6.95424050254e-11
-5.00557779348e-14
4.19546133438e-12
-7.15324739037e-11
6.60179713217e-14
4.24221796407e-12
-7.22440552344e-11
1.74074192886e-13
4.19262050377e-12
-7.15263769511e-11
2.60573540189e-13
4.0558688658e-12
-6.95303977961e-11
3.1407020997e-13
3.84172079303e-12
-6.63912403688e-11
3.25636213749e-13
3.5634322593e-12
-6.22868421122e-11
2.88144134098e-13
3.24034563708e-12
-5.74758462423e-11
1.93017200743e-13
2.89810336544e-12
-5.22721488355e-11
2.58411522869e-12
-4.69999917212e-11
6.727496877e-15
-4.47361962063e-13
5.38586828704e-12
-1.24637465615e-10
8.44341556543e-15
-7.01598016515e-13
5.98276591721e-12
-1.38343376625e-10
-8.05851514769e-13
6.63484504336e-12
-1.51886704087e-10
-7.80465295829e-13
7.25134440071e-12
-1.64413032231e-10
-6.41391707169e-13
7.78344162135e-12
-1.75100045158e-10
-4.13519196194e-13
8.19110959333e-12
-1.83270997983e-10
-1.28875451457e-13
8.44857336377e-12
-1.8845863843e-10
1.75329418854e-13
8.53786856123e-12
-1.90309457704e-10
4.57959014146e-13
8.44181411346e-12
-1.88440515223e-10
6.82097221509e-13
8.17850121239e-12
-1.83235344145e-10
8.16559383424e-13
7.76654439187e-12
-1.75047901015e-10
8.36950978849e-13
7.23137375236e-12
-1.64345585547e-10
7.25516684792e-13
6.61106276556e-12
-1.51804516133e-10
4.64193585228e-13
5.96015908906e-12
-1.38243605423e-10
5.36780022773e-12
-1.24509814699e-10
1.91083000817e-14
-6.18187001874e-13
7.17174495624e-12
-1.85914253921e-10
1.21067955162e-14
-9.96187598641e-13
7.90299112344e-12
-2.06276561893e-10
-1.1607788891e-12
8.70538950607e-12
-2.26381100003e-10
-1.13230789505e-12
9.47387341682e-12
-2.44973070014e-10
-9.33955832573e-13
1.01393381699e-11
-2.60836135886e-10
-6.02431155962e-13
1.06501751409e-11
-2.72965290694e-10
-1.85664228505e-13
1.09728483489e-11
-2.80662437049e-10
2.60351090262e-13
1.10843293784e-11
-2.83402366513e-10
6.7408169205e-13
1.09629292998e-11
-2.80632952673e-10
9.99943706607e-13
1.06314695782e-11
-2.72907346578e-10
1.19100859733e-12
1.01138661242e-11
-2.60751551992e-10
1.21105668541e-12
9.44344491049e-12
-2.44864010427e-10
1.03568939704e-12
8.67021754062e-12
-2.26248966972e-10
6.46573707556e-13
7.86839356194e-12
-2.06118092391e-10
7.1434480698e-12
-1.85716434588e-10
3.08723387914e-14
-7.25770926785e-13
8.20910882566e-12
-2.33134668882e-10
1.47117275103e-14
-1.19386222439e-12
8.98886400077e-12
-2.58666358762e-10
-1.40912482528e-12
9.84068082252e-12
-2.83832768686e-10
-1.38446885595e-12
1.06625591121e-11
-3.07091869105e-10
-1.14630255344e-12
1.13762432036e-11
-3.26933072889e-10
-7.39817503365e-13
1.19252170114e-11
-3.42102253713e-10
-2.25321904257e-13
1.22722419173e-11
-3.51722969568e-10
3.26143037946e-13
1.23917006074e-11
-3.55139762276e-10
8.36773556696e-13
1.22600022647e-11
-3.51682956632e-10
1.23600053976e-12
1.19019034791e-11
-3.42023714255e-10
1.46450378794e-12
1.13439581067e-11
-3.26818683386e-10
1.47768035246e-12
1.06235827632e-11
-3.06944953893e-10
1.24852105019e-12
9.79641866654e-12
-2.83656025022e-10
7.66144417233e-13
8.94467929892e-12
-2.58457311103e-10
8.17118177149e-12
-2.3288009275e-10
4.24136871478e-14
-7.85871186668e-13
8.70086029537e-12
-2.67763664188e-10
1.65018302026e-14
-1.31387925442e-12
9.48360483982e-12
-2.97166084327e-10
-1.56766021091e-12