/*--------------------------------*- C++ -*----------------------------------*\
  =========                 |
  \\      /  F ield         | OpenFOAM: The Open Source CFD Toolbox
   \\    /   O peration     | Website:  https://openfoam.org
    \\  /    A nd           | Version:  7
     \\/     M anipulation  |
\*---------------------------------------------------------------------------*/
FoamFile
{
    version     2.0;
    format      ascii;
    class       volVectorField;
    location    "2";
    object      U;
}
// * * * * * * * * * * * * * * * * * * * * * * * * * * * * * * * * * * * * * //

dimensions      [0 1 -1 0 0 0 0];

internalField   nonuniform List<vector> 
22500
(
(-1.69102099608e-06 -1.83537812982e-06 -1.77864478054e-05)
(-1.63577287411e-06 -2.03861320991e-06 -1.87869445753e-05)
(-1.49165211566e-06 -2.26867681366e-06 -1.9772910638e-05)
(-1.29308801301e-06 -2.48533933491e-06 -2.06707089923e-05)
(-1.02949356695e-06 -2.67721083237e-06 -2.14237410123e-05)
(-7.15571408123e-07 -2.82670416625e-06 -2.19900926614e-05)
(-3.65078070274e-07 -2.92147476308e-06 -2.23412661905e-05)
(4.54596379363e-09 -2.95369230635e-06 -2.24603822007e-05)
(3.7407261921e-07 -2.92058144908e-06 -2.23397912621e-05)
(7.24285063621e-07 -2.82495512078e-06 -2.19871414269e-05)
(1.03775460386e-06 -2.67468200279e-06 -2.14192975583e-05)
(1.30077422943e-06 -2.48212848593e-06 -2.06647026688e-05)
(1.49859389128e-06 -2.26492743271e-06 -1.97651080377e-05)
(1.64220083369e-06 -2.03429118492e-06 -1.8776527198e-05)
(1.69594188825e-06 -1.83111060179e-06 -1.77708723382e-05)
(-4.84886604814e-06 -5.27901638519e-06 -5.04465561754e-05)
(-4.6647463099e-06 -5.86165917513e-06 -5.3116557555e-05)
(-4.25596817891e-06 -6.51106073352e-06 -5.57694105433e-05)
(-3.68517083101e-06 -7.12382998882e-06 -5.81985873802e-05)
(-2.93495585779e-06 -7.6655703983e-06 -6.02436042844e-05)
(-2.04027446465e-06 -8.08772927213e-06 -6.1785458495e-05)
(-1.04081209729e-06 -8.355536526e-06 -6.27427112941e-05)
(1.35699910334e-08 -8.4465456944e-06 -6.30668829177e-05)
(1.06766503198e-06 -8.35291146858e-06 -6.2738107229e-05)
(2.06629191323e-06 -8.08259617672e-06 -6.17762547386e-05)
(2.95962996257e-06 -7.65816334383e-06 -6.0229762667e-05)
(3.70810347357e-06 -7.11446155028e-06 -5.8179909244e-05)
(4.27671189939e-06 -6.50018610128e-06 -5.57452164797e-05)
(4.68348752592e-06 -5.84934978495e-06 -5.3084477215e-05)
(4.86323411893e-06 -5.26667946626e-06 -5.04005227083e-05)
(-7.29649544002e-06 -7.93064824547e-06 -7.97959081575e-05)
(-6.9777480657e-06 -8.76788737393e-06 -8.3795271495e-05)
(-6.35534120006e-06 -9.69508228853e-06 -8.77939759752e-05)
(-5.49291664305e-06 -1.05704975942e-05 -9.14717764677e-05)
(-4.3705805415e-06 -1.13434881053e-05 -9.45770520477e-05)
(-3.03588683364e-06 -1.19456927981e-05 -9.69227437694e-05)
(-1.54720459949e-06 -1.23276311258e-05 -9.83804051973e-05)
(2.21842967876e-08 -1.24572863824e-05 -9.88735407339e-05)
(1.59111692203e-06 -1.23234826176e-05 -9.83725569349e-05)
(3.07846521365e-06 -1.19375850426e-05 -9.69070687972e-05)
(4.4110090632e-06 -1.13317969866e-05 -9.45535103327e-05)
(5.53052653572e-06 -1.05557416033e-05 -9.14400872334e-05)
(6.38941512034e-06 -9.67799655488e-06 -8.77531468208e-05)
(7.00825098426e-06 -8.74871276248e-06 -8.37418145275e-05)
(7.3200615926e-06 -7.91118365422e-06 -7.97211314453e-05)
(-9.16589730042e-06 -9.94250659556e-06 -0.000105909397606)
(-8.71611720467e-06 -1.09370452896e-05 -0.000110913565119)
(-7.91998335164e-06 -1.20355765869e-05 -0.000115947095181)
(-6.83068149463e-06 -1.30725721833e-05 -0.000120597405748)
(-5.42799898733e-06 -1.39873412348e-05 -0.000124535433851)
(-3.76650173478e-06 -1.46995841239e-05 -0.000127515771918)
(-1.91728529388e-06 -1.51510759879e-05 -0.000129369524462)
(3.03185875384e-08 -1.5304116925e-05 -0.000129996188787)
(1.97731475203e-06 -1.51455870461e-05 -0.00012935836276)
(3.82474850953e-06 -1.46888600808e-05 -0.00012749350338)
(5.4833633838e-06 -1.39718835075e-05 -0.000124502048449)
(6.88223238783e-06 -1.30530855741e-05 -0.000120552614855)
(7.96675210611e-06 -1.20130472193e-05 -0.0001158897801)
(8.75780032498e-06 -1.09118636222e-05 -0.000110839609324)
(9.19850473921e-06 -9.91672942277e-06 -0.000105808513195)
(-1.05516952841e-05 -1.14263289255e-05 -0.00012888342385)
(-9.97937600344e-06 -1.25006982488e-05 -0.000134587218387)
(-9.04199979687e-06 -1.36867233668e-05 -0.000140361229928)
(-7.77931733113e-06 -1.48062673811e-05 -0.000145721316488)
(-6.17191032091e-06 -1.57927898243e-05 -0.000150274655941)
(-4.27728295899e-06 -1.65603021594e-05 -0.000153727413012)
(-2.17426300017e-06 -1.70464508858e-05 -0.000155877073219)
(3.79900347904e-08 -1.72109404834e-05 -0.000156603301271)
(2.24949993692e-06 -1.70397945316e-05 -0.000155862516746)
(4.35033405409e-06 -1.65472978816e-05 -0.00015369841072)
(6.24141563023e-06 -1.57740446787e-05 -0.000150231276084)
(7.84409564241e-06 -1.47826450704e-05 -0.000145663365182)
(9.10086057844e-06 -1.36594205673e-05 -0.000140287674825)
(1.00317633263e-05 -1.24702224809e-05 -0.000134493674824)
(1.0593249132e-05 -1.13949235266e-05 -0.000128758640492)
(-1.15142047732e-05 -1.24500358268e-05 -0.000148837430226)
(-1.08309400684e-05 -1.35394253542e-05 -0.000154959619829)
(-9.78121861163e-06 -1.47436784411e-05 -0.000161202501576)
(-8.39181559634e-06 -1.58808567723e-05 -0.000167028870857)
(-6.64493325579e-06 -1.68816602199e-05 -0.000171995124906)
(-4.59804641089e-06 -1.76595174537e-05 -0.000175768760444)
(-2.33345842459e-06 -1.81517037662e-05 -0.000178120541923)
(4.52412642908e-08 -1.83178640289e-05 -0.000178914534606)
(2.42307795567e-06 -1.81440472085e-05 -0.000178102477346)
(4.68512128667e-06 -1.76445552313e-05 -0.00017573282564)
(6.72786796638e-06 -1.68600813398e-05 -0.000171941528403)
(8.46919729859e-06 -1.58536526876e-05 -0.000166957634344)
(9.85167013745e-06 -1.47122090599e-05 -0.000161112888413)
(1.08936911571e-05 -1.35042919174e-05 -0.000154847205957)
(1.15646573576e-05 -1.24136264658e-05 -0.000148690222162)
(-1.21074610634e-05 -1.30726673624e-05 -0.000165911028193)
(-1.13268108535e-05 -1.41243443279e-05 -0.000172198046716)
(-1.01910224007e-05 -1.52909207598e-05 -0.0001786653039)
(-8.71569237102e-06 -1.63933844239e-05 -0.000184737812868)
(-6.88548375139e-06 -1.73621514255e-05 -0.000189932948625)
(-4.75576043805e-06 -1.81141523807e-05 -0.000193888968901)
(-2.40875047162e-06 -1.85893269206e-05 -0.000196356859642)
(5.21218111656e-08 -1.874929393e-05 -0.000197189404134)
(2.51202665069e-06 -1.85808318972e-05 -0.000196335128712)
(4.85617804959e-06 -1.80975418232e-05 -0.000193845816084)
(6.98123795467e-06 -1.73381694659e-05 -0.000189868792813)
(8.80516189746e-06 -1.63631165545e-05 -0.000184653019141)
(1.0272677159e-05 -1.52558438567e-05 -0.000178559621425)
(1.13996985141e-05 -1.40851348497e-05 -0.000172067128789)
(1.21668172969e-05 -1.30318364874e-05 -0.000165742230151)
(-1.23848684421e-05 -1.33527084739e-05 -0.000180260417739)
(-1.15212482646e-05 -1.43262194527e-05 -0.000186489403962)
(-1.0322927039e-05 -1.54121537549e-05 -0.000192966805821)
(-8.79669998142e-06 -1.64393718123e-05 -0.000199091230347)
(-6.93057777133e-06 -1.73401791994e-05 -0.000204351341197)
(-4.77643709862e-06 -1.80382214238e-05 -0.000208365357064)
(-2.41353552772e-06 -1.84785049643e-05 -0.000210871648086)
(5.86807126131e-08 -1.86261927795e-05 -0.000211716258413)
(2.52984133576e-06 -1.8469331317e-05 -0.000210846032915)
(4.88961798643e-06 -1.8020266079e-05 -0.000208314580953)
(7.03864785172e-06 -1.73142126149e-05 -0.000204276104355)
(8.89785457384e-06 -1.64065362827e-05 -0.000198992366203)
(1.041551206e-05 -1.53739989443e-05 -0.000192844713656)
(1.1604141988e-05 -1.428347696e-05 -0.000186339842285)
(1.24531781282e-05 -1.33079989144e-05 -0.000180070179419)
(-1.23975915678e-05 -1.33465452109e-05 -0.000192057734843)
(-1.14652671559e-05 -1.42131618722e-05 -0.00019803972129)
(-1.02249206678e-05 -1.51873195107e-05 -0.000204345762482)
(-8.67726820347e-06 -1.61092926009e-05 -0.000210355072748)
(-6.81452434604e-06 -1.69154284214e-05 -0.000215536682734)
(-4.68419866895e-06 -1.75385910436e-05 -0.0002194982223)
(-2.36024592098e-06 -1.79306997178e-05 -0.000221973228713)
(6.49607998437e-08 -1.80616064867e-05 -0.000222806015994)
(2.48904161221e-06 -1.79210112105e-05 -0.000221943436882)
(4.80965505604e-06 -1.75196008836e-05 -0.000219439262838)
(6.93450522026e-06 -1.68879017056e-05 -0.000215449599836)
(8.78981115868e-06 -1.60743877652e-05 -0.000210241281508)
(1.03282679117e-05 -1.51466132031e-05 -0.000204206450498)
(1.15581238048e-05 -1.41674170581e-05 -0.000197870709463)
(1.24749517374e-05 -1.32984741885e-05 -0.00019184539743)
(-1.21938414993e-05 -1.31078134068e-05 -0.000201494415066)
(-1.12059972866e-05 -1.38495029366e-05 -0.000207078614644)
(-9.94080007874e-06 -1.4690972874e-05 -0.00021306664698)
(-8.39594087447e-06 -1.54866677777e-05 -0.000218820903055)
(-6.56849219359e-06 -1.6179332367e-05 -0.000223799614904)
(-4.50098605531e-06 -1.67129343673e-05 -0.000227610552518)
(-2.26020604796e-06 -1.70476058751e-05 -0.000229991465473)
(7.09932724565e-08 -1.71586234135e-05 -0.000230790720025)
(2.40101609171e-06 -1.70375785652e-05 -0.000229957117505)
(4.63829999481e-06 -1.66932429016e-05 -0.000227542662252)
(6.70005669463e-06 -1.61507017826e-05 -0.000223699612439)
(8.51966170162e-06 -1.54502265509e-05 -0.000218690877491)
(1.00548278341e-05 -1.46482748591e-05 -0.000212908692177)
(1.13088488589e-05 -1.38013084997e-05 -0.00020688851337)
(1.22804042618e-05 -1.30568980138e-05 -0.000201258321399)
(-1.18187803901e-05 -1.26877100619e-05 -0.000208790015343)
(-1.07865567451e-05 -1.3295458852e-05 -0.000213870252665)
(-9.51017046287e-06 -1.39913733587e-05 -0.000219430091247)
(-7.98751893482e-06 -1.46470125311e-05 -0.000224814180869)
(-6.22069455803e-06 -1.52141034089e-05 -0.000229480991407)
(-4.24671154647e-06 -1.56488950283e-05 -0.000233052211386)
(-2.12371739362e-06 -1.59204137281e-05 -0.000235280921209)
(7.679234171e-08 -1.6009671838e-05 -0.000236026366784)
(2.27609626571e-06 -1.59102451818e-05 -0.000235241546503)
(4.39549992879e-06 -1.56288782544e-05 -0.000232974435975)
(6.36355830829e-06 -1.51848865629e-05 -0.00022936663281)
(8.12225777927e-06 -1.46096412918e-05 -0.000224666059156)
(9.63484909437e-06 -1.39473223716e-05 -0.000219251322159)
(1.08994878757e-05 -1.32454394249e-05 -0.000213656454264)
(1.19147617301e-05 -1.26345180178e-05 -0.000208527285971)
(-1.13140817067e-05 -1.21352096862e-05 -0.00021420918905)
(-1.0245884523e-05 -1.26060754309e-05 -0.000218733416294)
(-8.96882540819e-06 -1.31487946809e-05 -0.000223790823466)
(-7.48368204471e-06 -1.36562533596e-05 -0.00022870802196)
(-5.79696417587e-06 -1.40914347463e-05 -0.000232962066)
(-3.93966874096e-06 -1.44230198727e-05 -0.000236207854049)
(-1.96026929465e-06 -1.46288758494e-05 -0.000238227606706)
(8.23506401038e-08 -1.46956321156e-05 -0.000238899310531)
(2.12375712432e-06 -1.4618792142e-05 -0.000238182660415)
(4.09953573882e-06 -1.44031130884e-05 -0.000236119049445)
(5.95083356981e-06 -1.40622386646e-05 -0.000232831534787)
(7.62927392367e-06 -1.36186714488e-05 -0.000228539301884)
(9.10411838261e-06 -1.31041547974e-05 -0.000223588202284)
(1.03689744291e-05 -1.25549894016e-05 -0.000218492339696)
(1.14197351149e-05 -1.20804397957e-05 -0.000213915657452)
(-1.07165440588e-05 -1.14948890915e-05 -0.000218091679622)
(-9.61934524457e-06 -1.18276833973e-05 -0.00022207428855)
(-8.35029101141e-06 -1.22126033856e-05 -0.000226583155287)
(-6.91445967528e-06 -1.25687014476e-05 -0.000230940590111)
(-5.321845546e-06 -1.28711245001e-05 -0.000234676902843)
(-3.59723667805e-06 -1.30997181268e-05 -0.000237506966411)
(-1.77888505068e-06 -1.32404319364e-05 -0.000239258081561)
(8.76369202613e-08 -1.32850040517e-05 -0.000239835140764)
(1.95295662815e-06 -1.32306875091e-05 -0.000239207007022)
(3.76771541213e-06 -1.30804176224e-05 -0.000237405903774)
(5.48635090814e-06 -1.2842656531e-05 -0.000234528091953)
(7.07065946036e-06 -1.25317635622e-05 -0.000230748101942)
(8.49607126186e-06 -1.21682943213e-05 -0.000226352638834)
(9.75256829485e-06 -1.17764432566e-05 -0.000221801574254)
(1.08319731558e-05 -1.14395067005e-05 -0.000217762830393)
(-1.00599492988e-05 -1.08005555342e-05 -0.000220903074503)
(-8.94438165886e-06 -1.09938008285e-05 -0.000224434621675)
(-7.68974814793e-06 -1.12171595262e-05 -0.000228348050207)
(-6.31041943247e-06 -1.1425267805e-05 -0.000232029026524)
(-4.81995421418e-06 -1.16000826703e-05 -0.000235121877992)
(-3.23671786432e-06 -1.17306730851e-05 -0.000237432753468)
(-1.58853336465e-06 -1.18098391151e-05 -0.000238848706042)
(9.25972693826e-08 -1.18336138719e-05 -0.000239308174532)
(1.77255093846e-06 -1.18006982793e-05 -0.000238791088471)
(3.41721369094e-06 -1.171250375e-05 -0.000237318418697)
(4.99457806147e-06 -1.15731126889e-05 -0.000234952765036)
(6.47681693401e-06 -1.13899342164e-05 -0.000231809134168)
(7.84571702254e-06 -1.11742231492e-05 -0.000228084271407)
(9.08754745432e-06 -1.09434534805e-05 -0.000224124977209)
(1.01853411092e-05 -1.07454120705e-05 -0.000220535696533)
(-9.38975345908e-06 -1.00967583078e-05 -0.00022333574183)
(-8.27382680693e-06 -1.00844989758e-05 -0.000226556453481)
(-7.0251889594e-06 -1.01615826111e-05 -0.000229737094915)
(-5.70419973705e-06 -1.02345533873e-05 -0.000232562809578)
(-4.31728613262e-06 -1.0294789828e-05 -0.00023485257492)
(-2.87643182897e-06 -1.03385223205e-05 -0.000236524459249)
(-1.398747363e-06 -1.03637543714e-05 -0.00023753171252)
(9.71655087587e-08 -1.03695499736e-05 -0.000237848912216)
(1.59193646172e-06 -1.03555951782e-05 -0.000237467752161)
(3.06620103112e-06 -1.03222462548e-05 -0.000236397069823)
(4.50134407451e-06 -1.02704713824e-05 -0.000234662873532)
(5.88021055042e-06 -1.0202355574e-05 -0.000232313528575)
(7.19088313948e-06 -1.01219039075e-05 -0.000229435397284)
(8.42623222573e-06 -1.00368700325e-05 -0.000226198929742)
(9.52568643131e-06 -1.00438637868e-05 -0.0002229384905)
(-1.32387137476e-08 -2.1220855073e-08 -2.06611818998e-05)
(-8.11675532341e-09 -2.85589136855e-08 -2.18062892779e-05)
(-4.966964502e-09 -3.33030657407e-08 -2.29222671233e-05)
(-2.70443418454e-09 -3.65951903077e-08 -2.39304633096e-05)
(-1.21718349626e-09 -3.88178193328e-08 -2.47717938021e-05)
(-3.71993107231e-10 -4.02174579763e-08 -2.5402420467e-05)
(3.03961204695e-11 -4.09770824447e-08 -2.57926294175e-05)
(1.91137309144e-10 -4.12072567805e-08 -2.59248181377e-05)
(3.51545891031e-10 -4.09453850276e-08 -2.57908443396e-05)
(7.52907434299e-10 -4.01590168663e-08 -2.53988536167e-05)
(1.58675130865e-09 -3.874632795e-08 -2.4766443957e-05)
(3.0278284547e-09 -3.65320420518e-08 -2.3923287681e-05)
(5.19595384669e-09 -3.32695761397e-08 -2.29130779613e-05)
(8.2342654162e-09 -2.85762535099e-08 -2.17943232616e-05)
(1.32471147577e-08 -2.12646451386e-08 -2.06438722745e-05)
(-4.74927550888e-08 -6.86530075077e-08 -5.81237137834e-05)
(-3.34298376756e-08 -8.92949256883e-08 -6.11303335612e-05)
(-2.34651084509e-08 -1.04167010928e-07 -6.4081385496e-05)
(-1.58185675911e-08 -1.15162001284e-07 -6.67601654279e-05)
(-9.98738242582e-09 -1.23009657812e-07 -6.90023302498e-05)
(-5.60145028138e-09 -1.28219272153e-07 -7.06862602036e-05)
(-2.20300363837e-09 -1.31171936168e-07 -7.17291470026e-05)
(6.59257043504e-10 -1.32100419408e-07 -7.20817570196e-05)
(3.51509108046e-09 -1.31087572778e-07 -7.17235790467e-05)
(6.89221909448e-09 -1.28066789043e-07 -7.06751431128e-05)
(1.12216937383e-08 -1.22826396851e-07 -6.89856749798e-05)
(1.6913704731e-08 -1.15000007346e-07 -6.67378666721e-05)
(2.43034435894e-08 -1.04076186112e-07 -6.40529167773e-05)
(3.39700747803e-08 -8.93146247303e-08 -6.10935059602e-05)
(4.77173679023e-08 -6.87466459478e-08 -5.80725221952e-05)
(-9.12930203745e-08 -1.23727531746e-07 -9.15551849728e-05)
(-6.94776067449e-08 -1.57176188077e-07 -9.60232908852e-05)
(-5.24663295392e-08 -1.83127784668e-07 -0.000100432566135)
(-3.84422199759e-08 -2.03247978254e-07 -0.000104450791956)
(-2.65923873068e-08 -2.18224297461e-07 -0.000107822709061)
(-1.63966134192e-08 -2.28534465539e-07 -0.00011035927713)
(-7.30368647488e-09 -2.34545959112e-07 -0.000111931372303)
(1.19219120516e-09 -2.36482826633e-07 -0.000112462249502)
(9.67156060407e-09 -2.34424246631e-07 -0.000111921865104)
(1.87113469088e-08 -2.2831845102e-07 -0.000110340309016)
(2.87933920449e-08 -2.17971499736e-07 -0.0001077943303)
(4.04169060382e-08 -2.03033403992e-07 -0.000104412892619)
(5.40556437787e-08 -1.83017880511e-07 -0.000100384431658)
(7.06161253421e-08 -1.57200180733e-07 -9.59617793545e-05)
(9.19321229744e-08 -1.23855305703e-07 -9.14718151727e-05)
(-1.33567557385e-07 -1.74787588192e-07 -0.000121187126936)
(-1.05166816308e-07 -2.18338109034e-07 -0.000126752237239)
(-8.16069690207e-08 -2.53521852461e-07 -0.000132272546103)
(-6.14254293498e-08 -2.81467902051e-07 -0.000137323728702)
(-4.36006959336e-08 -3.0268466053e-07 -0.000141573882602)
(-2.75144906618e-08 -3.17523035736e-07 -0.000144776603389)
(-1.25648183405e-08 -3.26275168763e-07 -0.000146763139397)
(1.7718084917e-09 -3.29121316315e-07 -0.000147433321029)
(1.60788601221e-08 -3.2612560661e-07 -0.000146749576341)
(3.09351444555e-08 -3.17258122398e-07 -0.000144749568275)
(4.68406060671e-08 -3.02373256919e-07 -0.000141533505406)
(6.43506021293e-08 -2.81197019982e-07 -0.000137269983352)
(8.40380092054e-08 -2.53370777727e-07 -0.000132204734541)
(1.07023035417e-07 -2.18325796844e-07 -0.000126666786755)
(1.34771073441e-07 -1.74904794178e-07 -0.000121074187609)
(-1.73017542936e-07 -2.21024387338e-07 -0.000147228087086)
(-1.39167401019e-07 -2.72237419299e-07 -0.000153557392951)
(-1.0973199692e-07 -3.14753176787e-07 -0.000159870411508)
(-8.37987197847e-08 -3.49044199539e-07 -0.00016567246621)
(-6.02491129686e-08 -3.75410191907e-07 -0.000170568687093)
(-3.84275298046e-08 -3.94028903022e-07 -0.000174265040852)
(-1.77189559126e-08 -4.05086163718e-07 -0.000176559747461)
(2.38976880005e-09 -4.08700734971e-07 -0.000177333237028)
(2.24545454628e-08 -4.04916521007e-07 -0.000176542002597)
(4.30261746842e-08 -3.93726846553e-07 -0.000174229710468)
(6.45972834764e-08 -3.75048958779e-07 -0.00017051603705)
(8.77456149887e-08 -3.48715565443e-07 -0.000165602669247)
(1.130898408e-07 -3.14545268358e-07 -0.000159783011866)
(1.41850181047e-07 -2.7216562292e-07 -0.000153448760281)
(1.74912867933e-07 -2.21103650825e-07 -0.000147087668)
(-2.09110497244e-07 -2.62399460815e-07 -0.000169876984623)
(-1.7077909575e-07 -3.19069257221e-07 -0.000176668637576)
(-1.36168266783e-07 -3.67050720865e-07 -0.000183485650246)
(-1.04973212646e-07 -4.06138588849e-07 -0.000189781845429)
(-7.60678379807e-08 -4.36453918835e-07 -0.000195112043885)
(-4.88085377632e-08 -4.57999820341e-07 -0.000199143929191)
(-2.25998054897e-08 -4.70853045383e-07 -0.000201649230362)
(3.04071649494e-09 -4.75069099942e-07 -0.000202492981579)
(2.86228608767e-08 -4.70670939671e-07 -0.000201627156126)
(5.46515938199e-08 -4.57673301652e-07 -0.00019910003719)
(8.15931715637e-08 -4.36055780086e-07 -0.000195046803362)
(1.1001683682e-07 -4.05760581314e-07 -0.000189695756677)
(1.40539021223e-07 -3.66784602801e-07 -0.000183378714848)
(1.74391976409e-07 -3.18929202974e-07 -0.000176537390869)
(2.118121296e-07 -2.62429168521e-07 -0.000169710378179)
(-2.4083655695e-07 -2.98094795874e-07 -0.000189327469281)
(-1.9880866137e-07 -3.58043195459e-07 -0.00019631068968)
(-1.59741889238e-07 -4.09524218144e-07 -0.000203373360261)
(-1.23906302532e-07 -4.51707262041e-07 -0.000209933117568)
(-9.02181498946e-08 -4.84597836594e-07 -0.000215505780584)
(-5.80721135959e-08 -5.08067074619e-07 -0.000219729718546)
(-2.69082107688e-08 -5.22106250521e-07 -0.000222356756511)
(3.72063606697e-09 -5.26721697251e-07 -0.000223240630519)
(3.42775751523e-08 -5.21919353466e-07 -0.000222330176448)
(6.52216880223e-08 -5.07729325261e-07 -0.000219676943221)
(9.69887491777e-08 -4.84178223384e-07 -0.000215427554818)
(1.30123070391e-07 -4.5129351248e-07 -0.000209830399141)
(1.65212525784e-07 -4.09208249003e-07 -0.000203246795632)
(2.03448654048e-07 -3.57835041631e-07 -0.00019615707816)
(2.44452609025e-07 -2.98073755686e-07 -0.000189135327475)
(-2.67192952548e-07 -3.27160377205e-07 -0.000205771134935)
(-2.22106690716e-07 -3.88230531917e-07 -0.000212707090001)
(-1.79324598574e-07 -4.41191112186e-07 -0.000219788502303)
(-1.39596154566e-07 -4.84683374987e-07 -0.000226408059099)
(-1.01897187703e-07 -5.18678182069e-07 -0.000232052405212)
(-6.56609322488e-08 -5.42982248366e-07 -0.00023633938002)
(-3.03603017137e-08 -5.57540839987e-07 -0.000239007784263)
(4.42625445572e-09 -5.62333616532e-07 -0.000239904431658)
(3.91289629453e-08 -5.57356667788e-07 -0.000238976482381)
(7.41748510893e-08 -5.42646570245e-07 -0.000236277318992)
(1.09978784445e-07 -5.18253658339e-07 -0.000231960674346)
(1.47060936584e-07 -4.8425038361e-07 -0.00022628819425)
(1.8598036879e-07 -4.40838109833e-07 -0.000219641948416)
(2.27865803037e-07 -3.87961760593e-07 -0.000212530910141)
(2.7182102814e-07 -3.27089990595e-07 -0.000205553463102)
(-2.87419630499e-07 -3.48863652038e-07 -0.000219402632782)
(-2.39814885402e-07 -4.08996439509e-07 -0.000226086621514)
(-1.94075880154e-07 -4.61459638426e-07 -0.000232992808275)
(-1.51299410715e-07 -5.04505551515e-07 -0.000239495648767)
(-1.10515105143e-07 -5.38152781944e-07 -0.000245061212609)
(-7.11699238632e-08 -5.62215046236e-07 -0.000249295933793)
(-3.2752072255e-08 -5.7663355132e-07 -0.000251933196697)
(5.15347328416e-09 -5.8138394841e-07 -0.000252817810194)
(4.29653304904e-08 -5.7645969632e-07 -0.000251896905104)
(8.1099661154e-08 -5.61895320182e-07 -0.000249224073785)
(1.19968614697e-07 -5.37741043495e-07 -0.000244955274096)
(1.60083490148e-07 -5.04072263907e-07 -0.000239357847899)
(2.01997439384e-07 -4.61085621265e-07 -0.000232825508375)
(2.46780594001e-07 -4.08679451069e-07 -0.000225887070511)
(2.93149843281e-07 -3.48748945757e-07 -0.000219158689888)
(-3.01028161372e-07 -3.62758894454e-07 -0.000230427782004)
(-2.51393869559e-07 -4.20056741107e-07 -0.000236693425267)
(-2.0347724235e-07 -4.7016829764e-07 -0.000243265434653)
(-1.58571405057e-07 -5.11142791883e-07 -0.000249502065529)
(-1.15729405625e-07 -5.4311295771e-07 -0.000254857187011)
(-7.43700841283e-08 -5.65956156544e-07 -0.000258936367961)
(-3.39714571289e-08 -5.79638909098e-07 -0.000261476592372)
(5.89678730685e-09 -5.84149375744e-07 -0.000262326451992)
(4.56637960102e-08 -5.79483000286e-07 -0.000261434980125)
(8.57569188283e-08 -5.65666671366e-07 -0.000258854054842)
(1.26606202561e-07 -5.42733010708e-07 -0.000254736094221)
(1.68737343495e-07 -5.10730252581e-07 -0.000249345164164)
(2.12737113374e-07 -4.69792611546e-07 -0.000243076098946)
(2.59644713155e-07 -4.19707443759e-07 -0.000236468943466)
(3.07943849694e-07 -3.62608272061e-07 -0.000230155902695)
(-3.07797520953e-07 -3.68700425985e-07 -0.000239076418171)
(-2.56616995505e-07 -4.2144863575e-07 -0.000244802760146)
(-2.07346418872e-07 -4.67526434407e-07 -0.00025091881756)
(-1.61289833488e-07 -5.05012999061e-07 -0.000256764796138)
(-1.17467609613e-07 -5.34185775591e-07 -0.000261793031556)
(-7.52248781194e-08 -5.55004241721e-07 -0.000265622059663)
(-3.40070740504e-08 -5.67466844126e-07 -0.000268003765616)
(6.64787466031e-09 -5.71577759093e-07 -0.000268797484363)
(4.71964212042e-08 -5.67336919939e-07 -0.000267956435101)
(8.80937711249e-08 -5.54760167253e-07 -0.000265528480252)
(1.29803463131e-07 -5.33858525978e-07 -0.000261655541335)
(1.72885447565e-07 -5.04645207663e-07 -0.000256587154365)
(2.1800315581e-07 -4.6717265904e-07 -0.000250705493285)
(2.66218767949e-07 -4.21086823922e-07 -0.000244550901905)
(3.15970659306e-07 -3.68526582126e-07 -0.000238773792544)
(-3.07736795386e-07 -3.66828109157e-07 -0.000245623053414)
(-2.55576292349e-07 -4.13438459995e-07 -0.000250745517063)
(-2.05880440108e-07 -4.54000834255e-07 -0.000256321459792)
(-1.59704264864e-07 -4.86868374229e-07 -0.000261671307743)
(-1.15965783184e-07 -5.12412953931e-07 -0.000266264208413)
(-7.39144462144e-08 -5.30633533819e-07 -0.000269751474025)
(-3.2959766211e-08 -5.41538116541e-07 -0.000271914195366)
(7.39490957545e-09 -5.45140541781e-07 -0.000272630607101)
(4.76402770754e-08 -5.41441709386e-07 -0.000271860699853)
(8.82660171264e-08 -5.30450315869e-07 -0.000269645673875)
(1.2977128179e-07 -5.12160434865e-07 -0.000266108765457)
(1.72752486078e-07 -4.86572756388e-07 -0.000261470727397)
(2.17969327908e-07 -4.53697863759e-07 -0.000256081420865)
(2.6657338013e-07 -4.13090883696e-07 -0.000250462958219)
(3.17223592675e-07 -3.66646465631e-07 -0.000245285664305)
(-3.00979218436e-07 -3.57303711111e-07 -0.000250420686589)
(-2.4874395348e-07 -3.96169347067e-07 -0.000254945825379)
(-1.99766632569e-07 -4.3005438464e-07 -0.000259928264806)
(-1.54524453408e-07 -4.57604223573e-07 -0.000264680845459)
(-1.11825474198e-07 -4.79088895908e-07 -0.000268725350662)
(-7.08677711097e-08 -4.94439252506e-07 -0.00027177394864)
(-3.10578449125e-08 -5.03633698122e-07 -0.000273653757849)
(8.12215480485e-09 -5.06679069509e-07 -0.000274270540006)
(4.7191027673e-08 -5.03577389299e-07 -0.00027359366386)
(8.66683246806e-08 -4.94330003772e-07 -0.000271654937087)
(1.27074964535e-07 -4.78932018774e-07 -0.00026855017763)
(1.6900992962e-07 -4.57408635266e-07 -0.00026445454481)
(2.1328496934e-07 -4.29836053966e-07 -0.000259657882836)
(2.61147753174e-07 -3.95870290893e-07 -0.000254628591427)
(3.11808571139e-07 -3.57137587248e-07 -0.000250044292962)
(-2.88000188517e-07 -3.39335899731e-07 -0.000253956050602)
(-2.37466383407e-07 -3.69121852422e-07 -0.000257975450321)
(-1.90534960133e-07 -3.95739928321e-07 -0.000262312706935)
(-1.47111306883e-07 -4.1799193893e-07 -0.000266342210747)
(-1.06118226455e-07 -4.35541272467e-07 -0.000269702953092)
(-6.68229712395e-08 -4.48146170623e-07 -0.0002722014852)
(-2.86842714364e-08 -4.55718073683e-07 -0.000273726767334)
(8.80931101579e-09 -4.58239352078e-07 -0.000274219272588)
(4.61910392408e-08 -4.55704906227e-07 -0.000273659807569)
(8.39951695212e-08 -4.48118279869e-07 -0.000272068535747)
(1.2273769053e-07 -4.35494329244e-07 -0.000269506427748)
(1.6296483085e-07 -4.17920370906e-07 -0.00026608702244)
(2.05421444454e-07 -3.95638797351e-07 -0.000262007122029)
(2.51234229901e-07 -3.68913062074e-07 -0.000257618815906)
(3.00172783258e-07 -3.3922185588e-07 -0.00025353796302)
(-2.71602198061e-07 -3.15245623618e-07 -0.000256961437759)
(-2.25392673015e-07 -3.32425787823e-07 -0.000260630517043)
(-1.81074438785e-07 -3.52297617446e-07 -0.000264175955924)
(-1.39795390385e-07 -3.69467502534e-07 -0.000267289800939)
(-1.00584220665e-07 -3.83220816304e-07 -0.000269794206538)
(-6.29468896435e-08 -3.93189482563e-07 -0.000271612811032)
(-2.64364409677e-08 -3.99217602996e-07 -0.000272703734951)
(9.43312029774e-09 -4.01243457705e-07 -0.000273045198826)
(4.5189283152e-08 -3.99246113027e-07 -0.000272630302902)
(8.13620238235e-08 -3.9324172053e-07 -0.000271466524696)
(1.18443044545e-07 -3.83286711569e-07 -0.000269576587485)
(1.56885768607e-07 -3.69531936049e-07 -0.000267004382428)
(1.97194255449e-07 -3.52347257476e-07 -0.00026383121243)
(2.4037968746e-07 -3.32357464575e-07 -0.000260224126287)
(2.85067528083e-07 -3.15239258538e-07 -0.000256511790831)
(9.57417354259e-09 1.67666163822e-08 -1.82363645912e-05)
(5.14309034691e-09 2.26951767107e-08 -1.92587491621e-05)
(2.53647137376e-09 2.63129990601e-08 -2.02616297615e-05)
(7.13163550227e-10 2.86857595762e-08 -2.11727881767e-05)
(-2.73352854021e-10 3.01651247012e-08 -2.19359613137e-05)
(-5.4279925096e-10 3.1012005229e-08 -2.25094523862e-05)
(-2.92075144793e-10 3.1437116825e-08 -2.28647969303e-05)
(2.37211557344e-10 3.15736113796e-08 -2.29851067561e-05)
(7.56025429426e-10 3.14666482964e-08 -2.28626944928e-05)
(9.76109690014e-10 3.10691138879e-08 -2.25052608793e-05)
(6.61299327402e-10 3.02465785225e-08 -2.19296983294e-05)
(-3.62776796352e-10 2.87894976838e-08 -2.11644406365e-05)
(-2.24200093171e-09 2.64084036303e-08 -2.02510541161e-05)
(-4.92674766458e-09 2.27847855061e-08 -1.92452668815e-05)
(-9.44001767901e-09 1.68336518624e-08 -1.8217586122e-05)
(2.92738527135e-08 4.75141220256e-08 -5.15241401064e-05)
(1.72886782072e-08 6.27589478685e-08 -5.42320254831e-05)
(9.43865063347e-09 7.27837193742e-08 -5.69092368987e-05)
(3.97597401997e-09 7.95367053017e-08 -5.93541012259e-05)
(8.08809770976e-10 8.38311663641e-08 -6.14089684962e-05)
(-4.20190451682e-10 8.63518806001e-08 -6.29566519781e-05)
(-2.40455376842e-10 8.76440520279e-08 -6.39166938547e-05)
(6.89880821814e-10 8.8058414573e-08 -6.42411179174e-05)
(1.59414683863e-09 8.77165120207e-08 -6.3910187847e-05)
(1.69749995211e-09 8.64922538171e-08 -6.29436895051e-05)
(3.541100586e-10 8.40307497093e-08 -6.13896183844e-05)
(-2.92960763734e-09 7.97856724082e-08 -5.93283487934e-05)
(-8.5455058547e-09 7.3019598485e-08 -5.68766903107e-05)
(-1.6599486341e-08 6.29855558295e-08 -5.41907466836e-05)
(-2.88209891939e-08 4.76871031371e-08 -5.14685820833e-05)
(5.07504608717e-08 7.7396082007e-08 -8.140261634e-05)
(3.25042861564e-08 1.00183749493e-07 -8.54528626267e-05)
(1.97068602808e-08 1.16041201943e-07 -8.94813270015e-05)
(1.05327444343e-08 1.27079098028e-07 -9.31757986062e-05)
(4.74962367817e-09 1.34340338565e-07 -9.62899032536e-05)
(1.80173304012e-09 1.38770575836e-07 -9.86398149247e-05)
(9.09853419626e-10 1.41121116947e-07 -0.000100098797151)
(1.10841840266e-09 1.41880113302e-07 -0.000100591219227)
(1.27034182666e-09 1.41214426796e-07 -0.000100087750823)
(2.71296519975e-10 1.38951635774e-07 -9.86178206682e-05)
(-2.83984141228e-09 1.34599246222e-07 -9.62571090199e-05)
(-8.80579006972e-09 1.27400162681e-07 -9.3132245013e-05)
(-1.82139224345e-08 1.16354230355e-07 -8.94265179571e-05)
(-3.13053139944e-08 1.00487252493e-07 -8.53840451447e-05)
(-4.99202327593e-08 7.76443844197e-08 -8.13119991746e-05)
(6.65584643862e-08 9.86683173912e-08 -0.000108035149911)
(4.33397748766e-08 1.2595082348e-07 -0.000113110032542)
(2.64660133918e-08 1.45297118111e-07 -0.000118186526866)
(1.43573642129e-08 1.58829653895e-07 -0.000122862377814)
(6.6809707586e-09 1.67735312792e-07 -0.000126815369984)
(2.69938496271e-09 1.73168979977e-07 -0.00012980402529)
(1.39129172955e-09 1.76050224764e-07 -0.00013166129872)
(1.49530930221e-09 1.76979153745e-07 -0.000132287540059)
(1.55501180559e-09 1.76159830605e-07 -0.000131645619503)
(1.17495778273e-10 1.73381361631e-07 -0.000129772831535)