/*--------------------------------*- C++ -*----------------------------------*\
  =========                 |
  \\      /  F ield         | OpenFOAM: The Open Source CFD Toolbox
   \\    /   O peration     | Website:  https://openfoam.org
    \\  /    A nd           | Version:  7
     \\/     M anipulation  |
\*---------------------------------------------------------------------------*/
FoamFile
{
    version     2.0;
    format      ascii;
    class       volScalarField;
    location    "0.64";
    object      p;
}
// * * * * * * * * * * * * * * * * * * * * * * * * * * * * * * * * * * * * * //

dimensions      [0 2 -2 0 0 0 0];

internalField   nonuniform List<scalar> 
22500
(
1.03487629573e-05
1.0346532782e-05
1.03463310853e-05
1.03457499671e-05
1.03454057105e-05
1.03451367782e-05
1.03449748821e-05
1.03449121469e-05
1.03449647464e-05
1.03451168117e-05
1.03453762758e-05
1.03457121813e-05
1.03462860239e-05
1.03464843531e-05
1.03487104684e-05
1.031505018e-05
1.03110817026e-05
1.03094253331e-05
1.0307577726e-05
1.03062090868e-05
1.03051884968e-05
1.03045681175e-05
1.03043523402e-05
1.03045576477e-05
1.03051678497e-05
1.03061787022e-05
1.0307538639e-05
1.03093788977e-05
1.03110316864e-05
1.03149959563e-05
1.02824070115e-05
1.02768190063e-05
1.02739098697e-05
1.0270936218e-05
1.02686737013e-05
1.02669969401e-05
1.02659775766e-05
1.02656286287e-05
1.02659674583e-05
1.02669769857e-05
1.02686443912e-05
1.0270898498e-05
1.02738650772e-05
1.02767705456e-05
1.02823536485e-05
1.02532332822e-05
1.02462918835e-05
1.02423842734e-05
1.0238528663e-05
1.02355683967e-05
1.02333836011e-05
1.023205633e-05
1.02316049217e-05
1.02320467704e-05
1.02333647407e-05
1.02355407369e-05
1.0238493104e-05
1.02423419764e-05
1.02462459663e-05
1.02531817773e-05
1.02259293148e-05
1.02178158446e-05
1.02130612896e-05
1.02084889664e-05
1.02049595756e-05
1.02023650399e-05
1.02007903085e-05
1.02002568802e-05
1.02007812957e-05
1.02023472641e-05
1.02049335247e-05
1.0208455507e-05
1.02130214611e-05
1.0217772522e-05
1.02258800836e-05
1.02001541095e-05
1.0191052927e-05
1.01855913493e-05
1.01804542229e-05
1.01764742985e-05
1.01735598984e-05
1.01717927329e-05
1.01711957927e-05
1.01717842735e-05
1.01735432053e-05
1.01764498529e-05
1.01804228363e-05
1.01855540371e-05
1.01910121438e-05
1.0200107136e-05
1.01760383816e-05
1.01661475228e-05
1.01601179894e-05
1.01545632128e-05
1.0150247724e-05
1.01470993016e-05
1.01451920487e-05
1.01445491047e-05
1.01451841076e-05
1.01470836321e-05
1.01502247875e-05
1.01545337725e-05
1.01600830294e-05
1.01661091993e-05
1.01759935268e-05
1.01536127815e-05
1.01431248437e-05
1.01366529288e-05
1.01308122055e-05
1.01262636183e-05
1.01229563995e-05
1.01209547569e-05
1.0120281039e-05
1.01209472895e-05
1.01229416716e-05
1.01262420577e-05
1.01307845387e-05
1.0136620114e-05
1.01430887125e-05
1.01535697901e-05
1.0132819379e-05
1.01219140687e-05
1.0115111179e-05
1.01090988876e-05
1.01044058995e-05
1.01010036765e-05
1.00989461945e-05
1.00982545017e-05
1.00989391402e-05
1.01009897631e-05
1.01043855331e-05
1.01090727337e-05
1.01150801968e-05
1.01218797407e-05
1.01327779016e-05
1.0113576545e-05
1.0102420021e-05
1.00953886897e-05
1.0089304607e-05
1.00845442974e-05
1.00811010691e-05
1.00790202112e-05
1.007832128e-05
1.00790134989e-05
1.00810878276e-05
1.00845249041e-05
1.00892796818e-05
1.00953591611e-05
1.01023870487e-05
1.01135360621e-05
1.00957942761e-05
1.00845416239e-05
1.00773826848e-05
1.00713150085e-05
1.00665543149e-05
1.00631156205e-05
1.00610386016e-05
1.00603414334e-05
1.00610321559e-05
1.0063102899e-05
1.00665356599e-05
1.0071290981e-05
1.00773541875e-05
1.00845094971e-05
1.00957542029e-05
1.00793617487e-05
1.00681782663e-05
1.00610041479e-05
1.00550309514e-05
1.00503257869e-05
1.00469285898e-05
1.00448776094e-05
1.00441895443e-05
1.00448713589e-05
1.00469162223e-05
1.00503076138e-05
1.00550074635e-05
1.00609762036e-05
1.0068146416e-05
1.00793215167e-05
1.00641044623e-05
1.0053248576e-05
1.00462021351e-05
1.00403843173e-05
1.00357744724e-05
1.00324460673e-05
1.00304382482e-05
1.0029765221e-05
1.00304321045e-05
1.00324339145e-05
1.00357565221e-05
1.00403609868e-05
1.00461742042e-05
1.00532163572e-05
1.0064063378e-05
1.00499918468e-05
1.00397937883e-05
1.00329536133e-05
1.00273107931e-05
1.00228162655e-05
1.00195794815e-05
1.00176319385e-05
1.0016979906e-05
1.00176258509e-05
1.0019567388e-05
1.00227982832e-05
1.00272871872e-05
1.00329250974e-05
1.00397604218e-05
1.00499494266e-05
1.00384339757e-05
1.00275840547e-05
1.00209695443e-05
1.00154626426e-05
1.00111198637e-05
1.00080234073e-05
1.00061702557e-05
1.00055513198e-05
1.00061641365e-05
1.00080112279e-05
1.00111016275e-05
1.00154384012e-05
1.00209396084e-05
1.00275484752e-05
1.0038390567e-05
6.58613564887e-06
6.58710160205e-06
6.58783454741e-06
6.58850732791e-06
6.58907292461e-06
6.58950106866e-06
6.58977012328e-06
6.58986307928e-06
6.58977430574e-06
6.5895089398e-06
6.58908332948e-06
6.58851879819e-06
6.58784659378e-06
6.58711359547e-06
6.58614750191e-06
6.59009137951e-06
6.59120566135e-06
6.59208765938e-06
6.59289594917e-06
6.59357751971e-06
6.59409339665e-06
6.59441733839e-06
6.59452912057e-06
6.59442144838e-06
6.59410110337e-06
6.59358766201e-06
6.59290700357e-06
6.59209892044e-06
6.5912170328e-06
6.59010260435e-06
6.59472044681e-06
6.59614493607e-06
6.59728720466e-06
6.59834079988e-06
6.59923304692e-06
6.59990931131e-06
6.60033384471e-06
6.60047995863e-06
6.60033785663e-06
6.59991687021e-06
6.59924311942e-06
6.59835200953e-06
6.59729865363e-06
6.59615674659e-06
6.59473187872e-06
6.60034579936e-06
6.602313271e-06
6.60388546386e-06
6.60533525248e-06
6.60656425684e-06
6.60749564135e-06
6.60807947732e-06
6.60827977062e-06
6.60808336392e-06
6.60750301238e-06
6.60657423292e-06
6.60534663774e-06
6.60389725778e-06
6.60232553868e-06
6.6003574924e-06
6.60746158592e-06
6.61019469849e-06
6.61235220105e-06
6.61433071154e-06
6.6160030865e-06
6.61726754771e-06
6.61805806773e-06
6.61832842334e-06
6.61806181526e-06
6.61727468044e-06
6.61601284749e-06
6.61434204134e-06
6.61236413326e-06
6.61020718097e-06
6.60747339444e-06
6.6161047102e-06
6.6197700751e-06
6.62261737919e-06
6.62520776006e-06
6.62738655364e-06
6.62902793955e-06
6.63005078063e-06
6.63039959754e-06
6.63005432962e-06
6.62903471839e-06
6.62739591558e-06
6.62521878467e-06
6.622629148e-06
6.61978258161e-06
6.61611627823e-06
6.62608523997e-06
6.63078099273e-06
6.63436707389e-06
6.63759974873e-06
6.64030309189e-06
6.64233100428e-06
6.64359032623e-06
6.64401869608e-06
6.64359363971e-06
6.64233735365e-06
6.64031191652e-06
6.63761025699e-06
6.63437840058e-06
6.63079322762e-06
6.6260963468e-06
6.63713879972e-06
6.64289367757e-06
6.64721721632e-06
6.65107571235e-06
6.65428290423e-06
6.65667796705e-06
6.65816002302e-06
6.65866297793e-06
6.65816306249e-06
6.65668380516e-06
6.6542910657e-06
6.65108552062e-06
6.64722791284e-06
6.6429053481e-06
6.63714930909e-06
6.6489781375e-06
6.65575703644e-06
6.66077479057e-06
6.66520483906e-06
6.6688649082e-06
6.67158570939e-06
6.67326338733e-06
6.67383148482e-06
6.67326613965e-06
6.6715910026e-06
6.66887233834e-06
6.66521381866e-06
6.66078467817e-06
6.65576793003e-06
6.64898776521e-06
6.66131830953e-06
6.66903196306e-06
6.67466766059e-06
6.67958756077e-06
6.68362837422e-06
6.68661854109e-06
6.6884558488e-06
6.68907670221e-06
6.68845831087e-06
6.68662328025e-06
6.68363504406e-06
6.67959565904e-06
6.67467664811e-06
6.66904194243e-06
6.66132693175e-06
6.67389367017e-06
6.68240879041e-06
6.68856142326e-06
6.69387244902e-06
6.6982093039e-06
6.70140390701e-06
6.70335990674e-06
6.70401952874e-06
6.70336210137e-06
6.70140813424e-06
6.69821525624e-06
6.69387967645e-06
6.68856947689e-06
6.68241777342e-06
6.6739011113e-06
6.68645625574e-06
6.69560770947e-06
6.70216265721e-06
6.70776098805e-06
6.71230529829e-06
6.71563669687e-06
6.71766899234e-06
6.71835291664e-06
6.71767096878e-06
6.71564049395e-06
6.71231064763e-06
6.70776745765e-06
6.70216985697e-06
6.69561568961e-06
6.68646250738e-06
6.69876783425e-06
6.70838892233e-06
6.7152343618e-06
6.72101865892e-06
6.72568160471e-06
6.72908148312e-06
6.7311473489e-06
6.73184110052e-06
6.73114916626e-06
6.72908500067e-06
6.72568652893e-06
6.72102458911e-06
6.71524089017e-06
6.70839605248e-06
6.69877300402e-06
6.71079198527e-06
6.72074187395e-06
6.72770332809e-06
6.73353815474e-06
6.73819961855e-06
6.74157742355e-06
6.74362161715e-06
6.74430659949e-06
6.74362336017e-06
6.7415807825e-06
6.73820433715e-06
6.73354376727e-06
6.72770945975e-06
6.72074828078e-06
6.71079633319e-06
6.72348445262e-06
6.73271896847e-06
6.73950476867e-06
6.74519444044e-06
6.749679031e-06
6.75290684442e-06
6.7548528456e-06
6.75550370981e-06
6.75485452162e-06
6.75291011963e-06
6.74968364182e-06
6.74519995242e-06
6.73951061571e-06
6.73272472849e-06
6.72348842314e-06
7.53757161405e-06
7.53734209699e-06
7.53705579497e-06
7.53673212906e-06
7.53642900582e-06
7.53618364513e-06
7.53602419201e-06
7.53596822913e-06
7.53602275059e-06
7.53618101645e-06
7.53642568176e-06
7.53672844167e-06
7.53705029429e-06
7.53733572404e-06
7.53756302269e-06
7.53803596779e-06
7.53783036285e-06
7.53756335979e-06
7.53725676536e-06
7.53696650974e-06
7.53673000331e-06
7.53657556036e-06
7.53652115057e-06
7.53657401097e-06
7.53672714762e-06
7.53696284181e-06
7.53725260781e-06
7.53755758991e-06
7.53782344488e-06
7.53802702595e-06
7.53875160687e-06
7.53858111841e-06
7.53834722811e-06
7.53806810585e-06
7.53779924124e-06
7.53757794865e-06
7.53743256306e-06
7.53738117386e-06
7.53743106909e-06
7.5375751679e-06
7.53779558816e-06
7.53806385334e-06
7.53834155016e-06
7.53857422698e-06
7.53874272713e-06
7.53927570478e-06
7.53912105206e-06
7.5389053173e-06
7.53864099819e-06
7.53838375737e-06
7.53817086337e-06
7.53803058434e-06
7.53798095578e-06
7.53802919024e-06
7.53816823528e-06
7.53838019915e-06
7.53863674099e-06
7.53889978421e-06
7.53911441914e-06
7.53926685846e-06
7.53961575975e-06
7.5394694913e-06
7.53926622695e-06
7.53901377922e-06
7.53876719929e-06
7.53856279517e-06
7.53842798725e-06
7.53838028425e-06
7.53842666963e-06
7.5385602939e-06
7.53876375313e-06
7.53900957334e-06
7.53926080685e-06
7.53946310445e-06
7.53960697008e-06
7.53986480773e-06
7.53973442123e-06
7.53954971626e-06
7.53931721306e-06
7.53908948382e-06
7.53890048797e-06
7.53877576286e-06
7.53873159966e-06
7.53877451956e-06
7.53889810778e-06
7.53908614456e-06
7.53931306658e-06
7.53954442926e-06
7.53972816486e-06
7.53985617148e-06
7.54009325247e-06
7.53999541111e-06
7.53984219985e-06
7.5396432867e-06
7.53944702111e-06
7.53928349744e-06
7.53917533391e-06
7.53913694479e-06
7.53917415182e-06
7.53928122258e-06
7.53944378799e-06
7.53963921163e-06
7.53983704048e-06
7.53998928064e-06
7.54008469965e-06
7.54035422378e-06
7.54031056178e-06
7.54020454629e-06
7.54005437017e-06
7.53990295131e-06
7.53977523658e-06
7.53969016911e-06
7.53965978684e-06
7.53968903558e-06
7.53977304343e-06
7.53989979256e-06
7.54005032718e-06
7.54019944902e-06
7.54030450936e-06
7.54034566507e-06
7.54068872579e-06
7.54072162255e-06
7.54067798173e-06
7.54059000653e-06
7.54049488995e-06
7.54041157709e-06
7.54035492487e-06
7.54033434972e-06
7.54035382829e-06
7.54040944243e-06
7.54049178408e-06
7.54058597479e-06
7.5406728922e-06
7.54071558162e-06
7.54068012859e-06
7.54112458111e-06
7.54125303972e-06
7.5412837363e-06
7.54126742871e-06
7.5412362447e-06
7.54120283018e-06
7.54117790712e-06
7.54116824381e-06
7.54117683226e-06
7.54120072763e-06
7.54123315211e-06
7.5412633611e-06
7.54127859159e-06
7.5412469207e-06
7.54111588893e-06
7.54167578721e-06
7.54191217265e-06
7.5420240666e-06
7.54208369142e-06
7.54211943198e-06
7.54213785051e-06
7.54214570241e-06
7.54214728938e-06
7.54214464143e-06
7.54213576582e-06
7.54211633961e-06
7.54207957036e-06
7.54201884262e-06
7.54190593808e-06
7.54166695418e-06
7.54234028592e-06
7.54268919092e-06
7.54288396901e-06
7.54301903627e-06
7.54312055961e-06
7.54318963295e-06
7.54322941186e-06
7.54324192236e-06
7.5432283646e-06
7.54318756102e-06
7.54311745945e-06
7.54301486506e-06
7.54287865902e-06
7.54268285206e-06
7.54233135508e-06
7.54310313228e-06
7.54356502912e-06
7.54383997915e-06
7.54404495359e-06
7.54420710643e-06
7.54432295169e-06
7.54439214935e-06
7.5444147648e-06
7.54439111806e-06
7.54432090556e-06
7.54420403117e-06
7.54404076298e-06
7.54383462472e-06
7.54355860796e-06
7.54309413445e-06
7.54401217363e-06
7.54458070596e-06
7.54489978376e-06
7.54515011432e-06
7.54535415889e-06
7.54550344234e-06
7.54559406651e-06
7.54562402906e-06
7.54559305685e-06
7.54550145726e-06
7.545351136e-06
7.54514597326e-06
7.54489444963e-06
7.54457422888e-06
7.54400327425e-06
7.54542406301e-06
7.54576173406e-06
7.54603516028e-06
7.54627915298e-06
7.54648734809e-06
7.54664352523e-06
7.54673943238e-06
7.54677137009e-06
7.54673844618e-06
7.54664156576e-06
7.54648438661e-06
7.54627505093e-06
7.54602979296e-06
7.54575503173e-06
7.54541526562e-06
6.01053630893e-06
6.01073000898e-06
6.01096993766e-06
6.01121415871e-06
6.01143506491e-06
6.01160904796e-06
6.01172036877e-06
6.01175922727e-06
6.0117218439e-06
6.01161175514e-06
6.01143843177e-06
6.01121708793e-06
6.01097182784e-06
6.01072983546e-06
6.01053563412e-06
6.0107858591e-06
6.01098161417e-06
6.01122647265e-06
6.01147555307e-06
6.01170201501e-06
6.01188095768e-06
6.01199575786e-06
6.01203592225e-06
6.01199733111e-06
6.0118838452e-06
6.01170559941e-06
6.01147869732e-06
6.01122833548e-06
6.01098148421e-06
6.01078472882e-06
6.01087541381e-06
6.01106178758e-06
6.01130027721e-06
6.01154352384e-06
6.01176659968e-06
6.01194356858e-06
6.01205743051e-06
6.01209728932e-06
6.01205886719e-06
6.0119462022e-06
6.0117698608e-06
6.01154643339e-06
6.01130192554e-06
6.01106180514e-06
6.01087417156e-06
6.01093967054e-06
6.01111866362e-06
6.01135234373e-06
6.01158962585e-06
6.01180855561e-06
6.01198268845e-06
6.01209493466e-06
6.01213420945e-06
6.01209617793e-06
6.01198495742e-06
6.01181134267e-06
6.0115921065e-06
6.0113536976e-06
6.01111861293e-06
6.01093834738e-06
6.0110104828e-06
6.01118358798e-06
6.01141433594e-06
6.01164587866e-06
6.01186030354e-06
6.01203113071e-06
6.01214135895e-06
6.01217991051e-06
6.01214243336e-06
6.01203307989e-06
6.01186269061e-06
6.01164797364e-06
6.01141545751e-06
6.01118342396e-06
6.01100907443e-06
6.01107668307e-06
6.01124376409e-06
6.01147257991e-06
6.01169798417e-06
6.01190727955e-06
6.01207414851e-06
6.01218189712e-06
6.01221954541e-06
6.01218279168e-06
6.01207576163e-06
6.01190922536e-06
6.01169965091e-06
6.01147336304e-06
6.01124352649e-06
6.01107502168e-06
6.01113356518e-06
6.01129566277e-06
6.01152393522e-06
6.01174380048e-06
6.01194824707e-06
6.0121113012e-06
6.01221661603e-06
6.01225337154e-06
6.01221734127e-06
6.01211260199e-06
6.01194978853e-06
6.01174507689e-06
6.01152439807e-06
6.01129532408e-06
6.01113171029e-06
6.01118514253e-06
6.01134535104e-06
6.01157562643e-06
6.01179201229e-06
6.01199306522e-06
6.01215336464e-06
6.01225685942e-06
6.01229292965e-06
6.0122574199e-06
6.01215435515e-06
6.01199421095e-06
6.01179289795e-06
6.0115758121e-06
6.01134487596e-06
6.01118319639e-06
6.01123889981e-06
6.01140223764e-06
6.01163803684e-06
6.01185394098e-06
6.01205383467e-06
6.01221300314e-06
6.01231564964e-06
6.01235135956e-06
6.01231606281e-06
6.01221371978e-06
6.01205463458e-06
6.01185448646e-06
6.0116379837e-06
6.01140165044e-06
6.01123683297e-06
6.01130320385e-06
6.01147648302e-06
6.01172156434e-06
6.01194017691e-06
6.01214119819e-06
6.01230082729e-06
6.01240355763e-06
6.01243920966e-06
6.01240383934e-06
6.01230130399e-06
6.01214169226e-06
6.01194043218e-06
6.01172131461e-06
6.01147582312e-06
6.01130105711e-06
6.0113865126e-06
6.01157750991e-06
6.01183492421e-06
6.01205869946e-06
6.01226242601e-06
6.01242355199e-06
6.01252691677e-06
6.01256269574e-06
6.01252709536e-06
6.01242383724e-06
6.01226268186e-06
6.01205871519e-06
6.01183450952e-06
6.01157675863e-06
6.01138425454e-06
6.01149418455e-06
6.01171111033e-06
6.01198289327e-06
6.01221323532e-06
6.01242041604e-06
6.01258337588e-06
6.01268750775e-06
6.01272342964e-06
6.01268761192e-06
6.01258352631e-06
6.01242049324e-06
6.01221308214e-06
6.01198234987e-06
6.01171025992e-06
6.01149179027e-06
6.01162770209e-06
6.01187926588e-06
6.01216649197e-06
6.01240368632e-06
6.01261447531e-06
6.01277928234e-06
6.01288402552e-06
6.01292006035e-06
6.01288408486e-06
6.01277934175e-06
6.01261445701e-06
6.01240341885e-06
6.0121658651e-06
6.01187831848e-06
6.01162519394e-06
6.01182942966e-06
6.01212201167e-06
6.01240714995e-06
6.01264093544e-06
6.01284845099e-06
6.01300995679e-06
6.01311213611e-06
6.01314712775e-06
6.013112165e-06
6.01300999438e-06
6.01284838011e-06
6.01264063626e-06
6.0124064802e-06
6.01212095244e-06
6.01182679291e-06
6.01240662942e-06
6.01257370276e-06
6.01277773923e-06
6.01295574851e-06
6.01312114388e-06
6.0132511434e-06
6.013333484e-06
6.01336169576e-06
6.01333350491e-06
6.01325114415e-06
6.0131210605e-06
6.0129554166e-06
6.01277699905e-06
6.01257243257e-06
6.01240401143e-06
5.96033876511e-06
5.96024907364e-06
5.96014835304e-06
5.96003465871e-06
5.95993065133e-06
5.95984682076e-06
5.95979223325e-06
5.9597728543e-06
5.95979120076e-06
5.95984507787e-06
5.95992880229e-06
5.96003267012e-06
5.96014543525e-06
5.96024613117e-06
5.96033404319e-06
5.96047251226e-06
5.96039088332e-06
5.96029574935e-06
5.96018650306e-06
5.960085601e-06
5.96000364641e-06
5.95995004558e-06
5.95993095237e-06
5.95994897884e-06
5.96000182562e-06
5.96008360691e-06
5.96018438782e-06
5.96029277743e-06
5.96038759383e-06
5.96046757832e-06
5.96070016257e-06
5.9606308459e-06
5.96054722488e-06
5.96044675291e-06
5.96035240833e-06
5.96027482399e-06
5.96022377547e-06
5.96020553211e-06
5.96022273874e-06
5.96027301557e-06
5.96035032791e-06
5.96044450205e-06
5.96054428936e-06
5.96062750789e-06
5.9606953515e-06
5.96088882069e-06
5.96082562654e-06
5.96074960892e-06
5.96065423235e-06
5.96056353756e-06
5.96048818663e-06
5.96043840688e-06
5.96042059785e-06
5.9604374192e-06
5.96048642052e-06
5.96056138792e-06
5.96065187117e-06
5.96074670532e-06
5.96082240441e-06
5.96088410778e-06
5.96102997921e-06
5.96096815911e-06
5.96089638489e-06
5.96080317726e-06
5.96071394185e-06
5.96063935628e-06
5.96058995774e-06
5.96057228486e-06
5.96058901528e-06
5.96063764524e-06
5.96071179298e-06
5.9608007852e-06
5.96089352415e-06
5.96096510307e-06
5.96102535887e-06
5.96113852025e-06
5.96107593208e-06
5.96100672651e-06
5.960914498e-06
5.9608259473e-06
5.9607517039e-06
5.9607024835e-06
5.96068488984e-06
5.9607015943e-06
5.96075006812e-06
5.96082383211e-06
5.96091211504e-06
5.96100393899e-06
5.96107293267e-06
5.9611340904e-06
5.96122351561e-06
5.96115930748e-06
5.96109237253e-06
5.9610011089e-06
5.96091346553e-06
5.96083994081e-06
5.9607911953e-06
5.96077379495e-06
5.96079036205e-06
5.96083839512e-06
5.96091142875e-06
5.96099878284e-06
5.96108969862e-06
5.96115639646e-06
5.96121921661e-06
5.96129149501e-06
5.96122631879e-06
5.96116247182e-06
5.96107316896e-06
5.96098752981e-06
5.96091576694e-06
5.96086822761e-06
5.9608512845e-06
5.96086745242e-06
5.96091431799e-06
5.96098558284e-06
5.96107090101e-06
5.96115987265e-06
5.96122347802e-06
5.96128724021e-06
5.96134943038e-06
5.96128546454e-06
5.96122648329e-06
5.96114106105e-06
5.96105931079e-06
5.96099095933e-06
5.96094573531e-06
5.96092964316e-06
5.96094501897e-06
5.96098960896e-06
5.96105746827e-06
5.96113887073e-06
5.96122395029e-06
5.96128268036e-06
5.96134521377e-06
5.96140481229e-06
5.9613455324e-06
5.961293827e-06
5.96121479805e-06
5.96113931237e-06
5.96107639677e-06
5.9610348503e-06
5.96102008205e-06
5.96103418703e-06
5.96107513839e-06
5.96113756128e-06
5.96121266701e-06
5.96129132601e-06
5.96134274735e-06
5.96140061658e-06
5.96146483384e-06
5.96141450985e-06
5.96137263667e-06
5.96130263428e-06
5.96123593495e-06
5.9611806274e-06
5.96114419677e-06
5.96113126443e-06
5.96114358144e-06
5.9611794482e-06
5.96123427188e-06
5.96130055562e-06
5.96137016528e-06
5.96141171116e-06
5.9614606484e-06
5.96153488412e-06
5.96149809247e-06
5.96146826961e-06
5.96140967457e-06
5.96135426373e-06
5.96130871439e-06
5.96127887476e-06
5.96126827186e-06
5.96127829869e-06
5.9613076044e-06
5.9613526598e-06
5.96140764216e-06
5.96146581285e-06
5.96149530181e-06
5.96153075009e-06
5.96162021688e-06
5.961600634e-06
5.96158368181e-06
5.96153801203e-06
5.9614960321e-06
5.96146232503e-06
5.96144040928e-06
5.96143265444e-06
5.96143986717e-06
5.9614612529e-06
5.96149449612e-06
5.96153599745e-06
5.96158124525e-06
5.96159784392e-06
5.96161615204e-06
5.96174807347e-06
5.96174603306e-06
5.96173187327e-06
5.96169457528e-06
5.96166430643e-06
5.9616414077e-06
5.96162695453e-06
5.96162179922e-06
5.96162642268e-06
5.96164039152e-06
5.96166278553e-06
5.96169260768e-06
5.96172943466e-06
5.96174324043e-06
5.96174414026e-06
5.96203586738e-06
5.96197290172e-06
5.96192739342e-06
5.96188012549e-06
5.96184882228e-06
5.96182744325e-06
5.9618145461e-06
5.96181006147e-06
5.96181402274e-06
5.9618264034e-06
5.96184730351e-06
5.96187809324e-06
5.96192487449e-06
5.96196991216e-06
5.96203201037e-06
5.12401493023e-06
5.12407877171e-06
5.12415658868e-06
5.12423687942e-06
5.12431001451e-06
5.12436801574e-06
5.12440549209e-06
5.12441897378e-06
5.12440708571e-06
5.12437099498e-06
5.12431394577e-06
5.12424116048e-06
5.12416079555e-06
5.12408203352e-06
5.12401839528e-06
5.12411935551e-06
5.12418454615e-06
5.12426473768e-06
5.12434710257e-06
5.12442240882e-06
5.12448229342e-06
5.12452107632e-06
5.12453505759e-06
5.12452275444e-06
5.12448542865e-06
5.12442652947e-06
5.12435154962e-06
5.12426897172e-06
5.1241878892e-06
5.12412247149e-06
5.12417556372e-06
5.1242389204e-06
5.12431824776e-06
5.12439959816e-06
5.12447449478e-06
5.12453419521e-06
5.12457292062e-06
5.12458685498e-06
5.12457448121e-06
5.12453711398e-06
5.12447834406e-06
5.12440381556e-06
5.12432226849e-06
5.12424236256e-06
5.12417857685e-06
5.12422034041e-06
5.1242827997e-06
5.1243617065e-06
5.12444217569e-06
5.12451656351e-06
5.12457594243e-06
5.12461448393e-06
5.12462830677e-06
5.12461588894e-06
5.12457857424e-06
5.12452004561e-06
5.12444602788e-06
5.12436544195e-06
5.12428612725e-06
5.12422329806e-06
5.12426618794e-06
5.12432853176e-06
5.12440774178e-06
5.12448765827e-06
5.12456164666e-06
5.12462073277e-06
5.12465907313e-06
5.1246727844e-06
5.12466034041e-06
5.12462310827e-06
5.12456481119e-06
5.12449119056e-06
5.12441125938e-06
5.12433172394e-06
5.12426906602e-06
5.12431110527e-06
5.12437338007e-06
5.12445330501e-06
5.12453253322e-06
5.12460592106e-06
5.12466449297e-06
5.12470247778e-06
5.1247160183e-06
5.12470361273e-06
5.12466662421e-06
5.12460876964e-06
5.12453573395e-06
5.12445652324e-06
5.1243764683e-06
5.12431374903e-06
5.12435308501e-06
5.12441546096e-06
5.12449616905e-06
5.12457453556e-06
5.12464706551e-06
5.12470486997e-06
5.12474231497e-06
5.12475562009e-06
5.12474332549e-06
5.12470677449e-06
5.12464962546e-06
5.12457744549e-06
5.12449912289e-06
5.12441843566e-06
5.12435553811e-06
5.12439196194e-06
5.12445479211e-06
5.1245363088e-06
5.12461368551e-06
5.12468509576e-06
5.12474189484e-06
5.12477862663e-06
5.12479163958e-06
5.12477952224e-06
5.12474358704e-06
5.12468738568e-06
5.1246163156e-06
5.12453902695e-06
5.12445761522e-06
5.12439430257e-06
5.12442834235e-06
5.12449203129e-06
5.12457444827e-06
5.12465073179e-06
5.124720808e-06
5.12477640702e-06
5.12481228619e-06
5.12482496173e-06
5.12481308163e-06
5.12477791432e-06
5.1247228685e-06
5.12465312958e-06
5.12457698027e-06
5.12449473586e-06
5.12443053219e-06
5.12446305797e-06
5.12452840702e-06
5.1246118345e-06
5.124686913e-06
5.12475544651e-06
5.12480965308e-06
5.12484455916e-06
5.12485685333e-06
5.12484526652e-06
5.12481100283e-06
5.12475730401e-06
5.12468911244e-06
5.12461420943e-06
5.12453101883e-06
5.12446513088e-06
5.12449757211e-06
5.12456573353e-06
5.12465016911e-06
5.1247238476e-06
5.12479056683e-06
5.12484319292e-06
5.12487699327e-06
5.12488887319e-06
5.12487763185e-06
5.12484441392e-06
5.12479226853e-06
5.12472588255e-06
5.12465241547e-06
5.12456824364e-06
5.12449949415e-06
5.12453308294e-06
5.12460566486e-06
5.12469105609e-06
5.12476308868e-06
5.12482780287e-06
5.12487868542e-06
5.12491131279e-06
5.12492274117e-06
5.12491189564e-06
5.12487981359e-06
5.12482936895e-06
5.12476499944e-06
5.12469318812e-06
5.12460806207e-06
5.12453483235e-06
5.12457077633e-06
5.12464974526e-06
5.12473592002e-06
5.12480610993e-06
5.12486879428e-06
5.12491807024e-06
5.12494953637e-06
5.12496056778e-06
5.1249500849e-06
5.12491910634e-06
5.12487028177e-06
5.1248078982e-06
5.1247379558e-06
5.12465201827e-06
5.12457235932e-06
5.12462826259e-06
5.12471491389e-06
5.12479526271e-06
5.12485985174e-06
5.1249183242e-06
5.12496429242e-06
5.1249936511e-06
5.12500388158e-06
5.12499415535e-06
5.12496529428e-06
5.12491971191e-06
5.12486157782e-06
5.12479719103e-06
5.12471704499e-06
5.12462962023e-06
5.12481898798e-06
5.12485708768e-06
5.12490205104e-06
5.12494165713e-06
5.12498117724e-06
5.12501304792e-06
5.12503351259e-06
5.12504071923e-06
5.12503399692e-06
5.12501397414e-06
5.12498250838e-06
5.12494327267e-06
5.12490387041e-06
5.12485901881e-06
5.12482030881e-06
4.74216294132e-06
4.74214091655e-06
4.74211774092e-06
4.74208991636e-06
4.74206368523e-06
4.74204203324e-06
4.74202790675e-06
4.74202291355e-06
4.74202771672e-06
4.74204170115e-06
4.74206329968e-06
4.74208979728e-06
4.74211820356e-06
4.7421422844e-06
4.74216309073e-06
4.74223034787e-06
4.74221159229e-06
4.74219077137e-06
4.74216488002e-06
4.7421400663e-06
4.74211935353e-06
4.74210573387e-06
4.74210089058e-06
4.74210551709e-06
4.74211896815e-06
4.74213962464e-06
4.74216470597e-06
4.74219120267e-06
4.74221278746e-06
4.74223045823e-06
4.74232113195e-06
4.74230641631e-06
4.74228912899e-06
4.74226591471e-06
4.7422431692e-06
4.74222388244e-06
4.74221108574e-06
4.74220651185e-06
4.74221087849e-06
4.7422235237e-06
4.74224278004e-06
4.74226578559e-06
4.7422895876e-06
4.74230745307e-06
4.74232127675e-06
4.74239485189e-06
4.74238187715e-06
4.74236680036e-06
4.74234485936e-06
4.74232310561e-06
4.74230446071e-06
4.74229200905e-06
4.74228755071e-06
4.74229182803e-06
4.74230416492e-06
4.74232282957e-06
4.74234485866e-06
4.74236732135e-06
4.74238292362e-06
4.74239498432e-06
4.74245127201e-06
4.7424384568e-06
4.74242452322e-06
4.7424028827e-06
4.74238135019e-06
4.74236279169e-06
4.74235035702e-06
4.74234590895e-06
4.7423502118e-06
4.74236257047e-06
4.74238118958e-06
4.74240301295e-06
4.74242511252e-06
4.74243956987e-06
4.74245143277e-06
4.74249554054e-06
4.74248223702e-06
4.74246879568e-06
4.74244701774e-06
4.74242537863e-06
4.74240670374e-06
4.74239417716e-06
4.74238970949e-06
4.74239407829e-06
4.74240657579e-06
4.74242535714e-06
4.74244730331e-06
4.74246948754e-06
4.74248334805e-06
4.74249581935e-06
4.74253069836e-06
4.74251651493e-06
4.74250338018e-06
4.7424813871e-06
4.74245959063e-06
4.74244080538e-06
4.7424282099e-06
4.7424237374e-06
4.74242816068e-06
4.74244077356e-06
4.74245970033e-06
4.74248180755e-06
4.74250417942e-06
4.74251763798e-06
4.74253103847e-06
4.74255890202e-06
4.74254389206e-06
4.74253119643e-06
4.74250914891e-06
4.74248737909e-06
4.7424686774e-06
4.74245615758e-06
4.74245173367e-06
4.74245615981e-06
4.74246874277e-06
4.7424876134e-06
4.74250968049e-06
4.74253205499e-06
4.74254500881e-06
4.74255920806e-06
4.7425822799e-06
4.74256700844e-06
4.74255512092e-06
4.74253343505e-06
4.7425120866e-06
4.74249381503e-06
4.74248161033e-06
4.74247731723e-06
4.74248165748e-06
4.74249396084e-06
4.74251241541e-06
4.7425340396e-06
4.74255599554e-06
4.74256808705e-06
4.74258253631e-06
4.74260310991e-06
4.74258852496e-06
4.74257796006e-06
4.74255719712e-06
4.74253678772e-06
4.74251940666e-06
4.74250782842e-06
4.74250377692e-06
4.74250791089e-06
4.74251961227e-06
4.74253717952e-06
4.74255782611e-06
4.7425787972e-06
4.74258950237e-06
4.74260327446e-06
4.7426235225e-06
4.74261081884e-06
4.74260214967e-06
4.74258291015e-06
4.74256403132e-06
4.74254805958e-06
4.74253746502e-06
4.74253377556e-06
4.74253756686e-06
4.74254829754e-06
4.74256444327e-06
4.74258351988e-06
4.74260291517e-06
4.74261166946e-06
4.74262357525e-06
4.74264503423e-06
4.74263560741e-06
4.7426293679e-06
4.74261222697e-06
4.74259552032e-06
4.74258155912e-06
4.74257235584e-06
4.74256917057e-06
4.74257246369e-06
4.74258179288e-06
4.7425959155e-06
4.74261277383e-06
4.74263002256e-06
4.74263633032e-06
4.74264499079e-06
4.74266915956e-06
4.74266435089e-06
4.74266073089e-06
4.74264607112e-06
4.74263223278e-06
4.74262094954e-06
4.74261362137e-06
4.74261109879e-06
4.7426137128e-06
4.74262116209e-06
4.74263256688e-06
4.74264652414e-06
4.74266125716e-06
4.74266492908e-06
4.74266902465e-06
4.74270687517e-06
4.74270700978e-06
4.74270191757e-06
4.74268786494e-06
4.74267613801e-06
4.74266719673e-06
4.74266154344e-06
4.74265962568e-06
4.74266160899e-06
4.74266734778e-06
4.74267638771e-06
4.74268818588e-06
4.74270228375e-06
4.74270741608e-06
4.74270665288e-06
4.74281189627e-06
4.74278293597e-06
4.74276182215e-06
4.74274020553e-06
4.74272497869e-06
4.74271425728e-06
4.74270775723e-06
4.74270556956e-06
4.74270777265e-06
4.74271430914e-06
4.74272507592e-06
4.74274032585e-06
4.74276195091e-06
4.74278307214e-06
4.74281157778e-06
4.16961557083e-06
4.1696289058e-06
4.16964712495e-06
4.16966649287e-06
4.16968466133e-06
4.16969925611e-06
4.16970876395e-06
4.16971233693e-06
4.16970968342e-06
4.16970108809e-06
4.16968737855e-06
4.16966984224e-06
4.16965070992e-06
4.16963186629e-06
4.16961830264e-06
4.16965965432e-06
4.16967393667e-06
4.16969348692e-06
4.16971391771e-06
4.16973309237e-06
4.16974849974e-06
4.16975854684e-06
4.16976232422e-06
4.16975950869e-06
4.16975041371e-06
4.16973592481e-06
4.16971740747e-06
4.1696971866e-06
4.16967708972e-06
4.16966218842e-06
4.16969997304e-06
4.16971508451e-06
4.16973577998e-06
4.16975687483e-06
4.16977668775e-06
4.16979256364e-06
4.16980292372e-06
4.1698068e-06
4.16980385376e-06
4.16979440958e-06
4.16977939924e-06
4.16976023336e-06
4.16973933979e-06
4.16971832409e-06
4.16970249687e-06
4.169734383e-06
4.16975031332e-06
4.16977196215e-06
4.16979357095e-06
4.16981380882e-06
4.16982997577e-06
4.16984052267e-06
4.1698444484e-06
4.16984140507e-06
4.16983172236e-06
4.16981636075e-06
4.16979675152e-06
4.16977540164e-06
4.16975355668e-06
4.16973702155e-06
4.16976559062e-06
4.16978221294e-06
4.16980476034e-06