/*--------------------------------*- C++ -*----------------------------------*\
  =========                 |
  \\      /  F ield         | OpenFOAM: The Open Source CFD Toolbox
   \\    /   O peration     | Website:  https://openfoam.org
    \\  /    A nd           | Version:  7
     \\/     M anipulation  |
\*---------------------------------------------------------------------------*/
FoamFile
{
    version     2.0;
    format      ascii;
    class       surfaceScalarField;
    location    "0.64";
    object      phi;
}
// * * * * * * * * * * * * * * * * * * * * * * * * * * * * * * * * * * * * * //

dimensions      [0 3 -1 0 0 0 0];

internalField   nonuniform List<scalar> 
65775
(
1.93090839195e-11
3.65735783611e-09
5.58783830407e-10
9.51443249756e-14
2.8058683373e-11
3.82834756372e-09
6.17836671089e-10
3.28956475098e-11
3.97374980897e-09
6.73649714323e-10
3.20481025592e-11
4.0992726822e-09
7.2365324262e-10
2.66515586194e-11
4.19914387272e-09
7.65399444531e-10
1.75889214144e-11
4.27215106604e-09
7.96863536297e-10
6.21271529783e-12
4.31800338272e-09
8.16716453634e-10
-5.98899654875e-12
4.33536948625e-09
8.23854292325e-10
-1.73748533658e-11
4.31795631935e-09
8.16716369052e-10
-2.64558436503e-11
4.27205938345e-09
7.96863447087e-10
-3.18814394418e-11
4.19900929333e-09
7.65399464747e-10
-3.27662794127e-11
4.09910669886e-09
7.23653509787e-10
-2.79759287515e-11
3.97356324899e-09
6.73650771606e-10
-1.92602891464e-11
3.82817755727e-09
6.17842037353e-10
3.65725745344e-09
5.58808777071e-10
1.07714668996e-13
5.17491177367e-11
6.23979698687e-09
1.40089737373e-09
2.25624176679e-13
8.45602870597e-11
6.50696528029e-09
1.54246286862e-09
9.93907187421e-11
6.73390559088e-09
1.67498132128e-09
9.77035106403e-11
6.92656128429e-09
1.79280135504e-09
8.14220335448e-11
7.07901205146e-09
1.89054957546e-09
5.37842436118e-11
7.18975509287e-09
1.96388268886e-09
1.89344258784e-11
7.25923048519e-09
2.01002575014e-09
-1.83729068542e-11
7.2856954104e-09
2.02660178498e-09
-5.3246633879e-11
7.25912327585e-09
2.01002597296e-09
-8.09311703929e-11
7.1895454974e-09
1.96388323408e-09
-9.72837863085e-11
7.07870635056e-09
1.89055060239e-09
-9.9064205492e-11
6.92617997295e-09
1.79280304973e-09
-8.43417049374e-11
6.73347797474e-09
1.67498505821e-09
-5.16215775296e-11
6.5065604197e-09
1.54247821008e-09
6.23952051778e-09
1.40095749249e-09
2.63748551909e-13
7.95903048164e-11
7.96682473553e-09
2.02800539775e-09
3.11256368768e-13
1.32540911809e-10
8.27713811941e-09
2.22954622121e-09
1.55507762251e-10
8.5415649248e-09
2.41688059762e-09
1.52673482392e-10
8.76141030602e-09
2.58253238949e-09
1.27015191506e-10
8.93428530394e-09
2.71935680479e-09
8.37841958575e-11
9.05893683808e-09
2.82166687881e-09
2.94460614192e-11
9.13703711703e-09
2.88588978739e-09
-2.86378078895e-11
9.16699778537e-09
2.90891684524e-09
-8.30102538154e-11
9.13688886288e-09
2.88588995599e-09
-1.26308813791e-10
9.05864727088e-09
2.82166731711e-09
-1.52068088708e-10
8.93386471182e-09
2.719357589e-09
-1.55033870507e-10
8.760883858e-09
2.58253359574e-09
-1.32214935091e-10
8.54097424822e-09
2.41688387141e-09
-7.93961966254e-11
8.27656736859e-09
2.2295641966e-09
7.96640717767e-09
2.02808226532e-09
3.80011138265e-13
1.04172258843e-10
9.00654981905e-09
2.49029995066e-09
3.66369965658e-13
1.73392728901e-10
9.32340855207e-09
2.73595226704e-09
2.03188704036e-10
9.5940642089e-09
2.96274729707e-09
1.98988828609e-10
9.81406379964e-09
3.16223097973e-09
1.65219476577e-10
9.98556695634e-09
3.32629285951e-09
1.0881306309e-10
1.01081571462e-08
3.44857121379e-09
3.81881291776e-11
1.01848368137e-08
3.5251385789e-09
-3.72036544492e-11
1.02145118352e-08
3.55252915303e-09
-1.0787035404e-10
1.0184666369e-08
3.52513792937e-09
-1.64359135758e-10
1.01078239924e-08
3.44856996725e-09
-1.98250019597e-10
9.9850847514e-09
3.32629090949e-09
-2.02605401918e-10
9.81345999168e-09
3.16222813974e-09
-1.72982160459e-10
9.59338320888e-09
2.96274493795e-09
-1.03918348358e-10
9.3227391897e-09
2.73596354054e-09
9.00602771293e-09
2.49037279164e-09
4.71505969578e-13
1.25244942142e-10
9.50058487295e-09
2.81450734506e-09
3.99066709679e-13
2.0780104617e-10
9.7994066975e-09
3.09166513863e-09
2.43269520024e-10
1.00553935974e-08
3.34578533447e-09
2.3772579838e-10
1.02583621903e-08
3.56807257118e-09
1.97041904076e-10
1.04148171603e-08
3.75007580349e-09
1.29591285132e-10
1.05254960527e-08
3.88526585768e-09
4.54254291278e-11
1.05945802368e-08
3.96969205944e-09
-4.43181897334e-11
1.06216083631e-08
3.99981437301e-09
-1.28530928147e-10
1.05944028119e-08
3.96969016648e-09
-1.96073666608e-10
1.05251496596e-08
3.88526184789e-09
-2.36892050646e-10
1.0414316761e-08
3.75006927305e-09
-2.42604881401e-10
1.02577356685e-08
3.56806286796e-09
-2.07322106421e-10
1.00546822039e-08
3.3457730648e-09
-1.24935950519e-10
9.79869925654e-09
3.09166268884e-09
9.5000077542e-09
2.81456257906e-09
5.46024965951e-13
1.43158144867e-10
9.56890751955e-09
3.02191410803e-09
4.15109958771e-13
2.36501506508e-10
9.83456160397e-09
3.32050077421e-09
2.76511281528e-10
1.00631700448e-08
3.5923361096e-09
2.69665232749e-10
1.02394287557e-08
3.82875138452e-09
2.23160743855e-10
1.03733757126e-08
4.02142622112e-09
1.4658652131e-10
1.04669600033e-08
4.16403531018e-09
5.13292122706e-11
1.05252262592e-08
4.25283873242e-09
-5.01388000237e-11
1.05483356046e-08
4.28442604784e-09
-1.45445999275e-10
1.05250559205e-08
4.25283514738e-09
-2.22118009423e-10
1.04666274592e-08
4.16402771397e-09
-2.68763667644e-10
1.03728961541e-08
4.02141381771e-09
-2.75784700094e-10
1.02388280214e-08
3.82873288752e-09
-2.35963961339e-10
1.00624844286e-08
3.59231106577e-09
-1.42795422431e-10
9.83386977535e-09
3.32048047272e-09
9.56832377708e-09
3.02194565583e-09
6.07971768882e-13
1.5839510491e-10
9.31297684828e-09
3.13055085875e-09
4.19147258267e-13
2.60293812693e-10
9.53779936588e-09
3.44264238134e-09
3.03775609526e-10
9.73261440379e-09
3.7247422041e-09
2.95654515037e-10
9.87803548747e-09
3.96863489376e-09
2.44293255131e-10
9.98659688625e-09
4.16646167817e-09
1.6028307877e-10
1.0061317292e-08
4.31235068931e-09
5.6074146654e-11
1.01077030705e-08
4.40291846811e-09
-5.48283181125e-11
1.0126422692e-08
4.43501883224e-09
-1.59088464119e-10
1.01075507786e-08
4.40291313576e-09
-2.4319857144e-10
1.00610200741e-08
4.31233936516e-09
-2.94702704532e-10
9.98616891379e-09
4.16644310344e-09
-3.02998400512e-10
9.87749886992e-09
3.96860703245e-09
-2.59702931587e-10
9.73199834575e-09
3.72470344865e-09
-1.57977451545e-10
9.53717147603e-09
3.44260319643e-09
9.31243264576e-09
3.13055772338e-09
6.62485873729e-13
1.7129075847e-10
8.81812339368e-09
3.15620937602e-09
4.13917370059e-13
2.79853389372e-10
9.00004002724e-09
3.47576038949e-09
3.25882428877e-10
9.15924670108e-09
3.76255719314e-09
3.16537889771e-10
9.27361043003e-09
4.00904265784e-09
2.6116760621e-10
9.35710692283e-09
4.20802650198e-09
1.71174510795e-10
9.41354932204e-09
4.35423397351e-09
5.98374658334e-11
9.44847955762e-09
4.44470795797e-09
-5.85540069046e-11
9.46289516655e-09
4.47664218847e-09
-1.69942146624e-10
9.44835386295e-09
4.44470107565e-09
-2.60034346012e-10
9.41330432322e-09
4.35421930797e-09
-3.15545222687e-10
9.35675442601e-09
4.20800230844e-09
-3.25059420184e-10
9.2731681478e-09
4.00900612518e-09
-2.79209569131e-10
9.15873550372e-09
3.76250565491e-09
-1.70815291359e-10
8.99951508194e-09
3.47570404851e-09
8.81765905296e-09
3.15619415143e-09
7.12335119015e-13
1.82082468899e-10
8.15544637153e-09
3.11288046637e-09
4.02163786417e-13
2.95763781231e-10
8.29624411154e-09
3.43546782009e-09
3.43620852625e-10
8.42115424173e-09
3.72300871334e-09
3.33162174541e-10
8.50679109259e-09
3.968707922e-09
2.74525060334e-10
8.56761058464e-09
4.16614686293e-09
1.79764145568e-10
8.60785548948e-09
4.310704988e-09
6.27993272232e-11
8.63269256737e-09
4.39986137157e-09
-6.14872785206e-11
8.64324612296e-09
4.43117906095e-09
-1.78501786124e-10
8.63259930214e-09
4.39985337171e-09
-2.73358659328e-10
8.60767406786e-09
4.31068786977e-09
-3.3213083671e-10
8.5673500981e-09
4.1661184336e-09
-3.4275119597e-10
8.50646371794e-09
3.96866466339e-09
-2.95063676245e-10
8.42077301332e-09
3.72294712463e-09
-1.81544863182e-10
8.29585117999e-09
3.4353984589e-09
8.1550954648e-09
3.11284839394e-09
7.60305021206e-13
1.90964477857e-10
7.3834966173e-09
3.0129188884e-09
3.85927779071e-13
3.0857274734e-10
7.48730635789e-09
3.3354763842e-09
3.57797164213e-10
7.58111830315e-09
3.62114484246e-09
3.46414205972e-10
7.64185104039e-09
3.86391344071e-09
2.85143698856e-10
7.68358832791e-09
4.05815687668e-09
1.86576706208e-10
7.71055228246e-09
4.1999000287e-09
6.51463506109e-11
7.72717185793e-09
4.28702459483e-09
-6.38070590718e-11
7.73450529072e-09
4.31745890888e-09
-1.8528466902e-10
7.72711413771e-09
4.2870161465e-09
-2.8394258547e-10
7.71044057868e-09
4.19988185809e-09
-3.45340470696e-10
7.68342885903e-09
4.05812644781e-09
-3.56875175925e-10
7.64165077292e-09
3.86386667392e-09
-3.07810081664e-10
7.58088241303e-09
3.62107766922e-09
-1.90358743368e-10
7.48706502451e-09
3.33540021896e-09
7.38328272616e-09
3.01287724067e-09
8.08682520602e-13
1.98094005968e-10
6.54988941635e-09
2.86709944606e-09
3.67051982084e-13
3.18843232173e-10
6.62185278398e-09
3.18764758754e-09
3.69297479517e-10
6.6886752404e-09
3.46988560878e-09
3.57262255454e-10
6.72909457208e-09
3.70854594762e-09
2.93853354778e-10
6.75595686673e-09
3.8987574515e-09
1.92160419158e-10
6.77292131015e-09
4.03713561183e-09
6.70708821925e-11
6.78339680091e-09
4.12190302309e-09
-6.56990749664e-11
6.78823506606e-09
4.1513272318e-09
-1.9083265576e-10
6.78337505899e-09
4.12189504849e-09
-2.92610166744e-10
6.77288050931e-09
4.03711833917e-09
-3.56137396699e-10
6.75590052367e-09
3.8987281765e-09
-3.68313953883e-10
6.72902504635e-09
3.70850022206e-09
-3.18009547159e-10
6.68859111169e-09
3.46981899621e-09
-1.97413310689e-10
6.62177321705e-09
3.187572601e-09
6.54982644447e-09
2.86705712888e-09
8.59658105397e-13
2.03594693787e-10
5.69288653647e-09
2.68464686516e-09
3.45783967797e-13
3.27296831107e-10
5.73785914134e-09
3.00203389262e-09
3.79225174251e-10
5.78212662426e-09
3.28008329639e-09
3.66811675968e-10
5.80725237924e-09
3.51417657438e-09
3.01535131133e-10
5.82368980756e-09
3.70011617614e-09
1.97070107032e-10
5.83395492976e-09
3.83502533966e-09
6.87633015792e-11
5.84031801216e-09
3.91739031928e-09
-6.73483723375e-11
5.84337631068e-09
3.9457787845e-09
-1.95695443396e-10
5.84033050192e-09
3.91738400218e-09
-3.00238104126e-10
5.83398119731e-09
3.83501148786e-09
-3.65623585051e-10
5.82373196944e-09
3.70009217049e-09
-3.7816868601e-10
5.8073093728e-09
3.51413782132e-09
-3.26382791996e-10
5.78219218774e-09
3.28002498864e-09
-2.02832443751e-10
5.7379426207e-09
3.00196937413e-09
5.69298041686e-09
2.68461390116e-09
9.15360616856e-13
2.07833718077e-10
4.8426708843e-09
2.47327623766e-09
3.23076222598e-13
3.35285798656e-10
4.86399325245e-09
2.78695728468e-09
3.89105202857e-10
4.89070119994e-09
3.06063791283e-09
3.7627375219e-10
4.90596664777e-09
3.2902065126e-09
3.09012205217e-10
4.91634024847e-09
3.47204048978e-09
2.01780046873e-10
4.92289020728e-09
3.60367635972e-09
7.03789155567e-11
4.9269083174e-09
3.68378073664e-09
-6.89064509715e-11
4.9288186724e-09
3.71117571273e-09
-2.00344300474e-10
4.92695074699e-09
3.68377746686e-09
-3.07646984643e-10
4.92297610995e-09
3.60366891512e-09
-3.75008909067e-10
4.91647044627e-09
3.4720266944e-09
-3.87964073683e-10
4.90613892887e-09
3.29018194074e-09
-3.34283015638e-10
4.89090636631e-09
3.06059710071e-09
-2.06984992687e-10
4.86423284261e-09
2.78691306299e-09
4.84291815289e-09
2.47326203858e-09
9.72773103336e-13
2.12650145361e-10
4.02131633755e-09
2.23925968509e-09
2.99080466387e-13
3.45410426354e-10
4.02141137003e-09
2.54916794886e-09
4.00579697963e-10
4.03744103759e-09
2.81869327049e-09
3.86387525164e-10
4.04833380936e-09
3.04408658536e-09
3.16578145813e-10
4.05621631658e-09
3.22222284012e-09
2.0640251618e-10
4.0612730171e-09
3.35095699754e-09
7.19502393787e-11
4.06424848254e-09
3.42905199783e-09
-7.04046217395e-11
4.06549159434e-09
3.4555359712e-09
-2.04890360436e-10
4.06431547215e-09
3.42905315595e-09
-3.15130741563e-10
4.06140735383e-09
3.35095895581e-09
-3.85033675375e-10
4.05641843371e-09
3.2222243545e-09
-3.99344891996e-10
4.04860179439e-09
3.04408405137e-09
-3.44313312249e-10
4.03776715241e-09
2.81868039845e-09
-2.11713562727e-10
4.02179236332e-09
2.54915388992e-09
4.02170015223e-09
2.23927084059e-09
1.0332929039e-12
2.26651222554e-10
1.9879300091e-09
2.73341536186e-13
3.23695309876e-09
3.62798151749e-10
2.2945110633e-09
3.22890655602e-09
4.1546280769e-10
2.56015014639e-09
3.24280399884e-09
3.9758713201e-10
2.78174384909e-09
3.25290058605e-09
3.24290243496e-10
2.95660133387e-09
3.2600630241e-09
2.10930108516e-10
3.0828060067e-09
3.26478081669e-09
7.34686527889e-11
3.15914143164e-09
3.26747606996e-09
-7.18357761297e-11
3.18479808662e-09
3.26837795331e-09
-2.09329043997e-10
3.15914767464e-09
3.26756155276e-09
-3.22750774746e-10
3.08281882461e-09
3.26495212057e-09
-3.96137910394e-10
2.95662083646e-09
3.26031988243e-09
-4.14131074376e-10
2.78176837282e-09
3.25324218672e-09
-3.61609211782e-10
2.56017314899e-09
3.24322582e-09
-2.25634759916e-10
2.29454104388e-09
3.22940407948e-09
1.98796007459e-09
1.09274144271e-12
3.23745686059e-09
-7.00187060308e-12
2.3506035495e-10
3.30798274052e-10
1.48795251684e-14
-9.44614973446e-12
2.56985351755e-10
3.63440480423e-10
-1.02583020114e-11
2.80807640802e-10
3.93792269428e-10
-9.75178323803e-12
3.02537021783e-10
4.20731764691e-10
-8.01282499321e-12
3.20680926351e-10
4.43064202281e-10
-5.26390905587e-12
3.3436348538e-10
4.5981380063e-10
-1.83569800574e-12
3.42986660835e-10
4.70360082374e-10
1.83545944713e-12
3.46079382639e-10
4.74164558596e-10
5.2716877112e-12
3.42981814908e-10
4.70360816206e-10
8.03503744979e-12
3.3434784687e-10
4.59815254275e-10
9.78780099807e-12
3.20642603892e-10
4.4306635106e-10
1.0297783122e-11
3.02470263527e-10
4.2073477307e-10
9.48197272274e-12
2.8072982051e-10
3.93797093316e-10
7.02588917758e-12
2.56905692084e-10
3.634510339e-10
2.35034488253e-10
3.30828367697e-10
2.76736044348e-14
-1.20901177327e-11
6.84213300299e-10
9.63954268492e-10
4.49708458905e-14
-1.69732775227e-11
7.4264178762e-10
1.06191122896e-09
-1.84762943827e-11
8.04338068036e-10
1.15317334716e-09
-1.74870732819e-11
8.60298857029e-10
1.23423178979e-09
-1.43048202412e-11
9.06706842419e-10
1.30147219005e-09
-9.3589171526e-12
9.41473084666e-10
1.35193096227e-09
-3.24149687363e-12
9.63308560425e-10
1.38368475332e-09
3.30387051195e-12
9.71145523194e-10
1.39509080456e-09
9.43721205403e-12
9.63290395194e-10
1.38368632135e-09
1.44103117797e-11
9.41425976809e-10
1.3519341041e-09
1.76165393845e-11
9.06610784236e-10
1.30147694072e-09
1.86076466167e-11
8.60142366622e-10
1.23423873007e-09
1.70852479491e-11
8.04148579908e-10
1.1531851928e-09
1.21663199174e-11
7.42456191519e-10
1.06193906127e-09
6.84131194396e-10
9.6402911612e-10
8.43947942527e-14
-1.10734311036e-11
1.20259794149e-09
1.52077584308e-09
7.48511965482e-14
-1.57127434179e-11
1.29858397147e-09
1.67844194277e-09
-1.69829334537e-11
1.39756272874e-09
1.82512599391e-09
-1.5908440958e-11
1.48671487968e-09
1.95520379155e-09
-1.29047673923e-11
1.56021480042e-09
2.06296519698e-09
-8.38560898069e-12
1.61496988381e-09
2.14374862932e-09
-2.86558443028e-12
1.6492540251e-09
2.19451727788e-09
3.03582384126e-12
1.66156009023e-09
2.21269531788e-09
8.57284574261e-12
1.64922002844e-09
2.19451888276e-09
1.31195402572e-11
1.6148899642e-09
2.14375185634e-09
1.61438844414e-11
1.56006769746e-09
2.06297014104e-09
1.72109742096e-11
1.4864895386e-09
1.95521134454e-09
1.59028834505e-11
1.39729004106e-09
1.82514000668e-09
1.12054331444e-11
1.29832530236e-09
1.67847801007e-09
1.20247382141e-09
1.52087640816e-09
1.47978259025e-13
-5.74621671579e-12
1.70885984103e-09
1.98982796584e-09
1.0462004709e-13
-7.8853322245e-12
1.83734794756e-09
2.1995081012e-09
-8.14827916545e-12
1.96674880559e-09
2.39400176417e-09
-7.32942077942e-12
2.08226155251e-09
2.5660093413e-09
-5.7657093885e-12
2.17687247323e-09
2.70818305851e-09
-3.65542085884e-12
2.24695302448e-09
2.81457190816e-09
-1.1754793131e-12
2.29069232165e-09
2.88130999037e-09
1.47836799655e-12
2.30639256401e-09
2.90513262119e-09
3.9718637281e-12
2.2906437778e-09
2.88131060788e-09
6.10224734427e-12
2.24684553943e-09
2.81457315306e-09
7.67547250822e-12
2.17668806408e-09
2.70818503525e-09
8.47311276649e-12
2.08199286852e-09
2.56601305902e-09
8.1547173408e-12
1.96642517026e-09
2.39401152755e-09
5.93785081489e-12
1.83704294568e-09
2.19954156134e-09
1.70870290073e-09
1.9899332062e-09
2.20871419285e-13
2.66602505444e-12
2.14984979469e-09
2.37085358755e-09
1.33027517139e-13
4.64346288479e-12
2.3028359217e-09
2.62436311064e-09
5.99530429508e-12
2.45280701591e-09
2.85853036028e-09
6.29151328351e-12
2.58529669008e-09
3.06486987166e-09
5.47725403027e-12
2.69296542115e-09
3.2348994339e-09
3.7433595977e-12
2.77221743035e-09
3.36182388494e-09
1.44207425358e-12
2.82150521222e-09
3.44126486405e-09
-9.97733205639e-13
2.83919797162e-09
3.46953282386e-09
-3.29115586118e-12
2.821447549e-09
3.44126345642e-09
-5.01613358503e-12
2.77209382443e-09
3.36182122513e-09
-5.83542159529e-12
2.69276226971e-09
3.23489554757e-09
-5.57591311045e-12
2.58500988877e-09
3.06486565155e-09
-4.29488547738e-12
2.45246379882e-09
2.85852995346e-09
-2.41115573995e-12
2.3025094021e-09
2.62438483031e-09
2.14967434318e-09
2.37094803589e-09
2.99009227998e-13
1.30452127788e-11
2.49410977939e-09
2.66457789993e-09
1.59116422482e-13
2.02924127184e-11
2.66264352415e-09
2.95358832948e-09
2.3718248482e-11
2.82267684769e-09
3.21917779822e-09
2.33160425259e-11
2.96239847132e-09
3.45216816059e-09
1.9477968409e-11
3.07487818449e-09
3.64344751887e-09
1.29249965346e-11
3.15707630984e-09
3.78581433428e-09
4.674893564e-12
3.20798794812e-09
3.87468702448e-09
-4.09083179775e-12
3.22626362516e-09
3.9062057617e-09
-1.23395694322e-11
3.20792691697e-09
3.87468322801e-09
-1.88957907626e-11
3.15694827481e-09
3.78580685578e-09
-2.27539727559e-11
3.07467400812e-09
3.64343618452e-09
-2.32073921099e-11
2.96211672311e-09
3.45215349151e-09
-1.98656223225e-11
2.82234090692e-09
3.2191633076e-09
-1.2723363524e-11
2.66232172816e-09
2.95359238671e-09
2.49392740846e-09
2.66465269981e-09
3.7869033115e-13
2.44152755555e-11
2.72677703479e-09
2.87340415574e-09
1.81570615339e-13
3.77093325033e-11
2.9022401972e-09
3.18987582951e-09
4.35335079437e-11
3.06272032719e-09
3.47899642043e-09
4.23475743221e-11
3.20097254331e-09
3.73135121861e-09
3.51018688953e-11
3.31101544919e-09
3.9376588977e-09
2.31506442294e-11
3.39075848077e-09
4.09069951378e-09
8.26476378932e-12
3.43991335189e-09
4.18595512705e-09
-7.54896793152e-12
3.45755595538e-09
4.21961490406e-09
-2.243970113e-11
3.43985527377e-09
4.18594888183e-09
-3.44054551534e-11
3.39063835825e-09
4.09068703672e-09
-4.16848803218e-11
3.31082729528e-09
3.93763970231e-09
-4.29343045028e-11
3.20071636877e-09
3.73132525085e-09
-3.72047201466e-11
3.06241381053e-09
3.47896628367e-09
-2.40241808707e-11
2.90194570647e-09
3.18985985616e-09
2.72660307913e-09
2.87345570962e-09
4.58663254817e-13
3.59939952562e-11
2.84538374431e-09
3.00151292984e-09
1.99644019329e-13
5.57835322019e-11
3.02023781842e-09
3.33808167047e-09
6.42125805337e-11
3.17334416294e-09
3.6436108544e-09
6.22401303162e-11
3.30324750498e-09
3.90883440345e-09
5.14286066021e-11
3.4052531367e-09
4.12468296577e-09
3.38273034164e-11
3.47844262574e-09
4.28422668515e-09
1.20064397431e-11
3.52330114603e-09
4.38321321087e-09
-1.11693743353e-11
3.53939417293e-09
4.41805014037e-09
-3.3000397243e-11
3.52325118469e-09
4.3832049356e-09
-5.06257355764e-11
3.47834028785e-09
4.28420999663e-09
-6.14821019089e-11
3.4050947398e-09
4.12465697874e-09
-6.35278010014e-11
3.30303352275e-09
3.90879834586e-09
-5.52008208014e-11
3.17308673738e-09
3.64356629531e-09
-3.55321543406e-11
3.01999009338e-09
3.33804704841e-09
2.84523838538e-09
3.00154216651e-09
5.37309728492e-13
4.71931773925e-11
2.85633297469e-09
3.05461760896e-09
2.13745753072e-13
7.36363317972e-11
3.02448610977e-09
3.40487007766e-09
8.4780959988e-11
3.16456937985e-09
3.72073165308e-09
8.209306524e-11
3.28134988746e-09
3.99337781335e-09
6.77456453442e-11
3.37158955342e-09
4.21423359569e-09
4.45018573687e-11
3.43558800805e-09
4.37687383929e-09
1.57447522164e-11
3.4745473186e-09
4.47743985342e-09
-1.47970163868e-11
3.48850883648e-09
4.5126718743e-09
-4.3568402131e-11
3.47450959576e-09
4.47743045031e-09
-6.68435202694e-11
3.4355111743e-09
4.37685471862e-09
-8.12441096112e-11
3.37147137604e-09
4.21420342946e-09
-8.40124011517e-11
3.28119030008e-09
3.9933350297e-09
-7.29753334641e-11
3.16437557058e-09
3.72067674769e-09
-4.665883324e-11
3.02430193078e-09
3.40482176945e-09
2.85623263196e-09
3.05462935549e-09
6.13600661665e-13
5.76078574806e-11
2.77195343104e-09
3.03954930357e-09
2.23627829324e-13
9.06129470611e-11
2.92886654881e-09
3.39817050111e-09
1.04511063268e-10
3.05242508438e-09
3.71947113585e-09
1.01243863723e-10
3.15334732372e-09
3.99525810663e-09
8.35394140617e-11
3.22989230609e-09
4.21762794408e-09
5.48531555311e-11
3.28345888505e-09
4.38078085716e-09
1.93711225109e-11
3.31580822909e-09
4.48130888947e-09
-1.83220697039e-11
3.32737551288e-09
4.51634670361e-09
-5.38213677891e-11
3.31578507588e-09
4.4812997233e-09
-8.25441527738e-11
3.28341189697e-09
4.38076204332e-09
-1.00307678059e-10
3.22982029521e-09
4.21759772078e-09
-1.03660217068e-10
3.15324985881e-09
3.99521406588e-09
-8.98736925195e-11
3.05230518908e-09
3.7194126635e-09
-5.70004162525e-11
2.92875921995e-09
3.39811665229e-09
2.77191497499e-09
3.0395516778e-09
6.87079790284e-13
6.69981958958e-11
2.60811862344e-09
2.96377962555e-09
2.30373586484e-13
1.06273665664e-10
2.75072244661e-09
3.32658395273e-09
1.22921488907e-10
2.85610464248e-09
3.64962741375e-09
1.19268045186e-10
2.94018386224e-09
3.92542910684e-09
9.84901718414e-11
3.00265584156e-09
4.14683454777e-09
6.46852060019e-11
3.04575169324e-09
4.30870815729e-09
2.28200644604e-11
3.07154438415e-09
4.40809037515e-09
-2.16776453026e-11
3.08072948936e-09
4.44252799506e-09
-6.35621358857e-11
3.07153657463e-09
4.40808321959e-09
-9.74071714319e-11
3.04573607422e-09
4.30869324996e-09
-1.18248097293e-10
3.00263190662e-09
4.14680976336e-09
-1.21990358945e-10
2.94015112831e-09
3.92539119009e-09
-1.05457361308e-10
2.85606337334e-09
3.64957450559e-09
-6.63180785914e-11
2.75070038357e-09
3.32653524764e-09
2.60815326564e-09
2.96378334549e-09
7.57033909013e-13
7.5259287842e-11
2.38238525361e-09
2.83495301102e-09
2.34123090977e-13
1.2039429806e-10
2.50884674161e-09
3.19883270703e-09
1.39800998253e-10
2.59579249882e-09
3.52104817044e-09
1.35998670412e-10
2.66342713563e-09
3.79479390321e-09
1.12477200908e-10
2.71268782044e-09
4.01366192211e-09
7.39235919094e-11
2.74622457763e-09
4.17316053511e-09
2.60667461194e-11
2.76611143604e-09
4.270733601e-09
-2.48381171704e-11
2.77314022789e-09
4.30432461001e-09
-7.271581843e-11
2.76611863074e-09
4.27073052494e-09
-1.11312210172e-10
2.7462390959e-09
4.17315377675e-09
-1.34899642524e-10
2.71271048396e-09
4.01364914662e-09
-1.38793546545e-10
2.66345753816e-09
3.79477102953e-09
-1.19504424279e-10
2.59582996283e-09
3.52101174022e-09
-7.45097750494e-11
2.5089125226e-09
3.1988013294e-09
2.38250019535e-09
2.83497029136e-09
8.23047592906e-13
8.24493018145e-11
2.11256192844e-09
2.66047431666e-09
2.35360943656e-13
1.33089933567e-10
2.22188606917e-09
3.02332750578e-09
1.5534307062e-10
2.29107810462e-09
3.34315075809e-09
1.51612145311e-10
2.34375682164e-09
3.61365819897e-09
1.25615289299e-10
2.38162156679e-09
3.82915366795e-09
8.26261359555e-11
2.40719878893e-09
3.98574052287e-09
2.91276002949e-11
2.42224289811e-09
4.08119551571e-09
-2.78201186968e-11
2.42749017996e-09
4.11382079162e-09
-8.13412146117e-11
2.422263743e-09
4.08119865405e-09
-1.24375515135e-10
2.40724138095e-09
3.98574634651e-09
-1.50441441322e-10
2.38168694387e-09
3.82915991996e-09
-1.54266558335e-10
2.34384617394e-09
3.61366014439e-09
-1.32133919512e-10
2.29119025155e-09
3.343142731e-09
-8.1637176067e-11
2.22203865092e-09
3.02332562621e-09
2.11276005042e-09
2.66051616227e-09
8.8085162493e-13
8.86905686398e-11
1.81577046958e-09
2.44718253013e-09
2.34615286878e-13
1.44767864655e-10
1.90707445886e-09
2.8079462066e-09
1.70115297157e-10
1.95981740004e-09
3.12465073106e-09
1.66578232857e-10
2.00003676926e-09
3.39138895477e-09
1.38210710243e-10
2.029050425e-09
3.60320590879e-09
9.09570439573e-11
2.04871001427e-09
3.75674317436e-09
3.20540228471e-11
2.06021761468e-09
3.85002374706e-09
-3.06765332512e-11
2.06414305112e-09
3.88165535221e-09
-8.96040126941e-11
2.06025117597e-09
3.85003487262e-09
-1.3690645819e-10
2.04877776341e-09
3.75676532467e-09
-1.65346739782e-10
2.02915424e-09
3.60323738152e-09
-1.68981916952e-10
2.00017825127e-09
3.39142502886e-09
-1.43757069843e-10
1.95999771025e-09
3.12468324081e-09
-8.78265193929e-11
1.90730860318e-09
2.80798487735e-09
1.81604588356e-09
2.44725551056e-09
9.31722410137e-13
8.84871036825e-11
2.20099818816e-09
2.32703767234e-13
1.51403571781e-09
1.53744846102e-10
2.56005034825e-09
1.57631713161e-09
1.83609142209e-10
2.8732996622e-09
1.61684394116e-09
1.80842098739e-10
3.136133268e-09
1.64845395571e-09
1.50414372497e-10
3.34433772136e-09
1.67178204532e-09
9.90931530295e-11
3.49498253059e-09
1.68789455912e-09
3.49189104593e-11
3.58622171509e-09
1.69735006124e-09
-3.34822485826e-11
3.61690021499e-09
1.70047991088e-09
-9.76841660486e-11
3.58624127906e-09
1.69739573709e-09
-1.49059283191e-10
3.49502200582e-09
1.68798671982e-09
-1.79566277968e-10
3.34439641081e-09
1.67192191619e-09
-1.82436433191e-10
3.13620781177e-09
1.64864376543e-09
-1.5269926791e-10
2.87338023723e-09
1.61708576672e-09
-8.75884870615e-11
2.56014403686e-09
1.57662483692e-09
2.20109228337e-09
9.65291362489e-13
1.51438767182e-09
2.3440157699e-12
-6.27361489311e-13
3.29151458724e-10
-4.82081815831e-16
3.87282150017e-12
-1.51799973834e-12
3.6349913227e-10
4.72633812106e-12
-2.58544887553e-12
3.95604796856e-10
4.78054113882e-12
-3.48453171564e-12
4.242214828e-10
4.07648758932e-12
-4.18544717484e-12
4.48023740149e-10
2.74390568773e-12
-4.69850260564e-12
4.65921062382e-10
9.90123762527e-13
-5.01871040118e-12
4.77203514368e-10
-9.18250413475e-13
-5.13285509806e-12
4.81266797433e-10
-2.6762571464e-12
-5.03240265336e-12
4.77204283889e-10
-4.0153713061e-12
-4.72078936975e-12
4.65922662975e-10
-4.72302667863e-12
-4.20873932364e-12
4.4802635136e-10
-4.66581155397e-12
-3.50701760191e-12
4.242255955e-10
-3.81869943479e-12
-2.62267472214e-12
3.95611597968e-10
-2.29564426402e-12
-1.5475214476e-12
3.63512488054e-10
-6.50208245864e-13
3.29183513002e-10
3.42915278931e-14
5.67999148868e-12
4.7802533908e-11
9.09955912006e-10
-3.52110324536e-15
9.62444819405e-12
5.17129482725e-11
1.00485285546e-09
1.17608883587e-11
5.52553630412e-11
1.09331169642e-09
1.1891795307e-11
5.88066506116e-11
1.17191350982e-09
1.01267827826e-11
6.20348160509e-11
1.23713161145e-09
6.80887448741e-12
6.45874621858e-11
1.28608180534e-09
2.46163893814e-12
6.62333866927e-11
1.31688958662e-09
-2.25758110656e-12
6.68205276915e-11
1.32795267862e-09
-6.61378524272e-12
6.62031199616e-11
1.3168915465e-09
-9.94557417712e-12
6.45353182105e-11
1.28608589545e-09
-1.17196790203e-11
6.1974166839e-11
1.23713836518e-09
-1.15895299767e-11
5.87431348421e-11
1.17192434915e-09
-9.46726385319e-12
5.51725312253e-11
1.09333009939e-09
-5.54509589241e-12
5.1638296433e-11
1.00488961202e-09
4.77521911988e-11
9.10038186464e-10
9.73837010688e-14
8.14444694134e-12
1.48737240306e-10
1.41179890185e-09
-6.12112255115e-15
1.39540160017e-11
1.63484873626e-10
1.560967918e-09
1.70362625496e-11
1.77658599992e-10
1.69974213172e-09
1.71871318784e-11
1.91141183244e-10
1.82281486635e-09
1.46023094124e-11
2.02914699566e-10
1.92477489417e-09
9.80166859469e-12
2.12033474952e-10
2.00121154915e-09
3.5480273371e-12
2.17855546028e-10
2.04924921852e-09
-3.22369176371e-12
2.19930055637e-10
2.06644624957e-09
-9.48859844363e-12
2.17813933595e-10
2.04925168714e-09
-1.43069326508e-11
2.11959948255e-10
2.00121677859e-09
-1.69057068235e-11
2.02825198489e-10
1.92478373547e-09
-1.67631196193e-11
1.91044297592e-10
1.82282947323e-09
-1.37031726864e-11
1.77543423497e-10
1.69976760937e-09
-7.93081318993e-12
1.63379066886e-10
1.56101952205e-09
1.48676157425e-10
1.41191370239e-09
1.58154477893e-13
1.03280194475e-11
2.86601398289e-10
1.84172990005e-09
-6.1205534114e-15
1.77838083584e-11
3.15945924843e-10
2.03968229321e-09
2.16795088147e-11
3.44421963634e-10
2.22343230385e-09
2.18171353098e-11
3.71035638419e-10
2.38606683322e-09
1.84933082079e-11
3.93933303816e-10
2.52058318631e-09
1.23924275546e-11
4.11505799519e-10
2.62129623633e-09
4.48818253077e-12
4.22666662304e-10
2.68449252746e-09
-4.05077137452e-12
4.26636570077e-10
2.70704553681e-09
-1.19673443705e-11
4.22618883798e-10
2.68449460938e-09
-1.8088254997e-11
4.11419371619e-10
2.62130081142e-09
-2.14313063163e-11
3.9382349926e-10
2.52059136586e-09
-2.13110710661e-11
3.70913912223e-10
2.38608124261e-09
-1.7447176495e-11
3.44286909512e-10
2.22345890319e-09
-1.00399220701e-11
3.15825631529e-10
2.03973856947e-09
2.86537498373e-10
1.84185787338e-09
2.20057849031e-13
1.26885649984e-11
4.44646374289e-10
2.20020245658e-09
-3.11676318333e-15
2.18353787486e-11
4.89965800599e-10
2.44127123235e-09
2.65445554138e-11
5.33889477537e-10
2.66443237373e-09
2.66403670462e-11
5.74407791653e-10
2.86148066507e-09
2.25313693934e-11
6.08883116861e-10
3.02414212039e-09
1.50735544061e-11
6.3513683739e-10
3.14573534256e-09
5.45723018648e-12
6.51729518058e-10
3.22189832555e-09
-4.91024973178e-12
6.57619052209e-10
3.24899090236e-09
-1.45397635875e-11
6.51679056503e-10
3.22189932824e-09
-2.20200118745e-11
6.35044352438e-10
3.14573784197e-09
-2.61540755463e-11
6.08763115285e-10
3.02414736679e-09
-2.60852997289e-11
5.74273483995e-10
2.86149143476e-09
-2.14182312428e-11
5.33745981844e-10
2.66445475776e-09
-1.23297683411e-11
4.89845543292e-10
2.44132364093e-09
4.44586920545e-10
2.20032935669e-09
2.82859760351e-13
1.55467833639e-11
6.06018541542e-10
2.48772236305e-09
2.21380513294e-15
2.66385102768e-11
6.66486829783e-10
2.76604044383e-09
3.22738889806e-11
7.24678851628e-10
3.02281985844e-09
3.23085981126e-11
7.77709942778e-10
3.24890047863e-09
2.7273406846e-11