/*--------------------------------*- C++ -*----------------------------------*\
  =========                 |
  \\      /  F ield         | OpenFOAM: The Open Source CFD Toolbox
   \\    /   O peration     | Website:  https://openfoam.org
    \\  /    A nd           | Version:  7
     \\/     M anipulation  |
\*---------------------------------------------------------------------------*/
FoamFile
{
    version     2.0;
    format      ascii;
    class       volScalarField;
    location    "0.84";
    object      p;
}
// * * * * * * * * * * * * * * * * * * * * * * * * * * * * * * * * * * * * * //

dimensions      [0 2 -2 0 0 0 0];

internalField   nonuniform List<scalar> 
22500
(
-4.86139740185e-06
-4.86114761847e-06
-4.8614684086e-06
-4.8615779113e-06
-4.86171315749e-06
-4.8618055135e-06
-4.86186236945e-06
-4.86187651411e-06
-4.86185388756e-06
-4.8617888667e-06
-4.86168889609e-06
-4.86154666439e-06
-4.86143071417e-06
-4.86110494696e-06
-4.86134530298e-06
-4.85702248304e-06
-4.85649681857e-06
-4.85663390861e-06
-4.85658697233e-06
-4.85659909789e-06
-4.85660293681e-06
-4.85660662886e-06
-4.85660358817e-06
-4.85659790273e-06
-4.85658575157e-06
-4.85657391693e-06
-4.85655436445e-06
-4.85659429174e-06
-4.85645171463e-06
-4.85696773448e-06
-4.85250830319e-06
-4.85170271246e-06
-4.85163836942e-06
-4.85141275031e-06
-4.85128793561e-06
-4.85119177064e-06
-4.85113514999e-06
-4.8511121809e-06
-4.85112608721e-06
-4.8511738782e-06
-4.85126163589e-06
-4.85137861505e-06
-4.85159677602e-06
-4.85165537295e-06
-4.85245100408e-06
-4.84799201096e-06
-4.84690898805e-06
-4.84660757461e-06
-4.84618003102e-06
-4.84589553785e-06
-4.84568246791e-06
-4.84555458311e-06
-4.84550780166e-06
-4.84554515223e-06
-4.84566381751e-06
-4.84586806567e-06
-4.84614432993e-06
-4.8465640624e-06
-4.84685956923e-06
-4.84793244843e-06
-4.84319815114e-06
-4.84181240422e-06
-4.84122186334e-06
-4.84055650266e-06
-4.84007816878e-06
-4.83972282355e-06
-4.83950751974e-06
-4.83943136164e-06
-4.83949767325e-06
-4.83970333058e-06
-4.8400494357e-06
-4.84051917177e-06
-4.84117645266e-06
-4.84176092806e-06
-4.84313637674e-06
-4.83802765612e-06
-4.83630135917e-06
-4.83537008493e-06
-4.83442920125e-06
-4.8337220947e-06
-4.83319827111e-06
-4.8328789578e-06
-4.83276770423e-06
-4.83286862392e-06
-4.83317780968e-06
-4.83369194501e-06
-4.83439007846e-06
-4.835322651e-06
-4.83624771922e-06
-4.83796370621e-06
-4.83246469039e-06
-4.83035502499e-06
-4.82903722661e-06
-4.82778649868e-06
-4.82681930172e-06
-4.82610326328e-06
-4.82566495007e-06
-4.82551343604e-06
-4.82565407313e-06
-4.82608173626e-06
-4.82678762559e-06
-4.8277454854e-06
-4.82898772109e-06
-4.83029915259e-06
-4.83239857459e-06
-4.82651116473e-06
-4.82397513283e-06
-4.82223356286e-06
-4.82064509654e-06
-4.81939264665e-06
-4.81846508302e-06
-4.81789562114e-06
-4.81769965441e-06
-4.81788413737e-06
-4.81844237627e-06
-4.81935929785e-06
-4.82060203229e-06
-4.82218183946e-06
-4.82391687575e-06
-4.82644286919e-06
-4.82018284024e-06
-4.81718302696e-06
-4.81499184665e-06
-4.81304714591e-06
-4.81149281726e-06
-4.81034067348e-06
-4.80963189934e-06
-4.80938866077e-06
-4.80961975515e-06
-4.81031668778e-06
-4.81145766329e-06
-4.81300187857e-06
-4.81493774238e-06
-4.81712219372e-06
-4.82011215643e-06
-4.81351278509e-06
-4.81002340672e-06
-4.80737085796e-06
-4.80506313361e-06
-4.80320047733e-06
-4.8018182427e-06
-4.8009668034e-06
-4.80067512445e-06
-4.80095394549e-06
-4.80179287649e-06
-4.8031633667e-06
-4.80501546844e-06
-4.80731413501e-06
-4.80995970664e-06
-4.81343944493e-06
-4.80655050396e-06
-4.80256260891e-06
-4.79945415201e-06
-4.79678996057e-06
-4.79462347445e-06
-4.79301386689e-06
-4.79202166331e-06
-4.79168221912e-06
-4.79200805311e-06
-4.79298703573e-06
-4.79458427671e-06
-4.79673969681e-06
-4.799394526e-06
-4.80249566456e-06
-4.80647394101e-06
-4.79933611067e-06
-4.79487796958e-06
-4.79134776437e-06
-4.78834926771e-06
-4.78589468589e-06
-4.78406907584e-06
-4.7829437216e-06
-4.78255917649e-06
-4.78292933678e-06
-4.78404072876e-06
-4.78585328792e-06
-4.7882962162e-06
-4.79128492452e-06
-4.79480735049e-06
-4.79925569774e-06
-4.79185648155e-06
-4.78706942204e-06
-4.78319435772e-06
-4.77989437094e-06
-4.77717602284e-06
-4.77515465199e-06
-4.77391015991e-06
-4.77348556022e-06
-4.77389501625e-06
-4.77512480662e-06
-4.7771324143e-06
-4.77983843071e-06
-4.78312804286e-06
-4.78699473947e-06
-4.79177172558e-06
-4.78439272839e-06
-4.77944133698e-06
-4.77521580309e-06
-4.77160930566e-06
-4.76863858256e-06
-4.76644159376e-06
-4.76509451737e-06
-4.76463600851e-06
-4.76507869817e-06
-4.76641039039e-06
-4.76859291683e-06
-4.77155055363e-06
-4.77514589866e-06
-4.7793620836e-06
-4.7843035748e-06
-4.7789743901e-06
-4.77236308918e-06
-4.7675879014e-06
-4.76355387159e-06
-4.76029588034e-06
-4.75792021039e-06
-4.75647455321e-06
-4.75598434905e-06
-4.75645812696e-06
-4.7578877881e-06
-4.76024830665e-06
-4.76349236507e-06
-4.76751400219e-06
-4.77227822846e-06
-4.77888068592e-06
-5.21726106319e-06
-5.2171220454e-06
-5.2169329301e-06
-5.2167641649e-06
-5.21661435363e-06
-5.21650031378e-06
-5.21642875313e-06
-5.21640423616e-06
-5.21642800294e-06
-5.21649851303e-06
-5.21661094713e-06
-5.21675903531e-06
-5.21692662854e-06
-5.21711599736e-06
-5.21725802449e-06
-5.21643657849e-06
-5.21629466514e-06
-5.21609929953e-06
-5.21592649384e-06
-5.21577298417e-06
-5.21565610976e-06
-5.21558268063e-06
-5.21555739584e-06
-5.21558162063e-06
-5.21565370999e-06
-5.21576877436e-06
-5.21592039087e-06
-5.21609207014e-06
-5.21628790473e-06
-5.21643296901e-06
-5.21593212394e-06
-5.21582314115e-06
-5.21565153556e-06
-5.21550330815e-06
-5.21536971157e-06
-5.21526786403e-06
-5.21520366547e-06
-5.21518148012e-06
-5.2152026228e-06
-5.21526556324e-06
-5.21536579863e-06
-5.21549772467e-06
-5.21564499262e-06
-5.21581704161e-06
-5.21592888618e-06
-5.2158426317e-06
-5.21579098022e-06
-5.21566272604e-06
-5.21555645027e-06
-5.21545694214e-06
-5.21538042397e-06
-5.21533174169e-06
-5.21531478757e-06
-5.21533079098e-06
-5.21537836815e-06
-5.21545351885e-06
-5.2155516001e-06
-5.21565702889e-06
-5.21578559516e-06
-5.21583980823e-06
-5.21599863755e-06
-5.21600551646e-06
-5.21592065133e-06
-5.21585466861e-06
-5.21578728172e-06
-5.21573405697e-06
-5.21569943805e-06
-5.21568720507e-06
-5.2156986132e-06
-5.21573229975e-06
-5.21578439373e-06
-5.21585057581e-06
-5.21591579291e-06
-5.21600077059e-06
-5.21599616818e-06
-5.21627246258e-06
-5.21632192911e-06
-5.21626703827e-06
-5.21622680864e-06
-5.21617882808e-06
-5.2161388139e-06
-5.21611183544e-06
-5.21610211482e-06
-5.21611114863e-06
-5.21613736396e-06
-5.21617644927e-06
-5.21622339501e-06
-5.21626289114e-06
-5.21631767605e-06
-5.21627021287e-06
-5.21657300966e-06
-5.21663739675e-06
-5.21659086727e-06
-5.21655457878e-06
-5.21650756592e-06
-5.21646661526e-06
-5.21643842621e-06
-5.21642821364e-06
-5.21643790275e-06
-5.21646550784e-06
-5.21650572006e-06
-5.21655184595e-06
-5.21658739174e-06
-5.21663360632e-06
-5.21657087465e-06
-5.21682726508e-06
-5.21687266544e-06
-5.21680930518e-06
-5.21675272919e-06
-5.21668668124e-06
-5.21662980813e-06
-5.2165911618e-06
-5.21657734491e-06
-5.21659080977e-06
-5.21662904621e-06
-5.21668534993e-06
-5.21675062868e-06
-5.21680643623e-06
-5.21686924536e-06
-5.21682520489e-06
-5.21698070472e-06
-5.21697217494e-06
-5.21686731556e-06
-5.21676781828e-06
-5.2166645455e-06
-5.2165784693e-06
-5.2165213132e-06
-5.21650120831e-06
-5.21652115572e-06
-5.21657808961e-06
-5.21666376348e-06
-5.2167663713e-06
-5.21686506083e-06
-5.21696913375e-06
-5.21697866075e-06
-5.21699859413e-06
-5.21690487085e-06
-5.21673738236e-06
-5.21657665271e-06
-5.21642194397e-06
-5.21629663265e-06
-5.21621503386e-06
-5.21618668325e-06
-5.2162150866e-06
-5.21629666134e-06
-5.21642173612e-06
-5.21657588777e-06
-5.21673577642e-06
-5.21690226924e-06
-5.21699661719e-06
-5.21686424317e-06
-5.21666106105e-06
-5.21641503299e-06
-5.21618039975e-06
-5.21596501907e-06
-5.21579440597e-06
-5.21568494437e-06
-5.21564727113e-06
-5.21568523327e-06
-5.21579488888e-06
-5.21596545304e-06
-5.2161803912e-06
-5.21641417222e-06
-5.21665904298e-06
-5.21686244102e-06
-5.21657800301e-06
-5.2162490527e-06
-5.21591366653e-06
-5.21559803702e-06
-5.21531782235e-06
-5.21509979229e-06
-5.21496158787e-06
-5.21491434992e-06
-5.21496213944e-06
-5.21510077857e-06
-5.2153189665e-06
-5.21559889072e-06
-5.21591370524e-06
-5.21624783747e-06
-5.21657671203e-06
-5.21615930384e-06
-5.21568993826e-06
-5.21525718491e-06
-5.21485877081e-06
-5.21451468621e-06
-5.21425116125e-06
-5.21408570293e-06
-5.2140295572e-06
-5.21408652894e-06
-5.21425269023e-06
-5.2145166205e-06
-5.2148606079e-06
-5.21525830447e-06
-5.2156898008e-06
-5.2161588014e-06
-5.21561062807e-06
-5.21498676346e-06
-5.21446321089e-06
-5.2139908753e-06
-5.21359284903e-06
-5.21329180962e-06
-5.21310437606e-06
-5.21304097389e-06
-5.21310546756e-06
-5.21329386402e-06
-5.21359553622e-06
-5.21399370004e-06
-5.21446557946e-06
-5.21498803766e-06
-5.21561124506e-06
-5.21474071043e-06
-5.21414431198e-06
-5.21356089646e-06
-5.21304099148e-06
-5.21261112501e-06
-5.21228869233e-06
-5.21208888334e-06
-5.21202160859e-06
-5.21209015232e-06
-5.21229113883e-06
-5.21261444418e-06
-5.21304474442e-06
-5.2135645138e-06
-5.21414742823e-06
-5.21474303326e-06
-4.43162316144e-06
-4.43170378704e-06
-4.43178718413e-06
-4.43186452877e-06
-4.43193090736e-06
-4.43198098718e-06
-4.43201173886e-06
-4.43202147e-06
-4.43200956381e-06
-4.43197701186e-06
-4.43192591007e-06
-4.43185943388e-06
-4.43178275709e-06
-4.43170141264e-06
-4.43162314601e-06
-4.43175552684e-06
-4.43183571632e-06
-4.43192067898e-06
-4.43199988554e-06
-4.43206820033e-06
-4.43211996298e-06
-4.43215192569e-06
-4.4321622119e-06
-4.43215006872e-06
-4.43211658991e-06
-4.4320640108e-06
-4.43199571308e-06
-4.43191721053e-06
-4.43183405416e-06
-4.43175609189e-06
-4.43176658894e-06
-4.43183686569e-06
-4.43191398886e-06
-4.43198663976e-06
-4.43204990693e-06
-4.43209811693e-06
-4.43212803736e-06
-4.43213773631e-06
-4.43212640244e-06
-4.43209514271e-06
-4.43204620425e-06
-4.43198297644e-06
-4.43191108257e-06
-4.43183568573e-06
-4.43176761628e-06
-4.43173883777e-06
-4.43179912898e-06
-4.43186805361e-06
-4.43193330964e-06
-4.43199073645e-06
-4.43203475784e-06
-4.4320622253e-06
-4.43207118332e-06
-4.43206078784e-06
-4.43203213083e-06
-4.43198744101e-06
-4.43193006479e-06
-4.43186561377e-06
-4.4317984629e-06
-4.43174039295e-06
-4.43170315337e-06
-4.43175483886e-06
-4.43181680798e-06
-4.43187548547e-06
-4.43192765537e-06
-4.43196788282e-06
-4.43199310545e-06
-4.43200137611e-06
-4.43199183659e-06
-4.4319655615e-06
-4.4319247521e-06
-4.4318726906e-06
-4.4318148973e-06
-4.43175479814e-06
-4.43170529802e-06
-4.43166024128e-06
-4.43170445446e-06
-4.43176031687e-06
-4.43181309598e-06
-4.43186046985e-06
-4.43189719896e-06
-4.43192033449e-06
-4.43192795284e-06
-4.43191919801e-06
-4.43189512322e-06
-4.43185789002e-06
-4.43181069528e-06
-4.43175889992e-06
-4.43170500585e-06
-4.43166304059e-06
-4.43161031924e-06
-4.43164808336e-06
-4.43169862086e-06
-4.4317462477e-06
-4.43178934523e-06
-4.43182292466e-06
-4.43184415242e-06
-4.43185116099e-06
-4.4318431151e-06
-4.43182104356e-06
-4.43178704816e-06
-4.43174422346e-06
-4.43169771313e-06
-4.43164923771e-06
-4.43161373544e-06
-4.43155543426e-06
-4.43158796926e-06
-4.43163404359e-06
-4.43167731818e-06
-4.43171670137e-06
-4.43174750285e-06
-4.43176701966e-06
-4.43177346483e-06
-4.43176604382e-06
-4.43174574969e-06
-4.43171460431e-06
-4.43167557889e-06
-4.43163354538e-06
-4.43158965745e-06
-4.4315594019e-06
-4.43149743108e-06
-4.43152599075e-06
-4.4315684074e-06
-4.43160813328e-06
-4.431644373e-06
-4.43167276365e-06
-4.43169075708e-06
-4.43169668253e-06
-4.4316898036e-06
-4.43167106765e-06
-4.43164238994e-06
-4.43160658945e-06
-4.43156821615e-06
-4.43152810305e-06
-4.43150181571e-06
-4.43143749209e-06
-4.43146336184e-06
-4.43150285404e-06
-4.43153977379e-06
-4.43157336346e-06
-4.43159964176e-06
-4.43161626049e-06
-4.43162169203e-06
-4.43161528324e-06
-4.43159791688e-06
-4.43157137221e-06
-4.43153827423e-06
-4.43150279618e-06
-4.43146570068e-06
-4.43144215346e-06
-4.43137651617e-06
-4.43140083074e-06
-4.43143806378e-06
-4.43147282617e-06
-4.43150416543e-06
-4.43152855447e-06
-4.43154388806e-06
-4.43154883719e-06
-4.4315428386e-06
-4.43152670462e-06
-4.43150203285e-06
-4.431471199e-06
-4.43143793275e-06
-4.43140314695e-06
-4.43138117805e-06
-4.43131455225e-06
-4.43133861245e-06
-4.43137441958e-06
-4.4314076449e-06
-4.43143706514e-06
-4.43145970159e-06
-4.43147380181e-06
-4.43147825497e-06
-4.43147262683e-06
-4.43145762321e-06
-4.43143462929e-06
-4.43140568353e-06
-4.43137395275e-06
-4.43134060237e-06
-4.43131888287e-06
-4.43124928629e-06
-4.43127581321e-06
-4.43131174499e-06
-4.43134424162e-06
-4.43137216173e-06
-4.43139328818e-06
-4.43140625962e-06
-4.43141023606e-06
-4.43140490625e-06
-4.43139086747e-06
-4.43136926168e-06
-4.43134171486e-06
-4.43131065015e-06
-4.43127710805e-06
-4.4312528565e-06
-4.43118324082e-06
-4.43121611594e-06
-4.43125167811e-06
-4.43128322141e-06
-4.4313095226e-06
-4.43132913286e-06
-4.43134101576e-06
-4.43134451958e-06
-4.431339443e-06
-4.43132630027e-06
-4.43130602795e-06
-4.43127995447e-06
-4.43124968945e-06
-4.43121635078e-06
-4.43118565796e-06
-4.43118632102e-06
-4.43118856135e-06
-4.4312119915e-06
-4.43123317715e-06
-4.43125114434e-06
-4.43126472648e-06
-4.43127289927e-06
-4.4312750769e-06
-4.43127114625e-06
-4.43126152555e-06
-4.43124710982e-06
-4.43122916035e-06
-4.43120900125e-06
-4.43118745015e-06
-4.43118715753e-06
-4.61437255273e-06
-4.61431538858e-06
-4.61425759641e-06
-4.61420195779e-06
-4.61415410617e-06
-4.61411744307e-06
-4.61409433608e-06
-4.61408617789e-06
-4.61409352929e-06
-4.61411564443e-06
-4.61415097351e-06
-4.61419706457e-06
-4.61425050599e-06
-4.61430587905e-06
-4.61436159751e-06
-4.61432273998e-06
-4.61426693185e-06
-4.61420897274e-06
-4.61415275878e-06
-4.61410413612e-06
-4.61406675732e-06
-4.61404311634e-06
-4.61403471169e-06
-4.61404218604e-06
-4.61406472459e-06
-4.61410068619e-06
-4.61414747414e-06
-4.61420145163e-06
-4.61425709433e-06
-4.61431142254e-06
-4.61436089366e-06
-4.61431269148e-06
-4.61426133837e-06
-4.61421044784e-06
-4.61416594011e-06
-4.61413144149e-06
-4.61410948203e-06
-4.614101588e-06
-4.61410844944e-06
-4.61412924024e-06
-4.61416231509e-06
-4.61420505317e-06
-4.61425379228e-06
-4.61430299228e-06
-4.61434961054e-06
-4.6144097198e-06
-4.61436784377e-06
-4.6143223223e-06
-4.61427641128e-06
-4.61423577836e-06
-4.61420402528e-06
-4.61418368939e-06
-4.61417630255e-06
-4.61418257516e-06
-4.6142016886e-06
-4.61423200312e-06
-4.61427090141e-06
-4.61431475511e-06
-4.61435823605e-06
-4.61439852809e-06
-4.61445063783e-06
-4.61441318606e-06
-4.61437194776e-06
-4.61432993705e-06
-4.61429238112e-06
-4.6142628378e-06
-4.61424380473e-06
-4.61423683028e-06
-4.6142426287e-06
-4.61426040038e-06
-4.61428851178e-06
-4.61432437663e-06
-4.6143644361e-06
-4.61440371444e-06
-4.61443960016e-06
-4.61448767117e-06
-4.61445350965e-06
-4.61441568118e-06
-4.61437686237e-06
-4.61434188981e-06
-4.61431422498e-06
-4.61429632296e-06
-4.61428971165e-06
-4.61429510603e-06
-4.6143117201e-06
-4.61433794525e-06
-4.61437125187e-06
-4.61440818658e-06
-4.61444417445e-06
-4.61447677619e-06
-4.61452316887e-06
-4.61449142975e-06
-4.61445629613e-06
-4.61442012463e-06
-4.61438736601e-06
-4.61436134364e-06
-4.61434444428e-06
-4.61433816261e-06
-4.61434320659e-06
-4.61435881168e-06
-4.61438340859e-06
-4.61441454908e-06
-4.61444891103e-06
-4.61448231788e-06
-4.61451250978e-06
-4.61455741842e-06
-4.61452737871e-06
-4.61449424867e-06
-4.61446018238e-06
-4.61442923292e-06
-4.6144045919e-06
-4.61438855206e-06
-4.61438256611e-06
-4.61438731394e-06
-4.61440206497e-06
-4.61442530066e-06
-4.61445467467e-06
-4.61448701409e-06
-4.61451851039e-06
-4.61454707847e-06
-4.61459056383e-06
-4.61456145806e-06
-4.61452969586e-06
-4.61449720892e-06
-4.61446769984e-06
-4.61444420482e-06
-4.6144288997e-06
-4.61442317955e-06
-4.6144276867e-06
-4.61444173229e-06
-4.61446386723e-06
-4.61449186425e-06
-4.61452271411e-06
-4.61455292563e-06
-4.61458060279e-06
-4.61462279374e-06
-4.61459397881e-06
-4.61456300995e-06
-4.61453160548e-06
-4.61450318928e-06
-4.61448061263e-06
-4.61446593111e-06
-4.61446044753e-06
-4.61446476419e-06
-4.61447823767e-06
-4.6144995099e-06
-4.61452649286e-06
-4.61455635499e-06
-4.6145858663e-06
-4.61461328495e-06
-4.61465433595e-06
-4.61462519568e-06
-4.61459446668e-06
-4.61456369391e-06
-4.61453606573e-06
-4.61451424313e-06
-4.61450010102e-06
-4.61449484466e-06
-4.61449900877e-06
-4.61451201793e-06
-4.61453262274e-06
-4.61455890624e-06
-4.61458824032e-06
-4.61461758576e-06
-4.6146453439e-06
-4.61468547858e-06
-4.61465540124e-06
-4.61462433784e-06
-4.61459375254e-06
-4.61456667149e-06
-4.61454545532e-06
-4.61453181652e-06
-4.61452677397e-06
-4.61453082418e-06
-4.61454343534e-06
-4.61456352717e-06
-4.6145893837e-06
-4.61461863582e-06
-4.61464840024e-06
-4.61467711184e-06
-4.61471788055e-06
-4.61468568777e-06
-4.61465332587e-06
-4.61462231609e-06
-4.61459538545e-06
-4.61457462622e-06
-4.61456135356e-06
-4.614556542e-06
-4.61456048797e-06
-4.61457283972e-06
-4.61459262931e-06
-4.61461843881e-06
-4.61464824438e-06
-4.61467937229e-06
-4.61471021007e-06
-4.61475224481e-06
-4.61471602252e-06
-4.61468180522e-06
-4.61464988353e-06
-4.61462288415e-06
-4.61460229924e-06
-4.61458935053e-06
-4.61458466662e-06
-4.61458861168e-06
-4.61460080912e-06
-4.61462052437e-06
-4.61464657681e-06
-4.6146774116e-06
-4.6147104905e-06
-4.61474531769e-06
-4.61475472153e-06
-4.61472673969e-06
-4.61469644885e-06
-4.6146688693e-06
-4.61464583034e-06
-4.61462838189e-06
-4.61461738055e-06
-4.61461345427e-06
-4.61461678781e-06
-4.61462715644e-06
-4.61464391609e-06
-4.61466613569e-06
-4.6146927755e-06
-4.6147220473e-06
-4.6147487305e-06
-4.06511438545e-06
-4.06515583135e-06
-4.06519762773e-06
-4.06523790616e-06
-4.06527276316e-06
-4.06529959406e-06
-4.06531639391e-06
-4.06532217366e-06
-4.06531654754e-06
-4.06530007813e-06
-4.0652738858e-06
-4.06523975673e-06
-4.06520011574e-06
-4.06515896475e-06
-4.06511709589e-06
-4.06514810926e-06
-4.06518849633e-06
-4.06523032316e-06
-4.065270971e-06
-4.06530638329e-06
-4.06533373502e-06
-4.06535094721e-06
-4.06535693754e-06
-4.06535124515e-06
-4.06533448489e-06
-4.06530784783e-06
-4.0652732253e-06
-4.06523321339e-06
-4.06519190009e-06
-4.06515111619e-06
-4.06511606871e-06
-4.06515082507e-06
-4.06518782226e-06
-4.06522463964e-06
-4.06525705042e-06
-4.06528225572e-06
-4.06529822121e-06
-4.06530384032e-06
-4.06529861349e-06
-4.06528315661e-06
-4.06525866549e-06
-4.06522705067e-06
-4.06519092752e-06
-4.06515442e-06
-4.06511938265e-06
-4.0650772581e-06
-4.06510752607e-06
-4.06514038558e-06
-4.06517365841e-06
-4.06520324585e-06
-4.06522641268e-06
-4.06524118468e-06
-4.06524643464e-06
-4.06524164103e-06
-4.06522740851e-06
-4.06520493031e-06
-4.0651761155e-06
-4.06514355746e-06
-4.06511125201e-06
-4.06508084961e-06
-4.06504515008e-06
-4.06507232062e-06
-4.06510221956e-06
-4.06513278439e-06
-4.06516016459e-06
-4.06518171205e-06
-4.06519551742e-06
-4.06520045825e-06
-4.06519600138e-06
-4.06518274071e-06
-4.06516185986e-06
-4.06513524611e-06
-4.06510544159e-06
-4.06507620771e-06
-4.06504901899e-06
-4.0650163216e-06
-4.065041264e-06
-4.06506880502e-06
-4.06509708871e-06
-4.0651225536e-06
-4.06514266345e-06
-4.06515559649e-06
-4.06516024305e-06
-4.06515607477e-06
-4.06514366925e-06
-4.06512419075e-06
-4.06509947666e-06
-4.06507198801e-06
-4.06504520713e-06
-4.06502046526e-06
-4.06498863032e-06
-4.06501180652e-06
-4.0650374104e-06
-4.06506374589e-06
-4.06508750628e-06
-4.06510630155e-06
-4.06511841178e-06
-4.06512276527e-06
-4.06511885258e-06
-4.0651072311e-06
-4.0650890303e-06
-4.06506601497e-06
-4.06504053929e-06
-4.06501579401e-06
-4.06499299587e-06
-4.06496152137e-06
-4.06498333431e-06
-4.06500736954e-06
-4.06503200959e-06
-4.06505423237e-06
-4.06507181175e-06
-4.06508314115e-06
-4.06508720256e-06
-4.06508351662e-06
-4.06507261547e-06
-4.06505557981e-06
-4.06503408158e-06
-4.06501034763e-06
-4.06498728827e-06
-4.06496603123e-06
-4.06493462115e-06
-4.06495535564e-06
-4.06497812263e-06
-4.06500130849e-06
-4.06502215943e-06
-4.06503861663e-06
-4.06504919906e-06
-4.0650529676e-06
-4.06504948055e-06
-4.06503924194e-06
-4.06502326821e-06
-4.06500312034e-06
-4.06498088317e-06
-4.06495920913e-06
-4.06493918288e-06
-4.06490749505e-06
-4.0649274381e-06
-4.06494918372e-06
-4.06497112705e-06
-4.06499074397e-06
-4.0650061507e-06
-4.06501601734e-06
-4.06501948694e-06
-4.06501617601e-06
-4.06500654624e-06
-4.06499153897e-06
-4.06497258652e-06
-4.06495161597e-06
-4.06493106292e-06
-4.06491201548e-06
-4.06487988191e-06
-4.06489922595e-06
-4.06492017714e-06
-4.06494108599e-06
-4.06495958992e-06
-4.06497401422e-06
-4.06498317738e-06
-4.06498634533e-06
-4.06498318345e-06
-4.06497411963e-06
-4.06495999418e-06
-4.06494209368e-06
-4.06492216889e-06
-4.0649024817e-06
-4.06488419641e-06
-4.06485144709e-06
-4.06487046501e-06
-4.0648909184e-06
-4.06491100374e-06
-4.06492852332e-06
-4.06494200015e-06
-4.06495047788e-06
-4.0649533231e-06
-4.06495029768e-06
-4.06494175425e-06
-4.06492843454e-06
-4.06491144383e-06
-4.06489231822e-06
-4.06487318484e-06
-4.06485536141e-06
-4.06482106806e-06
-4.0648404484e-06
-4.06486098048e-06
-4.06488065098e-06
-4.0648973849e-06
-4.06491006936e-06
-4.06491789614e-06
-4.06492044467e-06
-4.06491749673e-06
-4.06490939006e-06
-4.0648967146e-06
-4.06488037159e-06
-4.06486162266e-06
-4.06484241854e-06
-4.06482433885e-06
-4.06478812908e-06
-4.06480912769e-06
-4.06483016797e-06
-4.0648497279e-06
-4.0648659714e-06
-4.06487800608e-06
-4.06488533606e-06
-4.06488758631e-06
-4.06488468138e-06
-4.06487686078e-06
-4.06486461388e-06
-4.0648486457e-06
-4.06482988103e-06
-4.06481014187e-06
-4.06479050607e-06
-4.06477670307e-06
-4.06479132299e-06
-4.06480864313e-06
-4.06482433466e-06
-4.0648370888e-06
-4.06484647672e-06
-4.06485207641e-06
-4.06485366959e-06
-4.06485119928e-06
-4.06484487556e-06
-4.06483510532e-06
-4.06482242336e-06
-4.06480740708e-06
-4.06479122126e-06
-4.0647779137e-06
-4.06210324007e-06
-4.06207025725e-06
-4.06203822004e-06
-4.06200816776e-06
-4.0619827785e-06
-4.06196362382e-06
-4.06195183941e-06
-4.06194812902e-06
-4.06195280384e-06
-4.06196546552e-06
-4.06198529611e-06
-4.06201097569e-06
-4.06204072092e-06
-4.06207155275e-06
-4.06210293728e-06
-4.06207871442e-06
-4.06204653077e-06
-4.06201443329e-06
-4.06198405809e-06
-4.06195825873e-06
-4.06193874202e-06
-4.06192670343e-06
-4.06192288712e-06
-4.06192763721e-06
-4.06194051974e-06
-4.06196066829e-06
-4.06198669175e-06
-4.06201668385e-06
-4.06204760671e-06
-4.06207816515e-06
-4.06210273101e-06
-4.06207481219e-06
-4.06204644491e-06
-4.06201901989e-06
-4.06199548594e-06
-4.06197753751e-06
-4.06196640546e-06
-4.06196285078e-06
-4.06196724238e-06
-4.06197913879e-06
-4.06199767109e-06
-4.06202143508e-06
-4.06204851344e-06
-4.0620758413e-06
-4.06210211577e-06
-4.0621316975e-06
-4.06210733446e-06
-4.06208218935e-06
-4.06205744676e-06
-4.0620359746e-06
-4.06201947297e-06
-4.06200918728e-06
-4.06200588192e-06
-4.06200993242e-06
-4.06202090032e-06
-4.06203791665e-06
-4.06205958e-06
-4.06208399077e-06
-4.06210817884e-06
-4.06213100568e-06
-4.06215563457e-06
-4.06213375266e-06
-4.06211097082e-06
-4.06208831904e-06
-4.06206846655e-06
-4.06205310679e-06
-4.06204347931e-06
-4.06204036065e-06
-4.06204412619e-06
-4.06205434416e-06
-4.06207014913e-06
-4.06209015614e-06
-4.06211250493e-06
-4.06213439795e-06
-4.06215484275e-06
-4.06217712546e-06
-4.06215715008e-06
-4.06213628986e-06
-4.06211535415e-06
-4.0620968667e-06
-4.06208248812e-06
-4.06207344078e-06
-4.06207048815e-06
-4.06207399968e-06
-4.06208354922e-06
-4.06209828566e-06
-4.06211685979e-06
-4.06213747303e-06
-4.06215753523e-06
-4.06217616959e-06
-4.06219774213e-06
-4.06217930128e-06
-4.06216004848e-06
-4.06214062598e-06
-4.06212337675e-06
-4.06210990226e-06
-4.06210139103e-06
-4.06209858805e-06
-4.06210185424e-06
-4.06211077584e-06
-4.0621245256e-06
-4.06214180891e-06
-4.0621609065e-06
-4.06217944566e-06
-4.06219664535e-06
-4.06221792711e-06
-4.06220078632e-06
-4.06218287185e-06
-4.06216476105e-06
-4.06214861079e-06
-4.06213596022e-06
-4.06212794708e-06
-4.06212528586e-06
-4.06212831865e-06
-4.06213664979e-06
-4.06214948744e-06
-4.06216560612e-06
-4.06218338214e-06
-4.06220065455e-06
-4.06221670972e-06
-4.06223802334e-06
-4.06222191338e-06
-4.06220511962e-06
-4.06218816022e-06
-4.06217301223e-06
-4.06216113409e-06
-4.06215359138e-06
-4.06215106522e-06
-4.06215387228e-06
-4.06216164265e-06
-4.06217363249e-06
-4.06218869846e-06
-4.06220532441e-06
-4.06222154557e-06
-4.06223668362e-06
-4.06225832726e-06
-4.06224308629e-06
-4.06222722695e-06
-4.06221126187e-06
-4.06219701905e-06
-4.06218585091e-06
-4.06217875749e-06
-4.06217635847e-06
-4.06217894835e-06
-4.06218618524e-06
-4.0621973857e-06
-4.06221150255e-06
-4.06222713816e-06
-4.06224249683e-06
-4.06225689103e-06
-4.06227913714e-06
-4.06226457667e-06
-4.06224945418e-06
-4.06223433967e-06
-4.06222090905e-06
-4.06221042022e-06
-4.06220375659e-06
-4.06220148721e-06
-4.06220386433e-06
-4.06221059047e-06
-4.06222105171e-06
-4.06223431431e-06
-4.06224911291e-06
-4.06226378933e-06
-4.06227759854e-06
-4.0623006867e-06
-4.06228658854e-06
-4.06227198374e-06
-4.06225754131e-06
-4.06224485524e-06
-4.062234984e-06
-4.06222875193e-06
-4.06222660064e-06
-4.06222877765e-06
-4.06223500594e-06
-4.06224477477e-06
-4.06225727938e-06
-4.06227141464e-06
-4.06228563352e-06
-4.06229906537e-06
-4.06232388146e-06
-4.06230970533e-06
-4.06229514052e-06
-4.06228108893e-06
-4.06226891017e-06
-4.06225960684e-06
-4.06225370652e-06
-4.06225169034e-06
-4.06225366204e-06
-4.06225946276e-06
-4.0622686496e-06
-4.06228058626e-06
-4.0622943699e-06
-4.06230858814e-06
-4.06232216873e-06
-4.06234924258e-06
-4.06233400043e-06
-4.06231913809e-06
-4.06230511031e-06
-4.06229331767e-06
-4.06228432549e-06
-4.06227873033e-06
-4.06227675914e-06
-4.06227859817e-06
-4.06228406365e-06
-4.0622928383e-06
-4.06230442255e-06
-4.06231816287e-06
-4.06233274452e-06
-4.0623474074e-06
-4.06235909345e-06
-4.06234858481e-06
-4.06233634851e-06
-4.06232515033e-06
-4.06231577628e-06
-4.06230868043e-06
-4.06230420049e-06
-4.06230262046e-06
-4.06230401279e-06
-4.06230827835e-06
-4.0623151555e-06
-4.06232426487e-06
-4.06233521688e-06
-4.06234718045e-06
-4.06235723259e-06
-3.65467834845e-06
-3.65469947702e-06
-3.65472181437e-06
-3.65474402063e-06
-3.65476343399e-06
-3.65477853267e-06
-3.65478838724e-06
-3.65479242845e-06
-3.6547903963e-06
-3.65478255813e-06
-3.65476948675e-06
-3.65475212004e-06
-3.65473172334e-06
-3.65471041152e-06
-3.65468856131e-06
-3.65469663534e-06
-3.65471728156e-06
-3.65473967104e-06
-3.65476203688e-06
-3.65478169582e-06
-3.65479704584e-06
-3.65480708882e-06
-3.65481121141e-06
-3.65480912138e-06
-3.65480111133e-06
-3.65478779251e-06
-3.65477015496e-06
-3.65474955547e-06
-3.65472815175e-06
-3.65470687537e-06
-3.65467922458e-06
-3.65469688752e-06
-3.65471662755e-06
-3.65473684232e-06
-3.65475484594e-06
-3.65476904607e-06
-3.65477841098e-06
-3.6547823182e-06
-3.65478046428e-06
-3.6547731493e-06
-3.65476098673e-06
-3.65474497567e-06
-3.65472648048e-06
-3.65470767887e-06
-3.65468951031e-06
-3.65465823677e-06
-3.65467349572e-06
-3.65469096074e-06
-3.65470918634e-06
-3.65472563271e-06
-3.65473873036e-06
-3.65474743442e-06
-3.65475111969e-06
-3.65474947911e-06
-3.65474281138e-06
-3.65473172888e-06
-3.65471722776e-06
-3.65470065916e-06
-3.65468413208e-06
-3.65466846731e-06
-3.65464094315e-06
-3.65465457529e-06
-3.65467041373e-06
-3.65468709375e-06
-3.65470229721e-06
-3.65471449527e-06
-3.65472265434e-06
-3.65472614607e-06
-3.65472466518e-06
-3.65471850509e-06
-3.65470827436e-06
-3.65469495552e-06
-3.6546798705e-06
-3.65466500616e-06
-3.65465108194e-06
-3.65462549694e-06
-3.65463797737e-06
-3.6546525043e-06
-3.65466788947e-06
-3.65468200681e-06
-3.65469339433e-06
-3.65470104575e-06
-3.65470434498e-06
-3.65470299111e-06
-3.654697271e-06
-3.65468778173e-06
-3.65467547778e-06
-3.65466163591e-06
-3.65464809594e-06
-3.65463550198e-06
-3.65461072663e-06
-3.65462230072e-06
-3.65463575267e-06
-3.65465001628e-06
-3.65466314714e-06
-3.65467377539e-06
-3.65468093901e-06
-3.65468404368e-06
-3.65468279683e-06
-3.65467747607e-06
-3.65466865858e-06
-3.65465725812e-06
-3.65464449411e-06
-3.65463205499e-06
-3.65462051906e-06
-3.6545963152e-06
-3.65460717789e-06
-3.65461974663e-06
-3.65463302978e-06
-3.65464526892e-06
-3.65465518744e-06
-3.65466188191e-06
-3.65466478831e-06
-3.65466363026e-06
-3.65465867206e-06
-3.65465046336e-06
-3.65463986702e-06
-3.65462803433e-06
-3.65461650701e-06
-3.65460582231e-06
-3.65458202855e-06
-3.65459233308e-06
-3.6546041794e-06
-3.65461661141e-06
-3.65462804078e-06
-3.65463729124e-06
-3.6546435327e-06
-3.65464623785e-06
-3.65464515356e-06
-3.65464052531e-06
-3.65463286834e-06
-3.65462298491e-06
-3.65461195122e-06
-3.65460117688e-06
-3.65459117757e-06
-3.65456762426e-06
-3.6545775025e-06
-3.65458875016e-06
-3.65460044645e-06
-3.65461114149e-06
-3.65461976923e-06
-3.6546255722e-06
-3.65462807649e-06
-3.65462705172e-06
-3.65462272435e-06
-3.65461556656e-06
-3.65460631141e-06
-3.65459595313e-06
-3.65458578969e-06
-3.65457635178e-06
-3.65455292166e-06
-3.6545624742e-06
-3.65457325529e-06
-3.65458432919e-06
-3.65459436269e-06
-3.6546023981e-06
-3.65460777569e-06
-3.65461007403e-06
-3.65460909691e-06
-3.65460504489e-06
-3.65459833837e-06
-3.65458963152e-06
-3.65457982778e-06
-3.65457013733e-06
-3.65456114199e-06
-3.65453771464e-06
-3.65454709845e-06
-3.65455757633e-06
-3.65456815422e-06
-3.65457759084e-06
-3.65458507496e-06
-3.65459002876e-06
-3.65459212108e-06
-3.65459117706e-06
-3.65458737719e-06
-3.65458107815e-06
-3.6545728386e-06
-3.65456345257e-06
-3.65455406249e-06
-3.65454535008e-06
-3.65452135083e-06
-3.6545309649e-06
-3.65454147746e-06
-3.65455178362e-06
-3.65456077329e-06
-3.65456776059e-06
-3.65457234786e-06
-3.65457422527e-06
-3.65457330097e-06
-3.65456969852e-06
-3.65456371498e-06
-3.65455579615e-06
-3.65454659342e-06
-3.6545371575e-06
-3.65452832194e-06
-3.65450349287e-06
-3.6545140226e-06
-3.65452482676e-06
-3.65453508159e-06
-3.65454375456e-06
-3.65455039973e-06