/*--------------------------------*- C++ -*----------------------------------*\
  =========                 |
  \\      /  F ield         | OpenFOAM: The Open Source CFD Toolbox
   \\    /   O peration     | Website:  https://openfoam.org
    \\  /    A nd           | Version:  7
     \\/     M anipulation  |
\*---------------------------------------------------------------------------*/
FoamFile
{
    version     2.0;
    format      ascii;
    class       volScalarField;
    location    "0.46";
    object      p;
}
// * * * * * * * * * * * * * * * * * * * * * * * * * * * * * * * * * * * * * //

dimensions      [0 2 -2 0 0 0 0];

internalField   nonuniform List<scalar> 
22500
(
1.13852224588e-05
1.13839735453e-05
1.1382043525e-05
1.13804411186e-05
1.13790991976e-05
1.13781479076e-05
1.13775901848e-05
1.13774277945e-05
1.13776524746e-05
1.13782734645e-05
1.13792909223e-05
1.13807025024e-05
1.13823817511e-05
1.13843833783e-05
1.13857550276e-05
1.13819063229e-05
1.13806365065e-05
1.13785328279e-05
1.13767109622e-05
1.13751391128e-05
1.13739905638e-05
1.13733020254e-05
1.13730956805e-05
1.13733722786e-05
1.13741317041e-05
1.13753531896e-05
1.13770005144e-05
1.13789039197e-05
1.13810823366e-05
1.1382475437e-05
1.13798483952e-05
1.13786437873e-05
1.13764943934e-05
1.13745726509e-05
1.13728697697e-05
1.13716013301e-05
1.1370830388e-05
1.13705964685e-05
1.13709074612e-05
1.13717560314e-05
1.1373103696e-05
1.13748876789e-05
1.13768959315e-05
1.13791226478e-05
1.13804527289e-05
1.13793853825e-05
1.13783077025e-05
1.13762341309e-05
1.13743128411e-05
1.13725671009e-05
1.13712448922e-05
1.13704327551e-05
1.13701851635e-05
1.13705159996e-05
1.13714119891e-05
1.13728193571e-05
1.13746516491e-05
1.13766640592e-05
1.13788182368e-05
1.13800230275e-05
1.13802220715e-05
1.13793372793e-05
1.13774465782e-05
1.13756077017e-05
1.13738888864e-05
1.13725630426e-05
1.13717401291e-05
1.13714889345e-05
1.13718292212e-05
1.13727420033e-05
1.13741588308e-05
1.13759694369e-05
1.13779037305e-05
1.13798793945e-05
1.13808924478e-05
1.13822306955e-05
1.13816250902e-05
1.13800234934e-05
1.13783575281e-05
1.13767480164e-05
1.13754822352e-05
1.1374688968e-05
1.13744479842e-05
1.13747838134e-05
1.13756729879e-05
1.13770358144e-05
1.13787427954e-05
1.13805087171e-05
1.13822002663e-05
1.13829338651e-05
1.13853840983e-05
1.13851735398e-05
1.13839748136e-05
1.13825867834e-05
1.13811838056e-05
1.1380055234e-05
1.1379341282e-05
1.13791277543e-05
1.13794423494e-05
1.13802586834e-05
1.13814905666e-05
1.13829968116e-05
1.13844892435e-05
1.13857833857e-05
1.13861205432e-05
1.13896854687e-05
1.13900166065e-05
1.13893452488e-05
1.13883568826e-05
1.13872740228e-05
1.13863741199e-05
1.13857987407e-05
1.13856334362e-05
1.13859067125e-05
1.13865913542e-05
1.13876009908e-05
1.13887929269e-05
1.13898901101e-05
1.13906626904e-05
1.13904556211e-05
1.13951551941e-05
1.1396198501e-05
1.13961891191e-05
1.13957365136e-05
1.13951017028e-05
1.13945343967e-05
1.13941651358e-05
1.1394071687e-05
1.1394280415e-05
1.13947659373e-05
1.13954495004e-05
1.13961992996e-05
1.13967653386e-05
1.1396882067e-05
1.13959609015e-05
1.14018129634e-05
1.14037447317e-05
1.14045359064e-05
1.14047630138e-05
1.14047131404e-05
1.14045902839e-05
1.14044997244e-05
1.14045033981e-05
1.14046224812e-05
1.14048363876e-05
1.14050821516e-05
1.14052530443e-05
1.14051442901e-05
1.14044668938e-05
1.14026561202e-05
1.1409647912e-05
1.14126272753e-05
1.14143497392e-05
1.1415398829e-05
1.14160718972e-05
1.14165064058e-05
1.14167675974e-05
1.14168935426e-05
1.14168977843e-05
1.14167670536e-05
1.14164621181e-05
1.14159162787e-05
1.14149908395e-05
1.14133887869e-05
1.14105318465e-05
1.14186382015e-05
1.1422748408e-05
1.14254939324e-05
1.14274924529e-05
1.14290176735e-05
1.14301149205e-05
1.14307949859e-05
1.14310662377e-05
1.1430932441e-05
1.14303898437e-05
1.14294287662e-05
1.14280369073e-05
1.14261675135e-05
1.14235489343e-05
1.14195649025e-05
1.14287694589e-05
1.1433857773e-05
1.14376588657e-05
1.14407282717e-05
1.14432252386e-05
1.14450756186e-05
1.14462294613e-05
1.14466640447e-05
1.14463736376e-05
1.14453636904e-05
1.14436556282e-05
1.14412978757e-05
1.14383631147e-05
1.14346947691e-05
1.14297365459e-05
1.14391386102e-05
1.1445075192e-05
1.14501935808e-05
1.1454570558e-05
1.14582031326e-05
1.14609059775e-05
1.14625864915e-05
1.14632008731e-05
1.14627362533e-05
1.14612050842e-05
1.14586496672e-05
1.14551617281e-05
1.14509249618e-05
1.14459465291e-05
1.1440138183e-05
1.14455890068e-05
1.14552593913e-05
1.1462411993e-05
1.14685534486e-05
1.14735628294e-05
1.14772499709e-05
1.14795246381e-05
1.14803391716e-05
1.14796795392e-05
1.14775590241e-05
1.14740241482e-05
1.14691646474e-05
1.14631707107e-05
1.1456167813e-05
1.14466137306e-05
8.38995545655e-06
8.39056475928e-06
8.39140651267e-06
8.3922282894e-06
8.39297221625e-06
8.39354800843e-06
8.39390708605e-06
8.39401862967e-06
8.39387175754e-06
8.39347692871e-06
8.39286505975e-06
8.39208437033e-06
8.39122564701e-06
8.39035014297e-06
8.38970195293e-06
8.39197408898e-06
8.39257781954e-06
8.3934254916e-06
8.39425228967e-06
8.39500497374e-06
8.39558988473e-06
8.39595553443e-06
8.39606896075e-06
8.39591850004e-06
8.39551600109e-06
8.39489489316e-06
8.39410657198e-06
8.39324416669e-06
8.39236280345e-06
8.39171963012e-06
8.393109446e-06
8.3936054858e-06
8.39436894457e-06
8.39510957265e-06
8.39578937771e-06
8.39631801046e-06
8.39664829298e-06
8.39674912427e-06
8.39660940084e-06
8.3962404048e-06
8.39567358844e-06
8.39495640375e-06
8.39417914103e-06
8.39338193968e-06
8.39284774738e-06
8.39318545852e-06
8.39350242158e-06
8.394123246e-06
8.39472359358e-06
8.39528399438e-06
8.39572095183e-06
8.39599357513e-06
8.39607446018e-06
8.39595371204e-06
8.39564129423e-06
8.39516484173e-06
8.39456559154e-06
8.3939275879e-06
8.3932723893e-06
8.39291705405e-06
8.3925593538e-06
8.39267705325e-06
8.3931378702e-06
8.39358646284e-06
8.39402075134e-06
8.39436312423e-06
8.39457717763e-06
8.39463827081e-06
8.39453752798e-06
8.39428375806e-06
8.39390169823e-06
8.39342801899e-06
8.39294088231e-06
8.39244463954e-06
8.39228663428e-06
8.39152838011e-06
8.39148012399e-06
8.39180587488e-06
8.39212963755e-06
8.3924599981e-06
8.39272458346e-06
8.39289057218e-06
8.39293590492e-06
8.39285244684e-06
8.3926479716e-06
8.39234439305e-06
8.39197471828e-06
8.39161153116e-06
8.39124879179e-06
8.39125420343e-06
8.39035558917e-06
8.3902199379e-06
8.39046914814e-06
8.39072576414e-06
8.39099924612e-06
8.39122135888e-06
8.39136120352e-06
8.39139852327e-06
8.3913255287e-06
8.39114917879e-06
8.39088931082e-06
8.39057679202e-06
8.39027991603e-06
8.38999147788e-06
8.39008209047e-06
8.38928008165e-06
8.38916265341e-06
8.38941239013e-06
8.3896742182e-06
8.38994964948e-06
8.39017306045e-06
8.39031388064e-06
8.39035259403e-06
8.39028138306e-06
8.39010664434e-06
8.38984726528e-06
8.38953343946e-06
8.38923057511e-06
8.38893931247e-06
8.38900911745e-06
8.38849063178e-06
8.38850577853e-06
8.38883572515e-06
8.38917474315e-06
8.38951002212e-06
8.38977726455e-06
8.38994518524e-06
8.38999428324e-06
8.38991643772e-06
8.38971774538e-06
8.38941684161e-06
8.38904421761e-06
8.38866349264e-06
8.38828952174e-06
8.38822446371e-06
8.38811339511e-06
8.38836734696e-06
8.38884880266e-06
8.38932671978e-06
8.38977079994e-06
8.39011753056e-06
8.39033434825e-06
8.39040138773e-06
8.39031000541e-06
8.39006626379e-06
8.38968879511e-06
8.38920882366e-06
8.38868874219e-06
8.38816052386e-06
8.38785465988e-06
8.38821712213e-06
8.38879697175e-06
8.38948724707e-06
8.39015074681e-06
8.39074033375e-06
8.39119292434e-06
8.39147483561e-06
8.39156537808e-06
8.39145552216e-06
8.39115124438e-06
8.39067148725e-06
8.39004806832e-06
8.38934226475e-06
8.38860249864e-06
8.38796940245e-06
8.3888204532e-06
8.38978919041e-06
8.39073086056e-06
8.39161121852e-06
8.3923700617e-06
8.39294549583e-06
8.39330266953e-06
8.39342046639e-06
8.39328893826e-06
8.39291465826e-06
8.39231646339e-06
8.39152673253e-06
8.39060472741e-06
8.38961143427e-06
8.38858817285e-06
8.38988665252e-06
8.39129850493e-06
8.39252326999e-06
8.39363645597e-06
8.39457472837e-06
8.39527961626e-06
8.39571691814e-06
8.39586315621e-06
8.39570943105e-06
8.39526096413e-06
8.39453872076e-06
8.39357368881e-06
8.39242087218e-06
8.39114383758e-06
8.38967803759e-06
8.39140773985e-06
8.3933043188e-06
8.39480453994e-06
8.39613970377e-06
8.3972460344e-06
8.39807359533e-06
8.39858625057e-06
8.39876079906e-06
8.39858532011e-06
8.39806810956e-06
8.39722974398e-06
8.39610225781e-06
8.39473083242e-06
8.39317997992e-06
8.39123403139e-06
8.39380736928e-06
8.39574419628e-06
8.39746104864e-06
8.39897522322e-06
8.40021412995e-06
8.40114020834e-06
8.40171591837e-06
8.40191316429e-06
8.40172104542e-06
8.40114689021e-06
8.40021634152e-06
8.39896249145e-06
8.39741816868e-06
8.39565387988e-06
8.3936756473e-06
9.86941994593e-06
9.86911957891e-06
9.86882810308e-06
9.86856432142e-06
9.86834290178e-06
9.86817968661e-06
9.86808297608e-06
9.86805768165e-06
9.86810627018e-06
9.86822619227e-06
9.86841217756e-06
9.86865551638e-06
9.86894199681e-06
9.86924856703e-06
9.86955913333e-06
9.86903865524e-06
9.86874394082e-06
9.86845036034e-06
9.86818267388e-06
9.8679575762e-06
9.86779137608e-06
9.86769291227e-06
9.86766724513e-06
9.86771709692e-06
9.86783952304e-06
9.86802886706e-06
9.86827595995e-06
9.86856548476e-06
9.86887427514e-06
9.86917935232e-06
9.86907854272e-06
9.86882004084e-06
9.86855482328e-06
9.86830890416e-06
9.86810055224e-06
9.86794603892e-06
9.86785445218e-06
9.86783107785e-06
9.8678788031e-06
9.86799450629e-06
9.86817232279e-06
9.86840277161e-06
9.86866988226e-06
9.86895056454e-06
9.86921974788e-06
9.86921592862e-06
9.86899034829e-06
9.86875146826e-06
9.86852671634e-06
9.86833399921e-06
9.86818997208e-06
9.86810425669e-06
9.86808268897e-06
9.86812835974e-06
9.86823795705e-06
9.86840517545e-06
9.86861990206e-06
9.86886539705e-06
9.86911982537e-06
9.86935721851e-06
9.86935279487e-06
9.86915349789e-06
9.86893536233e-06
9.8687277987e-06
9.86854743883e-06
9.86841148832e-06
9.86833018707e-06
9.86830982282e-06
9.86835360613e-06
9.86845809048e-06
9.86861659891e-06
9.86881851397e-06
9.86904653144e-06
9.86928060241e-06
9.86949354147e-06
9.8694992611e-06
9.86932093621e-06
9.86912029431e-06
9.868927187e-06
9.86875727977e-06
9.86862815753e-06
9.8685504896e-06
9.86853097394e-06
9.86857291088e-06
9.86867280153e-06
9.86882370358e-06
9.86901466425e-06
9.86922805464e-06
9.8694455727e-06
9.8696388727e-06
9.86965936783e-06
9.86949751379e-06
9.86931092984e-06
9.86912917224e-06
9.86896744205e-06
9.86884354336e-06
9.86876856282e-06
9.86874950247e-06
9.86878974347e-06
9.86888576921e-06
9.8690304842e-06
9.86921269153e-06
9.86941461484e-06
9.86961929415e-06
9.86979791615e-06
9.86982685421e-06
9.86967567543e-06
9.86949871038e-06
9.86932453099e-06
9.86916813268e-06
9.86904744742e-06
9.86897391842e-06
9.86895483447e-06
9.86899362535e-06
9.869086843e-06
9.86922729408e-06
9.86940362246e-06
9.86959804668e-06
9.86979434182e-06
9.86996424054e-06
9.86999412594e-06
9.8698469573e-06
9.86967478342e-06
9.86950385515e-06
9.86934944368e-06
9.86922962484e-06
9.86915615984e-06
9.86913651013e-06
9.86917413674e-06
9.86926572252e-06
9.86940405877e-06
9.8695777389e-06
9.86976910003e-06
9.86996198816e-06
9.87013012831e-06
9.87015473463e-06
9.87000404833e-06
9.86983169914e-06
9.86965964758e-06
9.86950404817e-06
9.86938297477e-06
9.86930829718e-06
9.86928759916e-06
9.86932429062e-06
9.86941527174e-06
9.86955343401e-06
9.86972751163e-06
9.86992017553e-06
9.87011477773e-06
9.87028842675e-06
9.87030275796e-06
9.87014142077e-06
9.86996418112e-06
9.86978718469e-06
9.86962786414e-06
9.86950391464e-06
9.86942718445e-06
9.86940505665e-06
9.86944092498e-06
9.86953186322e-06
9.86967116259e-06
9.86984796192e-06
9.87004562108e-06
9.87024666963e-06
9.87043299979e-06
9.87043561229e-06
9.87025631539e-06
9.87006939078e-06
9.86988440764e-06
9.86971976636e-06
9.86959235342e-06
9.86951327109e-06
9.86948965391e-06
9.86952452694e-06
9.86961544945e-06
9.86975617916e-06
9.86993687453e-06
9.87014226109e-06
9.8703541735e-06
9.8705600958e-06
9.87056026486e-06
9.87035204646e-06
9.87014902037e-06
9.86995310251e-06
9.86978225552e-06
9.8696511669e-06
9.86956993968e-06
9.86954478905e-06
9.8695785406e-06
9.86966899688e-06
9.86981092931e-06
9.86999597422e-06
9.87021139535e-06
9.87043988102e-06
9.87067567606e-06
9.87067798882e-06
9.87042629748e-06
9.87020496793e-06
9.86999759612e-06
9.86982122739e-06
9.86968733434e-06
9.86960440379e-06
9.86957803641e-06
9.86961042534e-06
9.86969985589e-06
9.86984196065e-06
9.87003005505e-06
9.87025519697e-06
9.87050108858e-06
9.87077938076e-06
9.87059540853e-06
9.87039900528e-06
9.87018734516e-06
9.86999419057e-06
9.86983278975e-06
9.86971046044e-06
9.86963465865e-06
9.86961014651e-06
9.86963865424e-06
9.86971885132e-06
9.86984693365e-06
9.87001756031e-06
9.87022574447e-06
9.87045908722e-06
9.87067846325e-06
7.66735124447e-06
7.66756338888e-06
7.66776595366e-06
7.66795516465e-06
7.66811346197e-06
7.66823062667e-06
7.66830066924e-06
7.66832024568e-06
7.66828761907e-06
7.66820474403e-06
7.66807571682e-06
7.66790717904e-06
7.66770851515e-06
7.66749758834e-06
7.66727325683e-06
7.66751849938e-06
7.66772473994e-06
7.6679275716e-06
7.66811923389e-06
7.66828019685e-06
7.6683996307e-06
7.66847110089e-06
7.66849105673e-06
7.66845762806e-06
7.66837312933e-06
7.66824197745e-06
7.66807134521e-06
7.66787144395e-06
7.66766067163e-06
7.66744334084e-06
7.66736423181e-06
7.66754225852e-06
7.66771980096e-06
7.66789167886e-06
7.66803708124e-06
7.66814566035e-06
7.66821071424e-06
7.66822857729e-06
7.6681971992e-06
7.66811900896e-06
7.66799845318e-06
7.66784283825e-06
7.66766250098e-06
7.66747627055e-06
7.66728856108e-06
7.66717983189e-06
7.6673357136e-06
7.66749237375e-06
7.66764691952e-06
7.66777898192e-06
7.66787832232e-06
7.6679379632e-06
7.66795412057e-06
7.66792463342e-06
7.66785198237e-06
7.66774066126e-06
7.66759809406e-06
7.66743462231e-06
7.66726877496e-06
7.66710367587e-06
7.66703324621e-06
7.66717541916e-06
7.66731830642e-06
7.66746075045e-06
7.66758371756e-06
7.66767682211e-06
7.6677330136e-06
7.66774817355e-06
7.66772010846e-06
7.66765126963e-06
7.66754628108e-06
7.66741264009e-06
7.66726069556e-06
7.66710821934e-06
7.66695680801e-06
7.66690753434e-06
7.66704173387e-06
7.6671748021e-06
7.6673088564e-06
7.6674255643e-06
7.66751454904e-06
7.66756852701e-06
7.66758319753e-06
7.6675562555e-06
7.66749019061e-06
7.66738968975e-06
7.66726231863e-06
7.66711839621e-06
7.66697482738e-06
7.66683162454e-06
7.66679383948e-06
7.66692424428e-06
7.66705096834e-06
7.66717947499e-06
7.66729202545e-06
7.66737837388e-06
7.66743104922e-06
7.66744557891e-06
7.66741954056e-06
7.66735541573e-06
7.66725793318e-06
7.66713467585e-06
7.66699591309e-06
7.66685768975e-06
7.66671831947e-06
7.66669069758e-06
7.66682045387e-06
7.66694421014e-06
7.66706969031e-06
7.66718020277e-06
7.66726538829e-06
7.66731768683e-06
7.66733240466e-06
7.66730710087e-06
7.66724415976e-06
7.66714834838e-06
7.66702721311e-06
7.66689096636e-06
7.66675485023e-06
7.66661554486e-06
7.66659670364e-06
7.66672930891e-06
7.66685298285e-06
7.66697779802e-06
7.66708806025e-06
7.66717330487e-06
7.66722595403e-06
7.66724113966e-06
7.66721641356e-06
7.66715403455e-06
7.66705873459e-06
7.66693797816e-06
7.66680189238e-06
7.66666499363e-06
7.66652233738e-06
7.66651058152e-06
7.66664877505e-06
7.66677479542e-06
7.66690101127e-06
7.66701252683e-06
7.6670989219e-06
7.66715251395e-06
7.66716844019e-06
7.66714420402e-06
7.66708194667e-06
7.66698626314e-06
7.66686446632e-06
7.66672654548e-06
7.66658633105e-06
7.66643760044e-06
7.66643070871e-06
7.66657699563e-06
7.66670760592e-06
7.66683691874e-06
7.66695088776e-06
7.66703906481e-06
7.66709399826e-06
7.66711078283e-06
7.66708705847e-06
7.66702469081e-06
7.66692810945e-06
7.66680430767e-06
7.66666299681e-06
7.66651743155e-06
7.66636018316e-06
7.66635562757e-06
7.6665120201e-06
7.66664932964e-06
7.66678322176e-06
7.66690031138e-06
7.6669907389e-06
7.66704702011e-06
7.66706481623e-06
7.66704159756e-06
7.66697926849e-06
7.66688162623e-06
7.66675530437e-06
7.66660943698e-06
7.66645661468e-06
7.66628888087e-06
7.66627811956e-06
7.66644852989e-06
7.66659599812e-06
7.66673646858e-06
7.66685787464e-06
7.66695057594e-06
7.66700867678e-06
7.66702722253e-06
7.66700490645e-06
7.66694243197e-06
7.66684371359e-06
7.66671422355e-06
7.66656213276e-06
7.66639922433e-06
7.66621746726e-06
7.66619238908e-06
7.66638391085e-06
7.66654421493e-06
7.66669318897e-06
7.66681919575e-06
7.66691505773e-06
7.66697441843e-06
7.66699434314e-06
7.66697244428e-06
7.66691019366e-06
7.66681018335e-06
7.66667722744e-06
7.66651762464e-06
7.6663425893e-06
7.66614097984e-06
7.66621804405e-06
7.66638929456e-06
7.66654259013e-06
7.6666812699e-06
7.66679669922e-06
7.66688374959e-06
7.66693817515e-06
7.66695647856e-06
7.66693757005e-06
7.66688183009e-06
7.66679181959e-06
7.6666710053e-06
7.66652316813e-06
7.66635668022e-06
7.66617649961e-06
8.30965974419e-06
8.30949929703e-06
8.3093536658e-06
8.30922408186e-06
8.30911507443e-06
8.3090336456e-06
8.30898615797e-06
8.30897469949e-06
8.30900027283e-06
8.30906140516e-06
8.30915545119e-06
8.30927787863e-06
8.30942276245e-06
8.30957711932e-06
8.3097444013e-06
8.30955027692e-06
8.30939504777e-06
8.30924989801e-06
8.30911847116e-06
8.30900744573e-06
8.30892447024e-06
8.30887595964e-06
8.30886423442e-06
8.30889049687e-06
8.30895301204e-06
8.30904886137e-06
8.30917316117e-06
8.30931928632e-06
8.30947377237e-06
8.30963590785e-06
8.30969292223e-06
8.30955981926e-06
8.30943342463e-06
8.30931562851e-06
8.30921561975e-06
8.30914068641e-06
8.30909690145e-06
8.30908668192e-06
8.30911137059e-06
8.30916919147e-06
8.3092571871e-06
8.30937036681e-06
8.30950198011e-06
8.30963802116e-06
8.30977778154e-06
8.30985277632e-06
8.30973674128e-06
8.30962539248e-06
8.30951922778e-06
8.3094284917e-06
8.30936029531e-06
8.30932033841e-06
8.30931124876e-06
8.30933448575e-06
8.30938826266e-06
8.30946956035e-06
8.30957329095e-06
8.30969264845e-06
8.30981361961e-06
8.30993674227e-06
8.30997887388e-06
8.3098736816e-06
8.30977201334e-06
8.30967344341e-06
8.30958857003e-06
8.30952448609e-06
8.30948678037e-06
8.30947823391e-06
8.30950040188e-06
8.30955146661e-06
8.30962832715e-06
8.30972579528e-06
8.30983702003e-06
8.30994830131e-06
8.31006157044e-06
8.31008533744e-06
8.30998613208e-06
8.30989136161e-06
8.30979797512e-06
8.30971700222e-06
8.30965557805e-06
8.30961917605e-06
8.30961080874e-06
8.30963209376e-06
8.30968122209e-06
8.30975499132e-06
8.30984815839e-06
8.30995384219e-06
8.31005877136e-06
8.31016633167e-06
8.31018005168e-06
8.31008431084e-06
8.30999410445e-06
8.30990394751e-06
8.30982535541e-06
8.30976544179e-06
8.30972966394e-06
8.30972121137e-06
8.3097417476e-06
8.3097894857e-06
8.30986115711e-06
8.30995148586e-06
8.31005357288e-06
8.3101546193e-06
8.31025943648e-06
8.31026533065e-06
8.31017084131e-06
8.31008311847e-06
8.30999480948e-06
8.30991746198e-06
8.30985820031e-06
8.30982250666e-06
8.30981374599e-06
8.30983362229e-06
8.30988040235e-06
8.30995077959e-06
8.31003948035e-06
8.31013960013e-06
8.31023881462e-06
8.31034326068e-06
8.31034340022e-06
8.31024861035e-06
8.31016178806e-06
8.31007414775e-06
8.30999704709e-06
8.30993771535e-06
8.30990170133e-06
8.30989245289e-06
8.30991172221e-06
8.30995784387e-06
8.31002752071e-06
8.31011552818e-06
8.31021495993e-06
8.3103139831e-06
8.31041976457e-06
8.31041699446e-06
8.31032048166e-06
8.31023342114e-06
8.31014556762e-06
8.31006804131e-06
8.31000821401e-06
8.30997158545e-06
8.3099617498e-06
8.30998039601e-06
8.31002602257e-06
8.31009536553e-06
8.31018331535e-06
8.31028301039e-06
8.31038306915e-06
8.31049135501e-06
8.31048838587e-06
8.31038952283e-06
8.31030131342e-06
8.31021250398e-06
8.31013412767e-06
8.31007349125e-06
8.31003617875e-06
8.31002564972e-06
8.31004365851e-06
8.31008875817e-06
8.3101578925e-06
8.31024612297e-06
8.3103467121e-06
8.3104487141e-06
8.31056013898e-06
8.31056052194e-06
8.3104585545e-06
8.3103680506e-06
8.3102776762e-06
8.31019807235e-06
8.31013671309e-06
8.31009866938e-06
8.31008754441e-06
8.31010472927e-06
8.31014920144e-06
8.31021798033e-06
8.310306567e-06
8.31040853253e-06
8.31051326733e-06
8.31062837253e-06
8.3106394556e-06
8.31053239612e-06
8.31043736999e-06
8.31034386437e-06
8.3102626638e-06
8.31020013175e-06
8.31016158857e-06
8.31014966405e-06
8.31016617379e-06
8.31020980811e-06
8.31027827871e-06
8.3103675718e-06
8.3104719567e-06
8.31058126301e-06
8.31070158425e-06
8.31073248196e-06
8.31061545785e-06
8.31051258456e-06
8.31041429026e-06
8.31033019649e-06
8.31026655425e-06
8.31022701015e-06
8.3102146574e-06
8.31023029469e-06
8.31027335452e-06
8.31034173392e-06
8.31043229425e-06
8.31054056869e-06
8.31065680956e-06
8.3107863964e-06
8.3107609028e-06
8.31065410622e-06
8.31055571659e-06
8.31046499588e-06
8.31038952678e-06
8.3103325015e-06
8.31029738363e-06
8.31028609683e-06
8.31029961858e-06
8.31033730035e-06
8.31039757369e-06
8.31047830622e-06
8.31057708869e-06
8.3106871528e-06
8.31080471439e-06
6.789063669e-06
6.7891853641e-06
6.78930452227e-06
6.78941560132e-06
6.78950795672e-06
6.78957575615e-06
6.789616386e-06
6.78962866552e-06
6.78961211598e-06
6.78956789987e-06
6.78949815385e-06
6.78940638475e-06
6.78929740946e-06
6.7891811128e-06
6.78905547878e-06
6.78915375654e-06
6.78927336463e-06
6.78939264907e-06
6.78950511914e-06
6.78959889967e-06
6.78966788622e-06
6.78970924639e-06
6.78972170493e-06
6.7897046904e-06
6.78965955721e-06
6.78958860575e-06
6.78949559906e-06
6.78938580202e-06
6.78926939639e-06
6.78914745742e-06
6.78905640113e-06
6.78916027202e-06
6.7892644105e-06
6.78936521152e-06
6.78944985482e-06
6.78951266615e-06
6.78955050998e-06
6.78956197572e-06
6.78954633388e-06
6.78950500646e-06
6.78944029769e-06
6.78935603245e-06
6.78925751295e-06
6.78915519964e-06
6.78905007735e-06
6.78894550064e-06
6.78903692048e-06
6.78912909432e-06
6.78921992669e-06
6.78929700809e-06
6.78935471452e-06
6.78938967665e-06
6.78940036137e-06
6.78938592834e-06
6.78934782206e-06
6.78928838149e-06
6.78921148502e-06
6.78912243611e-06
6.78903156031e-06
6.78893893525e-06
6.78886001217e-06
6.78894424302e-06
6.78902889665e-06
6.78911286836e-06
6.78918487843e-06
6.78923921505e-06
6.78927241413e-06
6.78928267893e-06
6.78926910476e-06
6.78923311557e-06
6.78917712466e-06
6.78910506118e-06
6.78902223658e-06
6.78893858327e-06
6.78885324711e-06
6.78878890796e-06
6.78886944131e-06
6.78894885155e-06
6.7890283567e-06
6.7890970264e-06
6.78914920738e-06
6.78918128353e-06
6.78919133332e-06
6.78917836039e-06
6.78914381019e-06
6.78909014224e-06
6.78902132995e-06
6.78894268209e-06
6.78886364354e-06
6.78878250107e-06
6.78872621759e-06
6.78880513164e-06
6.78888128811e-06
6.78895776351e-06
6.78902412268e-06
6.7890748638e-06
6.78910625252e-06
6.78911623677e-06
6.78910372497e-06
6.78907015389e-06
6.78901802835e-06
6.78895133149e-06
6.78887537003e-06
6.78879906103e-06
6.78871992281e-06
6.78866995113e-06
6.7887483848e-06
6.78882302233e-06
6.78889772694e-06
6.78896281251e-06
6.789012783e-06
6.78904385741e-06
6.78905386413e-06
6.78904168343e-06
6.78900871171e-06
6.78895748576e-06
6.78889197446e-06
6.78881746595e-06
6.78874234697e-06
6.78866352402e-06
6.78861802154e-06
6.78869752177e-06
6.78877189277e-06
6.78884577242e-06
6.78891024342e-06
6.78895984064e-06
6.78899082957e-06
6.78900091207e-06
6.78898897433e-06
6.78895634586e-06
6.78890555577e-06
6.78884053062e-06
6.78876651995e-06
6.78869137039e-06
6.78861160549e-06
6.78856892103e-06
6.78865019139e-06
6.78872519155e-06
6.78879900751e-06
6.78886335686e-06
6.78891294421e-06
6.78894396047e-06
6.78895417054e-06
6.78894241605e-06
6.78890998346e-06
6.78885933679e-06
6.78879431394e-06
6.78872008691e-06
6.78864398328e-06
6.78856242081e-06
6.78852078546e-06
6.78860456105e-06
6.78868101612e-06
6.78875526388e-06
6.78881983517e-06
6.7888694288e-06
6.78890051133e-06
6.78891078819e-06
6.788899229e-06
6.78886695448e-06
6.78881635588e-06
6.78875108717e-06
6.7886761694e-06
6.7885984275e-06
6.78851444005e-06
6.78847238598e-06
6.78855920012e-06
6.7886377307e-06
6.78871288598e-06
6.78877762497e-06
6.7888273349e-06
6.78885825673e-06
6.78886863509e-06
6.78885723393e-06
6.78882527321e-06
6.78877478852e-06
6.78870921632e-06
6.78863326867e-06
6.78855327482e-06
6.78846628732e-06
6.788419827e-06
6.78851117075e-06
6.7885932152e-06
6.78866986827e-06
6.78873546692e-06
6.78878490685e-06
6.78881598565e-06
6.78882615451e-06
6.78881516191e-06
6.78878344009e-06
6.78873308798e-06
6.78866696184e-06
6.78858926661e-06
6.78850575193e-06
6.78841427602e-06
6.78836081354e-06
6.78846005402e-06
6.78854618906e-06
6.78862531656e-06
6.78869126967e-06
6.78874119283e-06
6.78877179377e-06
6.78878222491e-06
6.78877131626e-06
6.78874001903e-06
6.78868973986e-06
6.78862294621e-06
6.78854298749e-06
6.78845524273e-06
6.78835642143e-06
6.78836620621e-06
6.788450239e-06
6.78852764711e-06
6.78859684171e-06
6.78865418337e-06
6.78869691285e-06
6.7887234527e-06
6.7887322744e-06
6.78872307591e-06
6.7886961995e-06
6.78865290503e-06
6.78859503053e-06
6.78852475366e-06
6.78844595406e-06
6.78836211391e-06
6.90502962842e-06
6.90494326348e-06
6.90486228758e-06
6.90479045926e-06
6.90473214153e-06
6.90468944025e-06
6.90466405422e-06
6.90465759569e-06
6.90467101656e-06
6.90470361059e-06
6.90475399871e-06
6.90481969925e-06
6.90489765353e-06
6.90498074275e-06
6.9050716534e-06
6.90497426418e-06
6.90489044992e-06
6.90480978779e-06
6.90473688989e-06
6.90467747e-06
6.90463390525e-06
6.90460802549e-06
6.90460146422e-06
6.90461524729e-06
6.90464857335e-06
6.90469991046e-06
6.90476661952e-06
6.9048452539e-06
6.90492842893e-06
6.90501654007e-06
6.90506524484e-06
6.90499377439e-06
6.90492444619e-06
6.90485979618e-06
6.90480669848e-06
6.90476752896e-06
6.90474430384e-06
6.90473861489e-06
6.90475148362e-06
6.90478205315e-06
6.90482878601e-06
6.90488900222e-06
6.90495921745e-06
6.90503170635e-06
6.90510697831e-06
6.90516463005e-06
6.90510301284e-06
6.90504270979e-06
6.90498509944e-06
6.90493717262e-06
6.90490155922e-06
6.90488046503e-06
6.90487545232e-06
6.90488750982e-06
6.90491574058e-06
6.90495858151e-06
6.90501331657e-06
6.90507645211e-06
6.90514020875e-06
6.90520600218e-06
6.90524337834e-06
6.90518786744e-06
6.90513329621e-06
6.90508030561e-06
6.9050356103e-06
6.90500216056e-06
6.90498229447e-06
6.90497761366e-06
6.90498907378e-06
6.90501575684e-06
6.90505604593e-06
6.90510718297e-06
6.905165666e-06
6.90522381232e-06
6.90528399508e-06
6.90530975867e-06
6.90525739098e-06
6.90520701312e-06
6.90515707468e-06
6.90511441287e-06
6.9050822421e-06
6.90506305632e-06
6.90505848983e-06
6.90506948002e-06
6.90509509149e-06
6.90513364679e-06
6.90518236312e-06
6.90523773654e-06
6.90529225307e-06
6.90534923946e-06
6.90536832901e-06
6.90531771224e-06
6.90527007138e-06
6.90522201844e-06
6.90518057162e-06
6.9051490843e-06
6.90513018702e-06
6.90512556182e-06
6.90513615484e-06
6.90516101341e-06
6.90519842499e-06
6.90524558738e-06
6.90529898687e-06
6.90535129762e-06
6.90540679477e-06
6.905420588e-06
6.9053706284e-06
6.90532451267e-06
6.90527753735e-06
6.90523664176e-06
6.90520535083e-06
6.90518642272e-06
6.90518161011e-06
6.90519185808e-06
6.90521622041e-06
6.90525295819e-06
6.90529926564e-06
6.90535162109e-06
6.90540290202e-06
6.90545820407e-06
6.90546821308e-06
6.90541800486e-06
6.90537247257e-06
6.90532589689e-06
6.90528505302e-06
6.90525362649e-06
6.90523445013e-06
6.90522936268e-06
6.90523928706e-06
6.90526333061e-06
6.90529973517e-06
6.90534572063e-06
6.90539774587e-06
6.90544889817e-06
6.90550489527e-06
6.90551292884e-06
6.90546182525e-06
6.90541626216e-06
6.9053695907e-06
6.90532846283e-06
6.9052966498e-06
6.90527709228e-06
6.90527165094e-06
6.90528126127e-06
6.90530507473e-06
6.90534135628e-06
6.90538737764e-06
6.90543959134e-06
6.90549127334e-06
6.90554847788e-06
6.90555645909e-06
6.90550422675e-06
6.9054580352e-06
6.90541084207e-06
6.90536917003e-06
6.90533688198e-06
6.90531688798e-06
6.90531107551e-06
6.90532035116e-06
6.90534393307e-06
6.90538017937e-06
6.90542644448e-06
6.90547920187e-06
6.90553190367e-06
6.90559050846e-06
6.90560075169e-06
6.90554708253e-06
6.90549959988e-06
6.90545146675e-06
6.90540912304e-06
6.90537630299e-06
6.90535594245e-06
6.90534975538e-06
6.90535864721e-06
6.90538193969e-06
6.90541808145e-06
6.90546467371e-06
6.90551828779e-06
6.90557243561e-06
6.90563253859e-06
6.90564946336e-06
6.9055934387e-06
6.90554332841e-06
6.90549338265e-06
6.90544989552e-06
6.9054165602e-06
6.90539573445e-06
6.90538923186e-06
6.90539770886e-06
6.90542063792e-06
6.90545674814e-06
6.9055039274e-06
6.90555907962e-06
6.90561578113e-06
6.90567803206e-06
6.90570753321e-06
6.9056467735e-06
6.90559180309e-06
6.90553861133e-06
6.90549345222e-06
6.90545908235e-06
6.90543782231e-06
6.90543090777e-06
6.90543904593e-06
6.90546177496e-06
6.90549811897e-06
6.90554643834e-06
6.90560432339e-06
6.90566550727e-06
6.9057320183e-06
6.90573665035e-06
6.9056783735e-06
6.90562397964e-06
6.90557395685e-06
6.90553273056e-06
6.90550176027e-06
6.9054825491e-06
6.90547625397e-06
6.90548327534e-06
6.90550336433e-06
6.90553578781e-06
6.90557953726e-06
6.90563346683e-06
6.90569325967e-06
6.90575657894e-06
5.79582254101e-06
5.79589335962e-06
5.79596341058e-06
5.7960269607e-06
5.79607920514e-06
5.79611775648e-06
5.79614162431e-06
5.79614973412e-06
5.7961415433e-06
5.79611767142e-06
5.79607939327e-06
5.79602876073e-06
5.79596874255e-06
5.79590482483e-06
5.79583694788e-06
5.79588212344e-06
5.7959527745e-06
5.79602273072e-06
5.79608686721e-06
5.79613977412e-06
5.7961789346e-06
5.79620319533e-06
5.79621142531e-06
5.79620301943e-06
5.79617867516e-06
5.796139738e-06
5.79608840148e-06
5.7960278531e-06
5.7959637069e-06
5.7958976099e-06
5.79583579669e-06
5.79589785834e-06
5.79595912739e-06
5.79601673416e-06
5.79606463556e-06
5.79610043406e-06
5.79612269397e-06
5.79613030754e-06
5.79612263543e-06
5.79610041422e-06
5.79606498105e-06
5.79601853481e-06
5.79596427329e-06
5.7959078712e-06
5.79585094831e-06
5.79578025667e-06
5.79583507435e-06
5.79588949255e-06
5.7959413575e-06
5.79598500778e-06
5.79601794432e-06
5.79603852143e-06
5.79604562824e-06
5.79603860734e-06
5.79601821394e-06
5.79598578276e-06
5.79594352751e-06
5.79589462087e-06
5.79584457043e-06
5.7957945904e-06
5.79573784044e-06
5.7957883361e-06