/*--------------------------------*- C++ -*----------------------------------*\
  =========                 |
  \\      /  F ield         | OpenFOAM: The Open Source CFD Toolbox
   \\    /   O peration     | Website:  https://openfoam.org
    \\  /    A nd           | Version:  7
     \\/     M anipulation  |
\*---------------------------------------------------------------------------*/
FoamFile
{
    version     2.0;
    format      ascii;
    class       volVectorField;
    location    "0.46";
    object      U;
}
// * * * * * * * * * * * * * * * * * * * * * * * * * * * * * * * * * * * * * //

dimensions      [0 1 -1 0 0 0 0];

internalField   nonuniform List<vector> 
22500
(
(-8.71743228775e-06 -1.04309194724e-05 3.92064784224e-05)
(-7.53747075523e-06 -1.22137539481e-05 4.26433413771e-05)
(-6.23483761105e-06 -1.3705893313e-05 4.69316141476e-05)
(-4.9819125197e-06 -1.48471073227e-05 5.13741527176e-05)
(-3.73367691334e-06 -1.57002430065e-05 5.53975727074e-05)
(-2.51568733386e-06 -1.62898531126e-05 5.85656407805e-05)
(-1.31462893875e-06 -1.66399872912e-05 6.05737486303e-05)
(-1.2045201147e-07 -1.67636754413e-05 6.1242878853e-05)
(1.07704368118e-06 -1.66637460021e-05 6.05130258804e-05)
(2.28774898544e-06 -1.63358623627e-05 5.84448403294e-05)
(3.52123274881e-06 -1.57655635782e-05 5.52176951974e-05)
(4.78979523119e-06 -1.49276026845e-05 5.11361283256e-05)
(6.06795136003e-06 -1.37962067833e-05 4.66358567463e-05)
(7.39466718774e-06 -1.23104051834e-05 4.22876731739e-05)
(8.6104624168e-06 -1.05225524574e-05 3.87882228785e-05)
(-2.74442547171e-05 -3.22788147542e-05 5.65003285133e-05)
(-2.39705083657e-05 -3.75804310262e-05 6.05742067158e-05)
(-2.00179473717e-05 -4.2121328085e-05 6.75530473639e-05)
(-1.60594611144e-05 -4.56720603745e-05 7.56751375863e-05)
(-1.20725416981e-05 -4.83560881545e-05 8.3454615551e-05)
(-8.13166280211e-06 -5.02266339006e-05 8.97615285805e-05)
(-4.22404975233e-06 -5.13420889131e-05 9.381159125e-05)
(-3.30896208883e-07 -5.17340827643e-05 9.51467010828e-05)
(3.57082270055e-06 -5.14101860054e-05 9.3619997731e-05)
(7.50335121107e-06 -5.0358982728e-05 8.93809135495e-05)
(1.14841300025e-05 -4.85451188611e-05 8.28892260336e-05)
(1.55233590024e-05 -4.5906920164e-05 7.49295624338e-05)
(1.95459533164e-05 -4.23875389283e-05 6.66305568308e-05)
(2.35644193958e-05 -3.78669842224e-05 5.94703172774e-05)
(2.71335679169e-05 -3.25570755312e-05 5.52108532082e-05)
(-4.73175343787e-05 -5.49221492998e-05 1.18382955025e-05)
(-4.16348905583e-05 -6.36954487175e-05 1.05269958279e-05)
(-3.50777606078e-05 -7.13150012649e-05 1.44512104159e-05)
(-2.83119837283e-05 -7.73931867064e-05 2.10893329506e-05)
(-2.1389062804e-05 -8.20555214273e-05 2.83123638639e-05)
(-1.44410960983e-05 -8.53461877239e-05 3.45134117204e-05)
(-7.48383805146e-06 -8.73227601886e-05 3.85917382732e-05)
(-5.18740596869e-07 -8.8014460258e-05 3.99121339945e-05)
(6.45932095758e-06 -8.7426649416e-05 3.82770238306e-05)
(1.34545088509e-05 -8.55481893899e-05 3.38882973315e-05)
(2.04635740965e-05 -8.23443876861e-05 2.73836590059e-05)
(2.74672568918e-05 -7.77526346616e-05 1.98645156271e-05)
(3.43321495998e-05 -7.17233837466e-05 1.2935127979e-05)
(4.09950623266e-05 -6.41350628467e-05 8.70951259816e-06)
(4.68246965652e-05 -5.53545233908e-05 9.71021616684e-06)
(-6.73573016412e-05 -7.73693434683e-05 -9.08969731487e-05)
(-5.95977567517e-05 -8.93283938768e-05 -0.000102498586055)
(-5.05441802734e-05 -9.97946546409e-05 -0.000106310041816)
(-4.09905362769e-05 -0.000108267749018 -0.000105350300457)
(-3.10867191271e-05 -0.000114842479762 -0.000102187802636)
(-2.10250675056e-05 -0.000119528586482 -9.87319381232e-05)
(-1.08681970576e-05 -0.000122359371018 -9.62630342714e-05)
(-6.59160932869e-07 -0.000123346574509 -9.55070029408e-05)
(9.56539897112e-06 -0.000122488825798 -9.66844469322e-05)
(1.97680000596e-05 -0.000119780788151 -9.95697688277e-05)
(2.99037514695e-05 -0.000115204184141 -0.000103434053657)
(3.99062566119e-05 -0.000108719564456 -0.000106995583503)
(4.95815417407e-05 -0.000100310605654 -0.000108348342703)
(5.87687842967e-05 -8.98872233665e-05 -0.000104942663745)
(6.67093322438e-05 -7.79260482231e-05 -9.37738251181e-05)
(-8.66912610222e-05 -9.87530131758e-05 -0.000241997047913)
(-7.70209054866e-05 -0.000113441952576 -0.000266776187106)
(-6.56360926364e-05 -0.00012633799115 -0.000281016660228)
(-5.34185309659e-05 -0.000136881974867 -0.000288169264911)
(-4.06253944069e-05 -0.000145128197988 -0.000291114602413)
(-2.75081476514e-05 -0.000151046124976 -0.000291950566786)
(-1.41853009834e-05 -0.000154635000803 -0.000292049185413)
(-7.53555207399e-07 -0.000155882832088 -0.0002921723192)
(1.2694615671e-05 -0.000154779938658 -0.000292548813648)
(2.60662772703e-05 -0.000151329250548 -0.000292946849809)
(3.92632705535e-05 -0.00014553573233 -0.000292601442288)
(5.21636413927e-05 -0.000137393424572 -0.000290138688344)
(6.45142385598e-05 -0.000126925593311 -0.000283464915303)
(7.60486629365e-05 -0.00011408288296 -0.000269724342792)
(8.59183008802e-05 -9.94003094206e-05 -0.00024549202767)
(-0.000104647002129 -0.000118419273886 -0.000428674021862)
(-9.32407508436e-05 -0.000135270393927 -0.000467318555668)
(-7.97263652223e-05 -0.000150067244662 -0.000492554052631)
(-6.50511206127e-05 -0.000162249781523 -0.00050831982535)
(-4.95718220056e-05 -0.0001718333988 -0.000517792743172)
(-3.35914004139e-05 -0.000178748439906 -0.000523233845977)
(-1.72852777135e-05 -0.000182955008211 -0.000526087294986)
(-8.0840740016e-07 -0.000184413980013 -0.000527141559359)
(1.56845918293e-05 -0.00018310660405 -0.000526635254818)
(3.20390885437e-05 -0.000179045532026 -0.000524331901121)
(4.80993012931e-05 -0.00017226281913 -0.000519440201453)
(6.36870154673e-05 -0.000162791423112 -0.000510513085132)
(7.84977303526e-05 -0.000150693671329 -0.000495294175482)
(9.21677763046e-05 -0.000135958996065 -0.000470639273799)
(0.000103779040216 -0.000119124476166 -0.000432641564104)
(-0.000120722639571 -0.000135885214535 -0.000637385410322)
(-0.000107754528662 -0.000154266158018 -0.000688747612469)
(-9.23356108472e-05 -0.000170378688457 -0.000723856944804)
(-7.54669389782e-05 -0.000183708526897 -0.000747267353373)
(-5.75876180939e-05 -0.000194242032887 -0.000762487231631)
(-3.90402256575e-05 -0.000201876449136 -0.000771956882151)
(-2.00519111718e-05 -0.000206532694584 -0.000777205722303)
(-8.33389095139e-07 -0.000208144486978 -0.000779060743435)
(1.8400264131e-05 -0.00020668413991 -0.000777777977348)
(3.7434381549e-05 -0.000202174248468 -0.000773110716378)
(5.60580449424e-05 -0.000194674438011 -0.000764229833835)
(7.40420832472e-05 -0.000184256957993 -0.000749601696083)
(9.10425345302e-05 -0.000171017447554 -0.000726789550359)
(0.000106615660817 -0.000154973799883 -0.00069232363788)
(0.000119785745191 -0.000136620187036 -0.000641693060941)
(-0.000134575148349 -0.000150819283313 -0.000855816627076)
(-0.000120217671417 -0.000170069081443 -0.000917580880549)
(-0.000103136847171 -0.000186896117626 -0.000960472412722)
(-8.43795863515e-05 -0.000200863272566 -0.000989785844494)
(-6.44438152344e-05 -0.000211941778027 -0.00100938732603)
(-4.36971382893e-05 -0.000220002879339 -0.00102190178198)
(-2.24091743742e-05 -0.000224930908927 -0.00102894836515)
(-8.39116043334e-07 -0.000226634408583 -0.00103139878473)
(2.07447979476e-05 -0.00022507770788 -0.00102953187383)
(4.20751520659e-05 -0.000220292620659 -0.0010230863195)
(6.28929101217e-05 -0.000212364276037 -0.00101118607614)
(8.2927022134e-05 -0.000201401896992 -0.000992206630045)
(0.000101808707541 -0.000187527711866 -0.00096352605338)
(0.000119037673885 -0.000170774156795 -0.000921323496912)
(0.000133588867316 -0.000151561847202 -0.000860358090896)
(-0.000146002729047 -0.000163021719299 -0.00107407183796)
(-0.000130430417412 -0.000182475482882 -0.00114344813427)
(-0.000111946024811 -0.000199424346783 -0.00119175479123)
(-9.16316354164e-05 -0.000213526625986 -0.00122509733638)
(-7.00167695373e-05 -0.000224751618367 -0.001247671788)
(-4.74786476071e-05 -0.000232950015213 -0.00126224894685)
(-2.43187011104e-05 -0.000237973312007 -0.00127051126949)
(-8.35091343664e-07 -0.000239708294121 -0.00127336257994)
(2.26611115014e-05 -0.000238112719943 -0.00127110120766)
(4.58599085205e-05 -0.00023322611304 -0.00126345261296)
(6.8463404785e-05 -0.000225155842577 -0.00124950621174)
(9.01692938699e-05 -0.000214044581749 -0.00122757366739)
(0.000110599337441 -0.000200035802803 -0.00119488639429)
(0.000129223749844 -0.000183163273421 -0.00114730131541)
(0.000144979385209 -0.000163755934095 -0.00107877511737)
(-0.000154915028284 -0.000172395063393 -0.00128500931799)
(-0.000138309605182 -0.00019139775102 -0.00135925823924)
(-0.000118696021951 -0.000207896160579 -0.00141083316861)
(-9.71715649547e-05 -0.000221654494799 -0.00144662907596)
(-7.42688094319e-05 -0.000232647469643 -0.00147106665004)
(-5.03609491247e-05 -0.000240707025306 -0.00148697086363)
(-2.57717117152e-05 -0.000245656279742 -0.001496028388)
(-8.28587041764e-07 -0.000247365215706 -0.00149914460509)
(2.41260270579e-05 -0.000245786854819 -0.00149662503152)
(4.87507795485e-05 -0.00024096634788 -0.00148819116186)
(7.27185487173e-05 -0.000233028620005 -0.00147293044969)
(9.57051682559e-05 -0.000222145388039 -0.00144914946688)
(0.000117336558525 -0.000208479597653 -0.00141402430434)
(0.000137081721954 -0.000192059132621 -0.00136319622379)
(0.000153860053181 -0.000173110284525 -0.00128983743917)
(-0.000161301306063 -0.000178915528753 -0.00148390775819)
(-0.00014385746393 -0.000196826114082 -0.0015606326298)
(-0.00012340656851 -0.000212328355213 -0.00161381765682)
(-0.000101025450338 -0.000225297135403 -0.00165100037854)
(-7.72234181378e-05 -0.000235707108684 -0.00167663625118)
(-5.23614254244e-05 -0.000243368998426 -0.00169346951751)
(-2.67791042348e-05 -0.000248083835412 -0.00170311127259)
(-8.24369584875e-07 -0.000249712062799 -0.00170642749279)
(2.51408871675e-05 -0.000248204799192 -0.00170371666702)
(5.07557488491e-05 -0.000243609844267 -0.00169470913265)
(7.56727474307e-05 -0.00023606247448 -0.00167853218299)
(9.9552153808e-05 -0.000225757234704 -0.00165356673475)
(0.000122032283889 -0.000212879030164 -0.00161706791061)
(0.000142606932994 -0.000197455556784 -0.001564652925)
(0.000160214263132 -0.000179604676866 -0.00148885407969)
(-0.000165196980953 -0.000182597251234 -0.00166772351241)
(-0.000147134009741 -0.00019879138838 -0.00174498159955)
(-0.00012615806228 -0.000212793623118 -0.00179872543853)
(-0.000103269874988 -0.000224574274861 -0.0018368012257)
(-7.89402183202e-05 -0.000234083025648 -0.00186343195542)
(-5.35199063475e-05 -0.000241106069098 -0.00188112665429)
(-2.73616823837e-05 -0.000245434190306 -0.00189133896944)
(-8.25031384487e-07 -0.000246929377173 -0.00189485575797)
(2.57212994998e-05 -0.000245545007448 -0.00189195548387)
(5.19094784952e-05 -0.000241327225426 -0.00188239007387)
(7.73805359984e-05 -0.000234410617511 -0.00186536689043)
(0.000101781894699 -0.000225000820614 -0.0018394228773)
(0.000124762237552 -0.000213308053483 -0.00180204531704)
(0.000145855123154 -0.000199384914776 -0.00174909530381)
(0.000164073377707 -0.000183254764337 -0.00167280167183)
(-0.000166662494997 -0.000183421251252 -0.00183413642645)
(-0.000148256217699 -0.00019734235002 -0.00191053267309)
(-0.000127079338594 -0.000209426121347 -0.00196447844947)
(-0.000104007835568 -0.000219684352673 -0.00200352072676)
(-7.94902596593e-05 -0.000228006978384 -0.00203135630095)
(-5.38804602768e-05 -0.000234163838103 -0.00205012204278)
(-2.75409762949e-05 -0.000237958159453 -0.00206104976242)
(-8.31463128372e-07 -0.000239269388597 -0.00206481874591)
(2.58870231102e-05 -0.000238058274744 -0.0020616787669)
(5.22542661332e-05 -0.000234364059859 -0.00205141249554)
(7.79111486192e-05 -0.000228304750422 -0.00203333674402)
(0.000102495535176 -0.000220074509851 -0.0020062093319)
(0.000125653404781 -0.000209900839074 -0.00196788392408)
(0.000146941586119 -0.000197896291179 -0.0019147542356)
(0.000165496748451 -0.00018404130671 -0.00183935902686)
(-0.000165911995937 -0.00018142100757 -0.00198044939221)
(-0.000147472612861 -0.000192700108179 -0.00205558503162)
(-0.00012633738769 -0.000202519991445 -0.00211018572782)
(-0.00010333254538 -0.000210963072786 -0.00215078027855)
(-7.89254456939e-05 -0.000217814282507 -0.00218036426227)
(-5.34721268205e-05 -0.000222869089871 -0.00220061855628)
(-2.73304957137e-05 -0.000225976702766 -0.00221251901813)
(-8.43364272582e-07 -0.000227051129196 -0.00221662628424)
(2.56521576448e-05 -0.000226065540857 -0.00221315941526)
(5.1819701969e-05 -0.000223047106463 -0.00220193478017)
(7.73169662893e-05 -0.000218080049914 -0.00218239131743)
(0.000101786632869 -0.000211313648886 -0.00215354443887)
(0.000124872800566 -0.000202950978217 -0.00211369555813)
(0.000146114620665 -0.000193210035131 -0.00205992998742)
(0.000164695554603 -0.000181999801758 -0.00198580446187)
(-0.000163497721205 -0.000177963201965 -0.00210207575823)
(-0.000145142169896 -0.000185316604434 -0.00217821890872)
(-0.00012404237266 -0.000192602754106 -0.00223459160336)
(-0.000101315571097 -0.000198835401826 -0.00227774506781)
(-7.7304508814e-05 -0.000203842373035 -0.00230990105837)
(-5.234202389e-05 -0.000207505100628 -0.00233223508372)
(-2.67565842421e-05 -0.000209745929515 -0.00234545656021)
(-8.59883762291e-07 -0.000210522456032 -0.00235001381044)
(2.50447452636e-05 -0.000209822486402 -0.00234610224004)
(5.06546125822e-05 -0.000207658721265 -0.00233356551879)
(7.56583881191e-05 -0.000204072363135 -0.0023119596155)
(9.97282553994e-05 -0.000199140455574 -0.00228057380825)
(0.000122531678033 -0.000192981071934 -0.00223820832592)
(0.000143736537955 -0.000185772728046 -0.00218274428145)
(0.000162218414403 -0.000178488846199 -0.00210743233449)
(2.64384961068e-07 5.50302163704e-07 3.91693271438e-06)
(5.07288973187e-08 7.77933616719e-07 5.06083014195e-06)
(-1.12443459653e-07 9.09764961264e-07 6.73442620692e-06)
(-2.00048812199e-07 9.65957450384e-07 8.55402515984e-06)
(-2.20009033083e-07 9.76489742147e-07 1.02392958013e-05)
(-1.74701937157e-07 9.64525642457e-07 1.15847326163e-05)
(-8.20467223374e-08 9.50221331097e-07 1.24467947534e-05)
(3.54830315107e-08 9.46481357758e-07 1.27398690536e-05)
(1.51484360291e-07 9.57418624596e-07 1.24353841043e-05)
(2.39519212855e-07 9.78129792729e-07 1.15620890266e-05)
(2.7735540867e-07 9.95013794656e-07 1.02054897616e-05)
(2.47771488238e-07 9.87221800095e-07 8.50863901828e-06)
(1.49319488948e-07 9.31268696088e-07 6.67530789467e-06)
(-2.39740589717e-08 7.97655249996e-07 4.98128793865e-06)
(-2.48556093676e-07 5.64882115819e-07 3.79767736754e-06)
(2.26619984758e-06 3.11049909099e-06 -9.05719231257e-06)
(1.64626611707e-06 3.98637019009e-06 -7.74164765209e-06)
(1.07068742451e-06 4.63115721241e-06 -4.70974318891e-06)
(6.35667634906e-07 5.06164397305e-06 -9.8737665006e-07)
(3.33927688605e-07 5.33193652915e-06 2.65387893524e-06)
(1.63976147224e-07 5.48612538589e-06 5.64506612327e-06)
(9.10965350026e-08 5.56477790974e-06 7.58994767734e-06)
(6.94930195336e-08 5.59385337955e-06 8.25206821935e-06)
(4.52836716524e-08 5.58182033386e-06 7.55354642617e-06)
(-3.51626896404e-08 5.51926861778e-06 5.57295513002e-06)
(-2.16660973328e-07 5.37914703066e-06 2.54640415382e-06)
(-5.32183565896e-07 5.11936973284e-06 -1.1312949346e-06)
(-9.81789752275e-07 4.69441540647e-06 -4.89613046242e-06)
(-1.57121482523e-06 4.0500951679e-06 -7.98939774947e-06)
(-2.20998130783e-06 3.16616764575e-06 -9.4132927529e-06)
(5.41676022432e-06 6.8712960693e-06 -4.26256860845e-05)
(4.40497768627e-06 8.49972758034e-06 -4.31762573602e-05)
(3.36549110101e-06 9.80026527448e-06 -4.07527757678e-05)
(2.46348423908e-06 1.07582645361e-05 -3.68850019988e-05)
(1.69984787449e-06 1.14345147828e-05 -3.2749750035e-05)
(1.0803380908e-06 1.18758930048e-05 -2.92103509464e-05)
(5.68114307659e-07 1.21268594287e-05 -2.68630190139e-05)
(1.12373093534e-07 1.22155863862e-05 -2.60619925002e-05)
(-3.47118844785e-07 1.21510165331e-05 -2.69229797791e-05)
(-8.70314475887e-07 1.19229428264e-05 -2.93292467812e-05)
(-1.50694575309e-06 1.15017378001e-05 -3.29273568395e-05)
(-2.29180605393e-06 1.0840897362e-05 -3.71234391205e-05)
(-3.21719941912e-06 9.89147104038e-06 -4.10611740543e-05)
(-4.27997724851e-06 8.59172120028e-06 -4.35806955207e-05)
(-5.32230761406e-06 6.95300920466e-06 -4.31965724947e-05)
(9.15223861374e-06 1.11820700108e-05 -9.48391719873e-05)
(7.74389994104e-06 1.35169789306e-05 -9.89624284965e-05)
(6.20678924411e-06 1.54533542676e-05 -9.87806614019e-05)
(4.77298474449e-06 1.69412500746e-05 -9.62640604817e-05)
(3.45469387949e-06 1.80394245624e-05 -9.28987255026e-05)
(2.26749542188e-06 1.87876489341e-05 -8.97677683265e-05)
(1.17951694266e-06 1.92258528138e-05 -8.76138377595e-05)
(1.43738385405e-07 1.93787473277e-05 -8.68755746581e-05)
(-8.96156652291e-07 1.92540458666e-05 -8.7695412637e-05)
(-1.99618419461e-06 1.88429206225e-05 -8.992979741e-05)
(-3.20227920881e-06 1.81191595975e-05 -9.31416096684e-05)
(-4.54432258269e-06 1.70405639089e-05 -9.65917222933e-05)
(-6.00490688143e-06 1.55648147144e-05 -9.92055628326e-05)
(-7.57005752974e-06 1.36319653541e-05 -9.95193816934e-05)
(-9.01608748648e-06 1.12866964123e-05 -9.56082099826e-05)
(1.29394314502e-05 1.54622319851e-05 -0.000164134796006)
(1.11328933113e-05 1.83470293464e-05 -0.000173296477877)
(9.10060770405e-06 2.07788117893e-05 -0.000176751489096)
(7.12881044262e-06 2.26730903e-05 -0.00017681796226)
(5.24592114051e-06 2.40917695722e-05 -0.000175236049156)
(3.47827113876e-06 2.50714769888e-05 -0.000173267063749)
(1.80037098167e-06 2.56500863223e-05 -0.000171770604959)
(1.69988124195e-07 2.58504972702e-05 -0.000171252190965)
(-1.46437713052e-06 2.56799294449e-05 -0.000171875484315)
(-3.15398960521e-06 2.51303420934e-05 -0.000173475411136)
(-4.94022070541e-06 2.41774783025e-05 -0.000175548527383)
(-6.84696109086e-06 2.27812196416e-05 -0.000177239390944)
(-8.84657467911e-06 2.09022033202e-05 -0.000177295381917)
(-1.090940016e-05 1.84770500303e-05 -0.000174001149328)
(-1.2758592446e-05 1.55834726926e-05 -0.00016508705437)
(1.63910071358e-05 1.92901327087e-05 -0.000248874022882)
(1.41920400153e-05 2.25065563919e-05 -0.00026428570324)
(1.16985615633e-05 2.52258522617e-05 -0.000272532796093)
(9.23280325169e-06 2.73440788055e-05 -0.000276216609073)
(6.83921946559e-06 2.89332871573e-05 -0.000277275208391)
(4.55197372632e-06 3.00332208157e-05 -0.00027710846898)
(2.34998018671e-06 3.06835603592e-05 -0.000276665161992)
(1.93536752454e-07 3.09078067443e-05 -0.000276501011424)
(-1.96651046972e-06 3.07135612338e-05 -0.000276795618495)
(-4.17923781154e-06 3.00927416457e-05 -0.000277367356393)
(-6.48390270315e-06 2.90206941498e-05 -0.000277662704923)
(-8.90054675e-06 2.74556321719e-05 -0.000276736916742)
(-1.13942777162e-05 2.53550276644e-05 -0.000273198059621)
(-1.39199074353e-05 2.26452119837e-05 -0.000265134958228)
(-1.61649709681e-05 1.9421994135e-05 -0.000249999584612)
(1.92454837935e-05 2.23833256934e-05 -0.000347397307699)
(1.66745370584e-05 2.56961472644e-05 -0.000370018938637)
(1.37812643392e-05 2.84754815692e-05 -0.000383976525152)
(1.09013723797e-05 3.06196878375e-05 -0.000392114515184)
(8.09257939026e-06 3.22170327763e-05 -0.000396517933569)
(5.39201677607e-06 3.33170461999e-05 -0.000398685387099)
(2.77950182717e-06 3.39651950957e-05 -0.000399626438522)
(2.14368601738e-07 3.4188038541e-05 -0.000399929789458)
(-2.35386055789e-06 3.39943792527e-05 -0.000399785402612)
(-4.9758025627e-06 3.33752689254e-05 -0.000399000305334)
(-7.69217955509e-06 3.23031923124e-05 -0.000396987515481)
(-1.05227354045e-05 3.07307790226e-05 -0.000392740602394)
(-1.3430148725e-05 2.86057653734e-05 -0.000384767636423)
(-1.63563984602e-05 2.58381823959e-05 -0.000371013160444)
(-1.89755688149e-05 2.25206044344e-05 -0.000348691591018)
(2.13572768891e-05 2.45898238018e-05 -0.000458064374964)
(1.84541597023e-05 2.77819980506e-05 -0.000488610755997)
(1.52448758701e-05 3.04125617073e-05 -0.000508969580811)
(1.20540793225e-05 3.24058225551e-05 -0.000522211334235)
(8.94792801652e-06 3.38688578029e-05 -0.000530521699624)
(5.9609390043e-06 3.48650907979e-05 -0.000535456422026)
(3.07035648278e-06 3.54477960232e-05 -0.000538055043367)
(2.31756938221e-07 3.5647783999e-05 -0.000538920182544)
(-2.60934319656e-06 3.5475414355e-05 -0.000538245955449)
(-5.50782354342e-06 3.49204820566e-05 -0.000535834053341)
(-8.50866760848e-06 3.39514244997e-05 -0.00053108224935)
(-1.1634759147e-05 3.25133189617e-05 -0.000522952560277)
(-1.48518989693e-05 3.05401508654e-05 -0.000509894336646)
(-1.80940357195e-05 2.79231091593e-05 -0.000489755248193)
(-2.1046116308e-05 2.47282158234e-05 -0.000459528982406)
(2.26818142403e-05 2.58730366854e-05 -0.000579235029567)
(1.95056978132e-05 2.8768684363e-05 -0.000618169203111)
(1.607892883e-05 3.10847509994e-05 -0.000645395340881)
(1.26911961486e-05 3.27926677323e-05 -0.000664211891244)
(9.41109140149e-06 3.40169328523e-05 -0.000676858885271)
(6.26546208322e-06 3.48352787413e-05 -0.000684903234723)
(3.22656413299e-06 3.5308217048e-05 -0.000689379830054)
(2.45067732984e-07 3.54704139648e-05 -0.000690883731714)
(-2.73827719691e-06 3.53335764025e-05 -0.000689606381628)
(-5.78335833371e-06 3.48864162845e-05 -0.000685351128014)
(-8.94051368153e-06 3.40937972245e-05 -0.000677520927081)
(-1.22381363327e-05 3.28938464321e-05 -0.000665080218719)
(-1.56501872344e-05 3.12064281159e-05 -0.000646465392184)
(-1.91086557618e-05 2.8905315352e-05 -0.000619475166896)
(-2.23330391972e-05 2.60090582669e-05 -0.000580878410095)
(2.32511404595e-05 2.62840625664e-05 -0.000709178391365)
(1.98762894083e-05 2.87583992719e-05 -0.000756683358873)
(1.6336482028e-05 3.06477090981e-05 -0.000791013876495)
(1.2865424734e-05 3.19860117083e-05 -0.000815705547566)
(9.52774460306e-06 3.29105153545e-05 -0.00083299625553)
(6.33900354691e-06 3.35101137214e-05 -0.000844409534653)
(3.26563041072e-06 3.38497457172e-05 -0.000850935799543)
(2.54020789264e-07 3.39662857521e-05 -0.000853139358542)
(-2.75875984088e-06 3.38722014379e-05 -0.000851201818439)
(-5.83644976896e-06 3.35557025819e-05 -0.000844935562586)
(-9.03403327731e-06 3.29797863786e-05 -0.000833771531034)
(-1.2386210309e-05 3.20784566033e-05 -0.000816715383088)
(-1.58787000962e-05 3.07606632158e-05 -0.000792244813317)
(-1.94480177758e-05 2.88875085096e-05 -0.00075816846405)
(-2.28690808192e-05 2.64148265784e-05 -0.000711017022037)
(2.31472074631e-05 2.59305275078e-05 -0.000845906456265)
(1.96561869013e-05 2.79089775243e-05 -0.000901838815962)
(1.61055897419e-05 2.93121757387e-05 -0.000943284776101)
(1.26561271955e-05 3.02446078585e-05 -0.000974002515327)
(9.36228217491e-06 3.08490360908e-05 -0.00099614114796)
(6.22669939504e-06 3.1219450167e-05 -0.00101111281794)
(3.21079504791e-06 3.1420945507e-05 -0.00101981942129)
(2.58695905341e-07 3.14902920104e-05 -0.00102277026689)
(-2.69389938032e-06 3.14399534488e-05 -0.00102012943586)
(-5.7121847289e-06 3.12583974502e-05 -0.00101172612954)
(-8.85367405005e-06 3.09090739519e-05 -0.000997043811485)
(-1.21584933942e-05 3.0326174851e-05 -0.000975172824945)
(-1.56257440048e-05 2.94138805704e-05 -0.000944699081139)
(-1.92026951896e-05 2.80278089934e-05 -0.000903528729915)
(-2.27365658804e-05 2.60534473807e-05 -0.000847967706788)
(2.24770309357e-05 2.49485056167e-05 -0.000986918882909)
(1.89541176109e-05 2.63983576607e-05 -0.00105077579299)
(1.5487264544e-05 2.73020307482e-05 -0.00109917261008)
(1.2150391413e-05 2.78335479218e-05 -0.00113597112232)
(8.98281957509e-06 2.81316678426e-05 -0.00116309694884)
(5.97501233549e-06 2.82872197081e-05 -0.00118177145289)
(3.08568109191e-06 2.83606515674e-05 -0.0011927623075)
(2.59429010432e-07 2.83862522162e-05 -0.00119649953031)
(-2.56668163501e-06 2.83757889272e-05 -0.00119312231246)
(-5.456509929e-06 2.83186574433e-05 -0.00118248471666)
(-8.46723010238e-06 2.81810569334e-05 -0.00116414633876)
(-1.16419579126e-05 2.79022758848e-05 -0.00113732710867)
(-1.49923872823e-05 2.73900778143e-05 -0.00110079959137)
(-1.84815705732e-05 2.65042168089e-05 -0.00105270338865)
(-2.20426997432e-05 2.5060874072e-05 -0.000989239944727)
(2.13495108785e-05 2.34736608109e-05 -0.00112880887375)
(1.78799863808e-05 2.43948892463e-05 -0.00119982019182)
(1.45823557631e-05 2.48250803315e-05 -0.00125498835695)
(1.14319588039e-05 2.49947390056e-05 -0.00129792373749)
(8.45235101787e-06 2.5027140829e-05 -0.00133016556502)
(5.62563752692e-06 2.50006075962e-05 -0.00135267346875)
(2.91116214036e-06 2.49667299378e-05 -0.00136604200023)
(2.56673130626e-07 2.49555895973e-05 -0.00137060090696)
(-2.39711270785e-06 2.49777639674e-05 -0.00136645798724)
(-5.11040796881e-06 2.50239428524e-05 -0.00135349905093)
(-7.93719389336e-06 2.50648044502e-05 -0.00133138143333)
(-1.09200627809e-05 2.50489810105e-05 -0.00129949376978)
(-1.40794547453e-05 2.48973364431e-05 -0.00125686333764)
(-1.73947860006e-05 2.44852868975e-05 -0.00120202335329)
(-2.08968716646e-05 2.35725593573e-05 -0.00113142920184)
(1.98678786246e-05 2.16250890848e-05 -0.00126664129453)
(1.65471774743e-05 2.20594302406e-05 -0.00134434859814)
(1.34907948998e-05 2.20662611176e-05 -0.00140638540803)
(1.05766437229e-05 2.19390136825e-05 -0.00145560155567)
(7.8244075774e-06 2.17630057144e-05 -0.00149311516802)
(5.21255785825e-06 2.15972639953e-05 -0.00151959311652)
(2.70393555108e-06 2.14823840018e-05 -0.00153543216638)
(2.50993672794e-07 2.14434071132e-05 -0.00154084669848)
(-2.20082408559e-06 2.14894039729e-05 -0.00153590803414)
(-4.70689002234e-06 2.16125112196e-05 -0.00152053989459)
(-7.31628616432e-06 2.17886280958e-05 -0.00149451446588)
(-1.0067990832e-05 2.19778597175e-05 -0.00145741540699)
(-1.2986350184e-05 2.21210629411e-05 -0.00140855194458)
(-1.60553838921e-05 2.21321354247e-05 -0.00134687088808)
(-1.94023207497e-05 2.17075497958e-05 -0.00126958986606)
(1.81214484556e-05 1.96613444515e-05 -0.0013933735765)
(1.50849574693e-05 1.94758091219e-05 -0.0014796907348)
(1.22954175204e-05 1.9156167979e-05 -0.00154874091068)
(9.63946250306e-06 1.88135615361e-05 -0.00160433791046)
(7.13494583567e-06 1.84913364814e-05 -0.0016472476905)
(4.75790908463e-06 1.82312500299e-05 -0.0016778099911)
(2.4749950111e-06 1.80629309535e-05 -0.00169619731889)
(2.43242367857e-07 1.80056591909e-05 -0.00170249436108)
(-1.98708567717e-06 1.80665480357e-05 -0.00169673128693)
(-4.26638087855e-06 1.82393840642e-05 -0.00167887548386)
(-6.63875913799e-06 1.85057593351e-05 -0.00164883172361)
(-9.13902488203e-06 1.88370524224e-05 -0.00160641043414)
(-1.17937920253e-05 1.91921345857e-05 -0.00155123533207)
(-1.45903492202e-05 1.95283954677e-05 -0.00148261663138)
(-1.76451762432e-05 1.97252593928e-05 -0.00139658846191)
(-1.61387393294e-07 -3.0752822816e-07 -3.62909039788e-05)
(-7.81673403134e-08 -4.14324130669e-07 -3.70822465785e-05)
(-2.82491357131e-08 -4.77325484027e-07 -3.71540898407e-05)
(3.07517187909e-09 -5.15381666693e-07 -3.68745865762e-05)
(1.71905842859e-08 -5.37228229335e-07 -3.64721558252e-05)
(1.6790794682e-08 -5.48671782602e-07 -3.60952828882e-05)
(6.356658515e-09 -5.54114955726e-07 -3.58380698884e-05)
(-9.20379546771e-09 -5.56135736211e-07 -3.57531601253e-05)
(-2.4243229223e-08 -5.5550030251e-07 -3.58536115305e-05)
(-3.30532886367e-08 -5.51151903672e-07 -3.61262534301e-05)
(-3.07332147202e-08 -5.40208700212e-07 -3.65183337711e-05)
(-1.31228852924e-08 -5.180109562e-07 -3.69359231235e-05)
(2.27259656785e-08 -4.78134264866e-07 -3.72316790821e-05)
(7.74902507084e-08 -4.12770181669e-07 -3.71824045463e-05)
(1.64460700461e-07 -3.03482417783e-07 -3.64372053802e-05)
(-6.30678858805e-07 -9.96386178893e-07 -0.00012071556046)
(-3.96171258822e-07 -1.29720391753e-06 -0.000124194017786)
(-2.29480127882e-07 -1.49652311852e-06 -0.000125448411588)
(-1.12397598313e-07 -1.62678526041e-06 -0.00012549255547)
(-4.09066344005e-08 -1.70729421515e-06 -0.000124986982671)
(-8.24910828823e-09 -1.75309019835e-06 -0.00012436453978)
(-3.12829089921e-09 -1.77606968538e-06 -0.000123899631853)
(-1.23438911454e-08 -1.78360742615e-06 -0.000123745649236)
(-2.07465346292e-08 -1.77817265824e-06 -0.000123944937649)
(-1.31907999755e-08 -1.75703184357e-06 -0.000124454917992)
(2.32619071278e-08 -1.7124274617e-06 -0.00012512205149)
(9.91856462643e-08 -1.63204539669e-06 -0.000125672603237)
(2.21563479339e-07 -1.49961288306e-06 -0.000125677221687)
(3.93944106243e-07 -1.29708879939e-06 -0.000124490497837)
(6.33392477823e-07 -9.92141233166e-07 -0.000121135139908)
(-1.2235463184e-06 -1.77702661686e-06 -0.000215731174288)
(-8.58437328758e-07 -2.2543517175e-06 -0.000222882789088)
(-5.74442476331e-07 -2.59170531437e-06 -0.000226257012434)
(-3.59226644407e-07 -2.82237529447e-06 -0.000227438188572)
(-2.07865567135e-07 -2.97163774862e-06 -0.000227482840393)
(-1.11389206641e-07 -3.0609901532e-06 -0.000227090642227)
(-5.43074395002e-08 -3.10769609402e-06 -0.000226706552921)
(-1.7839740383e-08 -3.12266560705e-06 -0.000226579713849)
(1.96848960564e-08 -3.10951483491e-06 -0.00022678264793)
(7.9942851253e-08 -3.06427953484e-06 -0.000227242359821)
(1.81463520293e-07 -2.9756294507e-06 -0.000227709363127)
(3.39029961562e-07 -2.82574725615e-06 -0.000227739583971)
(5.61750111847e-07 -2.59194113121e-06 -0.000226638351389)
(8.53869374077e-07 -2.25041529711e-06 -0.000223371113038)
(1.2267904585e-06 -1.76799508318e-06 -0.000216404456966)
(-1.80494248957e-06 -2.49474855865e-06 -0.000319546694018)
(-1.32809244685e-06 -3.10487004303e-06 -0.000331154310136)
(-9.34671038563e-07 -3.54983899577e-06 -0.000337412414254)
(-6.23346709654e-07 -3.85984736024e-06 -0.000340404291789)
(-3.90164978352e-07 -4.06359489388e-06 -0.000341544684865)
(-2.25069533347e-07 -4.18732676936e-06 -0.000341781473351)
(-1.09397528633e-07 -4.25258958918e-06 -0.000341720280926)
(-1.97351525562e-08 -4.27321297513e-06 -0.000341701179386)
(7.10150185505e-08 -4.25383595089e-06 -0.000341826673791)
(1.89933006336e-07 -4.18953961717e-06 -0.000341993446254)
(3.60174452688e-07 -4.06614035756e-06 -0.000341860779774)
(5.9977113811e-07 -3.8615325789e-06 -0.000340823872811)
(9.188305624e-07 -3.54841174983e-06 -0.000337940428565)
(1.32053130345e-06 -3.09933727547e-06 -0.000331821528364)
(1.80612520579e-06 -2.48391377671e-06 -0.000320443372527)
(-2.34576909531e-06 -3.13143529352e-06 -0.000430878464955)