/*--------------------------------*- C++ -*----------------------------------*\
  =========                 |
  \\      /  F ield         | OpenFOAM: The Open Source CFD Toolbox
   \\    /   O peration     | Website:  https://openfoam.org
    \\  /    A nd           | Version:  7
     \\/     M anipulation  |
\*---------------------------------------------------------------------------*/
FoamFile
{
    version     2.0;
    format      ascii;
    class       volVectorField;
    location    "0.52";
    object      U;
}
// * * * * * * * * * * * * * * * * * * * * * * * * * * * * * * * * * * * * * //

dimensions      [0 1 -1 0 0 0 0];

internalField   nonuniform List<vector> 
22500
(
(1.15529383004e-05 1.29274289246e-05 0.000173202454931)
(1.07781385601e-05 1.45619716636e-05 0.000181867473705)
(9.46106915564e-06 1.62201182205e-05 0.000189775919546)
(7.97019268313e-06 1.76375157672e-05 0.000196608890217)
(6.20537515666e-06 1.88148758451e-05 0.000202146570997)
(4.25278111341e-06 1.96920895828e-05 0.000206220306355)
(2.16165901429e-06 2.02338440805e-05 0.000208714032596)
(-1.38480361683e-09 2.04172150585e-05 0.000209558063824)
(-2.16437861208e-06 2.02337318268e-05 0.000208713993593)
(-4.25536102031e-06 1.96918863265e-05 0.000206220228131)
(-6.20770088129e-06 1.88146412728e-05 0.000202146458888)
(-7.97214948552e-06 1.76373033849e-05 0.000196608752253)
(-9.46249625784e-06 1.62200599313e-05 0.000189775720764)
(-1.07790121111e-05 1.45620468557e-05 0.000181866874534)
(-1.15532037058e-05 1.2927605095e-05 0.000173199720972)
(3.36329209192e-05 3.76660836469e-05 0.000456303060459)
(3.13041179541e-05 4.23365273152e-05 0.00047595711294)
(2.75546952257e-05 4.70231714386e-05 0.000493713520039)
(2.31848931899e-05 5.10632475446e-05 0.000508922947537)
(1.80564890069e-05 5.44185824643e-05 0.000521156388631)
(1.23728802819e-05 5.69201545689e-05 0.000530103586741)
(6.28866447865e-06 5.84662336095e-05 0.000535558325696)
(-3.57989068075e-09 5.89894683751e-05 0.000537398145014)
(-6.29570777005e-06 5.84660686835e-05 0.000535558152277)
(-1.2379584373e-05 5.69198717359e-05 0.000530103249982)
(-1.80625934062e-05 5.44183042234e-05 0.000521155921689)
(-2.31901061967e-05 5.10630817651e-05 0.000508922397597)
(-2.75586598936e-05 4.70233568776e-05 0.000493712808547)
(-3.13067384879e-05 4.2336970184e-05 0.000475955286246)
(-3.36339532864e-05 3.76667095519e-05 0.000456296206062)
(5.07435903944e-05 5.6733400135e-05 0.000686837362038)
(4.69900273332e-05 6.34311894388e-05 0.000713063080991)
(4.12772622864e-05 7.00959824162e-05 0.00073653852295)
(3.46282482362e-05 7.5828127802e-05 0.000756500158837)
(2.69146353112e-05 8.05701740878e-05 0.000772454612353)
(1.84137183439e-05 8.40967847819e-05 0.000784066288927)
(9.34997154765e-06 8.62728391423e-05 0.000791120865832)
(-5.26371147562e-09 8.70086769661e-05 0.00079349383586)
(-9.36034537254e-06 8.62727915548e-05 0.000791120589697)
(-1.84236369828e-05 8.40967445174e-05 0.00078406576138)
(-2.69237569441e-05 8.05702754053e-05 0.000772453902977)
(-3.46361833026e-05 7.58284925994e-05 0.000756499364249)
(-4.12835291909e-05 7.00968118503e-05 0.000736537579356)
(-4.69944578202e-05 6.34322877741e-05 0.000713060706237)
(-5.07456975215e-05 5.67345962592e-05 0.00068682816726)
(6.39526884776e-05 7.13664901296e-05 0.000875083655654)
(5.89320487493e-05 7.93282738586e-05 0.00090476482084)
(5.16294606643e-05 8.72091316377e-05 0.000931077421692)
(4.31802891016e-05 9.39528681212e-05 0.000953286601097)
(3.34873592924e-05 9.9509156419e-05 0.000970925479866)
(2.2871664469e-05 0.000103628645473 0.000983700129673)
(1.16015533021e-05 0.00010616552164 0.000991434190035)
(-6.52778246264e-09 0.000107022478448 0.000994029299406)
(-1.16144290779e-05 0.000106165585957 0.000991433903408)
(-2.2884001092e-05 0.000103628829466 0.000983699599292)
(-3.3498760217e-05 9.95095863074e-05 0.000970924816538)
(-4.31903171254e-05 9.3953663512e-05 0.000953285961251)
(-5.16375793644e-05 8.72104420327e-05 0.000931076815974)
(-5.89380553539e-05 7.93298298637e-05 0.000904762919567)
(-6.39559251786e-05 7.13680864373e-05 0.000875074461602)
(7.40393609836e-05 8.24880190816e-05 0.00102881630294)
(6.79144785458e-05 9.11356753305e-05 0.00105973020801)
(5.93276787192e-05 9.96665782138e-05 0.00108685311691)
(4.94695115093e-05 0.00010692398786 0.00110956720721)
(3.82796861118e-05 0.000112878107425 0.00112748784678)
(2.61008883525e-05 0.000117278595229 0.00114039950595)
(1.32259876541e-05 0.000119982894832 0.00114818789162)
(-7.4618576735e-09 0.000120895409008 0.00115079501265)
(-1.32407121817e-05 0.000119983035072 0.00114818768697)
(-2.61150133857e-05 0.000117278927277 0.00114039916124)
(-3.82927804904e-05 0.00011287874224 0.00112748752001)
(-4.94811185821e-05 0.00010692503225 0.00110956713164)
(-5.93372639438e-05 9.96681516033e-05 0.00108685343416)
(-6.79218256395e-05 9.11374525608e-05 0.00105972970199)
(-7.40437173284e-05 8.24898190361e-05 0.00102880885466)
(8.14264043959e-05 9.05794247829e-05 0.00115410685686)
(7.43586587237e-05 9.94377473272e-05 0.00118467518776)
(6.47580500262e-05 0.000108158983032 0.0012111969963)
(5.38345517542e-05 0.000115532397906 0.00123322026655)
(4.15637804973e-05 0.000121554053954 0.00125047273611)
(2.82923794069e-05 0.000125990046347 0.00126283383979)
(1.43217624825e-05 0.000128710279322 0.00127026083864)
(-8.13948990892e-09 0.00012962715511 0.00127274105533)
(-1.43378300902e-05 0.000128710457212 0.00127026079012)
(-2.83078093443e-05 0.00012599044775 0.00126283383279)
(-4.15781247119e-05 0.000121554772762 0.00125047298368)
(-5.38473530448e-05 0.000115533525136 0.00123322109952)
(-6.47688128443e-05 0.000108160612977 0.00121119873172)
(-7.4367174857e-05 9.94395311835e-05 0.00118467677737)
(-8.14318361233e-05 9.058122418e-05 0.00115410214593)
(8.64583215518e-05 9.60223438072e-05 0.0012558250702)
(7.86059597801e-05 0.000104704013064 0.00128495219711)
(6.82362969307e-05 0.000113242923938 0.00130992128166)
(5.65522190953e-05 0.000120415748886 0.00133046599477)
(4.35622445125e-05 0.000126244868465 0.00134643685569)
(2.96023788595e-05 0.000130524927456 0.00135781054736)
(1.49694366753e-05 0.000133143745095 0.00136461517483)
(-8.62665423617e-09 0.000134025458461 0.00136688196284)
(-1.49864716299e-05 0.000133143914226 0.00136461533264)
(-2.96187564151e-05 0.000130525306298 0.00135781098198)
(-4.35775133104e-05 0.000126245533574 0.00134643784422)
(-5.65659351781e-05 0.000120416778923 0.00133046798533)
(-6.824801512e-05 0.000113244394349 0.00130992479363)
(-7.86154999196e-05 0.000104705585326 0.00128495632416)
(-8.64647722467e-05 9.60239348593e-05 0.0012558235672)
(8.94630584981e-05 9.91831605208e-05 0.00133795645339)
(8.09787259167e-05 0.000107384098737 0.00136491700006)
(7.00606795141e-05 0.000115447700363 0.00138773273813)
(5.78832737131e-05 0.000122176158217 0.00140632162932)
(4.44843140685e-05 0.000127615742111 0.00142065231483)
(3.01774511857e-05 0.000131596833773 0.00143079079984)
(1.52444714831e-05 0.00013402741544 0.00143682831542)
(-8.98016171758e-09 0.000134844865513 0.00143883436364)
(-1.52622111107e-05 0.000134027528268 0.0014368287022)
(-3.01945294081e-05 0.00013159709442 0.00143079172426)
(-4.45002867214e-05 0.000127616214344 0.0014206541257)
(-5.7897717426e-05 0.000122176911527 0.00140632490656)
(-7.00732049136e-05 0.000115448803212 0.0013877382103)
(-8.09891767327e-05 0.000107385237166 0.00136492382503)
(-8.94704650549e-05 9.91843389778e-05 0.00133795821672)
(9.07406860053e-05 0.000100399744973 0.00140381175554)
(8.1768724931e-05 0.000107888742837 0.00142816757914)
(7.05000902665e-05 0.000115252457962 0.00144849925676)
(5.80621580179e-05 0.000121354122264 0.00146489192423)
(4.45176289291e-05 0.000126260363375 0.00147741672739)
(3.01487111914e-05 0.000129840135412 0.00148621422529)
(1.52142545e-05 0.000132021257596 0.00149142670585)
(-9.25155129989e-09 0.000132754067518 0.0014931538664)
(-1.52325389943e-05 0.000132021268052 0.00149142731293)
(-3.01663429346e-05 0.000129840186077 0.00148621562277)
(-4.45341790445e-05 0.000126260509867 0.001477419339)
(-5.80772266784e-05 0.000121354430964 0.00146489646729)
(-7.05133393365e-05 0.00011525300008 0.0014485066572)
(-8.17800102261e-05 0.000107889249081 0.0014281769504)
(-9.07489856667e-05 0.000100400317159 0.00140381646523)
(9.05597040534e-05 9.99761204952e-05 0.0014561695161)
(8.12338094267e-05 0.000106582346114 0.00147770557098)
(6.97909736648e-05 0.000113077613584 0.0014954290431)
(5.72947432869e-05 0.000118419840219 0.00150956337239)
(4.3826611507e-05 0.000122692444905 0.00152025949278)
(2.96307209229e-05 0.000125801698605 0.00152771410003)
(1.49375359168e-05 0.000127692875508 0.00153210653826)
(-9.48615209883e-09 0.000128327708576 0.00153355767605)
(-1.49562956939e-05 0.000127692745778 0.00153210731829)
(-2.96488478227e-05 0.000125801464883 0.00152771587197)
(-4.38436961187e-05 0.000122692156996 0.0015202627499)
(-5.73104103551e-05 0.000118419567786 0.00150956896304)
(-6.98049256052e-05 0.000113077438999 0.00149543806505)
(-8.12459000628e-05 0.000106582056305 0.00147771696986)
(-9.05688558459e-05 9.99759207202e-05 0.00145617644363)
(8.91597951652e-05 9.8186717189e-05 0.00149737615341)
(7.96009278773e-05 0.000103785651267 0.00151605027053)
(6.81408674875e-05 0.000109287648966 0.00153119749081)
(5.5761809462e-05 0.000113777892965 0.00154314143545)
(4.25551915231e-05 0.000117352255135 0.00155208705905)
(2.87232499356e-05 0.000119948667465 0.00155826854057)
(1.44652778331e-05 0.000121525944455 0.00156188865391)
(-9.72275222485e-09 0.000122055021848 0.00156308077407)
(-1.44845202336e-05 0.00012152564997 0.00156188950898)
(-2.87418887141e-05 0.000119948099927 0.00155827047924)
(-4.25728390895e-05 0.000117351460678 0.00155209062451)
(-5.5778110988e-05 0.000113776946274 0.00154314758595)
(-6.81555524967e-05 0.000109286651275 0.00153120746516)
(-7.96138310636e-05 0.000103784450336 0.00151606272628)
(-8.91697903663e-05 9.81856291409e-05 0.00149738406433)
(8.67527228855e-05 9.52795637847e-05 0.00152941969745)
(7.70696015742e-05 9.97757467027e-05 0.00154532569714)
(6.57339617362e-05 0.000104192741449 0.00155804495108)
(5.36237880084e-05 0.000107772504123 0.00156795549307)
(4.08297862394e-05 0.000110614125699 0.0015752931913)
(2.75128513863e-05 0.00011267696191 0.00158031486825)
(1.38413245751e-05 0.000113929074524 0.0015832355858)
(-9.99139611731e-09 0.000114348793968 0.00158419390005)
(-1.38611170632e-05 0.000113928608198 0.00158323635245)
(-2.75320768908e-05 0.000112676047936 0.00158031662187)
(-4.08480790145e-05 0.000110612802917 0.00157529648194)
(-5.36408078773e-05 0.00010777085099 0.00156796134576)
(-6.57494476749e-05 0.000104190877329 0.00155805472569)
(-7.70833516272e-05 9.97735794874e-05 0.00154533769057)
(-8.67635826583e-05 9.52775099814e-05 0.00152942672767)
(8.35192722645e-05 9.14616769076e-05 0.00155398844766)
(7.38222291762e-05 9.47764221007e-05 0.0015673376396)
(6.27422425037e-05 9.80519677283e-05 0.00157786199482)
(5.10266183515e-05 0.000100696737528 0.00158594679464)
(3.87612868552e-05 0.000102797360929 0.00159184943468)
(2.60733073277e-05 0.000104322049269 0.00159584280475)
(1.31024579943e-05 0.000105246322817 0.0015981468259)
(-1.03119578443e-08 0.000105555777798 0.0015988995828)
(-1.3122904631e-05 0.000105245701008 0.00159814726463)
(-2.60932287499e-05 0.00010432081901 0.00159584385039)
(-3.87803390346e-05 0.00010279555108 0.00159185156223)
(-5.10444664079e-05 0.000100694420558 0.00158595100656)
(-6.27586177598e-05 9.80492732962e-05 0.00157786977344)
(-7.38368765063e-05 9.47733097638e-05 0.00156734702821)
(-8.35310250752e-05 9.14586621477e-05 0.00155399220743)
(7.9645982287e-05 8.68834016196e-05 0.00157252249605)
(7.00693850234e-05 8.89925960348e-05 0.00158366154441)
(5.93419421517e-05 9.1094401536e-05 0.00159227333167)
(4.81001382948e-05 9.28171877614e-05 0.0015987457048)
(3.64403452295e-05 9.41859168512e-05 0.00160338227253)
(2.44621670531e-05 9.51755497622e-05 0.001606474012)
(1.22768128199e-05 9.57726902441e-05 0.00160824051194)
(-1.06889371457e-08 9.59720005525e-05 0.00160881464365)
(-1.22980283283e-05 9.57719523694e-05 0.00160824031997)
(-2.44828997958e-05 9.51740804626e-05 0.00160647367869)
(-3.64602718903e-05 9.41837331843e-05 0.00160338205741)
(-4.8118922224e-05 9.28143419084e-05 0.00159874638317)
(-5.93592880131e-05 9.10910067981e-05 0.00159227644322)
(-7.00849746237e-05 8.89886559487e-05 0.00158366539419)
(-7.96586886313e-05 8.68795092333e-05 0.00157252037087)
(7.5397423106e-05 8.19740615799e-05 0.00158630743926)
(6.60741361126e-05 8.23413698982e-05 0.00159581450251)
(5.56439792088e-05 8.33892372109e-05 0.00160271964433)
(4.49155464602e-05 8.42344766422e-05 0.00160773543272)
(3.39134934084e-05 8.48955385058e-05 0.00161123829073)
(2.27100034555e-05 8.53637730421e-05 0.0016135319319)
(1.13800400162e-05 8.56421488651e-05 0.00161482671398)
(-1.11125684778e-08 8.57342784781e-05 0.00161524472129)
(-1.14021151484e-05 8.56413654308e-05 0.00161482564171)
(-2.27316332157e-05 8.53622061467e-05 0.00161352965534)
(-3.39343755343e-05 8.48931919069e-05 0.00161123468887)
(-4.49353468298e-05 8.42313713439e-05 0.00160773068505)
(-5.56623598574e-05 8.33854532366e-05 0.001602715071)
(-6.60906301584e-05 8.23368590206e-05 0.00159580760664)
(-7.54112082358e-05 8.19695499803e-05 0.00158629970645)
(2.59316899513e-07 3.98725759941e-07 0.000123954383335)
(1.79292871299e-07 5.11943307917e-07 0.000130157366698)
(1.48677962243e-07 5.79953602847e-07 0.000135815015369)
(1.15827766736e-07 6.35737852831e-07 0.000140717776076)
(8.43833719215e-08 6.78383439235e-07 0.000144701668917)
(5.48054904871e-08 7.08233331574e-07 0.000147637582705)
(2.69135543999e-08 7.25827767401e-07 0.000149437357272)
(2.51400966991e-10 7.3166001819e-07 0.000150047720177)
(-2.64660570994e-08 7.25814140881e-07 0.000149437448157)
(-5.45298689048e-08 7.08184488427e-07 0.000147637740756)
(-8.43905843005e-08 6.78268558685e-07 0.000144701846445)
(-1.16121898894e-07 6.35545001344e-07 0.000140717888571)
(-1.49184539381e-07 5.79628051134e-07 0.000135814901491)
(-1.79919646925e-07 5.11532942908e-07 0.000130156518541)
(-2.59815511055e-07 3.98251029643e-07 0.000123951180539)
(2.21574443054e-06 2.68540325948e-06 0.0003557463013)
(1.9526823061e-06 3.26368472161e-06 0.000372581174651)
(1.74411411276e-06 3.75715821134e-06 0.000387910476069)
(1.48275690303e-06 4.19688521632e-06 0.000401171452805)
(1.16690576911e-06 4.56052153177e-06 0.000411929925729)
(8.05560923568e-07 4.83225334024e-06 0.000419849694663)
(4.11303442117e-07 5.00026754137e-06 0.00042469999736)
(2.82738365935e-10 5.05720007268e-06 0.000426340597327)
(-4.10863084303e-07 5.00017735578e-06 0.000424700250368)
(-8.05502456638e-07 4.8320356911e-06 0.000419850132397)
(-1.16745885955e-06 4.56012375535e-06 0.00041193040887)
(-1.48395345421e-06 4.19628547953e-06 0.000401171739493)
(-1.74575798008e-06 3.75625684507e-06 0.000387910096773)
(-1.95452688405e-06 3.26256031366e-06 0.000372578659598)
(-2.21718368314e-06 2.68410822723e-06 0.000355737771452)
(5.25465451608e-06 6.08370330178e-06 0.000571757608115)
(4.76256755076e-06 7.27162310906e-06 0.000597679567322)
(4.2784758727e-06 8.35191876926e-06 0.000621215680729)
(3.65516681205e-06 9.32457302916e-06 0.000641530113565)
(2.88815468157e-06 1.01362335178e-05 0.000657978032853)
(1.99963431482e-06 1.07465266624e-05 0.00067006780277)
(1.02272078937e-06 1.11254582393e-05 0.000677462834327)
(-8.81348836125e-11 1.1254062467e-05 0.000679959526146)
(-1.02305094181e-06 1.11252395796e-05 0.000677463236668)
(-2.00042874793e-06 1.07460564529e-05 0.000670068506561)
(-2.88968111054e-06 1.01354745816e-05 0.000657978832325)
(-3.65747496176e-06 9.32352331135e-06 0.000641530650487)
(-4.28131329808e-06 8.35050451048e-06 0.00062121525265)
(-4.76556504506e-06 7.26987866422e-06 0.000597676014502)
(-5.25698816372e-06 6.08170770427e-06 0.000571745325541)
(8.89283570492e-06 1.00670058496e-05 0.000772302325031)
(8.12472024041e-06 1.19029505236e-05 0.000805715759874)
(7.29965030735e-06 1.36025121307e-05 0.000835920290907)
(6.23246674589e-06 1.51371732296e-05 0.000861904164968)
(4.92207256308e-06 1.64196226599e-05 0.00088288217891)
(3.4063941579e-06 1.73843371214e-05 0.000898267391455)
(1.74167234243e-06 1.79834540685e-05 0.000907662186665)
(-7.46956657035e-10 1.81867348695e-05 0.000910828662022)
(-1.74332075371e-06 1.79831159905e-05 0.000907662748026)
(-3.40850254695e-06 1.73836365707e-05 0.000898268399679)
(-4.92489349929e-06 1.64185398856e-05 0.000882883399396)
(-6.23604456397e-06 1.51357182916e-05 0.000861905183646)
(-7.30371589229e-06 1.36006510078e-05 0.000835920279057)
(-8.12882960923e-06 1.19006660011e-05 0.000805712154783)
(-8.89605071476e-06 1.00643910772e-05 0.00077228844398)
(1.27516510634e-05 1.42251005853e-05 0.000957001593042)
(1.16712422024e-05 1.66766128011e-05 0.000996219863623)
(1.0469420345e-05 1.89469383716e-05 0.00103146220665)
(8.91993317465e-06 2.09968381881e-05 0.0010616464438)
(7.03194343229e-06 2.27077406554e-05 0.00108592405504)
(4.85999919546e-06 2.39929623638e-05 0.00110367674915)
(2.48274256878e-06 2.47902950495e-05 0.00111449372365)
(-1.58635514091e-09 2.50606162735e-05 0.00111813340044)
(-2.48605151563e-06 2.47898481625e-05 0.00111449445791)
(-4.86370770587e-06 2.39920531291e-05 0.00110367811007)
(-7.0362577369e-06 2.27063623334e-05 0.00108592582126)
(-8.92487345822e-06 2.09950113648e-05 0.00106164821338)
(-1.04747173323e-05 1.89446630976e-05 0.00103146314016)
(-1.16764396301e-05 1.66738553717e-05 0.000996217194352)
(-1.27557468432e-05 1.42219329404e-05 0.000956987932182)
(1.65710287803e-05 1.82866039964e-05 0.00112538939334)
(1.51543001637e-05 2.12767310488e-05 0.00116869362904)
(1.3561014699e-05 2.4021920176e-05 0.00120732367944)
(1.15217813761e-05 2.64960444558e-05 0.00124023073466)
(9.06171325043e-06 2.85553018968e-05 0.00126657762506)
(6.25173170758e-06 3.00984705282e-05 0.00128577442425)
(3.19013411412e-06 3.10541853966e-05 0.00129744107567)
(-2.52173508679e-09 3.13778547616e-05 0.00130135983439)
(-3.19528380703e-06 3.10536359726e-05 0.00129744198998)
(-6.25718785008e-06 3.00973654525e-05 0.00128577617134)
(-9.06761961351e-06 2.85536462275e-05 0.00126658003628)
(-1.1528126776e-05 2.64938713837e-05 0.00124023348564)
(-1.35675332098e-05 2.40192580855e-05 0.0012073260235)
(-1.51605674582e-05 2.12735421978e-05 0.00116869270581)
(-1.6576021425e-05 1.82829473897e-05 0.00112537721598)
(2.01548263372e-05 2.20530972001e-05 0.001277204468)
(1.83905736291e-05 2.54739881719e-05 0.00132292871346)
(1.6408182873e-05 2.85695824911e-05 0.00136337000263)
(1.38963672492e-05 3.13505390887e-05 0.0013976046429)
(1.08997795727e-05 3.36560239791e-05 0.00142487059358)
(7.50454303376e-06 3.53781862349e-05 0.00144465502553)
(3.82452836789e-06 3.64423898197e-05 0.00145664339451)
(-3.49028732376e-09 3.68023388955e-05 0.00146066290923)
(-3.83158001532e-06 3.64417450965e-05 0.00145664447565)
(-7.511794959e-06 3.53768982531e-05 0.00144465714798)
(-1.09073090152e-05 3.36541090824e-05 0.00142487367448)
(-1.3904127996e-05 3.13480418491e-05 0.00139760849195)
(-1.64159176564e-05 2.85665607434e-05 0.00136337404673)
(-1.83978958975e-05 2.54703960925e-05 0.00132293003914)
(-2.01607405049e-05 2.20490115989e-05 0.00127719451673)
(2.33564970296e-05 2.53798599087e-05 0.00141250449431)
(2.12463146416e-05 2.91037763136e-05 0.00145911470804)
(1.88918050267e-05 3.24115069204e-05 0.00149994569773)
(1.59443616813e-05 3.53694850727e-05 0.00153427057309)
(1.24694055235e-05 3.7809418039e-05 0.00156144923229)
(8.56628327105e-06 3.96249033295e-05 0.00158107974907)
(4.35957858814e-06 4.0743812751e-05 0.00159293609723)
(-4.45007911702e-09 4.11217139347e-05 0.00159690377129)
(-4.36851449359e-06 4.07430809253e-05 0.00159293729368)
(-8.57531365821e-06 3.9623446974e-05 0.00158108215445)
(-1.247854411e-05 3.78072633363e-05 0.00156145287391)
(-1.5953526341e-05 3.53666874131e-05 0.00153427543829)
(-1.89007503159e-05 3.24081493674e-05 0.0014999514437)
(-2.12546895795e-05 2.909981193e-05 0.00145911835851)
(-2.33633472596e-05 2.53753808178e-05 0.00141249695244)
(2.60740712744e-05 2.81692040093e-05 0.00153168174387)
(2.36313941247e-05 3.20582212359e-05 0.00157783558016)
(2.0933932866e-05 3.54376643078e-05 0.00161784772593)
(1.76030117956e-05 3.84414605384e-05 0.00165123401528)
(1.37237768743e-05 4.09041043086e-05 0.0016775029211)
(9.40606004217e-06 4.27280901487e-05 0.00169638134347)
(4.7799789796e-06 4.38488412789e-05 0.00170774299537)
(-5.37475130852e-09 4.4226754587e-05 0.00171153747103)
(-4.7907320745e-06 4.38480332538e-05 0.00170774419697)
(-9.41681191344e-06 4.27264851721e-05 0.00169638381584)
(-1.37344847922e-05 4.09017343775e-05 0.00167750681518)
(-1.7613559623e-05 3.84383896944e-05 0.00165123952546)
(-2.0944082751e-05 3.54339931494e-05 0.00161785477574)
(-2.36408260379e-05 3.20539089612e-05 0.00157784108933)
(-2.60818700614e-05 2.81643563493e-05 0.00153167615847)
(2.82443839562e-05 3.03635467919e-05 0.00163542569164)
(2.54928749611e-05 3.42774131186e-05 0.00168001080401)
(2.2491307831e-05 3.75941738353e-05 0.00171824271567)
(1.88399677192e-05 4.05190409104e-05 0.00174989568659)
(1.46407186144e-05 4.28996044064e-05 0.00177463284549)
(1.00103620987e-05 4.46535260078e-05 0.00179231391963)
(5.07941093357e-06 4.57276023412e-05 0.00180291395088)
(-6.24890586376e-09 4.60891446245e-05 0.00180644645548)
(-5.09188513984e-06 4.57267332216e-05 0.00180291496753)
(-1.00227546867e-05 4.46518000621e-05 0.00179231607489)
(-1.46529394236e-05 4.28970544862e-05 0.00177463641384)
(-1.88518697024e-05 4.05157345091e-05 0.00174990108415)
(-2.25026557466e-05 3.7590220986e-05 0.00171825015565)
(-2.55033664859e-05 3.42727794744e-05 0.00168001704595)
(-2.8253144013e-05 3.03583543656e-05 0.00163542086407)
(2.98367742576e-05 3.19385198566e-05 0.00172465975426)
(2.6808405975e-05 3.57403163312e-05 0.00176681531642)
(2.3548961966e-05 3.8870701088e-05 0.0018025682336)
(1.96474266973e-05 4.16032460544e-05 0.00183193154799)
(1.52177875462e-05 4.38083952979e-05 0.00185471175054)
(1.03794887498e-05 4.54235457301e-05 0.00187089664333)
(5.25865588501e-06 4.64090521618e-05 0.00188055845118)
(-7.06234290778e-09 4.67401675136e-05 0.0018837707166)
(-5.27273555245e-06 4.64081437608e-05 0.00188055899346)
(-1.03934240788e-05 4.54217391017e-05 0.00187089788727)
(-1.52314514054e-05 4.38057183804e-05 0.00185471407511)
(-1.96606449263e-05 4.15997612116e-05 0.00183193558955)
(-2.35614962336e-05 3.88665174306e-05 0.00180257451904)
(-2.68199571943e-05 3.57354008658e-05 0.00176682039508)
(-2.98465026173e-05 3.19330129954e-05 0.00172465360497)
(3.08455077194e-05 3.28949952325e-05 0.00180046767585)
(2.75791547899e-05 3.64542438891e-05 0.00183960144841)
(2.4114325555e-05 3.92871106964e-05 0.00187244429531)
(2.00372850944e-05 4.17284378241e-05 0.00189918648425)
(1.54683405494e-05 4.3679535485e-05 0.0019197600513)
(1.05246914909e-05 4.50996570839e-05 0.00193427662542)
(5.32407706685e-06 4.59628971708e-05 0.00194290059097)
(-7.80574559911e-09 4.62523771769e-05 0.00194576016966)
(-5.33962776605e-06 4.59619788074e-05 0.00194290025943)
(-1.05400519535e-05 4.50978256324e-05 0.00193427612698)
(-1.54833570409e-05 4.3676807162e-05 0.00191975982059)
(-2.00517622272e-05 4.17248610891e-05 0.00189918735075)
(-2.41280187011e-05 3.92827805972e-05 0.00187244714508)
(-2.75917552035e-05 3.64491226872e-05 0.00183960263904)
(-3.08562094582e-05 3.28892385914e-05 0.0018004571574)
(3.12806578896e-05 3.32457237197e-05 0.00186401676863)
(2.78245144445e-05 3.64406351542e-05 0.00189984668406)
(2.42147298823e-05 3.88806949609e-05 0.00192961619897)
(2.00393009457e-05 4.09494143976e-05 0.00195359571301)
(1.54197058426e-05 4.25857839577e-05 0.00197184927388)
(1.04666232843e-05 4.37693679891e-05 0.00198462124001)
(5.2867278484e-06 4.44860880713e-05 0.00199216561669)
(-8.46780535633e-09 4.47259591159e-05 0.0019946594327)
(-5.30359104651e-06 4.4485195519e-05 0.00199216391423)
(-1.04832642468e-05 4.37675806839e-05 0.00198461794943)
(-1.54359532037e-05 4.25831031876e-05 0.00197184478636)
(-2.00549442376e-05 4.0945863293e-05 0.00195359096189)
(-2.42295175121e-05 3.88763411668e-05 0.00192961250365)
(-2.78381195929e-05 3.64354227116e-05 0.00189984047806)
(-3.12923066866e-05 3.32398303336e-05 0.00186399818762)
(3.11789648544e-05 3.30083182912e-05 0.00191647862696)
(2.75948612253e-05 3.57685136359e-05 0.00194917751061)
(2.39072695835e-05 3.77217583983e-05 0.00197594680143)
(1.97046826999e-05 3.93514979677e-05 0.00199713392993)
(1.51138831267e-05 4.06275161818e-05 0.00201303081762)
(1.02348762358e-05 4.15446563017e-05 0.00202403907326)
(5.16185601519e-06 4.20977361575e-05 0.00203049815717)
(-9.03483518796e-09 4.22824120548e-05 0.00203262542021)
(-5.17984437788e-06 4.20969074278e-05 0.00203049455024)
(-1.02526168956e-05 4.1542989109e-05 0.00202403184351)
(-1.5131195098e-05 4.06249945576e-05 0.00201302013746)
(-1.97213488508e-05 3.9348113821e-05 0.00199712058485)
(-2.39230358749e-05 3.77175343343e-05 0.00197593250705)
(-2.76093817373e-05 3.57633594766e-05 0.00194915958592)
(-3.11915232363e-05 3.30024003909e-05 0.00191644831649)
(3.05789641946e-05 3.26524769555e-05 0.001959093408)
(2.69645594828e-05 3.4626585093e-05 0.00198969585112)
(2.32501965773e-05 3.59608311815e-05 0.00201344958228)
(1.90833940173e-05 3.7065070455e-05 0.00203176814273)
(1.45912153318e-05 3.79160751004e-05 0.00204527448997)
(9.85754590626e-06 3.85219345121e-05 0.00205451992955)
(4.96387714265e-06 3.88847636433e-05 0.00205990531595)
(-9.49231934497e-09 3.90054186838e-05 0.00206167172646)
(-4.98277199106e-06 3.88840475368e-05 0.00205989944159)
(-9.87617039184e-06 3.85204882635e-05 0.00205450796374)
(-1.46093801681e-05 3.79138672688e-05 0.00204525618085)
(-1.91008831238e-05 3.70620641464e-05 0.00203174364425)
(-2.32667695276e-05 3.59570001549e-05 0.00201342063212)
(-2.69798093698e-05 3.46217556179e-05 0.00198965928431)
(-3.05924189002e-05 3.26468435495e-05 0.0019590520919)
(-6.23906568584e-08 -1.2781973406e-07 9.02837681838e-05)
(-1.4388375088e-08 -1.81884505818e-07 9.48238585866e-05)
(1.84605406318e-08 -2.13605026842e-07 9.89698520611e-05)
(4.04476049385e-08 -2.30372095338e-07 0.000102582748207)
(4.74199758345e-08 -2.35993826215e-07 0.000105531302463)
(4.05413417267e-08 -2.35524253907e-07 0.0001077117075)
(2.29317859545e-08 -2.33296905656e-07 0.000109051491535)
(-5.68593248431e-10 -2.32235474376e-07 0.000109506540736)
(-2.40339175922e-08 -2.3338699333e-07 0.000109051246653)
(-4.15448697685e-08 -2.35701597852e-07 0.000107711213416)
(-4.82993422746e-08 -2.36260150363e-07 0.000105530542112)
(-4.12702251443e-08 -2.30737811651e-07 0.000102581663951)
(-1.9225425941e-08 -2.14000897564e-07 9.89682913124e-05)
(1.37313961211e-08 -1.82320741841e-07 9.48214144185e-05)
(6.19037079539e-08 -1.28200394969e-07 9.0279215411e-05)
(2.8028131426e-09 -1.36095115081e-07 0.000268670125276)
(1.190416021e-07 -2.26874637857e-07 0.000281862650889)
(1.94157668394e-07 -2.66010973149e-07 0.000293931145683)
(2.32385474808e-07 -2.68880233318e-07 0.000304449656492)
(2.25531771834e-07 -2.48203468721e-07 0.00031303651862)
(1.7703011788e-07 -2.19678692632e-07 0.000319388758936)
(9.64749831272e-08 -1.96593378278e-07 0.000323291976701)
(-1.59580671421e-09 -1.87901562684e-07 0.000324614392578)
(-9.95884007969e-08 -1.96848230084e-07 0.000323291280027)
(-1.79925197315e-07 -2.20185055827e-07 0.000319387346889)
(-2.28147682745e-07 -2.48963132011e-07 0.000313034327451)
(-2.34818349497e-07 -2.69898330052e-07 0.000304446499471)
(-1.96417119355e-07 -2.67140159419e-07 0.000293926562281)
(-1.21003479695e-07 -2.28115316573e-07 0.000281855430981)
(-4.27384019381e-09 -1.37225852268e-07 0.000268657335912)
(2.7862096752e-07 1.19751800666e-07 0.000443144418255)
(4.37078099663e-07 6.24226453947e-08 0.000464513579735)
(5.27974035208e-07 7.58628990806e-08 0.000484057303965)
(5.52806152643e-07 1.37925417374e-07 0.000501084071934)
(5.00937405897e-07 2.25365555913e-07 0.000514980257345)
(3.78729492978e-07 3.11179049822e-07 0.000525258769632)
(2.02735391105e-07 3.72746189573e-07 0.000531572682749)
(-2.51171049111e-09 3.94955637225e-07 0.000533708661618)
(-2.07659875598e-07 3.72357941509e-07 0.000531571599967)
(-3.83377923414e-07 3.10400963825e-07 0.000525256564424)
(-5.05221388218e-07 2.24188631912e-07 0.000514976810735)
(-5.56797976369e-07 1.36356632545e-07 0.000501079072969)
(-5.31667447443e-07 7.40814853926e-08 0.000484050036491)
(-4.40325604546e-07 6.04790082739e-08 0.00046450220325)
(-2.81088965951e-07 1.17898310538e-07 0.000443124676348)
(8.34590727198e-07 7.0855035718e-07 0.000613092462133)
(1.01170004311e-06 7.61933942328e-07 0.000642053800137)
(1.08873729707e-06 8.99766584611e-07 0.000668497794859)
(1.06365899356e-06 1.08916933149e-06 0.000691510726721)
(9.24471201162e-07 1.2940868412e-06 0.000710276075091)
(6.81754093404e-07 1.47451159664e-06 0.000724147253151)
(3.60464373538e-07 1.59737146255e-06 0.000732662946436)
(-3.35175960811e-09 1.64077273205e-06 0.000735540392681)
(-3.67061423275e-07 1.59686124912e-06 0.000732661561113)
(-6.88053146216e-07 1.47348837442e-06 0.000724144418679)
(-9.30360805345e-07 1.29254402875e-06 0.000710271617108)
(-1.06916375781e-06 1.08712791144e-06 0.000691504232845)
(-1.09381349758e-06 8.97406860303e-07 0.000668488372107)
(-1.01619694251e-06 7.59340892395e-07 0.000642039176478)
(-8.38069742937e-07 7.05993029668e-07 0.000613067485784)
(1.63887645327e-06 1.58445612626e-06 0.000777646946858)
(1.81238730318e-06 1.80582187651e-06 0.000813462703323)
(1.84770031414e-06 2.12115999155e-06 0.00084606745849)
(1.73942437999e-06 2.48300511064e-06 0.000874386150333)
(1.47526021171e-06 2.84106988314e-06 0.000897441188775)
(1.07126008773e-06 3.14172755817e-06 0.000914462357975)
(5.61928285407e-07 3.34125421013e-06 0.000924901656187)
(-4.15010343472e-09 3.41096632505e-06 0.000928425222997)
(-5.70120242593e-07 3.3406337323e-06 0.000924900034711)
(-1.07914670031e-06 3.1404860744e-06 0.000914459029992)
(-1.48270959689e-06 2.8392086744e-06 0.000897435937264)
(-1.74640883352e-06 2.48055596101e-06 0.000874378501138)
(-1.85412960105e-06 2.11829203207e-06 0.000846056431566)
(-1.8181007356e-06 1.80262658654e-06 0.000813445736051)
(-1.64338249501e-06 1.58124443378e-06 0.000777618212114)
(2.64552100142e-06 2.68757528905e-06 0.000935769069413)