/*--------------------------------*- C++ -*----------------------------------*\
  =========                 |
  \\      /  F ield         | OpenFOAM: The Open Source CFD Toolbox
   \\    /   O peration     | Website:  https://openfoam.org
    \\  /    A nd           | Version:  7
     \\/     M anipulation  |
\*---------------------------------------------------------------------------*/
FoamFile
{
    version     2.0;
    format      ascii;
    class       volScalarField;
    location    "0.6";
    object      p;
}
// * * * * * * * * * * * * * * * * * * * * * * * * * * * * * * * * * * * * * //

dimensions      [0 2 -2 0 0 0 0];

internalField   nonuniform List<scalar> 
22500
(
-1.13379502274e-05
-1.13392593555e-05
-1.13402377469e-05
-1.13407815945e-05
-1.13412282203e-05
-1.1341500736e-05
-1.13415814561e-05
-1.13414581571e-05
-1.13411525833e-05
-1.13406583134e-05
-1.13400088243e-05
-1.13392448337e-05
-1.13384685731e-05
-1.13373617877e-05
-1.1335991335e-05
-1.13533776618e-05
-1.1355331889e-05
-1.1357192358e-05
-1.13585632798e-05
-1.135971971e-05
-1.13605387215e-05
-1.13609662085e-05
-1.13609664531e-05
-1.1360545568e-05
-1.13597119153e-05
-1.13585206147e-05
-1.13570471427e-05
-1.13554373704e-05
-1.13534365771e-05
-1.13514057201e-05
-1.13665042074e-05
-1.13690210799e-05
-1.13714620548e-05
-1.13734746003e-05
-1.13752033969e-05
-1.1376470794e-05
-1.13771859679e-05
-1.13772890777e-05
-1.13767726254e-05
-1.13756574868e-05
-1.13740215233e-05
-1.13719758137e-05
-1.13697191252e-05
-1.13671279193e-05
-1.13645231483e-05
-1.13758029011e-05
-1.13786302923e-05
-1.13812119982e-05
-1.13835285277e-05
-1.13855478075e-05
-1.13870528688e-05
-1.13879245695e-05
-1.13880864773e-05
-1.13875216911e-05
-1.13862593802e-05
-1.13843922935e-05
-1.13820582756e-05
-1.13794943793e-05
-1.13767527469e-05
-1.13738299841e-05
-1.13816748749e-05
-1.13843382408e-05
-1.13865635595e-05
-1.13887279121e-05
-1.13906389975e-05
-1.13920727132e-05
-1.13929045801e-05
-1.13930584039e-05
-1.13925142868e-05
-1.13913033865e-05
-1.13895167657e-05
-1.13872958253e-05
-1.13848834389e-05
-1.13824887584e-05
-1.13797228445e-05
-1.1383555587e-05
-1.13852664846e-05
-1.13864940892e-05
-1.13878631609e-05
-1.13891039875e-05
-1.13900290739e-05
-1.13905437793e-05
-1.13905942719e-05
-1.13901664251e-05
-1.13892848553e-05
-1.13880167917e-05
-1.13864722165e-05
-1.13848557651e-05
-1.13834513914e-05
-1.13816326837e-05
-1.13804656288e-05
-1.13801548543e-05
-1.13796040287e-05
-1.13793911956e-05
-1.13792819654e-05
-1.13791736959e-05
-1.13790403256e-05
-1.13788742696e-05
-1.1378675856e-05
-1.13784544333e-05
-1.1378230013e-05
-1.13780425339e-05
-1.13780102658e-05
-1.13783779844e-05
-1.13785750291e-05
-1.13714275757e-05
-1.13678671461e-05
-1.13646817907e-05
-1.13620478733e-05
-1.1359871919e-05
-1.13581830244e-05
-1.13570589591e-05
-1.13565592999e-05
-1.13567060965e-05
-1.13574862415e-05
-1.13588520112e-05
-1.13607381607e-05
-1.13631298889e-05
-1.13661278677e-05
-1.13695690863e-05
-1.13556421863e-05
-1.13475995814e-05
-1.13409329143e-05
-1.13350904147e-05
-1.13301824978e-05
-1.13264110292e-05
-1.13239845767e-05
-1.13230451149e-05
-1.13236417006e-05
-1.13257337501e-05
-1.13291906615e-05
-1.13338153819e-05
-1.13394188333e-05
-1.13458955026e-05
-1.13538113845e-05
-1.1332614058e-05
-1.13190086106e-05
-1.13081129981e-05
-1.12984163225e-05
-1.12902364494e-05
-1.12839812954e-05
-1.12800064691e-05
-1.12785435972e-05
-1.1279671678e-05
-1.12833199444e-05
-1.12892676661e-05
-1.12971701266e-05
-1.13066308621e-05
-1.13173350889e-05
-1.13308069259e-05
-1.13022325972e-05
-1.12822571672e-05
-1.12665691908e-05
-1.12525794243e-05
-1.12407638688e-05
-1.12317617045e-05
-1.12260804976e-05
-1.12240412934e-05
-1.12257519704e-05
-1.12311126678e-05
-1.12398131909e-05
-1.12513559889e-05
-1.12651125142e-05
-1.12806083798e-05
-1.13004419424e-05
-1.12646512809e-05
-1.1237974636e-05
-1.12172343341e-05
-1.11987591178e-05
-1.11831439284e-05
-1.11712840243e-05
-1.11638366188e-05
-1.11612016417e-05
-1.11635125693e-05
-1.11706439446e-05
-1.11822062523e-05
-1.11975522825e-05
-1.1215796252e-05
-1.12363441028e-05
-1.12628707328e-05
-1.12199960352e-05
-1.11872336602e-05
-1.11615855057e-05
-1.11386650396e-05
-1.11192883906e-05
-1.1104628644e-05
-1.10954657346e-05
-1.10922550414e-05
-1.10951447628e-05
-1.11039945663e-05
-1.11183596408e-05
-1.11374692834e-05
-1.1160159444e-05
-1.11856148164e-05
-1.12182204605e-05
-1.1169863582e-05
-1.11319150022e-05
-1.11014553124e-05
-1.10741901867e-05
-1.10512866193e-05
-1.10340926596e-05
-1.1023412483e-05
-1.10196974349e-05
-1.1023094151e-05
-1.10334637758e-05
-1.10503650886e-05
-1.10730030307e-05
-1.11000379122e-05
-1.11303021931e-05
-1.11680917808e-05
-1.11230612302e-05
-1.10753822465e-05
-1.10393351954e-05
-1.10074485576e-05
-1.09812421223e-05
-1.09618264167e-05
-1.09498619075e-05
-1.09457281768e-05
-1.09495469042e-05
-1.09612040389e-05
-1.09803295148e-05
-1.1006271353e-05
-1.1037925347e-05
-1.10737720417e-05
-1.11212948776e-05
-2.08463115326e-05
-2.08437098975e-05
-2.08402544632e-05
-2.08370079359e-05
-2.0834133272e-05
-2.08319473532e-05
-2.08306173294e-05
-2.08302515077e-05
-2.08308830214e-05
-2.08324660998e-05
-2.08348756565e-05
-2.08379270223e-05
-2.08412842148e-05
-2.08447743671e-05
-2.08473474254e-05
-2.08386305531e-05
-2.08363708585e-05
-2.08331905441e-05
-2.0830208411e-05
-2.08275481675e-05
-2.08255196003e-05
-2.08242843058e-05
-2.08239470365e-05
-2.08245402952e-05
-2.08260191033e-05
-2.08282628236e-05
-2.08310940827e-05
-2.08341873554e-05
-2.08374097453e-05
-2.08396524213e-05
-2.08377153623e-05
-2.08364777658e-05
-2.0834172861e-05
-2.08320039127e-05
-2.08300110704e-05
-2.082848016e-05
-2.08275498411e-05
-2.0827313471e-05
-2.08278006765e-05
-2.08289704664e-05
-2.08307146798e-05
-2.08328788033e-05
-2.08351610847e-05
-2.08375105616e-05
-2.08387328484e-05
-2.0843572969e-05
-2.08435388415e-05
-2.08422280309e-05
-2.08409409284e-05
-2.08396527911e-05
-2.08386335504e-05
-2.08380110548e-05
-2.0837874807e-05
-2.08382545461e-05
-2.08391102072e-05
-2.0840338538e-05
-2.08417960199e-05
-2.08431966477e-05
-2.08445540787e-05
-2.08445759916e-05
-2.08518725307e-05
-2.08525647947e-05
-2.08518012784e-05
-2.08509519132e-05
-2.08499844759e-05
-2.08491784103e-05
-2.08486746926e-05
-2.08485732434e-05
-2.0848908384e-05
-2.0849636407e-05
-2.08506448302e-05
-2.08517775665e-05
-2.08527392835e-05
-2.08535507611e-05
-2.08528498765e-05
-2.08593639418e-05
-2.08600393439e-05
-2.08592168099e-05
-2.08582475849e-05
-2.08571458554e-05
-2.0856215633e-05
-2.08556240495e-05
-2.08554871875e-05
-2.08558460647e-05
-2.08566511195e-05
-2.08577746126e-05
-2.08590353051e-05
-2.08601142396e-05
-2.0860985859e-05
-2.08603070065e-05
-2.08643937649e-05
-2.08643726816e-05
-2.08630099986e-05
-2.08615036355e-05
-2.08599444694e-05
-2.08586599813e-05
-2.08578431905e-05
-2.08576249065e-05
-2.08580523885e-05
-2.08590708334e-05
-2.0860538579e-05
-2.08622494836e-05
-2.08638620912e-05
-2.08652752865e-05
-2.08652969608e-05
-2.08663993435e-05
-2.08651951533e-05
-2.08629938484e-05
-2.08607064728e-05
-2.08585084579e-05
-2.08567445897e-05
-2.08556293208e-05
-2.08553055198e-05
-2.0855825373e-05
-2.08571300122e-05
-2.08590663607e-05
-2.08614080061e-05
-2.0863797667e-05
-2.08660507208e-05
-2.08672603174e-05
-2.08654217573e-05
-2.08627312537e-05
-2.08595245748e-05
-2.08563293258e-05
-2.08533997509e-05
-2.08510938751e-05
-2.08496440709e-05
-2.08492031681e-05
-2.08498270809e-05
-2.08514538039e-05
-2.08539211735e-05
-2.08569860472e-05
-2.08602793404e-05
-2.08635388505e-05
-2.08662385722e-05
-2.08617583543e-05
-2.08574170343e-05
-2.08531135388e-05
-2.0848949073e-05
-2.08452426202e-05
-2.0842364684e-05
-2.08405635347e-05
-2.08400000766e-05
-2.08407334925e-05
-2.08426990669e-05
-2.08457273525e-05
-2.08495606986e-05
-2.08538189441e-05
-2.08581764343e-05
-2.08625308751e-05
-2.08557710794e-05
-2.08497125356e-05
-2.08442645243e-05
-2.08391091736e-05
-2.08346114681e-05
-2.0831154912e-05
-2.08289999785e-05
-2.08283137852e-05
-2.08291572803e-05
-2.0831464435e-05
-2.083506057e-05
-2.08396767546e-05
-2.08449215833e-05
-2.08504245798e-05
-2.08564990873e-05
-2.08478232228e-05
-2.08400553223e-05
-2.08334464412e-05
-2.0827308091e-05
-2.08220331946e-05
-2.08180143277e-05
-2.08155190458e-05
-2.08147150226e-05
-2.08156643048e-05
-2.08183001563e-05
-2.0822448049e-05
-2.08278334119e-05
-2.0834057009e-05
-2.08407216453e-05
-2.08485091846e-05
-2.08383121443e-05
-2.0828863637e-05
-2.08210925308e-05
-2.08140071476e-05
-2.08080028947e-05
-2.08034690052e-05
-2.08006649535e-05
-2.07997561085e-05
-2.08007988954e-05
-2.08037325045e-05
-2.08083857751e-05
-2.08144926287e-05
-2.08216589012e-05
-2.08294859999e-05
-2.08389562864e-05
-2.08274568142e-05
-2.08163307085e-05
-2.08074891701e-05
-2.0799571353e-05
-2.07929658467e-05
-2.07880231253e-05
-2.07849829147e-05
-2.07839919295e-05
-2.07851062792e-05
-2.07882658602e-05
-2.07933179996e-05
-2.08000186724e-05
-2.08080139468e-05
-2.08169116367e-05
-2.08280602147e-05
-2.08139906409e-05
-2.08024404711e-05
-2.07928342498e-05
-2.07843580977e-05
-2.07774215728e-05
-2.07722810513e-05
-2.07691326207e-05
-2.07681059275e-05
-2.07692456271e-05
-2.07725036181e-05
-2.07777447734e-05
-2.07847694544e-05
-2.07933184512e-05
-2.08029840551e-05
-2.08145602668e-05
-1.24484500542e-05
-1.24498531523e-05
-1.24513298527e-05
-1.2452758483e-05
-1.2453987711e-05
-1.24549129093e-05
-1.24554655161e-05
-1.24556058652e-05
-1.24553182359e-05
-1.24546247731e-05
-1.24535760494e-05
-1.24522546559e-05
-1.24507793924e-05
-1.24493230458e-05
-1.2448004415e-05
-1.24495584221e-05
-1.24509276135e-05
-1.24523999388e-05
-1.24538345605e-05
-1.24550775688e-05
-1.24560190109e-05
-1.24565853912e-05
-1.24567329039e-05
-1.2456443586e-05
-1.24557418478e-05
-1.24546817508e-05
-1.24533498237e-05
-1.2451869769e-05
-1.24504145356e-05
-1.24491240173e-05
-1.24490812472e-05
-1.24503146335e-05
-1.24516741534e-05
-1.24530229851e-05
-1.24542042439e-05
-1.24551058542e-05
-1.24556513652e-05
-1.24557941318e-05
-1.24555149072e-05
-1.24548391661e-05
-1.24538230748e-05
-1.24525556409e-05
-1.24511628947e-05
-1.24498180083e-05
-1.24486581948e-05
-1.24483986284e-05
-1.24495397991e-05
-1.24508183794e-05
-1.24521058036e-05
-1.24532454444e-05
-1.24541222597e-05
-1.24546562851e-05
-1.24547977082e-05
-1.24545262181e-05
-1.24538680287e-05
-1.24528816051e-05
-1.24516589345e-05
-1.24503288381e-05
-1.24490631328e-05
-1.24479904382e-05
-1.24479142238e-05
-1.2449016574e-05
-1.24502587439e-05
-1.24515223264e-05
-1.24526508539e-05
-1.24535252958e-05
-1.24540614485e-05
-1.24542064098e-05
-1.24539388004e-05
-1.24532856717e-05
-1.24523079572e-05
-1.24511009864e-05
-1.24497967446e-05
-1.24485654268e-05
-1.2447524174e-05
-1.24476070047e-05
-1.24487144021e-05
-1.24499530528e-05
-1.24512203955e-05
-1.24523594689e-05
-1.24532469072e-05
-1.24537945282e-05
-1.24539462362e-05
-1.24536797921e-05
-1.24530228772e-05
-1.24520388712e-05
-1.24508263269e-05
-1.24495204036e-05
-1.24482905845e-05
-1.24472378417e-05
-1.24474648967e-05
-1.24486146965e-05
-1.24498772449e-05
-1.24511723002e-05
-1.24523401248e-05
-1.24532532715e-05
-1.24538197488e-05
-1.24539808006e-05
-1.24537135054e-05
-1.24530459455e-05
-1.24520436336e-05
-1.24508079616e-05
-1.24494769883e-05
-1.24482207547e-05
-1.24471178324e-05
-1.24475025772e-05
-1.24487310644e-05
-1.24500422816e-05
-1.2451384092e-05
-1.24525940703e-05
-1.24535416184e-05
-1.24541317278e-05
-1.2454303651e-05
-1.2454033913e-05
-1.24533508266e-05
-1.24523214528e-05
-1.24510491429e-05
-1.24496739781e-05
-1.24483670619e-05
-1.2447178427e-05
-1.24477279412e-05
-1.24490645805e-05
-1.24504430073e-05
-1.2451844261e-05
-1.24531040895e-05
-1.24540898739e-05
-1.24547050646e-05
-1.24548881267e-05
-1.2454615513e-05
-1.24539153751e-05
-1.24528550972e-05
-1.24515385373e-05
-1.24501063973e-05
-1.24487302641e-05
-1.24474260342e-05
-1.2448133464e-05
-1.2449600788e-05
-1.24510576795e-05
-1.24525231002e-05
-1.24538328617e-05
-1.24548545298e-05
-1.24554923315e-05
-1.24556853023e-05
-1.2455410631e-05
-1.24546955385e-05
-1.24536062389e-05
-1.24522449895e-05
-1.24507510197e-05
-1.24492944643e-05
-1.24478537131e-05
-1.24487040913e-05
-1.24503132857e-05
-1.24518518887e-05
-1.24533780703e-05
-1.24547303895e-05
-1.24557798102e-05
-1.24564337464e-05
-1.24566341406e-05
-1.24563593752e-05
-1.24556352052e-05
-1.24545246057e-05
-1.24531255561e-05
-1.24515729593e-05
-1.24500326393e-05
-1.2448444386e-05
-1.24494133032e-05
-1.24511668835e-05
-1.24527851691e-05
-1.24543623783e-05
-1.24557438177e-05
-1.2456807262e-05
-1.24574676487e-05
-1.24576715319e-05
-1.24573998546e-05
-1.24566756552e-05
-1.24555565969e-05
-1.24541328034e-05
-1.24525309302e-05
-1.24509091602e-05
-1.24491716681e-05
-1.2450209796e-05
-1.24521120664e-05
-1.24538102414e-05
-1.2455428027e-05
-1.24568220053e-05
-1.24578837944e-05
-1.24585386643e-05
-1.24587418036e-05
-1.24584765929e-05
-1.24577632344e-05
-1.24566510059e-05
-1.24552181385e-05
-1.24535772544e-05
-1.24518738473e-05
-1.24499831571e-05
-1.245106196e-05
-1.24531314363e-05
-1.24549015696e-05
-1.2456542333e-05
-1.24579256106e-05
-1.2458963892e-05
-1.24595993941e-05
-1.24597960065e-05
-1.24595419354e-05
-1.24588527565e-05
-1.24577678523e-05
-1.24563490988e-05
-1.24546863546e-05
-1.24529095081e-05
-1.24508486376e-05
-1.24525410157e-05
-1.24545208789e-05
-1.24562518575e-05
-1.24578065781e-05
-1.24590822413e-05
-1.246002572e-05
-1.24605972177e-05
-1.24607725931e-05
-1.24605438926e-05
-1.24599225038e-05
-1.24589362393e-05
-1.24576274539e-05
-1.24560515176e-05
-1.24543116593e-05
-1.24523365205e-05
-1.72026864095e-05
-1.72018204047e-05
-1.7200863539e-05
-1.71998889115e-05
-1.71990265017e-05
-1.71983584379e-05
-1.71979402762e-05
-1.71978036135e-05
-1.71979589944e-05
-1.71983888206e-05
-1.71990556578e-05
-1.71999004527e-05
-1.72008440898e-05
-1.72017650867e-05
-1.72026076053e-05
-1.72023620555e-05
-1.72015292116e-05
-1.72005891704e-05
-1.71996244738e-05
-1.71987659313e-05
-1.71980974724e-05
-1.71976770363e-05
-1.71975383022e-05
-1.71976931375e-05
-1.71981229446e-05
-1.71987886219e-05
-1.71996291947e-05
-1.72005632983e-05
-1.72014694021e-05
-1.72022798544e-05
-1.72030467561e-05
-1.72023083148e-05
-1.72014564706e-05
-1.72005631156e-05
-1.71997592791e-05
-1.7199127817e-05
-1.71987280504e-05
-1.71985949765e-05
-1.71987416189e-05
-1.71991490561e-05
-1.71997775112e-05
-1.72005651122e-05
-1.72014303674e-05
-1.72022511316e-05
-1.72029661157e-05
-1.72037245243e-05
-1.72030488141e-05
-1.72022612142e-05
-1.72014209894e-05
-1.72006569766e-05
-1.72000519552e-05
-1.71996666473e-05
-1.71995372391e-05
-1.7199677547e-05
-1.72000685949e-05
-1.72006699206e-05
-1.72014187434e-05
-1.72022334166e-05
-1.72029927479e-05
-1.72036460379e-05
-1.72041940376e-05
-1.72035456169e-05
-1.72027935428e-05
-1.7201984648e-05
-1.72012435967e-05
-1.72006531966e-05
-1.72002750197e-05
-1.72001467904e-05
-1.72002830038e-05
-1.7200664844e-05
-1.72012511538e-05
-1.72019784371e-05
-1.72027648579e-05
-1.72034914875e-05
-1.72041182975e-05
-1.72045219893e-05
-1.7203879502e-05
-1.72031452826e-05
-1.72023531136e-05
-1.72016241302e-05
-1.72010409107e-05
-1.72006658607e-05
-1.72005375558e-05
-1.72006710716e-05
-1.7201047732e-05
-1.72016260106e-05
-1.72023420803e-05
-1.7203114139e-05
-1.72038263171e-05
-1.72044488888e-05
-1.72047452125e-05
-1.72040915401e-05
-1.72033615219e-05
-1.72025764303e-05
-1.72018528874e-05
-1.72012727809e-05
-1.7200898664e-05
-1.72007696634e-05
-1.72009013004e-05
-1.72012752446e-05
-1.72018499874e-05
-1.72025619028e-05
-1.72033295465e-05
-1.72040407644e-05
-1.72046759207e-05
-1.72048755966e-05
-1.72041987772e-05
-1.72034623319e-05
-1.72026768707e-05
-1.72019536514e-05
-1.7201373859e-05
-1.72009994614e-05
-1.72008696357e-05
-1.72009999076e-05
-1.72013725487e-05
-1.72019465142e-05
-1.72026590278e-05
-1.72034294949e-05
-1.72041502475e-05
-1.7204811084e-05
-1.72049253973e-05
-1.72042149863e-05
-1.72034646017e-05
-1.72026745246e-05
-1.72019498362e-05
-1.72013700925e-05
-1.72009957715e-05
-1.72008655112e-05
-1.72009945368e-05
-1.72013659775e-05
-1.72019398841e-05
-1.72026550967e-05
-1.72034325788e-05
-1.72041700427e-05
-1.72048661775e-05
-1.7204908046e-05
-1.72041585421e-05
-1.72033901909e-05
-1.72025941759e-05
-1.72018685841e-05
-1.72012903009e-05
-1.72009176767e-05
-1.72007877385e-05
-1.72009152132e-05
-1.7201284243e-05
-1.72018567235e-05
-1.72025740554e-05
-1.72033597149e-05
-1.72041179028e-05
-1.72048550594e-05
-1.72048384189e-05
-1.72040461112e-05
-1.72032581023e-05
-1.72024576009e-05
-1.720173422e-05
-1.72011613084e-05
-1.72007933036e-05
-1.72006650867e-05
-1.72007902198e-05
-1.72011543416e-05
-1.72017219722e-05
-1.72024382691e-05
-1.72032305232e-05
-1.72040104611e-05
-1.72047917107e-05
-1.72047291499e-05
-1.72038928607e-05
-1.72030856508e-05
-1.72022837334e-05
-1.72015679941e-05
-1.72010054239e-05
-1.72006463703e-05
-1.72005213865e-05
-1.72006431659e-05
-1.72009986118e-05
-1.72015562986e-05
-1.72022664484e-05
-1.72030619201e-05
-1.72038631083e-05
-1.72046894943e-05
-1.72046048384e-05
-1.72037201152e-05
-1.72028910171e-05
-1.72020896872e-05
-1.72013857148e-05
-1.72008399399e-05
-1.72004932534e-05
-1.72003738344e-05
-1.7200490506e-05
-1.72008337192e-05
-1.72013760752e-05
-1.7202075256e-05
-1.72028719773e-05
-1.72036962992e-05
-1.72045717015e-05
-1.72044765456e-05
-1.72035308653e-05
-1.72026803502e-05
-1.72018827152e-05
-1.72011986287e-05
-1.72006749566e-05
-1.72003469916e-05
-1.72002339512e-05
-1.72003447781e-05
-1.72006707062e-05
-1.72011911736e-05
-1.7201872398e-05
-1.72026665676e-05
-1.72035135911e-05
-1.72044495661e-05
-1.72039913271e-05
-1.72030899743e-05
-1.72022909377e-05
-1.72015655086e-05
-1.72009586243e-05
-1.72005020223e-05
-1.72002179365e-05
-1.72001213773e-05
-1.72002170438e-05
-1.72004998726e-05
-1.72009551758e-05
-1.72015600524e-05
-1.72022830962e-05
-1.72030791555e-05
-1.72039716632e-05
-1.32185520796e-05
-1.3219126208e-05
-1.32197256251e-05
-1.32203141705e-05
-1.32208243136e-05
-1.32212113232e-05
-1.32214396763e-05
-1.32214906535e-05
-1.32213573635e-05
-1.32210503358e-05
-1.32205923351e-05
-1.32200208032e-05
-1.32193856456e-05
-1.32187674476e-05
-1.32181995408e-05
-1.32186799931e-05
-1.32192313751e-05
-1.3219820571e-05
-1.32204047112e-05
-1.32209146761e-05
-1.32213034983e-05
-1.32215344159e-05
-1.32215872773e-05
-1.32214542933e-05
-1.32211467563e-05
-1.32206886775e-05
-1.32201188446e-05
-1.32194889378e-05
-1.32188799151e-05
-1.32183331343e-05
-1.32181397584e-05
-1.32186273238e-05
-1.3219160885e-05
-1.32197032874e-05
-1.32201814374e-05
-1.32205482261e-05
-1.32207670208e-05
-1.32208168933e-05
-1.32206894681e-05
-1.32203962304e-05
-1.32199617881e-05
-1.32194256573e-05
-1.32188397768e-05
-1.32182861031e-05
-1.32178018211e-05
-1.32176195713e-05
-1.3218065648e-05
-1.32185594915e-05
-1.32190709019e-05
-1.32195259035e-05
-1.32198772451e-05
-1.32200880449e-05
-1.32201364219e-05
-1.32200136203e-05
-1.32197311963e-05
-1.32193143377e-05
-1.32188032055e-05
-1.32182499218e-05
-1.32177363811e-05
-1.3217292564e-05
-1.32172414062e-05
-1.32176663307e-05
-1.3218138019e-05
-1.32186324248e-05
-1.32190751589e-05
-1.32194187142e-05
-1.32196259482e-05
-1.32196744711e-05
-1.32195551335e-05
-1.32192796191e-05
-1.32188735231e-05
-1.32183774924e-05
-1.32178436846e-05
-1.32173529632e-05
-1.32169281051e-05
-1.32169547717e-05
-1.32173721145e-05
-1.32178312732e-05
-1.32183152632e-05
-1.32187506743e-05
-1.32190898276e-05
-1.32192955687e-05
-1.32193449248e-05
-1.3219228636e-05
-1.32189583317e-05
-1.32185598939e-05
-1.32180740222e-05
-1.32175526689e-05
-1.32170749518e-05
-1.32166568209e-05
-1.3216729466e-05
-1.32171460215e-05
-1.32175987322e-05
-1.32180768906e-05
-1.32185079656e-05
-1.32188444592e-05
-1.32190495162e-05
-1.32190999811e-05
-1.32189866853e-05
-1.32187210621e-05
-1.32183289832e-05
-1.32178507864e-05
-1.32173378846e-05
-1.3216867007e-05
-1.32164479446e-05
-1.32165527501e-05
-1.32169740767e-05
-1.32174244762e-05
-1.32178985493e-05
-1.32183260071e-05
-1.32186600189e-05
-1.32188642785e-05
-1.32189158094e-05
-1.32188056146e-05
-1.32185448532e-05
-1.3218158995e-05
-1.32176875569e-05
-1.32171810081e-05
-1.32167130416e-05
-1.32162881024e-05
-1.32164134692e-05
-1.32168413652e-05
-1.3217291421e-05
-1.32177617338e-05
-1.32181851017e-05
-1.32185157e-05
-1.32187182381e-05
-1.32187704707e-05
-1.32186636932e-05
-1.32184086665e-05
-1.32180300305e-05
-1.32175659433e-05
-1.32170654514e-05
-1.32165985e-05
-1.32161654468e-05
-1.32162989541e-05
-1.32167348516e-05
-1.32171847379e-05
-1.32176499162e-05
-1.32180671245e-05
-1.32183920609e-05
-1.32185913048e-05
-1.32186435007e-05
-1.32185406797e-05
-1.321829282e-05
-1.32179233731e-05
-1.32174685097e-05
-1.32169752252e-05
-1.32165091085e-05
-1.32160675373e-05
-1.32162001315e-05
-1.32166429617e-05
-1.32170916189e-05
-1.32175494326e-05
-1.32179572996e-05
-1.32182736639e-05
-1.32184672232e-05
-1.32185185474e-05
-1.32184202145e-05
-1.32181815402e-05
-1.3217824065e-05
-1.32173813203e-05
-1.32168974788e-05
-1.32164331294e-05
-1.32159841192e-05
-1.32161081928e-05
-1.32165573547e-05
-1.32170037407e-05
-1.32174511858e-05
-1.32178460904e-05
-1.32181497696e-05
-1.3218335057e-05
-1.32183841246e-05
-1.32182912019e-05
-1.32180639526e-05
-1.3217721915e-05
-1.32172948901e-05
-1.32168231604e-05
-1.32163619022e-05
-1.32159063992e-05
-1.32160107826e-05
-1.32164678565e-05
-1.32169129276e-05
-1.32173490659e-05
-1.3217727155e-05
-1.32180152901e-05
-1.32181889341e-05
-1.32182351033e-05
-1.32181476667e-05
-1.32179343344e-05
-1.32176107138e-05
-1.32172022343e-05
-1.3216743753e-05
-1.32162844516e-05
-1.32158212379e-05
-1.32158954944e-05
-1.32163683771e-05
-1.32168156647e-05
-1.3217239394e-05
-1.32175990194e-05
-1.32178672479e-05
-1.32180278941e-05
-1.32180690642e-05
-1.32179883049e-05
-1.32177902646e-05
-1.32174878245e-05
-1.32171002855e-05
-1.32166550332e-05
-1.32161945296e-05
-1.3215716036e-05
-1.32159499467e-05
-1.32164044561e-05
-1.32168163687e-05
-1.32171910435e-05
-1.32174984508e-05
-1.32177240885e-05
-1.32178560434e-05
-1.32178880919e-05
-1.32178178494e-05
-1.32176494996e-05
-1.32173915853e-05
-1.32170568915e-05
-1.32166621707e-05
-1.32162368152e-05
-1.32157767224e-05
-1.4934128912e-05
-1.49337338993e-05
-1.49332969785e-05
-1.49328575977e-05
-1.49324718811e-05
-1.49321753681e-05
-1.49319917567e-05
-1.49319319872e-05
-1.49319982809e-05
-1.49321815578e-05
-1.49324656432e-05
-1.4932825428e-05
-1.49332279553e-05
-1.49336219407e-05
-1.49339840939e-05
-1.49339900024e-05
-1.49336072623e-05
-1.49331768239e-05
-1.49327406943e-05
-1.49323559566e-05
-1.49320591586e-05
-1.49318744441e-05
-1.49318137633e-05
-1.49318798711e-05
-1.49320634831e-05
-1.49323476964e-05
-1.49327066424e-05
-1.49331062425e-05
-1.49334951901e-05
-1.49338450456e-05
-1.49342788549e-05
-1.49339352969e-05
-1.49335430501e-05
-1.49331376081e-05
-1.49327760452e-05
-1.49324943819e-05
-1.49323175367e-05
-1.49322584066e-05
-1.49323204826e-05
-1.49324944699e-05
-1.49327631585e-05
-1.49331002585e-05
-1.49334715201e-05
-1.49338253512e-05
-1.4934135764e-05
-1.49345585538e-05
-1.49342426753e-05
-1.4933878482e-05
-1.4933496033e-05
-1.49331513703e-05
-1.49328806064e-05
-1.4932709222e-05
-1.4932650889e-05
-1.49327096174e-05
-1.49328762715e-05
-1.49331333328e-05
-1.49334541845e-05
-1.49338044186e-05
-1.49341329904e-05
-1.49344178871e-05
-1.49347489494e-05
-1.49344467748e-05
-1.49340998596e-05
-1.49337329415e-05
-1.49333995272e-05
-1.49331355435e-05
-1.49329669389e-05
-1.49329083507e-05
-1.49329643628e-05
-1.49331260489e-05
-1.49333757119e-05
-1.49336864951e-05
-1.49340239507e-05
-1.49343382984e-05
-1.49346110878e-05
-1.49348849268e-05
-1.49345900617e-05
-1.49342546441e-05
-1.49338982422e-05
-1.49335725628e-05
-1.49333132902e-05
-1.493314662e-05
-1.49330876608e-05
-1.4933141408e-05
-1.49332991807e-05
-1.49335432768e-05
-1.49338468918e-05
-1.49341757312e-05
-1.49344818607e-05
-1.49347496973e-05
-1.49349867516e-05
-1.49346945843e-05
-1.49343668997e-05
-1.4934019354e-05
-1.49337006059e-05
-1.49334457551e-05
-1.49332809108e-05
-1.49332215557e-05
-1.49332730633e-05
-1.4933427141e-05
-1.4933666261e-05
-1.49339639907e-05
-1.49342864071e-05
-1.49345878995e-05
-1.49348551057e-05
-1.49350633209e-05
-1.49347720841e-05
-1.4934449618e-05
-1.49341092867e-05
-1.49337966514e-05
-1.4933546144e-05
-1.49333834618e-05
-1.49333240402e-05
-1.49333734345e-05
-1.49335237724e-05
-1.49337579815e-05
-1.49340502845e-05
-1.49343674544e-05
-1.49346666482e-05
-1.49349359694e-05
-1.49351222853e-05
-1.49348294623e-05
-1.49345107501e-05
-1.49341774936e-05
-1.4933871655e-05
-1.49336265124e-05
-1.49334667923e-05
-1.49334077664e-05
-1.49334549771e-05
-1.49336011131e-05
-1.49338298303e-05
-1.4934116337e-05
-1.49344284602e-05
-1.49347265645e-05
-1.49349995208e-05
-1.49351696371e-05
-1.49348751201e-05
-1.49345596821e-05
-1.49342338653e-05
-1.49339358264e-05
-1.49336971146e-05
-1.49335414978e-05
-1.493348339e-05
-1.49335282998e-05
-1.49336694933e-05
-1.49338916287e-05
-1.49341712985e-05
-1.49344778154e-05
-1.49347751315e-05
-1.49350523618e-05
-1.49352115652e-05
-1.49349143688e-05
-1.49346019546e-05
-1.49342847296e-05
-1.49339960491e-05
-1.49337658102e-05
-1.49336156424e-05
-1.49335592237e-05
-1.49336015553e-05
-1.49337367607e-05
-1.493395074e-05
-1.49342219327e-05
-1.49345216569e-05
-1.49348178682e-05
-1.49350996649e-05
-1.49352513945e-05
-1.49349507831e-05
-1.49346419449e-05
-1.49343344091e-05
-1.493405752e-05
-1.49338373151e-05
-1.49336944664e-05
-1.49336402372e-05
-1.49336797778e-05
-1.4933807607e-05
-1.49340115136e-05
-1.49342722288e-05
-1.4934563753e-05
-1.49348583696e-05
-1.4935145366e-05
-1.4935296972e-05
-1.49349900715e-05
-1.49346832474e-05
-1.49343862618e-05
-1.49341213836e-05
-1.49339140183e-05
-1.49337789326e-05
-1.49337280779e-05
-1.49337641189e-05
-1.49338835878e-05
-1.49340758682e-05
-1.49343247341e-05
-1.49346076505e-05
-1.4934901715e-05
-1.49351964672e-05
-1.49353460776e-05
-1.49350262775e-05
-1.49347231659e-05
-1.49344368407e-05
-1.49341879627e-05
-1.49339936201e-05
-1.49338692663e-05
-1.49338214562e-05
-1.49338541356e-05
-1.49339637363e-05
-1.49341423902e-05
-1.49343772686e-05
-1.49346501199e-05
-1.49349424346e-05
-1.49352507732e-05
-1.49352231251e-05
-1.49349437371e-05
-1.49346801287e-05
-1.49344379005e-05
-1.49342294994e-05
-1.49340694344e-05
-1.49339663694e-05
-1.49339265665e-05
-1.49339517604e-05
-1.49340399766e-05
-1.49341858048e-05
-1.49343803311e-05
-1.49346107459e-05
-1.49348638204e-05
-1.4935133596e-05
-1.29273193175e-05
-1.29275586522e-05
-1.29278084985e-05
-1.29280489569e-05
-1.29282526687e-05
-1.29284051444e-05
-1.29284948123e-05
-1.29285138662e-05
-1.29284583941e-05
-1.29283318827e-05
-1.29281428767e-05
-1.29279064587e-05
-1.29276421918e-05
-1.29273833958e-05
-1.29271401757e-05
-1.29273360402e-05
-1.29275647524e-05
-1.29278085852e-05
-1.29280464036e-05
-1.29282495259e-05
-1.29284023583e-05
-1.2928492726e-05
-1.29285122936e-05
-1.29284569998e-05
-1.29283305836e-05
-1.29281421467e-05
-1.29279072197e-05
-1.2927646119e-05
-1.29273922618e-05
-1.29271590635e-05
-1.29270658173e-05
-1.29272664208e-05
-1.29274846304e-05
-1.29277036537e-05
-1.29278932524e-05
-1.29280373175e-05
-1.29281228514e-05
-1.29281412844e-05
-1.29280885123e-05
-1.29279684953e-05
-1.29277906045e-05
-1.29275706728e-05
-1.2927329048e-05
-1.2927099761e-05
-1.29268941406e-05
-1.29268123798e-05
-1.29269939036e-05
-1.29271936615e-05
-1.29273992667e-05
-1.2927579698e-05
-1.29277180565e-05
-1.2927800654e-05
-1.29278186442e-05
-1.29277679439e-05
-1.29276526471e-05
-1.29274824399e-05
-1.2927273422e-05
-1.29270460076e-05
-1.29268344791e-05
-1.29266466319e-05
-1.29266244191e-05
-1.29267958246e-05
-1.29269849761e-05
-1.2927183015e-05
-1.29273588609e-05
-1.29274948201e-05
-1.29275765986e-05
-1.29275949974e-05
-1.29275459541e-05
-1.29274337056e-05
-1.29272681977e-05
-1.29270657738e-05
-1.29268468496e-05
-1.29266456925e-05
-1.29264664448e-05
-1.29264788415e-05
-1.29266458442e-05
-1.29268281444e-05
-1.29270217424e-05
-1.29271950982e-05
-1.29273299842e-05
-1.29274116474e-05
-1.29274307038e-05
-1.29273831178e-05
-1.29272732155e-05
-1.29271111188e-05
-1.2926913235e-05
-1.29266998963e-05
-1.29265050336e-05
-1.29263295073e-05
-1.29263614725e-05
-1.29265264979e-05
-1.29267045507e-05
-1.29268952044e-05
-1.29270668593e-05
-1.29272010823e-05
-1.2927282866e-05
-1.29273027098e-05
-1.29272566277e-05
-1.29271489502e-05
-1.29269898625e-05
-1.2926795636e-05
-1.29265864158e-05
-1.29263955787e-05
-1.29262208149e-05
-1.29262658935e-05
-1.2926430686e-05
-1.29266058479e-05
-1.2926794051e-05
-1.29269641139e-05
-1.29270974637e-05
-1.29271791139e-05
-1.29271996154e-05
-1.29271550847e-05
-1.29270497969e-05
-1.29268938115e-05
-1.29267030824e-05
-1.29264973978e-05
-1.29263092398e-05
-1.29261338596e-05
-1.29261863477e-05
-1.29263513091e-05
-1.29265241944e-05
-1.29267096887e-05
-1.29268774407e-05
-1.29270090836e-05
-1.2927089992e-05
-1.29271108852e-05
-1.29270680526e-05
-1.29269656056e-05
-1.29268132907e-05
-1.29266265151e-05
-1.29264245289e-05
-1.29262386656e-05
-1.29260622107e-05
-1.29261167482e-05
-1.29262818076e-05
-1.29264520994e-05
-1.29266340046e-05
-1.29267982783e-05
-1.29269270939e-05
-1.29270063524e-05
-1.2927027261e-05
-1.29269863105e-05
-1.29268873555e-05
-1.29267396578e-05
-1.29265577927e-05
-1.29263602521e-05
-1.2926176905e-05
-1.29260000619e-05
-1.29260521677e-05
-1.29262164339e-05
-1.29263837745e-05
-1.29265609438e-05
-1.29267202214e-05
-1.29268445914e-05
-1.29269210714e-05
-1.29269414539e-05
-1.29269025863e-05
-1.29268079634e-05
-1.29266660928e-05
-1.29264904266e-05
-1.2926298397e-05
-1.29261182052e-05
-1.29259419279e-05
-1.29259882466e-05
-1.29261512859e-05
-1.29263152014e-05
-1.29264864056e-05
-1.29266388608e-05
-1.29267571797e-05
-1.2926829452e-05
-1.29268487573e-05
-1.29268121717e-05
-1.29267228196e-05
-1.29265882273e-05
-1.29264202576e-05
-1.29262348712e-05
-1.29260584432e-05
-1.29258838893e-05
-1.2925919181e-05
-1.29260816776e-05
-1.29262430183e-05
-1.29264078515e-05
-1.29265523102e-05
-1.29266626059e-05
-1.29267296883e-05
-1.29267471325e-05
-1.29267130593e-05
-1.29266298823e-05
-1.29265037431e-05
-1.29263445778e-05
-1.29261661286e-05
-1.29259928624e-05
-1.29258198518e-05
-1.2925835724e-05
-1.29260007669e-05
-1.29261632616e-05
-1.29263229955e-05
-1.29264587387e-05
-1.29265607232e-05