/*--------------------------------*- C++ -*----------------------------------*\
  =========                 |
  \\      /  F ield         | OpenFOAM: The Open Source CFD Toolbox
   \\    /   O peration     | Website:  https://openfoam.org
    \\  /    A nd           | Version:  7
     \\/     M anipulation  |
\*---------------------------------------------------------------------------*/
FoamFile
{
    version     2.0;
    format      ascii;
    class       surfaceScalarField;
    location    "0.6";
    object      phi;
}
// * * * * * * * * * * * * * * * * * * * * * * * * * * * * * * * * * * * * * //

dimensions      [0 3 -1 0 0 0 0];

internalField   nonuniform List<scalar> 
65775
(
-1.4854029511e-11
-7.22906274122e-09
1.89247507734e-10
3.26871700299e-13
-3.00809752758e-11
-7.62146743784e-09
2.16984071177e-10
-3.46396612568e-11
-7.98996833449e-09
2.46244188928e-10
-3.24375855267e-11
-8.30781478725e-09
2.74433957357e-10
-2.64629734943e-11
-8.56461969811e-09
2.99211935611e-10
-1.83502053538e-11
-8.75397167116e-09
3.18546683334e-10
-9.09588150378e-12
-8.87306556529e-09
3.30935234086e-10
5.95928363772e-13
-8.91732221508e-09
3.35313955104e-10
9.99618997188e-12
-8.87305692006e-09
3.30869915562e-10
1.84080266874e-11
-8.75394444514e-09
3.18411417615e-10
2.48176101971e-11
-8.56455141806e-09
2.99001998002e-10
2.75733042362e-11
-8.30768730178e-09
2.74141570933e-10
2.36607414489e-11
-7.98981423095e-09
2.45856504047e-10
9.21372747857e-12
-7.62135603419e-09
2.16480977006e-10
-7.2292735074e-09
1.88611817689e-10
-4.20306394303e-12
-6.12354738344e-11
-1.37889275271e-08
-9.91363494022e-11
-6.32182485472e-13
-1.07743253268e-10
-1.45370466014e-08
-1.2284315271e-10
-1.23408997648e-10
-1.52438203071e-08
-1.41975130542e-10
-1.17679957888e-10
-1.5848357862e-08
-1.57189130476e-10
-9.72903097987e-11
-1.63341624389e-08
-1.68862267973e-10
-6.72682302932e-11
-1.66908183059e-08
-1.77220071666e-10
-3.16493897794e-11
-1.6914529176e-08
-1.82359461019e-10
5.89908153454e-12
-1.69975146313e-08
-1.84228830052e-10
4.20589597524e-11
-1.69147685933e-08
-1.82508828118e-10
7.3194252936e-11
-1.66912835602e-08
-1.77538963293e-10
9.52647104163e-11
-1.63347938661e-08
-1.69370594099e-10
1.03171057533e-10
-1.58490472571e-08
-1.57918337072e-10
9.0069897252e-11
-1.52445211421e-08
-1.42973298889e-10
4.64767164958e-11
-1.45378627075e-08
-1.24178550889e-10
-1.37901735515e-08
-1.00861158775e-10
-1.21746286601e-11
-1.25920398311e-10
-1.92224594019e-08
-8.27959320048e-10
3.10651823536e-13
-2.03963767982e-10
-2.02412844147e-08
-9.67393703776e-10
-2.33100621603e-10
-2.11912502114e-08
-1.09759176257e-09
-2.24127556585e-10
-2.1996311527e-08
-1.21339264684e-09
-1.85911219004e-10
-2.26388039091e-08
-1.30982945296e-09
-1.26696076152e-10
-2.31079995679e-08
-1.38256100838e-09
-5.47423316364e-11
-2.34014640465e-08
-1.42836170213e-09
2.14449582573e-11
-2.35103296538e-08
-1.44465770453e-09
9.39325271742e-11
-2.34018687344e-08
-1.4286170851e-09
1.54248562527e-10
-2.31087890111e-08
-1.38309569031e-09
1.94142971085e-10
-2.26399017952e-08
-1.31066614931e-09
2.05359332893e-10
-2.19975957327e-08
-1.21456727488e-09
1.79002451404e-10
-2.1192644735e-08
-1.09916257545e-09
1.04377589764e-10
-2.0242979858e-08
-9.69451648867e-10
-1.92247521599e-08
-8.30582786214e-10
-1.71721902849e-11
-1.98110020088e-10
-2.33151871705e-08
-1.76309801297e-09
5.64567978917e-13
-3.11906402652e-10
-2.45056285866e-08
-2.03645203745e-09
-3.57937785653e-10
-2.55900608789e-08
-2.29218833154e-09
-3.46707686616e-10
-2.65009949936e-08
-2.51945100846e-09
-2.88584421479e-10
-2.72233313972e-08
-2.70818587997e-09
-1.95050778925e-10
-2.7748595508e-08
-2.85001368329e-09
-7.95066733485e-11
-2.80765276671e-08
-2.93902096256e-09
4.33341030411e-11
-2.81983462725e-08
-2.97056450689e-09
1.5935685675e-10
-2.80770051751e-08
-2.93931613213e-09
2.53886463974e-10
-2.77495350993e-08
-2.85063143103e-09
3.13554832901e-10
-2.72246501965e-08
-2.70915489094e-09
3.26911604893e-10
-2.65025777654e-08
-2.52081556253e-09
2.83614110125e-10
-2.55918462831e-08
-2.2940185462e-09
1.7328792593e-10
-2.45079100825e-08
-2.03886006035e-09
-2.33183205228e-08
-1.76619439155e-09
-1.99649593062e-11
-2.70205604637e-10
-2.6052342503e-08
-2.7127591798e-09
5.01623526221e-13
-4.2353850622e-10
-2.73258713399e-08
-3.10580760987e-09
-4.88323583371e-10
-2.84551652648e-08
-3.46985712602e-09
-4.75114929194e-10
-2.93968013396e-08
-3.79071824457e-09
-3.95980395061e-10
-3.01400547124e-08
-4.05525792205e-09
-2.65992249399e-10
-3.06792937476e-08
-4.2528650134e-09
-1.04088652245e-10
-3.10157630145e-08
-4.37635668773e-09
6.83934915232e-11
-3.11409769551e-08
-4.42001640217e-09
2.30701224092e-10
-3.10162617614e-08
-4.37665408818e-09
3.61538980786e-10
-3.06802807021e-08
-4.25348808457e-09
4.42013583745e-10
-3.0141460791e-08
-4.05623910246e-09
4.57108317224e-10
-2.93985370578e-08
-3.79210688641e-09
3.94810291569e-10
-2.84572005682e-08
-3.47172951643e-09
2.44680289685e-10
-2.73285264021e-08
-3.10828812929e-09
-2.60560550286e-08
-2.71598492586e-09
-2.09158785732e-11
-3.36958493013e-10
-2.75557971413e-08
-3.54579554434e-09
3.24854250446e-13
-5.31702567795e-10
-2.8843956295e-08
-4.03145095104e-09
-6.15668427407e-10
-2.99573254411e-08
-4.47647988275e-09
-6.0051266869e-10
-3.08801353786e-08
-4.86565306685e-09
-5.00489655226e-10
-3.16067402568e-08
-5.18451650713e-09
-3.34623972493e-10
-3.21337220795e-08
-5.42156086452e-09
-1.27372109505e-10
-3.2462686694e-08
-5.56921207527e-09
9.35897702195e-11
-3.25852428288e-08
-5.62131598582e-09
3.01191436123e-10
-3.24631645157e-08
-5.56950125775e-09
4.67793357691e-10
-3.21346770815e-08
-5.42216539108e-09
5.6898747984e-10
-3.16081172798e-08
-5.18546787368e-09
5.85806976637e-10
-3.08818715171e-08
-4.86699873076e-09
5.04062644471e-10
-2.99594196953e-08
-4.47829296463e-09
3.12179798899e-10
-2.88467470524e-08
-4.03385451634e-09
-2.75598467737e-08
-3.54894150059e-09
-2.07117976679e-11
-3.96631362888e-10
-2.80095842313e-08
-4.20188219088e-09
1.47128558053e-13
-6.32584501786e-10
-2.92622830763e-08
-4.75484130512e-09
-7.35309736355e-10
-3.03224860394e-08
-5.25749284469e-09
-7.18328198533e-10
-3.11966968754e-08
-5.69470389172e-09
-5.98414257464e-10
-3.18846090114e-08
-6.05151055419e-09
-3.98733384808e-10
-3.23840582159e-08
-6.31598462281e-09
-1.49015471198e-10
-3.2696094391e-08
-6.48036164829e-09
1.1725851512e-10
-3.28123196136e-08
-6.53825079086e-09
3.67301949127e-10
-3.26965556499e-08
-6.48063939004e-09
5.67665375184e-10
-3.23849857769e-08
-6.31656736934e-09
6.88660522434e-10
-3.18859630713e-08
-6.05242586537e-09
7.0717064499e-10
-3.11984381447e-08
-5.69599164756e-09
6.06476034302e-10
-3.03246342128e-08
-5.25921499145e-09
3.73111724094e-10
-2.92651468292e-08
-4.75711497355e-09
-2.80138080221e-08
-4.20485927197e-09
-1.99930594234e-11
-4.50145758176e-10
-2.76067566051e-08
-4.67112092434e-09
2.84184153489e-14
-7.25779858966e-10
-2.8787431213e-08
-5.27322929238e-09
-8.46635056336e-10
-2.97719197907e-08
-5.8179290236e-09
-8.28103191177e-10
-3.05796635473e-08
-6.29035776804e-09
-6.89572582847e-10
-3.12157820612e-08
-6.67514850826e-09
-4.58378123389e-10
-3.16784939831e-08
-6.95994507937e-09
-1.69252670363e-10
-3.19677741171e-08
-7.136685953e-09
1.39011334914e-10
-3.20753199313e-08
-7.19876902708e-09
4.28463254371e-10
-3.19682254772e-08
-7.13696483278e-09
6.60337637956e-10
-3.16794049544e-08
-6.9605303646e-09
7.99931648205e-10
-3.12171281401e-08
-6.67605872744e-09
8.19946842542e-10
-3.05814227598e-08
-6.29161975075e-09
7.01031420326e-10
-2.97741286072e-08
-5.8195879898e-09
4.278320267e-10
-2.87903630603e-08
-5.27538716493e-09
-2.76111024255e-08
-4.67391839194e-09
-1.91905054343e-11
-4.99596648779e-10
-2.65232163552e-08
-4.9686215765e-09
-2.2946664402e-14
-8.13010991104e-10
-2.76045797137e-08
-5.60832044504e-09
-9.51569784407e-10
-2.84987506716e-08
-6.18564339686e-09
-9.31812046085e-10
-2.92289380138e-08
-6.68575913231e-09
-7.75717462614e-10
-2.98052025923e-08
-7.09277384213e-09
-5.14786678758e-10
-3.02253404667e-08
-7.3938050394e-09
-1.88571683698e-10
-3.04880261028e-08
-7.58037986017e-09
1.59176244098e-10
-3.05853164183e-08
-7.64570190875e-09
4.85735659787e-10
-3.04884864123e-08
-7.58067001574e-09
7.47377476921e-10
-3.02262731198e-08
-7.39440784011e-09
9.04568376418e-10
-2.98065995954e-08
-7.09369898827e-09
9.25829503462e-10
-2.92307912659e-08
-6.68701932939e-09
7.892002867e-10
-2.85011026341e-08
-6.18726493853e-09
4.78165332889e-10
-2.76076662214e-08
-5.61038781736e-09
-2.65276870943e-08
-4.97125841767e-09
-1.85284896809e-11
-5.47132055227e-10
-2.49103368045e-08
-5.11670111844e-09
-6.66417551448e-15
-8.96891451608e-10
-2.58720075523e-08
-5.78658409178e-09
-1.05313797092e-09
-2.66658361936e-08
-6.39053708571e-09
-1.03236334427e-09
-2.73120143797e-08
-6.9134812947e-09
-8.59217560585e-10
-2.78238788362e-08
-7.33889909468e-09
-5.69489180478e-10
-2.81979598027e-08
-7.6533718436e-09
-2.07486606734e-10
-2.84316346014e-08
-7.84800070039e-09
1.78318538839e-10
-2.85176525165e-08
-7.91586546672e-09
5.40693781924e-10
-2.8432123145e-08
-7.84830655009e-09
8.31183654771e-10
-2.81989561336e-08
-7.65400100988e-09
1.00549057809e-09
-2.78253855907e-08
-7.33985243959e-09
1.02783195328e-09
-2.73140420697e-08
-6.91475723088e-09
8.73559883475e-10
-2.66684289221e-08
-6.39214271608e-09
5.26200061847e-10
-2.58753691483e-08
-5.78858670069e-09
-2.49150372678e-08
-5.11920427951e-09
-1.80918593487e-11
-5.94481823517e-10
-2.28970668518e-08
-5.13609564923e-09
5.56269917932e-14
-9.80289071012e-10
-2.37240814623e-08
-5.83078521319e-09
-1.15465673031e-09
-2.44113047447e-08
-6.45686958633e-09
-1.13272510262e-09
-2.49714421473e-08
-6.99879608038e-09
-9.42303816013e-10
-2.54176268096e-08
-7.43942468661e-09
-6.23845848958e-10
-2.57443204279e-08
-7.7649093145e-09
-2.26415648649e-10
-2.59478458807e-08
-7.96600669099e-09
1.96974511595e-10
-2.60221015883e-08
-8.03579010769e-09
5.94810950132e-10
-2.59483884996e-08
-7.96632978567e-09
9.14095170248e-10
-2.57454289479e-08
-7.76556838444e-09
1.10576039239e-09
-2.54193215354e-08
-7.44041253235e-09
1.12935087151e-09
-2.49737406438e-08
-7.00009762654e-09
9.57038258204e-10
-2.44142562635e-08
-6.4584732888e-09
5.73694224356e-10
-2.37278570988e-08
-5.83274196898e-09
-2.2902115992e-08
-5.13848865131e-09
-1.78876985271e-11
-6.42925504694e-10
-2.0594668221e-08
-5.0431527848e-09
1.52794910816e-13
-1.06637129375e-09
-2.12760826896e-08
-5.7581134399e-09
-1.25943986429e-09
-2.18553642355e-08
-6.40242233369e-09
-1.23539743237e-09
-2.23325037194e-08
-6.959784338e-09
-1.02660493973e-09
-2.27149627156e-08
-7.41254402481e-09
-6.78748179206e-10
-2.29948787928e-08
-7.74664038686e-09
-2.45613489138e-10
-2.31683275174e-08
-7.95262990911e-09
2.15516222809e-10
-2.32307952997e-08
-8.02371826184e-09
6.49096415079e-10
-2.31689550763e-08
-7.9529694715e-09
9.9785162272e-10
-2.29961632161e-08
-7.74732857533e-09
1.20798965241e-09
-2.27169261347e-08
-7.41356701479e-09
1.23380266788e-09
-2.23351832858e-08
-6.96111513673e-09
1.04289932556e-09
-2.18588072307e-08
-6.40403129845e-09
6.22014079598e-10
-2.12804347116e-08
-5.76003434767e-09
-2.06002327012e-08
-5.04544999072e-09
-1.78769448952e-11
-6.94986161738e-10
-1.80998913058e-08
-4.84988764146e-09
2.64831518741e-13
-1.1600422111e-09
-1.86283498662e-08
-5.5811453741e-09
-1.37068612374e-09
-1.91069617988e-08
-6.24016394872e-09
-1.34173525709e-09
-1.95092645181e-08
-6.80951363445e-09
-1.1125292794e-09
-1.98322596112e-08
-7.2713157288e-09
-7.34283450875e-10
-2.00674302079e-08
-7.61160196814e-09
-2.65047943594e-10
-2.02118029881e-08
-7.82090024035e-09
2.34010971076e-10
-2.02629147928e-08
-7.89268569448e-09
7.03734904511e-10
-2.02125536215e-08
-7.8212534073e-09
1.08296630382e-09
-2.00689569093e-08
-7.61231462893e-09
1.31362925519e-09
-1.98345999463e-08
-7.27236953799e-09
1.34448403841e-09
-1.95124492533e-08
-6.81087231348e-09
1.13613903832e-09
-1.91110405028e-08
-6.24178038622e-09
6.73769879157e-10
-1.86334569565e-08
-5.58303138562e-09
-1.81061801391e-08
-4.85208682216e-09
-1.79581157962e-11
-7.61599259277e-10
-1.54898566087e-08
-4.56495170385e-09
4.02169320062e-13
-1.27040474298e-09
-1.58731909418e-08
-5.30972892226e-09
-1.49115629531e-09
-1.62711419109e-08
-5.98032380073e-09
-1.45170824731e-09
-1.66083688129e-08
-6.55819772892e-09
-1.19950630449e-09
-1.687630128e-08
-7.02592875391e-09
-7.90001757796e-10
-1.70693797357e-08
-7.3699942336e-09
-2.84564417126e-10
-1.71865564518e-08
-7.5810442132e-09
2.52384734954e-10
-1.72271027656e-08
-7.65293672651e-09
7.58362082765e-10
-1.71874723292e-08
-7.58140572852e-09
1.16894103149e-09
-1.70712379598e-08
-7.37072214613e-09
1.42273426886e-09
-1.68791266315e-08
-7.02700287307e-09
1.46423691982e-09
-1.66121980341e-08
-6.55957694386e-09
1.24593143167e-09
-1.62760197073e-08
-5.98194628965e-09
7.39953363355e-10
-1.587924852e-08
-5.31157605421e-09
-1.54971048114e-08
-4.56703046962e-09
-1.81615922972e-11
-8.75631326717e-10
-4.19345610594e-09
5.28936953832e-13
-1.28037078706e-08
-1.41190699386e-09
-4.95214680923e-09
-1.31130586072e-08
-1.63057815854e-09
-5.63092824027e-09
-1.34496759668e-08
-1.5752088078e-09
-6.2139644876e-09
-1.37281534604e-08
-1.29675961695e-09
-6.68486199258e-09
-1.39459964179e-08
-8.52446755883e-10
-7.03067555387e-09
-1.41020404349e-08
-3.06460106213e-10
-7.24219455094e-09
-1.41958893546e-08
2.73003784235e-10
-7.313707316e-09
-1.4227512614e-08
8.19577857017e-10
-7.24255522372e-09
-1.41970167699e-08
1.26506299622e-09
-7.03140131624e-09
-1.41043218809e-08
1.5452367437e-09
-6.68593295635e-09
-1.39494527509e-08
1.60282477466e-09
-6.21534050332e-09
-1.37328070142e-08
1.38679044038e-09
-5.63253954488e-09
-1.34555490626e-08
8.53502435945e-10
-4.95396666208e-09
-1.31202657002e-08
-4.1953395169e-09
-1.84000643663e-11
-1.28122407307e-08
-2.28057253341e-11
7.78679092369e-10
-5.66622427147e-10
-5.07815081749e-13
-3.79764090912e-11
8.6019165729e-10
-6.28853284292e-10
-4.46096446744e-11
9.3880251627e-10
-6.86846918377e-10
-4.40979330598e-11
1.01151363165e-09
-7.38435395255e-10
-3.68606893141e-11
1.07263515028e-09
-7.81300707765e-10
-2.42311700813e-11
1.1190002224e-09
-8.13519494875e-10
-8.0749349949e-12
1.14832552406e-09
-8.33831520109e-10
9.31735502424e-12
1.15886786475e-09
-8.41149007324e-10
2.54675650191e-11
1.14842081407e-09
-8.3385943399e-10
3.81073406912e-11
1.1192079532e-09
-8.13573600576e-10
4.54100503663e-11
1.07295420912e-09
-7.81377747591e-10
4.60522409559e-11
1.01191352851e-09
-7.38532187356e-10
3.9561125062e-11
9.39198858131e-10
-6.86962878415e-10
2.44155371974e-11
8.6051555127e-10
-6.28997623526e-10
7.78915562354e-10
-5.66831368458e-10
8.42062657232e-13
-4.25183542117e-11
2.1678776855e-09
-1.44707535892e-09
3.85390325317e-13
-7.00366744854e-11
2.36468964011e-09
-1.60119403676e-09
-8.26157806535e-11
2.55156028555e-09
-1.74368960406e-09
-8.12094685173e-11
2.72108567292e-09
-1.86953900551e-09
-6.72819301669e-11
2.86234414451e-09
-1.97352593682e-09
-4.34349706274e-11
2.96860956656e-09
-2.05137392447e-09
-1.31776839809e-11
3.03558111095e-09
-2.10033729184e-09
1.93049502246e-11
3.05978434412e-09
-2.11796647356e-09
4.94118426489e-11
3.03597956871e-09
-2.10044103271e-09
7.29596656675e-11
2.96946218108e-09
-2.05157172953e-09
8.64566901495e-11
2.86368207494e-09
-1.97380440729e-09
8.73597838524e-11
2.72277717042e-09
-1.86988245055e-09
7.41849100809e-11
2.55330001287e-09
-1.74408730564e-09
4.59338103472e-11
2.36607332632e-09
-1.60166172816e-09
2.16867881573e-09
-1.44768773544e-09
2.83196320558e-12
-4.25058147895e-11
3.56298284967e-09
-2.18056624826e-09
-8.14215090891e-13
-7.07400357422e-11
3.83800600461e-09
-2.41360819608e-09
-8.47423798767e-11
4.09505762112e-09
-2.62832023181e-09
-8.38987095884e-11
4.32309858528e-09
-2.81734647149e-09
-6.97622496339e-11
4.51066186889e-09
-2.97312814625e-09
-4.50302491991e-11
4.65023358378e-09
-3.08951054058e-09
-1.34396980869e-11
4.73777547722e-09
-3.16255263545e-09
2.05984735773e-11
4.7695474401e-09
-3.18875270161e-09
5.21333267235e-11
4.73825909962e-09
-3.1626617748e-09
7.6774093121e-11
4.65125069476e-09
-3.08972313646e-09
9.08175404477e-11
4.51222700921e-09
-2.97343430772e-09
9.15577426101e-11
4.32503654342e-09
-2.81773731542e-09
7.73141318495e-11
4.0970156223e-09
-2.62879596561e-09
4.84550824513e-11
3.83953175146e-09
-2.41420426723e-09
3.56384185249e-09
-2.18139038619e-09
3.96245400835e-12
-3.19593724495e-11
4.64843058433e-09
-2.81588793877e-09
-1.45728130048e-12
-5.37827593689e-11
4.94348345074e-09
-3.12118015957e-09
-6.58345564322e-11
5.21553569702e-09
-3.40178642411e-09
-6.59988641843e-11
5.45106978118e-09
-3.64829071874e-09
-5.51201380599e-11
5.64187739361e-09
-3.85107133924e-09
-3.5291660354e-11
5.78217542721e-09
-4.00233910162e-09
-9.59736936836e-12
5.86977346008e-09
-4.09710207662e-09
1.8257237529e-11
5.90181741832e-09
-4.13097253111e-09
4.39409793508e-11
5.8702508685e-09
-4.09721858748e-09
6.37658606825e-11
5.78316997457e-09
-4.00256871813e-09
7.46730117466e-11
5.64339376906e-09
-3.85140621642e-09
7.45214928311e-11
5.45293178653e-09
-3.6487259104e-09
6.22928184569e-11
5.217395679e-09
-3.40232810652e-09
3.97919734612e-11
4.94490092145e-09
-3.12187301966e-09
4.6491439376e-09
-2.81685397003e-09
5.01345697526e-12
-1.58528566996e-11
5.30555643656e-09
-3.35286792553e-09
-1.85569285494e-12
-2.87685027465e-11
5.57341799977e-09
-3.72370068227e-09
-3.77461043017e-11
5.817624123e-09
-4.0638787417e-09
-3.93999870837e-11
6.02341289053e-09
-4.36221457311e-09
-3.34484450153e-11
6.1873312905e-09
-4.60729092308e-09
-2.10326775893e-11
6.30632860173e-09
-4.7898963744e-09
-4.23021583401e-12
6.38039083628e-09
-4.90410467725e-09
1.42687290463e-11
6.40783822928e-09
-4.94478189864e-09
3.10905571587e-11
6.38081374068e-09
-4.9042316204e-09
4.35521824516e-11
6.30720134246e-09
-4.79014778955e-09
4.95780576016e-11
6.18863625694e-09
-4.60765904499e-09
4.795522816e-11
6.02499915122e-09
-4.36269488049e-09
3.8770334036e-11
5.81919455451e-09
-4.06447794244e-09
2.50959581938e-11
5.57462600557e-09
-3.72446507588e-09
5.30615972693e-09
-3.35392130102e-09
5.90765511192e-12
2.22461083877e-12
5.55219368919e-09
-3.79317284447e-09
-2.10463002254e-12
-1.69144056376e-12
5.76835274162e-09
-4.22326026204e-09
-7.46882519241e-12
5.96326792913e-09
-4.61718279389e-09
-1.08005447213e-11
6.12256959229e-09
-4.96221523134e-09
-1.02197196345e-11
6.24701825644e-09
-5.24536428727e-09
-5.82984729605e-12
6.33610466801e-09
-5.45615296637e-09
1.36548669494e-12
6.39146555125e-09
-5.58779314003e-09
9.75276140379e-12
6.41240987503e-09
-5.63451036015e-09
1.6988546305e-11
6.39182368756e-09
-5.58793419851e-09
2.14508704903e-11
6.33684412882e-09
-5.45643243226e-09
2.21192791424e-11
6.24812444627e-09
-5.24577249922e-09
1.88002761851e-11
6.12392451273e-09
-4.96274469425e-09
1.27676260461e-11
5.96463927535e-09
-4.61783594894e-09
8.03664645797e-12
5.76946800662e-09
-4.22408232729e-09
5.55280004763e-09
-3.79427967076e-09
6.61869107706e-12
1.99114452397e-11
5.47196763682e-09
-4.13987239364e-09
-2.25358576745e-12
2.4254543842e-11
5.63199844795e-09
-4.62346809788e-09
2.15387884651e-11
5.77369656211e-09
-5.06585651869e-09
1.66438070154e-11
5.88515712589e-09
-5.45296696864e-09
1.20845314633e-11
5.97001251973e-09
-5.77040632862e-09
8.73723461883e-12
6.0296750272e-09
-6.00655876964e-09
6.6395683361e-12
6.06676411942e-09
-6.15382961984e-09
5.22970514511e-12
6.08126436905e-09
-6.20589950139e-09
3.18743456596e-12
6.06705573307e-09
-6.15399507828e-09
-7.40171663913e-14
6.03027750658e-09
-6.0068811683e-09
-4.55159617944e-12
5.97091658556e-09
-5.77087130575e-09
-9.46680324437e-12
5.88628605562e-09
-5.45356053255e-09
-1.24848426657e-11
5.77490247498e-09
-5.06657295174e-09
-8.98555850028e-12
5.63309267019e-09
-4.6243443908e-09
5.47273574327e-09
-4.14101183179e-09
7.14240888672e-12
3.58634944955e-11
5.16316727316e-09
-4.39633306989e-09
-2.32619680192e-12
4.76486663076e-11
5.2744750354e-09
-4.92804027285e-09
4.78515597898e-11
5.36889432956e-09
-5.41389237243e-09
4.16830071449e-11
5.439127057e-09
-5.83866277612e-09
3.25042743743e-11
5.49038055963e-09
-6.1867467143e-09
2.20728238409e-11
5.5253731033e-09
-6.44552959794e-09
1.14034817579e-11
5.54718345439e-09
-6.6066813413e-09
9.30772712635e-13
5.55621090055e-09
-6.66343373956e-09
-9.67695836385e-12
5.54741254098e-09
-6.6068696566e-09
-2.00237818961e-11
5.52585068673e-09
-6.44589124124e-09
-2.91411287526e-11
5.49111451085e-09
-6.18726375005e-09
-3.53669092683e-11
5.44008981439e-09
-5.83931400915e-09
-3.55054188892e-11
5.37000694803e-09
-5.41466177564e-09
-2.45622183587e-11
5.27562527672e-09
-4.92895735222e-09
5.16416194849e-09
-4.39749152927e-09
7.48759869767e-12
4.94240776176e-11
4.71240468319e-09
-4.56536120535e-09
-2.35224546535e-12
6.79726320177e-11
4.78696662081e-09
-5.13980449785e-09
7.10016332804e-11
4.84386311451e-09
-5.66408246216e-09
6.39249124586e-11
4.88208056874e-09
-6.12202797887e-09
5.07426081273e-11
4.90748385858e-09
-6.49702112035e-09
3.40016826355e-11
4.92365313498e-09
-6.77560904182e-09
1.56202763386e-11
4.93379710348e-09
-6.94882173991e-09
-3.03659283746e-12
4.93855558591e-09
-7.00955993837e-09
-2.13597203739e-11
4.93395942738e-09
-6.94903181733e-09
-3.80299917622e-11
4.92400282748e-09
-6.7760120255e-09
-5.1182343303e-11
4.90804921669e-09
-6.4975934639e-09
-5.83605780739e-11
4.88288368352e-09
-6.12273942281e-09
-5.57058920491e-11
4.84489840062e-09
-5.66490538236e-09
-3.79873873391e-11
4.78819091292e-09
-5.14076045943e-09
4.71369431753e-09
-4.56653350769e-09
7.681968482e-12
6.04390185042e-11
4.18620394702e-09
-4.64895129454e-09
-2.34267523203e-12
8.51619458356e-11
4.23586414075e-09
-5.26056438443e-09
9.09516401672e-11
4.26522118367e-09
-5.81804651644e-09
8.33383463411e-11
4.28039738335e-09
-6.30451128306e-09
6.67769213857e-11
4.28738641547e-09
-6.70251990255e-09
4.45190655224e-11
4.29026872602e-09
-6.99795666767e-09
1.93078730167e-11
4.29214529237e-09
-7.18132581721e-09
-6.62320229251e-12
4.29379919956e-09
-7.245327697e-09
-3.17873588686e-11
4.29224846913e-09
-7.18155839194e-09
-5.40007922524e-11
4.29050696076e-09
-6.99840232102e-09
-7.05729329075e-11
4.28781515334e-09
-6.70314926228e-09
-7.83354204407e-11
4.28107758674e-09
-6.30528462036e-09
-7.29509823573e-11
4.26620741761e-09
-5.81892420206e-09
-4.90344071541e-11
4.23717232631e-09
-5.2615604003e-09
4.18776532497e-09
-4.65013697986e-09
7.74833560344e-12
6.90578925941e-11
3.63150825744e-09
-4.64845688609e-09
-2.32157842198e-12
9.93965432577e-11
3.66588447155e-09
-5.29143767895e-09
1.07902753541e-10
3.67633497368e-09
-5.87677498809e-09
1.00109750759e-10
3.67614925604e-09
-6.38701504339e-09
8.07616796123e-11
3.67115490168e-09
-6.80406576228e-09
5.37286465879e-11
3.66552791355e-09
-7.11332874126e-09
2.25222864238e-11
3.66209579601e-09
-7.30490827821e-09
-9.82643369058e-12
3.66166325082e-09
-7.37143985174e-09
-4.10044854835e-11
3.66214894743e-09
-7.30516335964e-09
-6.80274787037e-11
3.66567696916e-09
-7.11381731848e-09
-8.74372901479e-11
3.67147190673e-09
-6.80475301181e-09
-9.54308782111e-11
3.67673874276e-09
-6.38785203187e-09
-8.73611965387e-11
3.6772969403e-09
-5.87771010859e-09
-5.78088696403e-11
3.66728292236e-09
-5.29247779181e-09
3.63335032743e-09
-4.64965980149e-09
7.71787708687e-12
7.55734164313e-11
3.07972303045e-09
-4.5649104543e-09
-2.28961769715e-12
1.11035262583e-10
3.10543135166e-09
-5.23335095241e-09
1.22287603877e-10
3.10372542585e-09
-5.8412889262e-09
1.14654270309e-10
3.09444888523e-09
-6.37065395778e-09
9.30228628136e-11
3.08288916697e-09
-6.80282794211e-09
6.18477851372e-11
3.07284962498e-09
-7.12292575376e-09
2.53465949566e-11
3.06662595364e-09
-7.3207900837e-09
-1.26890631062e-11
3.06501054065e-09
-7.38912759481e-09
-4.91855182638e-11
3.06664603806e-09
-7.32106700214e-09
-8.03959110527e-11
3.07293813295e-09
-7.12345655951e-09
-1.02143235675e-10
3.08314401061e-09
-6.80357344288e-09
-1.10033134605e-10
3.09499385613e-09
-6.37155698922e-09
-9.92504579365e-11
3.10469871672e-09
-5.84228591055e-09
-6.45555659687e-11
3.10693506294e-09
-5.2344410027e-09
3.0818131151e-09
-4.56613731531e-09
7.60794046947e-12
8.03744621298e-11
2.55077923207e-09
-4.39929600139e-09
-2.26523516135e-12
1.20826938607e-10
2.57120855429e-09
-5.08756464399e-09
1.35030964801e-10
2.56245240911e-09
-5.7132762783e-09
1.27801349847e-10
2.54937869376e-09
-6.25737048057e-09
1.04193500329e-10
2.53595207821e-09
-6.7008949858e-09
6.92492083389e-11
2.52499880621e-09
-7.02893392349e-09
2.79230952135e-11
2.51819489176e-09
-7.23122227811e-09
-1.53290037412e-11
2.51615304604e-09
-7.30066867389e-09
-5.66804682382e-11
2.51820549638e-09
-7.23151935732e-09
-9.1707095923e-11
2.52507677126e-09
-7.02950469717e-09
-1.15495671227e-10
2.53619458481e-09
-6.70169789207e-09
-1.23038380142e-10
2.54993859281e-09
-6.25834223189e-09
-1.09337467333e-10
2.56349634862e-09
-5.71434112097e-09
-6.9646143884e-11
2.5728636093e-09
-5.0887097361e-09
2.5531518491e-09
-4.40054946251e-09
7.43056029403e-12
8.42255230989e-11
2.0563525514e-09
-4.15270599404e-09
-2.24242467819e-12
1.30436240598e-10
2.07155051241e-09
-4.85642756746e-09
1.47952367426e-10
2.0602477484e-09
-5.4957662262e-09
1.41043569374e-10
2.0483498872e-09
-6.05039409476e-09
1.15314117181e-10
2.03723721561e-09
-6.50160602613e-09
7.65827843315e-11
2.02844375227e-09
-6.83478790567e-09
3.04485256217e-11
2.02290386203e-09
-7.03971348747e-09
-1.79320410001e-11
2.02114418582e-09
-7.10960364804e-09
-6.41227564555e-11
2.02293991596e-09
-7.04002714643e-09
-1.02996767745e-10
2.02857102288e-09
-6.83539294528e-09
-1.28966764651e-10
2.03755857873e-09
-6.50246159393e-09
-1.3624184399e-10
2.04901154548e-09
-6.05143516036e-09
-1.19259698688e-10
2.06141866924e-09
-5.49690635896e-09
-7.38020567135e-11
2.07341413545e-09
-4.85763120115e-09
2.0590620639e-09
-4.15397609502e-09
7.18823623668e-12
8.44725482515e-11
-3.82850998438e-09
-2.23531662035e-12
1.60900162811e-09
1.41397993586e-10
-4.54674092301e-09
1.6090985588e-09
1.62785455262e-10
-5.19480158659e-09
1.60260641917e-09
1.55876147553e-10
-5.75509263156e-09
1.59628951717e-09
1.27639855706e-10
-6.20990541732e-09
1.59041896235e-09
8.4658660126e-11
-6.54518709934e-09
1.58583907785e-09
3.324022443e-11
-6.75083935972e-09
1.58289788102e-09
-2.08195163308e-11
-6.82047463364e-09
1.58189596214e-09
-7.23244373478e-11
-6.75116156529e-09
1.58300603189e-09
-1.15501410516e-10
-6.54581172945e-09
1.58609395071e-09
-1.44042289071e-10
-6.2107957278e-09
1.59091003196e-09
-1.5137516127e-10
-5.75618903283e-09
1.59714119475e-09
-1.30532920039e-10
-5.19601280577e-09
1.60400125827e-09
-7.43381288113e-11
-4.54802467935e-09
1.61123142548e-09
-3.82973524945e-09
6.88584225361e-12
1.61219258489e-09
1.38121518457e-11
-1.76005566335e-10
-4.04732730567e-10
-1.14764639509e-13
2.17333064863e-11
-1.9589958925e-10
-4.41418649424e-10
2.52730043004e-11
-2.1651141126e-10
-4.7448383773e-10
2.47882139347e-11
-2.35299052968e-10
-5.03191684727e-10
2.06694682554e-11
-2.51089246898e-10
-5.26596845626e-10
1.36588724363e-11
-2.62989629368e-10
-5.43944979055e-10
4.77040260516e-12
-2.70447938934e-10
-5.54805961808e-10
-4.78631651275e-12
-2.73060532381e-10
-5.58745228475e-10
-1.36555798092e-11
-2.70320889239e-10
-5.54817765145e-10
-2.0630699876e-11
-2.62741832633e-10
-5.43969501239e-10
-2.47201658416e-11
-2.50744556086e-10
-5.26635506525e-10
-2.52038354765e-11
-2.34884760236e-10
-5.03247052259e-10
-2.1661534651e-11
-2.16020319094e-10
-4.74561296101e-10
-1.37496633828e-11
-1.95449344834e-10
-4.41533497006e-10
-1.75709940451e-10
-4.04926853122e-10
-1.30843247733e-14
3.21343495318e-11
-3.86288604961e-10
-1.26828466715e-09
-1.3540179621e-12
5.12621486653e-11
-4.24696674167e-10
-1.3924896083e-09
5.97963328763e-11
-4.63931724713e-10
-1.50585216974e-09
5.8547301531e-11
-4.99445741716e-10
-1.60509361691e-09
4.85907190933e-11
-5.28952092479e-10
-1.6865437955e-09
3.17660164157e-11
-5.51005325705e-10
-1.74721132079e-09
1.0503044817e-11
-5.64776521002e-10
-1.78523803541e-09
-1.23132713497e-11
-5.69633857223e-10
-1.79892131784e-09
-3.34557944537e-11
-5.64603268797e-10
-1.78525947208e-09
-5.00126215723e-11
-5.50683604159e-10
-1.74725939613e-09
-5.95584354723e-11
-5.28532828481e-10
-1.68662468367e-09
-6.0294013125e-11
-4.98951746242e-10
-1.60521799618e-09
-5.11499659649e-11
-4.63339591758e-10
-1.50603967312e-09
-3.14524595453e-11
-4.24139979368e-10
-1.39278699867e-09
-3.8591338438e-10
-1.26878964485e-09
-2.55718696048e-13
4.15861049966e-11
-5.47754544916e-10
-2.06022132601e-09
-1.07544243753e-12
6.80693177215e-11
-5.96307974693e-10
-2.26921699967e-09
8.03510916969e-11
-6.44991678852e-10
-2.46031411225e-09
7.91574030597e-11
-6.88640546041e-10
-2.62770337091e-09
6.59911823818e-11
-7.24459444307e-10
-2.76513043065e-09
4.33904048133e-11
-7.50962042051e-10
-2.8675100327e-09
1.47034890751e-11
-7.67417077409e-10
-2.93163722821e-09
-1.61176844214e-11
-7.73224452564e-10
-2.95463331472e-09
-4.47031241243e-11
-7.67191172723e-10
-2.93169891239e-09
-6.70951534954e-11
-7.50541239705e-10
-2.86763638817e-09
-7.99675043164e-11
-7.23906618563e-10
-2.76532443521e-09
-8.08109112919e-11
-6.879958443e-10
-2.62797260637e-09
-6.81166782524e-11
-6.44264663516e-10
-2.46067839864e-09
-4.12118675063e-11
-5.95620320596e-10
-2.26973440182e-09
-5.47277750042e-10
-2.06101948519e-09
-3.15104351143e-13
4.57119119906e-11
-6.63110828449e-10
-2.74581264062e-09
-9.87626188899e-13
7.57996938286e-11
-7.15986494002e-10
-3.03230535078e-09
9.00726941619e-11
-7.67616282831e-10
-3.29420967109e-09
8.899502776e-11
-8.13106041425e-10
-3.52347718219e-09
7.42910390996e-11
-8.49869109852e-10
-3.71159337889e-09
4.88817719624e-11
-8.76741598346e-10
-3.85165848756e-09
1.65873211352e-11
-8.93315296278e-10
-3.93928926507e-09
-1.8116393852e-11
-8.99156823984e-10
-3.97060900281e-09
-5.03114586985e-11
-8.93028647992e-10
-3.93938744609e-09
-7.55248790999e-11
-8.76197427985e-10
-3.85185564142e-09
-8.99597812694e-11
-8.49122106144e-10
-3.71188903476e-09
-9.07161064158e-11
-8.12209938827e-10
-3.52387505716e-09
-7.60643973812e-11
-7.66628005341e-10
-3.29472687065e-09
-4.55723583828e-11
-7.15083263573e-10
-3.03300210799e-09
-6.62520011539e-10
-2.74682677066e-09
-4.47724930932e-13
4.60715075563e-11
-7.34389388078e-10
-3.32720010275e-09
-9.3306402531e-13
7.71018016803e-11
-7.87035739816e-10
-3.68420146457e-09
9.20705695968e-11
-8.36723672336e-10
-4.01029418592e-09
9.11625845e-11
-8.79467879769e-10
-4.29548568145e-09
7.61497205222e-11