/*--------------------------------*- C++ -*----------------------------------*\
  =========                 |
  \\      /  F ield         | OpenFOAM: The Open Source CFD Toolbox
   \\    /   O peration     | Website:  https://openfoam.org
    \\  /    A nd           | Version:  7
     \\/     M anipulation  |
\*---------------------------------------------------------------------------*/
FoamFile
{
    version     2.0;
    format      ascii;
    class       volVectorField;
    location    "0.6";
    object      U;
}
// * * * * * * * * * * * * * * * * * * * * * * * * * * * * * * * * * * * * * //

dimensions      [0 1 -1 0 0 0 0];

internalField   nonuniform List<vector> 
22500
(
(-3.20166928276e-05 -3.62884792041e-05 0.000191040578425)
(-2.93887701122e-05 -4.17078249797e-05 0.000202309236018)
(-2.58428108858e-05 -4.68309270191e-05 0.000213809809897)
(-2.15776135689e-05 -5.12761338635e-05 0.000224485138824)
(-1.67087300796e-05 -5.48893919042e-05 0.00023357530684)
(-1.14191340895e-05 -5.75452763215e-05 0.000240476760736)
(-5.84587329924e-06 -5.91723711355e-05 0.000244763527286)
(-1.251936393e-07 -5.97297676165e-05 0.000246193919439)
(5.598206878e-06 -5.9200479652e-05 0.000244701902345)
(1.11797731499e-05 -5.76002910918e-05 0.000240351860689)
(1.64827912458e-05 -5.49688354737e-05 0.000233384986693)
(2.13691795391e-05 -5.13759276094e-05 0.000224226048232)
(2.5655352751e-05 -4.69463071327e-05 0.000213475174745)
(2.92220484291e-05 -4.18337500629e-05 0.000201887016154)
(3.18816756277e-05 -3.64117777747e-05 0.000190523424392)
(-9.68387141722e-05 -0.000109026063714 0.000177291557271)
(-8.87551966043e-05 -0.000125121365252 0.000169940419405)
(-7.80969911296e-05 -0.00014034706377 0.000164954331729)
(-6.52522289666e-05 -0.000153516927995 0.000161582866476)
(-5.0587035414e-05 -0.000164201407435 0.00015929496212)
(-3.46000307726e-05 -0.000172054741978 0.000157746180426)
(-1.77202847451e-05 -0.000176867171428 0.000156782391085)
(-3.79233274605e-07 -0.000178511653541 0.000156382810871)
(1.69702329492e-05 -0.000176938801543 0.000156607956064)
(3.38758136977e-05 -0.000172194826052 0.000157391381709)
(4.99063920764e-05 -0.000164403205771 0.000158751963539)
(6.46318079816e-05 -0.000153769946392 0.000160839611812)
(7.75514738645e-05 -0.000140637189567 0.000163987774351)
(8.82914288794e-05 -0.00012543463693 0.00016871119058)
(9.6478629993e-05 -0.000109333303244 0.000175771318997)
(-0.000160610953469 -0.000179518087243 -0.00021000730665)
(-0.000146769371348 -0.00020559866164 -0.000267399313502)
(-0.000129043222187 -0.000229984348651 -0.000318028054259)
(-0.000107760290846 -0.000251005626582 -0.000360842841475)
(-8.35322632506e-05 -0.000268019750725 -0.000395190424086)
(-5.71063945985e-05 -0.000280521309443 -0.000420441163782)
(-2.91845296805e-05 -0.000288181056295 -0.000435982752652)
(-4.90416006516e-07 -0.000290793177841 -0.000441336176522)
(2.82126909061e-05 -0.000288279242917 -0.000436239459662)
(5.61620664058e-05 -0.000280714390808 -0.00042096585116)
(8.26343215945e-05 -0.000268300271605 -0.00039599765727)
(0.000106926812094 -0.000251361370197 -0.000361954448631)
(0.000128291638839 -0.000230398569367 -0.000319483301854)
(0.000146112607129 -0.000206054018849 -0.000269266094606)
(0.000160081489387 -0.000179977174565 -0.000212345604423)
(-0.000218921791964 -0.00024348116134 -0.000855398481709)
(-0.00019944962524 -0.000277725417685 -0.000970328382101)
(-0.000175039813433 -0.000309266411202 -0.00107130873889)
(-0.000145967156016 -0.000336352135993 -0.00115615982844)
(-0.000113057911113 -0.00035821574746 -0.00122366613459)
(-7.72290590187e-05 -0.000374268037692 -0.00127283602326)
(-3.93983107867e-05 -0.000384098922803 -0.00130282049826)
(-5.32642719577e-07 -0.000387444212686 -0.00131301347654)
(3.83412301312e-05 -0.000384204463632 -0.00130311225943)
(7.61971501206e-05 -0.000374476328689 -0.0012734366071)
(0.000112068954338 -0.000358520028879 -0.00122459808246)
(0.000145039065848 -0.000336741131155 -0.00115745673862)
(0.000174190952695 -0.000309724109871 -0.00107302727446)
(0.000198697337949 -0.000278235377342 -0.000972565956022)
(0.000218300673622 -0.000244008055947 -0.000858258208306)
(-0.000269075929499 -0.000298320266154 -0.00161578746034)
(-0.000244447079853 -0.000338444552107 -0.00177563726678)
(-0.00021400720102 -0.000374860145087 -0.00191299933886)
(-0.000178124733262 -0.000406028483365 -0.00202641280713)
(-0.0001377897882 -0.000431136499382 -0.00211531996843)
(-9.40220247853e-05 -0.000449564169507 -0.00217930607181)
(-4.7886837191e-05 -0.00046084783662 -0.00221797334255)
(-5.25440521292e-07 -0.00046468112386 -0.00223102035091)
(4.68429236553e-05 -0.00046094973561 -0.00221826935677)
(9.29995627401e-05 -0.000449765764693 -0.00217991927233)
(0.000136804330621 -0.000431432073118 -0.00211627902634)
(0.000177192563968 -0.000406408393365 -0.00202776065279)
(0.000213145560401 -0.000375310673284 -0.00191480604171)
(0.000243674917148 -0.000338951849412 -0.00177802349511)
(0.000268424969443 -0.0002988570629 -0.0016188983486)
(-0.000310221528395 -0.000343345029036 -0.00237613046114)
(-0.000281113158203 -0.000387127269715 -0.00256085281752)
(-0.000245456517453 -0.000426386472379 -0.00271560614811)
(-0.000203884530533 -0.000459900630412 -0.00284107660833)
(-0.000157487632209 -0.000486871787964 -0.00293806973825)
(-0.000107339174074 -0.000506672809927 -0.00300714495321)
(-5.4592230649e-05 -0.000518800404827 -0.00304857922586)
(-4.97167008324e-07 -0.000522915937128 -0.00306249081672)
(5.36038788647e-05 -0.000518894086929 -0.00304886780413)
(0.000106369229331 -0.000506858376895 -0.00300774504676)
(0.000156549552228 -0.000487144315809 -0.00293901293584)
(0.000202992631788 -0.000460251866891 -0.00284241044356)
(0.000244625986502 -0.000426804971239 -0.00271740730664)
(0.000280362541875 -0.000387601795489 -0.00256325546486)
(0.000309577507001 -0.000343858345014 -0.00237931135804)
(-0.000342613644273 -0.000378911020303 -0.00307043921897)
(-0.000309763145838 -0.000424391012099 -0.00326276712888)
(-0.000269752775303 -0.00046483764167 -0.00342028765449)
(-0.000223615542573 -0.000499285716719 -0.00354616224927)
(-0.000172475183235 -0.000527006807007 -0.00364248539251)
(-0.000117422442861 -0.000547375381292 -0.00371059669984)
(-5.96509689626e-05 -0.000559857844265 -0.00375125698782)
(-4.67331169883e-07 -0.000564091341036 -0.0037648697745)
(5.87217448622e-05 -0.000559942860438 -0.00375153866037)
(0.000116509919936 -0.000547543766162 -0.00371118297693)
(0.000171591434309 -0.000527253974144 -0.00364340804178)
(0.000222773257469 -0.000499604215553 -0.00354746911413)
(0.000268964979234 -0.00046521765169 -0.0034220558435)
(0.000309047004219 -0.000424823261536 -0.00326513564137)
(0.000341991019854 -0.000379387264193 -0.00307360356061)
(-0.000367022256007 -0.000405818461836 -0.00367491675546)
(-0.000331133075895 -0.000451312738641 -0.00386420227403)
(-0.000287606897333 -0.000491599548202 -0.00401667406396)
(-0.000237956131488 -0.000525828780821 -0.00413746287545)
(-0.00018327574533 -0.000553391163995 -0.00422942836161)
(-0.000124643949684 -0.000573667340073 -0.00429425520139)
(-6.32596898989e-05 -0.000586102829281 -0.00433287692717)
(-4.45071455015e-07 -0.000590319588112 -0.00434579379409)
(6.23748152842e-05 -0.00058618053629 -0.00433315704152)
(0.00012377520297 -0.000573821043186 -0.00429483751501)
(0.00018243452485 -0.000553616345977 -0.00423034331247)
(0.000237154062784 -0.000526118316751 -0.00413875598371)
(0.000286855324182 -0.000491944564878 -0.00401841893938)
(0.00033044751912 -0.000451705061714 -0.00386653743521)
(0.00036642087778 -0.000406256507656 -0.00367804579809)
(-0.000384340140089 -0.000424953251231 -0.00419116737937)
(-0.000346041183064 -0.000469001376941 -0.00437272276725)
(-0.000299778622389 -0.000507981005176 -0.00451759932673)
(-0.000247565043562 -0.00054101266306 -0.00463209335323)
(-0.000190416084226 -0.000567643099301 -0.00471924027149)
(-0.000129370747558 -0.000587262249572 -0.00478068320857)
(-6.56075324697e-05 -0.000599304993951 -0.00481729404174)
(-4.32709923608e-07 -0.000603388872549 -0.0048295413248)
(6.47474373956e-05 -0.000599376972224 -0.00481757860319)
(0.000128526886087 -0.000587404381714 -0.00478127343191)
(0.000189599659154 -0.000567850858087 -0.0047201647478)
(0.000246787074611 -0.000541279022568 -0.00463339413736)
(0.000299049304644 -0.000508297602011 -0.00451934475331)
(0.00034537452654 -0.000469360764935 -0.00437504890175)
(0.00038375215345 -0.000425357671059 -0.00419427911846)
(-0.000395380608034 -0.000437112011224 -0.00463154753303)
(-0.000355222280223 -0.000478416014774 -0.00480442491018)
(-0.000306943474341 -0.00051505416847 -0.00494202901439)
(-0.000253019402314 -0.000546026825516 -0.00505107268983)
(-0.000194350511439 -0.000571045354397 -0.00513431132585)
(-0.000131914800486 -0.0005895078625 -0.00519311936334)
(-6.68527232053e-05 -0.000600849657931 -0.00522820180991)
(-4.29467950975e-07 -0.000604696579551 -0.0052399477066)
(6.59992682931e-05 -0.000600917157371 -0.00522849586192)
(0.000131077980235 -0.000589640992044 -0.00519372776615)
(0.000193541588694 -0.000571239586941 -0.00513526093706)
(0.000252249144714 -0.000546275276762 -0.00505240190551)
(0.000306221365323 -0.000515348770441 -0.00494380038742)
(0.000354561120712 -0.000478749925483 -0.00480677224048)
(0.000394795381271 -0.000437489037998 -0.00463467434941)
(-0.000400816556358 -0.000442959930724 -0.00501026196091)
(-0.000359287079714 -0.000480330133977 -0.00517524370147)
(-0.000309669526508 -0.000513660703816 -0.00530698077509)
(-0.000254802734024 -0.000541809963783 -0.0054119925606)
(-0.0001954539583 -0.000564614110574 -0.00549247453849)
(-0.000132529844063 -0.000581471724297 -0.0055494649294)
(-6.71223312626e-05 -0.000591832710701 -0.00558350320737)
(-4.33594629797e-07 -0.000595347560695 -0.00559490953161)
(6.62607809302e-05 -0.000591896476626 -0.00558381043386)
(0.000131685390534 -0.00058159740784 -0.00555009922494)
(0.000194638009761 -0.000564797332417 -0.00549346151976)
(0.000254025980163 -0.00054204405767 -0.00541336726587)
(0.000308941082065 -0.000513937975058 -0.00530879982313)
(0.000358618758871 -0.00048064440405 -0.00517763938018)
(0.000400223261319 -0.000443314986792 -0.00501343774898)
(-0.000401178327824 -0.000443026023679 -0.00533927425349)
(-0.00035874556742 -0.000475344263197 -0.00549766789539)
(-0.000308447869987 -0.000504481383027 -0.00562511235505)
(-0.000253328984051 -0.000529153210944 -0.00572738028275)
(-0.000194038469059 -0.000549216449795 -0.0058060052066)
(-0.000131422350708 -0.000564063749766 -0.0058617532395)
(-6.65183951497e-05 -0.00057318600714 -0.00589506648012)
(-4.43355941697e-07 -0.000576280224048 -0.00590623649749)
(6.56374595737e-05 -0.000573246344577 -0.00589538919853)
(0.000130558875392 -0.000564182679127 -0.00586241853872)
(0.000193204045748 -0.000549389783745 -0.00580703825673)
(0.000252534335076 -0.00052937472819 -0.00572881346808)
(0.000307701939599 -0.000504743894589 -0.005626995975)
(0.000358059453256 -0.000475642378285 -0.00550013179975)
(0.000400567208577 -0.000443362447902 -0.00534252574016)
(-0.000396891114555 -0.000437608197469 -0.00562701564222)
(-0.00035410130329 -0.000463893685444 -0.00578031597115)
(-0.000303748479189 -0.000488125570186 -0.00590493148073)
(-0.000248964320545 -0.000508811044193 -0.00600536660228)
(-0.00019036194211 -0.000525678658332 -0.00608264127416)
(-0.00012875710788 -0.000538143265681 -0.00613741879533)
(-6.51213128077e-05 -0.000545784869314 -0.00617013970134)
(-4.57289299514e-07 -0.000548375245678 -0.006181113438)
(6.4212586626e-05 -0.000545841743959 -0.00617047877282)
(0.000127866137698 -0.000538255337612 -0.00613811744786)
(0.000189500404186 -0.000525842102452 -0.00608372535402)
(0.000248142961547 -0.000509020157178 -0.00600686730867)
(0.000302976272492 -0.000488373892434 -0.00590689250819)
(0.000353388908573 -0.00046417695062 -0.0057828593269)
(0.000396254541532 -0.000437926855742 -0.00563035088596)
(-0.000388642717722 -0.000426864581293 -0.00587819753313)
(-0.000346097840043 -0.000446329376422 -0.00602874071911)
(-0.000296066476706 -0.000465213142703 -0.00615180054836)
(-0.000242028823437 -0.000481535515436 -0.00625084058231)
(-0.000184635315996 -0.000494793548996 -0.0063268912887)
(-0.000124670297728 -0.000504528182445 -0.00638071614555)
(-6.29994933847e-05 -0.000510467743142 -0.00641283145879)
(-4.7421652236e-07 -0.000512478832765 -0.00642360014247)
(6.205702545e-05 -0.000510520840986 -0.0064131858301)
(0.000123745759107 -0.000504632829298 -0.00638144683581)
(0.000183740480423 -0.000494946262651 -0.00632802614064)
(0.000241174521521 -0.000481731256137 -0.00625241247602)
(0.000295261585743 -0.000465446613114 -0.00615384850691)
(0.000345352923226 -0.000446597636055 -0.0060313712737)
(0.000387973012544 -0.000427166952569 -0.00588159828489)
(-0.000378525992819 -0.000412408186551 -0.00609266237527)
(-0.000336107684837 -0.000423064171843 -0.00624580228964)
(-0.000286183260032 -0.000436580509751 -0.00636799386966)
(-0.000233157474727 -0.000448051734447 -0.0064658165666)
(-0.000177375945146 -0.00045722594762 -0.00654073200219)
(-0.000119541240503 -0.000463878419728 -0.0065936521668)
(-6.03540826119e-05 -0.000467909098498 -0.00662517625958)
(-4.93139024204e-07 -0.000469272832308 -0.00663573866833)
(5.93738639686e-05 -0.000467957757363 -0.00662554154169)
(0.000118579268878 -0.00046397457713 -0.00659440683742)
(0.000176444011989 -0.000457366645357 -0.00654190637906)
(0.000232266315145 -0.000448233025709 -0.00646744862072)
(0.000285341839256 -0.000436798064401 -0.00637012373384)
(0.000335328251149 -0.000423317546923 -0.00624854989497)
(0.000377817088339 -0.000412694346234 -0.00609603884577)
(1.63731893067e-06 2.54938217869e-06 -0.000116427863051)
(1.02808256577e-06 3.40923458989e-06 -0.000121271170556)
(5.29667187253e-07 4.00154509019e-06 -0.000125094582608)
(2.05145073739e-07 4.37478078449e-06 -0.000128087042952)
(1.95264187619e-09 4.60306502689e-06 -0.000130341432106)
(-7.21185360022e-08 4.72743348449e-06 -0.000131913529444)
(-5.25401009068e-08 4.78672427474e-06 -0.000132844017616)
(1.80856552072e-08 4.8060361714e-06 -0.000133156239947)
(8.81271747623e-08 4.79366684882e-06 -0.000132842241925)
(1.06231735101e-07 4.74154442792e-06 -0.000131910293068)
(3.11416038776e-08 4.6246919162e-06 -0.00013033776421)
(-1.7120589367e-07 4.40386985095e-06 -0.000128085458983)
(-4.92979410308e-07 4.03804494653e-06 -0.000125099493372)
(-9.87809826189e-07 3.45149505511e-06 -0.000121290637115)
(-1.59952820362e-06 2.59113305215e-06 -0.000116478177369)
(1.20525293583e-05 1.51580955856e-05 -0.000379852197601)
(1.03023834481e-05 1.86941744455e-05 -0.000397666501316)
(8.43481269757e-06 2.16601601464e-05 -0.000412450157792)
(6.68560955743e-06 2.39919549057e-05 -0.000424478434476)
(4.95676047502e-06 2.5768207392e-05 -0.000433841527474)
(3.29298131728e-06 2.70062015995e-05 -0.000440547097866)
(1.67734017344e-06 2.77389811585e-05 -0.000444585963343)
(8.95798061726e-08 2.79868305463e-05 -0.000445942245217)
(-1.50084415953e-06 2.77557669874e-05 -0.000444577540198)
(-3.12451823565e-06 2.70396532346e-05 -0.000440531490337)
(-4.80078297522e-06 2.58177099333e-05 -0.000433822485184)
(-6.54486522186e-06 2.40561177503e-05 -0.00042446430246)
(-8.31034108425e-06 2.17354974955e-05 -0.000412454916702)
(-1.01942106992e-05 1.87754376243e-05 -0.000397714484614)
(-1.19671064732e-05 1.52330406359e-05 -0.000379985108749)
(2.64268664973e-05 3.17084268209e-05 -0.000666867512482)
(2.3397435739e-05 3.79735920066e-05 -0.000699703694299)
(1.98188479634e-05 4.34767374734e-05 -0.000727415036444)
(1.6127019978e-05 4.79554307766e-05 -0.000750231618676)
(1.22362410837e-05 5.14547598201e-05 -0.000768148183121)
(8.24642502598e-06 5.39493309729e-05 -0.000781063558928)
(4.19069076206e-06 5.54475394966e-05 -0.000788873283749)
(1.04542516508e-07 5.59550217151e-05 -0.000791495896276)
(-3.98354015934e-06 5.54730538685e-05 -0.0007888632464)
(-8.04483425522e-06 5.40009877264e-05 -0.00078104525227)
(-1.20421793437e-05 5.15331063662e-05 -0.000768127270884)
(-1.59402200189e-05 4.8059191429e-05 -0.000750220638134)
(-1.96385456964e-05 4.36018362715e-05 -0.000727435207927)
(-2.32247782596e-05 3.8111602658e-05 -0.00069979148111)
(-2.62755729362e-05 3.18415941326e-05 -0.000667084206628)
(4.10127265805e-05 4.82025783009e-05 -0.000971932642908)
(3.6553865654e-05 5.6454806344e-05 -0.0010207632673)
(3.11632303308e-05 6.38037948136e-05 -0.0010622691799)
(2.5449982865e-05 6.98017340549e-05 -0.00109661111098)
(1.93715624819e-05 7.44932045819e-05 -0.00112365894025)
(1.30754451668e-05 7.78404048499e-05 -0.0011431953057)
(6.63555104256e-06 7.98509854963e-05 -0.00115501978441)
(1.26548812869e-07 8.05307904957e-05 -0.00115898826243)
(-6.38384764919e-06 7.9881629719e-05 -0.0011550098291)
(-1.28276928191e-05 7.79024767981e-05 -0.00114317752907)
(-1.91288262186e-05 7.45874584263e-05 -0.00112364043697)
(-2.52113517991e-05 6.99268782746e-05 -0.00109660730808)
(-3.09279799998e-05 6.39553265592e-05 -0.00106230617854)
(-3.6324581996e-05 5.66233390135e-05 -0.00102088548183)
(-4.08065392191e-05 4.83686398427e-05 -0.000972214313584)
(5.31297202852e-05 6.1641535709e-05 -0.00128849547024)
(4.71804362001e-05 7.08196163896e-05 -0.00135336013398)
(4.01237488828e-05 7.89826126508e-05 -0.00140864739537)
(3.26596951299e-05 8.55805690716e-05 -0.0014544865973)
(2.47950833378e-05 9.06990796072e-05 -0.00149062686048)
(1.66992639256e-05 9.43266913674e-05 -0.00151674478499)
(8.45729157187e-06 9.64958162644e-05 -0.00153255471023)
(1.4677245617e-07 9.72276396505e-05 -0.00153785837498)
(-8.16466423374e-06 9.65297182851e-05 -0.00153254818534)
(-1.64092902507e-05 9.43952261966e-05 -0.00151673387792)
(-2.45085012293e-05 9.08027415522e-05 -0.00149061910991)
(-3.23758093967e-05 8.5717810821e-05 -0.0014544983358)
(-3.98424136225e-05 7.91484821648e-05 -0.00140870641537)
(-4.69052380731e-05 7.10045919636e-05 -0.00135351467878)
(-5.28783532676e-05 6.18264997259e-05 -0.00128882682338)
(6.17959828425e-05 7.09673533263e-05 -0.00161124385272)
(5.4451112458e-05 8.01597954703e-05 -0.00169175249954)
(4.60541959471e-05 8.82516588781e-05 -0.00176045702521)
(3.72844622331e-05 9.46985904703e-05 -0.00181749396316)
(2.81868756024e-05 9.96414711243e-05 -0.00186249282679)
(1.8923346775e-05 0.000103112817103 -0.00189502391437)
(9.56386970155e-06 0.000105176348346 -0.00191471762496)
(1.6260428186e-07 0.000105871351878 -0.00192132326962)
(-9.23915355445e-06 0.000105211847915 -0.00191471873649)
(-1.86002374528e-05 0.000103184451385 -0.00189502794581)
(-2.78660120348e-05 9.97493766644e-05 -0.00186250662425)
(-3.69655941566e-05 9.48409511871e-05 -0.00181753262625)
(-4.57377763584e-05 8.84233588143e-05 -0.00176054686626)
(-5.41412114963e-05 8.03517970577e-05 -0.00169194248341)
(-6.15091375811e-05 7.11620325599e-05 -0.00161161687924)
(6.70675828484e-05 7.63183313076e-05 -0.00193673989522)
(5.85622677513e-05 8.49274977112e-05 -0.00203240197848)
(4.92341391035e-05 9.23723476289e-05 -0.00211409159788)
(3.96369191726e-05 9.82145025711e-05 -0.00218197623973)
(2.98380092841e-05 0.000102637294263 -0.00223556397146)
(1.99704390583e-05 0.000105714582899 -0.00227431516429)
(1.00754109797e-05 0.00010753340733 -0.00229777635633)
(1.73612694637e-07 0.000108145550471 -0.00230564602592)
(-9.72830802082e-06 0.000107569162215 -0.0022977892347)
(-1.96240965877e-05 0.000105786621108 -0.00227434227593)
(-2.94931375188e-05 0.000102745477565 -0.00223561045149)
(-3.92937856318e-05 9.83567934388e-05 -0.00218205403231)
(-4.88937052775e-05 9.25437774347e-05 -0.00211422284133)
(-5.82286591631e-05 8.51196907805e-05 -0.00203263443729)
(-6.67548300757e-05 7.65161114765e-05 -0.00193715386946)
(6.9473391501e-05 7.83698299166e-05 -0.00226283357357)
(6.01196197259e-05 8.60842715381e-05 -0.00237308168776)
(5.02644999061e-05 9.25822905773e-05 -0.00246722190783)
(4.02643397809e-05 9.7608209155e-05 -0.00254549656836)
(3.01974219535e-05 0.000101364327913 -0.00260730039472)
(2.01582625643e-05 0.000103954487344 -0.00265199260151)
(1.01565473752e-05 0.000105477509213 -0.00267904764218)
(1.8043745633e-07 0.000105990334372 -0.00268812336488)
(-9.79554369641e-06 0.000105512460494 -0.00267907655033)
(-1.97974711934e-05 0.000104024738449 -0.00265205109633)
(-2.98376651994e-05 0.000101469500625 -0.00260739092794)
(-3.99062891115e-05 9.77462347858e-05 -0.00254562631129)
(-4.99094319024e-05 9.274856986e-05 -0.00246740663861)
(-5.97713818413e-05 8.62714212746e-05 -0.00237336567737)
(-6.91431498993e-05 7.85655403247e-05 -0.00226329519983)
(6.96661655421e-05 7.7923750767e-05 -0.00258778025371)
(5.97853874008e-05 8.46268497406e-05 -0.0027118217628)
(4.97497829e-05 9.00642380511e-05 -0.00281762887819)
(3.96837222965e-05 9.42110226957e-05 -0.00290559987404)
(2.96699177695e-05 9.7267937274e-05 -0.00297503929388)
(1.9764311677e-05 9.93570702527e-05 -0.00302523037569)
(9.94859263745e-06 0.000100579598288 -0.00305560158456)
(1.84119670707e-07 0.000100991873328 -0.00306578973699)
(-9.58009575414e-06 0.000100612802812 -0.00305565052889)
(-1.93957413897e-05 9.94236650911e-05 -0.00302532778345)
(-2.93021994574e-05 9.73674248633e-05 -0.00297518425165)
(-3.93178699887e-05 9.43414845088e-05 -0.00290579366227)
(-4.93872368409e-05 9.0221613224e-05 -0.00281787941282)
(-5.94295723496e-05 8.48048599779e-05 -0.00271216884779)
(-6.9325105059e-05 7.81133739482e-05 -0.00258830037444)
(6.82454397927e-05 7.57006749924e-05 -0.00290959497119)
(5.81242630716e-05 8.13834316109e-05 -0.00304626337496)
(4.81787783907e-05 8.57530980924e-05 -0.00316261243374)
(3.829663845e-05 8.90345109825e-05 -0.00325929682831)
(2.85607388232e-05 9.14151053781e-05 -0.00333555274364)
(1.8993649554e-05 9.30257787103e-05 -0.00339062056485)
(9.55480340067e-06 9.39635419862e-05 -0.00342391818229)
(1.85646410151e-07 9.42806581356e-05 -0.00343508700246)
(-9.18321750401e-06 9.39942451616e-05 -0.00342399071343)
(-1.86219185002e-05 9.30872576007e-05 -0.00339076368533)
(-2.81898660066e-05 9.15068722452e-05 -0.00333576179154)
(-3.79278215748e-05 8.91548799885e-05 -0.00325956654273)
(-4.78135152348e-05 8.58987433087e-05 -0.00316294197272)
(-5.77654817611e-05 8.15493256352e-05 -0.0030466880289)
(-6.78983420574e-05 7.58810160944e-05 -0.00291018882721)
(6.56924906789e-05 7.22685081418e-05 -0.00322572240555)
(5.55632603971e-05 7.69674787301e-05 -0.00337341724524)
(4.59071032793e-05 8.03145534103e-05 -0.00349887692881)
(3.63876480433e-05 8.27784809247e-05 -0.0036030624257)
(2.70826647164e-05 8.45299563001e-05 -0.00368513300022)
(1.79876912889e-05 8.57002587595e-05 -0.00374431932374)
(9.04603143035e-06 8.63775615038e-05 -0.00378006974615)
(1.85874453692e-07 8.66076578253e-05 -0.00379205916085)
(-8.67403503793e-06 8.64052748997e-05 -0.00378016911659)
(-1.76156260893e-05 8.57557067053e-05 -0.00374451464925)
(-2.67116000829e-05 8.46126810776e-05 -0.00368541590744)
(-3.60188680592e-05 8.28871576477e-05 -0.00360342095382)
(-4.55420059928e-05 8.04466176816e-05 -0.00349930100854)
(-5.52043405668e-05 7.71191605306e-05 -0.00337393811389)
(-6.53423158799e-05 7.24371359067e-05 -0.00322641111658)
(6.23603008693e-05 6.80417296186e-05 -0.00353286496524)
(5.24018355954e-05 7.17985261301e-05 -0.00368963624263)
(4.31797862911e-05 7.41873527289e-05 -0.00382265549805)
(3.41512302709e-05 7.58962354712e-05 -0.0039330516364)
(2.53807376651e-05 7.70779121368e-05 -0.00401985785028)
(1.68427184294e-05 7.78544577563e-05 -0.00408234044308)
(8.47048564876e-06 7.83002020083e-05 -0.00412002961644)
(1.85391223726e-07 7.84530148378e-05 -0.00413266588791)
(-8.09953783906e-06 7.83245996275e-05 -0.00412015896902)
(-1.64719061146e-05 7.79032294857e-05 -0.00408259459759)
(-2.50111207772e-05 7.71507277299e-05 -0.00402022535273)
(-3.37840313468e-05 7.59921345752e-05 -0.00393351430063)
(-4.2816240974e-05 7.43045817672e-05 -0.00382319374189)
(-5.2043966838e-05 7.19345824414e-05 -0.00369027741721)
(-6.20086190067e-05 6.81965766611e-05 -0.00353367713538)
(5.84761512033e-05 6.32869160952e-05 -0.00382676041426)
(4.88358024674e-05 6.61261264271e-05 -0.00399069341315)
(4.01662499425e-05 6.76304768792e-05 -0.00412995747839)
(3.17256072307e-05 6.86594129538e-05 -0.00424536956686)
(2.35596007888e-05 6.93437297133e-05 -0.00433584678399)
(1.56284958759e-05 6.97823741781e-05 -0.00440079803754)
(7.86308834051e-06 7.00310307187e-05 -0.0044399069489)
(1.84547968002e-07 7.01178296164e-05 -0.00445301475902)
(-7.49396356705e-06 7.00519367041e-05 -0.00444006926083)
(-1.52597399284e-05 6.98241523683e-05 -0.00440111776181)
(-2.31922582877e-05 6.94060653276e-05 -0.00433631089569)
(-3.13607510265e-05 6.87417857792e-05 -0.00424595522908)
(-3.98047941741e-05 6.773206649e-05 -0.00413063540796)
(-4.84794201515e-05 6.62456188254e-05 -0.00399148479153)
(-5.81236402172e-05 6.342632705e-05 -0.00382772935749)
(5.41765635203e-05 5.81310395451e-05 -0.00410171035679)
(4.50241891056e-05 6.01211534163e-05 -0.00427217982434)
(3.70225773969e-05 6.08031880059e-05 -0.00441701750689)
(2.92352905867e-05 6.12426536179e-05 -0.00453636029987)
(2.17112026761e-05 6.15120945065e-05 -0.00462944825817)
(1.44052697921e-05 6.16735904436e-05 -0.00469604099135)
(7.25362572708e-06 6.17612696614e-05 -0.00473605545333)
(1.83508996874e-07 6.1794124287e-05 -0.00474946185975)
(-6.88673795782e-06 6.17787576879e-05 -0.00473625296614)
(-1.4039200821e-05 6.17084634277e-05 -0.00469643202682)
(-2.13468729659e-05 6.15640069231e-05 -0.00463002093496)
(-2.88733179003e-05 6.13114626565e-05 -0.00453709101185)
(-3.6663455492e-05 6.08888903722e-05 -0.00441786884956)
(-4.46692993223e-05 6.02241719053e-05 -0.00427315860503)
(-5.38237897718e-05 5.82549836079e-05 -0.00410286708042)
(4.95241786928e-05 5.32922692165e-05 -0.00435058791001)
(4.11829533666e-05 5.39433690503e-05 -0.0045318653975)
(3.39059684198e-05 5.38789980528e-05 -0.00468115427567)
(2.67905589366e-05 5.38041672112e-05 -0.00480291589922)
(1.99113592517e-05 5.37029064433e-05 -0.00489735408341)
(1.32201588222e-05 5.36126504634e-05 -0.00496469059137)
(6.6647450645e-06 5.35519119172e-05 -0.00500507786846)
(1.82220930158e-07 5.35345489596e-05 -0.00501860624681)
(-6.30069181885e-06 5.35658580629e-05 -0.00500530993525)
(-1.28575358966e-05 5.36402931934e-05 -0.00496515300583)
(-1.95511079033e-05 5.37440692729e-05 -0.00489803952159)
(-2.64328341533e-05 5.38589317016e-05 -0.00480380703866)
(-3.35500553131e-05 5.39485586589e-05 -0.00468221165574)
(-4.08299089443e-05 5.4029904569e-05 -0.00453309843036)
(-4.91704417007e-05 5.3401185614e-05 -0.00435191192851)
(-5.68524163083e-07 -1.06392716359e-06 -0.000262949127873)
(-2.23641257458e-07 -1.46860361274e-06 -0.000275396173516)
(-2.18140947734e-09 -1.70367600191e-06 -0.000286285073258)
(1.39653726575e-07 -1.83662327585e-06 -0.000295505673882)
(1.96625215965e-07 -1.89909960252e-06 -0.000302891749799)
(1.78504184965e-07 -1.92011246631e-06 -0.000308290255106)
(1.0436727922e-07 -1.9227491799e-06 -0.000311585548714)
(-1.9501630094e-10 -1.92209748542e-06 -0.000312704355208)
(-1.04327693487e-07 -1.92340196519e-06 -0.000311593874558)
(-1.77203078524e-07 -1.9213814335e-06 -0.000308306998903)
(-1.93721471374e-07 -1.90092159511e-06 -0.000302916961026)
(-1.35845957985e-07 -1.83879079401e-06 -0.00029553943577)
(6.12280777379e-09 -1.70559109e-06 -0.000286328421957)
(2.26631563023e-07 -1.4702353593e-06 -0.000275454700479)
(5.70418637924e-07 -1.06418900681e-06 -0.000263042741188)
(-2.02118489991e-06 -3.31319756623e-06 -0.000757629113755)
(-1.13553534771e-06 -4.35923553735e-06 -0.000791238445861)
(-5.11576799903e-07 -5.01826481311e-06 -0.000820425947697)
(-8.54145977383e-08 -5.41460432728e-06 -0.000844963534982)
(1.42794215864e-07 -5.62245454277e-06 -0.000864511125289)
(1.96687199085e-07 -5.71219949394e-06 -0.000878742679982)
(1.20397419986e-07 -5.7409728066e-06 -0.000887406125593)
(-2.65329769677e-08 -5.74635836731e-06 -0.000890338045202)
(-1.71865012865e-07 -5.74128141506e-06 -0.000887433611866)
(-2.42990856087e-07 -5.71224174148e-06 -0.000878797728187)
(-1.80140175395e-07 -5.62126722317e-06 -0.000864593465587)
(5.99773015141e-08 -5.41065327374e-06 -0.000845072741306)
(5.00270104018e-07 -5.00834892207e-06 -0.000820564100716)
(1.1384051544e-06 -4.34216328383e-06 -0.000791420579952)
(2.03537984533e-06 -3.28856233899e-06 -0.000757901561862)
(-3.8166867266e-06 -5.650941345e-06 -0.0012184506916)
(-2.50098069178e-06 -7.2200084678e-06 -0.00126987794091)
(-1.50348138847e-06 -8.2763245923e-06 -0.00131420815134)
(-7.71028462736e-07 -8.95169271748e-06 -0.00135124534147)
(-3.01259944353e-07 -9.34246471524e-06 -0.00138060808813)
(-6.2190446591e-08 -9.54310938802e-06 -0.00140191034174)
(5.06081344685e-09 -9.63005881031e-06 -0.00141484558529)
(-2.06774666869e-08 -9.65341811655e-06 -0.00141921193062)
(-4.49199546484e-08 -9.63036897373e-06 -0.00141488768534)
(2.68786736087e-08 -9.54342360419e-06 -0.00140199465735)
(2.73140706259e-07 -9.34229880375e-06 -0.00138073440995)
(7.51411543032e-07 -8.94986289082e-06 -0.0013514136834)
(1.49291939229e-06 -8.27035658172e-06 -0.00131442254027)
(2.49879744811e-06 -7.20904889273e-06 -0.00127016132138)
(3.82217859748e-06 -5.63390318979e-06 -0.00121886980943)
(-5.41076242416e-06 -7.59648762731e-06 -0.00164774638528)
(-3.77732647763e-06 -9.48717830742e-06 -0.00171428314324)
(-2.4853774398e-06 -1.07937282749e-05 -0.00177124056109)
(-1.49748438417e-06 -1.1646452243e-05 -0.00181857514116)
(-8.09203566058e-07 -1.21545981958e-05 -0.00185594869578)
(-3.82735790835e-07 -1.24272149158e-05 -0.00188298334271)
(-1.50290006077e-07 -1.25525257365e-05 -0.00189936591823)
(-2.23817297913e-08 -1.25877981035e-05 -0.00190488611252)
(1.06969950362e-07 -1.25525789969e-05 -0.00189942276664)
(3.43678633798e-07 -1.24270526086e-05 -0.00188309696235)
(7.76697443713e-07 -1.21537760058e-05 -0.00185611859073)
(1.47256698467e-06 -1.16439468617e-05 -0.00181880130182)
(2.46838026586e-06 -1.07875828371e-05 -0.00177152785009)
(3.76755252698e-06 -9.47685093459e-06 -0.00171465861176)
(5.40855144498e-06 -7.5813779642e-06 -0.00164828823811)
(-6.74143536153e-06 -9.12256906953e-06 -0.00204948906571)
(-4.88031003027e-06 -1.1174591967e-05 -0.00212917894404)
(-3.36634842319e-06 -1.26050137834e-05 -0.00219699171745)
(-2.17464809791e-06 -1.35436698417e-05 -0.00225311332149)