/*--------------------------------*- C++ -*----------------------------------*\
  =========                 |
  \\      /  F ield         | OpenFOAM: The Open Source CFD Toolbox
   \\    /   O peration     | Website:  https://openfoam.org
    \\  /    A nd           | Version:  7
     \\/     M anipulation  |
\*---------------------------------------------------------------------------*/
FoamFile
{
    version     2.0;
    format      ascii;
    class       volScalarField;
    location    "1.34";
    object      p;
}
// * * * * * * * * * * * * * * * * * * * * * * * * * * * * * * * * * * * * * //

dimensions      [0 2 -2 0 0 0 0];

internalField   nonuniform List<scalar> 
22500
(
-3.7775232498e-05
-3.77743372201e-05
-3.77741137338e-05
-3.77736931054e-05
-3.77737007538e-05
-3.77738376329e-05
-3.77740113947e-05
-3.7774125351e-05
-3.77741789744e-05
-3.77741716943e-05
-3.77741984948e-05
-3.77743642905e-05
-3.77749653398e-05
-3.7775394736e-05
-3.77765703315e-05
-3.7777620031e-05
-3.7776595915e-05
-3.77762338722e-05
-3.77754914215e-05
-3.77751127667e-05
-3.77749069557e-05
-3.77748513042e-05
-3.777488931e-05
-3.77750264557e-05
-3.77752565769e-05
-3.77756354427e-05
-3.77761960561e-05
-3.77771335494e-05
-3.77777164336e-05
-3.77790371069e-05
-3.77786449582e-05
-3.77773606379e-05
-3.7776613689e-05
-3.77753793651e-05
-3.77744895372e-05
-3.77738423035e-05
-3.77734946841e-05
-3.77734361411e-05
-3.77736836494e-05
-3.77742203455e-05
-3.77750565459e-05
-3.77761435025e-05
-3.77775894906e-05
-3.77785695858e-05
-3.77801542123e-05
-3.77771241471e-05
-3.77752282946e-05
-3.77736562176e-05
-3.77715953003e-05
-3.77699167049e-05
-3.77686180741e-05
-3.77678445281e-05
-3.77676428827e-05
-3.7768046567e-05
-3.77690229779e-05
-3.77705256354e-05
-3.77724161846e-05
-3.77747023805e-05
-3.77765195542e-05
-3.77787088816e-05
-3.77719710424e-05
-3.77688866035e-05
-3.776595664e-05
-3.77626103789e-05
-3.7759751259e-05
-3.77575041073e-05
-3.77561169889e-05
-3.77557079282e-05
-3.77563318637e-05
-3.77579352464e-05
-3.77604002686e-05
-3.77634848037e-05
-3.77670677468e-05
-3.77702541717e-05
-3.77736215271e-05
-3.77624371783e-05
-3.77574347838e-05
-3.77525940499e-05
-3.7747464024e-05
-3.77430047809e-05
-3.77394950717e-05
-3.77372988828e-05
-3.77366164522e-05
-3.77375281144e-05
-3.77399549782e-05
-3.77436967493e-05
-3.77483942019e-05
-3.77537713442e-05
-3.77588762358e-05
-3.77641472607e-05
-3.7748043383e-05
-3.77403338604e-05
-3.77330618819e-05
-3.77256768338e-05
-3.77192325516e-05
-3.77141786088e-05
-3.77110015708e-05
-3.77099885297e-05
-3.77112471721e-05
-3.77146708937e-05
-3.77199717551e-05
-3.77266666951e-05
-3.77343074622e-05
-3.77418499885e-05
-3.7749812703e-05
-3.77285539008e-05
-3.77173945117e-05
-3.77072449608e-05
-3.76972260232e-05
-3.76885009363e-05
-3.76816954631e-05
-3.76774156216e-05
-3.76760323139e-05
-3.76776794481e-05
-3.76822234465e-05
-3.76892913454e-05
-3.76982793188e-05
-3.77085614506e-05
-3.77189850426e-05
-3.77303833582e-05
-3.77039770988e-05
-3.76887699094e-05
-3.76754163544e-05
-3.76625290522e-05
-3.7651359067e-05
-3.76427006885e-05
-3.76372650425e-05
-3.76354955063e-05
-3.76375483927e-05
-3.76432665868e-05
-3.76522033675e-05
-3.7663648048e-05
-3.76768051467e-05
-3.76904335292e-05
-3.77058704426e-05
-3.76745603347e-05
-3.76549203602e-05
-3.76381922252e-05
-3.76223788855e-05
-3.76087565188e-05
-3.75982660697e-05
-3.75916999548e-05
-3.75895548619e-05
-3.75920031427e-05
-3.75988703526e-05
-3.7609655012e-05
-3.76235635483e-05
-3.76396525209e-05
-3.76566547699e-05
-3.76765171154e-05
-3.76407486007e-05
-3.76165423499e-05
-3.75964525993e-05
-3.75778430727e-05
-3.75619206098e-05
-3.75497408871e-05
-3.7542146348e-05
-3.75396623653e-05
-3.75424685904e-05
-3.75503820188e-05
-3.75628710741e-05
-3.75790905885e-05
-3.7597981343e-05
-3.76183436471e-05
-3.76427698183e-05
-3.76030519159e-05
-3.75744774847e-05
-3.75512707802e-05
-3.75301737828e-05
-3.75122450242e-05
-3.74986231506e-05
-3.74901674287e-05
-3.74874026637e-05
-3.74905069301e-05
-3.74992974886e-05
-3.75132424748e-05
-3.7531478517e-05
-3.75528623019e-05
-3.75763406269e-05
-3.76051366321e-05
-3.75617227836e-05
-3.75295980453e-05
-3.75038184448e-05
-3.74806953404e-05
-3.74611732326e-05
-3.74464502561e-05
-3.74373576749e-05
-3.74343913014e-05
-3.74377109943e-05
-3.74471515157e-05
-3.74622096026e-05
-3.74820480108e-05
-3.75054636557e-05
-3.75315142077e-05
-3.7563863347e-05
-3.75173202861e-05
-3.74827535474e-05
-3.74550316733e-05
-3.74304334175e-05
-3.74098759342e-05
-3.73945280756e-05
-3.73851176004e-05
-3.73820553731e-05
-3.73854791285e-05
-3.73952461478e-05
-3.74109362271e-05
-3.74318174762e-05
-3.74567143765e-05
-3.74847106616e-05
-3.7519501684e-05
-3.74754520579e-05
-3.74355598226e-05
-3.74060503529e-05
-3.73802284505e-05
-3.7359142765e-05
-3.73436410899e-05
-3.73342195268e-05
-3.73311691757e-05
-3.73345833278e-05
-3.73443636626e-05
-3.73602114469e-05
-3.73816246752e-05
-3.74077507466e-05
-3.74375426531e-05
-3.74776552949e-05
-4.22143248027e-05
-4.22132587458e-05
-4.22120786219e-05
-4.22112202538e-05
-4.22105085875e-05
-4.22099925204e-05
-4.22096636776e-05
-4.2209537867e-05
-4.22096199907e-05
-4.22099039507e-05
-4.22103702037e-05
-4.22110056151e-05
-4.22117609054e-05
-4.22127852682e-05
-4.22136517127e-05
-4.22085887431e-05
-4.22077979839e-05
-4.22068842662e-05
-4.22063143793e-05
-4.22058743634e-05
-4.22055749483e-05
-4.22053862585e-05
-4.22053091221e-05
-4.22053439475e-05
-4.22054891393e-05
-4.22057398309e-05
-4.22061067611e-05
-4.22065700558e-05
-4.22073258098e-05
-4.22079096801e-05
-4.22079274721e-05
-4.22078775309e-05
-4.2207600627e-05
-4.22076162189e-05
-4.22076570449e-05
-4.22077124117e-05
-4.22077402354e-05
-4.22077338374e-05
-4.22076913087e-05
-4.22076126939e-05
-4.22075008648e-05
-4.22073828688e-05
-4.2207257594e-05
-4.22073809041e-05
-4.22072285592e-05
-4.22121145868e-05
-4.22128495326e-05
-4.22131704852e-05
-4.22136703951e-05
-4.22140617534e-05
-4.22143482425e-05
-4.22145052055e-05
-4.22145384796e-05
-4.22144508038e-05
-4.2214236824e-05
-4.22138875982e-05
-4.22134162715e-05
-4.22128077983e-05
-4.22123393651e-05
-4.22114111513e-05
-4.22177843456e-05
-4.22188796831e-05
-4.22193776777e-05
-4.22199329841e-05
-4.2220295714e-05
-4.22205175232e-05
-4.22206166036e-05
-4.22206263017e-05
-4.22205594777e-05
-4.22204002366e-05
-4.22201128385e-05
-4.22196695778e-05
-4.22190091517e-05
-4.22183709936e-05
-4.22170915244e-05
-4.22225399313e-05
-4.22234171888e-05
-4.22236102419e-05
-4.22237747268e-05
-4.22237456223e-05
-4.22236349269e-05
-4.22235133605e-05
-4.22234454135e-05
-4.22234551118e-05
-4.22235152674e-05
-4.22235592117e-05
-4.22235091196e-05
-4.22232437217e-05
-4.22229208012e-05
-4.22218698496e-05
-4.22252418556e-05
-4.22254058095e-05
-4.2224937941e-05
-4.22244117674e-05
-4.22237635961e-05
-4.22231629878e-05
-4.22227287918e-05
-4.22225532854e-05
-4.22226701103e-05
-4.22230425079e-05
-4.22235763326e-05
-4.22241473151e-05
-4.22245776444e-05
-4.22249248448e-05
-4.22246014747e-05
-4.22255646414e-05
-4.22246830865e-05
-4.22233614143e-05
-4.22220002129e-05
-4.22206351528e-05
-4.22194837631e-05
-4.22187044171e-05
-4.22184113393e-05
-4.22186459179e-05
-4.22193636983e-05
-4.22204488911e-05
-4.22217389139e-05
-4.22230098162e-05
-4.2224220327e-05
-4.22249589811e-05
-4.22236326838e-05
-4.22215338419e-05
-4.22192879967e-05
-4.22170569343e-05
-4.22149635335e-05
-4.22132621134e-05
-4.22121418893e-05
-4.22117335229e-05
-4.22120840357e-05
-4.22131434883e-05
-4.22147798845e-05
-4.2216800885e-05
-4.22189468924e-05
-4.22210910197e-05
-4.22230632408e-05
-4.22197700894e-05
-4.22164104875e-05
-4.22132471766e-05
-4.22101783817e-05
-4.2207395256e-05
-4.220518039e-05
-4.2203745057e-05
-4.22032309697e-05
-4.22036884817e-05
-4.22050644468e-05
-4.22072160288e-05
-4.22099295313e-05
-4.22129185937e-05
-4.22159890691e-05
-4.22192401617e-05
-4.22143635317e-05
-4.22097907238e-05
-4.22057619176e-05
-4.22019252348e-05
-4.21985212408e-05
-4.21958518933e-05
-4.21941413118e-05
-4.21935357426e-05
-4.21940866584e-05
-4.21957399314e-05
-4.21983483148e-05
-4.22016858698e-05
-4.2205447812e-05
-4.22093917618e-05
-4.22138732294e-05
-4.22078020593e-05
-4.22021207271e-05
-4.2197302362e-05
-4.21927871662e-05
-4.2188849876e-05
-4.21858010355e-05
-4.21838652408e-05
-4.2183186372e-05
-4.21838131288e-05
-4.2185694468e-05
-4.21886852091e-05
-4.21925594873e-05
-4.21970047003e-05
-4.22017450863e-05
-4.22073495153e-05
-4.22004740514e-05
-4.21937987203e-05
-4.21882640679e-05
-4.21831677331e-05
-4.21787993343e-05
-4.21754587354e-05
-4.21733586919e-05
-4.21726264661e-05
-4.2173310062e-05
-4.21753590093e-05
-4.21786448382e-05
-4.21829539618e-05
-4.21879848394e-05
-4.21934481332e-05
-4.22000596102e-05
-4.21926278522e-05
-4.21850233941e-05
-4.21788794647e-05
-4.21733327149e-05
-4.21686753152e-05
-4.21651650326e-05
-4.21629766961e-05
-4.21622215818e-05
-4.21629323764e-05
-4.21650738057e-05
-4.21685341154e-05
-4.21731363535e-05
-4.21786213403e-05
-4.21846990817e-05
-4.21922538285e-05
-4.21834685085e-05
-4.21757780268e-05
-4.21692479539e-05
-4.21634822313e-05
-4.21587618121e-05
-4.21552557381e-05
-4.21530928905e-05
-4.21523496006e-05
-4.21530537185e-05
-4.21551744552e-05
-4.21586348894e-05
-4.21633045301e-05
-4.21690130265e-05
-4.21754771893e-05
-4.21831262999e-05
-3.54236234101e-05
-3.5424516399e-05
-3.54255109318e-05
-3.54265243437e-05
-3.54274401439e-05
-3.5428156467e-05
-3.54286039802e-05
-3.54287376294e-05
-3.54285399087e-05
-3.54280294929e-05
-3.54272535376e-05
-3.54262867816e-05
-3.54252292681e-05
-3.54242083672e-05
-3.54233146466e-05
-3.54243550801e-05
-3.54252312588e-05
-3.54262230565e-05
-3.54272370735e-05
-3.54281552295e-05
-3.54288757623e-05
-3.54293268328e-05
-3.54294615868e-05
-3.54292613927e-05
-3.54287461818e-05
-3.54279649204e-05
-3.54269942395e-05
-3.54259365372e-05
-3.54249183299e-05
-3.54240429598e-05
-3.54240579559e-05
-3.54248517723e-05
-3.54257731935e-05
-3.54267316536e-05
-3.54276085456e-05
-3.54283019155e-05
-3.54287379763e-05
-3.54288682814e-05
-3.54286736185e-05
-3.54281747459e-05
-3.54274220226e-05
-3.54264933411e-05
-3.54254920785e-05
-3.5424543822e-05
-3.54237488404e-05
-3.54236645588e-05
-3.54244094317e-05
-3.5425284671e-05
-3.54262067735e-05
-3.54270579416e-05
-3.54277357201e-05
-3.54281639806e-05
-3.54282923824e-05
-3.54281012176e-05
-3.54276119592e-05
-3.54268765684e-05
-3.54259745105e-05
-3.54250103625e-05
-3.54241077017e-05
-3.54233588072e-05
-3.54234693134e-05
-3.54242103156e-05
-3.54250737173e-05
-3.54259870863e-05
-3.54268339623e-05
-3.54275112194e-05
-3.54279405827e-05
-3.54280701479e-05
-3.54278795997e-05
-3.54273911231e-05
-3.54266580316e-05
-3.54257613258e-05
-3.54248065607e-05
-3.54239149811e-05
-3.54231678888e-05
-3.54234714726e-05
-3.5424242417e-05
-3.54251184788e-05
-3.54260424634e-05
-3.54268991861e-05
-3.542758528e-05
-3.54280210921e-05
-3.54281535443e-05
-3.54279620237e-05
-3.54274690735e-05
-3.54267289807e-05
-3.54258236349e-05
-3.54248589942e-05
-3.54239540925e-05
-3.54231747475e-05
-3.54236499263e-05
-3.54244759096e-05
-3.54253813668e-05
-3.54263282242e-05
-3.54272030694e-05
-3.54279028423e-05
-3.54283475613e-05
-3.54284836969e-05
-3.54282907106e-05
-3.54277910613e-05
-3.54270393146e-05
-3.54261173154e-05
-3.54251305296e-05
-3.54241959474e-05
-3.54233589608e-05
-3.54239888382e-05
-3.54248872693e-05
-3.54258314575e-05
-3.54268073599e-05
-3.54277032126e-05
-3.54284174007e-05
-3.54288707676e-05
-3.54290104865e-05
-3.54288163074e-05
-3.54283103421e-05
-3.54275463624e-05
-3.54266050378e-05
-3.54255901779e-05
-3.54246163819e-05
-3.54237041174e-05
-3.5424463506e-05
-3.54254425903e-05
-3.54264282669e-05
-3.54274328246e-05
-3.54283471464e-05
-3.54290723887e-05
-3.54295317159e-05
-3.54296740353e-05
-3.54294798747e-05
-3.54289704774e-05
-3.54281977381e-05
-3.54272397574e-05
-3.54261972932e-05
-3.54251815361e-05
-3.54241857289e-05
-3.5425041787e-05
-3.54261003833e-05
-3.54271243342e-05
-3.54281515625e-05
-3.54290772691e-05
-3.54298068107e-05
-3.54302672739e-05
-3.54304104699e-05
-3.54302182159e-05
-3.54297103414e-05
-3.54289357204e-05
-3.54279683142e-05
-3.54269043078e-05
-3.54258499529e-05
-3.54247707475e-05
-3.54256877482e-05
-3.54268175876e-05
-3.54278721728e-05
-3.54289120943e-05
-3.54298386987e-05
-3.54305632447e-05
-3.54310184989e-05
-3.5431160342e-05
-3.54309723893e-05
-3.54304725232e-05
-3.54297054014e-05
-3.54287391461e-05
-3.54276636824e-05
-3.54265785669e-05
-3.54254243292e-05
-3.54263643959e-05
-3.5427553366e-05
-3.54286290861e-05
-3.54296702064e-05
-3.54305855403e-05
-3.54312944321e-05
-3.54317372989e-05
-3.54318752415e-05
-3.54316942967e-05
-3.54312096845e-05
-3.54304608386e-05
-3.54295079794e-05
-3.54284327074e-05
-3.54273266557e-05
-3.54261100385e-05
-3.54270270973e-05
-3.54282658378e-05
-3.54293575066e-05
-3.54303906921e-05
-3.54312837676e-05
-3.54319672896e-05
-3.54323904815e-05
-3.54325225119e-05
-3.5432350629e-05
-3.54318886694e-05
-3.54311679581e-05
-3.54302395887e-05
-3.54291737232e-05
-3.54280520183e-05
-3.5426782882e-05
-3.54276567129e-05
-3.54289460645e-05
-3.5430044895e-05
-3.54310591066e-05
-3.5431916291e-05
-3.54325619619e-05
-3.54329587722e-05
-3.54330813206e-05
-3.54329221926e-05
-3.54324897762e-05
-3.54318095157e-05
-3.54309194384e-05
-3.54298744404e-05
-3.5428746189e-05
-3.54274231797e-05
-3.54286244e-05
-3.54298002523e-05
-3.54308306357e-05
-3.54317542351e-05
-3.54325145201e-05
-3.54330783773e-05
-3.54334205551e-05
-3.54335257e-05
-3.54333874003e-05
-3.54330130277e-05
-3.54324178203e-05
-3.54316274218e-05
-3.54306747834e-05
-3.54296169751e-05
-3.54284067483e-05
-3.67373309847e-05
-3.67367712318e-05
-3.67361595206e-05
-3.67355442466e-05
-3.67349951989e-05
-3.67345708408e-05
-3.67343068044e-05
-3.67342272872e-05
-3.67343419936e-05
-3.67346407473e-05
-3.67350979689e-05
-3.67356716329e-05
-3.67363055048e-05
-3.67369175718e-05
-3.67374591262e-05
-3.67371173771e-05
-3.6736573678e-05
-3.67359695876e-05
-3.67353590574e-05
-3.67348137361e-05
-3.67343905135e-05
-3.67341268857e-05
-3.67340478949e-05
-3.67341639187e-05
-3.67344640878e-05
-3.67349217532e-05
-3.67354938849e-05
-3.67361228975e-05
-3.6736727256e-05
-3.67372516858e-05
-3.67375571167e-05
-3.67370746388e-05
-3.67365239729e-05
-3.67359557237e-05
-3.67354427129e-05
-3.67350410132e-05
-3.67347896769e-05
-3.6734714354e-05
-3.67348256351e-05
-3.6735112218e-05
-3.6735546851e-05
-3.67360859773e-05
-3.67366720022e-05
-3.67372236673e-05
-3.67376898013e-05
-3.6738003623e-05
-3.67375651186e-05
-3.67370553287e-05
-3.67365200221e-05
-3.67360317455e-05
-3.67356461067e-05
-3.67354035518e-05
-3.67353305565e-05
-3.67354378268e-05
-3.67357137464e-05
-3.67361304482e-05
-3.6736643869e-05
-3.67371964534e-05
-3.67377082457e-05
-3.67381344859e-05
-3.67383281121e-05
-3.67379136054e-05
-3.67374289214e-05
-3.67369146787e-05
-3.67364420583e-05
-3.67360664085e-05
-3.67358291553e-05
-3.67357573301e-05
-3.67358617834e-05
-3.67361306503e-05
-3.67365356538e-05
-3.67370324056e-05
-3.67375636151e-05
-3.6738051404e-05
-3.67384568587e-05
-3.67385706013e-05
-3.67381684763e-05
-3.67376997322e-05
-3.67371997861e-05
-3.67367383922e-05
-3.67363700223e-05
-3.6736136636e-05
-3.67360655426e-05
-3.67361675881e-05
-3.67364308886e-05
-3.6736826967e-05
-3.67373115895e-05
-3.6737828068e-05
-3.67383012191e-05
-3.67386975715e-05
-3.67387573959e-05
-3.67383602605e-05
-3.67379011862e-05
-3.67374119309e-05
-3.67369594973e-05
-3.67365974781e-05
-3.67363676221e-05
-3.67362971635e-05
-3.67363967736e-05
-3.67366547467e-05
-3.67370428179e-05
-3.67375174233e-05
-3.67380229377e-05
-3.67384873301e-05
-3.67388821738e-05
-3.67388988652e-05
-3.67385012545e-05
-3.67380483387e-05
-3.67375678683e-05
-3.67371238407e-05
-3.67367684985e-05
-3.67365427054e-05
-3.673647307e-05
-3.67365699955e-05
-3.67368220869e-05
-3.67372018141e-05
-3.67376668716e-05
-3.67381632545e-05
-3.67386226242e-05
-3.67390214738e-05
-3.6739004766e-05
-3.67386036102e-05
-3.67381552838e-05
-3.67376835372e-05
-3.67372490179e-05
-3.67369018535e-05
-3.67366813529e-05
-3.67366129944e-05
-3.67367066817e-05
-3.6736951611e-05
-3.67373214664e-05
-3.67377758893e-05
-3.67382631533e-05
-3.67387192008e-05
-3.67391247756e-05
-3.67390852039e-05
-3.67386799456e-05
-3.67382360863e-05
-3.67377745311e-05
-3.67373517528e-05
-3.67370152465e-05
-3.67368018537e-05
-3.67367354581e-05
-3.67368251958e-05
-3.67370611218e-05
-3.67374186533e-05
-3.67378601142e-05
-3.67383367996e-05
-3.67387894993e-05
-3.6739203124e-05
-3.67391505124e-05
-3.67387414408e-05
-3.67383028305e-05
-3.6737853792e-05
-3.67374459522e-05
-3.67371231812e-05
-3.67369191631e-05
-3.67368555068e-05
-3.67369404885e-05
-3.67371651223e-05
-3.67375072435e-05
-3.67379325721e-05
-3.67383962732e-05
-3.67388446839e-05
-3.6739265758e-05
-3.67392102667e-05
-3.67387967511e-05
-3.67383643613e-05
-3.6737930296e-05
-3.67375408371e-05
-3.67372353457e-05
-3.6737043033e-05
-3.67369831425e-05
-3.6737062306e-05
-3.67372733686e-05
-3.67375965517e-05
-3.67380022157e-05
-3.67384503663e-05
-3.67388931911e-05
-3.67393217217e-05
-3.67392766544e-05
-3.67388563209e-05
-3.67384286412e-05
-3.67380103105e-05
-3.67376417499e-05
-3.67373557774e-05
-3.67371777478e-05
-3.67371218136e-05
-3.67371950654e-05
-3.67373900021e-05
-3.67376918526e-05
-3.67380754269e-05
-3.67385070954e-05
-3.67389457911e-05
-3.67393836406e-05
-3.67393535167e-05
-3.6738920239e-05
-3.67384964166e-05
-3.67380946626e-05
-3.67377490838e-05
-3.67374860328e-05
-3.67373229432e-05
-3.67372727944e-05
-3.67373384251e-05
-3.67375163875e-05
-3.67377939984e-05
-3.67381530379e-05
-3.67385672207e-05
-3.67390022155e-05
-3.67394560864e-05
-3.67392371087e-05
-3.6738845856e-05
-3.67384671877e-05
-3.67381208018e-05
-3.67378304499e-05
-3.67376124339e-05
-3.67374795225e-05
-3.67374385971e-05
-3.67374930772e-05
-3.67376391407e-05
-3.67378696449e-05
-3.67381720846e-05
-3.67385298297e-05
-3.6738918634e-05
-3.67393305228e-05
-3.28748589703e-05
-3.2875202715e-05
-3.28755842622e-05
-3.28759763832e-05
-3.28763285788e-05
-3.28766049277e-05
-3.28767795185e-05
-3.28768360601e-05
-3.28767678234e-05
-3.28765812376e-05
-3.28762925339e-05
-3.28759284717e-05
-3.28755252722e-05
-3.28751361715e-05
-3.28747935708e-05
-3.2874973857e-05
-3.28753070851e-05
-3.28756844475e-05
-3.28760740505e-05
-3.28764254802e-05
-3.28767023224e-05
-3.28768776811e-05
-3.28769345205e-05
-3.2876865679e-05
-3.28766780398e-05
-3.28763885535e-05
-3.28760248086e-05
-3.28756240176e-05
-3.28752393144e-05
-3.28749074935e-05
-3.28746821508e-05
-3.28749776301e-05
-3.28753222402e-05
-3.28756853495e-05
-3.2876016765e-05
-3.28762799292e-05
-3.28764473963e-05
-3.28765017156e-05
-3.28764355905e-05
-3.28762561142e-05
-3.28759806356e-05
-3.28756371396e-05
-3.28752629431e-05
-3.28749111012e-05
-3.2874616118e-05
-3.28743894008e-05
-3.28746577854e-05
-3.28749766278e-05
-3.28753184348e-05
-3.28756335675e-05
-3.28758856002e-05
-3.28760466508e-05
-3.28760989232e-05
-3.28760350924e-05
-3.28758623578e-05
-3.28755983948e-05
-3.287527145e-05
-3.28749187669e-05
-3.28745925363e-05
-3.28743237123e-05
-3.28741705737e-05
-3.2874422719e-05
-3.28747241749e-05
-3.28750506701e-05
-3.28753537204e-05
-3.28755973165e-05
-3.28757534367e-05
-3.28758041611e-05
-3.28757421206e-05
-3.28755746012e-05
-3.28753193928e-05
-3.28750047686e-05
-3.28746676078e-05
-3.28743585172e-05
-3.28741053422e-05
-3.28739957574e-05
-3.28742364334e-05
-3.2874524719e-05
-3.28748382705e-05
-3.28751304994e-05
-3.28753661299e-05
-3.28755174322e-05
-3.2875566579e-05
-3.28755062997e-05
-3.28753438288e-05
-3.28750968633e-05
-3.28747933132e-05
-3.28744693425e-05
-3.28741734e-05
-3.28739307535e-05
-3.2873844945e-05
-3.28740767998e-05
-3.28743538791e-05
-3.28746550513e-05
-3.28749363473e-05
-3.28751634878e-05
-3.28753094798e-05
-3.28753568441e-05
-3.28752985555e-05
-3.2875141631e-05
-3.28749034363e-05
-3.2874611103e-05
-3.28742996953e-05
-3.28740150608e-05
-3.28737804219e-05
-3.28737096582e-05
-3.2873934057e-05
-3.28742005278e-05
-3.28744892066e-05
-3.28747588126e-05
-3.28749764837e-05
-3.2875116334e-05
-3.28751616229e-05
-3.28751056132e-05
-3.28749550582e-05
-3.28747266451e-05
-3.2874446354e-05
-3.28741477433e-05
-3.28738736681e-05
-3.28736457488e-05
-3.28735832402e-05
-3.28738004019e-05
-3.28740561781e-05
-3.28743315178e-05
-3.28745881096e-05
-3.28747949252e-05
-3.2874927633e-05
-3.28749704794e-05
-3.28749171594e-05
-3.28747740214e-05
-3.28745567791e-05
-3.28742898702e-05
-3.2874004919e-05
-3.28737414615e-05
-3.28735200754e-05
-3.28734596676e-05
-3.28736689954e-05
-3.28739135434e-05
-3.28741743414e-05
-3.28744163387e-05
-3.28746107541e-05
-3.28747351851e-05
-3.28747751897e-05
-3.2874725011e-05
-3.28745904606e-05
-3.28743859887e-05
-3.28741340852e-05
-3.28738640143e-05
-3.28736117433e-05
-3.28733971089e-05
-3.28733339117e-05
-3.28735350361e-05
-3.28737677386e-05
-3.28740126852e-05
-3.28742383883e-05
-3.28744187283e-05
-3.28745337388e-05
-3.28745704782e-05
-3.28745239342e-05
-3.2874399181e-05
-3.28742091707e-05
-3.28739739979e-05
-3.28737201059e-05
-3.28734796717e-05
-3.28732722143e-05
-3.28732023106e-05
-3.28733957885e-05
-3.28736163802e-05
-3.2873844493e-05
-3.2874052286e-05
-3.2874217021e-05
-3.28743214612e-05
-3.28743545814e-05
-3.28743121104e-05
-3.2874198349e-05
-3.28740244157e-05
-3.28738075733e-05
-3.28735708779e-05
-3.28733425575e-05
-3.28731418444e-05
-3.28730590217e-05
-3.2873247499e-05
-3.28734576658e-05
-3.28736692507e-05
-3.28738586482e-05
-3.28740069542e-05
-3.28741000828e-05
-3.2874129405e-05
-3.2874091244e-05
-3.28739893272e-05
-3.28738323061e-05
-3.28736343806e-05
-3.28734145239e-05
-3.28731966426e-05
-3.28730001639e-05
-3.28729029166e-05
-3.28730918346e-05
-3.28732932211e-05
-3.28734892041e-05
-3.28736600141e-05
-3.28737914399e-05
-3.28738732081e-05
-3.28738984563e-05
-3.28738650061e-05
-3.28737750041e-05
-3.28736354332e-05
-3.28734565611e-05
-3.28732528015e-05
-3.28730437339e-05
-3.28728458938e-05
-3.28728633726e-05
-3.28730219661e-05
-3.28731897776e-05
-3.28733467259e-05
-3.28734805809e-05
-3.28735820786e-05
-3.28736443325e-05
-3.28736631919e-05
-3.28736368064e-05
-3.28735671177e-05
-3.28734581325e-05
-3.28733169347e-05
-3.28731525109e-05
-3.28729774606e-05
-3.28728098388e-05
-3.22808869257e-05
-3.22806683073e-05
-3.22804283047e-05
-3.22801844443e-05
-3.22799649382e-05
-3.22797920911e-05
-3.22796833952e-05
-3.22796490755e-05
-3.22796931816e-05
-3.22798116111e-05
-3.22799941346e-05
-3.22802238233e-05
-3.22804779153e-05
-3.22807226859e-05
-3.22809382822e-05
-3.22808155958e-05
-3.22806043286e-05
-3.22803676863e-05
-3.22801261144e-05
-3.22799077163e-05
-3.22797351604e-05
-3.22796263642e-05
-3.22795920297e-05
-3.22796365172e-05
-3.22797554542e-05
-3.22799381604e-05
-3.22801672423e-05
-3.22804193512e-05
-3.22806609091e-05
-3.2280869526e-05
-3.22810024619e-05
-3.22808157079e-05
-3.22805998195e-05
-3.22803748266e-05
-3.22801691228e-05
-3.22800055175e-05
-3.22799019545e-05
-3.22798693218e-05
-3.22799120572e-05
-3.22800256787e-05
-3.22801992832e-05
-3.22804152643e-05
-3.22806502639e-05
-3.22808707723e-05
-3.22810561089e-05
-3.22811886614e-05
-3.22810194083e-05
-3.22808197557e-05
-3.22806078365e-05
-3.22804123263e-05
-3.22802559747e-05
-3.22801566083e-05
-3.22801253107e-05
-3.22801665552e-05
-3.22802758036e-05
-3.22804419763e-05
-3.22806473338e-05
-3.22808686033e-05
-3.2281072819e-05
-3.22812418152e-05
-3.22813274733e-05
-3.22811689926e-05
-3.22809803346e-05
-3.22807777687e-05
-3.2280589815e-05
-3.22804388812e-05
-3.22803427205e-05
-3.22803124205e-05
-3.22803524888e-05
-3.2280458332e-05
-3.22806188244e-05
-3.22808162409e-05
-3.22810275712e-05
-3.22812208312e-05
-3.22813799801e-05
-3.22814389325e-05
-3.2281288377e-05
-3.22811082162e-05
-3.2280913769e-05
-3.22807327276e-05
-3.22805870143e-05
-3.22804940051e-05
-3.22804647177e-05
-3.22805035805e-05
-3.22806060638e-05
-3.22807611047e-05
-3.22809512574e-05
-3.22811539928e-05
-3.22813386916e-05
-3.22814910105e-05
-3.22815365889e-05
-3.2281392663e-05
-3.22812199612e-05
-3.22810334832e-05
-3.22808595229e-05
-3.22807193816e-05
-3.22806298441e-05
-3.22806016866e-05
-3.22806391722e-05
-3.22807379032e-05
-3.2280887063e-05
-3.22810697283e-05
-3.22812640986e-05
-3.22814412094e-05
-3.2281587973e-05
-3.22816262547e-05
-3.22814882036e-05
-3.22813228132e-05
-3.22811445719e-05
-3.22809783433e-05
-3.22808444764e-05
-3.22807589723e-05
-3.22807321257e-05
-3.22807680117e-05
-3.22808624054e-05
-3.22810049463e-05
-3.22811794789e-05
-3.22813651845e-05
-3.22815350214e-05
-3.22816767642e-05
-3.22817121878e-05
-3.22815801486e-05
-3.22814222814e-05
-3.2281252957e-05
-3.22810953773e-05
-3.22809686623e-05
-3.2280887831e-05
-3.22808625111e-05
-3.22808965079e-05
-3.22809858608e-05
-3.22811208391e-05
-3.22812863122e-05
-3.22814627057e-05
-3.22816251093e-05
-3.22817616934e-05
-3.22817982229e-05
-3.22816725835e-05
-3.22815226355e-05
-3.22813630931e-05
-3.22812151962e-05
-3.22810966741e-05
-3.22810212209e-05
-3.22809976893e-05
-3.22810294907e-05
-3.22811130433e-05
-3.22812394121e-05
-3.22813947501e-05
-3.22815610022e-05
-3.22817155504e-05
-3.22818467321e-05
-3.22818871705e-05
-3.22817681976e-05
-3.22816266004e-05
-3.22814776869e-05
-3.22813406119e-05
-3.22812312848e-05
-3.22811619636e-05
-3.22811404381e-05
-3.22811697586e-05
-3.22812467103e-05
-3.22813634049e-05
-3.22815075051e-05
-3.22816627777e-05
-3.22818090659e-05
-3.22819345183e-05
-3.22819811586e-05
-3.22818682116e-05
-3.22817350729e-05
-3.22815974487e-05
-3.22814721306e-05
-3.22813730834e-05
-3.22813105188e-05
-3.22812913153e-05
-3.22813177819e-05
-3.22813874625e-05
-3.2281493423e-05
-3.22816252721e-05
-3.22817689334e-05
-3.22819067975e-05
-3.22820269694e-05
-3.22820830352e-05
-3.22819741998e-05
-3.22818484812e-05
-3.2281721889e-05
-3.22816088773e-05
-3.22815203916e-05
-3.22814653073e-05
-3.22814483095e-05
-3.22814720083e-05
-3.22815337264e-05
-3.22816284844e-05
-3.22817476834e-05
-3.22818799127e-05
-3.22820104421e-05
-3.22821270999e-05
-3.22821924371e-05
-3.22820844746e-05
-3.22819651534e-05
-3.22818492959e-05
-3.22817483534e-05
-3.22816711063e-05
-3.22816231096e-05
-3.22816088899e-05
-3.22816292886e-05
-3.22816832103e-05
-3.22817664148e-05
-3.22818728938e-05
-3.22819940838e-05
-3.22821181696e-05
-3.22822348805e-05
-3.22822292439e-05
-3.22821408238e-05
-3.22820436175e-05
-3.22819527181e-05
-3.22818754702e-05
-3.22818169511e-05
-3.2281781402e-05
-3.22817710064e-05
-3.22817869528e-05
-3.22818279429e-05
-3.22818916503e-05
-3.22819740449e-05
-3.22820698212e-05
-3.2282171509e-05
-3.22822683243e-05
-2.96246981923e-05
-2.9624835099e-05
-2.96249855005e-05
-2.96251406416e-05
-2.96252807386e-05
-2.96253915887e-05
-2.96254621661e-05
-2.96254858947e-05
-2.96254601152e-05
-2.96253873683e-05
-2.96252741016e-05
-2.96251308686e-05
-2.96249720674e-05
-2.96248186818e-05
-2.96246837124e-05
-2.96247448687e-05
-2.96248775236e-05
-2.96250264206e-05
-2.96251806411e-05
-2.96253206116e-05
-2.9625431763e-05
-2.96255027467e-05
-2.96255266687e-05
-2.96255006857e-05
-2.96254275176e-05
-2.96253138791e-05
-2.96251706793e-05
-2.96250127124e-05
-2.96248609584e-05
-2.96247302829e-05
-2.96246309804e-05
-2.96247486029e-05
-2.9624884864e-05
-2.96250288055e-05
-2.96251609637e-05
-2.96252666568e-05
-2.96253344569e-05
-2.96253573314e-05
-2.96253323769e-05
-2.96252623797e-05
-2.96251542035e-05
-2.9625018921e-05
-2.96248713835e-05
-2.96247325401e-05
-2.96246164796e-05
-2.96245164904e-05
-2.96246234217e-05
-2.96247496502e-05
-2.96248853728e-05
-2.96250111414e-05
-2.96251123214e-05
-2.96251774795e-05
-2.96251994749e-05
-2.96251753829e-05
-2.96251080142e-05
-2.96250043506e-05
-2.96248755762e-05
-2.96247365189e-05
-2.96246077695e-05
-2.96245021719e-05
-2.9624430829e-05
-2.96245312703e-05
-2.96246506357e-05
-2.96247803633e-05
-2.96249012994e-05
-2.96249990163e-05
-2.96250621173e-05
-2.96250834331e-05
-2.96250600207e-05
-2.96249947146e-05
-2.96248945374e-05
-2.9624770681e-05
-2.96246378312e-05
-2.96245159051e-05
-2.96244166528e-05
-2.96243618024e-05
-2.96244572987e-05
-2.96245713987e-05
-2.96246959055e-05
-2.96248123974e-05
-2.96249067659e-05
-2.96249678172e-05
-2.96249884399e-05
-2.96249657244e-05
-2.96249024804e-05
-2.96248056799e-05
-2.96246863687e-05
-2.96245589415e-05
-2.96244424057e-05
-2.96243476018e-05
-2.96243011748e-05
-2.96243926906e-05
-2.96245021363e-05
-2.96246214572e-05
-2.96247333393e-05
-2.96248240868e-05
-2.96248828609e-05
-2.96249026999e-05
-2.9624880794e-05
-2.96248198614e-05
-2.9624726735e-05
-2.9624612144e-05
-2.96244900252e-05
-2.96243782853e-05
-2.96242870813e-05
-2.96242454888e-05
-2.9624333456e-05
-2.96244383299e-05
-2.96245523073e-05
-2.9624659186e-05
-2.96247458633e-05
-2.96248019969e-05
-2.96248209288e-05
-2.96247999669e-05
-2.96247417157e-05
-2.96246527348e-05
-2.96245432846e-05
-2.9624426679e-05
-2.96243195673e-05
-2.96242315538e-05
-2.96241921972e-05
-2.9624276633e-05
-2.96243767963e-05
-2.96244849999e-05
-2.96245862808e-05
-2.96246683093e-05
-2.96247213884e-05
-2.96247392672e-05
-2.96247194166e-05
-2.96246642854e-05
-2.96245800397e-05
-2.96244763192e-05
-2.96243656387e-05
-2.96242632572e-05
-2.9624178452e-05
-2.96241390427e-05
-2.96242196411e-05
-2.96243148423e-05
-2.96244167578e-05
-2.96245118012e-05
-2.9624588557e-05
-2.96246381329e-05
-2.96246547951e-05
-2.96246362347e-05
-2.9624584687e-05
-2.96245058127e-05
-2.96244084767e-05
-2.96243042278e-05
-2.96242068479e-05
-2.96241253471e-05
-2.96240841813e-05
-2.96241608382e-05
-2.96242508075e-05
-2.96243459179e-05
-2.96244340611e-05
-2.96245049111e-05
-2.96245505446e-05
-2.96245658273e-05
-2.96245487421e-05
-2.96245012304e-05
-2.96244283721e-05
-2.96243380781e-05
-2.96242407506e-05
-2.96241486306e-05
-2.96240706077e-05
-2.96240263932e-05
-2.96240993222e-05
-2.96241839636e-05
-2.96242719418e-05
-2.96243526355e-05
-2.96244170218e-05
-2.96244583039e-05
-2.96244720708e-05
-2.96244566095e-05
-2.96244135727e-05
-2.96243472816e-05
-2.96242645846e-05
-2.96241745154e-05
-2.96240877196e-05
-2.96240129387e-05
-2.96239633466e-05
-2.9624033655e-05
-2.96241137515e-05
-2.96241948848e-05
-2.96242680051e-05
-2.96243257472e-05
-2.96243624193e-05
-2.96243746205e-05
-2.96243608611e-05
-2.96243225127e-05
-2.96242630477e-05
-2.96241880385e-05
-2.96241049403e-05
-2.96240227011e-05
-2.96239501314e-05
-2.96238946472e-05
-2.96239647897e-05
-2.96240411249e-05
-2.96241158353e-05
-2.96241815546e-05