/*--------------------------------*- C++ -*----------------------------------*\
  =========                 |
  \\      /  F ield         | OpenFOAM: The Open Source CFD Toolbox
   \\    /   O peration     | Website:  https://openfoam.org
    \\  /    A nd           | Version:  7
     \\/     M anipulation  |
\*---------------------------------------------------------------------------*/
FoamFile
{
    version     2.0;
    format      ascii;
    class       surfaceScalarField;
    location    "1.34";
    object      phi;
}
// * * * * * * * * * * * * * * * * * * * * * * * * * * * * * * * * * * * * * //

dimensions      [0 3 -1 0 0 0 0];

internalField   nonuniform List<scalar> 
65775
(
-4.60517804165e-11
-7.4102791786e-09
-1.14742172729e-10
-1.63855129272e-12
-8.28107640321e-11
-7.80195774305e-09
-1.27379162165e-10
-9.89124486809e-11
-8.16060359486e-09
-1.42649895432e-10
-9.58396089779e-11
-8.4669274517e-09
-1.58947715794e-10
-7.779385656e-11
-8.71134479341e-09
-1.74166395556e-10
-4.84209335571e-11
-8.88990309952e-09
-1.86445527004e-10
-1.20005015474e-11
-9.00164336645e-09
-1.94438188e-10
2.68317691362e-11
-9.04308627278e-09
-1.97237805686e-10
6.30463019848e-11
-9.00073850635e-09
-1.94203016892e-10
9.20421401468e-11
-8.88813512765e-09
-1.85977223628e-10
1.09620211161e-10
-8.70881019488e-09
-1.73471470527e-10
1.12085436824e-10
-8.4639810081e-09
-1.58035696515e-10
9.52800129257e-11
-8.15751468736e-09
-1.41532862412e-10
5.74752364827e-11
-7.79931765022e-09
-1.26076360028e-10
-7.40846100522e-09
-1.13302390866e-10
8.07132528301e-12
-1.3981889105e-10
-1.36879559223e-08
-7.94098112053e-10
-4.23020010634e-12
-2.49342181754e-10
-1.43949761471e-08
-9.05570166353e-10
-2.99553548312e-10
-1.50457087971e-08
-1.02397165153e-09
-2.9442033804e-10
-1.55923892e-08
-1.13984087149e-09
-2.41738825069e-10
-1.60234059421e-08
-1.24273413291e-09
-1.52460005188e-10
-1.63351162344e-08
-1.32347813455e-09
-4.00162663071e-11
-1.65291058255e-08
-1.37533297034e-09
8.02125330237e-11
-1.66008703196e-08
-1.39360072852e-09
1.92176086994e-10
-1.65270489546e-08
-1.37468107056e-09
2.8056408549e-10
-1.63311227941e-08
-1.32217225739e-09
3.32051692525e-10
-1.60177251321e-08
-1.24079027634e-09
3.35633644313e-10
-1.55856489474e-08
-1.13728176107e-09
2.83439083466e-10
-1.50386386913e-08
-1.0208296637e-09
1.70910828397e-10
-1.43885642698e-08
-9.01896177852e-10
-1.36830881692e-08
-7.90019697163e-10
2.24633939735e-11
-2.31150377027e-10
-1.85790167274e-08
-1.72940706045e-09
-5.77140293192e-12
-4.01471895771e-10
-1.9496865898e-08
-1.97570641415e-09
-4.82667658177e-10
-2.03322361197e-08
-2.22901273173e-09
-4.77039731781e-10
-2.10225198987e-08
-2.47063033938e-09
-3.94176901459e-10
-2.15597153651e-08
-2.68134258255e-09
-2.50971618339e-10
-2.19439386628e-08
-2.84471584098e-09
-6.93632728527e-11
-2.21817532918e-08
-2.94891888773e-09
1.25156689625e-10
-2.22698444284e-08
-2.98562745556e-09
3.06246620368e-10
-2.21789659251e-08
-2.94799944719e-09
4.48473278396e-10
-2.1938560708e-08
-2.84287128967e-09
5.29962205269e-10
-2.15521051577e-08
-2.67858526527e-09
5.33727919432e-10
-2.10134279776e-08
-2.4669775328e-09
4.49957765607e-10
-2.03226581513e-08
-2.22449413488e-09
2.75589157847e-10
-1.94878338467e-08
-1.97037572786e-09
-1.85717337878e-08
-1.72342836607e-09
3.27239306579e-11
-3.13972079648e-10
-2.20314895995e-08
-2.72625471764e-09
-6.3487170343e-12
-5.34966968266e-10
-2.30577042148e-08
-3.10587426719e-09
-6.42560151772e-10
-2.39718598838e-08
-3.48696952535e-09
-6.36637472961e-10
-2.47149300599e-08
-3.84356924929e-09
-5.28239641068e-10
-2.52854672855e-08
-4.15013122896e-09
-3.38965927826e-10
-2.56890541519e-08
-4.38544291593e-09
-9.80854566873e-11
-2.59375995087e-08
-4.53463392305e-09
1.60190440015e-10
-2.60300144842e-08
-4.58715202456e-09
4.00658767762e-10
-2.59344936653e-08
-4.53360178079e-09
5.89135541817e-10
-2.56830877165e-08
-4.38336841242e-09
6.96354628913e-10
-2.52770633987e-08
-4.14701575607e-09
7.00569761015e-10
-2.47048543854e-08
-3.83941298983e-09
5.90420739607e-10
-2.39611521502e-08
-3.4817828041e-09
3.65219851328e-10
-2.30472987685e-08
-3.09968951307e-09
-2.20225288053e-08
-2.71922725681e-09
3.84960567756e-11
-3.85268744082e-10
-2.41403750617e-08
-3.64023478837e-09
-6.24581242474e-12
-6.49842890562e-10
-2.51913364339e-08
-4.1293366473e-09
-7.79645499145e-10
-2.61033792802e-08
-4.61039243397e-09
-7.7328842071e-10
-2.68327984276e-08
-5.05356568877e-09
-6.43339884977e-10
-2.73855169752e-08
-5.43016448199e-09
-4.15332552413e-10
-2.77724392309e-08
-5.71689970866e-09
-1.24688479436e-10
-2.80096838287e-08
-5.89781421549e-09
1.87100112727e-10
-2.80983625613e-08
-5.96144503264e-09
4.7745593962e-10
-2.80065639844e-08
-5.89676680657e-09
7.04884306857e-10
-2.77664698084e-08
-5.71479272423e-09
8.33923167929e-10
-2.73771368615e-08
-5.42699177801e-09
8.38860973468e-10
-2.68227356678e-08
-5.04931414839e-09
7.0677870446e-10
-2.60925852513e-08
-4.60505413543e-09
4.38324698125e-10
-2.51806329443e-08
-4.12291811791e-09
-2.4130590302e-08
-3.63285990796e-09
4.06415142512e-11
-4.44908054168e-10
-2.50878877581e-08
-4.38405456384e-09
-5.76706396098e-12
-7.4798629537e-10
-2.61032470727e-08
-4.9524616147e-09
-8.96726278732e-10
-2.69616384117e-08
-5.50225937591e-09
-8.89822081412e-10
-2.76371942675e-08
-6.00268492333e-09
-7.41518095181e-10
-2.8142685189e-08
-6.42425484728e-09
-4.80807540994e-10
-2.84931562609e-08
-6.74332790816e-09
-1.48296120493e-10
-2.87072316794e-08
-6.94392374522e-09
2.08453945966e-10
-2.87877153011e-08
-7.01440250816e-09
5.40742834696e-10
-2.87042904992e-08
-6.94289835085e-09
8.00988887434e-10
-2.84875461235e-08
-6.74126729987e-09
9.4852574272e-10
-2.81348357273e-08
-6.42115429682e-09
9.54185661513e-10
-2.76277671654e-08
-5.99853082765e-09
8.03383004621e-10
-2.69514637619e-08
-5.49703926977e-09
4.96824133014e-10
-2.60929662835e-08
-4.94616697777e-09
-2.50779231315e-08
-4.37677719965e-09
4.05064689512e-11
-4.9455257873e-10
-2.50861542213e-08
-4.92589524433e-09
-5.15195550935e-12
-8.31855952367e-10
-2.60259840745e-08
-5.54732346796e-09
-9.96966381516e-10
-2.68027563028e-08
-6.14068229125e-09
-9.89460511539e-10
-2.74040718197e-08
-6.67598337205e-09
-8.25337944198e-10
-2.78486676208e-08
-7.12417395342e-09
-5.36712388231e-10
-2.81541938932e-08
-7.46201339473e-09
-1.68618818606e-10
-2.83401537057e-08
-7.67385233199e-09
2.26273293957e-10
-2.84104419205e-08
-7.74816811935e-09
5.94136476099e-10
-2.83374860897e-08
-7.67285036166e-09
8.82274232261e-10
-2.81491189096e-08
-7.46000576764e-09
1.04559034658e-09
-2.78415861311e-08
-7.12116580937e-09
1.05182050114e-09
-2.73955677657e-08
-6.67197354951e-09
8.84678884864e-10
-2.6793523452e-08
-6.13566947093e-09
5.44123852883e-10
-2.60165258839e-08
-5.54129973464e-09
-2.50764581505e-08
-4.91893152783e-09
3.93001460578e-11
-5.36442749761e-10
-2.43403002813e-08
-5.27041102689e-09
-4.53283550203e-12
-9.0379813448e-10
-2.51802863163e-08
-5.9257063731e-09
-1.08304311355e-09
-2.5862838864e-08
-6.5453206886e-09
-1.07485636783e-09
-2.6382177844e-08
-7.1007022768e-09
-8.96955980067e-10
-2.67619043213e-08
-7.56368827601e-09
-5.84294426736e-10
-2.70207496109e-08
-7.9116809331e-09
-1.85730291181e-10
-2.71777359644e-08
-8.12942562482e-09
2.41748234164e-10
-2.72373104736e-08
-8.2056427255e-09
6.40014862352e-10
-2.71753670998e-08
-8.12843597827e-09
9.52052853596e-10
-2.70162513409e-08
-7.90970636699e-09
1.12895351696e-09
-2.67556330706e-08
-7.56074904555e-09
1.13564738737e-09
-2.63746371691e-08
-7.09681816326e-09
9.54201453383e-10
-2.58545918105e-08
-6.54051280166e-09
5.83595555918e-10
-2.51717180276e-08
-5.91997988276e-09
-2.43310243813e-08
-5.2638298248e-09
3.78729168802e-11
-5.72551490972e-10
-2.30315059492e-08
-5.43947631205e-09
-3.97651795069e-12
-9.65710792038e-10
-2.37587138301e-08
-6.11585242662e-09
-1.15698614162e-09
-2.43434379353e-08
-6.7505917907e-09
-1.14793500064e-09
-2.47805096453e-08
-7.31667900615e-09
-9.57919174564e-10
-2.50970057615e-08
-7.78697826256e-09
-6.24503278641e-10
-2.53112818565e-08
-8.13964295367e-09
-1.99854458261e-10
-2.54407518574e-08
-8.35985715774e-09
2.55427360528e-10
-2.54899585982e-08
-8.43670143496e-09
6.79672893104e-10
-2.54386613898e-08
-8.35886948603e-09
1.01225721609e-09
-2.53073115968e-08
-8.13768150607e-09
1.20097714986e-09
-2.5091459509e-08
-7.78408037686e-09
1.20819079039e-09
-2.47738019429e-08
-7.31288904098e-09
1.01439229514e-09
-2.43360158314e-08
-6.74595882822e-09
6.177962235e-10
-2.37508523586e-08
-6.11040147026e-09
-2.30226228841e-08
-5.43327541997e-09
3.66878057388e-11
-6.04200961703e-10
-2.13132341672e-08
-5.45952881487e-09
-3.50575662701e-12
-1.01899757452e-09
-2.19228434056e-08
-6.14865493443e-09
-1.22030563804e-09
-2.24111724198e-08
-6.79132268892e-09
-1.21005842069e-09
-2.27701821205e-08
-7.36193929459e-09
-1.00926944292e-09
-2.30284804637e-08
-7.83447676424e-09
-6.57987600794e-10
-2.32025579209e-08
-8.18799025444e-09
-2.11233497279e-10
-2.33073190938e-08
-8.40822174034e-09
2.67479784979e-10
-2.33470248963e-08
-8.48476724414e-09
7.13703754761e-10
-2.33054528319e-08
-8.4072312923e-09
1.06390613104e-09
-2.31990025355e-08
-8.18603202997e-09
1.26304814695e-09
-2.30234803254e-08
-7.83160474325e-09
1.2710406086e-09
-2.27640630316e-08
-7.35822249235e-09
1.06679680058e-09
-2.2404272183e-08
-6.78683927019e-09
6.4823755832e-10
-2.19153444206e-08
-6.14345160042e-09
-2.13044613434e-08
-5.45368439911e-09
3.59467648344e-11
-6.31993084549e-10
-1.93134480292e-08
-5.35540772873e-09
-3.11754810373e-12
-1.0647483513e-09
-1.9806067935e-08
-6.0517756611e-09
-1.27429168506e-09
-2.02024459981e-08
-6.69749861743e-09
-1.26230521882e-09
-2.04907616036e-08
-7.2682274164e-09
-1.05173562928e-09
-2.06981728456e-08
-7.73917802146e-09
-6.85178006722e-10
-2.08378098458e-08
-8.09054911068e-09
-2.20074546668e-10
-2.09214486889e-08
-8.30883693103e-09
2.77892147687e-10
-2.09528407281e-08
-8.384338458e-09
7.42328982422e-10
-2.09197258776e-08
-8.30784503248e-09
1.10754187327e-09
-2.08345082916e-08
-8.08859557379e-09
1.31608993714e-09
-2.06934765518e-08
-7.73633145328e-09
1.32537482766e-09
-2.04849085752e-08
-7.2645793708e-09
1.1124378063e-09
-2.01956775235e-08
-6.69315499964e-09
6.75523370782e-10
-1.97984806704e-08
-6.04680402036e-09
-1.93043991474e-08
-5.34989964175e-09
3.5685922534e-11
-6.55954910046e-10
-1.71388261478e-08
-5.14833082836e-09
-2.78749773213e-12
-1.10424689416e-09
-1.75174524561e-08
-5.84828320496e-09
-1.32045856995e-09
-1.78288998222e-08
-6.49363928414e-09
-1.30572008932e-09
-1.80567405712e-08
-7.06107765406e-09
-1.08587986315e-09
-1.822218166e-08
-7.52730923183e-09
-7.06353841649e-10
-1.8333837535e-08
-7.87401193924e-09
-2.26537833402e-10
-1.84002973771e-08
-8.0886803552e-09
2.86578089418e-10
-1.84246999476e-08
-8.16250377414e-09
7.65586880841e-10
-1.83986189093e-08
-8.08769342872e-09
1.1434989958e-09
-1.83305895968e-08
-7.87207416929e-09
1.36093897254e-09
-1.82174922321e-08
-7.52450072503e-09
1.37252340496e-09
-1.80507747779e-08
-7.05750894764e-09
1.15244673623e-09
-1.78218129457e-08
-6.48944175937e-09
6.99560679232e-10
-1.75092779436e-08
-5.84354467752e-09
-1.71290477359e-08
-5.14315394987e-09
3.5852084788e-11
-6.76889437526e-10
-1.48777490142e-08
-4.85586344529e-09
-2.51133603278e-12
-1.14063080919e-09
-1.51446597859e-08
-5.55723683126e-09
-1.36115869313e-09
-1.53828509611e-08
-6.19984805425e-09
-1.34136624471e-09
-1.5563151699e-08
-6.76123054211e-09
-1.11203162469e-09
-1.56961268619e-08
-7.22005714854e-09
-7.21616323647e-10
-1.57861934052e-08
-7.5598988587e-09
-2.3070212029e-10
-1.58392624515e-08
-7.76949574357e-09
2.93383908999e-10
-1.585804305e-08
-7.84109776087e-09
7.83352392966e-10
-1.58375053136e-08
-7.768524351e-09
1.17188842988e-09
-1.57827572118e-08
-7.55799576426e-09
1.39844639091e-09
-1.56911091691e-08
-7.21730985306e-09
1.414641088e-09
-1.55566473372e-08
-6.75776348601e-09
1.18977858195e-09
-1.53749504074e-08
-6.19581527848e-09
7.209958011e-10
-1.51353295578e-08
-5.5527496689e-09
-1.48666642583e-08
-4.85103649642e-09
3.62830875844e-11
-7.03628714942e-10
-1.25952356476e-08
-4.49254514767e-09
-2.29012088213e-12
-1.18306208219e-09
-1.27587963776e-08
-5.19485814019e-09
-1.400896762e-09
-1.29443525531e-08
-5.83303690706e-09
-1.37104029843e-09
-1.30904800091e-08
-6.38593901622e-09
-1.13096869114e-09
-1.31991085014e-08
-6.83501125928e-09
-7.3133445932e-10
-1.32728435533e-08
-7.16611939224e-09
-2.32779414327e-10
-1.3315850522e-08
-7.3694285486e-09
2.98316000316e-10
-1.33301885649e-08
-7.43836178326e-09
7.95794212684e-10
-1.33138701093e-08
-7.36848702418e-09
1.19328381524e-09
-1.32689490348e-08
-7.16427711072e-09
1.43022134428e-09
-1.3193361715e-08
-6.83235819429e-09
1.45604763941e-09
-1.30829599031e-08
-6.38260617105e-09
1.23343457577e-09
-1.29351136971e-08
-5.82919549646e-09
7.48535888536e-10
-1.27477297718e-08
-5.19065046072e-09
-1.25822290628e-08
-4.48811340208e-09
3.70037593854e-11
-7.71155135839e-10
-4.06973205503e-09
-2.05126405822e-12
-1.03099956806e-08
-1.25290096771e-09
-4.77495171687e-09
-1.04307979436e-08
-1.45493245146e-09
-5.40678413653e-09
-1.05859934273e-08
-1.4079095253e-09
-5.94910829654e-09
-1.07073889102e-08
-1.1535665557e-09
-6.3867133239e-09
-1.07978972846e-08
-7.42819302942e-10
-6.70785559477e-09
-1.08602443168e-08
-2.35345431853e-10
-6.9041179099e-09
-1.08965301775e-08
3.03788836401e-10
-6.97010794492e-09
-1.0907756769e-08
8.10053797574e-10
-6.90322475161e-09
-1.08941615473e-08
1.21840998296e-09
-6.70610894546e-09
-1.0855566609e-08
1.46925653945e-09
-6.38420128788e-09
-1.07909781834e-08
1.51181871695e-09
-5.94595943663e-09
-1.06983062102e-08
1.30455217775e-09
-5.403176758e-09
-1.05748007263e-08
8.16955708598e-10
-4.77103269437e-09
-1.04174172292e-08
-4.06579849647e-09
3.78554762522e-11
-1.02943990163e-08
-4.3302249728e-12
6.09763592064e-10
-7.19797504854e-10
1.08699198883e-12
-2.90327492913e-12
6.73167570002e-10
-7.99298858865e-10
5.87189432196e-15
7.33796405714e-10
-8.75778034045e-10
1.74378626174e-12
7.88154936359e-10
-9.45305134117e-10
2.11317336061e-12
8.32628611632e-10
-1.00396299476e-09
1.21487492051e-12
8.65378877134e-10
-1.04850195221e-09
-4.5594315103e-13
8.85645948763e-10
-1.07670997971e-09
-2.38963303684e-12
8.9269432361e-10
-1.08683109477e-09
-4.0962480844e-12
8.85000854287e-10
-1.07668145015e-09
-5.11281920034e-12
8.64084337817e-10
-1.04844519323e-09
-5.02075619323e-12
8.30771514371e-10
-1.003876131e-09
-3.60258896136e-12
7.86108349046e-10
-9.45183535146e-10
-1.00286648995e-12
7.31802591102e-10
-8.75616671345e-10
4.77643680383e-13
6.71811601957e-10
-7.99087613763e-10
6.09138397192e-10
-7.19515945081e-10
-2.20013056081e-12
2.09406939972e-12
1.69493725343e-09
-1.88144175935e-09
2.69293463106e-12
1.38418514211e-11
1.84471561432e-09
-2.0844333366e-09
2.42183988682e-11
1.98407403026e-09
-2.27904036686e-09
2.84249736925e-11
2.10509659004e-09
-2.45542499446e-09
2.54536071851e-11
2.20155829713e-09
-2.6038926485e-09
1.62786531581e-11
2.27114150643e-09
-2.71643619086e-09
3.090922095e-12
2.31370197722e-09
-2.7876244787e-09
-1.14753563987e-11
2.32857298007e-09
-2.81311812987e-09
-2.47553443815e-11
2.31240404745e-09
-2.78753250639e-09
-3.42058422381e-11
2.26855823239e-09
-2.71625708156e-09
-3.77489967218e-11
2.19787364119e-09
-2.60362191204e-09
-3.42376088257e-11
2.10096165663e-09
-2.45505213665e-09
-2.43981363932e-11
1.98018848863e-09
-2.2785518808e-09
-1.23470134569e-11
1.84210168386e-09
-2.08380442914e-09
1.69393392806e-09
-1.88063742876e-09
-6.1628805391e-12
1.63582166105e-11
2.76637498438e-09
-2.81853780445e-09
3.78015904207e-12
4.18773797645e-11
2.96973438435e-09
-3.12218863935e-09
6.01269373063e-11
3.15432267086e-09
-3.41250272521e-09
6.55798189131e-11
3.30909583928e-09
-3.6751094497e-09
5.70261953921e-11
3.42882280813e-09
-3.89583590206e-09
3.66532796534e-11
3.51297329102e-09
-4.06298038538e-09
8.60901540177e-12
3.56368632277e-09
-4.16858207188e-09
-2.20657389698e-11
3.58152440225e-09
-4.20630501114e-09
-5.02384459193e-11
3.56214592115e-09
-4.16842627313e-09
-7.09652631551e-11
3.50994042691e-09
-4.06267672304e-09
-8.01986215064e-11
3.42456528708e-09
-3.89537990741e-09
-7.55645761289e-11
3.30438622751e-09
-3.67448972474e-09
-5.78326579428e-11
3.15012921598e-09
-3.4117036635e-09
-3.17071029311e-11
2.96717874288e-09
-3.1211801775e-09
2.76598214778e-09
-2.81728086848e-09
-9.55609227475e-12
3.3456768655e-11
3.58335902836e-09
-3.57879725845e-09
4.46272888115e-12
7.24154160907e-11
3.7951306965e-09
-3.96654678088e-09
9.73094919533e-11
3.98305895164e-09
-4.33611598187e-09
1.02676116697e-10
4.13421587393e-09
-4.6697072035e-09
8.78650578569e-11
4.24681889919e-09
-4.94968120544e-09
5.63490079269e-11
4.32327395902e-09
-5.16146380612e-09
1.40548040786e-11
4.36845160082e-09
-5.29510223508e-09
-3.1924050345e-11
4.38449849518e-09
-5.34271542307e-09
-7.43663928574e-11
4.36690707764e-09
-5.2948798569e-09
-1.06255277887e-10
4.32027293849e-09
-5.16103072347e-09
-1.21736041255e-10
4.24268361907e-09
-4.94903646004e-09
-1.17139077193e-10
4.12972811559e-09
-4.66884440263e-09
-9.2616606508e-11
3.97927881067e-09
-4.33502474939e-09
-5.27521477233e-11
3.79318773066e-09
-3.96520086918e-09
3.5838492421e-09
-3.57716420734e-09
-1.2389506443e-11
5.00490869294e-11
4.06567731683e-09
-4.17523884693e-09
4.8389259955e-12
9.9494830606e-11
4.25186614206e-09
-4.63225032623e-09
1.28720599012e-10
4.4137654633e-09
-5.0663919187e-09
1.3291134153e-10
4.53761409083e-09
-5.45742254744e-09
1.12387560092e-10
4.62540353557e-09
-5.78512231995e-09
7.1753187967e-11
4.68211373334e-09
-6.03274675053e-09
1.82439895756e-11
4.71467429851e-09
-6.18880270248e-09
-3.96498091407e-11
4.72644499249e-09
-6.24424745417e-09
-9.331592759e-11
4.71323477777e-09
-6.18851018557e-09
-1.34310481611e-10
4.67935379396e-09
-6.03217817868e-09
-1.55438410976e-10
4.62166222365e-09
-5.78428409589e-09
-1.51889128815e-10
4.53364811732e-09
-5.45631916218e-09
-1.22845812566e-10
4.41060058637e-09
-5.0650255915e-09
-7.22610681845e-11
4.25062337337e-09
-4.63060573341e-09
4.06696968211e-09
-4.17329579811e-09
-1.46567066067e-11
6.41785505697e-11
4.23565814161e-09
-4.6211575662e-09
4.98365295741e-12
1.20346797355e-10
4.38062803109e-09
-5.13444807431e-09
1.51513380947e-10
4.50412725333e-09
-5.62040542732e-09
1.53887832955e-10
4.59289857194e-09
-6.05715762019e-09
1.28841592608e-10
4.65147287949e-09
-6.42264452383e-09
8.18279961559e-11
4.68636130259e-09
-6.69853507945e-09
2.08531769933e-11
4.70540432022e-09
-6.87217084656e-09
-4.48583374773e-11
4.71254274007e-09
-6.93367307975e-09
-1.05990855038e-10
4.70410939094e-09
-6.87180543025e-09
-1.53337863103e-10
4.68390689085e-09
-6.6978265137e-09
-1.788961782e-10
4.64819834854e-09
-6.42160985509e-09
-1.77013764989e-10
4.58948820173e-09
-6.05581702225e-09
-1.45835928131e-10
4.50153171028e-09
-5.61877960249e-09
-8.83857814357e-11
4.37985167415e-09
-5.1325377569e-09
4.23740107167e-09
-4.61895636901e-09
-1.63826060865e-11
7.49558009385e-11
4.16155433019e-09
-4.92982250702e-09
4.96515827839e-12
1.34404162765e-10
4.26456102981e-09
-5.48816278936e-09
1.65596618476e-10
4.35007391222e-09
-6.01494706354e-09
1.65921950302e-10
4.4065949469e-09
-6.48732623878e-09
1.37725685186e-10
4.43972608133e-09
-6.88202185909e-09
8.69838006588e-11
4.45642372805e-09
-7.17962239704e-09
2.20094388812e-11
4.46445901476e-09
-7.36664111125e-09
-4.77762873358e-11
4.46778794535e-09
-7.43265934437e-09
-1.1290046142e-10
4.46332462044e-09
-7.36620261371e-09
-1.63935037445e-10
4.45429000255e-09
-7.17877414563e-09
-1.9253990467e-10
4.43690709991e-09
-6.88079371571e-09
-1.92549362023e-10
4.40368184911e-09
-6.48575714175e-09
-1.61178288429e-10
4.34790953605e-09
-6.01307988386e-09
-1.00361601453e-10
4.26403550242e-09
-5.48601715555e-09
4.16336807458e-09
-4.92740616999e-09
-1.7601130048e-11
8.22152753147e-11
3.91975956746e-09
-5.11388317367e-09
4.82279520828e-12
1.42329907567e-10
3.98848093782e-09
-5.7075314208e-09
1.72215879856e-10
4.04289769838e-09
-6.26560474509e-09
1.70537868649e-10
4.07461170851e-09
-6.76480903377e-09
1.40456004818e-10
4.08916179743e-09
-7.18118711576e-09
8.81872333226e-11
4.09318238886e-09
-7.49471184194e-09
2.19970585297e-11
4.0937394127e-09
-7.69139468901e-09
-4.88787797269e-11
4.09444230838e-09
-7.76056203466e-09
-1.15200538906e-10
4.09276347556e-09
-7.69088632541e-09
-1.67706017987e-10
4.09135460933e-09
-7.49373053737e-09
-1.98081571753e-10
4.08675508336e-09
-7.17977651273e-09
-1.99930240034e-10
4.0721175526e-09
-6.76302811546e-09
-1.69711849637e-10
4.04101688146e-09
-6.26352005863e-09
-1.08183384048e-10
3.98797788857e-09
-5.70518213205e-09
3.92126583341e-09
-5.11129126962e-09
-1.83935835429e-11
8.62194522905e-11
3.57613993334e-09
-5.18503569924e-09
4.59748228767e-12
1.45210935423e-10
3.6210231116e-09
-5.80548034479e-09
1.72980478349e-10
3.65304848915e-09
-6.38649322667e-09
1.69510804048e-10
3.66801856641e-09
-6.9047686634e-09
1.38588524531e-10
3.67079189903e-09
-7.33614713718e-09
8.64632464437e-11
3.66731558624e-09
-7.66042423517e-09
2.11101190233e-11
3.66362575662e-09
-7.86343328602e-09
-4.86720141097e-11
3.66279337639e-09
-7.93452328482e-09
-1.14126295387e-10
3.66279994244e-09
-7.86286147797e-09
-1.66414856427e-10
3.66576680215e-09
-7.6593224646e-09
-1.97500598631e-10
3.66873980883e-09
-7.33457271892e-09
-2.00971250892e-10
3.66584630802e-09
-6.90280042481e-09
-1.72716293182e-10
3.65131697737e-09
-6.38422111301e-09
-1.12285702977e-10
3.62035158859e-09
-5.80296201154e-09
3.57708359281e-09
-5.18230745061e-09
-1.88479352888e-11
8.74474253741e-11
3.18045635582e-09
-5.15404674385e-09
4.32149042805e-12
1.44155610087e-10
3.21117154841e-09
-5.79386093738e-09
1.69404216848e-10
3.22868888811e-09
-6.39053174746e-09
1.64441030868e-10
3.23363221898e-09
-6.9210708832e-09
1.33500849732e-10
3.23006428313e-09
-7.36153209028e-09
8.27093188912e-11
3.22309744194e-09
-7.69194875286e-09
1.9605578083e-11
3.21762449889e-09
-7.8982952853e-09
-4.75949767058e-11
3.21608865095e-09
-7.97021071319e-09
-1.10758391125e-10
3.21692762499e-09
-7.89766898963e-09
-1.61623285532e-10
3.22178062533e-09
-7.69074374511e-09
-1.92583505248e-10
3.22828836463e-09
-7.35981834624e-09
-1.97367495637e-10
3.23167641796e-09
-6.9189457496e-09
-1.71477497993e-10
3.22696835602e-09
-6.38810707471e-09
-1.1329247212e-10
3.21016126182e-09
-5.79121070303e-09
3.18058612429e-09
-5.15122171702e-09
-1.90585477792e-11
8.6445212275e-11
2.76706603196e-09
-5.03098841949e-09
4.02065920188e-12
1.40161524643e-10
2.79089233493e-09
-5.68381230248e-09
1.62800315363e-10
2.79987033206e-09
-6.28993202194e-09
1.567078429e-10
2.7996086377e-09
-6.82686849883e-09
1.26373047765e-10
2.79352082061e-09
-7.27124828803e-09
7.76960813487e-11
2.78583365896e-09
-7.60374349699e-09
1.77104388743e-11
2.78025599691e-09
-7.81078522298e-09
-4.60071659066e-11
2.77859134658e-09
-7.882556914e-09
-1.06001871178e-10
2.77965578288e-09
-7.81011521406e-09
-1.54649511678e-10
2.78468403088e-09
-7.60245568999e-09
-1.8485024884e-10
2.79192239091e-09
-7.26942351079e-09
-1.90578992259e-10
2.79774141665e-09
-6.82462042945e-09
-1.67137434285e-10
2.79801646217e-09
-6.28739228973e-09
-1.11890111302e-10
2.78938833404e-09
-5.68106861118e-09
2.76619961367e-09
-5.02810573152e-09
-1.9103721024e-11
8.37438588864e-11
2.35815279937e-09
-4.82551286249e-09
3.69587503573e-12
1.34173796904e-10
2.37951290442e-09
-5.48615170815e-09
1.54432885586e-10
2.38376662968e-09
-6.09665886547e-09
1.47636832312e-10
2.38141525761e-09
-6.63507689279e-09
1.18337288265e-10
2.37532114054e-09
-7.07894866358e-09
7.21623154517e-11
2.368697965e-09
-7.40999986345e-09
1.56599060109e-11
2.36410317496e-09
-7.61543488292e-09
-4.42232128284e-11
2.36265807632e-09
-7.68621979231e-09
-1.00676897234e-10
2.36355978809e-09
-7.6147332926e-09
-1.4671280711e-10
2.36763162961e-09
-7.40865196249e-09
-1.75719748795e-10
2.37377939365e-09
-7.07704348947e-09
-1.81967234053e-10
2.3794910009e-09
-6.63274144726e-09
-1.60741985048e-10
2.38162228684e-09
-6.09404236757e-09
-1.08709196764e-10
2.37736719791e-09
-5.48335386574e-09
2.35616980619e-09
-4.82261127782e-09
-1.90489039926e-11
7.99339257502e-11
1.96725178671e-09
-4.54706099804e-09
3.36669447356e-12
1.27404638046e-10
1.98751462336e-09
-5.21172444079e-09
1.45920586133e-10
1.98910336063e-09
-5.82277611997e-09
1.38852260591e-10
1.98670808589e-09
-6.35864213264e-09
1.10720670997e-10
1.98232310008e-09
-6.7982396574e-09
6.69774149396e-11
1.9779605883e-09
-7.12481646995e-09
1.37315477909e-11
1.97497759824e-09
-7.32666236349e-09
-4.25516763171e-11
1.97400593689e-09
-7.39573743622e-09
-9.56898951926e-11
1.97443545111e-09
-7.32594267465e-09
-1.39180053017e-10
1.97687583738e-09
-7.12343339843e-09
-1.66860042651e-10
1.98070461602e-09
-6.79628681319e-09
-1.73200735596e-10
1.98456882787e-09
-6.35625559924e-09
-1.5355580372e-10
1.98649737416e-09
-5.82012065763e-09
-1.04392127013e-10
1.98455075555e-09
-5.20891368192e-09
1.96401199619e-09
-4.54418473508e-09
-1.89234795399e-11
7.59799687823e-11
1.60172872792e-09
-4.2049591586e-09
3.04816976185e-12
1.21955789305e-10
1.61927539686e-09
-4.87178889678e-09
1.39758425699e-10
1.61964359207e-09
-5.48063911567e-09
1.32632209912e-10
1.61910823837e-09
-6.01054200263e-09
1.05312382967e-10
1.61782987039e-09
-6.44261004571e-09
6.32343558024e-11
1.61650053266e-09
-6.76211231731e-09
1.23332889319e-11
1.61557003123e-09
-6.95868510876e-09
-4.13991838356e-11
1.61514411646e-09
-7.0254423251e-09
-9.21315995816e-11
1.61496563132e-09
-6.95796269558e-09
-1.33836848347e-10
1.61527657701e-09
-6.76072243269e-09
-1.6055428504e-10
1.61595946179e-09
-6.44064611823e-09
-1.66787329879e-10
1.61656031818e-09
-6.008142531e-09
-1.47708232131e-10
1.61639717337e-09
-5.47798049663e-09
-9.9940459966e-11
1.61530731713e-09
-4.86900750875e-09
1.59703107131e-09
-4.20216526234e-09
-1.87585256003e-11
7.07866290699e-11
-3.80980920889e-09
2.70385442252e-12
1.26927852726e-09
1.2026796641e-10
-4.47980941755e-09
1.27533100362e-09
1.38771384761e-10
-5.08335215272e-09
1.2783396132e-09
1.31529229167e-10
-5.60376473519e-09
1.28155090914e-09
1.04153716303e-10
-6.02519974046e-09
1.28417683198e-09
6.23331823237e-11
-6.3352711634e-09
1.28617119385e-09
1.19118421431e-11
-6.52508893848e-09
1.2873087978e-09
-4.11909163058e-11
-6.58900437941e-09
1.28746152176e-09
-9.1381099431e-11
-6.52438308148e-09
1.28655674674e-09
-1.32710657335e-10
-6.33391106253e-09
1.2846580361e-09
-1.59323917879e-10
-6.02327356388e-09
1.2818623147e-09
-1.65504738082e-10
-5.60140399031e-09
1.27838475747e-09
-1.45604808052e-10
-5.0807364974e-09
1.27423389227e-09
-9.42746033988e-11
-4.47707850357e-09
1.27018570639e-09
-3.80720830256e-09
-1.8541156969e-11
1.26285878369e-09
8.25411884048e-12
-1.10912851226e-10
-6.17172271464e-10
-3.67292199425e-13
1.24926015018e-11
-1.2361836292e-10
-6.80694843172e-10
1.42749396825e-11
-1.3680813382e-10
-7.41674928681e-10
1.38931089886e-11
-1.48733662905e-10
-7.97016495897e-10
1.14866062506e-11
-1.58682391845e-10
-8.43610864433e-10
7.43732970346e-12
-1.6608014914e-10
-8.7892098352e-10
2.2929561818e-12
-1.70670880425e-10
-9.01256284213e-10
-3.23618571999e-12
-1.72253398315e-10
-9.09272899397e-10
-8.331879356e-12
-1.70519819875e-10
-9.0120302168e-10
-1.22753309573e-11
-1.6577408792e-10
-8.78815573449e-10
-1.4511031976e-11
-1.58242938828e-10
-8.43455831408e-10
-1.46876474322e-11
-1.4823650712e-10
-7.96814871543e-10
-1.26398402765e-11
-1.36269599238e-10
-7.41428551322e-10
-8.15729082613e-12
-1.23197191498e-10
-6.80400369796e-10
-1.10700230538e-10
-6.16808758849e-10
-1.84610559147e-13
1.79475836534e-11
-2.47583326817e-10
-1.76257559682e-09
-8.67477047901e-13
2.78270458817e-11
-2.72484982684e-10
-1.94670764619e-09
3.19574820987e-11
-2.9798803225e-10
-2.12340242231e-09
3.10565029534e-11
-3.20861669853e-10
-2.28369544576e-09
2.56386134439e-11
-3.3959892109e-10
-2.4186522115e-09
1.66003923731e-11
-3.53350230145e-10
-2.52093742759e-09
5.17703628513e-12
-3.61808588505e-10
-2.58560351446e-09
-7.077921597e-12
-3.64719118201e-10
-2.60873932598e-09
-1.83927406793e-11
-3.61498266351e-10
-2.58545108836e-09
-2.71989039142e-11
-3.5272541758e-10
-2.52063531182e-09
-3.22493523182e-11
-3.38698462082e-10
-2.41820754692e-09
-3.26823581107e-11
-3.19806422601e-10
-2.28311672773e-09
-2.7981028284e-11
-2.96878884868e-10
-2.12269557328e-09
-1.75869405743e-11
-2.71570941403e-10
-1.94586407395e-09
-2.47081059454e-10
-1.76155385929e-09
-3.14134498363e-13
2.2377880478e-11
-3.53106206471e-10
-2.73491525269e-09
-1.15557568105e-12
3.49699314468e-11
-3.84642963799e-10
-3.02375871255e-09
4.01306169149e-11
-4.16568804124e-10
-3.30033930941e-09
3.88529543738e-11
-4.4497092083e-10
-3.55086128143e-09
3.19792514195e-11
-4.6792898923e-10
-3.76157583477e-09
2.07002639605e-11
-4.84576032053e-10
-3.92117071496e-09
6.55164869966e-12
-4.94733447461e-10
-4.02197406364e-09
-8.59225831499e-12
-4.98229596324e-10
-4.05794631734e-09
-2.26091172107e-11
-4.94362706852e-10
-4.02172976675e-09
-3.36095038645e-11
-4.83833242024e-10
-3.9206874924e-09
-4.00424206729e-11
-4.66861097508e-10
-3.76086572435e-09
-4.07442947064e-11
-4.43716042705e-10
-3.5499390066e-09
-3.48917844216e-11
-4.15264562118e-10
-3.29921705709e-09
-2.16886526041e-11
-3.83560748562e-10
-3.0224289227e-09
-3.52510476142e-10
-2.73332836999e-09
-2.38555282706e-13
2.33918793023e-11
-4.29159551972e-10
-3.52551249873e-09
-1.28835561469e-12
3.66401999324e-11
-4.63408907024e-10
-3.9020527508e-09
4.19729585728e-11
-4.97527079329e-10
-4.26160935069e-09
4.04884558434e-11
-5.27493528877e-10
-4.58669865002e-09
3.32413464867e-11
-5.51365843483e-10
-4.85980398101e-09
2.15426920873e-11
-5.684553291e-10
-5.06647872744e-09
6.97558244175e-12
-5.78797445836e-10
-5.19687633364e-09
-8.58382836528e-12
-5.82359763563e-10
-5.24328834752e-09
-2.30220455115e-11
-5.78425725776e-10
-5.19654669829e-09
-3.44511569885e-11
-5.67715330042e-10
-5.06582813942e-09
-4.12698255521e-11
-5.50304000192e-10
-4.85885020063e-09
-4.21825377057e-11
-5.2623876847e-10
-4.58546429706e-09
-3.6165825957e-11
-4.9623211809e-10
-4.26011600531e-09
-2.23243255313e-11
-4.6233241742e-10
-3.90030058344e-09
-4.28551734917e-10
-3.52345631512e-09
-7.03001913443e-15
2.22791377829e-11
-4.77263154187e-10
-4.14871867289e-09
-1.31190407684e-12
3.49263790557e-11
-5.11402150535e-10
-4.59781409868e-09
3.99295238649e-11
-5.44610930737e-10
-5.02527873114e-09
3.84004809192e-11
-5.73266693136e-10
-5.41096524683e-09
3.14786346409e-11
-5.95706447492e-10