/*--------------------------------*- C++ -*----------------------------------*\
  =========                 |
  \\      /  F ield         | OpenFOAM: The Open Source CFD Toolbox
   \\    /   O peration     | Website:  https://openfoam.org
    \\  /    A nd           | Version:  7
     \\/     M anipulation  |
\*---------------------------------------------------------------------------*/
FoamFile
{
    version     2.0;
    format      ascii;
    class       volVectorField;
    location    "1.34";
    object      U;
}
// * * * * * * * * * * * * * * * * * * * * * * * * * * * * * * * * * * * * * //

dimensions      [0 1 -1 0 0 0 0];

internalField   nonuniform List<vector> 
22500
(
(-3.35762854619e-05 -3.7304024957e-05 8.49069284854e-05)
(-3.16454263444e-05 -4.23251423552e-05 8.67024183118e-05)
(-2.83668067208e-05 -4.74117025988e-05 8.59571090885e-05)
(-2.41015915396e-05 -5.19932374174e-05 8.36046038985e-05)
(-1.88686636775e-05 -5.58534488074e-05 8.07323413674e-05)
(-1.29283349538e-05 -5.87560211453e-05 7.8163520814e-05)
(-6.48473160132e-06 -6.05515462866e-05 7.64390358736e-05)
(2.18986920592e-07 -6.11452755385e-05 7.58763746515e-05)
(6.91852946346e-06 -6.05021054765e-05 7.66084359885e-05)
(1.33502013892e-05 -5.86585983892e-05 7.85021762638e-05)
(1.92730464987e-05 -5.57104535663e-05 8.12405293788e-05)
(2.44840746643e-05 -5.18095447433e-05 8.42824022955e-05)
(2.87229129298e-05 -4.71921911527e-05 8.68048181194e-05)
(3.1974029942e-05 -4.20777535036e-05 8.77169430297e-05)
(3.38566494411e-05 -3.70527070538e-05 8.60649370568e-05)
(-9.88915097396e-05 -0.000109453252056 -9.18875719252e-05)
(-9.2868029275e-05 -0.00012404863409 -0.000121553990191)
(-8.33105849258e-05 -0.000138710589812 -0.000157058675927)
(-7.08215979743e-05 -0.000151879796395 -0.000193609934028)
(-5.55313628323e-05 -0.000162952758859 -0.000226630543724)
(-3.80978713041e-05 -0.000171285438687 -0.000252582612659)
(-1.91456945248e-05 -0.000176446747078 -0.000269038959541)
(5.93304522441e-07 -0.000178154657701 -0.0002745505455)
(2.03216923465e-05 -0.000176307629287 -0.000268553270384)
(3.92436892441e-05 -0.000171011387083 -0.000251610055029)
(5.66311482085e-05 -0.000162551147765 -0.000225167188908)
(7.18626189429e-05 -0.0001513641853 -0.000191650893178)
(8.42796789098e-05 -0.000138097248065 -0.000154598005981)
(9.3754274355e-05 -0.000123361537895 -0.000118594498474)
(9.96470366484e-05 -0.000108751695501 -8.84841149268e-05)
(-0.000158904562689 -0.000175159148305 -0.000561719941364)
(-0.000148327270443 -0.000198079733071 -0.000643784292366)
(-0.000132687576384 -0.00022062100759 -0.000731615007654)
(-0.000112516823031 -0.000240673313724 -0.000816051278168)
(-8.81056593145e-05 -0.000257400892398 -0.000889241074351)
(-6.04075332824e-05 -0.000269935811316 -0.000945330087307)
(-3.03918614807e-05 -0.000277682784292 -0.000980396788746)
(8.23009598012e-07 -0.00028024753222 -0.000992141319915)
(3.20252419589e-05 -0.000277487852569 -0.000979691702242)
(6.20050394223e-05 -0.000269551202249 -0.000943914683148)
(8.96471226957e-05 -0.000256835980411 -0.000887100144935)
(0.000113984993782 -0.000239945074732 -0.000813162931854)
(0.000134064131035 -0.00021975309344 -0.000727952622319)
(0.000149591629886 -0.000197105288956 -0.000639328286832)
(0.000159996262642 -0.000174155171702 -0.000556521663183)
(-0.000210792404129 -0.000231737090221 -0.00121015370183)
(-0.000195587028343 -0.000261029543916 -0.00134464223484)
(-0.00017424354949 -0.000289225925253 -0.00148111990275)
(-0.000147235975911 -0.000314053272931 -0.00160751052843)
(-0.00011502887419 -0.000334593704728 -0.00171427301668)
(-7.87682620869e-05 -0.000349909688396 -0.00179467336486)
(-3.96618999195e-05 -0.000359350223413 -0.00184440437559)
(9.15480481176e-07 -0.000362477958924 -0.00186101575768)
(4.14814575902e-05 -0.000359134722263 -0.00184359189406)
(8.05555542975e-05 -0.00034948378263 -0.00179303785038)
(0.00011676468457 -0.000333966317449 -0.00171178397744)
(0.000148902567301 -0.000313240513003 -0.0016041213237)
(0.000175821119077 -0.000288252237912 -0.00147677172112)
(0.000197047988563 -0.000259928943684 -0.00133927458974)
(0.000212075113372 -0.000230585821552 -0.00120377767218)
(-0.000253330685556 -0.000278121841938 -0.00191884742164)
(-0.000233790315418 -0.000311625679229 -0.00209129109384)
(-0.000207338841766 -0.000343267447249 -0.00225988119314)
(-0.000174541413634 -0.000370867011961 -0.00241190323076)
(-0.000136011296144 -0.000393533470873 -0.00253786985494)
(-9.29991654941e-05 -0.000410359477778 -0.00263146815726)
(-4.68502117672e-05 -0.000420705870948 -0.0026888750513)
(9.19479244652e-07 -0.000424136431992 -0.0027079907048)
(4.8679965718e-05 -0.000420492690682 -0.00268803519702)
(9.48029510471e-05 -0.000409937783462 -0.00262977376553)
(0.000137772883316 -0.000392911116209 -0.0025352777767)
(0.000176244862205 -0.00037005791852 -0.0024083447384)
(0.000208965517548 -0.000342293210507 -0.00225526625597)
(0.000235309911587 -0.000310517161516 -0.00208551553256)
(0.000254687867333 -0.000276941725159 -0.00191186510438)
(-0.000286474670598 -0.00031437157503 -0.00260093485458)
(-0.000263137551111 -0.00035005234681 -0.00279284930771)
(-0.000232337227094 -0.000383245582808 -0.00297528677216)
(-0.000194879303227 -0.000411956455861 -0.00313665232821)
(-0.000151476826209 -0.000435392024021 -0.00326852729212)
(-0.000103417883254 -0.000452726295237 -0.00336558421273)
(-5.21062538712e-05 -0.000463364599805 -0.00342475472864)
(8.85982842486e-07 -0.000466894261948 -0.00344440425702)
(5.38707242034e-05 -0.000463164486843 -0.00342392513177)
(0.0001051612482 -0.000452330555412 -0.00336390864233)
(0.000153185454645 -0.000434807901912 -0.00326595617123)
(0.000196539404143 -0.000411196209694 -0.00313310413505)
(0.000233932394842 -0.000382327626795 -0.0029706510079)
(0.000264637795191 -0.000349003261703 -0.00278698838099)
(0.000287834884039 -0.000313235539318 -0.00259374873844)
(-0.000310927898724 -0.000341237725826 -0.00320973793008)
(-0.000284432948435 -0.000377347283494 -0.00340581472953)
(-0.000250105048575 -0.000410591573976 -0.00358849849014)
(-0.000209087900755 -0.000439126989864 -0.00374804356472)
(-0.000162139060772 -0.000462304689735 -0.00387730134027)
(-0.000110535063283 -0.000479400467471 -0.00397188184785)
(-5.56824253577e-05 -0.000489876606118 -0.00402933513608)
(8.49059713674e-07 -0.000493353791848 -0.00404837542458)
(5.73738735093e-05 -0.000489692606135 -0.00402852305018)
(0.000112207667512 -0.000479037064388 -0.00397024194035)
(0.000163780493206 -0.000461769174917 -0.00387478368875)
(0.00021068575011 -0.000438430917597 -0.0037445638045)
(0.000251645083686 -0.000409751102412 -0.00358393879355)
(0.000285886803322 -0.000376385220366 -0.00340001895351)
(0.000312260645324 -0.000340180433865 -0.0032025662618)
(-0.000327714848549 -0.000359764027569 -0.00373013603791)
(-0.000298693915113 -0.000394871271967 -0.0039206158716)
(-0.00026163651792 -0.000427007983176 -0.00409583381953)
(-0.000218064296664 -0.000454389153809 -0.0042478130212)
(-0.000168731049486 -0.000476539807315 -0.00437040770295)
(-0.000114865038945 -0.000492842981385 -0.00445987061141)
(-5.78370512876e-05 -0.000502821383398 -0.00451412572667)
(8.25083384682e-07 -0.000506133404767 -0.00453207929)
(5.94806305379e-05 -0.000502652905722 -0.00451332354659)
(0.000116489866251 -0.000492510888433 -0.00445825276263)
(0.000170324849454 -0.000476051748913 -0.00436792807541)
(0.000219615037392 -0.000453756647419 -0.00424439171895)
(0.000263131296473 -0.000426245880968 -0.00409135615847)
(0.000300106451009 -0.000393999774774 -0.00391491989578)
(0.000329017987389 -0.000358794996855 -0.00372305821813)
(-0.000337896737834 -0.000371028220645 -0.00416545759699)
(-0.000306917428642 -0.000403988338292 -0.00434548230306)
(-0.000267858550174 -0.000434111225303 -0.00451001837689)
(-0.000222612310733 -0.000459585496759 -0.00465239506695)
(-0.000171892650838 -0.000480124293957 -0.00476708689065)
(-0.000116850724154 -0.000495216041394 -0.00485071805208)
(-5.87945288353e-05 -0.00050444336804 -0.00490141068597)
(8.18753136862e-07 -0.000507504807135 -0.00491816376304)
(6.04250846229e-05 -0.00050428880602 -0.00490060664085)
(0.000118461324022 -0.000494911996643 -0.00484909954383)
(0.000173470232076 -0.000479678733371 -0.00476461376633)
(0.000224144397234 -0.000459010011173 -0.00464899604194)
(0.000269332646574 -0.000433419931006 -0.00450558834407)
(0.000308309198295 -0.000403199326543 -0.00433986139338)
(0.000339183901709 -0.000370143815887 -0.0041584714438)
(-0.000342435355336 -0.000376021090611 -0.00452699940234)
(-0.000309981336694 -0.000405925037745 -0.00469498829102)
(-0.000269565676501 -0.000433301359195 -0.00484825422916)
(-0.000223405374698 -0.000456279410575 -0.00498090218065)
(-0.000172150588365 -0.000474755609531 -0.00508773437276)
(-0.000116853051578 -0.0004883148043 -0.00516561463691)
(-5.87385519883e-05 -0.000496596718821 -0.00521280727009)
(8.28932073396e-07 -0.000499341900226 -0.00522838009197)
(6.03889217055e-05 -0.000496454689634 -0.00521199075018)
(0.000118481722702 -0.000488035854194 -0.00516397446748)
(0.000173743324493 -0.000474347713203 -0.00508523703132)
(0.000224948742702 -0.000455753916807 -0.00497748675447)
(0.000271046852271 -0.000432671677757 -0.00484382834406)
(0.00031137740679 -0.00040520728269 -0.00468939756284)
(0.000343726486197 -0.000375212400512 -0.00452006602436)
(-0.000342154040794 -0.000375617922769 -0.00482781916349)
(-0.000308626419285 -0.000401732979818 -0.0049840206628)
(-0.000267423010428 -0.000425747051462 -0.00512664859444)
(-0.000221001929032 -0.000445765910247 -0.00525012733791)
(-0.000169936045388 -0.000461834945279 -0.0053494710772)
(-0.000115164711829 -0.000473616524166 -0.00542181322954)
(-5.78181674986e-05 -0.000480803976562 -0.00546561031824)
(8.52337794973e-07 -0.000483182442276 -0.00548003202294)
(5.95147976828e-05 -0.000480673717986 -0.00546477384911)
(0.000116837883028 -0.000473360916785 -0.00542013622467)
(0.000171570280771 -0.000461461515553 -0.00534692635957)
(0.000222582651407 -0.00044528524059 -0.00524666465295)
(0.000268936598653 -0.000425171475554 -0.00512218964582)
(0.000310050957996 -0.00040107634758 -0.00497841728024)
(0.000343470092359 -0.000374875366011 -0.00482089141556)
(-0.000337736998874 -0.000370581749554 -0.00507991047656)
(-0.000303479204728 -0.000392286661736 -0.00522550597479)
(-0.000262000965989 -0.000412415871414 -0.00535853579208)
(-0.000215878006246 -0.000429127124136 -0.00547341294051)
(-0.000165609989103 -0.000442535663035 -0.00556548067549)
(-0.000112027277582 -0.000452354993858 -0.00563232189485)
(-5.61558349913e-05 -0.00045833359597 -0.00567270475509)
(8.85319985571e-07 -0.000460306359985 -0.00568596198027)
(5.79179646344e-05 -0.000458215047039 -0.00567184450157)
(0.000113764467292 -0.00045212232297 -0.00563059977885)
(0.000167305682862 -0.000442195506713 -0.00556287486446)
(0.000217516510998 -0.00042868872931 -0.00546988310023)
(0.000263567680744 -0.000411889915528 -0.00535401847019)
(0.000304952805408 -0.000391684367512 -0.00521986033098)
(0.000339097119352 -0.000369898733932 -0.00507295095178)
(-0.000329742171753 -0.000361495052709 -0.00529339766898)
(-0.000295122159988 -0.000378260099777 -0.00543018003995)
(-0.000253828174131 -0.00039411111245 -0.00555463249335)
(-0.000208456350575 -0.000407294573122 -0.00566110870013)
(-0.000159480205917 -0.000417869684514 -0.00574573015071)
(-0.000107642268499 -0.00042558829199 -0.00580682337329)
(-5.38530271142e-05 -0.00043026877804 -0.00584360578492)
(9.24449641108e-07 -0.000431805663371 -0.00585563138003)
(5.56931278108e-05 -0.000430162359011 -0.00584272175315)
(0.000109456404723 -0.0004253791498 -0.00580505516649)
(0.000161250963612 -0.000417563355676 -0.00574305955449)
(0.000210167089847 -0.000406898362335 -0.00565750325404)
(0.000255463304909 -0.000393633426498 -0.00555004386084)
(0.000296660594824 -0.000377708864901 -0.00542448031312)
(0.000331161600496 -0.00036086852746 -0.00528639614458)
(-0.000318829273717 -0.000348669164197 -0.00547667891026)
(-0.000284293127435 -0.000360040347631 -0.00560730865232)
(-0.000243447062468 -0.000371430519152 -0.00572374967042)
(-0.000199123139193 -0.000381014828327 -0.00582136093955)
(-0.000151817112765 -0.000388656430015 -0.00589789732773)
(-0.00010218766382 -0.000394183533606 -0.00595271776856)
(-5.10009476287e-05 -0.00039750902212 -0.00598557104622)
(9.66707873886e-07 -0.000398591085226 -0.00599625571501)
(5.29254505494e-05 -0.000397415035799 -0.00598466761114)
(0.000104085547536 -0.000393998563887 -0.00595091082466)
(0.00015367043409 -0.000388384609698 -0.00589516990508)
(0.000200914612021 -0.000380661479 -0.00581768422847)
(0.000245160289999 -0.000371001355134 -0.00571908781606)
(0.000285906928215 -0.000359539306009 -0.00560155593722)
(0.000320321721103 -0.000348095654024 -0.00546966426181)
(-0.000306784740226 -0.000333155322314 -0.00563605422678)
(-0.000272354800262 -0.00033759393091 -0.00576497394512)
(-0.000231694665084 -0.000344819682657 -0.00587255919928)
(-0.000188558287617 -0.000350746042403 -0.00596018299706)
(-0.000143160278024 -0.000355373700471 -0.00602780319898)
(-9.60501970348e-05 -0.000358656850338 -0.00607581629057)
(-4.78034573494e-05 -0.00036060587252 -0.00610444638694)
(1.00972417047e-06 -0.000361228000895 -0.00611370093322)
(4.98138974119e-05 -0.000360524409768 -0.00610353306138)
(9.80337269718e-05 -0.000358496193282 -0.00607398818114)
(0.000145098507322 -0.000355136704451 -0.00602504286592)
(0.000190433276651 -0.000350436365749 -0.00595645971773)
(0.000233489567584 -0.000344440793836 -0.00586784188132)
(0.000274045979788 -0.000337144733825 -0.00575914659248)
(0.000308360751703 -0.000332635243467 -0.00562914563565)
(1.41317557493e-06 1.81742123472e-06 -0.000229157667048)
(1.35906217533e-06 2.21358801234e-06 -0.000240826061679)
(1.30240786844e-06 2.56707360428e-06 -0.000251647259014)
(1.20122616318e-06 2.89474206277e-06 -0.00026117872134)
(9.93165237722e-07 3.19614210011e-06 -0.000269028858354)
(7.01230533085e-07 3.43464815834e-06 -0.000274874259942)
(3.45533998843e-07 3.58621607304e-06 -0.000278483088867)
(-4.18331118406e-08 3.63426388333e-06 -0.000279712249448)
(-4.29015501709e-07 3.57248600204e-06 -0.000278486394316)
(-7.8474953737e-07 3.40662763252e-06 -0.000274879793043)
(-1.07953731928e-06 3.15261435496e-06 -0.000269033766253)
(-1.29334931142e-06 2.83554624908e-06 -0.000261177813005)
(-1.40107865067e-06 2.49093648501e-06 -0.000251634230324)
(-1.46204758248e-06 2.12445570749e-06 -0.000240792755804)
(-1.50512423135e-06 1.7271791543e-06 -0.000229096884396)
(9.90511564535e-06 1.14970578791e-05 -0.000674601905291)
(9.58620507983e-06 1.35867614737e-05 -0.000707942144568)
(8.93586547057e-06 1.5625599795e-05 -0.000738942243086)
(7.91459602563e-06 1.75039751756e-05 -0.000766287436384)
(6.39884867536e-06 1.91458258003e-05 -0.000788835565656)
(4.47459590844e-06 2.04118474085e-05 -0.000805644146233)
(2.25216038016e-06 2.12062910246e-05 -0.000816026296625)
(-1.23229574488e-07 2.14659214081e-05 -0.000819553865894)
(-2.49814943808e-06 2.11677461656e-05 -0.000816030784608)
(-4.72047983429e-06 2.03338424645e-05 -0.000805650074282)
(-6.64971735509e-06 1.90266914792e-05 -0.000788834868514)
(-8.17704291768e-06 1.73445943959e-05 -0.00076626545614)
(-9.21126382119e-06 1.5425820316e-05 -0.000738880823667)
(-9.86759759084e-06 1.3357154786e-05 -0.000707818103933)
(-1.01587262809e-05 1.12642862449e-05 -0.00067439890146)
(2.1249130191e-05 2.42068899763e-05 -0.00110373473049)
(2.03646790546e-05 2.8095716446e-05 -0.00115692782909)
(1.8705967506e-05 3.19050847368e-05 -0.00120638106502)
(1.6299774353e-05 3.53470689603e-05 -0.00124999588077)
(1.30242922587e-05 3.82818619106e-05 -0.00128595159623)
(9.04059936877e-06 4.05075857425e-05 -0.00131275243036)
(4.55090666528e-06 4.18890945753e-05 -0.00132930148459)
(-1.97788670362e-07 4.23400929525e-05 -0.00133491408691)
(-4.94578659926e-06 4.18296956878e-05 -0.00132929987621)
(-9.434879974e-06 4.03878862433e-05 -0.00131274477108)
(-1.34231847652e-05 3.81008845972e-05 -0.00128592607585)
(-1.67110322149e-05 3.51074972968e-05 -0.00124993125654)
(-1.91316333261e-05 3.16112797562e-05 -0.0012062501887)
(-2.07949923928e-05 2.77633151892e-05 -0.00115669640525)
(-2.16417517558e-05 2.38719957139e-05 -0.00110338084665)
(3.250849051e-05 3.67029678912e-05 -0.00151373583386)
(3.07677925347e-05 4.18905002068e-05 -0.00158443400932)
(2.78871611405e-05 4.69353852141e-05 -0.00165005532621)
(2.39803352776e-05 5.13953496191e-05 -0.0017078762972)
(1.89672360321e-05 5.51188586987e-05 -0.00175550861153)
(1.30731087142e-05 5.7898149137e-05 -0.00179099599381)
(6.56195835592e-06 5.9604357557e-05 -0.00181289748392)
(-2.6263992048e-07 6.01581093328e-05 -0.00182031318788)
(-7.08669453374e-06 5.95316016505e-05 -0.0018128806446)
(-1.35975372224e-05 5.77520822587e-05 -0.00179095749509)
(-1.9496146165e-05 5.48994851576e-05 -0.00175543529313)
(-2.45212309584e-05 5.11065657543e-05 -0.00170774454484)
(-2.84421981373e-05 4.65848539568e-05 -0.00164983390266)
(-3.13253640567e-05 4.14960896256e-05 -0.00158408265882)
(-3.30228525713e-05 3.63048237977e-05 -0.00151323092005)
(4.16851214205e-05 4.67472890585e-05 -0.00190174873548)
(3.89129960709e-05 5.25128589081e-05 -0.00198729469848)
(3.48268836137e-05 5.80516363293e-05 -0.00206654406256)
(2.95951894883e-05 6.28394502408e-05 -0.00213632319529)
(2.31921285037e-05 6.67585132674e-05 -0.00219378170499)
(1.58786212409e-05 6.96382723865e-05 -0.00223658002936)
(7.93948539718e-06 7.138645757e-05 -0.00226298496786)
(-3.14590076531e-07 7.19486910589e-05 -0.00227191261959)
(-8.56851605235e-06 7.13064904665e-05 -0.00226294259344)
(-1.65082054985e-05 6.94782599335e-05 -0.00223649136933)
(-2.38265799094e-05 6.65192573772e-05 -0.00219363506119)
(-3.02411710092e-05 6.25256033001e-05 -0.00213609710718)
(-3.54861482517e-05 5.76724841619e-05 -0.00206620886615)
(-3.95736500326e-05 5.20872108282e-05 -0.00198680941893)
(-4.2301384348e-05 4.63152184918e-05 -0.00190109103734)
(4.81289844636e-05 5.36335259454e-05 -0.00226598061064)
(4.430559395e-05 5.93833565501e-05 -0.00236375452841)
(3.91932181932e-05 6.48181205535e-05 -0.0024541972994)
(3.29545590665e-05 6.94179491461e-05 -0.0025338276823)
(2.56112121362e-05 7.31137498751e-05 -0.0025994071575)
(1.74286277134e-05 7.57888100861e-05 -0.00264826237093)
(8.67934301552e-06 7.73947173458e-05 -0.0026784017819)
(-3.52751916201e-07 7.79052913174e-05 -0.00268857876152)
(-9.38517884467e-06 7.731209007e-05 -0.00267832382444)
(-1.81361310438e-05 7.56238907618e-05 -0.00264810467595)
(-2.63242451944e-05 7.28679347902e-05 -0.00259916202023)
(-3.36788270357e-05 6.90963068725e-05 -0.00253347971091)
(-3.99299066922e-05 6.44305919571e-05 -0.00245372347931)
(-4.50436009319e-05 5.89483759563e-05 -0.00236311789575)
(-4.88258142548e-05 5.31890068166e-05 -0.0022651619125)
(5.19613216844e-05 5.75408160434e-05 -0.00260585465308)
(4.719781954e-05 6.29103165859e-05 -0.0027134440772)
(4.13180290963e-05 6.78805686179e-05 -0.00281287277043)
(3.44186709325e-05 7.20109689792e-05 -0.00290045638285)
(2.65551148547e-05 7.52725362384e-05 -0.00297261947776)
(1.79739939611e-05 7.75999589969e-05 -0.00302639553518)
(8.9158259256e-06 7.89820096944e-05 -0.00305956937409)
(-3.7861045456e-07 7.94155706746e-05 -0.0030707563856)
(-9.67384196475e-06 7.89002049836e-05 -0.00305944745958)
(-1.87347496935e-05 7.74369534096e-05 -0.00302615297875)
(-2.73221163172e-05 7.50301169327e-05 -0.00297225440363)
(-3.51966583178e-05 7.16942017983e-05 -0.00289996226815)
(-4.2107850729e-05 6.74994611986e-05 -0.00281223696351)
(-4.79894965438e-05 6.24819541714e-05 -0.00271263715736)
(-5.27178966843e-05 5.70996089145e-05 -0.0026048614792)
(5.36315189485e-05 5.90191690892e-05 -0.00292152294117)
(4.81152379083e-05 6.38410396363e-05 -0.00303669944506)
(4.17370062327e-05 6.81831209844e-05 -0.00314306582497)
(3.44850589748e-05 7.17375077218e-05 -0.00323681918372)
(2.64376528551e-05 7.4498765892e-05 -0.00331409506823)
(1.78095771678e-05 7.64426343507e-05 -0.00337168605498)
(8.80093164145e-06 7.75846082241e-05 -0.00340720430934)
(-3.94988204226e-07 7.79375059685e-05 -0.00341916477996)
(-9.59208327798e-06 7.75062529434e-05 -0.00340703248265)
(-1.86043315638e-05 7.62866592708e-05 -0.00337134726545)
(-2.72392029563e-05 7.42670954597e-05 -0.00331359433388)
(-3.52972237322e-05 7.14349633995e-05 -0.00323616044024)
(-4.2560358375e-05 6.78191696299e-05 -0.00314224902679)
(-4.8941287683e-05 6.34311292849e-05 -0.00303570466836)
(-5.44296702997e-05 5.85925574125e-05 -0.00292033969291)
(5.36618828051e-05 5.86920199766e-05 -0.00321334480158)
(4.76029419616e-05 6.29263875084e-05 -0.00333397521912)
(4.0962305862e-05 6.66005079959e-05 -0.00344529291548)
(3.36018716646e-05 6.9570908674e-05 -0.00354345197813)
(2.56156684596e-05 7.18417634133e-05 -0.00362435301158)
(1.71820038095e-05 7.34192973166e-05 -0.00368461972006)
(8.45923935464e-06 7.4336135278e-05 -0.00372176334551)
(-4.0501248164e-07 7.4614758847e-05 -0.00373425023956)
(-9.27068783385e-06 7.4263107464e-05 -0.00372153807998)
(-1.79975920042e-05 7.32739943766e-05 -0.00368417782134)
(-2.64382640706e-05 7.16260359865e-05 -0.00362370676883)
(-3.44344825358e-05 6.92890922912e-05 -0.00354261637104)
(-4.18052063134e-05 6.62610897598e-05 -0.00344428147474)
(-4.84491366188e-05 6.25428377199e-05 -0.0033327780675)
(-5.44874147903e-05 5.82879145018e-05 -0.00321195619585)
(5.25220525484e-05 5.71107319607e-05 -0.00348160874717)
(4.61158924325e-05 6.07803452118e-05 -0.00360560934013)
(3.93989547163e-05 6.38092437719e-05 -0.00371992669169)
(3.21097588936e-05 6.62298423326e-05 -0.00382072635749)
(2.43527501959e-05 6.80496936184e-05 -0.0039037320712)
(1.62699028771e-05 6.92971299201e-05 -0.0039654916921)
(7.97977504118e-06 7.00142924432e-05 -0.00400350753117)
(-4.11359830121e-07 7.02281629714e-05 -0.0040162617842)
(-8.80404007838e-06 6.99478737197e-05 -0.00400322730289)
(-1.70985246003e-05 6.91649514085e-05 -0.00396494349294)
(-2.51882494529e-05 6.78533280432e-05 -0.00390293525842)
(-3.29543780786e-05 6.59729284857e-05 -0.00381970677564)
(-4.02526357555e-05 6.34990037175e-05 -0.00371871148701)
(-4.69727792819e-05 6.04280771529e-05 -0.00360419810981)
(-5.33647077458e-05 5.67342450287e-05 -0.00348000035476)
(5.05825862127e-05 5.47046556889e-05 -0.00372650181017)
(4.39910273639e-05 5.78483217963e-05 -0.00385188415781)
(3.73346637867e-05 6.02750601192e-05 -0.00396734957612)
(3.02441984094e-05 6.21888442203e-05 -0.00406907125013)
(2.28280944588e-05 6.36020141867e-05 -0.00415265821739)
(1.51933643037e-05 6.4557966789e-05 -0.00421470404678)
(7.42194029493e-06 6.51017506306e-05 -0.00425281708159)
(-4.15971403651e-07 6.52604275488e-05 -0.00426557172014)
(-8.25544224822e-06 6.50427437482e-05 -0.00425248184862)
(-1.60311823692e-05 6.44404433848e-05 -0.00421404900221)
(-2.36723901052e-05 6.3427086681e-05 -0.00415170903585)
(-3.10965487255e-05 6.19592635495e-05 -0.00406786383028)
(-3.8194636711e-05 5.99965190282e-05 -0.00396592414475)
(-4.48535037283e-05 5.7529870534e-05 -0.00385024845571)
(-5.14357711803e-05 5.43584116708e-05 -0.00372465885151)
(4.8108555401e-05 5.1778821214e-05 -0.00394822899902)
(4.14568247398e-05 5.44213964191e-05 -0.0040732641266)
(3.49608461022e-05 5.62829489661e-05 -0.00418826733624)
(2.81610349705e-05 5.77267126717e-05 -0.00428930633245)
(2.11604303725e-05 5.87735308954e-05 -0.00437197482206)
(1.403201692e-05 5.94736978292e-05 -0.00443308920971)
(6.82518627775e-06 5.98685342886e-05 -0.0044705102003)
(-4.2000361283e-07 5.99806457868e-05 -0.00448299297168)
(-7.66668638324e-06 5.98174575058e-05 -0.00447012103863)
(-1.48776314326e-05 5.93717368816e-05 -0.00443232865189)
(-2.20120080836e-05 5.86212168822e-05 -0.00437087346506)
(-2.90195937706e-05 5.75257329681e-05 -0.00428790863479)
(-3.58255958221e-05 5.6037308221e-05 -0.00418662580688)
(-4.23230976711e-05 5.41379560167e-05 -0.00407139337987)
(-4.89689567417e-05 5.14648176132e-05 -0.00394613477408)
(4.52655806312e-05 4.85218836953e-05 -0.00414719385155)
(3.86578844242e-05 5.06548234343e-05 -0.00427076906736)
(3.2406901547e-05 5.19737740798e-05 -0.00438411440541)
(2.5970473179e-05 5.29781079434e-05 -0.0044829856149)
(1.94357960257e-05 5.36975936201e-05 -0.0045632267813)
(1.28443768761e-05 5.41770358964e-05 -0.00462215725393)
(6.21876595915e-06 5.44460442846e-05 -0.00465807175403)
(-4.23903682867e-07 5.45200561369e-05 -0.00467000221217)
(-7.06799844791e-06 5.44031611414e-05 -0.00465763087606)
(-1.36974682207e-05 5.40911162434e-05 -0.00462129434691)
(-2.02943221403e-05 5.35685983203e-05 -0.00456197507974)
(-2.6835067998e-05 5.28064579528e-05 -0.00448139551417)
(-3.32764241991e-05 5.17615662382e-05 -0.00438224971205)
(-3.95278253261e-05 5.0406695142e-05 -0.00426865222939)
(-4.61318394414e-05 4.82416521343e-05 -0.00414483283218)
(4.21521035764e-05 4.50118573626e-05 -0.00432419009558)
(3.57121624978e-05 4.66325569916e-05 -0.00444662122119)
(2.97962903533e-05 4.74059036634e-05 -0.00455755046835)
(2.37783457765e-05 4.8003445284e-05 -0.00465268510056)
(1.77363896027e-05 4.84353580529e-05 -0.00472884306621)
(1.16853359766e-05 4.87268666272e-05 -0.00478423540911)
(5.63012623164e-06 4.88909728547e-05 -0.00481777663739)
(-4.27650066436e-07 4.8933706922e-05 -0.00482885932267)
(-6.48673890702e-06 4.88562479946e-05 -0.00481728800965)
(-1.25454102473e-05 4.86569957181e-05 -0.0047832763652)
(-1.86013634669e-05 4.83296418976e-05 -0.00472744600611)
(-2.46488081426e-05 4.78611067951e-05 -0.00465090143158)
(-3.06709171017e-05 4.72270780592e-05 -0.00455545242311)
(-3.65861738325e-05 4.64189932766e-05 -0.00444424571049)
(-4.30237453436e-05 4.47644974652e-05 -0.00432155575996)
(3.8829292469e-05 4.17437590383e-05 -0.0044812365791)
(3.27909123248e-05 4.24312054631e-05 -0.00460607343718)
(2.72692358168e-05 4.2655369166e-05 -0.00471296681988)
(2.16947103876e-05 4.28621990633e-05 -0.0048021008613)
(1.6141860691e-05 4.30136422463e-05 -0.00487214534515)
(1.06066326285e-05 4.31181547679e-05 -0.00492247501272)
(5.08468997566e-06 4.31759636013e-05 -0.00495270904937)
(-4.30930214478e-07 4.31864045543e-05 -0.00496263273016)
(-5.94769320733e-06 4.31490645648e-05 -0.00495218058914)
(-1.14726251409e-05 4.30639003185e-05 -0.00492143385753)
(-1.70120225365e-05 4.29308435211e-05 -0.00487061895021)
(-2.256963133e-05 4.2749345384e-05 -0.00480013363942)
(-2.81483138195e-05 4.25105535117e-05 -0.00471063211482)
(-3.36689412809e-05 4.22530912687e-05 -0.00460340318806)
(-3.97073941057e-05 4.15283291995e-05 -0.00447838330952)
(-3.55024726074e-07 -6.6421723137e-07 -0.000313951627412)
(-1.62332068929e-07 -9.03708191504e-07 -0.00033030907091)
(-4.23961219233e-08 -1.04426039492e-06 -0.000345603194061)
(3.89100826389e-08 -1.12847352417e-06 -0.000359100496881)
(7.65266959359e-08 -1.17241468147e-06 -0.000370200398434)
(7.33182996573e-08 -1.19043982847e-06 -0.00037844645902)
(3.85165589198e-08 -1.19569411597e-06 -0.000383522951969)
(-1.40125288524e-08 -1.19698029452e-06 -0.000385240316832)
(-6.59267365903e-08 -1.19727184192e-06 -0.000383500830082)
(-9.87744623593e-08 -1.19315933172e-06 -0.000378402455869)
(-9.827553456e-08 -1.17549777417e-06 -0.00037013506515)
(-5.55944043309e-08 -1.13114912271e-06 -0.00035901447754)
(3.20545621044e-08 -1.04472719541e-06 -0.00034549637358)
(1.59997902557e-07 -9.00683210951e-07 -0.00033017856012)
(3.5822637259e-07 -6.58758175674e-07 -0.000313783540621)
(-1.31326239403e-06 -2.07646075312e-06 -0.000892230786689)
(-8.27757493804e-07 -2.6969237888e-06 -0.000935603983682)
(-4.90257322326e-07 -3.10171216964e-06 -0.000976177749942)
(-2.42178887061e-07 -3.36536037004e-06 -0.00101197317017)
(-8.46560373215e-08 -3.52178913058e-06 -0.00104139973174)
(-1.05683147037e-08 -3.6033770721e-06 -0.00106325336303)
(-1.26967327881e-09 -3.63946668588e-06 -0.00107670002896)
(-2.8279993769e-08 -3.64998790347e-06 -0.00108123665191)
(-5.39779919204e-08 -3.64176419648e-06 -0.00107663344625)
(-4.05497128932e-08 -3.60707499115e-06 -0.0010631209681)
(4.12111528036e-08 -3.52536661303e-06 -0.00104120320802)
(2.09721524108e-07 -3.36724757644e-06 -0.00101171461351)
(4.71802287698e-07 -3.09851191207e-06 -0.000975857241916)
(8.26474404952e-07 -2.68625632102e-06 -0.000935213506545)
(1.32407217233e-06 -2.06059990448e-06 -0.000891739066921)
(-2.50161296495e-06 -3.58551299449e-06 -0.00141791720266)
(-1.80352979819e-06 -4.51085718664e-06 -0.00148310165511)
(-1.27868367772e-06 -5.16184703937e-06 -0.00154403673296)
(-8.59271568356e-07 -5.61418905274e-06 -0.00159777685876)
(-5.39543174804e-07 -5.90756220771e-06 -0.00164194294938)
(-3.10065206639e-07 -6.08090123663e-06 -0.00167473517161)
(-1.50580589478e-07 -6.16918039014e-06 -0.00169490429064)
(-3.03979767868e-08 -6.19617956951e-06 -0.00170169705693)
(9.12567513896e-08 -6.16991810789e-06 -0.00169479473687)
(2.5533945431e-07 -6.08138079136e-06 -0.00167451731871)
(4.93374047673e-07 -5.9062128801e-06 -0.00164161944348)
(8.25814642469e-07 -5.60939510665e-06 -0.00159735106018)
(1.26199548455e-06 -5.15034148092e-06 -0.0015435094738)
(1.80745375936e-06 -4.49030646039e-06 -0.00148246191605)
(2.52054009359e-06 -3.55941642919e-06 -0.00141712188174)
(-3.56881036324e-06 -4.84128529585e-06 -0.00189536358078)
(-2.71853259973e-06 -5.94983181956e-06 -0.00197794626153)
(-2.04747119853e-06 -6.75789164033e-06 -0.0020550629381)
(-1.48338885322e-06 -7.33575526297e-06 -0.00212306774055)
(-1.01419150266e-06 -7.72392767615e-06 -0.00217895842182)
(-6.28856145728e-07 -7.9631934864e-06 -0.00222045659084)
(-3.08238885436e-07 -8.08999143482e-06 -0.00224597546387)
(-2.40171750075e-08 -8.12903004649e-06 -0.00225455908082)
(2.61556352005e-07 -8.08865138925e-06 -0.00224582488492)
(5.86350370009e-07 -7.95964771008e-06 -0.00222015712123)
(9.79490145411e-07 -7.71686240133e-06 -0.00217851352794)
(1.46073733736e-06 -7.32381031277e-06 -0.00212248191934)
(2.04125780677e-06 -6.73839399115e-06 -0.00205433829552)
(2.73268031558e-06 -5.92086559882e-06 -0.00197707102242)
(3.59783554875e-06 -4.80674381735e-06 -0.00189428906163)
(-4.47134412073e-06 -5.8336200197e-06 -0.00232908372659)
(-3.51169655089e-06 -7.03329713186e-06 -0.00242537909122)
(-2.72817540049e-06 -7.92253424404e-06 -0.00251519629004)
(-2.04472940646e-06 -8.56774643637e-06 -0.00259441382462)
(-1.44587355782e-06 -9.0083891108e-06 -0.00265953815286)