/*--------------------------------*- C++ -*----------------------------------*\
  =========                 |
  \\      /  F ield         | OpenFOAM: The Open Source CFD Toolbox
   \\    /   O peration     | Website:  https://openfoam.org
    \\  /    A nd           | Version:  7
     \\/     M anipulation  |
\*---------------------------------------------------------------------------*/
FoamFile
{
    version     2.0;
    format      ascii;
    class       volVectorField;
    location    "2.22";
    object      U;
}
// * * * * * * * * * * * * * * * * * * * * * * * * * * * * * * * * * * * * * //

dimensions      [0 1 -1 0 0 0 0];

internalField   nonuniform List<vector> 
22500
(
(3.18853773904e-05 3.57248004347e-05 0.000704289027033)
(2.96652215059e-05 4.0150855844e-05 0.000738742309474)
(2.58504537079e-05 4.4641072659e-05 0.000770114973885)
(2.169213717e-05 4.84076108137e-05 0.000797115454448)
(1.68325158736e-05 5.15117920281e-05 0.000818950541459)
(1.15129890086e-05 5.38102686023e-05 0.000834988402015)
(5.84860826725e-06 5.52245261813e-05 0.000844794194392)
(5.47874742918e-09 5.5702536566e-05 0.000848108073743)
(-5.83788323197e-06 5.52251568742e-05 0.000844794323132)
(-1.15029168609e-05 5.38114344402e-05 0.000834988724259)
(-1.68235317675e-05 5.15132412112e-05 0.000818951086431)
(-2.1684660427e-05 4.84090325547e-05 0.000797116153647)
(-2.58450132106e-05 4.46419518983e-05 0.000770115789394)
(-2.96616460219e-05 4.01512578649e-05 0.000738744586204)
(-3.18838075332e-05 3.57247361439e-05 0.000704304519303)
(9.15690526679e-05 0.000102856366174 0.00171708318329)
(8.50183509317e-05 0.000115243174966 0.00178359160708)
(7.4323715285e-05 0.000127641007204 0.00184313706935)
(6.22636925611e-05 0.00013815022135 0.00189366601541)
(4.8315752976e-05 0.000146809296472 0.00193404377351)
(3.30308209129e-05 0.000153223212168 0.00196343164444)
(1.67735997006e-05 0.000157171407733 0.0019812873914)
(1.24820063293e-08 0.000158505068194 0.00198729686227)
(-1.67491144193e-05 0.000157172510727 0.00198128797253)
(-3.30077150671e-05 0.000153225217617 0.00196343293703)
(-4.82949291022e-05 0.000146811691466 0.00193404577351)
(-6.22460552483e-05 0.000138152388317 0.00189366844454)
(-7.43102548644e-05 0.000127641989886 0.00184313967952)
(-8.50087909484e-05 0.000115243238051 0.00178359821442)
(-9.1564194295e-05 0.000102855480237 0.00171711847109)
(0.000133667532975 0.000150140869737 0.00245170059674)
(0.000123448516961 0.00016699782217 0.00252991892952)
(0.000107585125368 0.000183772174208 0.00259882275196)
(8.97694238997e-05 0.000197915006233 0.00265657295897)
(6.94597258421e-05 0.000209507631961 0.00270223213704)
(4.73800336879e-05 0.000218060821978 0.00273519286526)
(2.40272900585e-05 0.000223312482729 0.00275510449032)
(1.72107349968e-08 0.00022508381322 0.00276178104952)
(-2.3993465593e-05 0.000223313380509 0.00275510515941)
(-4.73479531957e-05 0.000218062372722 0.00273519438449)
(-6.94305297489e-05 0.000209509246224 0.00270223443605)
(-8.97442494406e-05 0.00019791595492 0.00265657554682)
(-0.000107565172949 0.000183771505217 0.00259882491146)
(-0.000123433474274 0.000166996030465 0.00252992498457)
(-0.000133658891517 0.000150138024588 0.00245174322906)
(0.000162564720741 0.000182544063284 0.00298780430876)
(0.000149313392828 0.00020139724689 0.00306612060847)
(0.000129600459072 0.000220153107792 0.00313386684394)
(0.00010767940466 0.000235800068578 0.00318988931361)
(8.30470583247e-05 0.000248551136745 0.00323367867347)
(5.65087950877e-05 0.000257911419237 0.00326501071498)
(2.86132780955e-05 0.000263640241453 0.00328382004436)
(2.00867713791e-08 0.00026556900405 0.00329010261485)
(-2.85737545513e-05 0.000263640814801 0.00328382038327)
(-5.64711875225e-05 0.000257912310816 0.00326501157151)
(-8.30126182266e-05 0.000248551770179 0.00323367985897)
(-0.000107649336232 0.000235799714645 0.00318989004482)
(-0.000129575979096 0.000220150921296 0.00313386559993)
(-0.000149294099131 0.000201393873309 0.00306612031638)
(-0.000162552496843 0.000182539542929 0.00298783855858)
(0.000181839849873 0.00020418500977 0.00337843739626)
(0.000166135940069 0.000223411005492 0.00345032283393)
(0.000143594791197 0.000242628005067 0.00351119770881)
(0.000118816360115 0.000258460425814 0.00356075820592)
(9.13460503221e-05 0.000271285513879 0.00359899546167)
(6.20074309046e-05 0.00028065117477 0.00362607895016)
(3.13515935555e-05 0.000286364479007 0.0036422212837)
(2.17350260712e-08 0.000288284512705 0.00364759008083)
(-3.13087939026e-05 0.000286364742723 0.00364222111043)
(-6.19666147109e-05 0.000280651460109 0.00362607871537)
(-9.13085058625e-05 0.000271285296675 0.00359899478314)
(-0.000118783282154 0.00025845904397 0.00356075585315)
(-0.000143567287646 0.000242624714109 0.00351119098908)
(-0.00016611351678 0.000223406582392 0.00345031229031)
(-0.000181824496789 0.000204179361161 0.00337845381302)
(0.0001934671038 0.000217252421196 0.00366095135677)
(0.000175841375728 0.000235695013949 0.00372306796996)
(0.000151329206235 0.000254313075279 0.0037743508875)
(0.000124716143337 0.000269446575967 0.003815324913)
(9.55884705494e-05 0.000281630352937 0.00384645513342)
(6.47387610182e-05 0.000290482372041 0.00386824220851)
(3.2686981953e-05 0.000295865081998 0.0038811179272)
(2.25693000626e-08 0.00029767094867 0.00388537934711)
(-3.26425129972e-05 0.000295865106899 0.00388111722968)
(-6.46962804534e-05 0.000290482205263 0.00386824080885)
(-9.55492573355e-05 0.000281629540038 0.00384645237277)
(-0.000124681342725 0.00026944454863 0.0038153189374)
(-0.000151299746984 0.000254309211631 0.00377433753557)
(-0.000175816660378 0.000235690175616 0.00372304523777)
(-0.000193449177547 0.000217246389342 0.00366094722787)
(0.000198973942582 0.000223408513851 0.00386281631552)
(0.000179915633118 0.000240271751212 0.0039139100358)
(0.000154163996296 0.000257564899216 0.0039548043863)
(0.000126557346354 0.000271425977152 0.00398672561014)
(9.67147301853e-05 0.000282516542865 0.00401052542689)
(6.53589701293e-05 0.000290535822447 0.00402693992095)
(3.29568091559e-05 0.000295397625542 0.00403654022335)
(2.28982025636e-08 0.000297026286581 0.00403969891967)
(-3.29116739037e-05 0.000295397535681 0.00403653906457)
(-6.53157976302e-05 0.000290535452022 0.0040269374475)
(-9.66747660118e-05 0.000282515515906 0.00401052062208)
(-0.000126521662376 0.00027142381909 0.00398671583767)
(-0.000154133329627 0.000257561118466 0.00395478385535)
(-0.000179889263448 0.000240267235245 0.00391387463096)
(-0.000198953956238 0.000223402914415 0.00386279252099)
(0.000199722012912 0.00022415756438 0.004004788636)
(0.00017967635386 0.000238951556699 0.00404495735001)
(0.000153299011251 0.000254463298617 0.00407587269499)
(0.00012537105112 0.000266722386511 0.00409928799543)
(9.55414138333e-05 0.000276472722156 0.00411632606629)
(6.44345047319e-05 0.000283493939876 0.00412785626288)
(3.24511644173e-05 0.000287739835427 0.00413450936828)
(2.29465684811e-08 0.000289160473616 0.00413668175688)
(-3.24059215321e-05 0.000287739779147 0.00413450781235)
(-6.43911857393e-05 0.000283493667076 0.00412785281853)
(-9.55012189573e-05 0.000276471927295 0.00411631928881)
(-0.000125334972725 0.000266720685298 0.0040992743516)
(-0.000153267592636 0.000254460308729 0.00407584476423)
(-0.000179648791022 0.000238948158364 0.00404490973198)
(-0.000199700424217 0.000224153206849 0.00400474780477)
(0.000196859842828 0.000220782227923 0.00410275053852)
(0.000176220883058 0.000233249739989 0.00413291922429)
(0.000149723347795 0.000246718777004 0.00415495555071)
(0.000121999777847 0.000257216556948 0.00417096060137)
(9.2730000309e-05 0.00026552124052 0.00418221176539)
(6.24210689336e-05 0.00027148385491 0.00418962118529)
(3.14023638148e-05 0.000275083225406 0.0041938131747)
(2.28841042581e-08 0.000276286671931 0.00419516669866)
(-3.13572328925e-05 0.000275083363508 0.00419381124094)
(-6.2377818253e-05 0.00027148400263 0.00418961679151)
(-9.26897784863e-05 0.000265521152925 0.00418220299023)
(-0.000121963500423 0.000257215922492 0.00417094296411)
(-0.000149691386922 0.000246717296852 0.00415492015491)
(-0.000176192405396 0.000233248223923 0.00413286044766)
(-0.000196837033242 0.000220779878129 0.0041026960697)
(0.000191314904455 0.000214324193711 0.00416887069759)
(0.000170419728357 0.000224367878819 0.00419040443304)
(0.000144212610833 0.00023566075344 0.00420498004669)
(0.000117099537 0.000244344427953 0.00421488927413)
(8.87913050257e-05 0.000251186609195 0.00422146540306)
(5.96679948793e-05 0.000256094274565 0.00422559445246)
(2.99875848319e-05 0.000259055314665 0.00422784797645)
(2.2843188223e-08 0.000260045306723 0.00422856033504)
(-2.99425200486e-05 0.000259055803119 0.00422784562967)
(-5.96247589791e-05 0.000256095152655 0.00422558903519)
(-8.87509966936e-05 0.000251187685761 0.00422145450681)
(-0.000117063002043 0.000244345441807 0.00421486750112)
(-0.000144180090996 0.000235661452786 0.00420493731262)
(-0.000170390430105 0.000224368939882 0.00419033608942)
(-0.000191291128873 0.000214324537919 0.0041688064652)
(0.000183822191779 0.000205616761179 0.00421240085631)
(0.0001629482526 0.000213234452946 0.00422682276824)
(0.00013736337315 0.000222292870945 0.00423541787091)
(0.000111173562517 0.000229171554018 0.00424054700654)
(8.41142375548e-05 0.000234587155059 0.00424352644573)
(5.64389036739e-05 0.000238480045439 0.00424517068222)
(2.83396615352e-05 0.000240832007464 0.00424597222236)
(2.29307660541e-08 0.000241619079753 0.00424620725951)
(-2.82944002237e-05 0.000240832981772 0.00424596940843)
(-5.63954053938e-05 0.000238481926368 0.00424516415996)
(-8.40735514056e-05 0.000234589797314 0.00424351337862)
(-0.000111136485714 0.000229174729235 0.00424052121464)
(-0.000137330073849 0.000222296328093 0.00423536846992)
(-0.000162918052191 0.000213238681294 0.00422674732753)
(-0.000183797547561 0.000205620347511 0.00421233160968)
(0.000174953250572 0.000195321389781 0.0042402553994)
(0.000154324457399 0.000200544596792 0.00424904696758)
(0.000129635563616 0.000207348969453 0.00425304421087)
(0.000104609779882 0.000212469611245 0.00425459015827)
(7.89944208831e-05 0.000216526301368 0.0042549320403)
(5.29308004798e-05 0.000219462717234 0.00425478540505)
(2.65566898787e-05 0.000221243301801 0.00425455312397)
(2.32352396223e-08 0.000221840324334 0.00425445051945)
(-2.65107866159e-05 0.000221244862975 0.00425454986584)
(-5.28865678856e-05 0.000219465796593 0.00425477791387)
(-7.89528621406e-05 0.000216530805264 0.00425491723873)
(-0.000104571671134 0.000212475330719 0.00425456137122)
(-0.000129601075838 0.000207355618176 0.00425299017012)
(-0.000154293111696 0.000200552420532 0.00424896854093)
(-0.000174927641287 0.00019532863929 0.00424018777508)
(0.00016513806478 0.000183926623771 0.00425742799153)
(0.000144963826422 0.000186780262176 0.00426189139817)
(0.00012140527145 0.00019135164976 0.00426250143841)
(9.77156885477e-05 0.000194797230349 0.00426150860991)
(7.36548843815e-05 0.000197582073608 0.00426004037678)
(4.92861081419e-05 0.000199622673634 0.00425869271723)
(2.47077911014e-05 0.00020086645466 0.00425777747408)
(2.38296026399e-08 0.000201284589507 0.00425745358001)
(-2.46606575307e-05 0.000200868636292 0.00425777403433)
(-4.92405150295e-05 0.000199627024393 0.00425868498635)
(-7.36117822962e-05 0.000197588553561 0.00426002545547)
(-9.76758761449e-05 0.000194805662045 0.00426147989747)
(-0.00012136901662 0.00019136168678 0.00426244764096)
(-0.000144930934798 0.000186791869653 0.00426181687557)
(-0.000165111238793 0.000183937674921 0.0042573708716)
(0.000154761902926 0.00017173558667 0.004267241356)
(0.000135301294089 0.000172271911734 0.00426841488683)
(0.000113010882526 0.000174676915516 0.00426669330793)
(9.07205807523e-05 0.000176588588161 0.004264101237)
(6.82400099834e-05 0.000178192979378 0.00426156783715)
(4.55885329443e-05 0.000179384948142 0.00425954537591)
(2.28317189846e-05 0.000180113972621 0.00425825719885)
(2.47528122338e-08 0.000180359671792 0.00425781430547)
(-2.27826760496e-05 0.000180116714428 0.00425825425351)
(-4.55408534124e-05 0.000179390452244 0.00425953912549)
(-6.81945789481e-05 0.000178201257588 0.00426155635216)
(-9.06782557086e-05 0.000176599529844 0.00426407921533)
(-0.000112972146098 0.000174690182573 0.00426665010328)
(-0.000135266350522 0.000172287147044 0.00426835618049)
(-0.000154733451337 0.000171750214676 0.00426720556847)
(0.0001444393397 0.000158965507677 0.00427135062819)
(0.000125891380143 0.000156363295942 0.00427006900798)
(0.00010462073197 0.000157165386487 0.00426706890071)
(8.36978850917e-05 0.000157793073618 0.00426382935687)
(6.27739470092e-05 0.000158366366388 0.00426098089261)
(4.1847782674e-05 0.000158795120151 0.00425881022945)
(2.09328143239e-05 0.000159057295376 0.00425745814072)
(2.60042978832e-08 0.00015914626842 0.0042569979146)
(-2.08811938034e-05 0.000159060401068 0.00425745647073)
(-4.1797307772e-05 0.000158801372842 0.004258807485)
(-6.27253993526e-05 0.000158375821471 0.00426097714307)
(-8.36521486283e-05 0.000157805727713 0.00426382278281)
(-0.000104578629629 0.000157180984964 0.00426705113095)
(-0.000125853855522 0.000156381473443 0.00427005336701)
(-0.000144408576586 0.000158983229371 0.00427133277998)
(1.06404167741e-06 1.76647406764e-06 0.000428265082393)
(5.90409175277e-07 2.31431926139e-06 0.000449146298217)
(3.68236137453e-07 2.61935820559e-06 0.000467890808913)
(1.67815077295e-07 2.8349540284e-06 0.0004840016979)
(3.54958386066e-08 2.96487927192e-06 0.000497042351162)
(-2.39803511371e-08 3.03342669387e-06 0.000506633093012)
(-2.81616627274e-08 3.06393450912e-06 0.000512505996429)
(-1.24107767655e-10 3.07230704568e-06 0.00051449671626)
(2.81033015046e-08 3.06383282356e-06 0.000512506340434)
(2.44664486155e-08 3.03324668432e-06 0.000506633878418)
(-3.43366713829e-08 2.96458969916e-06 0.000497043657617)
(-1.663380764e-07 2.8344590467e-06 0.000484003429687)
(-3.67061291409e-07 2.61861596179e-06 0.000467892914244)
(-5.89726036913e-07 2.31330612797e-06 0.000449151152098)
(-1.06451762107e-06 1.76548353033e-06 0.000428286120717)
(1.00314050441e-05 1.22751960019e-05 0.00121908130772)
(8.57145694113e-06 1.49887738598e-05 0.00127509386224)
(7.39815580911e-06 1.72379260895e-05 0.00132520698431)
(6.05935314807e-06 1.91428884668e-05 0.00136814380082)
(4.60855006768e-06 2.06350220899e-05 0.00140281141683)
(3.10186631278e-06 2.17015237631e-05 0.00142826550163)
(1.55838714789e-06 2.23414851609e-05 0.00144383172222)
(1.52194972106e-09 2.25550196528e-05 0.00144909320065)
(-1.55499850384e-06 2.234123686e-05 0.00144383285358)
(-3.09751608086e-06 2.17010181663e-05 0.00142826799161)
(-4.60307100553e-06 2.06341219006e-05 0.00140281540632)
(-6.05350072839e-06 1.91413629043e-05 0.00136814889725)
(-7.39336908332e-06 1.72356752141e-05 0.00132521290332)
(-8.56828602653e-06 1.49859282993e-05 0.00127510734472)
(-1.0031661765e-05 1.22724268789e-05 0.00121913368007)
(2.28568601889e-05 2.65549201945e-05 0.00194507501647)
(2.02163193808e-05 3.17630749385e-05 0.00202920679052)
(1.77343725492e-05 3.63342935021e-05 0.00210392428711)
(1.47819799392e-05 4.02721684293e-05 0.00216753945677)
(1.14256405824e-05 4.34231403149e-05 0.00221862995555)
(7.78498417895e-06 4.57152760013e-05 0.00225599130487)
(3.94359571794e-06 4.71083774946e-05 0.00227877184714)
(4.35618584357e-09 4.75761818711e-05 0.00228645065304)
(-3.93454871356e-06 4.71080483446e-05 0.0022787733305)
(-7.77502656202e-06 4.57145154584e-05 0.00225599451316)
(-1.14147005091e-05 4.34216421031e-05 0.00221863490613)
(-1.4770979382e-05 4.02695356259e-05 0.00216754532088)
(-1.77251405384e-05 3.63303765825e-05 0.00210393022229)
(-2.02097710056e-05 3.17584403337e-05 0.00202922164865)
(-2.28557139081e-05 2.65506290607e-05 0.00194514311861)
(3.70192941943e-05 4.18912824646e-05 0.00259705894661)
(3.30034314234e-05 4.94322046463e-05 0.00270055579742)
(2.90289555666e-05 5.61001404891e-05 0.00279142344861)
(2.42592013542e-05 6.18642016628e-05 0.00286805398872)
(1.8800623726e-05 6.64936727993e-05 0.00292910513328)
(1.28347264243e-05 6.98699754116e-05 0.00297347648588)
(6.51055917978e-06 7.19259350157e-05 0.0030004131498)
(7.42312515301e-09 7.26167859676e-05 0.00300946503003)
(-6.49547374767e-06 7.19255769371e-05 0.00300041418872)
(-1.28190234957e-05 6.98690992803e-05 0.00297347868703)
(-1.8784398288e-05 6.64918757498e-05 0.00292910817614)
(-2.42434372579e-05 6.18610022626e-05 0.00286805640424)
(-2.90155493479e-05 5.60953012799e-05 0.00279142341931)
(-3.29934809002e-05 4.94266251435e-05 0.00270056205651)
(-3.70160067599e-05 4.18862644074e-05 0.00259712245049)
(5.07615824074e-05 5.64365027714e-05 0.00316666671651)
(4.52584729809e-05 6.58909242757e-05 0.0032802292849)
(3.97611315092e-05 7.41440329095e-05 0.00337843652455)
(3.31807376006e-05 8.12708441569e-05 0.00346023029467)
(2.56911904723e-05 8.69839243659e-05 0.00352472256798)
(1.75260624765e-05 9.11426086882e-05 0.00357122312324)
(8.88710783583e-06 9.36718823385e-05 0.00359929539382)
(1.02373974004e-08 9.45210366991e-05 0.00360869630297)
(-8.86651494449e-06 9.36715608128e-05 0.0035992952577)
(-1.75052146983e-05 9.11417746971e-05 0.0035712227641)
(-2.56703551805e-05 8.69821380894e-05 0.00352472112571)
(-3.3160902209e-05 8.12675891506e-05 0.00346022540286)
(-3.97440686134e-05 7.4138980705e-05 0.00337842491567)
(-4.52452487659e-05 6.58851097642e-05 0.00328021829694)
(-5.07556619146e-05 5.64313954956e-05 0.00316671010191)
(6.3052136956e-05 6.91717282694e-05 0.0036506038622)
(5.60393791753e-05 8.00085463609e-05 0.00376571583535)
(4.90892300131e-05 8.92358464615e-05 0.00386342357063)
(4.08374969699e-05 9.71767166269e-05 0.00394356555158)
(3.1543394782e-05 0.000103511195985 0.00400596416213)
(2.14789933622e-05 0.000108103375442 0.00405052241144)
(1.08799111489e-05 0.000110888706966 0.00407724232333)
(1.25910877423e-08 0.000111822399607 0.00408615551383)
(-1.08547295732e-05 0.000110888487571 0.00407724059282)
(-2.14539006316e-05 0.000108102727994 0.00405051854471)
(-3.15187942785e-05 0.000103509679586 0.00400595657663)
(-4.08143241666e-05 9.71738057608e-05 0.00394355070955)
(-4.90690457016e-05 8.92311493586e-05 0.0038633963346)
(-5.60230660154e-05 8.00031031709e-05 0.00376568169921)
(-6.30433188069e-05 6.9167018176e-05 0.00365061831398)
(7.3288355425e-05 7.95473976839e-05 0.00405094455069)
(6.4830701594e-05 9.1206539002e-05 0.00416074674534)
(5.65708734714e-05 0.000100803296251 0.00425188023305)
(4.68747260827e-05 0.00010902083473 0.00432527053051)
(3.609171025e-05 0.00011553034715 0.00438155958002)
(2.45175363679e-05 0.00012022350399 0.00442129473997)
(1.24014158082e-05 0.000123059759957 0.00444493387799)
(1.44449717758e-08 0.000124008730981 0.00445278434379)
(-1.23726251643e-05 0.000123059702549 0.00444493039965)
(-2.44891106818e-05 0.000120223181272 0.00442128697878)
(-3.60641409252e-05 0.000115529339031 0.00438154508553)
(-4.68488604661e-05 0.000109018624803 0.00432524436684)
(-5.65480210377e-05 0.000100799432612 0.00425183515046)
(-6.48115417924e-05 9.12020194891e-05 0.00416068660594)
(-7.32765372005e-05 7.95434937849e-05 0.00405092659421)
(8.11824866982e-05 8.73410818054e-05 0.00437392208312)
(7.14213845368e-05 9.92907519914e-05 0.00447356650939)
(6.2047849301e-05 0.000108725898843 0.00455407668394)
(5.11875856566e-05 0.000116753689226 0.00461749836456)
(3.92725014546e-05 0.000123058024681 0.00466527027429)
(2.66076484553e-05 0.000127573674048 0.00469852884135)
(1.34373595088e-05 0.000130291173004 0.00471812719187)
(1.58658803462e-08 0.000131198540119 0.00472460174981)
(-1.34057993919e-05 0.000130291345264 0.00471812200787)
(-2.65766503818e-05 0.000127573824295 0.00469851722279)
(-3.92425989924e-05 0.000123057762439 0.00466524882045)
(-5.11595238615e-05 0.000116752517527 0.00461746062226)
(-6.20226742471e-05 0.000108723309939 0.00455401328615)
(-7.13996221153e-05 9.92876462766e-05 0.00447348039084)
(-8.11677713447e-05 8.73384295358e-05 0.00437387246305)
(8.66836540817e-05 9.25677429669e-05 0.00462838036341)
(7.58182583896e-05 0.000104337941519 0.00471499110404)
(6.55598937134e-05 0.000113187280638 0.0047827341672)
(5.38403967856e-05 0.000120657049457 0.00483467804063)
(4.11558107219e-05 0.000126463425816 0.00487293960798)
(2.78077067088e-05 0.000130592012888 0.00489912142089)
(1.40206901732e-05 0.000133065297135 0.00491436718145)
(1.6964956369e-08 0.000133889416203 0.00491937132562)
(-1.3986976519e-05 0.00013306576385 0.00491436045333)
(-2.77746724105e-05 0.000130592772465 0.00489910627034)
(-4.11239949243e-05 0.000126464126511 0.00487291169397)
(-5.38104459486e-05 0.000120657213733 0.00483462942894)
(-6.55326302256e-05 0.000113186358463 0.00478265361932)
(-7.57941045291e-05 0.000104336680151 0.00471488166029)
(-8.66662568146e-05 9.25667740414e-05 0.00462830327081)
(8.99050834334e-05 9.53999431203e-05 0.00482436861176)
(7.81700573455e-05 0.000106596294763 0.00489675998068)
(6.72701609367e-05 0.000114548448811 0.00495116136238)
(5.49982724726e-05 0.000121193012028 0.00499147448729)
(4.18886915419e-05 0.000126296727235 0.00502032031336)
(2.82279390233e-05 0.000129896915101 0.00503961405875)
(1.42103837041e-05 0.000132043725608 0.00505067149954)
(1.78652290169e-08 0.000132757710527 0.00505426956177)
(-1.41748900599e-05 0.000132044536648 0.00505066349745)
(-2.81931732318e-05 0.000129898386406 0.00503959598511)
(-4.18551760256e-05 0.000126298550542 0.00502028702271)
(-5.49665710784e-05 0.000121194733329 0.00499141678349)
(-6.72409326391e-05 0.000114549488933 0.00495106659491)
(-7.81436986288e-05 0.000106597224947 0.00489663250032)
(-8.98852469978e-05 9.54010308011e-05 0.00482427141396)
(9.10609655714e-05 9.61022238974e-05 0.00497203522267)
(7.8705499929e-05 0.000106405273194 0.00503031526246)
(6.740691438e-05 0.000113248605166 0.0050719525712)
(5.48757221806e-05 0.000118890053293 0.00510143932771)
(4.16537312145e-05 0.000123163873409 0.00512170403518)
(2.80012155208e-05 0.000126153866461 0.00513481780114)
(1.40763264836e-05 0.000127929221983 0.00514215687914)
(1.86730914206e-08 0.000128518818755 0.00514451373539)
(-1.40392180884e-05 0.00012793039302 0.00514214806834)
(-2.79648288205e-05 0.000126156086122 0.00513479789439)
(-4.16185573589e-05 0.000123166879429 0.00512166738461)
(-5.48422733195e-05 0.000118893428557 0.00510137588734)
(-6.73757610677e-05 0.000113251757564 0.00507184885166)
(-7.86770845771e-05 0.000106408611986 0.00503017812031)
(-9.10389374859e-05 9.61056202785e-05 0.00497192888068)
(9.04112844572e-05 9.49773671671e-05 0.00508082800014)
(7.76829165045e-05 0.000104130625866 0.00512598091466)
(6.62211542386e-05 0.000109729243782 0.00515618198671)
(5.37023706194e-05 0.000114262202446 0.00517624392781)
(4.06424114593e-05 0.000117643436123 0.00518920331816)
(2.72645427093e-05 0.000119990878622 0.00519714145063)
(1.36897800094e-05 0.000121380214081 0.00520140019243)
(1.94659822097e-08 0.000121841317481 0.00520273484415)
(-1.36510723223e-05 0.000121381721331 0.00520139142337)
(-2.72265160189e-05 0.000119993792314 0.00519712169569)
(-4.06055245051e-05 0.000117647553994 0.00518916695141)
(-5.36671113918e-05 0.0001142671518 0.00517618067719)
(-6.61880739472e-05 0.000109734456744 0.00515607802853)
(-7.76525742019e-05 0.000104136372975 0.00512584638679)
(-9.03872685607e-05 9.49831625121e-05 0.00508072794924)
(8.82081265684e-05 9.23091777667e-05 0.00515893794527)
(7.53545411193e-05 0.000100104610088 0.00519245618073)
(6.39676433948e-05 0.000104381428725 0.00521297749223)
(5.17103432753e-05 0.000107760766142 0.00522534083706)
(3.9044690435e-05 0.000110243210341 0.00523249634727)
(2.6151177669e-05 0.000111957667776 0.00523640476799)
(1.311909422e-05 0.000112971036186 0.00523829660026)
(2.02888214507e-08 0.00011330755033 0.00523885144819)
(-1.30787296476e-05 0.000112972802328 0.00523828934988)
(-2.61114427077e-05 0.000111961127868 0.00523638856134)
(-3.9006016454e-05 0.000110248216362 0.00523246641524)
(-5.16732268887e-05 0.000107767021149 0.00522528764093)
(-6.39326647967e-05 0.000104388414574 0.00521288714104)
(-7.53224166085e-05 0.000100112523501 0.00519234134839)
(-8.81823426392e-05 9.23172136026e-05 0.00515886347028)
(8.46958146668e-05 8.83517139635e-05 0.00521289390317)
(7.19981724794e-05 9.47391387328e-05 0.00523655265831)
(6.09406765841e-05 9.76053809641e-05 0.00524937696057)
(4.91499977931e-05 9.9822706228e-05 0.00525592055111)
(3.70539162692e-05 0.000101433014667 0.00525886944393)
(2.47907216063e-05 0.000102543540072 0.00525994665154)
(1.24289254365e-05 0.000103200172426 0.00526020912782)
(2.11469142949e-08 0.000103418537987 0.00526023336802)
(-1.23868323918e-05 0.00010320207266 0.00526020560973)
(-2.47492280806e-05 0.000102547292641 0.00525993901701)
(-3.7013438266e-05 0.000101438524643 0.00525885502356)
(-4.91110634141e-05 9.98297694904e-05 0.00525589229037)
(-6.09039234418e-05 9.76136125827e-05 0.00524932154135)
(-7.19644620351e-05 9.47487003328e-05 0.00523648119697)
(-8.46684214652e-05 8.83615976579e-05 0.00521286581015)
(7.9964412042e-05 8.46412635691e-05 0.00524724312635)
(6.79333297284e-05 8.86384667795e-05 0.00526324745442)
(5.74143820708e-05 8.99016100577e-05 0.00527042951461)
(4.62291495978e-05 9.09156802909e-05 0.00527308440887)
(3.48204661151e-05 9.16215001943e-05 0.00527344781806)
(2.32791823128e-05 9.2102032176e-05 0.00527289639006)
(1.16659633442e-05 9.23834065468e-05 0.00527226399581)
(2.20221694383e-08 9.24767889093e-05 0.00527200475809)
(-1.16221287173e-05 9.23852102812e-05 0.00527226645774)
(-2.32359594776e-05 9.21056194618e-05 0.0052729023662)
(-3.47782784706e-05 9.16268337892e-05 0.00527345807866)
(-4.61885432215e-05 9.09226797058e-05 0.00527309726773)
(-5.73760533506e-05 8.9910056593e-05 0.00527043444519)
(-6.78984647742e-05 8.86487157472e-05 0.00526326090899)
(-7.99354756265e-05 8.46519568178e-05 0.00524726195127)
(-1.05660778019e-07 -2.94571196839e-07 0.000292770593718)
(6.52599909262e-08 -4.66552306232e-07 0.00030701082394)
(2.16553269317e-07 -5.67431976126e-07 0.000319676609516)
(2.93704582291e-07 -5.97130213132e-07 0.000330537560154)
(3.02409500226e-07 -5.84444045748e-07 0.000339315015262)
(2.43808979142e-07 -5.53850679105e-07 0.000345769048385)
(1.35930306154e-07 -5.26487239004e-07 0.000349723319139)
(7.93092938839e-10 -5.15782747929e-07 0.000351066200082)
(-1.34418988144e-07 -5.26567311438e-07 0.000349724424532)
(-2.42490405282e-07 -5.53991156461e-07 0.000345771111404)
(-3.0125484434e-07 -5.84573172711e-07 0.000339317749964)
(-2.92322950979e-07 -5.97082777564e-07 0.000330540741252)
(-2.15004226001e-07 -5.67407792513e-07 0.000319680584039)
(-6.38806958903e-08 -4.66331858817e-07 0.000307018295748)
(1.06518257786e-07 -2.94414198751e-07 0.00029279390534)
(1.08232807756e-06 8.14904111184e-07 0.000883884122848)
(1.38643848624e-06 7.44940582351e-07 0.00092645218795)
(1.62023610485e-06 8.39788561047e-07 0.000964413186183)
(1.63889549998e-06 1.07508464965e-06 0.000996962060843)
(1.45734383097e-06 1.36220752054e-06 0.00102326901297)
(1.08804891277e-06 1.62849705399e-06 0.00104261747473)
(5.82236820707e-07 1.81359770643e-06 0.00105447035542)
(2.42350957147e-09 1.87978886764e-06 0.00105848362241)
(-5.77522518964e-07 1.81329880219e-06 0.00105447323586)
(-1.08367226582e-06 1.6279540472e-06 0.00104262280581)
(-1.45323550491e-06 1.36157984685e-06 0.00102327596673)
(-1.63445035728e-06 1.07469885636e-06 0.000996969955213)
(-1.61553950838e-06 8.39340491139e-07 0.000964422970962)
(-1.38230720519e-06 7.44981145128e-07 0.000926471846152)
(-1.07987735103e-06 8.14932417711e-07 0.000883942855557)
(3.80612810365e-06 3.7317632291e-06 0.00147123969162)
(4.06366147786e-06 4.19753354541e-06 0.00154107567711)
(4.16769823844e-06 4.88142144706e-06 0.00160327768773)
(3.90320097434e-06 5.70866107976e-06 0.00165650480871)
(3.29939459164e-06 6.52288827235e-06 0.00169945111642)
(2.38797695432e-06 7.20243075831e-06 0.00173099725612)
(1.25513571189e-06 7.65012496174e-06 0.00175030077423)
(4.01094860737e-09 7.80634347775e-06 0.00175682283995)
(-1.24724829e-06 7.64952341195e-06 0.0017503044838)
(-2.38042368078e-06 7.20132032004e-06 0.0017310040203)
(-3.29209661155e-06 6.52151737115e-06 0.00169945963316)
(-3.89559330775e-06 5.70742908771e-06 0.00165651388133)
(-4.15993686995e-06 4.88013544647e-06 0.00160328835118)
(-4.05672342533e-06 4.19688336343e-06 0.00154109940946)
(-3.80194769084e-06 3.73152909631e-06 0.00147131848782)
(8.13089475735e-06 8.46834373822e-06 0.00204531119715)
(8.18770420621e-06 9.83746162194e-06 0.0021396099356)
(7.96382678699e-06 1.1437276645e-05 0.00222318440151)
(7.1903388511e-06 1.31266278468e-05 0.00229436060522)
(5.91986031147e-06 1.46744057519e-05 0.00235155401804)
(4.21162196324e-06 1.5911414079e-05 0.00239343043129)
(2.19114780936e-06 1.67065975867e-05 0.00241899343851)
(5.70078194233e-09 1.69808430038e-05 0.0024276109535)
(-2.1798776697e-06 1.67058385332e-05 0.00241899664309)
(-4.20067747856e-06 1.59099941404e-05 0.00239343600069)
(-5.90920576433e-06 1.46725855492e-05 0.0023515602235)
(-7.17957163558e-06 1.31248085317e-05 0.00229436563186)
(-7.95320830869e-06 1.14354253688e-05 0.00222318877825)
(-8.1781776785e-06 9.83637870551e-06 0.00213962672485)
(-8.12494439974e-06 8.46813241518e-06 0.00204539048797)
(1.36153221819e-05 1.44737054484e-05 0.00259425865735)
(1.33367797592e-05 1.69235247999e-05 0.0027082936362)
(1.2624376493e-05 1.95675524602e-05 0.00280846231636)
(1.11671197275e-05 2.22063973789e-05 0.00289310681828)
(9.05268561802e-06 2.45394251604e-05 0.00296067029416)
(6.3734544264e-06 2.63607338466e-05 0.00300988097624)
(3.2950209533e-06 2.75151511542e-05 0.00303980828387)
(7.45389740999e-09 2.79105629485e-05 0.00304987047455)
(-3.28025424989e-06 2.75143792795e-05 0.00303980974634)
(-6.35904533926e-06 2.63592729782e-05 0.00300988287504)
(-9.03866828458e-06 2.45374992325e-05 0.00296067044389)
(-1.1153267926e-05 2.22043736214e-05 0.00289310261891)
(-1.26110459605e-05 1.95655211106e-05 0.00280845324675)
(-1.3324846034e-05 1.69224156859e-05 0.00270829312711)
(-1.36074982133e-05 1.44737472786e-05 0.00259432247243)
(1.97449511379e-05 2.11428883993e-05 0.00310620706336)
(1.90188084456e-05 2.46727148951e-05 0.00323377865573)
(1.76994938226e-05 2.83066657528e-05 0.00334441666299)
(1.54445367829e-05 3.18172358196e-05 0.00343690217759)
(1.23877797176e-05 3.48498064495e-05 0.00351005223426)