/*--------------------------------*- C++ -*----------------------------------*\
  =========                 |
  \\      /  F ield         | OpenFOAM: The Open Source CFD Toolbox
   \\    /   O peration     | Website:  https://openfoam.org
    \\  /    A nd           | Version:  7
     \\/     M anipulation  |
\*---------------------------------------------------------------------------*/
FoamFile
{
    version     2.0;
    format      ascii;
    class       surfaceScalarField;
    location    "1.5";
    object      phi;
}
// * * * * * * * * * * * * * * * * * * * * * * * * * * * * * * * * * * * * * //

dimensions      [0 3 -1 0 0 0 0];

internalField   nonuniform List<scalar> 
65775
(
9.21044076802e-12
1.9121551109e-09
2.41325084408e-10
2.65622343487e-14
1.38006840276e-11
2.00334542216e-09
2.66783931794e-10
1.62985715252e-11
2.08215343896e-09
2.90805963982e-10
1.59323076943e-11
2.1502409567e-09
3.12312780316e-10
1.32641731013e-11
2.20459329901e-09
3.30259775821e-10
8.75645003471e-12
2.24439361799e-09
3.43782554695e-10
3.08923479661e-12
2.26939944915e-09
3.52314331187e-10
-2.99085326563e-12
2.27884229605e-09
3.55382791302e-10
-8.66098852373e-12
2.26938680506e-09
3.52314317597e-10
-1.31741989572e-11
2.2443690452e-09
3.43782570259e-10
-1.58507655124e-11
2.20455713245e-09
3.30259897762e-10
-1.62276391027e-11
2.15019576536e-09
3.12313172844e-10
-1.37426446032e-11
2.08210164067e-09
2.90807086169e-10
-9.16169892706e-12
2.00329650279e-09
2.66787598522e-10
1.91213011602e-09
2.41337808039e-10
5.67429116783e-14
2.56960905191e-11
3.32370268201e-09
6.23143333674e-10
6.04514411023e-14
4.26087783468e-11
3.47167148006e-09
6.86793803901e-10
5.02997614422e-11
3.60023511413e-09
7.46370300262e-10
4.95363053382e-11
3.70979791652e-09
7.99362814576e-10
4.13113338885e-11
3.79694802684e-09
8.43347640645e-10
2.7293315658e-11
3.86045980428e-09
8.76359006317e-10
9.60055746615e-12
3.90032003238e-09
8.97133918617e-10
-9.34195419791e-12
3.9154180047e-09
9.0459501174e-10
-2.7042017693e-11
3.90029120751e-09
8.97133966575e-10
-4.10741435502e-11
3.86040344876e-09
8.76359202218e-10
-4.93200954444e-11
3.79686540103e-09
8.43348176594e-10
-5.01106086143e-11
3.70969336707e-09
7.99364122737e-10
-4.2450589623e-11
3.6001149564e-09
7.46373657272e-10
-2.5567066118e-11
3.47155479863e-09
6.86804216089e-10
3.32363219699e-09
6.23175168175e-10
1.45436567922e-13
4.081993737e-11
4.32049334189e-09
9.20440615667e-10
8.50821520638e-14
6.83882381696e-11
4.49972231264e-09
1.01367422328e-09
8.04945852763e-11
4.65646846544e-09
1.10043331247e-09
7.91501270206e-11
4.78796048356e-09
1.17725479805e-09
6.59027123314e-11
4.89213603302e-09
1.2407840607e-09
4.34857653431e-11
4.96765165957e-09
1.28833286213e-09
1.52756043276e-11
5.01498297257e-09
1.31819268256e-09
-1.48838414718e-11
5.03297067613e-09
1.32889261009e-09
-4.31049414751e-11
5.01494400795e-09
1.31819261099e-09
-6.55432313606e-11
4.96757540206e-09
1.28833286995e-09
-7.88220321509e-11
4.89202437027e-09
1.24078442821e-09
-8.02069527821e-11
4.7878182498e-09
1.17725615469e-09
-6.81463682626e-11
4.65630407691e-09
1.10043745862e-09
-4.06247996009e-11
4.49956033819e-09
1.01368804611e-09
4.32038845512e-09
9.20483408253e-10
2.18312024728e-13
5.49812351425e-11
4.97108813892e-09
1.15014958364e-09
1.0093455575e-13
9.1637433284e-11
5.1629626897e-09
1.26665634572e-09
1.07644437636e-10
5.33138260408e-09
1.37448100127e-09
1.05576788129e-10
5.47046942068e-09
1.46954630623e-09
8.77475252452e-11
5.58004508812e-09
1.54789149047e-09
5.78192401284e-11
5.65901192196e-09
1.60637596586e-09
2.02870492901e-11
5.708420632e-09
1.64302358864e-09
-1.97892846122e-11
5.72726813407e-09
1.65612257793e-09
-5.7335138559e-11
5.70837746117e-09
1.64302314829e-09
-8.7290201275e-11
5.65892719494e-09
1.6063752686e-09
-1.05158600028e-10
5.5799210672e-09
1.54789086074e-09
-1.07276214e-10
5.47031078986e-09
1.46954646053e-09
-9.13258317469e-11
5.33119744464e-09
1.37448392088e-09
-5.47286771537e-11
5.16277799838e-09
1.26666959577e-09
4.97096118051e-09
1.15019438239e-09
2.79668643976e-13
6.78786394742e-11
5.33544624169e-09
1.32116762659e-09
1.10567145807e-13
1.12476211788e-10
5.52643492649e-09
1.45574308521e-09
1.31922002414e-10
5.69436013268e-09
1.5796088531e-09
1.29107959311e-10
5.83084496215e-09
1.6883417706e-09
1.07136740319e-10
5.93759743335e-09
1.77763737472e-09
7.05100605359e-11
6.01402905167e-09
1.8441178111e-09
2.47159157853e-11
6.06174764143e-09
1.88567991898e-09
-2.41329009779e-11
6.08002507545e-09
1.90049323599e-09
-6.99427497791e-11
6.06170523139e-09
1.88567900698e-09
-1.06600194368e-10
6.0139457752e-09
1.84411609759e-09
-1.2861617794e-10
5.93747536914e-09
1.77763516282e-09
-1.31486821285e-10
5.83068818465e-09
1.68833972395e-09
-1.12105109574e-10
5.694174917e-09
1.57960881638e-09
-6.75748031661e-11
5.52624881644e-09
1.45575262523e-09
5.33531398698e-09
1.32120825677e-09
3.33189260565e-13
7.95194752485e-11
5.46617187946e-09
1.44084275144e-09
1.15650751539e-13
1.31062110615e-10
5.64682072612e-09
1.5891454564e-09
1.53487165411e-10
5.805711517e-09
1.72488548898e-09
1.49926534319e-10
5.93271986679e-09
1.84350528281e-09
1.24237797381e-10
6.0311840599e-09
1.94056817519e-09
8.16781288401e-11
6.10116811161e-09
2.01262971143e-09
2.86074384466e-11
6.14474577437e-09
2.05756951956e-09
-2.79545710999e-11
6.16151149084e-09
2.07353522935e-09
-8.10423986955e-11
6.14470875633e-09
2.05756800861e-09
-1.23635656142e-10
6.10109527575e-09
2.01262676041e-09
-1.49373008107e-10
6.03107706153e-09
1.9405639966e-09
-1.52994654207e-10
5.93258153802e-09
1.8435003528e-09
-1.30638180316e-10
5.80554593909e-09
1.72488128383e-09
-7.91679630981e-11
5.64665267536e-09
1.58914926727e-09
5.46605153633e-09
1.44087600327e-09
3.80906661346e-13
9.00055689577e-11
5.4094329476e-09
1.51550820528e-09
1.17462169581e-13
1.47597255984e-10
5.57364034644e-09
1.67392350105e-09
1.7255839248e-10
5.7179461186e-09
1.81809762411e-09
1.68258187895e-10
5.831254349e-09
1.94350244294e-09
1.39248107315e-10
5.91817379336e-09
2.0457346693e-09
9.14599257434e-11
5.97945247104e-09
2.12141416095e-09
3.20117790195e-11
6.01749031798e-09
2.16848495067e-09
-3.12997325251e-11
6.03219409936e-09
2.1851468021e-09
-9.0765964994e-11
6.01746241189e-09
2.16848289723e-09
-1.3858954898e-10
5.97939744219e-09
2.12141005425e-09
-1.67650655937e-10
5.91809262548e-09
2.0457285631e-09
-1.72014428453e-10
5.8311482549e-09
1.94349451192e-09
-1.47124390844e-10
5.71781647177e-09
1.81808883844e-09
-8.96080254582e-11
5.57350843487e-09
1.67392086465e-09
5.40934153632e-09
1.5155329833e-09
4.24978933347e-13
9.94029061826e-11
5.20571054804e-09
1.55078427628e-09
1.1671329177e-13
1.62246676776e-10
5.35005827202e-09
1.7163354615e-09
1.89350612081e-10
5.47662332599e-09
1.86614485537e-09
1.84339937735e-10
5.57408454984e-09
1.99583547116e-09
1.52381074128e-10
5.64793568227e-09
2.10116050398e-09
1.00003849902e-10
5.69954362942e-09
2.17889830682e-09
3.49831500454e-11
5.73146467886e-09
2.22711269733e-09
-3.4218430503e-11
5.74386355925e-09
2.24410873658e-09
-9.92577476786e-11
5.73144878179e-09
2.22711028778e-09
-1.51671326403e-10
5.69951222408e-09
2.17889339211e-09
-1.83682454755e-10
5.64788883796e-09
2.10115292515e-09
-1.88757866373e-10
5.57402181167e-09
1.99582502158e-09
-1.61726111852e-10
5.47654312316e-09
1.86613194364e-09
-9.89595137179e-11
5.34997774566e-09
1.71632692447e-09
5.20566380675e-09
1.55080112115e-09
4.66788516786e-13
1.07755075743e-10
4.89037056038e-09
1.55174190395e-09
1.14137900516e-13
1.75154738882e-10
5.01349876544e-09
1.72202059615e-09
2.0408505239e-10
5.12101328212e-09
1.87523956183e-09
1.98428145501e-10
5.20205919027e-09
2.00725666296e-09
1.63871091237e-10
5.26264053035e-09
2.11406557315e-09
1.07472759102e-10
5.30459282854e-09
2.1926638649e-09
3.75806655995e-11
5.33044158668e-09
2.24126683545e-09
-3.67660208261e-11
5.34052625444e-09
2.25831944708e-09
-1.06676890539e-10
5.33043963786e-09
2.24126439279e-09
-1.63111855857e-10
5.30458893521e-09
2.19265877408e-09
-1.97721459743e-10
5.26263393579e-09
2.11405743016e-09
-2.03443370731e-10
5.20204765011e-09
2.00724483502e-09
-1.74585569319e-10
5.12099260535e-09
1.87522389331e-09
-1.07264748184e-10
5.01348167545e-09
1.72200790773e-09
4.89038206551e-09
1.55175269758e-09
5.0764482499e-13
1.15101572068e-10
4.49413762949e-09
1.52298286231e-09
1.10251416598e-13
1.86473914193e-10
4.59616780525e-09
1.69608412065e-09
2.17018239091e-10
4.68466808728e-09
1.85099599637e-09
2.1082245919e-10
4.74989024554e-09
1.98385956049e-09
1.73988755321e-10
4.79798099975e-09
2.090957457e-09
1.14051517931e-10
4.83100999611e-09
2.16953792819e-09
3.98705728682e-11
4.85128079845e-09
2.21797920528e-09
-3.90054148524e-11
4.85921184636e-09
2.23488498585e-09
-1.1320500693e-10
4.85129369297e-09
2.21797719281e-09
-1.73178624605e-10
4.83103549993e-09
2.16953358923e-09
-2.10064565027e-10
4.79801770166e-09
2.09095013627e-09
-2.16325104034e-10
4.74993450958e-09
1.98384818307e-09
-1.8585356022e-10
4.6847133707e-09
1.85097985457e-09
-1.14562117594e-10
4.59622273495e-09
1.69607012965e-09
4.49421779828e-09
1.52299061504e-09
5.48668106897e-13
1.21477392956e-10
4.0435359005e-09
1.46867188202e-09
1.05563412906e-13
1.96393029016e-10
4.12551368387e-09
1.64312949721e-09
2.28478826302e-10
4.19595024496e-09
1.7984634349e-09
2.21890855198e-10
4.246783513e-09
1.93111089984e-09
1.83050513762e-10
4.28387627856e-09
2.03766075338e-09
1.19948617911e-10
4.30921388548e-09
2.11561965368e-09
4.19259245164e-11
4.32470272334e-09
2.16352430523e-09
-4.10068837983e-11
4.33075537029e-09
2.18014335007e-09
-1.19047905816e-10
4.32473029795e-09
2.16352331997e-09
-1.82185618002e-10
4.30926867184e-09
2.115617282e-09
-2.21077582914e-10
4.28395652045e-09
2.03765611428e-09
-2.27730090694e-10
4.24688471171e-09
1.93110248099e-09
-1.95717808969e-10
4.19606425858e-09
1.79844995846e-09
-1.20885941196e-10
4.12564540883e-09
1.64311797978e-09
4.04369126364e-09
1.46868053573e-09
5.90884326585e-13
1.26913497941e-10
3.56132274712e-09
1.39254329963e-09
1.00094791605e-13
2.05213187929e-10
3.62460251093e-09
1.56726880879e-09
2.38940083443e-10
3.67855183215e-09
1.72213995538e-09
2.3209782672e-10
3.71710104639e-09
1.85386306891e-09
1.91416277966e-10
3.74519926582e-09
1.959326454e-09
1.25385509917e-10
3.76438316043e-09
2.03628698523e-09
4.38217248841e-11
3.7760520973e-09
2.0834244296e-09
-4.28434187431e-11
3.78056457672e-09
2.09966912449e-09
-1.24425141472e-10
3.77609329948e-09
2.08342517177e-09
-1.90491152227e-10
3.76446512227e-09
2.03628802864e-09
-2.31223836072e-10
3.74532049536e-09
1.95932676065e-09
-2.38130900107e-10
3.71725696605e-09
1.85386071839e-09
-2.04479262102e-10
3.67873369707e-09
1.7221329979e-09
-1.26267393715e-10
3.62481191153e-09
1.56726414533e-09
3.56155591985e-09
1.39255738041e-09
6.35140253357e-13
1.31603634668e-10
3.06676364224e-09
1.29789641683e-09
9.39951550483e-14
2.13615054844e-10
3.1123778133e-09
1.4721374998e-09
2.49133772786e-10
3.15214511505e-09
1.62599425956e-09
2.41987727055e-10
3.1811361469e-09
1.75637196328e-09
1.9943015328e-10
3.20253193249e-09
1.86044535835e-09
1.30548882415e-10
3.21718723028e-09
1.93620753406e-09
4.56170817038e-11
3.22602060173e-09
1.98245943643e-09
-4.45731181969e-11
3.22934504558e-09
1.9982829644e-09
-1.29522719234e-10
3.22607350383e-09
1.98246263193e-09
-1.98438932228e-10
3.21729288754e-09
1.93621352246e-09
-2.41047789371e-10
3.20268928651e-09
1.86045308007e-09
-2.48259902838e-10
3.18134159121e-09
1.75637919192e-09
-2.12819694087e-10
3.1523905022e-09
1.62599816835e-09
-1.3090178443e-10
3.11266242857e-09
1.47214415271e-09
3.06707370672e-09
1.29792001461e-09
6.78692908079e-13
1.36590351569e-10
2.57522336823e-09
1.18759026513e-09
8.69522128538e-14
2.22945542511e-10
2.60426207196e-09
1.36095219493e-09
2.59847166716e-10
2.63346984591e-09
1.51351818439e-09
2.51855150967e-10
2.65598025225e-09
1.6423327296e-09
2.07161877102e-10
2.67282264801e-09
1.74487656847e-09
1.35440836599e-10
2.68437830748e-09
1.81936487088e-09
4.73083837687e-11
2.6912441921e-09
1.86469256868e-09
-4.61928037157e-11
2.69370122273e-09
1.88007737914e-09
-1.34343313746e-10
2.69130667187e-09
1.86469881136e-09
-2.06099927722e-10
2.68450320305e-09
1.81937709317e-09
-2.50845764916e-10
2.67300950842e-09
1.74489391455e-09
-2.58906609838e-10
2.65622698217e-09
1.6423529851e-09
-2.22088034443e-10
2.63377068473e-09
1.5135375631e-09
-1.35833711545e-10
2.60461629118e-09
1.36097434132e-09
2.57560326485e-09
1.18762580498e-09
7.23038081944e-13
1.45052986309e-10
1.06426190364e-09
7.97424341078e-14
2.09624854482e-09
2.35031301603e-10
1.23686618054e-09
2.11387790949e-09
2.71518297701e-10
1.38791114612e-09
2.13745606132e-09
2.61663481087e-10
1.51499110908e-09
2.15595294689e-09
2.14531272808e-10
1.61591697151e-09
2.16976592464e-09
1.40023365429e-10
1.68909929403e-09
2.17932785988e-09
4.88854019331e-11
1.73349336738e-09
2.18495938611e-09
-4.76941161078e-11
1.74843351011e-09
2.18684014289e-09
-1.38851400471e-10
1.73350273341e-09
2.18502976134e-09
-2.13397260282e-10
1.68911796879e-09
2.17946863526e-09
-2.60585557055e-10
1.61594452652e-09
2.1699767684e-09
-2.70513946637e-10
1.51502594445e-09
2.15623299322e-09
-2.3411733434e-10
1.38794888254e-09
2.13780284992e-09
-1.44248796329e-10
1.23690973537e-09
2.11429124589e-09
1.06430490646e-09
7.64623255169e-13
2.09669169055e-09
-2.6471565734e-12
8.98874337627e-11
1.54105832758e-10
8.2658765617e-15
-3.64425510387e-12
9.84881836938e-11
1.69340778009e-10
-3.9211428143e-12
1.07631000422e-10
1.83499176788e-10
-3.68215044187e-12
1.1605733994e-10
1.96058952937e-10
-2.9915060158e-12
1.2313465686e-10
2.06465578032e-10
-1.94377777195e-12
1.28490988583e-10
2.14267472859e-10
-6.60572715195e-13
1.31873738987e-10
2.19178748792e-10
7.05891746482e-13
1.33086942151e-10
2.20950577203e-10
1.990109621e-12
1.31871682748e-10
2.19179508145e-10
3.03942802877e-12
1.28485088288e-10
2.14269010926e-10
3.73025047914e-12
1.23121465893e-10
2.06467947729e-10
3.96551939453e-12
1.16035521066e-10
1.96062321856e-10
3.68205273224e-12
1.07605928999e-10
1.83504063332e-10
2.67619936002e-12
9.84633673142e-11
1.69348901076e-10
8.98812074955e-11
1.54122650635e-10
2.80383981666e-14
-4.73759393786e-12
2.68118916798e-10
4.49682647416e-10
2.14719315797e-14
-6.76889416164e-12
2.91942410071e-10
4.95445104682e-10
-7.32144624124e-12
3.16577709924e-10
5.3805156322e-10
-6.84647764361e-12
3.3913854554e-10
5.75870861414e-10
-5.53190082983e-12
3.57991109775e-10
6.07224903551e-10
-3.5711211912e-12
3.72185426008e-10
6.30742519333e-10
-1.19144821128e-12
3.81125414e-10
6.45538124394e-10
1.33895868749e-12
3.84333361905e-10
6.50853136806e-10
3.71983705525e-12
3.81119087146e-10
6.45540245437e-10
5.68171324246e-12
3.72169468146e-10
6.30746825259e-10
6.99321107082e-12
3.57959604003e-10
6.07231574885e-10
7.45599184544e-12
3.39088624571e-10
5.75880404758e-10
6.88304186995e-12
3.16518301314e-10
5.38065439278e-10
4.82596266807e-12
2.91886293821e-10
4.95468130369e-10
2.68099709604e-10
4.49727009641e-10
8.33474240922e-14
-4.49459771124e-12
4.82035232495e-10
7.11039096372e-10
3.18230569376e-14
-6.45739404769e-12
5.22655021903e-10
7.84991314041e-10
-6.91955158845e-12
5.63765474401e-10
8.53776565657e-10
-6.3808895625e-12
6.01148773386e-10
9.14763601364e-10
-5.0888350715e-12
6.32249697975e-10
9.6527776222e-10
-3.24154918048e-12
6.5556826087e-10
1.00313908341e-09
-1.04011326029e-12
6.70219800462e-10
1.02693041638e-09
1.29393731484e-12
6.75475624988e-10
1.03544917597e-09
3.49543278278e-12
6.70208994451e-10
1.02693361162e-09
5.34095626203e-12
6.55542956701e-10
1.0031455813e-09
6.62446985904e-12
6.3220355493e-10
9.65287856064e-10
7.14212720704e-12
6.01079119627e-10
9.14778062334e-10
6.64677032704e-12
5.63682692646e-10
8.53797489954e-10
4.64304133491e-12
5.22580214536e-10
7.850254884e-10
4.82009636491e-10
7.1110307271e-10
1.3901999921e-13
-2.48537675616e-12
7.00773100196e-10
9.33906145935e-10
4.04483603378e-14
-3.39285117838e-12
7.57263073988e-10
1.0330169366e-09
-3.40917645521e-12
8.13309209191e-10
1.1250152348e-09
-2.94263543675e-12
8.63844502975e-10
1.20643562154e-09
-2.20809838019e-12
9.0567405795e-10
1.27377365819e-09
-1.31798444196e-12
9.36903946013e-10
1.32418480885e-09
-3.34414952797e-13
9.56476908338e-10
1.35581505561e-09
6.95973815359e-13
9.63494116621e-10
1.36710493577e-09
1.67745328657e-12
9.56462286434e-10
1.35581894848e-09
2.56129226823e-12
9.3687146963e-10
1.3241927372e-09
3.28040556323e-12
9.05618332762e-10
1.2737859935e-09
3.71690226206e-12
8.63763990591e-10
1.20645328396e-09
3.65596218739e-12
8.13214125189e-10
1.12504060947e-09
2.69444271931e-12
7.57179183103e-10
1.03305772091e-09
7.00744864861e-10
9.33980941233e-10
1.96090460085e-13
9.08606794724e-13
9.02205019728e-10
1.11882473381e-09
4.77396094015e-14
1.83980045415e-12
9.72128108346e-10
1.24000217469e-09
2.58720491196e-12
1.04005447956e-09
1.35217027165e-09
2.88300169242e-12
1.10072921618e-09
1.45120735662e-09
2.62944694673e-12
1.15064617184e-09
1.53295627923e-09
1.8827590407e-12
1.18774008687e-09
1.59406067294e-09
8.14059416163e-13
1.21092239265e-09
1.63233323662e-09
-3.46439337703e-13
1.21922711763e-09
1.64594993169e-09
-1.41986143856e-12
1.21090573801e-09
1.63233743708e-09
-2.17809111374e-12
1.18770420797e-09
1.59406931622e-09
-2.454437319e-12
1.15058703176e-09
1.53296975565e-09
-2.19752643412e-12
1.10064633657e-09
1.45122658839e-09
-1.50472582419e-12
1.03995759533e-09
1.35219760116e-09
-6.38703535024e-13
9.72043769762e-10
1.24004557124e-09
9.02178962514e-10
1.11890357925e-09
2.53639207426e-13
5.32131328204e-12
1.07133838379e-09
1.26637706223e-09
5.39568180166e-14
8.717748648e-12
1.1514283453e-09
1.40649739816e-09
1.05072294737e-11
1.22744011354e-09
1.53575837389e-09
1.05737897571e-11
1.29464654788e-09
1.64956300423e-09
9.00140848888e-12
1.34953930633e-09
1.74328225167e-09
6.08571236731e-12
1.39011352243e-09
1.81320263235e-09
2.30925913208e-12
1.41538751303e-09
1.85690950862e-09
-1.7393255402e-12
1.42443168555e-09
1.87240685299e-09
-5.52330884041e-12
1.415370626e-09
1.85691390845e-09
-8.45595868931e-12
1.39007795938e-09
1.81321166833e-09
-1.00583976592e-11
1.34948249836e-09
1.74329624786e-09
-1.00388847884e-11
1.29456892081e-09
1.6495827197e-09
-8.31280809613e-12
1.22735033441e-09
1.53578582897e-09
-4.99062061227e-12
1.15135206375e-09
1.40654051188e-09
1.07131826788e-09
1.26645561515e-09
3.10681144494e-13
1.0413081191e-11
1.19900966807e-09
1.37740420069e-09
5.91074127954e-14
1.67614325088e-11
1.28566251808e-09
1.5333834544e-09
1.9825723691e-11
1.36580476534e-09
1.67671116538e-09
1.9640338638e-11
1.43588148584e-09
1.80249006227e-09
1.65133346295e-11
1.49263899463e-09
1.90579389314e-09
1.10354806489e-11
1.53433445646e-09
1.98269959731e-09
4.06242941701e-12
1.56020665018e-09
2.03066565864e-09
-3.39529611379e-12
1.56945089113e-09
2.04761111296e-09
-1.03785976513e-11
1.560191539e-09
2.03067025063e-09
-1.58785189406e-11
1.53430318443e-09
1.98270896618e-09
-1.90423030644e-11
1.49259013701e-09
1.90580820392e-09
-1.92819886103e-11
1.43581602819e-09
1.80250975346e-09
-1.62887058351e-11
1.36572966433e-09
1.67673772828e-09
-1.00223178222e-11
1.285601924e-09
1.53342464652e-09
1.19900044007e-09
1.37748002486e-09
3.66909503582e-13
1.58906603999e-11
1.28077289402e-09
1.45310240581e-09
6.3180225687e-14
2.55437996963e-11
1.37040194408e-09
1.62198010328e-09
3.00653786453e-11
1.45097219294e-09
1.77649300994e-09
2.96340023735e-11
1.52057803807e-09
1.91160365584e-09
2.48032701268e-11
1.57641234926e-09
2.02224730085e-09
1.64981980792e-11
1.61714155951e-09
2.10442302189e-09
5.99262406548e-12
1.64229960483e-09
2.15555053267e-09
-5.23406608803e-12
1.65126966705e-09
2.17354086931e-09
-1.57523573933e-11
1.6422879855e-09
2.15555550019e-09
-2.40840889737e-11
1.61711790534e-09
2.10443304323e-09
-2.89575273007e-11
1.57637616553e-09
2.02226228954e-09
-2.94495253416e-11
1.52053058609e-09
1.91162358698e-09
-2.50053193052e-11
1.45091867551e-09
1.77651869641e-09
-1.54410295928e-11
1.37036382153e-09
1.62201913326e-09
1.28078125802e-09
1.45317475852e-09
4.21759819421e-13
2.15102529362e-11
1.31593347164e-09
1.4950364063e-09
6.6421529934e-14
3.4692146851e-11
1.4052202747e-09
1.67405259826e-09
4.08020390137e-11
1.48303584407e-09
1.83709831457e-09
4.01522908437e-11
1.54938158185e-09
1.97913253985e-09
3.35457061895e-11
1.60202498343e-09
2.09508624238e-09
2.22635751162e-11
1.64012235158e-09
2.18098991877e-09
8.02719137773e-12
1.66353070558e-09
2.2342955537e-09
-7.18326723492e-12
1.67185224403e-09
2.25296985443e-09
-2.1434497861e-11
1.66352406523e-09
2.23430128109e-09
-3.27472243015e-11
1.64010914181e-09
2.18100131869e-09
-3.94015408886e-11
1.60200540174e-09
2.09510289358e-09
-4.01172690556e-11
1.54935685454e-09
1.97915382879e-09
-3.40901887025e-11
1.48300955625e-09
1.83712425963e-09
-2.10031253568e-11
1.40521098921e-09
1.67409063379e-09
1.31596558361e-09
1.49510607981e-09
4.74767685733e-13
2.70786087796e-11
1.30669755222e-09
1.50509964543e-09
6.87879582154e-14
4.38921891341e-11
1.39276228545e-09
1.69175606241e-09
5.1671077334e-11
1.46530253589e-09
1.86097829433e-09
5.08455919152e-11
1.52626698914e-09
2.00782584723e-09
4.24565354504e-11
1.57406728299e-09
2.12732849263e-09
2.81475963557e-11
1.60836036101e-09
2.21563163116e-09
1.01025263024e-11
1.62930512995e-09
2.27027163086e-09
-9.17940981181e-12
1.63672005397e-09
2.28932002515e-09
-2.72411191276e-11
1.62930448961e-09
2.27027869416e-09
-4.15839341263e-11
1.60835953312e-09
2.21564553094e-09
-5.00249180028e-11
1.57406702821e-09
2.1273484084e-09
-5.09208460025e-11
1.52626856138e-09
2.00785046891e-09
-4.32294039701e-11
1.46530812274e-09
1.86100673365e-09
-2.65159827694e-11
1.39278757158e-09
1.6917955806e-09
1.30676033953e-09
1.50516880291e-09
5.25565585062e-13
3.24528587626e-11
1.25743060876e-09
1.48544092262e-09
7.05862819388e-14
5.28931308346e-11
1.33793054222e-09
1.67754444021e-09
6.23766244205e-11
1.40337533708e-09
1.85093116974e-09
6.14270166441e-11
1.45753041117e-09
2.00082013747e-09
5.13001010564e-11
1.49946794141e-09
2.12240880712e-09
3.39963162761e-11
1.52928824654e-09
2.2120164116e-09
1.21650898033e-11
1.54738245098e-09
2.26729820765e-09
-1.11692274377e-11
1.55375131894e-09
2.2864657824e-09
-3.30186007699e-11
1.54738845351e-09
2.26730733778e-09
-5.03589838111e-11
1.52930105547e-09
2.21203426286e-09
-6.05412780767e-11
1.49948873884e-09
2.12243412743e-09
-6.15650568119e-11
1.45756056981e-09
2.00085083189e-09
-5.21729766812e-11
1.40341611838e-09
1.85096529892e-09
-3.18374148336e-11
1.33799516257e-09
1.67758898113e-09
1.25752993735e-09
1.48551285679e-09
5.73649263599e-13
3.7540290917e-11
1.174013152e-09
1.43837155156e-09
7.17449469203e-14
6.15187261193e-11
1.24717297546e-09
1.63406806767e-09
7.27099575214e-11
1.30435907495e-09
1.80998557189e-09
7.1688814429e-11
1.35093650777e-09
1.96149828061e-09
5.98997622162e-11
1.38659118802e-09
2.08401166917e-09
3.96908884658e-11
1.41174188316e-09
2.1740608871e-09
1.41728830708e-11
1.42690202066e-09
2.22944108959e-09
-1.31113277586e-11
1.43219510665e-09
2.24852700976e-09
-3.86487843211e-11
1.42691509821e-09
2.22945309501e-09
-5.8896641223e-11
1.41176894744e-09
2.1740843285e-09
-7.07439972291e-11
1.38663398505e-09
2.08404488599e-09
-7.18424686721e-11
1.35099656512e-09
1.96153834448e-09
-6.07459891924e-11
1.30443737376e-09
1.81002927086e-09
-3.68761644818e-11
1.24728046078e-09
1.63412175791e-09
1.17415430619e-09
1.43845019165e-09
6.18485443633e-13
4.23381636055e-11
1.06325529745e-09
1.36626428501e-09
7.22866936451e-14
6.97340392053e-11
1.1278408428e-09
1.56409107568e-09
8.26108844967e-11
1.17618637339e-09
1.74130790178e-09
8.15443507938e-11
1.21502723962e-09
1.89336512442e-09
6.81615866807e-11
1.244519116e-09
2.01591732996e-09
4.51592463025e-11
1.26521366923e-09
2.10575488879e-09
1.60985761638e-11
1.27761360141e-09
2.16082464378e-09
-1.49793426394e-11
1.28189498146e-09
2.17967696713e-09
-4.40608101767e-11
1.27763401951e-09
2.16084027342e-09
-6.7104314131e-11
1.26525564983e-09
2.1057854822e-09
-8.05481515427e-11
1.24458449101e-09
2.01596093497e-09
-8.16947371879e-11
1.21511810343e-09
1.89341804595e-09
-6.8915491597e-11
1.17630365477e-09
1.74136535426e-09
-4.16313710668e-11
1.12799421585e-09
1.56415790647e-09
1.06344307663e-09
1.36635287877e-09
6.57469000739e-13
4.69513779291e-11
9.32385485141e-10
1.27145584526e-09
7.21565746103e-14
7.7608867599e-11
9.87660180032e-10
1.4704904166e-09
9.21339333688e-11
1.02703182805e-09
1.64816280086e-09
9.10049161194e-11
1.05855305413e-09
1.79995141184e-09
7.60647344162e-11
1.08247849027e-09
1.92187253541e-09
5.03746198284e-11
1.09926966848e-09
2.01101378807e-09
1.79306459698e-11
1.10929052819e-09
2.06547430819e-09
-1.67630164296e-11
1.11269842685e-09
2.08398154902e-09
-4.92291639696e-11
1.10931890069e-09
2.06549402929e-09
-7.49629397177e-11
1.0993273251e-09
2.01105256915e-09
-8.99669659597e-11
1.08256732732e-09
1.92192838136e-09
-9.11787865339e-11
1.05867519764e-09
1.8000202258e-09
-7.6753165196e-11
1.0271890276e-09
1.64823813432e-09
-4.62096103174e-11
9.87861565453e-10
1.47057376072e-09
9.32621776456e-10
1.27155543197e-09
6.91463516907e-13
4.86192587472e-11
1.15617451506e-09
7.20599174087e-14
7.91799614998e-10
8.37881729536e-11
1.35645013136e-09
8.32920855907e-10
1.00597974762e-10
1.53383638303e-09
8.64310571404e-10
9.97709913276e-11
1.68468001825e-09
8.89704604891e-10
8.35262077185e-11
1.80546335895e-09
9.09190563974e-10
5.53435367663e-11
1.89356929316e-09
9.22995841439e-10
1.96803046431e-11
1.94722099265e-09
9.31239070789e-10
-1.8474679351e-11
1.96530843973e-09
9.33991175201e-10
-5.41618976463e-11
1.94724452829e-09
9.31276375484e-10
-8.23912550943e-11
1.89361578069e-09
9.23071181745e-10
-9.87036279847e-11
1.80553104139e-09
9.09305183129e-10
-9.96165096005e-11
1.68476514978e-09
8.89860358357e-10
-8.29087918658e-11
1.53393137307e-09
8.6450945182e-10
-4.78538858851e-11
1.35655518391e-09
8.33171067854e-10
1.15627788993e-09
7.15157157548e-13
7.92088861613e-10
9.92764110492e-13
-5.78692746485e-12
1.58921517518e-10
2.56282943964e-15
1.51927270252e-12
-6.68930669091e-12
1.75529512575e-10
1.78335104199e-12
-7.79582987355e-12
1.91060969867e-10
1.7637480856e-12
-8.80730620247e-12
2.04909230406e-10
1.48722152971e-12
-9.66283055162e-12
2.16430619013e-10
9.9751591546e-13
-1.03116083353e-11
2.25095268565e-10
3.647911581e-13
-1.07224165436e-11
2.30558043545e-10
-3.20889921541e-13
-1.08687469364e-11
2.32525688423e-10
-9.55373048548e-13
-1.07276622947e-11
2.30559631031e-10
-1.44813682549e-12
-1.03205688686e-11
2.25098451076e-10
-1.72766853044e-12
-9.67316776452e-12
2.1643543133e-10
-1.74911850346e-12
-8.81811630834e-12
2.04915802575e-10
-1.49032728294e-12
-7.81121985835e-12
1.91069695577e-10
-9.68731083307e-13
-6.70201167523e-12
1.75541859841e-10
-5.79609996604e-12
1.58942202135e-10
1.96400873403e-14
2.42371229736e-12
2.24135856913e-12
4.39262792638e-10
6.19235817238e-15
3.90305462315e-12
2.18110765725e-12
4.85138812402e-10
4.63302978243e-12
1.64798869606e-12
5.27921838387e-10
4.61115720283e-12
1.17501600696e-12
5.65950310236e-10
3.89760525495e-12
8.05762237977e-13
5.9751157401e-10
2.61869325732e-12
5.46971334886e-13
6.21204314114e-10
9.63487007738e-13
3.91095455104e-13
6.36117391191e-10
-8.28906580489e-13
3.35927164984e-13
6.41473575383e-10
-2.48871792762e-12
3.79124927228e-13
6.36122036055e-10
-3.77583958437e-12
5.25655168509e-13
6.21213615306e-10
-4.49859981629e-12
7.79431378994e-13
5.97525620927e-10
-4.52949363595e-12
1.14614465481e-12
5.65969453217e-10
-3.81403797865e-12
1.6127803145e-12
5.27947184467e-10
-2.35144721022e-12
2.14902276441e-12
4.85174389205e-10
2.21923068302e-12
4.3931895867e-10
5.95824042445e-14
3.48612473243e-12
2.80026203777e-11
6.81818226817e-10
7.9052077451e-15
5.77519113965e-12
3.09264865106e-11
7.53996761456e-10
6.91463906226e-12
3.31418955468e-11
8.2118223687e-10
6.90938909833e-12
3.51874190766e-11
8.80793367824e-10
5.84979173042e-12
3.69848039339e-11
9.3019647196e-10
3.93450078837e-12
3.83969062488e-11
9.67242339862e-10
1.45395604883e-12
3.93085344733e-11
9.90528068937e-10
-1.23037644906e-12
3.96341514096e-11
9.98865630594e-10
-3.71783007e-12
3.92916126309e-11
9.90535448578e-10
-5.64563581533e-12
3.83662337298e-11
9.67257109792e-10
-6.72042753576e-12
3.69457905782e-11
9.3021874744e-10
-6.74259000218e-12
3.5143840942e-11
8.80823623238e-10
-5.62639407057e-12
3.30919889475e-11
8.21221992633e-10
-3.365031803e-12
3.08801873672e-11
7.54051560128e-10
2.79726188926e-11
6.81901938726e-10
9.98009279616e-14
4.37994397003e-12
6.71443141669e-11
8.90407063117e-10
9.22862781045e-15
7.40790230669e-12
7.45410622039e-11
9.86408763337e-10
8.94668158975e-12
8.1054375664e-11
1.07559862144e-09
8.97743501189e-12
8.70246544131e-11
1.15460171675e-09
7.61643854552e-12
9.21642519306e-11
1.21998979759e-09
5.12894588429e-12
9.61317249354e-11
1.26897123032e-09
1.9017868243e-12
9.86655611521e-11
1.29971617411e-09
-1.589434224e-12
9.95677283749e-11
1.31069027899e-09
-4.82550346159e-12
9.8645598932e-11
1.29972587658e-09
-7.32943938398e-12
9.60949533688e-11
1.26899063296e-09
-8.71172325603e-12
9.21161540007e-11
1.22001899967e-09
-8.70609495403e-12
8.69701566083e-11
1.15464118982e-09
-7.19950344206e-12
8.09947607591e-11
1.07564995325e-09
-4.20896361334e-12
7.44866572213e-11
9.86478049216e-10
6.71092327182e-11
8.90509630104e-10
1.41396082249e-13
5.25658632641e-12
1.15110383855e-10
1.06562043242e-09
1.04131616066e-14
9.02035283204e-12
1.27812330763e-10
1.18299585141e-09
1.09697148195e-11
1.39495165194e-10
1.29181056967e-09
1.10478581973e-11
1.50155571359e-10
1.38802829627e-09
9.39129165163e-12
1.59253776531e-10
1.46755384786e-09
6.33085103991e-12
1.66223762994e-10
1.52705904967e-09
2.35216432455e-12
1.70651315147e-10
1.56435402197e-09
-1.95164978114e-12
1.72223455379e-10
1.57762327959e-09
-5.94113116576e-12
1.7062973567e-10
1.56436569806e-09
-9.02182650227e-12
1.66183696379e-10
1.52708236125e-09
-1.07057182106e-11
1.59200688327e-10
1.46758880913e-09
-1.06607608068e-11
1.50095129209e-10
1.38807521768e-09
-8.75242993919e-12
1.39430697944e-10
1.29187077332e-09
-5.03510554302e-12
1.27755626442e-10
1.1830754038e-09
1.15073547458e-10
1.06573504493e-09
1.83916672642e-13
6.23986397866e-12
1.67179547037e-10
1.20808087478e-09
1.14550426646e-14
1.07995444086e-11
1.85377890582e-10
1.34439722531e-09
1.31958322969e-11
2.02416066085e-10
1.47046725074e-09
1.33272016108e-11
2.1788608463e-10
1.58172751045e-09
1.13466802128e-11