/*--------------------------------*- C++ -*----------------------------------*\
  =========                 |
  \\      /  F ield         | OpenFOAM: The Open Source CFD Toolbox
   \\    /   O peration     | Website:  https://openfoam.org
    \\  /    A nd           | Version:  7
     \\/     M anipulation  |
\*---------------------------------------------------------------------------*/
FoamFile
{
    version     2.0;
    format      ascii;
    class       volVectorField;
    location    "1.5";
    object      U;
}
// * * * * * * * * * * * * * * * * * * * * * * * * * * * * * * * * * * * * * //

dimensions      [0 1 -1 0 0 0 0];

internalField   nonuniform List<vector> 
22500
(
(8.35512893153e-06 9.4077238154e-06 0.000111454141764)
(7.74506596039e-06 1.06355572741e-05 0.000116928567746)
(6.76577349889e-06 1.18545777044e-05 0.000121873658301)
(5.67582521385e-06 1.28845723503e-05 0.000126130283698)
(4.40472707793e-06 1.3731872325e-05 0.000129575131926)
(3.01227768472e-06 1.43587833633e-05 0.000132108120186)
(1.53011310864e-06 1.47442949882e-05 0.000133658580759)
(1.45647473561e-09 1.48746050224e-05 0.000134183564291)
(-1.52723981018e-06 1.47445001519e-05 0.000133658548312)
(-3.00951449984e-06 1.43591797359e-05 0.000132108064533)
(-4.4021481214e-06 1.37324219578e-05 0.000129575064031)
(-5.67349475537e-06 1.28852352778e-05 0.00012613023371)
(-6.76379400006e-06 1.18552752687e-05 0.000121873755718)
(-7.74334864409e-06 1.0636354048e-05 0.000116929483457)
(-8.3539822814e-06 9.40849176664e-06 0.000111458819407)
(2.4484638447e-05 2.75509958916e-05 0.000299933319026)
(2.26646779545e-05 3.10714975606e-05 0.000312844831529)
(1.98661221762e-05 3.45412755279e-05 0.000324374197847)
(1.66546940311e-05 3.75025691477e-05 0.000334209173559)
(1.29343284632e-05 3.99410351602e-05 0.000342110169614)
(8.84657970317e-06 4.17479955151e-05 0.000347888263209)
(4.49391042552e-06 4.28605492086e-05 0.000351411754726)
(3.82831272656e-09 4.32365677832e-05 0.000352600634962)
(-4.48634642425e-06 4.28610336391e-05 0.000351411663137)
(-8.83928097664e-06 4.17489307746e-05 0.000347888100795)
(-1.29274670305e-05 3.99423348212e-05 0.00034210995991)
(-1.66484304483e-05 3.75041399836e-05 0.000334208995234)
(-1.98606652401e-05 3.45429513237e-05 0.000324374422395)
(-2.26599315172e-05 3.1073423677e-05 0.000312847394943)
(-2.44813990203e-05 2.7552913116e-05 0.000299944977971)
(3.74040801031e-05 4.19864928508e-05 0.000458606493779)
(3.44653391067e-05 4.71233144757e-05 0.000476378241926)
(3.01622158666e-05 5.21456058029e-05 0.000492079270168)
(2.52198471552e-05 5.64268015469e-05 0.000505368045085)
(1.95523406473e-05 5.99398709627e-05 0.000515976395836)
(1.33545097939e-05 6.25376285835e-05 0.000523698198804)
(6.77809535042e-06 6.41347702253e-05 0.000528391550895)
(5.79802069385e-09 6.4674112463e-05 0.000529970868546)
(-6.76662678416e-06 6.41353969197e-05 0.00052839134423)
(-1.33434121834e-05 6.25388367978e-05 0.000523697813312)
(-1.95418534279e-05 5.99415504793e-05 0.000515975857141)
(-2.52101944895e-05 5.64288238778e-05 0.000505367455731)
(-3.01536760565e-05 5.2147781887e-05 0.000492079138542)
(-3.44578626191e-05 4.71258416215e-05 0.000476381274402)
(-3.73988422809e-05 4.19891162229e-05 0.000458622091227)
(4.77271727922e-05 5.34428322117e-05 0.00059239808764)
(4.37838316527e-05 5.96653371647e-05 0.000613109373933)
(3.82326997581e-05 6.57146671264e-05 0.000631203347633)
(3.18803336511e-05 7.08518530367e-05 0.000646393455922)
(2.46677375357e-05 7.505205644e-05 0.000658441514708)
(1.68229230383e-05 7.81496702247e-05 0.000667169358961)
(8.53061137906e-06 8.00507903132e-05 0.000672456490841)
(7.36504601183e-09 8.06921525931e-05 0.000674231217766)
(-8.51603366092e-06 8.00515291499e-05 0.000672456079584)
(-1.68087932679e-05 7.81510940928e-05 0.000667168562227)
(-2.4654344061e-05 7.50540417254e-05 0.000658440342044)
(-3.18679391501e-05 7.08542458425e-05 0.000646391989388)
(-3.82216145373e-05 6.57172636065e-05 0.000631202092019)
(-4.37740488419e-05 5.966835954e-05 0.00061311128691)
(-4.77200837122e-05 5.34460375258e-05 0.000592413780147)
(5.59118455528e-05 6.24752312365e-05 0.000705212702721)
(5.10830117464e-05 6.93651991212e-05 0.000727417927209)
(4.44979422653e-05 7.60343830623e-05 0.000746583100255)
(3.70046149415e-05 8.16724754575e-05 0.000762531256762)
(2.85761323186e-05 8.62646857741e-05 0.000775092967113)
(1.9458981075e-05 8.96421240182e-05 0.000784146047826)
(9.85826828985e-06 9.17111741156e-05 0.000789610642069)
(8.62474772454e-09 9.24085040684e-05 0.000791440520322)
(-9.84119044796e-06 9.17120200564e-05 0.000789609955665)
(-1.94424100733e-05 8.96437557421e-05 0.000784144685871)
(-2.85603926274e-05 8.62669707019e-05 0.000775090896306)
(-3.69899947995e-05 8.16752420183e-05 0.000762528478528)
(-4.44847541467e-05 7.60374082978e-05 0.000746579971387)
(-5.10712804855e-05 6.93687190537e-05 0.000727417332399)
(-5.59030534697e-05 6.24790048338e-05 0.000705225631147)
(6.21948990822e-05 6.9360306582e-05 0.000800212794879)
(5.65993550115e-05 7.65603768332e-05 0.000822823022467)
(4.91733324906e-05 8.35049474011e-05 0.000842079478109)
(4.07816439557e-05 8.9347230465e-05 0.000857947508124)
(3.14293243044e-05 9.40860841697e-05 0.000870350315975)
(2.13692599001e-05 9.75615384307e-05 0.00087923779467)
(1.08160891277e-05 9.96865584411e-05 0.000884581345502)
(9.65644181123e-09 0.000100402063048 0.000886366272936)
(-1.0796962735e-05 9.96875190843e-05 0.000884580341606)
(-2.13506859739e-05 9.75633949458e-05 0.000879235768128)
(-3.14116537438e-05 9.40886973008e-05 0.000870347159101)
(-4.07651819063e-05 8.93504141231e-05 0.000857943077467)
(-4.91583731136e-05 8.35084631146e-05 0.000842073863533)
(-5.65859381139e-05 7.65644565897e-05 0.000822818893939)
(-6.21845497035e-05 6.93647087453e-05 0.000800221326608)
(6.67719616549e-05 7.43183716029e-05 0.000880018492864)
(6.05265936464e-05 8.15242610308e-05 0.000902222085844)
(5.24376176202e-05 8.84523995563e-05 0.000920854863853)
(4.33684733693e-05 9.42506496995e-05 0.000936040870296)
(3.33538323882e-05 9.89327244699e-05 0.000947808005328)
(2.26427512875e-05 0.000102356637499 0.00095618541714)
(1.14500596367e-05 0.000104446045295 0.000961199982801)
(1.05299024286e-08 0.000105148909016 0.000962870594703)
(-1.14291985446e-05 0.00010444714128 0.00096119864796)
(-2.26224791313e-05 0.000102358760473 0.000956182684774)
(-3.33345199976e-05 9.89357305076e-05 0.000947803662246)
(-4.33504364566e-05 9.42543380381e-05 0.000936034571079)
(-5.24211242441e-05 8.8456517439e-05 0.000920846352168)
(-6.05116847309e-05 8.15290166711e-05 0.00090221381549)
(-6.67601802351e-05 7.43235101531e-05 0.000880021858454)
(6.98356278345e-05 7.75669593178e-05 0.000946839600651)
(6.3053749824e-05 8.4526193262e-05 0.000968045966765)
(5.44657742896e-05 9.11959480942e-05 0.000985550602111)
(4.49186433695e-05 9.67472742318e-05 0.000999640351461)
(3.44732939724e-05 0.000101208568143 0.00101045029671)
(2.33663455934e-05 0.000104461690119 0.00101808902493)
(1.18050431226e-05 0.000106443062254 0.00102263818484)
(1.13066359101e-08 0.000107109019884 0.00102414931662)
(-1.17826387578e-05 0.000106444320889 0.00102263653903)
(-2.33445597098e-05 0.000104464135996 0.00101808561522)
(-3.44525130214e-05 0.000101212052854 0.00101044477944)
(-4.48991913067e-05 9.67515829349e-05 0.000999632137685)
(-5.44478908224e-05 9.12008101309e-05 0.000985539052994)
(-6.30374811814e-05 8.45317797926e-05 0.0009680334146)
(-6.98225212857e-05 7.75729746176e-05 0.000946837736941)
(7.15669429615e-05 7.93114478413e-05 0.00100256417843)
(6.43568007518e-05 8.58181936533e-05 0.00102236136558)
(5.5420541268e-05 9.2031912987e-05 0.00103840313561)
(4.55749384897e-05 9.7173349634e-05 0.00105113373205)
(3.49026489213e-05 0.000101284815257 0.00106079001538)
(2.36207394977e-05 0.000104274777627 0.00106755455188)
(1.19226661199e-05 0.000106092663827 0.00107155923153)
(1.20420392124e-08 0.000106703243951 0.0010728850775)
(-1.18987989113e-05 0.000106094113797 0.00107155733829)
(-2.35975143787e-05 0.000104277605831 0.0010675505864)
(-3.48804651798e-05 0.000101288870195 0.00106078349059)
(-4.55541291621e-05 9.71784023844e-05 0.00105112379507)
(-5.54013242667e-05 9.20376718761e-05 0.00103838876717)
(-6.43392409781e-05 8.58247769695e-05 0.00102234493008)
(-7.15525929324e-05 7.93184965576e-05 0.00100255769478)
(7.21322448918e-05 7.97411042558e-05 0.00104881721137)
(6.45959426567e-05 8.56293415545e-05 0.00106693786466)
(5.54499635864e-05 9.12271379297e-05 0.00108131998842)
(4.54675164349e-05 9.58299318067e-05 0.00109255171021)
(3.47466996786e-05 9.94928955251e-05 0.00110095948052)
(2.3479398274e-05 0.000102150662262 0.00110678976588)
(1.18407657183e-05 0.000103764262641 0.00111021722649)
(1.27852514058e-08 0.000104305971756 0.00111134759352)
(-1.18154175132e-05 0.000103765926217 0.00111021521038)
(-2.34547089828e-05 0.000102153919786 0.00110678549815)
(-3.47230806168e-05 9.94975962567e-05 0.00110095233598)
(-4.54453131165e-05 9.58358350272e-05 0.0010925405762)
(-5.54293857859e-05 9.12339288936e-05 0.00108130349544)
(-6.4577094486e-05 8.5637074623e-05 0.00106691859274)
(-7.21166915384e-05 7.97493383375e-05 0.00104880746036)
(7.16842963051e-05 7.90314317851e-05 0.00108699629501)
(6.39170165582e-05 8.41666512541e-05 0.00110328907537)
(5.46892676234e-05 8.90196821541e-05 0.00111592787436)
(4.47157206535e-05 9.29845926601e-05 0.00112562235477)
(3.41013809671e-05 9.61270684975e-05 0.00113277006774)
(2.30092498125e-05 9.84038491932e-05 0.00113766759819)
(1.15936773797e-05 9.97848462164e-05 0.00114052276128)
(1.35773136618e-08 0.000100248386059 0.0011414601249)
(-1.15667473509e-05 9.9786730745e-05 0.00114052083224)
(-2.29829874682e-05 9.84075547661e-05 0.00113766346772)
(-3.40762088614e-05 9.61324513177e-05 0.00113276300455)
(-4.46920038522e-05 9.29914075665e-05 0.00112561101839)
(-5.46672270594e-05 8.90275925948e-05 0.00111591058618)
(-6.38968187306e-05 8.41756440071e-05 0.00110326881313)
(-7.1667523706e-05 7.90409658828e-05 0.00108698554318)
(7.03619375996e-05 7.73451752706e-05 0.00111828722118)
(6.24532969547e-05 8.16137330328e-05 0.00113269399249)
(5.32641773309e-05 8.56188068972e-05 0.00114360164938)
(4.34306625845e-05 8.88738760422e-05 0.00115180593991)
(3.30550088363e-05 9.14480572729e-05 0.00115775134833)
(2.22710713074e-05 9.33124413025e-05 0.00116176837864)
(1.12122945967e-05 9.4442743388e-05 0.00116408706776)
(1.44481373162e-08 9.48221651981e-05 0.00116484428452)
(-1.1183621367e-05 9.44448332324e-05 0.00116408554779)
(-2.22430649426e-05 9.33165668621e-05 0.00116176507175)
(-3.30281028298e-05 9.14540927362e-05 0.00115774549001)
(-4.34052499034e-05 8.88815851829e-05 0.00115179603236)
(-5.32405143825e-05 8.56278418036e-05 0.00114358572846)
(-6.24316372564e-05 8.16240137373e-05 0.00113267553583)
(-7.03438663317e-05 7.73560573943e-05 0.00111827884333)
(6.82872574059e-05 7.48191858784e-05 0.00114365832081)
(6.03330510487e-05 7.81225329752e-05 0.00115620482007)
(5.12986194256e-05 8.12073763662e-05 0.00116548259652)
(4.17184751141e-05 8.37097962173e-05 0.00117231819783)
(3.16885279706e-05 8.56901811572e-05 0.00117717747977)
(2.13188340171e-05 8.7124574939e-05 0.00118040857538)
(1.07235669063e-05 8.79934602239e-05 0.00118225227091)
(1.5412987377e-08 8.82851307702e-05 0.00118285081151)
(-1.06929601586e-05 8.79957074749e-05 0.00118225160863)
(-2.12888840197e-05 8.71290301842e-05 0.00118040706344)
(-3.16596764001e-05 8.56967477413e-05 0.0011771744594)
(-4.16911523417e-05 8.37182700141e-05 0.00117231216344)
(-5.12731449542e-05 8.1217420191e-05 0.00116547128624)
(-6.03097922347e-05 7.81340148284e-05 0.00115619200569)
(-6.82677950384e-05 7.48313226563e-05 0.00114365657095)
(6.55986930238e-05 7.15530380665e-05 0.00116382761678)
(5.77161343377e-05 7.38503945994e-05 0.00117465803532)
(4.89269723418e-05 7.59645054524e-05 0.00118249870631)
(3.96774326178e-05 7.77024457296e-05 0.00118814948912)
(3.00702040584e-05 7.90777983086e-05 0.00119208661133)
(2.01957350707e-05 8.00708511207e-05 0.0011946611366)
(1.01485840849e-05 8.06703182333e-05 0.00119611251988)
(1.64663276421e-08 8.08713900012e-05 0.00119658098045)
(-1.01158639785e-05 8.06726410725e-05 0.00119611326081)
(-2.01636553862e-05 8.00754756606e-05 0.00119466261996)
(-3.0039211026e-05 7.90846656842e-05 0.00119208852089)
(-3.96479984367e-05 7.77114125614e-05 0.00118815065886)
(-4.88995046827e-05 7.5975296812e-05 0.00118249668212)
(-5.76911432033e-05 7.38628490093e-05 0.00117465598021)
(-6.55776836611e-05 7.15662668421e-05 0.0011638370376)
(6.25002921243e-05 6.79749365248e-05 0.0011792279145)
(5.48027122479e-05 6.87913253507e-05 0.00118877776568)
(4.62290902652e-05 6.99891198407e-05 0.0011954066652)
(3.73570755817e-05 7.09646268893e-05 0.00120008917682)
(2.82318265605e-05 7.17260933437e-05 0.00120330047905)
(1.89226051103e-05 7.22675622899e-05 0.00120537368037)
(9.49801823022e-06 7.25911268111e-05 0.00120653167049)
(1.75816089676e-08 7.26994323852e-05 0.00120690408562)
(-9.46306179928e-06 7.2593382432e-05 0.00120653424667)
(-1.88882727562e-05 7.22720698176e-05 0.00120537912885)
(-2.81985615079e-05 7.17328339017e-05 0.00120330910377)
(-3.73253778149e-05 7.09735385786e-05 0.00120010078055)
(-4.61994663316e-05 7.00000294213e-05 0.00119541908026)
(-5.47759647918e-05 6.8804217224e-05 0.00118879539594)
(-6.24774212231e-05 6.79887232519e-05 0.00117924790108)
(1.54080651738e-07 2.54605873731e-07 8.01092130889e-05)
(8.95610079026e-08 3.34818494408e-07 8.39783078421e-05)
(5.83481959274e-08 3.80323711539e-07 8.74245061415e-05)
(3.38647145202e-08 4.12278124724e-07 9.03704919095e-05)
(1.69482808328e-08 4.33375680144e-07 9.27456300924e-05)
(7.04837496187e-09 4.46278082642e-07 9.44879886817e-05)
(2.3785566917e-09 4.53131730121e-07 9.55535165663e-05)
(6.63868353304e-10 4.55323665377e-07 9.59147246147e-05)
(-1.03661250804e-09 4.53267328462e-07 9.55535654055e-05)
(-5.66370849898e-09 4.46546505976e-07 9.44881052178e-05)
(-1.55186043739e-08 4.3376066714e-07 9.27458541276e-05)
(-3.24633396512e-08 4.12746319878e-07 9.03709116046e-05)
(-5.7099979344e-08 3.80848057221e-07 8.74253564036e-05)
(-8.85181821629e-08 3.35355588006e-07 8.39804056893e-05)
(-1.53428457897e-07 2.5512309629e-07 8.01152938245e-05)
(1.40143590086e-06 1.73903042963e-06 0.000232867159555)
(1.19396585106e-06 2.1339066709e-06 0.000243602883046)
(1.02436346774e-06 2.45625852504e-06 0.000253132962864)
(8.42136765457e-07 2.72839527899e-06 0.000261253844665)
(6.45230883189e-07 2.9445170867e-06 0.000267784098053)
(4.37320834868e-07 3.10131503139e-06 0.000272566417204)
(2.21608158532e-07 3.19651335197e-06 0.000275487040159)
(2.1653576286e-09 3.22862725928e-06 0.000276474072114)
(-2.17256739087e-07 3.19689919253e-06 0.00027548718296)
(-4.32912789922e-07 3.10206863403e-06 0.000272566758036)
(-6.4078982777e-07 2.9455865249e-06 0.000267784757643)
(-8.37837542409e-07 2.72969683968e-06 0.000261255087812)
(-1.02052320511e-06 2.45771834487e-06 0.00025313548685)
(-1.19076134639e-06 2.13544775151e-06 0.00024360908285)
(-1.39936520658e-06 1.74056496625e-06 0.0002328835867)
(3.40339898501e-06 4.00389002272e-06 0.000378084157158)
(3.0266606758e-06 4.81711510333e-06 0.000394938190523)
(2.65420254544e-06 5.53232309261e-06 0.000409841457731)
(2.2216542056e-06 6.15354498836e-06 0.00042250208483)
(1.72725948445e-06 6.65858701441e-06 0.000432656934411)
(1.18285869256e-06 7.031303023e-06 0.000440080149768)
(6.02511193577e-07 7.26011541737e-06 0.000444607175526)
(3.73178196561e-09 7.33758139554e-06 0.000446133882488)
(-5.95037116381e-07 7.2607239284e-06 0.000444607343985)
(-1.17536358162e-06 7.03248158786e-06 0.000440080573983)
(-1.71980775389e-06 6.66024466091e-06 0.000432657806098)
(-2.21448498293e-06 6.15555244355e-06 0.000422503820453)
(-2.64775622106e-06 5.53456859422e-06 0.000409845118843)
(-3.02124718472e-06 4.81955834705e-06 0.000394947332091)
(-3.39977776377e-06 4.00641265341e-06 0.000378108237115)
(5.87469609766e-06 6.73749497612e-06 0.000515720425159)
(5.30196157479e-06 8.00777690899e-06 0.000537898896285)
(4.68195554102e-06 9.15390730787e-06 0.000557410828172)
(3.93793850928e-06 1.01603037328e-05 0.000573922613881)
(3.07290425336e-06 1.09849107617e-05 0.000587123622287)
(2.10951586295e-06 1.15965876816e-05 0.00059675036147)
(1.07564505061e-06 1.19732615279e-05 0.000602610670821)
(5.32256857744e-09 1.21008650169e-05 0.000604583367447)
(-1.06501231698e-06 1.19740669876e-05 0.000602610751305)
(-2.09893529055e-06 1.15981469022e-05 0.000596750632939)
(-3.06249558017e-06 1.09871084995e-05 0.000587124325012)
(-3.92799287831e-06 1.01629844508e-05 0.00057392426413)
(-4.67298350752e-06 9.15692240699e-06 0.000557414707379)
(-5.29437552905e-06 8.01112616455e-06 0.000537909257329)
(-5.86944004888e-06 6.7410274055e-06 0.00051574854504)
(8.57297311872e-06 9.67481330615e-06 0.000645389268786)
(7.78373979666e-06 1.13928129407e-05 0.000672020917666)
(6.89084880841e-06 1.29534973767e-05 0.000695299446567)
(5.80270814811e-06 1.43299737125e-05 0.000714902621498)
(4.5313844684e-06 1.54607065598e-05 0.000730511370356)
(3.1118646944e-06 1.63006254986e-05 0.00074185873369)
(1.58672650527e-06 1.6818201332e-05 0.000748751022274)
(6.89077856579e-09 1.69935009367e-05 0.000751066919958)
(-1.5729868845e-06 1.68191850234e-05 0.000748750909508)
(-3.09826909576e-06 1.63025336112e-05 0.000741858631339)
(-4.51811338126e-06 1.5463411687e-05 0.000730511532821)
(-5.79009798833e-06 1.4333304972e-05 0.000714903591244)
(-6.87944614359e-06 1.29572752782e-05 0.000695302562546)
(-7.77401422397e-06 1.1397054485e-05 0.000672030820261)
(-8.56600786584e-06 9.6793447355e-06 0.000645418382458)
(1.13241305534e-05 1.26310211394e-05 0.000766609526616)
(1.03046439484e-05 1.4754933108e-05 0.000796761283018)
(9.12758992028e-06 1.66789416153e-05 0.00082290998764)
(7.6837243534e-06 1.83777336165e-05 0.000844799613485)
(5.99746614821e-06 1.97731280143e-05 0.000862142987277)
(4.11668609335e-06 2.08092191437e-05 0.000874703731044)
(2.09817272172e-06 2.14473927331e-05 0.000882312506361)
(8.40449484229e-09 2.1663417535e-05 0.000884864403592)
(-2.08143773042e-06 2.14485383462e-05 0.000882312143054)
(-4.10019224571e-06 2.08114466822e-05 0.000874703120184)
(-5.98145275391e-06 1.97763053155e-05 0.000862142354058)
(-7.66856449909e-06 1.83816804234e-05 0.000844799441075)
(-9.11384674377e-06 1.66834559501e-05 0.000822911518074)
(-1.02928072909e-05 1.47600355242e-05 0.000796769361928)
(-1.13153922926e-05 1.26365070724e-05 0.000766637540014)
(1.39891442199e-05 1.5462029591e-05 0.000878960157866)
(1.27326341683e-05 1.79254475589e-05 0.000911674470502)
(1.12717121377e-05 2.01375611016e-05 0.000939784662112)
(9.47786644265e-06 2.20886407784e-05 0.000963153188835)
(7.38970235229e-06 2.36883998031e-05 0.000981561795377)
(5.0676597541e-06 2.48743913366e-05 0.000994834850146)
(2.58119071115e-06 2.5604056203e-05 0.00100284998506)
(9.84277071175e-09 2.58508619381e-05 0.00100553289577)
(-2.56160999675e-06 2.56053461841e-05 0.0010028493785)
(-5.04841180088e-06 2.48769070383e-05 0.000994833724582)
(-7.37107881009e-06 2.36920093634e-05 0.000981560300044)
(-9.46026941259e-06 2.20931598946e-05 0.000963151661136)
(-1.12557068719e-05 2.01427687344e-05 0.000939784116895)
(-1.27187170421e-05 1.79313670296e-05 0.000911679888484)
(-1.39785770818e-05 1.54684044763e-05 0.000878985835763)
(1.64561321885e-05 1.80537033783e-05 0.000982158994924)
(1.49629450811e-05 2.07721573757e-05 0.00101649542557)
(1.32284986414e-05 2.318200101e-05 0.00104569108826)
(1.11049901809e-05 2.53015485614e-05 0.00106977198861)
(8.64548450201e-06 2.70340724615e-05 0.00108861832438)
(5.92188008112e-06 2.83153834627e-05 0.00110213832949)
(3.01397490065e-06 2.9102382919e-05 0.00111027365783)
(1.11952483607e-08 2.93683387255e-05 0.00111299110828)
(-2.99171626114e-06 2.91037988321e-05 0.00111027290572)
(-5.90003389929e-06 2.83181537502e-05 0.00110213686523)
(-8.62438585878e-06 2.70380696067e-05 0.0010886161772)
(-1.10850638791e-05 2.53065887184e-05 0.00106976927118)
(-1.32103009852e-05 2.31878491342e-05 0.00104568848642)
(-1.49469765757e-05 2.07788345149e-05 0.00101649806282)
(-1.64437035129e-05 1.80609013183e-05 0.000982182018225)
(1.8638842935e-05 2.0319565609e-05 0.00107609057701)
(1.69161463295e-05 2.31966346899e-05 0.00111116309641)
(1.4927111688e-05 2.57062919155e-05 0.00114064051959)
(1.25060876246e-05 2.79039733111e-05 0.00116474582606)
(9.71941377199e-06 2.96927982322e-05 0.00118347613453)
(6.64862673406e-06 3.10115747682e-05 0.00119683743755)
(3.38104162757e-06 3.18199035794e-05 0.00120484558616)
(1.24573896887e-08 3.20927867311e-05 0.00120751460538)
(-3.35628023543e-06 3.18214234215e-05 0.00120484490313)
(-6.62434093183e-06 3.10145584604e-05 0.00119683604976)
(-9.69597199115e-06 2.96971276728e-05 0.00118347391651)
(-1.24839316163e-05 2.79094695578e-05 0.00116474260042)
(-1.49067856359e-05 2.57127138222e-05 0.00114063656652)
(-1.68981537937e-05 2.32039958581e-05 0.00111116373811)
(-1.86245353805e-05 2.03275125436e-05 0.00107611167235)
(2.04746128511e-05 2.21981441251e-05 0.00116079944951)
(1.85358002058e-05 2.5130884418e-05 0.00119580557018)
(1.63182370936e-05 2.76409478735e-05 0.00122486515836)
(1.36409781154e-05 2.9825738579e-05 0.00124841460942)
(1.05812786271e-05 3.15946762543e-05 0.00126657237385)
(7.22784986473e-06 3.28938126999e-05 0.00127944595086)
(3.67241436996e-06 3.36881682165e-05 0.00128712848524)
(1.36273817785e-08 3.39560343104e-05 0.00128968297368)
(-3.64532842228e-06 3.36897639933e-05 0.00128712823013)
(-7.20128431158e-06 3.28969564889e-05 0.00127944535357)
(-1.05556251281e-05 3.15992646003e-05 0.00126657113669)
(-1.36166898545e-05 2.98316043624e-05 0.0012484122178)
(-1.62958457868e-05 2.76478530632e-05 0.00122486142587)
(-1.85158180117e-05 2.51388365796e-05 0.0011958060974)
(-2.04584189738e-05 2.22067515448e-05 0.00116082057547)
(2.19218239429e-05 2.36500851967e-05 0.0012364580773)
(1.978577523e-05 2.65334838698e-05 0.0012707004613)
(1.7371449968e-05 2.8947383421e-05 0.0012987725592)
(1.44858355256e-05 3.10319211617e-05 0.0013213149504)
(1.12139278064e-05 3.27089507235e-05 0.001338555917)
(7.64858818844e-06 3.39351461739e-05 0.00135069907722)
(3.88277376174e-06 3.46828521296e-05 0.00135791192802)
(1.47013136261e-08 3.49346884135e-05 0.00136030440096)
(-3.85354925246e-06 3.46844864932e-05 0.00135791262761)
(-7.61991050192e-06 3.39383786056e-05 0.00135070033774)
(-1.11862011456e-05 3.27136981528e-05 0.00133855727999)
(-1.44595196201e-05 3.10380381612e-05 0.00132131554154)
(-1.73470660217e-05 2.89546469605e-05 0.00129877166152)
(-1.97638498885e-05 2.65419044557e-05 0.00127070402459)
(-2.19037506197e-05 2.36592391353e-05 0.00123648264916)
(2.29563186163e-05 2.46540750038e-05 0.0013033124753)
(2.06469428065e-05 2.73843581144e-05 0.0013362210841)
(1.80724619638e-05 2.96113654714e-05 0.00136289195029)
(1.50308693349e-05 3.15154220672e-05 0.00138411994518)
(1.16113458642e-05 3.3035858243e-05 0.00140021855324)
(7.90754958832e-06 3.4142070771e-05 0.00141147743966)
(4.01069638016e-06 3.48145875737e-05 0.00141813177554)
(1.56706095685e-08 3.50408150974e-05 0.00142033356266)
(-3.97953711817e-06 3.48162139821e-05 0.00141813413372)
(-7.87694757962e-06 3.41452999506e-05 0.00141148200722)
(-1.15817082354e-05 3.30406348701e-05 0.00140022477221)
(-1.50026557666e-05 3.15216323911e-05 0.00138412660279)
(-1.80461841322e-05 2.96188185367e-05 0.00136289770053)
(-2.0623148553e-05 2.73930784273e-05 0.00133623218444)
(-2.29363903951e-05 2.46636242117e-05 0.00130334549996)
(2.35668286534e-05 2.51985410173e-05 0.00136160213331)
(2.11148857356e-05 2.76768787655e-05 0.00139278457107)
(1.8422123728e-05 2.96366033957e-05 0.00141783047784)
(1.52794555118e-05 3.1290365927e-05 0.0014375854242)
(1.17777011581e-05 3.25999128566e-05 0.00145242990762)
(8.0082964027e-06 3.35475633259e-05 0.00146273395241)
(4.05818647417e-06 3.4121769517e-05 0.0014687924462)
(1.65215239683e-08 3.43146657398e-05 0.00147079238643)
(-4.02532671161e-06 3.41233331766e-05 0.00146879731598)
(-7.97599306329e-06 3.35506820881e-05 0.00146274361442)
(-1.17463555909e-05 3.26045617894e-05 0.00145244385237)
(-1.5249520826e-05 3.12964764106e-05 0.00143760223019)
(-1.83941002088e-05 2.96440331998e-05 0.00141784802719)
(-2.10893456086e-05 2.76856876023e-05 0.00139280896872)
(-2.35451271486e-05 2.52082749731e-05 0.00136164964444)
(2.37660474843e-05 2.52786177308e-05 0.00141144353683)
(2.12096772403e-05 2.74456376579e-05 0.0014408515652)
(1.8442887695e-05 2.90586794995e-05 0.00146426649743)
(1.52502226279e-05 3.04010842011e-05 0.00148251258823)
(1.17277409535e-05 3.14539630406e-05 0.00149608202846)
(7.9610037285e-06 3.22111211832e-05 0.00150542902391)
(4.03041862842e-06 3.26680456568e-05 0.00151089744938)
(1.72360626878e-08 3.28212890083e-05 0.00151269911784)
(-3.99612895598e-06 3.26694908399e-05 0.00151090572646)
(-7.92726616946e-06 3.22140167361e-05 0.00150544569636)
(-1.16949451792e-05 3.14583148633e-05 0.00149610691583)
(-1.52188076131e-05 3.04068762388e-05 0.00148254447067)
(-1.84133347231e-05 2.90658446701e-05 0.00146430253659)
(-2.11825741126e-05 2.74542894464e-05 0.00144089633797)
(-2.37426641632e-05 2.52883371768e-05 0.0014115114502)
(2.35734934926e-05 2.5231705837e-05 0.00145279240713)
(2.09647594739e-05 2.68262162463e-05 0.00148121938053)
(1.81538803197e-05 2.79816452932e-05 0.00150300549018)
(1.4959214065e-05 2.89314095858e-05 0.00151972682912)
(1.14748199894e-05 2.96648081745e-05 0.00153204385548)
(7.77515899502e-06 3.01869421165e-05 0.0015404760897)
(3.93230191839e-06 3.04998761887e-05 0.00154539107045)
(1.77981133432e-08 3.06045327882e-05 0.00154700878901)
(-3.89688918118e-06 3.05011275175e-05 0.00154540334163)
(-7.7402957867e-06 3.01894616719e-05 0.00154050105951)
(-1.14408832477e-05 2.96686281396e-05 0.00153208201302)
(-1.4926618312e-05 2.89365656796e-05 0.00151977796838)
(-1.81230722533e-05 2.79881449013e-05 0.00150306668065)
(-2.09364075336e-05 2.68343057762e-05 0.00148129605098)
(-2.35484646431e-05 2.52409421559e-05 0.00145287907285)
(-4.43044191123e-08 -8.07668809356e-08 5.84166855362e-05)
(-2.04236938906e-08 -1.11339429523e-07 6.12154406382e-05)
(-5.80677342448e-09 -1.30083622157e-07 6.3679866722e-05)
(5.20245319461e-09 -1.42218298537e-07 6.5777570109e-05)
(1.03684492463e-08 -1.48818284246e-07 6.74634874154e-05)
(1.05664180846e-08 -1.51916812886e-07 6.86980099412e-05)
(6.74290779687e-09 -1.53050664802e-07 6.94523524141e-05)
(6.51338663942e-10 -1.53269376878e-07 6.97083359172e-05)
(-5.46572284534e-09 -1.52953298454e-07 6.94528066824e-05)
(-9.36251099062e-09 -1.51723472172e-07 6.86989302073e-05)
(-9.26498521317e-09 -1.48528374725e-07 6.74649047162e-05)
(-4.16229025435e-09 -1.41825777607e-07 6.57795704353e-05)
(6.75006853107e-09 -1.29655599469e-07 6.36826767231e-05)
(2.1215475856e-08 -1.10869785061e-07 6.12197455496e-05)
(4.48748738701e-08 -8.03447445521e-08 5.84246129507e-05)
(-1.01271992323e-08 -8.58833917209e-08 0.000175783879746)
(4.75972359357e-08 -1.35228215553e-07 0.000184096184344)
(7.92255182969e-08 -1.58706363308e-07 0.000191428202163)
(9.53352259037e-08 -1.66634208592e-07 0.000197665414683)
(9.24768601726e-08 -1.63485209848e-07 0.000202676099243)
(7.320276779e-08 -1.55868707434e-07 0.000206344621551)
(4.1141372676e-08 -1.48903759561e-07 0.000208585288006)
(1.9947714708e-09 -1.46064967005e-07 0.000209343261199)
(-3.72161065428e-08 -1.48625070526e-07 0.000208586647563)
(-6.94630111318e-08 -1.55314826764e-07 0.000206347379282)
(-8.90013730227e-08 -1.62660156183e-07 0.000202680356259)
(-9.21003661941e-08 -1.65541992318e-07 0.000197671435886)
(-7.63062047854e-08 -1.5749111661e-07 0.000191436665238)
(-4.51346399962e-08 -1.33892601953e-07 0.000184109104506)
(1.19197635459e-08 -8.46406530645e-08 0.000175806342219)
(1.59216314025e-07 7.55215409114e-08 0.000292537169648)
(2.37390042075e-07 4.88699545038e-08 0.000306245342811)
(2.71516772939e-07 5.57948140785e-08 0.000318335119277)
(2.74812851306e-07 8.25317845237e-08 0.000328611952413)
(2.4364075557e-07 1.1999097157e-07 0.00033686237553)
(1.82756893356e-07 1.56403644603e-07 0.000342900114882)
(9.92236765759e-08 1.82503203127e-07 0.000346585828718)
(3.31163223589e-09 1.92094645547e-07 0.000347830320067)
(-9.26920955283e-08 1.82931836602e-07 0.000346588037069)
(-1.76490547493e-07 1.5725776684e-07 0.00034290460091)
(-2.3776630737e-07 1.21267323363e-07 0.000336869312775)
(-2.69355304638e-07 8.42116933646e-08 0.000328621768737)
(-2.66597511007e-07 5.77049075359e-08 0.000318348857149)
(-2.33191143785e-07 5.09716434555e-08 0.000306266027224)
(-1.5610487146e-07 7.75602556362e-08 0.000292572148038)
(5.08372056789e-07 4.48809475409e-07 0.000408212491185)
(5.94459558477e-07 4.91965281087e-07 0.000427127311915)
(6.14210212744e-07 5.73343424639e-07 0.000443786724696)
(5.82368971866e-07 6.73504665026e-07 0.000457930744125)
(4.95627811874e-07 7.77254468572e-07 0.000469273577157)
(3.6184000727e-07 8.66340972363e-07 0.000477567590521)
(1.92767924615e-07 9.26330088059e-07 0.000482626823033)
(4.62382221345e-09 9.47665634693e-07 0.000484332675225)
(-1.836342473e-07 9.26907766662e-07 0.00048262977809)
(-3.5303728095e-07 8.6748957567e-07 0.000477573601771)
(-4.87331197089e-07 7.78962426604e-07 0.000469282885281)
(-5.74669301345e-07 6.75735357777e-07 0.000457943903881)
(-6.07283293926e-07 5.75917606758e-07 0.000443805020247)
(-5.88503814692e-07 4.94816733782e-07 0.000427154424682)
(-5.03871132251e-07 4.51651471739e-07 0.000408257243537)
(1.02004028554e-06 1.00887248106e-06 0.000522234039438)
(1.10214811808e-06 1.15798537316e-06 0.000546072326167)
(1.09163672445e-06 1.34815936221e-06 0.000567015423173)
(1.0042503647e-06 1.55162684785e-06 0.000584763100649)
(8.37340227667e-07 1.74599919594e-06 0.000598972831103)
(6.02671757956e-07 1.9057035447e-06 0.000609349971968)
(3.17767968288e-07 2.01056711772e-06 0.000615673372777)
(5.92633393324e-09 2.0473424949e-06 0.000617802852073)
(-3.06049309163e-07 2.01129044161e-06 0.000615676985424)
(-5.91344054164e-07 1.90713747612e-06 0.000609357325297)
(-8.2662570605e-07 1.74811910842e-06 0.000598984213744)
(-9.9430649109e-07 1.55437943016e-06 0.000584779136687)
(-1.08269386745e-06 1.35136685035e-06 0.000567037499239)
(-1.09442176075e-06 1.16157321406e-06 0.000546104536974)
(-1.01408332041e-06 1.01249506149e-06 0.000522286249409)