/*--------------------------------*- C++ -*----------------------------------*\
  =========                 |
  \\      /  F ield         | OpenFOAM: The Open Source CFD Toolbox
   \\    /   O peration     | Website:  https://openfoam.org
    \\  /    A nd           | Version:  7
     \\/     M anipulation  |
\*---------------------------------------------------------------------------*/
FoamFile
{
    version     2.0;
    format      ascii;
    class       volVectorField;
    location    "1.58";
    object      U;
}
// * * * * * * * * * * * * * * * * * * * * * * * * * * * * * * * * * * * * * //

dimensions      [0 1 -1 0 0 0 0];

internalField   nonuniform List<vector> 
22500
(
(-5.97117662882e-06 -6.6524129415e-06 -3.74455351186e-05)
(-5.61307105436e-06 -7.50645492506e-06 -3.94107367715e-05)
(-4.99703201582e-06 -8.3776370263e-06 -4.12831536568e-05)
(-4.24965588276e-06 -9.14795195002e-06 -4.29695730958e-05)
(-3.33397097893e-06 -9.79999839497e-06 -4.43794657142e-05)
(-2.29527294043e-06 -1.02927522835e-05 -4.54391116574e-05)
(-1.16681934735e-06 -1.05995776986e-05 -4.6096302485e-05)
(8.33145341767e-09 -1.07034024648e-05 -4.631917305e-05)
(1.18327842358e-06 -1.05979700725e-05 -4.60917797879e-05)
(2.31114276352e-06 -1.02896160987e-05 -4.5430081226e-05)
(3.34890097961e-06 -9.79549297823e-06 -4.43659472997e-05)
(4.263376777e-06 -9.14229987917e-06 -4.29515633557e-05)
(5.00921359314e-06 -8.37114656303e-06 -4.12605505464e-05)
(5.62392506619e-06 -7.49923407586e-06 -3.93830794063e-05)
(5.97951031841e-06 -6.64536608973e-06 -3.74116236002e-05)
(-1.7537245369e-05 -1.95183202931e-05 -0.000118195871884)
(-1.64364754619e-05 -2.19923754627e-05 -0.000124555807004)
(-1.46550641526e-05 -2.45012371142e-05 -0.000130632309593)
(-1.24518308929e-05 -2.67318392491e-05 -0.00013611079106)
(-9.77364227189e-06 -2.86188357885e-05 -0.00014069620347)
(-6.72960877276e-06 -3.0045798578e-05 -0.000144146940535)
(-3.42133533056e-06 -3.09350577466e-05 -0.000146288476329)
(2.46774613886e-08 -3.123586666e-05 -0.000147013242028)
(3.47008804139e-06 -3.09302034265e-05 -0.000146274513842)
(6.77660820095e-06 -3.00363574031e-05 -0.000144119076766)
(9.81783611315e-06 -2.86053312123e-05 -0.000140654522743)
(1.24923653616e-05 -2.67149734519e-05 -0.00013605531285)
(1.46910593716e-05 -2.44819752715e-05 -0.00013056276298)
(1.64679778792e-05 -2.19712252789e-05 -0.000124470891551)
(1.75614111722e-05 -1.94974189362e-05 -0.000118092796074)
(-2.74898873339e-05 -3.0500980593e-05 -0.000201941777903)
(-2.56429276289e-05 -3.42657651099e-05 -0.000212812867138)
(-2.28329088746e-05 -3.80495031201e-05 -0.000223192697213)
(-1.93608809316e-05 -4.14119639418e-05 -0.000232542064477)
(-1.51793701832e-05 -4.42477780497e-05 -0.000240362334335)
(-1.044224125e-05 -4.63890098478e-05 -0.000246245359246)
(-5.30550185146e-06 -4.77220695769e-05 -0.00024989485433)
(3.94149535501e-08 -4.81726789427e-05 -0.000251128150528)
(5.38341316343e-06 -4.77145320075e-05 -0.000249871228227)
(1.0517469689e-05 -4.63743380476e-05 -0.000246198230453)
(1.52502886268e-05 -4.42267611808e-05 -0.000240291884644)
(1.94261268937e-05 -4.13856992053e-05 -0.000232448407762)
(2.28911099908e-05 -3.80194603673e-05 -0.000223075547869)
(2.56937681836e-05 -3.42328488635e-05 -0.000212670393194)
(2.75293128677e-05 -3.04680792404e-05 -0.000201770024442)
(-3.5978907087e-05 -3.98071061698e-05 -0.000286607213483)
(-3.34153272201e-05 -4.45632689319e-05 -0.000301806948345)
(-2.96953144823e-05 -4.93066591777e-05 -0.000316282661469)
(-2.51226691355e-05 -5.35133324879e-05 -0.00032929483894)
(-1.96675524852e-05 -5.70499572902e-05 -0.000340161570865)
(-1.3514517276e-05 -5.97149928856e-05 -0.00034832686328)
(-6.86124049681e-06 -6.1371920644e-05 -0.000353387393445)
(5.24622649765e-08 -6.19314696836e-05 -0.000355095276362)
(6.96499600423e-06 -6.13621722808e-05 -0.00035335441272)
(1.36148487348e-05 -5.96960086995e-05 -0.000348261083328)
(1.9762358389e-05 -5.70227365083e-05 -0.000340063261881)
(2.52101442688e-05 -5.34792779962e-05 -0.000329164221989)
(2.97736684953e-05 -4.92676411404e-05 -0.000316119526181)
(3.34838351847e-05 -4.45204852404e-05 -0.000301609165175)
(3.60327560063e-05 -3.97639488708e-05 -0.000286370003266)
(-4.31134897036e-05 -4.75913240909e-05 -0.000370321430224)
(-3.98814607983e-05 -5.30641794738e-05 -0.00038942752166)
(-3.53593961167e-05 -5.84831429181e-05 -0.000407552679356)
(-2.98419519276e-05 -6.32764989548e-05 -0.00042380042805)
(-2.33224878543e-05 -6.72926417204e-05 -0.000437339139185)
(-1.60056353551e-05 -7.03122713984e-05 -0.000447495001915)
(-8.11909275053e-06 -7.2186739038e-05 -0.000453781157653)
(6.38264225011e-08 -7.28190736216e-05 -0.000455899895808)
(8.24538417146e-06 -7.21752458426e-05 -0.000453739298808)
(1.61279292542e-05 -7.02898748455e-05 -0.000447411522727)
(2.34383032195e-05 -6.72604898936e-05 -0.000437214398058)
(2.99491119616e-05 -6.32362141542e-05 -0.000423634783797)
(3.5455775083e-05 -5.84368865756e-05 -0.000407346104491)
(3.99659638319e-05 -5.30133469288e-05 -0.000389177759002)
(4.31808748961e-05 -4.75396365033e-05 -0.000370023045163)
(-4.89481871112e-05 -5.39280404604e-05 -0.000451504499336)
(-4.51068246622e-05 -5.98569011685e-05 -0.000473928383229)
(-3.98886325889e-05 -6.56870665481e-05 -0.000495099485913)
(-3.35778959572e-05 -7.08288303082e-05 -0.000514016903191)
(-2.61932034892e-05 -7.51209056487e-05 -0.000529739051755)
(-1.79506888626e-05 -7.83402342581e-05 -0.000541509046086)
(-9.09731195942e-06 -8.03352452227e-05 -0.000548783391601)
(7.36151844575e-08 -8.10074659139e-05 -0.000551231874988)
(9.24304233214e-06 -8.0322456952e-05 -0.000548733186538)
(1.8092004191e-05 -7.83152927201e-05 -0.000541408939015)
(2.63273364866e-05 -7.50850454709e-05 -0.000529589509076)
(3.37023756702e-05 -7.0783808388e-05 -0.000513818479669)
(4.0001083436e-05 -6.56352218466e-05 -0.000494852460505)
(4.5205846514e-05 -5.97997471663e-05 -0.000473630479619)
(4.90282839393e-05 -5.38694842748e-05 -0.000451149629474)
(-5.35456639578e-05 -5.88913202398e-05 -0.000528911292004)
(-4.91603894445e-05 -6.50337400828e-05 -0.000553971851364)
(-4.33513466787e-05 -7.10337166529e-05 -0.000577507708004)
(-3.63943408237e-05 -7.63074092244e-05 -0.000598466450136)
(-2.83331338417e-05 -8.06919199339e-05 -0.00061583601141)
(-1.93881539733e-05 -8.39721533403e-05 -0.000628810528453)
(-9.81593773441e-06 -8.60011855071e-05 -0.000636816161706)
(8.20398795617e-08 -8.6684019783e-05 -0.000639506947973)
(9.97842492458e-06 -8.59875109111e-05 -0.000636758122414)
(1.95459438863e-05 -8.39454546012e-05 -0.000628694833766)
(2.8483256874e-05 -8.06534597289e-05 -0.000615663275581)
(3.65341067813e-05 -7.62590021958e-05 -0.000598237506997)
(4.34782062505e-05 -7.09777788106e-05 -0.000577223275358)
(4.92726955985e-05 -6.49718390354e-05 -0.000553629683358)
(5.36377721191e-05 -5.88274338151e-05 -0.000528504621568)
(-5.69848802228e-05 -6.25699920932e-05 -0.000601631431576)
(-5.21237670885e-05 -6.87064476135e-05 -0.000628619288105)
(-4.58272034361e-05 -7.46610337981e-05 -0.000653827613898)
(-3.83645732769e-05 -7.98746226283e-05 -0.00067619871927)
(-2.98032452e-05 -8.41903571838e-05 -0.000694684351285)
(-2.03617463018e-05 -8.74103974843e-05 -0.000708459886462)
(-1.02976778381e-05 -8.93983655046e-05 -0.000716944749947)
(8.93595278912e-08 -9.00664832316e-05 -0.000719792241426)
(1.04747502197e-05 -8.93841679059e-05 -0.00071687931788)
(2.05339525207e-05 -8.73826400468e-05 -0.000708329508402)
(2.99674851127e-05 -8.41502791619e-05 -0.000694489842178)
(3.85180028172e-05 -7.98240269783e-05 -0.00067594129056)
(4.5967163459e-05 -7.46023288162e-05 -0.000653508554177)
(5.22483993949e-05 -6.86411961842e-05 -0.000628236373613)
(5.70884523061e-05 -6.25021541825e-05 -0.00060117722817)
(-5.9353385269e-05 -6.50608284409e-05 -0.000669062359222)
(-5.40844679292e-05 -7.0996563581e-05 -0.000697291019548)
(-4.74003126131e-05 -7.67170753606e-05 -0.000723518833243)
(-3.95650085284e-05 -8.17032067135e-05 -0.000746716831776)
(-3.06666766755e-05 -8.58113874233e-05 -0.000765826890195)
(-2.09165191062e-05 -8.88678689303e-05 -0.000780031130999)
(-1.05658717816e-05 -9.07510863549e-05 -0.00078876302928)
(9.58342336237e-08 -9.138307348e-05 -0.000791688443014)
(1.07558715497e-05 -9.07366871218e-05 -0.000788690549235)
(2.11015781099e-05 -8.88396702182e-05 -0.000779886778519)
(3.08436243502e-05 -8.57705585207e-05 -0.000765611733938)
(3.97309011881e-05 -8.16514768508e-05 -0.000746432560796)
(4.75524266722e-05 -7.6656770571e-05 -0.00072316742855)
(5.42207516656e-05 -7.09291908083e-05 -0.000696870207881)
(5.94680483554e-05 -6.49902539444e-05 -0.000668564110755)
(-6.0742671731e-05 -6.64647566092e-05 -0.000730868494328)
(-5.51319770673e-05 -7.20296626599e-05 -0.000759713186945)
(-4.81555903235e-05 -7.73523426993e-05 -0.000786382324156)
(-4.00720583163e-05 -8.19672649923e-05 -0.000809892497524)
(-3.09861294479e-05 -8.57507525985e-05 -0.000829193707859)
(-2.10969536035e-05 -8.85573854216e-05 -0.00084349735802)
(-1.06434906386e-05 -9.02830734461e-05 -0.000852270467414)
(1.01693496875e-07 -9.08612502721e-05 -0.000855203901191)
(1.08452141304e-05 -9.02687635016e-05 -0.000852191183858)
(2.1293741997e-05 -8.85293046652e-05 -0.000843339527317)
(3.11747918414e-05 -8.57099572449e-05 -0.000828958687673)
(4.02495958533e-05 -8.19153521451e-05 -0.000809582538742)
(4.83192440878e-05 -7.7291488434e-05 -0.000786000206179)
(5.52795059812e-05 -7.19612623778e-05 -0.000759256444273)
(6.08682401015e-05 -6.63925194847e-05 -0.000730328597998)
(-6.12457696394e-05 -6.68861780348e-05 -0.000786936610153)
(-5.53557196214e-05 -7.19321235385e-05 -0.000815865724437)
(-4.81773307115e-05 -7.67150026505e-05 -0.000842497608036)
(-3.9961093481e-05 -8.08370106383e-05 -0.00086588862916)
(-3.08229436767e-05 -8.4199267607e-05 -0.000885010203634)
(-2.09462119304e-05 -8.66859207804e-05 -0.000899127366998)
(-1.05527229976e-05 -8.82115025451e-05 -0.000907761675155)
(1.07117462132e-07 -8.87216625632e-05 -0.000910641812126)
(1.07653231547e-05 -8.81975566883e-05 -0.000907675751473)
(2.11539526116e-05 -8.66584868882e-05 -0.000898956366157)
(3.10226574211e-05 -8.41592496702e-05 -0.000884755764446)
(4.01497620351e-05 -8.07858151581e-05 -0.000865553609901)
(4.83521766537e-05 -7.66545899681e-05 -0.000842085686734)
(5.55143118203e-05 -7.18637160806e-05 -0.000815374051687)
(6.13822455249e-05 -6.68132714556e-05 -0.000786356147473)
(-6.09537326065e-05 -6.64308137669e-05 -0.000837334867955)
(-5.48434767463e-05 -7.08255147054e-05 -0.000865944556815)
(-4.75492633612e-05 -7.49454014977e-05 -0.000892178851649)
(-3.93066214249e-05 -7.84743238058e-05 -0.000915100928108)
(-3.02369075874e-05 -8.13387904217e-05 -0.000933724626956)
(-2.05058059793e-05 -8.34505103442e-05 -0.000947403244309)
(-1.03147577237e-05 -8.47427555383e-05 -0.000955738372597)
(1.12226718872e-07 -8.51738449075e-05 -0.000958510402312)
(1.0537625591e-05 -8.47294441379e-05 -0.000955645939644)
(2.07239502867e-05 -8.34242487929e-05 -0.000947219272147)
(3.04472225498e-05 -8.13002944581e-05 -0.000933450945228)
(3.95061005383e-05 -7.84247512178e-05 -0.000914740964745)
(4.77351172785e-05 -7.48864262548e-05 -0.000891737310568)
(5.50130831622e-05 -7.07581241292e-05 -0.00086541813055)
(6.11012516778e-05 -6.63582436791e-05 -0.000836713698089)
(-5.99507656419e-05 -6.51905035018e-05 -0.000882280735145)
(-5.36854118839e-05 -6.8815082524e-05 -0.000910356021148)
(-4.63590543259e-05 -7.21716954353e-05 -0.000935961613553)
(-3.81841792793e-05 -7.5031423922e-05 -0.000958122624016)
(-2.92865783818e-05 -7.73416419497e-05 -0.000975956660376)
(-1.98154922343e-05 -7.9037588446e-05 -0.000988960232849)
(-9.94969262681e-06 -8.007167359e-05 -0.000996845277264)
(1.17079490765e-07 -8.04154446581e-05 -0.000999457700372)
(1.01823294244e-05 -8.00592651273e-05 -0.000996746529493)
(2.00435877585e-05 -7.90130262535e-05 -0.000988763551279)
(2.95071217142e-05 -7.73054293067e-05 -0.000975663832611)
(3.83942021572e-05 -7.49844142017e-05 -0.00095773741256)
(4.65557562666e-05 -7.21151969844e-05 -0.000935489890562)
(5.38659736958e-05 -6.87497642533e-05 -0.000909794572398)
(6.01093759066e-05 -6.51194269735e-05 -0.000881618818111)
(-5.83433675498e-05 -6.32310117407e-05 -0.000922121942609)
(-5.20039714568e-05 -6.60079960545e-05 -0.000949783517379)
(-4.47084769524e-05 -6.85173150017e-05 -0.000974625032948)
(-3.6670497648e-05 -7.06577650929e-05 -0.000995722884605)
(-2.8027982363e-05 -7.23735102062e-05 -0.00101245841929)
(-1.8912455313e-05 -7.36236204498e-05 -0.00102454296039)
(-9.4762515158e-06 -7.43812844316e-05 -0.0010318255793)
(1.21674257825e-07 -7.46317381238e-05 -0.00103422704685)
(9.71814980836e-06 -7.43700296416e-05 -0.00103172095647)
(1.91500196628e-05 -7.36012583132e-05 -0.00102433425323)
(2.82583187285e-05 -7.23403269555e-05 -0.00101214693785)
(3.68906992547e-05 -7.06142713649e-05 -0.000995312037263)
(4.49157423683e-05 -6.84643631448e-05 -0.000974121624729)
(5.21952972979e-05 -6.59458481557e-05 -0.000949186207458)
(5.85132823896e-05 -6.31623285405e-05 -0.000921421386301)
(-5.63304007687e-05 -6.09483703572e-05 -0.000957375174125)
(-4.99806903323e-05 -6.24431539227e-05 -0.000985424003747)
(-4.26907432096e-05 -6.40762841231e-05 -0.00100916952932)
(-3.48388899095e-05 -6.5447288788e-05 -0.00102877429404)
(-2.65183812723e-05 -6.65270115429e-05 -0.00104405085893)
(-1.78375413326e-05 -6.73021982638e-05 -0.00105495965712)
(-8.91593383168e-06 -6.77671561962e-05 -0.001061487921)
(1.25960921459e-07 -6.7919219879e-05 -0.00106362861896)
(9.16648223845e-06 -6.77573766237e-05 -0.00106137854597)
(1.80839764941e-05 -6.72826912723e-05 -0.00105474098472)
(2.67579363346e-05 -6.64978696511e-05 -0.00104372322356)
(3.50687379566e-05 -6.54086990008e-05 -0.00102833951337)
(4.29080937393e-05 -6.40286666941e-05 -0.00100863417625)
(5.01819786519e-05 -6.23859977652e-05 -0.000984784347645)
(5.65121366887e-05 -6.08840904236e-05 -0.00095665163943)
(2.56400849369e-08 2.35790530224e-08 -5.2298560502e-05)
(3.25358930522e-08 2.43681866507e-08 -5.49896903259e-05)
(3.69801813684e-08 2.77998004753e-08 -5.74928355125e-05)
(3.8222080172e-08 3.33640113219e-08 -5.96933110822e-05)
(3.40074475903e-08 4.02494408011e-08 -6.14996685316e-05)
(2.50885306165e-08 4.6649453902e-08 -6.28401337036e-05)
(1.25485546036e-08 5.10898680986e-08 -6.36652122495e-05)
(-1.89526778043e-09 5.25563840265e-08 -6.39449961339e-05)
(-1.62636087644e-08 5.06766216046e-08 -6.36636129977e-05)
(-2.85780193871e-08 4.58338520881e-08 -6.28369414926e-05)
(-3.71580147181e-08 3.90504236554e-08 -6.1494882597e-05)
(-4.10095624476e-08 3.18271771942e-08 -5.96868823924e-05)
(-3.94314231762e-08 2.60021322789e-08 -5.74845809319e-05)
(-3.47533723294e-08 2.23922659046e-08 -5.49789494404e-05)
(-2.74613597503e-08 2.17381383713e-08 -5.22832636009e-05)
(2.64068621156e-07 2.76644219955e-07 -0.000151022560646)
(2.76036548322e-07 3.18340186486e-07 -0.000158397497865)
(2.72919180593e-07 3.68254276769e-07 -0.000165260932693)
(2.53191185193e-07 4.2112878413e-07 -0.000171295996262)
(2.11750927726e-07 4.71982399138e-07 -0.000176250294573)
(1.51203306699e-07 5.13906575179e-07 -0.000179927212905)
(7.61678286861e-08 5.41319249431e-07 -0.000182189963282)
(-6.55397179738e-09 5.50463608874e-07 -0.000182955389589)
(-8.90542944636e-08 5.39988530033e-07 -0.000182184889612)
(-1.63415811273e-07 5.11324033293e-07 -0.000179917094919)
(-2.22860855246e-07 4.6831115763e-07 -0.000176235147247)
(-2.62899447428e-07 4.16621654613e-07 -0.000171275704067)
(-2.81080171828e-07 3.6327816866e-07 -0.000165234997183)
(-2.82730919941e-07 3.13217009754e-07 -0.000158364048106)
(-2.6909104562e-07 2.71989757353e-07 -0.000150976765959)
(6.24866845891e-07 6.71341080279e-07 -0.000243324821265)
(6.31426846038e-07 7.73324485656e-07 -0.000254732799074)
(6.07159810331e-07 8.87531011588e-07 -0.000265342159651)
(5.49939980082e-07 1.00237964271e-06 -0.000274670022998)
(4.5301860505e-07 1.10837022627e-06 -0.000282326449602)
(3.21185384678e-07 1.19362322701e-06 -0.000288008510195)
(1.63118402289e-07 1.24865811179e-06 -0.00029150431726)
(-8.87071861744e-09 1.26712925793e-06 -0.000292685050645)
(-1.80593487797e-07 1.24675120733e-06 -0.000291495616488)
(-3.37870036118e-07 1.18986764034e-06 -0.000287991171945)
(-4.68459143133e-07 1.10289591391e-06 -0.000282300527931)
(-5.63869200541e-07 9.9544256325e-07 -0.000274635387737)
(-6.19479831817e-07 8.79563545401e-07 -0.000265298122942)
(-6.4221040179e-07 7.64818131469e-07 -0.000254676660552)
(-6.33638554737e-07 6.63214980411e-07 -0.000243249760194)
(1.04824144548e-06 1.13557893269e-06 -0.000329426050735)
(1.03816712898e-06 1.30172231458e-06 -0.000344256496244)
(9.81537173236e-07 1.48244799059e-06 -0.000358029775685)
(8.75902477687e-07 1.65929789835e-06 -0.000370136007295)
(7.14075766047e-07 1.81890105359e-06 -0.000380071004848)
(5.03156226182e-07 1.94537547161e-06 -0.000387443220279)
(2.55638674969e-07 2.02630288787e-06 -0.000391977674704)
(-1.12638858309e-08 2.05346747081e-06 -0.000393507440379)
(-2.77873885801e-07 2.02393578342e-06 -0.000391965148541)
(-5.24533460698e-07 1.94070193948e-06 -0.000387418283931)
(-7.34117127101e-07 1.8120579183e-06 -0.000380033796178)
(-8.94320226894e-07 1.6505577234e-06 -0.000370086479811)
(-9.98197315883e-07 1.47228361374e-06 -0.000357967258667)
(-1.05306384213e-06 1.29070509216e-06 -0.000344177924141)
(-1.06069138523e-06 1.12475727763e-06 -0.000329323531329)
(1.47198734193e-06 1.59851407667e-06 -0.000409524554121)
(1.43580053143e-06 1.81928741815e-06 -0.000427201934984)
(1.34030118393e-06 2.0551008563e-06 -0.000443589007806)
(1.18262047164e-06 2.28164963353e-06 -0.000457986775983)
(9.56119995412e-07 2.48296057476e-06 -0.000469799323918)
(6.70009771975e-07 2.64072953686e-06 -0.000478563312194)
(3.39810256834e-07 2.7409710561e-06 -0.000483952330047)
(-1.36706761924e-08 2.77454993936e-06 -0.000485768647987)
(-3.6684020674e-07 2.73823610045e-06 -0.000483935780745)
(-6.9612881271e-07 2.63533104536e-06 -0.00047853040802)
(-9.80813428224e-07 2.4750581366e-06 -0.000469750347216)
(-1.20554635886e-06 2.27154571319e-06 -0.000457921885409)
(-1.36125092687e-06 2.04330494494e-06 -0.000443507773934)
(-1.45467912486e-06 1.80640801013e-06 -0.000427101273198)
(-1.48799183027e-06 1.58565633469e-06 -0.000409396064085)
(1.85720243244e-06 2.01627623532e-06 -0.000483812617911)
(1.78799613412e-06 2.27604390045e-06 -0.000503795240672)
(1.65104901981e-06 2.54942255725e-06 -0.000522279256738)
(1.44278153438e-06 2.80835280313e-06 -0.000538511241414)
(1.15785902487e-06 3.03556755089e-06 -0.000551824507804)
(8.07189414451e-07 3.21197897722e-06 -0.000561699692657)
(4.08284310969e-07 3.32336248012e-06 -0.000567770158285)
(-1.59951230621e-08 3.36055803589e-06 -0.000569814385915)
(-4.39950706621e-07 3.32035985714e-06 -0.000567749384408)
(-8.37906481193e-07 3.20605676161e-06 -0.000561658448861)
(-1.18707324997e-06 3.02690927006e-06 -0.000551763292009)
(-1.47008472086e-06 2.79728821975e-06 -0.000538430548902)
(-1.67614878569e-06 2.53648805407e-06 -0.000522179111128)
(-1.81071039159e-06 2.2618554806e-06 -0.000503672759647)
(-1.87667084289e-06 2.00194651118e-06 -0.000483659086544)
(2.18141028064e-06 2.36418552501e-06 -0.000552479324726)
(2.07513149312e-06 2.64578546206e-06 -0.000574259072694)
(1.89733276643e-06 2.93791267208e-06 -0.000594357764535)
(1.64334071458e-06 3.21133493606e-06 -0.000611997867759)
(1.30967203841e-06 3.44859602755e-06 -0.000626460537136)
(9.08412237037e-07 3.63122878941e-06 -0.000637184957271)
(4.57990836353e-07 3.74584976472e-06 -0.000643775072636)
(-1.81773560361e-08 3.78397799301e-06 -0.000645992418972)
(-4.94014901399e-07 3.74267726548e-06 -0.000643749865697)
(-9.43462738059e-07 3.62497577984e-06 -0.000637134989884)
(-1.34316164274e-06 3.43946364783e-06 -0.000626386597054)
(-1.67479775624e-06 3.19967114784e-06 -0.000611900916437)
(-1.92638707417e-06 2.92426560015e-06 -0.000594238462857)
(-2.10152732693e-06 2.63076111173e-06 -0.000574114853686)
(-2.20425915088e-06 2.34886433022e-06 -0.000552301227317)
(2.43344738176e-06 2.63057109694e-06 -0.000615710854546)
(2.28883265222e-06 2.9179571547e-06 -0.000638813535774)
(2.07323260196e-06 3.21149360623e-06 -0.000660080719996)
(1.7805264642e-06 3.48337232539e-06 -0.000678735588872)
(1.40942704723e-06 3.71678830276e-06 -0.000694022702425)
(9.72653307715e-07 3.89496200061e-06 -0.000705353236136)
(4.88561367068e-07 4.00611560823e-06 -0.000712312434178)
(-2.01858780477e-08 4.04292022809e-06 -0.000714651853045)
(-5.28600921374e-07 4.00286660028e-06 -0.000712282572022)
(-1.01170993422e-06 3.88856030684e-06 -0.00070529413122)
(-1.4468884851e-06 3.70744236169e-06 -0.000693935501309)
(-1.81586774519e-06 3.47143579262e-06 -0.000678621836626)
(-2.10601675894e-06 3.19751012844e-06 -0.000659941865097)
(-2.318744995e-06 2.90250789304e-06 -0.000638647351225)
(-2.45959352758e-06 2.61468010966e-06 -0.000615508187665)
(2.61050129848e-06 2.81328391855e-06 -0.000673691381675)
(2.42870954802e-06 3.09296296166e-06 -0.000697678303595)
(2.18006240589e-06 3.3735256749e-06 -0.00071970632304)
(1.85677669359e-06 3.63083142012e-06 -0.000739017005242)
(1.45990523541e-06 3.84936246393e-06 -0.000754830290433)
(1.002286432e-06 4.014758201e-06 -0.00076654216986)
(5.01358124894e-07 4.11730360906e-06 -0.000773730489085)
(-2.20052682698e-08 4.15107445397e-06 -0.000776144395605)
(-5.45039739804e-07 4.11406485593e-06 -0.000773695727851)
(-1.04499026314e-06 4.0083756119e-06 -0.000766473461692)
(-1.50100502618e-06 3.84004069559e-06 -0.000754729194815)
(-1.89570795865e-06 3.61891507899e-06 -0.00073888574736)
(-2.21633607175e-06 3.3595385579e-06 -0.000719547254441)
(-2.46196057608e-06 3.07744610019e-06 -0.000697489488391)
(-2.6398477022e-06 2.79718943412e-06 -0.000673463567131)
(2.71567393485e-06 2.91687519125e-06 -0.000726605264384)
(2.49970711379e-06 3.17844720055e-06 -0.000751077401044)
(2.2237363692e-06 3.43510105088e-06 -0.00077350170571)
(1.87832033703e-06 3.66805401956e-06 -0.00079314569105)
(1.46680058171e-06 3.86363049531e-06 -0.000809213079839)
(1.00165850225e-06 4.01033134094e-06 -0.000821098331751)
(4.98735915772e-07 4.10069566658e-06 -0.000828385019106)
(-2.36274799044e-08 4.13026582621e-06 -0.000830828744727)
(-5.45670190863e-07 4.09754751296e-06 -0.000828345086054)
(-1.04763529552e-06 4.00412203417e-06 -0.000821019480993)
(-1.51119177355e-06 3.8545489688e-06 -0.000809097311083)
(-1.92053609265e-06 3.65642045415e-06 -0.000792995976112)
(-2.26324972549e-06 3.42140356463e-06 -0.000773321384348)
(-2.53610810577e-06 3.16317402229e-06 -0.000750864715361)
(-2.74810322808e-06 2.90089145394e-06 -0.000726350991553)
(2.75584238167e-06 2.95015736954e-06 -0.000774641093723)
(2.50986574771e-06 3.18614821595e-06 -0.000799248851498)
(2.21263670905e-06 3.41112924622e-06 -0.00082175646855)
(1.85329899957e-06 3.61284630883e-06 -0.000841449697812)
(1.43721170253e-06 3.7800359095e-06 -0.000857522913434)
(9.76032997338e-07 3.90424980922e-06 -0.000869386852332)
(4.83498867268e-07 3.98024002629e-06 -0.0008766477319)
(-2.50484488903e-08 4.0049183997e-06 -0.000879078577869)
(-5.33288384803e-07 3.97725626789e-06 -0.000876602324821)
(-1.02490079452e-06 3.89835554372e-06 -0.000869297234498)
(-1.48454001383e-06 3.77139177792e-06 -0.000857391507603)
(-1.8984875996e-06 3.60173271909e-06 -0.000841280246056)
(-2.25513378755e-06 3.39798151579e-06 -0.000821553368344)
(-2.54921966188e-06 3.17139035723e-06 -0.000799010370082)
(-2.79122195227e-06 2.93455095793e-06 -0.000774358129377)
(2.73983218609e-06 2.92417258985e-06 -0.00081799811637)
(2.46855146589e-06 3.12930350159e-06 -0.000842463967081)
(2.15609649225e-06 3.31723485999e-06 -0.000864807702497)
(1.79053181979e-06 3.48312396286e-06 -0.000884303777893)
(1.37869183586e-06 3.61866297229e-06 -0.000900151150825)
(9.30939533609e-07 3.71836769638e-06 -0.000911805332338)
(4.58569458417e-07 3.77893544918e-06 -0.000918918275377)
(-2.62655904669e-08 3.79842473909e-06 -0.000921293996458)
(-5.10811316569e-07 3.77618492839e-06 -0.000918867079642)
(-9.8231115527e-07 3.71291891585e-06 -0.0009117042575)
(-1.42859841842e-06 3.61063852591e-06 -0.000900002951227)
(-1.83837610342e-06 3.47274629557e-06 -0.000884112916652)
(-2.2013133584e-06 3.30486857377e-06 -0.00086457972108)
(-2.51065089851e-06 3.1152970295e-06 -0.000842197087974)
(-2.77801497008e-06 2.90917195611e-06 -0.000817683252486)
(2.67683160357e-06 2.85020228508e-06 -0.00085689557756)
(2.38535495324e-06 3.02035941001e-06 -0.000881068839211)
(2.06373702021e-06 3.1675046511e-06 -0.000903084752151)
(1.6990587632e-06 3.29477043085e-06 -0.000922161808316)
(1.29890053509e-06 3.39723185277e-06 -0.000937550840784)
(8.71924561807e-07 3.47189245392e-06 -0.000948800566632)
(4.26856560241e-07 3.51693440963e-06 -0.00095563863875)
(-2.72758248553e-08 3.53125702135e-06 -0.000957915320013)
(-4.81142408787e-07 3.51447792139e-06 -0.000955581383593)
(-9.25405007863e-07 3.46700797742e-06 -0.000948687375107)
(-1.35101553188e-06 3.38999347375e-06 -0.000937384583281)
(-1.74922922687e-06 3.2853284144e-06 -0.000921947460099)
(-2.11139317843e-06 3.15612928957e-06 -0.00090282911016)
(-2.42997147951e-06 3.00730422115e-06 -0.000880770486691)
(-2.71763868015e-06 2.83601057474e-06 -0.000856545477207)
(2.57649291572e-06 2.73843814981e-06 -0.000891585044499)
(2.27091868787e-06 2.87195374181e-06 -0.000915584423418)
(1.9462212028e-06 2.97466899503e-06 -0.000937181468895)
(1.58848519705e-06 3.06193552696e-06 -0.000955592635955)
(1.20572067904e-06 3.13122406101e-06 -0.000970256536116)
(8.04556240263e-07 3.18128498155e-06 -0.000980883329316)
(3.91238543096e-07 3.21127194764e-06 -0.000987306812051)
(-2.80760259029e-08 3.22063279797e-06 -0.000989436633639)
(-4.4714936928e-07 3.20915747437e-06 -0.000987243404686)
(-8.59734574905e-07 3.1770595189e-06 -0.0009807576547)
(-1.25964916317e-06 3.12490846002e-06 -0.000970071180666)
(-1.64061674127e-06 3.05359728386e-06 -0.000955352500087)
(-1.99599823651e-06 2.9644616235e-06 -0.000936894442233)
(-2.31778749923e-06 2.8599954179e-06 -0.000915250978099)
(-2.61974388849e-06 2.72512061038e-06 -0.000891197783734)
(2.44834380843e-06 2.62227974738e-06 -0.000922493290851)
(2.13787154626e-06 2.69562890035e-06 -0.000947043974703)
(1.81385128526e-06 2.75064945376e-06 -0.000967941572751)
(1.46777545683e-06 2.79663289591e-06 -0.000985293909815)
(1.10628610633e-06 2.83233669266e-06 -0.000998885717579)
(7.3377849938e-07 2.85777639185e-06 -0.00100863213658)
(3.54247385281e-07 2.8727961656e-06 -0.00101448417001)
(-2.86538506645e-08 2.87725207793e-06 -0.00101641468807)
(-4.11343836809e-07 2.87106420512e-06 -0.00101441511477)
(-7.90228480498e-07 2.85429177048e-06 -0.00100849481021)
(-1.16162262337e-06 2.82706871714e-06 -0.000998681920802)
(-1.52149196089e-06 2.78956194114e-06 -0.000985027350499)
(-1.86542390194e-06 2.74179974976e-06 -0.000967620317154)
(-2.18667789215e-06 2.68492681475e-06 -0.000946667123607)
(-2.4939445626e-06 2.6099022245e-06 -0.000922078015033)
(-3.27347858992e-09 -2.54360150817e-09 -5.11537939753e-05)
(-3.83036764258e-09 -2.94285961568e-09 -5.38038571722e-05)
(-4.02349582431e-09 -3.55152565589e-09 -5.62746143545e-05)
(-4.00784274186e-09 -4.297550521e-09 -5.8453807396e-05)
(-3.44628901992e-09 -5.09198174356e-09 -6.02458720408e-05)
(-2.42588988397e-09 -5.80201666298e-09 -6.15773943564e-05)
(-1.07995143091e-09 -6.29171426794e-09 -6.23974786163e-05)
(4.12893036048e-10 -6.45788395014e-09 -6.26754659283e-05)
(1.87643591428e-09 -6.25942854176e-09 -6.23952437326e-05)
(3.1317461658e-09 -5.73461954316e-09 -6.15729402971e-05)
(4.01477825209e-09 -4.98649758523e-09 -6.02392238932e-05)
(4.44690699697e-09 -4.16107427362e-09 -5.8444968021e-05)
(4.31724383172e-09 -3.45139195363e-09 -5.6263463637e-05)
(3.9907124139e-09 -2.88279719625e-09 -5.37897467982e-05)
(3.33174348653e-09 -2.58494450994e-09 -5.1134399097e-05)
(-2.98989828891e-08 -2.96835241105e-08 -0.000148308670922)
(-3.06539223361e-08 -3.5032952599e-08 -0.000155627547212)
(-2.95151935602e-08 -4.11256178219e-08 -0.00016246062866)
(-2.68909056232e-08 -4.73093513473e-08 -0.000168489801685)
(-2.20629225365e-08 -5.30420715005e-08 -0.000173449683789)
(-1.53401186745e-08 -5.76767690474e-08 -0.000177136116773)
(-7.21424949399e-09 -6.06586056315e-08 -0.000179406465018)
(1.61410207315e-09 -6.16159957793e-08 -0.000180174185555)
(1.03649235076e-08 -6.04211116665e-08 -0.000179399511872)
(1.82455992007e-08 -5.72337480762e-08 -0.000177122268556)
(2.45561235297e-08 -5.24653958682e-08 -0.000173429036361)
(2.88655422329e-08 -4.67028103991e-08 -0.000168462400775)
(3.08550992901e-08 -4.07046316861e-08 -0.000162426176387)
(3.13298707972e-08 -3.48637780153e-08 -0.000155584229243)
(2.99992135469e-08 -2.9839555901e-08 -0.000148251129665)
(-7.26524227472e-08 -7.65278937922e-08 -0.000239560146675)
(-7.30559767306e-08 -8.97226666025e-08 -0.000250939193512)
(-6.95713171301e-08 -1.04053926751e-07 -0.000261561647529)
(-6.26414590139e-08 -1.1815297888e-07 -0.000270934791184)
(-5.12530496106e-08 -1.30951490905e-07 -0.000278646319579)
(-3.59814508026e-08 -1.41168048394e-07 -0.000284378505172)
(-1.7821720641e-08 -1.47746430933e-07 -0.00028790824891)
(1.82407862987e-09 -1.49949610098e-07 -0.000289100083775)
(2.13821587599e-08 -1.47509120431e-07 -0.000287896599632)
(3.92755262904e-08 -1.40704202985e-07 -0.000284355311954)
(5.41282377451e-08 -1.30291537264e-07 -0.000278611757057)
(6.50324349185e-08 -1.17375864675e-07 -0.000270888965107)
(7.14099348718e-08 -1.03369163028e-07 -0.000261504167512)
(7.43295463766e-08 -8.92138849848e-08 -0.000250867461507)
(7.33501073596e-08 -7.63500710594e-08 -0.000239466630891)
(-1.2719843545e-07 -1.3665095107e-07 -0.000325082110694)
(-1.26206465252e-07 -1.59316527455e-07 -0.000339945506034)
(-1.1901463139e-07 -1.83484547074e-07 -0.000353807865589)
(-1.06124403186e-07 -2.06843032907e-07 -0.000366038246401)
(-8.63708221845e-08 -2.27778582554e-07 -0.000376100374489)
(-6.06296610389e-08 -2.44334832648e-07 -0.00038357991317)
(-3.04281926074e-08 -2.54944335815e-07 -0.000388184828202)
(2.09886400457e-09 -2.58527330842e-07 -0.000389737966335)
(3.4537548312e-08 -2.54693149933e-07 -0.000388168387702)
(6.44779050679e-08 -2.43839701345e-07 -0.000383547204986)
(8.9821874846e-08 -2.27059966139e-07 -0.000376051695081)
(1.09127224467e-07 -2.05966402928e-07 -0.000365973846887)
(1.21516829329e-07 -1.82628049118e-07 -0.000353727454834)