/*--------------------------------*- C++ -*----------------------------------*\
  =========                 |
  \\      /  F ield         | OpenFOAM: The Open Source CFD Toolbox
   \\    /   O peration     | Website:  https://openfoam.org
    \\  /    A nd           | Version:  7
     \\/     M anipulation  |
\*---------------------------------------------------------------------------*/
FoamFile
{
    version     2.0;
    format      ascii;
    class       surfaceScalarField;
    location    "1.08";
    object      phi;
}
// * * * * * * * * * * * * * * * * * * * * * * * * * * * * * * * * * * * * * //

dimensions      [0 3 -1 0 0 0 0];

internalField   nonuniform List<scalar> 
65775
(
1.31007705392e-11
-2.14293439592e-09
7.80034828183e-11
2.66596546856e-14
2.22423009343e-11
-2.25773124943e-09
9.04869287159e-11
2.63273395648e-11
-2.3627050478e-09
1.04942390046e-10
2.57123499828e-11
-2.45501652676e-09
1.19703576475e-10
2.06878766591e-11
-2.53042190262e-09
1.33145067668e-10
1.23291984614e-11
-2.58663499765e-09
1.43862962302e-10
1.9185537887e-12
-2.62222844447e-09
1.50802259278e-10
-9.12658634724e-12
-2.63549527932e-09
1.53240309259e-10
-1.93773943758e-11
-2.62225198484e-09
1.50710215599e-10
-2.74346392138e-11
-2.58667432365e-09
1.43681194991e-10
-3.20402558154e-11
-2.53045653264e-09
1.32876741862e-10
-3.21412829238e-11
-2.45501561082e-09
1.19352064153e-10
-2.74706203425e-11
-2.36265429727e-09
1.04509350434e-10
-1.76930627112e-11
-2.25765853471e-09
8.99672592848e-11
-2.14321679572e-09
7.73812091795e-11
-3.53836068501e-12
2.63577280798e-11
-4.20799456692e-09
8.4631134244e-11
-8.79673460705e-13
4.63580179993e-11
-4.4372758855e-09
9.86816125613e-11
5.76658908292e-11
-4.64857976203e-09
1.18720454588e-10
5.76191047417e-11
-4.83370216847e-09
1.41324941599e-10
4.66252933114e-11
-4.98563471522e-09
1.63072821675e-10
2.69050724338e-11
-5.09931213316e-09
1.80969275206e-10
1.69956812379e-12
-5.17147402675e-09
1.92728826306e-10
-2.52311005399e-11
-5.19834841046e-09
1.9682912736e-10
-4.98430096376e-11
-5.1717651463e-09
1.92475464995e-10
-6.84042962179e-11
-5.09987524656e-09
1.80470370139e-10
-7.77151380883e-11
-4.98641989205e-09
1.62335920095e-10
-7.56457219482e-11
-4.83458615068e-09
1.40356400223e-10
-6.191007481e-11
-4.64943597297e-09
1.1752026283e-10
-3.92498613059e-11
-4.43810193409e-09
9.72304456335e-11
-4.20933573592e-09
8.28928322426e-11
-1.07354769338e-11
2.45374585045e-11
-6.07893832539e-09
-1.1249323721e-11
-2.09922598998e-13
4.89662583065e-11
-6.41333926038e-09
-1.17166487696e-11
6.53657808821e-11
-6.72028306421e-09
-2.42958823898e-12
6.77258323018e-11
-6.9873015176e-09
1.26085514933e-11
5.56911957454e-11
-7.20663417415e-09
2.9301986999e-11
3.1662380815e-11
-7.37082606491e-09
4.4032257572e-11
-1.12014655452e-13
-7.4751075367e-09
5.39986990261e-11
-3.44160094362e-11
-7.51387492458e-09
5.74011694528e-11
-6.54336990237e-11
-7.47563923853e-09
5.35482539215e-11
-8.79890083203e-11
-7.37185507951e-09
4.31493014172e-11
-9.78958102399e-11
-7.20807680059e-09
2.80090153729e-11
-9.28321346712e-11
-6.98898037547e-09
1.09315598347e-11
-7.32557474175e-11
-6.72200050004e-09
-4.47109587581e-12
-4.51480171037e-11
-6.41516279547e-09
-1.41306226688e-11
-6.08148865155e-09
-1.40731567675e-11
-1.65671645265e-11
1.17821753196e-11
-7.67386092133e-09
-1.77800384991e-10
1.52186172211e-13
3.3248883674e-11
-8.09673300924e-09
-2.03932614413e-10
5.08473459785e-11
-8.48072733039e-09
-2.16801550262e-10
5.58971085351e-11
-8.81205713839e-09
-2.20168371411e-10
4.6608996876e-11
-9.08372331918e-09
-2.17968499753e-10
2.48052739479e-11
-9.28689654956e-09
-2.13729055384e-10
-5.30240564002e-12
-9.41588053764e-09
-2.10225095778e-10
-3.81760644494e-11
-9.46376145477e-09
-2.09151653645e-10
-6.73997839124e-11
-9.41663495025e-09
-2.10824893198e-10
-8.74720008085e-11
-9.28836318182e-09
-2.14904897933e-10
-9.42476777559e-11
-9.08579023808e-09
-2.19687652524e-10
-8.59789007831e-11
-8.81451604365e-09
-2.22391164089e-10
-6.45422941233e-11
-8.48334188258e-09
-2.19492559591e-10
-3.85837131542e-11
-8.09964851142e-09
-2.07090202658e-10
-7.67768483826e-09
-1.81462754552e-10
-2.15047365948e-11
-9.30093302346e-12
-8.93831212372e-09
-3.90268912399e-10
3.17580491048e-13
2.65126065495e-12
-9.42818517881e-09
-4.48852620438e-10
1.77552061368e-11
-9.86658643641e-09
-4.9078719319e-10
2.53462606589e-11
-1.02416307731e-08
-5.19118255525e-10
2.18848401268e-11
-1.05480872539e-08
-5.37119360963e-10
7.98606337862e-12
-1.07768962891e-08
-5.47787565372e-10
-1.31174105118e-11
-1.09220248078e-08
-5.53546800815e-10
-3.66698568169e-11
-1.09758338154e-08
-5.55764109132e-10
-5.68233643819e-11
-1.09229776293e-08
-5.54244242377e-10
-6.88447363462e-11
-1.07787645539e-08
-5.49158758168e-10
-6.9558242747e-11
-1.05507455316e-08
-5.39126527934e-10
-5.84176966539e-11
-1.02448567434e-08
-5.21713967387e-10
-3.90452588533e-11
-9.87012146672e-09
-4.93925157429e-10
-2.20966944753e-11
-9.43222435061e-09
-4.52523058632e-10
-8.94339963994e-09
-3.94511242829e-10
-2.53886642729e-11
-3.60183378536e-11
-9.84562211468e-09
-6.23669020495e-10
3.75249947574e-13
-3.87687477103e-11
-1.03789762602e-08
-7.17322357385e-10
-2.92584702745e-11
-1.08485547012e-08
-7.91000057233e-10
-1.95324989137e-11
-1.12468498673e-08
-8.46850082429e-10
-1.49245306344e-11
-1.15709782343e-08
-8.87271612043e-10
-1.65070861567e-11
-1.18125378267e-08
-9.14554010293e-10
-2.27967905023e-11
-1.19655896087e-08
-9.30638260881e-10
-3.07499687777e-11
-1.20222655822e-08
-9.36489114321e-10
-3.60806562769e-11
-1.19667049327e-08
-9.31386181115e-10
-3.5751409e-11
-1.18147466511e-08
-9.1603099693e-10
-2.83190540464e-11
-1.15741571548e-08
-8.89440820762e-10
-1.49168869626e-11
-1.12507757237e-08
-8.49659188704e-10
-9.55549028187e-13
-1.08529602233e-08
-7.94395340609e-10
1.49754507074e-12
-1.03840714787e-08
-7.21292583529e-10
-9.85190127352e-09
-6.28254131769e-10
-2.82054437656e-11
-6.59999399679e-11
-1.03937104874e-08
-8.55830417308e-10
3.75473750661e-13
-8.71296947224e-11
-1.09472928251e-08
-9.83922221468e-10
-8.55519308224e-11
-1.14266679488e-08
-1.08882957064e-09
-7.41862312511e-11
-1.18299713412e-08
-1.17182061125e-09
-6.007155729e-11
-1.21568638897e-08
-1.23438657262e-09
-4.62986166377e-11
-1.24000947751e-08
-1.27808134541e-09
-3.36938174355e-11
-1.25540371955e-08
-1.30434440394e-09
-2.16144316746e-11
-1.2610953404e-08
-1.3137481291e-09
-8.07581084318e-12
-1.25552794002e-08
-1.30510967814e-09
7.57232357204e-12
-1.24025791668e-08
-1.27960018537e-09
2.44768937773e-11
-1.21604768721e-08
-1.23662782474e-09
3.9495077436e-11
-1.18344986156e-08
-1.17473094708e-09
4.55164097005e-11
-1.14318455307e-08
-1.09234717199e-09
2.95752055175e-11
-1.09533240686e-08
-9.88029345939e-10
-1.04010684539e-08
-8.60567388198e-10
-3.00868589838e-11
-9.75153042485e-11
-1.05997320488e-08
-1.06927536926e-09
3.49776712116e-13
-1.39387398332e-10
-1.11521728124e-08
-1.22913152692e-09
-1.47395738504e-10
-1.162308852e-08
-1.36285435088e-09
-1.34895884215e-10
-1.20163512412e-08
-1.47093865346e-09
-1.10480734933e-10
-1.23340333742e-08
-1.55401310698e-09
-7.94666127775e-11
-1.25701484109e-08
-1.61291867848e-09
-4.53680088944e-11
-1.27194240347e-08
-1.64859886012e-09
-1.04094209132e-11
-1.27744933358e-08
-1.66126227993e-09
2.45881956928e-11
-1.27207590091e-08
-1.64936885418e-09
5.74138798093e-11
-1.25728396058e-08
-1.61445393139e-09
8.45327281623e-11
-1.23379836903e-08
-1.55628113695e-09
1.00582458055e-10
-1.20213661018e-08
-1.47388110244e-09
9.69034716186e-11
-1.16289193849e-08
-1.36640032319e-09
6.00850198145e-11
-1.11590087701e-08
-1.23325822944e-09
-1.06080613565e-08
-1.07402260029e-09
-3.12401089568e-11
-1.29567161692e-10
-1.04941746199e-08
-1.2516973481e-09
3.17143548744e-13
-1.93645229249e-10
-1.10268252714e-08
-1.43966800596e-09
-2.12436696513e-10
-1.14745144103e-08
-1.59898223864e-09
-1.99290777391e-10
-1.18460809827e-08
-1.72947524078e-09
-1.64187422116e-10
-1.21455574239e-08
-1.83095459949e-09
-1.14806993605e-10
-1.23680245718e-08
-1.9035549273e-09
-5.76091845316e-11
-1.25084989937e-08
-1.94770880452e-09
2.00553022326e-12
-1.25601599854e-08
-1.96327861201e-09
6.00732185171e-11
-1.25099041284e-08
-1.9484782338e-09
1.11204640714e-10
-1.23708717208e-08
-1.90509212169e-09
1.48921370979e-10
-1.21497721819e-08
-1.83322310217e-09
1.65499382229e-10
-1.18514956523e-08
-1.73240969124e-09
1.50893677185e-10
-1.14809069901e-08
-1.60250088404e-09
9.16994468916e-11
-1.10343728631e-08
-1.44374232272e-09
-1.05033870152e-08
-1.25636184476e-09
-3.18930509246e-11
-1.61823276444e-10
-1.01155917837e-08
-1.39536593044e-09
2.93415918247e-13
-2.49174037453e-10
-1.06128484529e-08
-1.60754412536e-09
-2.79752699929e-10
-1.10259436607e-08
-1.78911391825e-09
-2.66404089996e-10
-1.13674150602e-08
-1.93931891849e-09
-2.2037153806e-10
-1.16424345143e-08
-2.05714394179e-09
-1.51835796597e-10
-1.18467208057e-08
-2.14198501932e-09
-7.04058661983e-11
-1.19754990796e-08
-2.19371845082e-09
1.5122533407e-11
-1.20226474301e-08
-2.21185961269e-09
9.74055499043e-11
-1.19769642983e-08
-2.19448585696e-09
1.67652568346e-10
-1.18496982309e-08
-2.14351810653e-09
2.16234224857e-10
-1.16468745566e-08
-2.05940123712e-09
2.32923510926e-10
-1.13731844639e-08
-1.94222567656e-09
2.06410454395e-10
-1.10328551501e-08
-1.79257581143e-09
1.23800465766e-10
-1.06210741394e-08
-1.61152870036e-09
-1.01256600322e-08
-1.399896227e-09
-3.22551548531e-11
-1.94468689298e-10
-9.50667336973e-09
-1.4959824923e-09
2.87352526668e-13
-3.06245033315e-10
-9.95595797747e-09
-1.72855510606e-09
-3.49617954665e-10
-1.03263534022e-08
-1.92926390205e-09
-3.36387444542e-10
-1.06324481979e-08
-2.09674928222e-09
-2.79083289326e-10
-1.08792335362e-08
-2.22910640384e-09
-1.9059546264e-10
-1.10625263115e-08
-2.32492585431e-09
-8.38696916249e-11
-1.11777505311e-08
-2.38346444452e-09
2.8729559048e-11
-1.1219674024e-08
-2.40388219865e-09
1.36305864698e-10
-1.11792805992e-08
-2.38422901891e-09
2.26493807932e-10
-1.10656387671e-08
-2.32645183195e-09
2.86321771269e-10
-1.08839030039e-08
-2.23134858721e-09
3.02849638175e-10
-1.06385774549e-08
-2.09962379125e-09
2.63475859068e-10
-1.03337988103e-08
-1.93266238903e-09
1.56354566289e-10
-9.96489548241e-09
-1.73243808584e-09
-9.51761888603e-09
-1.50035672989e-09
-3.24953654317e-11
-2.28072475573e-10
-8.71164839971e-09
-1.55143648711e-09
3.09573753083e-13
-3.65931397973e-10
-9.10326953819e-09
-1.80079645141e-09
-4.23097324092e-10
-9.42629840053e-09
-2.0178631202e-09
-4.0997390277e-10
-9.69485418323e-09
-2.2005189408e-09
-3.4074824565e-10
-9.91182777289e-09
-2.34584937777e-09
-2.31318653662e-10
-1.00727281742e-08
-2.45156514291e-09
-9.81279297676e-11
-1.01733921132e-08
-2.51624335178e-09
4.27811682717e-11
-1.02096973958e-08
-2.53868049282e-09
1.7683470068e-10
-1.01750050868e-08
-2.51700671847e-09
2.87983592589e-10
-1.00760069425e-08
-2.45308707541e-09
3.59752184095e-10
-9.91676886373e-09
-2.34807950096e-09
3.76185539989e-10
-9.70140064594e-09
-2.20336333655e-09
3.23019941913e-10
-9.43435824794e-09
-2.02119779705e-09
1.89806328604e-10
-9.1130292747e-09
-1.80457304131e-09
-8.72355851071e-09
-1.55564538148e-09
-3.27184190397e-11
-2.63947932506e-10
-7.77443991557e-09
-1.56074493453e-09
3.735350446e-13
-4.30182226847e-10
-8.10196970961e-09
-1.82356247751e-09
-5.01458267186e-10
-8.37733158437e-09
-2.05459671859e-09
-4.87644043895e-10
-8.60912467781e-09
-2.25059657685e-09
-4.05438172284e-10
-8.79634705667e-09
-2.40751965496e-09
-2.73971466258e-10
-8.93448011449e-09
-2.52215441612e-09
-1.13172584116e-10
-9.02022128606e-09
-2.59236186655e-09
5.7214751655e-11
-9.05079401435e-09
-2.61657916111e-09
2.18904985661e-10
-9.02195140548e-09
-2.59312222883e-09
3.52141578748e-10
-8.93799108528e-09
-2.52366873534e-09
4.36955101132e-10
-8.80165168457e-09
-2.4097340388e-09
4.54150015192e-10
-8.6162043387e-09
-2.25340930263e-09
3.86944482126e-10
-8.38615280714e-09
-2.05786694634e-09
2.25428062652e-10
-8.11275079111e-09
-1.82722486981e-09
-7.78752546627e-09
-1.56477089769e-09
-3.28858072559e-11
-3.05160007204e-10
-6.73653886125e-09
-1.52330030531e-09
5.08736993794e-13
-5.00912141823e-10
-7.00036517915e-09
-1.79688144124e-09
-5.84349304782e-10
-7.23281722189e-09
-2.0399147797e-09
-5.68127440303e-10
-7.43007333565e-09
-2.24758462273e-09
-4.71943951526e-10
-7.58822354496e-09
-2.41476379633e-09
-3.17767659772e-10
-7.70385214742e-09
-2.5373406015e-09
-1.28734760988e-10
-7.77490130812e-09
-2.61245659468e-09
7.17926434874e-11
-7.79988392612e-09
-2.63821026238e-09
2.6176494158e-10
-7.77680866762e-09
-2.61320785985e-09
4.1779993733e-10
-7.70770845052e-09
-2.53883566051e-09
5.16709581184e-10
-7.59404549873e-09
-2.41694890731e-09
5.3644575131e-10
-7.43786775333e-09
-2.25035618429e-09
4.57200737503e-10
-7.24260242784e-09
-2.04311738246e-09
2.6628550077e-10
-7.01242227625e-09
-1.80041636641e-09
-6.7510427258e-09
-1.52710063744e-09
-3.30927183829e-11
-3.52658200199e-10
-1.43822203619e-09
6.83896022592e-13
-5.63933575459e-09
-5.74898698449e-10
-1.72175038519e-09
-5.84994254191e-09
-6.68287773619e-10
-1.97485244112e-09
-6.04535681693e-09
-6.49448404692e-10
-2.19247348673e-09
-6.21000843869e-09
-5.39634981914e-10
-2.368529976e-09
-6.34058802268e-09
-3.62697801648e-10
-2.49803640014e-09
-6.4353987482e-09
-1.4483456197e-10
-2.57741594566e-09
-6.49315583687e-09
8.664503485e-11
-2.60445296657e-09
-6.51318078669e-09
3.05518605198e-10
-2.5781445297e-09
-6.49533323105e-09
4.84448308284e-10
-2.49948600224e-09
-6.43978128435e-09
5.97170679427e-10
-2.37065033268e-09
-6.34717885209e-09
6.19731446343e-10
-2.1951683447e-09
-6.21881033954e-09
5.30748803564e-10
-1.97796096774e-09
-6.05641695078e-09
3.13489331091e-10
-1.72517164918e-09
-5.86354096399e-09
-1.44166561876e-09
-3.31575947915e-11
-5.65567628681e-09
-7.91766915953e-12
1.59588195065e-10
-7.37972442769e-11
-3.33655481879e-13
-1.41030060379e-11
1.76339938743e-10
-8.04223223861e-11
-1.72782094667e-11
1.9229757162e-10
-8.50317026661e-11
-1.74726104312e-11
2.07258019171e-10
-8.81632582605e-11
-1.47707492697e-11
2.19969386925e-10
-9.01948399542e-11
-9.72455956043e-12
2.29729353726e-10
-9.14337849164e-11
-3.1659293773e-12
2.35956950944e-10
-9.21338475782e-11
3.90883671126e-12
2.38226957624e-10
-9.24190471141e-11
1.04356434778e-11
2.36058754877e-10
-9.21905294635e-11
1.54372732271e-11
2.29936115572e-10
-9.15434430773e-11
1.81267639119e-11
2.20274198819e-10
-9.03511499467e-11
1.79744387786e-11
2.07612983234e-10
-8.83587504077e-11
1.48823097975e-11
1.92625712399e-10
-8.52612196069e-11
8.72716744626e-12
1.76589160706e-10
-8.06925781014e-11
1.59749433718e-10
-7.41495560079e-11
2.96655758931e-13
-1.89151820906e-11
4.62449794863e-10
-2.0105624384e-10
8.96769163826e-13
-3.26165546917e-11
5.06467973698e-10
-2.18961020555e-10
-3.9757124138e-11
5.47886648776e-10
-2.31086678886e-10
-3.9835061037e-11
5.86333169888e-10
-2.38931309345e-10
-3.31848386722e-11
6.19034767912e-10
-2.43680055306e-10
-2.1121019126e-11
6.44155118835e-10
-2.46344446524e-10
-5.56743264735e-12
6.60215212004e-10
-2.47758600358e-10
1.11464747239e-11
6.66123401577e-10
-2.48360369274e-10
2.64820785839e-11
6.60626326213e-10
-2.479402663e-10
3.810075113e-11
6.45018977046e-10
-2.4669629546e-10
4.40879990902e-11
6.2037441391e-10
-2.44181609039e-10
4.32069100406e-11
5.88003056273e-10
-2.39556665131e-10
3.52044509711e-11
5.49580568853e-10
-2.31814112929e-10
2.06495367621e-11
5.07818533301e-10
-2.19801624481e-10
4.63258212553e-10
-2.02090343797e-10
1.79575664803e-12
-2.29816117054e-11
8.10922732052e-10
-3.37203371238e-10
-3.34625037562e-13
-4.15933849419e-11
8.81934040905e-10
-3.69671196898e-10
-5.2215777828e-11
9.47792827132e-10
-3.92939436624e-10
-5.32595509645e-11
1.00788861009e-09
-4.09033616191e-10
-4.5019259608e-11
1.05874966924e-09
-4.19589035608e-10
-2.91604520844e-11
1.09764857376e-09
-4.260732931e-10
-8.34726707812e-12
1.12248505439e-09
-4.29707089559e-10
1.41656392778e-11
1.13159626085e-09
-4.31120579771e-10
3.48347511923e-11
1.12297788709e-09
-4.29947894939e-10
5.04304533195e-11
1.09868177294e-09
-4.26541538376e-10
5.83341891642e-11
1.06034120693e-09
-4.20261559521e-10
5.69179933856e-11
1.00985707246e-09
-4.09882484233e-10
4.58535184146e-11
9.49761307533e-10
-3.93941971975e-10
2.66015330073e-11
8.83464172806e-10
-3.70855607836e-10
8.11811029389e-10
-3.38681637028e-10
2.35424357609e-12
-2.35240350523e-11
1.14264432913e-09
-4.85698719455e-10
-1.06098970661e-12
-4.38347355431e-11
1.23361734249e-09
-5.36317326897e-10
-5.60966431918e-11
1.31671900295e-09
-5.74577362361e-10
-5.78656261736e-11
1.39111161221e-09
-6.02637435652e-10
-4.92305477675e-11
1.45360421234e-09
-6.22304569125e-10
-3.19386259863e-11
1.50112822783e-09
-6.3519163098e-10
-8.97288252843e-12
1.53140365491e-09
-6.4268889379e-10
1.59659392369e-11
1.54248448854e-09
-6.4548052538e-10
3.88202711869e-11
1.53183137167e-09
-6.42979873626e-10
5.59236656527e-11
1.50202610706e-09
-6.35759251449e-10
6.43440756406e-11
1.45497988999e-09
-6.23124229045e-10
6.23429823521e-11
1.39279310339e-09
-6.03680409813e-10
4.97411643614e-11
1.31835989453e-09
-5.75822637145e-10
2.87809942537e-11
1.23481863121e-09
-5.37791698912e-10
1.143264778e-09
-4.87523334518e-10
3.11068350073e-12
-2.12057622599e-11
1.41359220031e-09
-6.39227885592e-10
-1.4862906296e-12
-4.08147446776e-11
1.51407027286e-09
-7.10597813368e-10
-5.33037788469e-11
1.60417624579e-09
-7.66727205767e-10
-5.5637352145e-11
1.68301273431e-09
-8.09573504821e-10
-4.7562524842e-11
1.74848179763e-09
-8.40818631547e-10
-3.07051173476e-11
1.79788736329e-09
-8.62023216676e-10
-8.04298131899e-12
1.82926465857e-09
-8.74594378742e-10
1.66544098262e-11
1.84074072107e-09
-8.79176213331e-10
3.92129241023e-11
1.82955165028e-09
-8.74932510081e-10
5.58922411529e-11
1.79849730404e-09
-8.62683756222e-10
6.37549853235e-11
1.74941719794e-09
-8.4177442587e-10
6.11653817297e-11
1.68413414164e-09
-8.10792183432e-10
4.82711593691e-11
1.6052053131e-09
-7.68182323713e-10
2.78921897201e-11
1.51470246292e-09
-7.12310371117e-10
1.41375809587e-09
-6.41315851829e-10
3.94624960595e-12
-1.67081869666e-11
1.59901833891e-09
-7.91293344392e-10
-1.75059816732e-12
-3.39033194148e-11
1.69827373155e-09
-8.85137512697e-10
-4.55630896401e-11
1.78511654998e-09
-9.61138834502e-10
-4.83035329834e-11
1.85891927394e-09
-1.02080351563e-09
-4.15020521415e-11
1.91919260397e-09
-1.06545386408e-09
-2.65062670721e-11
1.96418842675e-09
-1.09641509659e-09
-6.03847682982e-12
1.99264688155e-09
-1.11497296825e-09
1.63631249445e-11
2.00307388695e-09
-1.12165067002e-09
3.67239578745e-11
1.99277721289e-09
-1.11535593428e-09
5.15230676554e-11
1.96447909555e-09
-1.09716319087e-09
5.80618042005e-11
1.91964587772e-09
-1.06653569778e-09
5.49724509651e-11
1.85943684065e-09
-1.02218007236e-09
4.27756189828e-11
1.7854940126e-09
-9.62774000852e-10
2.46543338524e-11
1.69831320979e-09
-8.87043257955e-10
1.59871184291e-09
-7.93580315529e-10
4.78667877701e-12
-1.07089320749e-11
1.69135801931e-09
-9.36138294419e-10
-1.92735474807e-12
-2.43366405166e-11
1.78068668619e-09
-1.05340690779e-09
-3.44016833037e-11
1.85612040659e-09
-1.15051019663e-09
-3.73922456111e-11
1.91773547369e-09
-1.22832736843e-09
-3.23467437484e-11
1.96681058721e-09
-1.28763778179e-09
-2.02334307495e-11
2.00286240894e-09
-1.32937136037e-09
-3.33614887347e-12
2.02553216623e-09
-1.35456518592e-09
1.526761549e-11
2.03388335811e-09
-1.36355042716e-09
3.20514000356e-11
2.02552304722e-09
-1.35499134557e-09
4.39404931103e-11
2.00286895305e-09
-1.33020295191e-09
4.86571644356e-11
1.96683603905e-09
-1.2888374439e-09
4.52068367089e-11
1.91771909832e-09
-1.2298467743e-09
3.44615654045e-11
1.85592938753e-09
-1.15230046472e-09
1.97562387375e-11
1.780217821e-09
-1.05546935483e-09
1.69067470469e-09
-9.38574336558e-10
5.58124948584e-12
-3.82704416369e-12
1.69606556816e-09
-1.06865530785e-09
-2.04825275854e-12
-1.3170291023e-11
1.76989538931e-09
-1.20960997627e-09
-2.11069381286e-11
1.82891788986e-09
-1.32835807617e-09
-2.41905709694e-11
1.87432768486e-09
-1.42504242475e-09
-2.11830284937e-11
1.90902686038e-09
-1.4997590631e-09
-1.26220703516e-11
1.93383309706e-09
-1.55290496807e-09
-2.2704528563e-13
1.94928758976e-09
-1.58515064228e-09
1.35534300888e-11
1.9550529735e-09
-1.59657194318e-09
2.58286971443e-11
1.94917075378e-09
-1.58561871288e-09
3.41380981937e-11
1.93362025756e-09
-1.55381691707e-09
3.67533239027e-11
1.90872629018e-09
-1.50107010057e-09
3.31069903649e-11
1.87391136757e-09
-1.42669272681e-09
2.43605594585e-11
1.82831362978e-09
-1.33028377229e-09
1.38162423061e-11
1.76908318114e-09
-1.21180135884e-09
1.69516291372e-09
-1.07120239181e-09
6.30181296103e-12
3.39120596616e-12
1.62686450695e-09
-1.18425500149e-09
-2.13211728493e-12
-1.27714375902e-12
1.68288448717e-09
-1.34851770833e-09
-6.73919612393e-12
1.72367549122e-09
-1.48882561946e-09
-9.76247959348e-12
1.75189467004e-09
-1.60453076277e-09
-8.91217055017e-12
1.77170578947e-09
-1.69493951195e-09
-4.27880658481e-12
1.78503713487e-09
-1.75979696818e-09
3.0606021432e-12
1.79317574733e-09
-1.79929818209e-09
1.13995850882e-11
1.79631575683e-09
-1.81320837857e-09
1.86143705151e-11
1.79298470825e-09
-1.7998068678e-09
2.29739615124e-11
1.78467560789e-09
-1.76078636912e-09
2.33802226438e-11
1.7711912286e-09
-1.69635652368e-09
1.97108126499e-11
1.75122831645e-09
-1.60630248508e-09
1.33358181142e-11
1.72283437803e-09
-1.49087178009e-09
7.37365536504e-12
1.68191706729e-09
-1.35081872178e-09
1.62594411349e-09
-1.18688519565e-09
6.92923996876e-12
1.04937405241e-11
1.50145672876e-09
-1.27871713269e-09
-2.18783528119e-12
1.06374086684e-11
1.54002716611e-09
-1.46528557436e-09
7.8426308638e-12
1.56336790759e-09
-1.62647903627e-09
5.0192143571e-12
1.57580429035e-09
-1.76084577289e-09
3.71679702942e-12
1.58227689649e-09
-1.86681319252e-09
4.29062412373e-12
1.5854865178e-09
-1.94336900093e-09
6.34374042148e-12
1.58720948574e-09
-1.9901335278e-09
8.97476707082e-12
1.58804208054e-09
-2.00651570557e-09
1.09008657208e-11
1.58697800073e-09
-1.99068167184e-09
1.11865681108e-11
1.58504735637e-09
-1.94443302313e-09
9.40464890004e-12
1.58166060518e-09
-1.86833177458e-09
5.87550325882e-12
1.57503700167e-09
-1.7627324371e-09
2.09417216502e-12
1.56246798603e-09
-1.62863631241e-09
8.82105900846e-13
1.5390964752e-09
-1.46768365628e-09
1.50071733873e-09
-1.2814107342e-09
7.44921659124e-12
1.71327709803e-11
1.33820130341e-09
-1.34804856291e-09
-2.22898759362e-12
2.20266747986e-11
1.36148567953e-09
-1.55529540524e-09
2.19640010016e-11
1.36992989984e-09
-1.73615961002e-09
1.94488322163e-11
1.36956484961e-09
-1.88837153242e-09
1.60838097623e-11
1.36557795482e-09
-2.00938997517e-09
1.26615207505e-11
1.36101186337e-09
-2.09734971327e-09
9.47499003954e-12
1.35784655622e-09
-2.15120852563e-09
6.43664395994e-12
1.35690832797e-09
-2.16998255309e-09
3.12326248372e-12
1.35760577481e-09
-2.15179466157e-09
-5.92339894038e-13
1.3605593371e-09
-2.09848613158e-09
-4.45524985027e-12
1.36495800043e-09
-2.01100654472e-09
-7.71072513896e-12
1.36882779248e-09
-1.89036750066e-09
-8.80565054043e-12
1.36912992885e-09
-1.73841961871e-09
-5.30528945058e-12
1.36076680768e-09
-1.55778059492e-09
1.33783871119e-09
-1.35079279349e-09
7.85314298114e-12
2.30611556872e-11
1.15396506747e-09
-1.38836598579e-09
-2.26596283789e-12
3.24998708298e-11
1.16497807828e-09
-1.61405719515e-09
3.51278168562e-11
1.16203466416e-09
-1.81292956307e-09
3.2974170294e-11
1.15267891339e-09
-1.98180039876e-09
2.76786928278e-11
1.14177225787e-09
-2.11704874788e-09
2.04788834084e-11
1.13224439143e-09
-2.21587387192e-09
1.23328910547e-11
1.12598811586e-09
-2.27650009273e-09
3.93170503761e-12
1.12392014536e-09
-2.29752899719e-09
-4.33909820192e-12
1.12576225133e-09
-2.27712108853e-09
-1.18299472886e-11
1.13183028216e-09
-2.21707710251e-09
-1.76261191432e-11
1.1412278112e-09
-2.11875723702e-09
-2.05318488744e-11
1.15208036958e-09
-1.98390028873e-09
-1.89573138764e-11
1.16147143739e-09
-1.81528684152e-09
-1.09285174359e-11
1.1646317071e-09
-1.61662218038e-09
1.15414338557e-09
-1.39115095857e-09
8.12918922398e-12
2.81541157116e-11
9.62867258588e-10
-1.39580766675e-09
-2.32615128632e-12
4.18984175854e-11
9.64631029143e-10
-1.63723976464e-09
4.70577825501e-11
9.54182737346e-10
-1.85218701282e-09
4.52000923843e-11
9.39934212451e-10
-2.03626288722e-09
3.80927618206e-11
9.25766949902e-10
-2.18466199625e-09
2.74384999124e-11
9.14100917336e-10
-2.29360195139e-09
1.48184974152e-11
9.06555074321e-10
-2.36052942748e-09
1.58582068534e-12
9.0398227094e-10
-2.38362609498e-09
-1.11558286591e-11
9.06369127935e-10
-2.36118093044e-09
-2.20965317216e-11
9.1377045991e-10
-2.29486471347e-09
-2.96966357066e-11
9.25365428244e-10
-2.18645450908e-09
-3.23004610651e-11
9.39562478357e-10
-2.0384605837e-09
-2.81924329723e-11
9.53975070895e-10
-1.85463616986e-09
-1.5859565711e-11
9.64804711603e-10
-1.63987317466e-09
9.63753958988e-10
-1.39861422445e-09
8.24619322192e-12
3.25314609319e-11
7.75675136917e-10
-1.36648943339e-09
-2.45437686563e-12
5.03969838417e-11
7.70647929943e-10
-1.6210004454e-09
5.76913214856e-11
7.56787799784e-10
-1.85004741884e-09
5.5834537769e-11
7.41619343374e-10
-2.0476480283e-09
4.69677077868e-11
7.27512240473e-10
-2.20786678166e-09
3.32785289471e-11
7.16201213626e-10
-2.32595867625e-09
1.68336775301e-11
7.08919610406e-10
-2.39858136114e-09
-4.81223807103e-13
7.06413230621e-10
-2.42350861214e-09
-1.70524566705e-11
7.08802499558e-10
-2.39925521283e-09
-3.10311386438e-11
7.16012403333e-10
-2.32726668184e-09
-4.03872958947e-11
7.27331332866e-10
-2.20972702403e-09
-4.29727438343e-11
7.41566520323e-10
-2.04993150679e-09
-3.67030460313e-11
7.57027350005e-10
-1.8525824604e-09
-2.02141100417e-11
7.71458535744e-10
-1.62368550814e-09
7.77438290673e-10
-1.36927616685e-09
8.16217790161e-12
3.64504785972e-11
-1.29726117101e-09
-2.68372474564e-12
6.0067030698e-10
5.86575549211e-11
-1.56365273392e-09
5.9013551557e-10
6.71209549327e-11
-1.80436009339e-09
5.77621313098e-10
6.46560095912e-11
-2.01327587086e-09
5.6468821251e-10
5.40316668104e-11
-2.18352311153e-09
5.52931974784e-10
3.7787034497e-11
-2.30944833577e-09
5.43665412627e-10
1.83107755829e-11
-2.38693494109e-09
5.37739410629e-10
-2.21567108368e-12
-2.41337719867e-09
5.35692175264e-10
-2.18316597512e-11
-2.38761529617e-09
5.37736138196e-10
-3.83871817204e-11
-2.31077164792e-09
5.43694257423e-10
-4.95126959676e-11
-2.18541211456e-09
5.53068124198e-10
-5.26959886959e-11
-2.01560800313e-09
5.65046519182e-10
-4.52018082865e-11
-1.80695450072e-09
5.78395467078e-10
-2.42737861549e-11
-1.56639930222e-09
5.91636713599e-10
-1.29990289635e-09
7.79306572992e-12
6.03496660442e-10
3.60596209275e-12
-5.42077799013e-11
-2.34619147653e-11
-6.25541492981e-14
5.58685997602e-12
-6.05169773938e-11
-2.22873047232e-11
6.38799227289e-12
-6.70515136762e-11
-1.92434618281e-11
6.1968152584e-12
-7.304036257e-11
-1.53284222905e-11
5.13107044405e-12
-7.81580008204e-11
-1.13595317527e-11
3.40182530276e-12
-8.20542712704e-11
-8.01209258026e-12
1.25934004134e-12
-8.45099756478e-11
-5.79627074948e-12
-1.0266163215e-12
-8.53664166222e-11
-5.03313576626e-12
-3.16256887345e-12
-8.44577421323e-11
-5.82733730617e-12
-4.88162710722e-12
-8.1956152093e-11
-8.07461271657e-12
-5.94659036554e-12
-7.80210205806e-11
-1.14539516883e-11
-6.15868819353e-12
-7.28680728912e-11
-1.54562991258e-11
-5.37153888392e-12
-6.68070682864e-11
-1.94093545968e-11
-3.42327225509e-12
-6.02936469694e-11
-2.25068537386e-11
-5.40550963879e-11
-2.37824328072e-11
1.14457030406e-13
9.14045587637e-12
-1.2241778584e-10
-1.41509556799e-10
-1.02459182276e-12
1.39407975531e-11
-1.34960153465e-10
-1.49987785359e-10
1.58086463572e-11
-1.47867356841e-10
-1.5285124285e-10
1.51563442825e-11
-1.59781509231e-10
-1.52194923162e-10
1.23417628349e-11
-1.69904347293e-10
-1.49743898508e-10
7.88902532069e-12
-1.77587882629e-10
-1.4692907997e-10
2.40570224546e-12
-1.82424034762e-10
-1.44857419045e-10
-3.42390111851e-12
-1.84140455607e-10
-1.44182371816e-10
-8.83640087626e-12
-1.82413887581e-10
-1.44943237935e-10
-1.31250810828e-11
-1.77595198901e-10
-1.47101963607e-10
-1.56656493685e-11
-1.69963382183e-10
-1.50005326714e-10
-1.59495608325e-11
-1.59878201989e-10
-1.52549826158e-10
-1.36137096661e-11
-1.47914616308e-10
-1.53313380728e-10
-8.39336796831e-12
-1.34967557692e-10
-1.50601569965e-10
-1.22350965212e-10
-1.42380212443e-10
-4.04212187028e-14
1.18989730937e-11
-1.80854648245e-10
-2.90511510315e-10
-6.5010262657e-13
1.92671875266e-11
-1.97760796999e-10
-3.14841476194e-10
2.26138393903e-11
-2.14801575643e-10
-3.29978323174e-10
2.2192458767e-11
-2.30446613443e-10
-3.38541414445e-10
1.84555631186e-11
-2.43608329936e-10
-3.42713867064e-10
1.21454441361e-11
-2.53531170128e-10
-3.44339950101e-10
4.20044161829e-12
-2.59754898087e-10
-3.44886824267e-10
-4.31180798917e-12
-2.6196718798e-10
-3.4517573849e-10
-1.22240433137e-11
-2.59742911417e-10
-3.45053088165e-10
-1.84640638282e-11
-2.53537534414e-10
-3.44671369527e-10
-2.20986990578e-11
-2.43671193037e-10
-3.4320669347e-10
-2.23897191374e-11
-2.30545215829e-10
-3.39194061403e-10
-1.88538805719e-11
-2.1484634924e-10
-3.30799810215e-10
-1.12900926565e-11
-1.97740810358e-10
-3.15882767821e-10
-1.80759687764e-10
-2.91904841838e-10
1.24685255736e-13
1.34576569603e-11
-2.28342734089e-10
-4.51673846796e-10
-4.56867336465e-13
2.24647256684e-11
-2.4810884784e-10
-4.95514291669e-10
2.68589343728e-11
-2.67489180558e-10
-5.26850727446e-10
2.66771098654e-11
-2.85046219747e-10
-5.4840243448e-10
2.23866209981e-11
-2.9966421811e-10
-5.62473213339e-10
1.48644992417e-11
-3.10605392111e-10
-5.71064714452e-10
5.27372343375e-12
-3.17444427801e-10
-5.75823515979e-10
-5.04227285435e-12
-3.19871161895e-10
-5.77624293487e-10
-1.46203748021e-11
-3.17402885678e-10
-5.76064984253e-10
-2.21203972713e-11
-3.10546280066e-10
-5.71543505282e-10
-2.6391093055e-11
-2.9961667883e-10
-5.63179525152e-10
-2.65514101988e-11
-2.84993569349e-10
-5.49326453345e-10
-2.20947746513e-11
-2.67372341397e-10
-5.27992632578e-10
-1.29931870291e-11
-2.47934126822e-10
-4.96920900991e-10
-2.28145346208e-10
-4.53482421413e-10
1.52594951593e-13
1.40609539106e-11
-2.64093296734e-10
-6.17576651126e-10
-3.79773411509e-13
2.39131746668e-11
-2.85430649041e-10
-6.83582128078e-10
2.89391750623e-11
-3.0567661125e-10
-7.34054890662e-10
2.89670719728e-11
-3.23645645817e-10
-7.71476171399e-10
2.44292355836e-11