/*--------------------------------*- C++ -*----------------------------------*\
  =========                 |
  \\      /  F ield         | OpenFOAM: The Open Source CFD Toolbox
   \\    /   O peration     | Website:  https://openfoam.org
    \\  /    A nd           | Version:  7
     \\/     M anipulation  |
\*---------------------------------------------------------------------------*/
FoamFile
{
    version     2.0;
    format      ascii;
    class       surfaceScalarField;
    location    "1.7";
    object      phi;
}
// * * * * * * * * * * * * * * * * * * * * * * * * * * * * * * * * * * * * * //

dimensions      [0 3 -1 0 0 0 0];

internalField   nonuniform List<scalar> 
65775
(
2.82875391483e-11
4.66957638707e-09
7.87569837738e-10
7.53143149596e-15
4.1252616739e-11
4.88513688187e-09
8.71365669188e-10
4.83244979695e-11
5.06700125787e-09
9.50882920077e-10
4.70908195156e-11
5.22393706942e-09
1.02225154324e-09
3.91341403129e-11
5.34858526004e-09
1.08188955753e-09
2.57753860837e-11
5.43962708068e-09
1.12685970567e-09
9.00281711142e-12
5.49681125791e-09
1.15523700483e-09
-8.97980964609e-12
5.51853152319e-09
1.16543415899e-09
-2.57530867636e-11
5.49680888454e-09
1.15523699906e-09
-3.91131275157e-11
5.43962249263e-09
1.12685970228e-09
-4.70716503714e-11
5.34857846388e-09
1.08188955932e-09
-4.83074947432e-11
5.22392831272e-09
1.02225155441e-09
-4.12378594105e-11
5.06699069624e-09
9.50883030045e-10
-2.8273643658e-11
4.88512577453e-09
8.71366587924e-10
4.66956931634e-09
7.87575001685e-10
1.69418450852e-14
7.36780171933e-11
7.87908904247e-09
1.94275290464e-09
1.69775675954e-14
1.20165688016e-10
8.20828064144e-09
2.13928175225e-09
1.41320391908e-10
8.4846489379e-09
2.32400439944e-09
1.38930506287e-10
8.71878910042e-09
2.48852925336e-09
1.1572412064e-10
8.90351019801e-09
2.62513429277e-09
7.63172224141e-11
9.03745176363e-09
2.72765237201e-09
2.66248303926e-11
9.12149667665e-09
2.79216267691e-09
-2.65682782173e-11
9.15368065789e-09
2.81532928177e-09
-7.62623200495e-11
9.12149139735e-09
2.79216265561e-09
-1.1567229981e-10
9.03744144144e-09
2.72765234119e-09
-1.38883005895e-10
8.90349489579e-09
2.6251342501e-09
-1.41278034443e-10
8.71876907315e-09
2.48852920048e-09
-1.20128326238e-10
8.48462437418e-09
2.32400457711e-09
-7.36443428574e-11
8.20825363459e-09
2.13928412395e-09
7.87906827802e-09
1.94276486573e-09
4.05057073686e-14
1.1068512131e-10
9.95479554236e-09
2.78005640348e-09
2.24776454396e-14
1.84424758635e-10
1.03274533131e-08
3.05543521419e-09
2.16701173009e-10
1.06405974045e-08
3.31242085135e-09
2.12857224759e-10
1.08996118992e-08
3.54003799726e-09
1.77050680315e-10
1.11023327506e-08
3.72816184573e-09
1.16627721337e-10
1.12480247664e-08
3.86885383503e-09
4.06509026025e-11
1.13393339368e-08
3.95716809658e-09
-4.05709697454e-11
1.13746564584e-08
3.98882757551e-09
-1.16550039387e-10
1.13393269138e-08
3.95716797122e-09
-1.76977247879e-10
1.12480109548e-08
3.8688535987e-09
-2.12789699305e-10
1.11023121863e-08
3.72816147994e-09
-2.16640654445e-10
1.08995846133e-08
3.54003747901e-09
-1.8437099627e-10
1.06405632951e-08
3.3124204519e-09
-1.10637396205e-10
1.03274146553e-08
3.05543747666e-09
9.95476250216e-09
2.7800711001e-09
5.68127752756e-14
1.41859693369e-10
1.11402309577e-08
3.37966006934e-09
2.56296470323e-14
2.36810381471e-10
1.15096831393e-08
3.7106012672e-09
2.78083854417e-10
1.18205502833e-08
4.01725835751e-09
2.72583047949e-10
1.20707848607e-08
4.28736997423e-09
2.26334574824e-10
1.2264480363e-08
4.50960376011e-09
1.48888723548e-10
1.24021775232e-08
4.67523072427e-09
5.18518596709e-11
1.24883429741e-08
4.7789292635e-09
-5.17557464098e-11
1.25221171474e-08
4.816024735e-09
-1.48795252827e-10
1.24883353323e-08
4.77892894198e-09
-2.26246115455e-10
1.2402162394e-08
4.67523005705e-09
-2.72501526906e-10
1.22644577087e-08
4.50960269469e-09
-2.7801047305e-10
1.20707544521e-08
4.28736842566e-09
-2.36744927278e-10
1.18205114744e-08
4.01725648788e-09
-1.41801690312e-10
1.15096381018e-08
3.71060161131e-09
1.11401894637e-08
3.37967307523e-09
6.86346570016e-14
1.67367863772e-10
1.16360627301e-08
3.78426399747e-09
2.71514353103e-14
2.7895838508e-10
1.19725943829e-08
4.15271439034e-09
3.2741632079e-10
1.22567763001e-08
4.49163992321e-09
3.20357796784e-10
1.24784646753e-08
4.78844631554e-09
2.65601378521e-10
1.26475704617e-08
5.03149437839e-09
1.74510357382e-10
1.27661597334e-08
5.2119802461e-09
6.0731086199e-11
1.28402272346e-08
5.32466941865e-09
-6.06239404219e-11
1.28697653252e-08
5.36488098307e-09
-1.74406106469e-10
1.28402199618e-08
5.32466882188e-09
-2.65502621342e-10
1.2766145264e-08
5.21197899774e-09
-3.20266619825e-10
1.26475486172e-08
5.03149236558e-09
-3.27333931563e-10
1.24784349824e-08
4.78844334066e-09
-2.78884550601e-10
1.22567375364e-08
4.49163593432e-09
-1.67302114978e-10
1.19725485844e-08
4.1527116132e-09
1.1636018516e-08
3.78427265402e-09
7.76008567432e-14
1.8805385944e-10
1.16086010278e-08
4.0273811063e-09
2.75823526746e-14
3.1240867889e-10
1.18955304315e-08
4.41935994369e-09
3.66352172663e-10
1.21397637765e-08
4.77723212953e-09
3.57838679321e-10
1.23233268747e-08
5.0887445626e-09
2.96265563067e-10
1.24606981932e-08
5.34259870748e-09
1.9444962028e-10
1.25553736709e-08
5.53040738525e-09
6.76279325238e-11
1.26143734548e-08
5.64732296779e-09
-6.75131395518e-11
1.26384559012e-08
5.68892110153e-09
-1.94337877816e-10
1.26143674723e-08
5.64732209414e-09
-2.9615961699e-10
1.25553616741e-08
5.53040553886e-09
-3.57740680426e-10
1.24606798783e-08
5.34259568615e-09
-3.66263274383e-10
1.23233015029e-08
5.0887400076e-09
-3.12328478106e-10
1.21397297119e-08
4.7772256955e-09
-1.87981762018e-10
1.18954892288e-08
4.41935348625e-09
1.16085600128e-08
4.0273844864e-09
8.47094669538e-14
2.04842284534e-10
1.11951976219e-08
4.13704479813e-09
2.73100818778e-14
3.38664408001e-10
1.14257994774e-08
4.54199429461e-09
3.96535418774e-10
1.16249610266e-08
4.90893436762e-09
3.86629013612e-10
1.17679574386e-08
5.22639491212e-09
3.19670712056e-10
1.18722960321e-08
5.48383917267e-09
2.09603528662e-10
1.19425864824e-08
5.67359377734e-09
7.28579624556e-11
1.19862830989e-08
5.7913565675e-09
-7.27374574935e-11
1.2004706233e-08
5.83311218557e-09
-2.09486171622e-10
1.19862791668e-08
5.79135545048e-09
-3.19559323931e-10
1.19425784972e-08
5.67359138981e-09
-3.86525750903e-10
1.18722835755e-08
5.48383520193e-09
-3.96441304572e-10
1.17679395288e-08
5.22638880893e-09
-3.38578818796e-10
1.16249356823e-08
4.90892547816e-09
-2.04764403693e-10
1.14257678166e-08
4.5419841868e-09
1.1195165315e-08
4.13704303589e-09
9.07802415293e-14
2.18378188446e-10
1.05083925133e-08
4.1374215757e-09
2.65451620835e-14
3.58955820918e-10
1.06830474949e-08
4.54769477046e-09
4.19434367292e-10
1.08375878781e-08
4.91673700605e-09
4.08207970552e-10
1.09422194559e-08
5.23410947079e-09
3.37072365387e-10
1.10159674626e-08
5.4902684552e-09
2.20812421604e-10
1.10641262893e-08
5.67839369409e-09
7.67164939015e-11
1.10939972337e-08
5.79477571386e-09
-7.65910609515e-11
1.11072029786e-08
5.83587449208e-09
-2.20690186745e-10
1.10939959749e-08
5.79477440539e-09
-3.36956166611e-10
1.10641235946e-08
5.67839086616e-09
-4.08099927768e-10
1.10159627922e-08
5.49026367795e-09
-4.19335335612e-10
1.09422116399e-08
5.23410200246e-09
-3.58864932282e-10
1.08375746389e-08
4.91672592185e-09
-2.18294513344e-10
1.06830294705e-08
4.54768150606e-09
1.05083736805e-08
4.13741545771e-09
9.63248019359e-14
2.29112393631e-10
9.63930162854e-09
4.04948455705e-09
2.54731539349e-14
3.74294623908e-10
9.76296955893e-09
4.45985131385e-09
4.36360296398e-10
9.8767870711e-09
4.82641751798e-09
4.23941005338e-10
9.94793839752e-09
5.13987165853e-09
3.49643206037e-10
9.99564745815e-09
5.39174775765e-09
2.28862117064e-10
1.00254139356e-08
5.57610126383e-09
7.94794514756e-11
1.00438624049e-08
5.68978474567e-09
-7.93489283309e-11
1.00526519875e-08
5.72973966682e-09
-2.28734789402e-10
1.00438642825e-08
5.6897833088e-09
-3.49521889637e-10
1.00254174751e-08
5.57609812748e-09
-4.23827739795e-10
9.99565204296e-09
5.39174238625e-09
-4.36255793463e-10
9.94794266122e-09
5.13986314417e-09
-3.74197819734e-10
9.87678853443e-09
4.82640473962e-09
-2.29022438039e-10
9.76296832393e-09
4.45983574746e-09
9.63929995617e-09
4.04947527598e-09
1.01773538096e-13
2.37385323047e-10
8.66062977989e-09
3.89130436652e-09
2.42034724891e-14
3.85549771436e-10
8.74073474977e-09
4.29846137242e-09
4.48527948339e-10
8.81949077644e-09
4.65984075808e-09
4.35126570915e-10
8.86329503602e-09
4.96724245332e-09
3.58502867152e-10
8.8904666461e-09
5.21326033781e-09
2.34499500173e-10
8.90618768279e-09
5.39277182055e-09
8.14081319537e-11
8.91597973269e-09
5.50311472497e-09
-8.1271549671e-11
8.92130702719e-09
5.54168160981e-09
-2.34366052515e-10
8.91598501927e-09
5.50311323678e-09
-3.58375300869e-10
8.90619802679e-09
5.39276854574e-09
-4.35006845937e-10
8.89048138967e-09
5.21325466548e-09
-4.48416680651e-10
8.86331268709e-09
4.9672333595e-09
-3.85445854125e-10
8.81950866474e-09
4.65982701692e-09
-2.37288206362e-10
8.74075243227e-09
4.29844465087e-09
8.66064780285e-09
3.89129338535e-09
1.07489630811e-13
2.43440353598e-10
7.62949680183e-09
3.67822250469e-09
2.28478585497e-14
3.93509912602e-10
7.67416347295e-09
4.08032827805e-09
4.57131602311e-10
7.72404046343e-09
4.43519169887e-09
4.43046626963e-10
7.74697218722e-09
4.7356321128e-09
3.64738704146e-10
7.75933380579e-09
4.97522255329e-09
2.38437316249e-10
7.76539825527e-09
5.14956752423e-09
8.27494123451e-11
7.76928850569e-09
5.25639328422e-09
-8.26051062242e-11
7.77211980613e-09
5.29349544872e-09
-2.38296016105e-10
7.76929725212e-09
5.25639184741e-09
-3.64603046399e-10
7.76541554993e-09
5.14956434256e-09
-4.42918507767e-10
7.7593590001e-09
4.97521698879e-09
-4.57011670131e-10
7.74700373251e-09
4.73562309078e-09
-3.93397214845e-10
7.72407557191e-09
4.4351779719e-09
-2.43334857107e-10
7.67420110373e-09
4.08031180159e-09
7.62953567972e-09
3.67821149804e-09
1.13813618997e-13
2.47428671953e-10
6.59008792565e-09
3.42302206034e-09
2.13980930832e-14
3.9906263399e-10
6.60650731405e-09
3.81928446497e-09
4.63520620813e-10
6.63352449302e-09
4.16726163665e-09
4.49046533151e-10
6.64204531685e-09
4.46065196025e-09
3.69417072989e-10
6.64517277552e-09
4.69389839286e-09
2.41343256441e-10
6.64565840841e-09
4.86322486771e-09
8.37295211952e-11
6.64614187854e-09
4.96664806878e-09
-8.35752452734e-11
6.64736080343e-09
5.00231412548e-09
-2.4119178124e-10
6.64615389856e-09
4.96664682743e-09
-3.6927090383e-10
6.64568227422e-09
4.86322210398e-09
-4.48907549556e-10
6.64520796951e-09
4.69389350676e-09
-4.63389673116e-10
6.64209036779e-09
4.4606438991e-09
-3.98939185961e-10
6.63357659871e-09
4.16724917557e-09
-2.4731341062e-10
6.60656474571e-09
3.81926984256e-09
6.59014748802e-09
3.42301286064e-09
1.21113262337e-13
2.49736004393e-10
5.57577285173e-09
3.13613308688e-09
1.98778568992e-14
4.03775531906e-10
5.56868951236e-09
3.52647636377e-09
4.69470493362e-10
5.5790614847e-09
3.86781242579e-09
4.54526513602e-10
5.57971269355e-09
4.15455441829e-09
3.73479406769e-10
5.57874289654e-09
4.38191105378e-09
2.43752571894e-10
5.57710517174e-09
4.54662597136e-09
8.45221376048e-11
5.57621550271e-09
4.6469179693e-09
-8.43552202412e-11
5.57655127795e-09
4.68123407497e-09
-2.43588218412e-10
5.57623030062e-09
4.64691711845e-09
-3.73319939528e-10
5.57713470055e-09
4.54662406178e-09
-4.54373896217e-10
5.57878680897e-09
4.3819076065e-09
-4.69325984117e-10
5.57976982931e-09
4.15454848728e-09
-4.03639335498e-10
5.57912924092e-09
3.86780279002e-09
-2.49609712189e-10
5.56876552125e-09
3.52646532439e-09
5.57585164984e-09
3.13612741204e-09
1.29032443284e-13
2.52519949947e-10
4.60944559002e-09
2.82587395278e-09
1.8193644399e-14
4.10769090652e-10
4.58185212316e-09
3.21072226449e-09
4.76930547027e-10
4.58378103356e-09
3.54600419147e-09
4.60332692745e-10
4.58288852704e-09
3.82672687516e-09
3.77233795857e-10
4.58179706927e-09
4.04880515662e-09
2.45768148611e-10
4.58043298764e-09
4.2094183565e-09
8.51519662734e-11
4.57955561547e-09
4.30691097135e-09
-8.49696078976e-11
4.57952993438e-09
4.33998673327e-09
-2.45588106525e-10
4.57957245659e-09
4.30691073965e-09
-3.77058260201e-10
4.58046667522e-09
4.20941780839e-09
-4.60163760918e-10
4.58184748377e-09
4.0488040365e-09
-4.76770103598e-10
4.58295500662e-09
3.82672448054e-09
-4.10618329118e-10
4.58386166556e-09
3.5459992887e-09
-2.52381695906e-10
4.58194440628e-09
3.21071662771e-09
4.60954075366e-09
2.82587302975e-09
1.37647925184e-13
2.68143896388e-10
2.49927178033e-09
1.63692445216e-14
3.69460930724e-09
4.27424479186e-10
2.87944596398e-09
3.66469578715e-09
4.88795863855e-10
3.20917247479e-09
3.66796349401e-09
4.67378539855e-10
3.48439185231e-09
3.66924596806e-09
3.80935862631e-10
3.7016891349e-09
3.66963750752e-09
2.4745034231e-10
3.85861078336e-09
3.66952317469e-09
8.56277101825e-11
3.95356928996e-09
3.66931745693e-09
-8.54273780394e-11
3.98549325329e-09
3.66923249265e-09
-2.47252221073e-10
3.95356981946e-09
3.66933551491e-09
-3.80742117581e-10
3.85861191215e-09
3.66955934934e-09
-4.67191464963e-10
3.70169091393e-09
3.66969183014e-09
-4.88617975298e-10
3.4843940346e-09
3.66931830026e-09
-4.27258317982e-10
3.20917391165e-09
3.6680530256e-09
-2.67993995731e-10
2.87944847847e-09
3.66480035952e-09
2.499274417e-09
1.47257174124e-13
3.6947179206e-09
-8.99720842564e-12
3.34363413023e-10
4.62209218776e-10
4.24426476228e-15
-1.16212006001e-11
3.65497479322e-10
5.08507722078e-10
-1.24203786858e-11
3.99677984911e-10
5.52020382599e-10
-1.17629762457e-11
4.30708933919e-10
5.90900116452e-10
-9.66182333041e-12
4.56529217655e-10
6.23271028027e-10
-6.35129536291e-12
4.75942650907e-10
6.47615942015e-10
-2.21358112601e-12
4.88145878981e-10
6.62961679879e-10
2.21913587397e-12
4.9251870663e-10
6.68490480176e-10
6.35705352431e-12
4.88144593213e-10
6.62961862758e-10
9.66785759837e-12
4.75939687904e-10
6.47616288302e-10
1.17688751537e-11
4.56523821471e-10
6.23271497863e-10
1.24253291032e-11
4.30700984227e-10
5.90900683091e-10
1.16247843168e-11
3.9966876599e-10
5.52021163659e-10
8.99957267931e-12
3.65488392461e-10
5.08509534009e-10
3.3436063938e-10
4.62215403108e-10
4.35014552599e-15
-1.42200959652e-11
9.55835378674e-10
1.33550827611e-09
1.07099568735e-14
-1.86259469265e-11
1.03657291062e-09
1.47263648588e-09
-1.94769888049e-11
1.12290259171e-09
1.601656502e-09
-1.80560653744e-11
1.20086757173e-09
1.7169725112e-09
-1.46131849622e-11
1.26521847308e-09
1.81302047734e-09
-9.51763746326e-12
1.31323370687e-09
1.8852808282e-09
-3.30337784015e-12
1.34330311222e-09
1.93080458844e-09
3.32355934335e-12
1.35409114732e-09
1.94714244852e-09
9.53799662915e-12
1.3432997515e-09
1.93080499129e-09
1.4633573085e-11
1.31322626277e-09
1.88528157979e-09
1.80754375857e-11
1.26520564967e-09
1.81302147662e-09
1.94934882411e-11
1.20084895241e-09
1.71697370038e-09
1.86383883617e-11
1.12288035353e-09
1.6016582284e-09
1.4228211543e-11
1.0365512721e-09
1.47264106049e-09
9.55826559188e-10
1.33552317131e-09
1.29511792569e-14
-1.10771349558e-11
1.6537185954e-09
2.09325186025e-09
1.53746951248e-14
-1.37605427713e-11
1.78303188464e-09
2.31168158346e-09
-1.34032436469e-11
1.91821934228e-09
2.51677008925e-09
-1.16835722783e-11
2.03949642702e-09
2.69971000233e-09
-9.05384215646e-12
2.13893031062e-09
2.85183696169e-09
-5.74339766014e-12
2.21264581031e-09
2.96614521239e-09
-1.96916482341e-12
2.25865221942e-09
3.03805721865e-09
2.00534794964e-12
2.27516655503e-09
3.06378932065e-09
5.77943780492e-12
2.25864709455e-09
3.03805762298e-09
9.08919065371e-12
2.2126347523e-09
2.96614594161e-09
1.17167027701e-11
2.13891189353e-09
2.85183786864e-09
1.3431757909e-11
2.03947014976e-09
2.69971100082e-09
1.37826954626e-11
1.91818762378e-09
2.51677164189e-09
1.10922048914e-11
1.78300128144e-09
2.31168686817e-09
1.65370504578e-09
2.09327102594e-09
2.20400445643e-14
-2.41520230231e-12
2.31512262356e-09
2.72066833444e-09
1.89212823131e-14
-6.70751482092e-13
2.48394045047e-09
3.00796819017e-09
1.77057535705e-12
2.65635351331e-09
3.27670367003e-09
3.33212179577e-12
2.80968305918e-09
3.51564009258e-09
3.5824863245e-12
2.93449938314e-09
3.71379951257e-09
2.65723434494e-12
3.02643154546e-09
3.8623831681e-09
9.72988325732e-13
3.08360284694e-09
3.95567454181e-09
-9.21105235769e-13
3.10413508956e-09
3.98896120142e-09
-2.60592179048e-12
3.0835965407e-09
3.95567465375e-09
-3.53272861025e-12
3.02641815841e-09
3.86238332399e-09
-3.28578709689e-12
2.93447758039e-09
3.71379952953e-09
-1.73029852849e-12
2.8096523519e-09
3.51563984379e-09
7.02901299861e-13
2.65631603305e-09
3.2767036166e-09
2.43821216515e-12
2.48390398551e-09
3.00797180031e-09
2.31510492635e-09
2.72068694708e-09
3.19631638039e-14
9.85185074384e-12
2.87081773589e-09
3.21871012081e-09
2.15910289731e-14
1.7712104733e-11
3.06687859291e-09
3.56193388643e-09
2.27811831654e-11
3.26159655522e-09
3.8813460976e-09
2.37901380501e-11
3.43301493538e-09
4.16412173185e-09
2.05951346676e-11
3.57139606192e-09
4.39780639817e-09
1.38800411676e-11
3.67260093676e-09
4.57253779386e-09
4.88879932642e-12
3.73529360437e-09
4.6819806587e-09
-4.82240330615e-12
3.75782213687e-09
4.72091522006e-09
-1.38146420288e-11
3.73528684233e-09
4.68198031391e-09
-2.05320961095e-11
3.6725867127e-09
4.57253702032e-09
-2.37315405117e-11
3.57137317074e-09
4.39780496811e-09
-2.27297297413e-11
3.43298285097e-09
4.16411944215e-09
-1.76699594215e-11
3.26155695493e-09
3.88134327498e-09
-9.82019767959e-12
3.06683939238e-09
3.56193398046e-09
2.87079720269e-09
3.21872487848e-09
4.22746256591e-14
2.40555363593e-11
3.28388245276e-09
3.59025103311e-09
2.35660709747e-14
3.90318548831e-11
3.49466066947e-09
3.9766173584e-09
4.70131401304e-11
3.69688531005e-09
4.33397822826e-09
4.71783667175e-11
3.87287896385e-09
4.64872982655e-09
3.98992254631e-11
4.0135448253e-09
4.90774156354e-09
2.65478403076e-11
4.11560274276e-09
5.10076794706e-09
9.29706495998e-12
4.17854519946e-09
5.2213321924e-09
-9.21763622759e-12
4.2011788168e-09
5.2640885371e-09
-2.64697661715e-11
4.17853869125e-09
5.2213313027e-09
-3.98241612185e-11
4.11558910038e-09
5.10076605856e-09
-4.71084962799e-11
4.0135229826e-09
4.90773838484e-09
-4.69511087557e-11
3.87284828614e-09
4.64872503783e-09
-3.89798262286e-11
3.69684688818e-09
4.33397194739e-09
-2.40147582355e-11
3.49462184955e-09
3.97661289745e-09
3.2838605952e-09
3.59026030313e-09
5.24748805324e-14
3.88230134994e-11
3.54105547405e-09
3.84103640995e-09
2.49688974655e-14
6.14040510504e-11
3.75541893245e-09
4.25866880592e-09
7.23845725314e-11
3.95255498655e-09
4.64229836789e-09
7.15278590971e-11
4.12188985375e-09
4.9782535966e-09
5.98854358393e-11
4.25561971131e-09
5.25341797569e-09
3.96095821438e-11
4.35175434156e-09
5.45772808778e-09
1.38327692363e-11
4.41074154577e-09
5.58494630539e-09
-1.37416802712e-11
4.43196764532e-09
5.62990652798e-09
-3.95201082257e-11
4.41073596813e-09
5.58494487462e-09
-5.97994168254e-11
4.35174262082e-09
5.4577250817e-09
-7.14475074469e-11
4.25560084232e-09
5.25341302093e-09
-7.23124041602e-11
4.12186303631e-09
4.97824622635e-09
-6.13422228958e-11
3.95252060172e-09
4.64228845762e-09
-3.87728704504e-11
3.7553835309e-09
4.25865954407e-09
3.5410344724e-09
3.8410397801e-09
6.24090895279e-14
5.31218196507e-11
3.64576596848e-09
3.97957473876e-09
2.58787024222e-14
8.33926365859e-11
3.85478087508e-09
4.41807412522e-09
9.7319053419e-11
4.03744680765e-09
4.81793116978e-09
9.5373991048e-11
4.19198675191e-09
5.16596905964e-09
7.93796553608e-11
4.31227313618e-09
5.44961959221e-09
5.23099304679e-11
4.39781138926e-09
5.65941564487e-09
1.82357542789e-11
4.44998212962e-09
5.78961792144e-09
-1.81340141707e-11
4.4687660652e-09
5.83545396604e-09
-5.22099628757e-11
4.44997800252e-09
5.7896160313e-09
-7.92833969371e-11
4.39780261807e-09
5.65941167945e-09
-9.52836265365e-11
4.31225874876e-09
5.44961308786e-09
-9.72369737935e-11
4.19196577208e-09
5.16595939267e-09
-8.33209906262e-11
4.03741894251e-09
4.8179179835e-09
-5.30622340967e-11
3.85475159858e-09
4.41806056207e-09
3.64574854621e-09
3.97957273885e-09
7.19096771616e-14
6.62382275781e-11
3.61248470161e-09
4.01651146817e-09
2.64290634233e-14
1.03958434634e-10
3.80963254551e-09
4.46728997154e-09
1.206890979e-10
3.97185833212e-09
4.87528609576e-09
1.17697484547e-10
4.1066509661e-09
5.2282091493e-09
9.7589507454e-11
4.20973634828e-09
5.51440170864e-09
6.41512798423e-11
4.28210865868e-09
5.7252506946e-09
2.2336884872e-11
4.32593528317e-09
5.85565392592e-09
-2.22250553463e-11
4.3417176885e-09
5.90135750261e-09
-6.40412888504e-11
4.3259329803e-09
5.85565172365e-09
-9.74833221008e-11
4.28210356912e-09
5.72524606798e-09
-1.17597237701e-10
4.20972752636e-09
5.51439411166e-09
-1.20597108207e-10
4.10663725145e-09
5.22819781504e-09
-1.03876920726e-10
3.97183889488e-09
4.8752704755e-09
-6.61691751483e-11
3.80961177284e-09
4.46727325269e-09
3.61247339284e-09
4.01650535521e-09
8.09103859762e-14
7.77435163756e-11
3.46222281308e-09
3.9638053623e-09
2.66653379689e-14
1.22414833891e-10
3.6432448354e-09
4.42018685662e-09
1.41766515131e-10
3.78211297261e-09
4.83024375124e-09
1.37872790105e-10
3.89500392863e-09
5.182792089e-09
1.14056351502e-10
3.97953607449e-09
5.46728532148e-09
7.48588798183e-11
4.03800191281e-09
5.67608377301e-09
2.60452065467e-11
4.07311082903e-09
5.80476017979e-09
-2.59234224158e-11
4.08574489181e-09
5.84962999212e-09
-7.47389402894e-11
4.0731105159e-09
5.80475787103e-09
-1.13940214717e-10
4.03800084291e-09
5.67607891096e-09
-1.37762560169e-10
3.97953335937e-09
5.46727730386e-09
-1.41664499165e-10
3.89499833539e-09
5.18278003887e-09
-1.22323415513e-10
3.78210327912e-09
4.83022697831e-09
-7.76650994038e-11
3.64323441785e-09
4.42016866195e-09
3.4622199761e-09
3.96379695268e-09
8.93993766536e-14
8.74498692781e-11
3.21907823365e-09
3.83389899325e-09
2.67077067459e-14
1.38391761031e-10
3.38160410974e-09
4.29103492429e-09
1.60193778452e-10
3.49656234942e-09
4.69894835306e-09
1.55640845467e-10
3.58757185038e-09
5.04762490737e-09
1.28626045093e-10
3.65408660473e-09
5.32769420735e-09
8.43569503122e-11
3.69934132614e-09
5.53250424798e-09
2.9338635672e-11
3.72626067222e-09
5.65826845712e-09
-2.92067338963e-11
3.73592322304e-09
5.70186892324e-09
-8.42268799741e-11
3.726262331e-09
5.65826630425e-09
-1.28499752038e-10
3.69934427762e-09
5.53249970058e-09
-1.55520442795e-10
3.6540900521e-09
5.3276866497e-09
-1.60081654679e-10
3.58757460728e-09
5.04761339663e-09
-1.38290534521e-10
3.49656301838e-09
4.69893209262e-09
-8.73623155642e-11
3.38160521807e-09
4.29101734499e-09
3.21908548416e-09
3.83389052124e-09
9.73584684255e-14
9.53522533259e-11
2.90773490083e-09
3.63899420124e-09
2.65505630722e-14
1.51821566489e-10
3.05076068485e-09
4.09366531293e-09
1.76006723359e-10
3.14279214686e-09
4.49685359989e-09
1.71128980053e-10
3.21347257346e-09
4.83963578199e-09
1.41450061705e-10
3.26387917137e-09
5.11379130601e-09
9.27602217591e-11
3.29765555112e-09
5.31360677037e-09
3.2259317696e-11
3.31755497757e-09
5.43586077272e-09
-3.21170234685e-11
3.32465317366e-09
5.47796632056e-09
-9.26197678372e-11
3.31755846157e-09
5.43585909283e-09
-1.41313436898e-10
3.29766220272e-09
5.31360320668e-09
-1.70998350067e-10
3.2638884115e-09
5.11378528721e-09
-1.758846301e-10
3.21348336779e-09
4.8396263469e-09
-1.51710885411e-10
3.14280316188e-09
4.49683983419e-09
-9.52560747236e-11
3.0507737049e-09
4.09365068591e-09
2.90775318937e-09
3.63898813421e-09
1.04784140876e-13
1.01633450872e-10
2.55172827817e-09
3.39048686388e-09
2.62255793627e-14
1.63095447607e-10
2.6749018117e-09
3.84087904898e-09
1.89826180063e-10
2.7457963674e-09
4.23808345233e-09
1.84980460105e-10
2.79880057055e-09
4.57407801302e-09
1.53045051746e-10
2.83598893649e-09
4.84174248217e-09
1.00393087837e-10
2.86070644338e-09
5.03623271015e-09
3.49169917763e-11
2.8751540251e-09
5.15480042063e-09
-3.47641150102e-11
2.88023700936e-09
5.1953366741e-09
-1.00242168944e-10
2.8751590659e-09
5.15479957016e-09
-1.52898144165e-10
2.86071634655e-09
5.03623088498e-09
-1.84839886953e-10
2.83600329561e-09
4.84173922957e-09
-1.89694633898e-10
2.79881870317e-09
4.57407241485e-09
-1.62976064063e-10
2.74581713566e-09
4.23807440006e-09
-1.01529506646e-10
2.67492654137e-09
3.84086972459e-09
2.55175786983e-09
3.39048543816e-09
1.1121963277e-13
1.06484155323e-10
2.17252009566e-09
3.09857865796e-09
2.57393450595e-14
1.73063398897e-10
2.27488634993e-09
3.54416352158e-09
2.02896723292e-10
2.32686213759e-09
3.93511020751e-09
1.98338718682e-10
2.36592090998e-09
4.26416976089e-09
1.64259310854e-10
2.39352429102e-09
4.52535434616e-09
1.07767035357e-10
2.41200114562e-09
4.7146209214e-09
3.74821153858e-11
2.42275950883e-09
4.82959535182e-09
-3.73187553889e-11
2.42644401725e-09
4.86858526045e-09
-1.07605861925e-10
2.42276587385e-09
4.82959567501e-09
-1.64102603425e-10
2.4120137613e-09
4.71462156485e-09
-1.98188945403e-10
2.39354298004e-09
4.52535506988e-09
-2.02756771207e-10
2.36594530806e-09
4.26416981945e-09
-1.7293642411e-10
2.32689162782e-09
3.93510825025e-09
-1.06373614168e-10
2.27492203785e-09
3.54416172047e-09
2.17256017964e-09
3.09858331114e-09
1.16891158524e-13
1.03132439092e-10
2.771815804e-09
2.51701539273e-14
1.79682443791e-09
1.80449874526e-10
3.21357630428e-09
1.86344310016e-09
2.15432417299e-10
3.59840319676e-09
1.90265349913e-09
2.11840073064e-10
3.92080814857e-09
1.93310153004e-09
1.75806049865e-10
4.1759241392e-09
1.9553279356e-09
1.1542901733e-10
4.36038165122e-09
1.97061187608e-09
4.01582640399e-11
4.47205449971e-09
1.97954940995e-09
-3.99849063362e-11
4.50959323508e-09
1.98249146362e-09
-1.15258285811e-10
4.47205616369e-09
1.97955694011e-09
-1.75640554238e-10
4.3603851128e-09
1.97062691389e-09
-2.11682535945e-10
4.17592944497e-09
1.95535040896e-09
-2.15285717437e-10
3.92081495712e-09
1.93313136465e-09
-1.80317239679e-10
3.59841004448e-09
1.90269052663e-09
-1.03016965561e-10
3.21358503327e-09
1.86348846056e-09
2.77182494442e-09
1.20860938746e-13
1.79687483681e-09
3.86491169649e-12
2.39365858341e-12
4.55958617459e-10
1.50202225361e-15
6.75551715895e-12
1.4743106285e-12
5.04154506428e-10
8.40529876119e-12
6.94662912819e-13
5.49689301718e-10
8.5960994464e-12
1.5666707698e-13
5.9056389101e-10
7.35386761146e-12
-2.00361682296e-13
6.24724545343e-10
4.93534341873e-12
-4.45921985178e-13
6.50490607852e-10
1.73995259425e-12
-5.90340245204e-13
6.66756427204e-10
-1.73404216223e-12
-6.36213373654e-13
6.72608424158e-10
-4.92971466579e-12
-5.92336294168e-13
6.66756652263e-10
-7.34871124849e-12
-4.49625231134e-13
6.50491035511e-10
-8.59137408934e-12
-2.05325389975e-13
6.24725136639e-10
-8.40077239114e-12
1.5078687321e-13
5.90564632062e-10
-6.7521371112e-12
6.8728245416e-13
5.49690321697e-10
-3.86250755292e-12
1.46813021131e-12
5.04156605623e-10
2.38984434827e-12
4.55964884034e-10
2.72695252826e-15
9.36149729781e-12
7.54808660393e-11
1.25307146625e-09
3.80030931312e-15
1.65657398795e-11
8.18211971598e-11
1.38510457501e-09
2.06691259685e-11
8.8733452966e-11
1.50953449545e-09
2.11429831156e-11
9.57412653931e-11
1.62093239311e-09
1.80872904432e-11
1.02051952835e-10
1.71384124412e-09
1.21336512386e-11
1.06990842607e-10
1.78381371123e-09
4.27566676976e-12
1.10161704165e-10
1.82792463307e-09
-4.2587055215e-12
1.11300883117e-10
1.843751987e-09
-1.21173675576e-11
1.10156994853e-10
1.82792517067e-09
-1.80721897458e-11
1.06981880036e-10
1.78381472272e-09
-2.11291364737e-11
1.02039575081e-10
1.71384262703e-09
-2.06565124436e-11
9.57263119411e-11
1.62093412238e-09
-1.65558590622e-11
8.87160198193e-11
1.50953696344e-09
-9.35468071284e-12
8.18056103874e-11
1.385110038e-09
7.54711296537e-11
1.25308680415e-09
7.44320473019e-15
1.33506493104e-11
2.22185784457e-10
1.93320512499e-09
5.47467946142e-15
2.36948386344e-11
2.44168977821e-10
2.13900720229e-09
2.95324204929e-11
2.67146946316e-10
2.33253707375e-09
3.0159112206e-11
2.89375226719e-10
2.50546615638e-09
2.57679544133e-11
3.08813705173e-10
2.64948224234e-09
1.72684426113e-11
3.23825722823e-10
2.75782449586e-09
6.08081148277e-12
3.33386981534e-10
2.82603254922e-09
-6.05375772248e-12
3.36800197556e-10
2.85043593743e-09
-1.72423445402e-11
3.33380138873e-10
2.82603317042e-09
-2.57435674492e-11
3.2381258524e-10
2.75782564587e-09
-3.01367517271e-11
3.08795378176e-10
2.64948377325e-09
-2.95124384161e-11
2.89352997318e-10
2.50546803255e-09
-2.36788405632e-11
2.67121812298e-10
2.33253984847e-09
-1.3339412049e-11
2.44146154322e-10
2.13901400929e-09
2.22171961292e-10
1.93322530349e-09
1.20262736901e-14
1.67811887044e-11
4.18603932931e-10
2.5074753615e-09
6.97376616333e-15
2.97105056808e-11
4.61034395197e-10
2.77818890924e-09
3.69132660807e-11
5.04586932602e-10
3.03207697647e-09
3.76017963329e-11
5.45905656659e-10
3.25843638556e-09
3.20730687411e-11
5.81535379384e-10
3.44662088176e-09
2.14690890531e-11
6.08827810599e-10
3.58799818517e-09
7.5545305655e-12
6.26120560333e-10
3.67686723921e-09
-7.51776445463e-12
6.32273987364e-10
3.70857010943e-09
-2.14334995485e-11
6.26112221546e-10
3.67686764849e-09
-3.20396314848e-11
6.08811699225e-10
3.58799889565e-09
-3.75711375868e-11
5.81512668422e-10
3.44662172084e-09
-3.68860783968e-11
5.45878002324e-10
3.25843730606e-09
-2.96884160296e-11
5.04556295928e-10
3.03207858109e-09
-1.67650962533e-11
4.61006543438e-10
2.7781946956e-09
4.18586854056e-10
2.5074958203e-09
1.71157555673e-14
2.03533583544e-11
6.39043510489e-10
2.9779209075e-09
8.40304329328e-15
3.57472127196e-11
7.03042852021e-10
3.30454485696e-09
4.41734602684e-11
7.67701492567e-10
3.60981941505e-09
4.48394972572e-11
8.28142608525e-10
3.88123218951e-09
3.81638665972e-11
8.79665133801e-10
4.10636495862e-09
2.55120159028e-11
9.18829421025e-10
4.27519975106e-09
8.97010812341e-12
9.43520363534e-10
4.38113334211e-09
-8.92376106396e-12
9.52283601364e-10
4.41880897768e-09
-2.54670394009e-11
9.43511115456e-10
4.38113330868e-09
-3.81214479392e-11
9.1881149731e-10
4.27519956645e-09
-4.48005571573e-11
8.79639738082e-10
4.10636443152e-09
-4.41389638227e-11
8.28111619064e-10
3.88123124191e-09
-3.57188103491e-11
7.67667422483e-10
3.60981859668e-09
-2.03319627005e-11
7.0301204164e-10
3.30454775398e-09
6.39024193413e-10
2.97793849581e-09
2.27100515854e-14
2.45020731388e-11
8.58342204002e-10
3.34645110984e-09
9.75668427031e-15
4.25486656972e-11
9.41807957804e-10
3.71981730656e-09
5.22247925325e-11
1.02471729555e-09
4.06729847639e-09
5.27918679315e-11
1.10115731952e-09
4.37515984416e-09