/*--------------------------------*- C++ -*----------------------------------*\
  =========                 |
  \\      /  F ield         | OpenFOAM: The Open Source CFD Toolbox
   \\    /   O peration     | Website:  https://openfoam.org
    \\  /    A nd           | Version:  7
     \\/     M anipulation  |
\*---------------------------------------------------------------------------*/
FoamFile
{
    version     2.0;
    format      ascii;
    class       volScalarField;
    location    "0.92";
    object      p;
}
// * * * * * * * * * * * * * * * * * * * * * * * * * * * * * * * * * * * * * //

dimensions      [0 2 -2 0 0 0 0];

internalField   nonuniform List<scalar> 
22500
(
6.61260633397e-06
6.61103871584e-06
6.61107881825e-06
6.61081501981e-06
6.61071393078e-06
6.61063255523e-06
6.61058655723e-06
6.61056391929e-06
6.61057562072e-06
6.6106109792e-06
6.61068203036e-06
6.61077386238e-06
6.61102932264e-06
6.61098488999e-06
6.61254619209e-06
6.58740418753e-06
6.58453132781e-06
6.58348711792e-06
6.58228184189e-06
6.58142051766e-06
6.58078220304e-06
6.58039678222e-06
6.58026092781e-06
6.5803854485e-06
6.58075982016e-06
6.58138748474e-06
6.58223914221e-06
6.5834359702e-06
6.58447559602e-06
6.58734204026e-06
6.56301099397e-06
6.5589247735e-06
6.55694410892e-06
6.5548990394e-06
6.55337257875e-06
6.55224660104e-06
6.55156493083e-06
6.55133031097e-06
6.5515539325e-06
6.55222487757e-06
6.55334057688e-06
6.55485765736e-06
6.55689456286e-06
6.55887057703e-06
6.56294970696e-06
6.54119339867e-06
6.5360918978e-06
6.5333565772e-06
6.53064705207e-06
6.52859536824e-06
6.52708722619e-06
6.52617403446e-06
6.52586246467e-06
6.52616358842e-06
6.52706658227e-06
6.52856500236e-06
6.53060783149e-06
6.53330955519e-06
6.53604032877e-06
6.5411340986e-06
6.52074193594e-06
6.51475925996e-06
6.51137668756e-06
6.50812170411e-06
6.50563652297e-06
6.50381629622e-06
6.5027145841e-06
6.5023405786e-06
6.50270467419e-06
6.50379671531e-06
6.5056077409e-06
6.50808457187e-06
6.5113321616e-06
6.51471037613e-06
6.52068507802e-06
6.50139757101e-06
6.49466996141e-06
6.49074131149e-06
6.48705220347e-06
6.48422000861e-06
6.48215328174e-06
6.48090316859e-06
6.48048021282e-06
6.48089379699e-06
6.4821347579e-06
6.48419280582e-06
6.48701713256e-06
6.49069934221e-06
6.49462370555e-06
6.50134313167e-06
6.48326013847e-06
6.47593495601e-06
6.47156345287e-06
6.46755020388e-06
6.46445688608e-06
6.46220783192e-06
6.460848462e-06
6.46038964456e-06
6.46083959551e-06
6.46219030901e-06
6.46443116951e-06
6.46751707079e-06
6.47152387726e-06
6.47589124992e-06
6.48320795956e-06
6.46636127429e-06
6.4585836249e-06
6.45386511432e-06
6.44962837205e-06
6.44635239454e-06
6.44397863651e-06
6.4425450355e-06
6.44206202382e-06
6.44253662828e-06
6.4439620303e-06
6.44632802571e-06
6.44959699581e-06
6.45382771312e-06
6.45854217409e-06
6.46631106507e-06
6.45066909367e-06
6.44257614693e-06
6.43759793837e-06
6.43322683583e-06
6.42983746464e-06
6.42738879422e-06
6.42591104134e-06
6.42541381335e-06
6.42590302741e-06
6.4273729659e-06
6.42981424412e-06
6.43319692733e-06
6.43756236112e-06
6.44253650645e-06
6.45062043829e-06
6.43613386204e-06
6.42785379679e-06
6.42269765105e-06
6.41827080473e-06
6.41482871148e-06
6.41234749491e-06
6.41085100824e-06
6.41034795295e-06
6.41084330841e-06
6.41233228426e-06
6.4148063878e-06
6.41824203593e-06
6.42266345524e-06
6.4278154351e-06
6.43608613801e-06
6.42269832185e-06
6.41435178413e-06
6.40909851955e-06
6.40468540744e-06
6.40124282796e-06
6.39876429478e-06
6.397270006e-06
6.39676802297e-06
6.39726253424e-06
6.39874952682e-06
6.40122112629e-06
6.4046573844e-06
6.40906519393e-06
6.41431407565e-06
6.4226507959e-06
6.41028579307e-06
6.40200343995e-06
6.39674324994e-06
6.39240467676e-06
6.38900396472e-06
6.38655552928e-06
6.38507974433e-06
6.38458417707e-06
6.38507241867e-06
6.38654101103e-06
6.3889825803e-06
6.39237696413e-06
6.39671020254e-06
6.40196566989e-06
6.41023772028e-06
6.39876534593e-06
6.39075797437e-06
6.38560551279e-06
6.38138655562e-06
6.37805500482e-06
6.37565474774e-06
6.37420871571e-06
6.37372349263e-06
6.37420143589e-06
6.37564031783e-06
6.37803362994e-06
6.38135868618e-06
6.38557206953e-06
6.39071932839e-06
6.39871584602e-06
6.38815440516e-06
6.3806923504e-06
6.37569565643e-06
6.37159894934e-06
6.3683410543e-06
6.36599889555e-06
6.36459134374e-06
6.36411951393e-06
6.36458405419e-06
6.36598437843e-06
6.36831939436e-06
6.37157040488e-06
6.37566106785e-06
6.38065181607e-06
6.38810287223e-06
6.3798083003e-06
6.37167482697e-06
6.36680572872e-06
6.36277111377e-06
6.35959401147e-06
6.35733384007e-06
6.35598313301e-06
6.3555314718e-06
6.3559757241e-06
6.35731905106e-06
6.35957178165e-06
6.36274142862e-06
6.36676892248e-06
6.37163095562e-06
6.37975498806e-06
3.9367488307e-06
3.93745383418e-06
3.93800494024e-06
3.93850376767e-06
3.93891851824e-06
3.93922960959e-06
3.93942386356e-06
3.93949084903e-06
3.93942710918e-06
3.93923561215e-06
3.93892611361e-06
3.93851152596e-06
3.9380125399e-06
3.93746093837e-06
3.93675549236e-06
3.93968238905e-06
3.94048869013e-06
3.94114220458e-06
3.94173397369e-06
3.94222861539e-06
3.94260030901e-06
3.94283250741e-06
3.94291249894e-06
3.94283565094e-06
3.94260608731e-06
3.94223586098e-06
3.94174119475e-06
3.94114886011e-06
3.94049504245e-06
3.93968829956e-06
3.94297272697e-06
3.94397762301e-06
3.94479749965e-06
3.94554575338e-06
3.94617527554e-06
3.94664976721e-06
3.94694646681e-06
3.947048469e-06
3.94694950368e-06
3.94665538617e-06
3.94618245159e-06
3.94555315474e-06
3.9448043753e-06
3.9439844795e-06
3.94297885077e-06
3.94680723676e-06
3.94816199308e-06
3.94925763334e-06
3.95025928185e-06
3.95110462125e-06
3.95174273128e-06
3.95214164134e-06
3.95227840431e-06
3.9521445582e-06
3.95174817942e-06
3.95111174376e-06
3.95026694049e-06
3.94926495686e-06
3.94816941858e-06
3.94681365433e-06
3.95158255532e-06
3.95344201535e-06
3.95492267204e-06
3.95627128121e-06
3.95740800103e-06
3.95826518611e-06
3.95880010307e-06
3.95898297042e-06
3.9588028937e-06
3.95827043029e-06
3.95741497327e-06
3.95627898457e-06
3.95493026162e-06
3.95344978621e-06
3.95158914877e-06
3.95737771426e-06
3.95986640778e-06
3.96181325721e-06
3.9635748233e-06
3.96505398216e-06
3.9661663546e-06
3.96685868947e-06
3.96709473709e-06
3.9668613196e-06
3.9661713143e-06
3.96506065941e-06
3.9635823606e-06
3.96182084689e-06
3.95987437296e-06
3.95738413985e-06
3.96410554534e-06
3.96730658122e-06
3.96976650283e-06
3.97197417523e-06
3.97381865262e-06
3.97520071673e-06
3.97605826828e-06
3.97634992371e-06
3.9760607021e-06
3.97520532474e-06
3.97382490872e-06
3.97198134853e-06
3.96977382522e-06
3.96731445914e-06
3.96411160152e-06
3.97161913692e-06
3.97557061813e-06
3.97855717338e-06
3.9812126898e-06
3.98341909998e-06
3.98506562534e-06
3.98608392832e-06
3.98642945733e-06
3.98608613273e-06
3.98506981028e-06
3.98342482296e-06
3.98121932928e-06
3.97856405726e-06
3.97557811866e-06
3.97162470761e-06
3.97974599286e-06
3.98444196823e-06
3.98793890596e-06
3.991016637e-06
3.99355938408e-06
3.99544881559e-06
3.99661343735e-06
3.99700775948e-06
3.9966154064e-06
3.99545255606e-06
3.99356451982e-06
3.99102262435e-06
3.98794517947e-06
3.98444887885e-06
3.97975078795e-06
3.98830496919e-06
3.99369981388e-06
3.99766539959e-06
4.00111794576e-06
4.00395427021e-06
4.00605271321e-06
4.0073418107e-06
4.00777737453e-06
4.00734354666e-06
4.00605600964e-06
4.00395880043e-06
4.00112323842e-06
3.99767097709e-06
3.99370599459e-06
3.98830886267e-06
3.99711911798e-06
4.00313271453e-06
4.00750424903e-06
4.01126875588e-06
4.01434403588e-06
4.0166092909e-06
4.0179961121e-06
4.01846376137e-06
4.01799764417e-06
4.01661219731e-06
4.01434801728e-06
4.01127337475e-06
4.00750910166e-06
4.00313808014e-06
3.99712192134e-06
4.00601468909e-06
4.01254005737e-06
4.01724132682e-06
4.02124772326e-06
4.02450157936e-06
4.02688729749e-06
4.02834270812e-06
4.02883248401e-06
4.02834409429e-06
4.02688991019e-06
4.0245051468e-06
4.02125180211e-06
4.01724555088e-06
4.01254460659e-06
4.00601640487e-06
4.01481701524e-06
4.02174262912e-06
4.02669563256e-06
4.03087189008e-06
4.0342409187e-06
4.0366982772e-06
4.03819170643e-06
4.03869327424e-06
4.03819301504e-06
4.03670077098e-06
4.03424427979e-06
4.0308756841e-06
4.02669944287e-06
4.02174654431e-06
4.01481779352e-06
4.02351334962e-06
4.03073970213e-06
4.03580864481e-06
4.04005056706e-06
4.04344347194e-06
4.04590400456e-06
4.04739377091e-06
4.04789308697e-06
4.04739509956e-06
4.04590652034e-06
4.04344688279e-06
4.04005433842e-06
4.03581236153e-06
4.03074312404e-06
4.0235135361e-06
4.03290723921e-06
4.03958407404e-06
4.0445264491e-06
4.04867289815e-06
4.05194914926e-06
4.05431079817e-06
4.05573581968e-06
4.05621266132e-06
4.05573716761e-06
4.05431340334e-06
4.05195269905e-06
4.04867686612e-06
4.04453015509e-06
4.0395870086e-06
4.03290732229e-06
4.73583359936e-06
4.73567479073e-06
4.73549888514e-06
4.73529947204e-06
4.73511522805e-06
4.73496585839e-06
4.73486852721e-06
4.73483404369e-06
4.73486693306e-06
4.73496292654e-06
4.73511146167e-06
4.73529523212e-06
4.7354925721e-06
4.73566760942e-06
4.73582410211e-06
4.73617194835e-06
4.73603036631e-06
4.73586722754e-06
4.73567898827e-06
4.7355031354e-06
4.73535964485e-06
4.7352656884e-06
4.73523224171e-06
4.73526395638e-06
4.73535642414e-06
4.73549893389e-06
4.7356741567e-06
4.73586054085e-06
4.73602250195e-06
4.7361619744e-06
4.73671102448e-06
4.73659535917e-06
4.73645680174e-06
4.73628830497e-06
4.73612788553e-06
4.73599544438e-06
4.73590814492e-06
4.73587693896e-06
4.73590647006e-06
4.73599230006e-06
4.73612369476e-06
4.7362833634e-06
4.7364502151e-06
4.73658751839e-06
4.73670107413e-06
4.73711288376e-06
4.73700726493e-06
4.73688187127e-06
4.73672297593e-06
4.7365699465e-06
4.73644275613e-06
4.73635866116e-06
4.73632858145e-06
4.73635709674e-06
4.73643978265e-06
4.73656586803e-06
4.73671804101e-06
4.73687545904e-06
4.73699972088e-06
4.73710292123e-06
4.73737145176e-06
4.73726704356e-06
4.73714828533e-06
4.73699426634e-06
4.73684559527e-06
4.73672186613e-06
4.73664002453e-06
4.73661076617e-06
4.73663854538e-06
4.73671903512e-06
4.73684164872e-06
4.7369894016e-06
4.73714201202e-06
4.73725978132e-06
4.73736150286e-06
4.73754692388e-06
4.73744516671e-06
4.73733441032e-06
4.73718810545e-06
4.73704704538e-06
4.73692970621e-06
4.73685212657e-06
4.73682439724e-06
4.73685072364e-06
4.73692700376e-06
4.73704321812e-06
4.73718331426e-06
4.73732829634e-06
4.7374380539e-06
4.73753709564e-06
4.73768571925e-06
4.73759487264e-06
4.7374987696e-06
4.7373674873e-06
4.73724094732e-06
4.73713561482e-06
4.73706593749e-06
4.73704099668e-06
4.73706459942e-06
4.73713302733e-06
4.73723724225e-06
4.73736278714e-06
4.73749281383e-06
4.73758791131e-06
4.73767593946e-06
4.73782474664e-06
4.73775782945e-06
4.73768591628e-06
4.73757908071e-06
4.73747545269e-06
4.73738868801e-06
4.73733108833e-06
4.73731036629e-06
4.73732980364e-06
4.73738619294e-06
4.7374718386e-06
4.73757443259e-06
4.73768005207e-06
4.73775097131e-06
4.73781492345e-06
4.73799529913e-06
4.73796765645e-06
4.73793026306e-06
4.73785732889e-06
4.73778469955e-06
4.73772264972e-06
4.73768096131e-06
4.73766575867e-06
4.73767971772e-06
4.7377202225e-06
4.73778115367e-06
4.73785271022e-06
4.73792443171e-06
4.73796082974e-06
4.7379854048e-06
4.73822175587e-06
4.73824828141e-06
4.73825456795e-06
4.73822321272e-06
4.73818783728e-06
4.73815511306e-06
4.73813216475e-06
4.73812343087e-06
4.73813094681e-06
4.73815272669e-06
4.73818431782e-06
4.73821857321e-06
4.738248701e-06
4.73824138629e-06
4.73821173113e-06
4.73852015796e-06
4.73861281699e-06
4.73866914584e-06
4.7386840101e-06
4.7386894064e-06
4.73868850831e-06
4.73868577229e-06
4.73868400264e-06
4.73868457219e-06
4.73868614822e-06
4.73868589984e-06
4.73867932982e-06
4.7386632151e-06
4.73860580859e-06
4.73850995297e-06
4.73889567848e-06
4.73906231775e-06
4.73917175727e-06
4.73923429299e-06
4.73928127439e-06
4.73931266407e-06
4.73933039206e-06
4.73933564165e-06
4.73932921019e-06
4.73931032494e-06
4.73927777163e-06
4.73922957453e-06
4.73916575197e-06
4.73905520383e-06
4.73888534497e-06
4.73934564283e-06
4.7395914234e-06
4.73975336058e-06
4.73986102244e-06
4.73994745283e-06
4.74000967765e-06
4.74004691968e-06
4.74005891555e-06
4.74004575854e-06
4.74000737506e-06
4.73994399117e-06
4.73985630002e-06
4.73974732549e-06
4.73958422491e-06
4.73933522258e-06
4.73992048413e-06
4.74024323542e-06
4.74042919897e-06
4.74056364071e-06
4.740676461e-06
4.7407604008e-06
4.74081176524e-06
4.74082861493e-06
4.7408106313e-06
4.74075817405e-06
4.74067307065e-06
4.74055899091e-06
4.74042320374e-06
4.74023597193e-06
4.73991017988e-06
4.74091229885e-06
4.74105495642e-06
4.74118898562e-06
4.74130751489e-06
4.74141660115e-06
4.74150110731e-06
4.74155369551e-06
4.74157113191e-06
4.74155258455e-06
4.74149890366e-06
4.74141327342e-06
4.74130289941e-06
4.74118292793e-06
4.74104738105e-06
4.74090212929e-06
3.60593379694e-06
3.60607761406e-06
3.60624999931e-06
3.60642406259e-06
3.60658064964e-06
3.60670376938e-06
3.60678255389e-06
3.60681026051e-06
3.60678421624e-06
3.60670683407e-06
3.60658448858e-06
3.60642745851e-06
3.60625228757e-06
3.60607771543e-06
3.60593350316e-06
3.60612950278e-06
3.60627419245e-06
3.60644989912e-06
3.60662699092e-06
3.60678717912e-06
3.60691352682e-06
3.60699459778e-06
3.60702317865e-06
3.60699635855e-06
3.60691677016e-06
3.60679122666e-06
3.60663057814e-06
3.60645209413e-06
3.60627427629e-06
3.60612861232e-06
3.6061914726e-06
3.606327471e-06
3.60649705444e-06
3.60666841213e-06
3.6068248659e-06
3.60694872578e-06
3.6070284195e-06
3.60705651405e-06
3.60703001891e-06
3.60695166978e-06
3.60682853409e-06
3.6066717218e-06
3.60649899524e-06
3.60632771066e-06
3.60619041106e-06
3.60623013719e-06
3.60635919543e-06
3.60652387602e-06
3.6066896285e-06
3.60684195516e-06
3.60696283311e-06
3.60704073825e-06
3.60706816555e-06
3.60704211609e-06
3.60696536027e-06
3.60684508379e-06
3.60669245319e-06
3.6065254868e-06
3.60635935739e-06
3.60622894519e-06
3.60627310398e-06
3.60639664401e-06
3.60655804242e-06
3.60671863647e-06
3.60686679047e-06
3.60698452764e-06
3.60706046445e-06
3.60708716981e-06
3.60706165302e-06
3.60698669637e-06
3.60686947158e-06
3.60672103112e-06
3.60655939763e-06
3.60639667902e-06
3.60627177828e-06
3.60631151463e-06
3.60642932099e-06
3.60658821837e-06
3.60674329759e-06
3.60688676617e-06
3.60700081903e-06
3.60707441034e-06
3.60710024457e-06
3.60707540039e-06
3.60700261618e-06
3.60688895869e-06
3.60674521845e-06
3.60658919989e-06
3.60642927641e-06
3.60630986013e-06
3.60634041209e-06
3.60645290393e-06
3.60661001791e-06
3.60675969629e-06
3.60689839026e-06
3.60700863084e-06
3.60707976132e-06
3.60710468318e-06
3.60708056722e-06
3.60701008767e-06
3.60690014048e-06
3.60676118965e-06
3.60661064711e-06
3.60645274903e-06
3.60633849713e-06
3.60636139545e-06
3.60647027573e-06
3.60662702443e-06
3.60677238209e-06
3.60690697096e-06
3.60701387748e-06
3.60708280578e-06
3.60710690514e-06
3.60708343329e-06
3.60701499779e-06
3.60690829028e-06
3.60677344873e-06
3.60662735164e-06
3.60646996932e-06
3.60635933775e-06
3.60637894022e-06
3.60648719115e-06
3.6066457745e-06
3.60678860567e-06
3.60692040722e-06
3.60702495354e-06
3.60709227086e-06
3.60711575054e-06
3.60709274311e-06
3.60702578302e-06
3.60692135823e-06
3.60678930908e-06
3.60664584831e-06
3.60648676194e-06
3.60637670664e-06
3.60639863471e-06
3.60651076892e-06
3.60667377845e-06
3.60681623864e-06
3.60694683184e-06
3.60705015391e-06
3.60711654982e-06
3.60713963708e-06
3.60711688287e-06
3.60705072864e-06
3.60694745702e-06
3.60681663316e-06
3.60667364485e-06
3.60651026004e-06
3.60639627248e-06
3.60642697798e-06
3.60654862468e-06
3.60671840829e-06
3.60686238929e-06
3.60699309531e-06
3.60709615899e-06
3.60716219455e-06
3.60718509033e-06
3.60716241882e-06
3.60709653126e-06
3.60699346845e-06
3.60686252945e-06
3.60671810119e-06
3.60654801279e-06
3.60642445287e-06
3.60646898362e-06
3.60660659726e-06
3.60678499244e-06
3.60693185412e-06
3.60706365503e-06
3.60716712318e-06
3.60723320712e-06
3.60725603176e-06
3.60723335317e-06
3.60716735371e-06
3.60706383999e-06
3.60693181739e-06
3.60678455118e-06
3.60660587196e-06
3.60646627195e-06
3.60652780152e-06
3.60668836844e-06
3.60687646514e-06
3.60702689762e-06
3.60716055483e-06
3.60726508067e-06
3.60733152326e-06
3.60735442663e-06
3.60733162205e-06
3.6072652155e-06
3.607160642e-06
3.60702674298e-06
3.60687593979e-06
3.60668753216e-06
3.60652493595e-06
3.60663897891e-06
3.60682701544e-06
3.60701142405e-06
3.60715809335e-06
3.60728918246e-06
3.6073915552e-06
3.60745645355e-06
3.60747870831e-06
3.60745651858e-06
3.60739166758e-06
3.60728921424e-06
3.60715790912e-06
3.60701085746e-06
3.6068260506e-06
3.60663595385e-06
3.6070395488e-06
3.60713152432e-06
3.60725044175e-06
3.60735300463e-06
3.60745182686e-06
3.60753054156e-06
3.60758068861e-06
3.60759793354e-06
3.60758073762e-06
3.6075305992e-06
3.6074518274e-06
3.60735276361e-06
3.60724977137e-06
3.60713029599e-06
3.60703658785e-06
3.6907986199e-06
3.69072988529e-06
3.69065764182e-06
3.69057776008e-06
3.69050615756e-06
3.69044905604e-06
3.69041192469e-06
3.69039869243e-06
3.69041112939e-06
3.69044780716e-06
3.69050509798e-06
3.69057678884e-06
3.69065578257e-06
3.69072820115e-06
3.69079511118e-06
3.69088562795e-06
3.69082280834e-06
3.69075409065e-06
3.69067704705e-06
3.69060733621e-06
3.69055130171e-06
3.69051471256e-06
3.69050162284e-06
3.69051386644e-06
3.69054993995e-06
3.69060607474e-06
3.69067588397e-06
3.69075211777e-06
3.69082066738e-06
3.69088181679e-06
3.69105587984e-06
3.69100328785e-06
3.69094371554e-06
3.6908737715e-06
3.69080930637e-06
3.69075678065e-06
3.6907222706e-06
3.69070988309e-06
3.69072145391e-06
3.69075542345e-06
3.69080793236e-06
3.69087243702e-06
3.69094177022e-06
3.6910010726e-06
3.69105217692e-06
3.69120129924e-06
3.69115433434e-06
3.69110121409e-06
3.69103580479e-06
3.69097457815e-06
3.69092407349e-06
3.6908907531e-06
3.69087878405e-06
3.69088998772e-06
3.69092275573e-06
3.69097311269e-06
3.69103433146e-06
3.69109929611e-06
3.6911522412e-06
3.69119767338e-06
3.69131231814e-06
3.69126726865e-06
3.69121799403e-06
3.69115483414e-06
3.69109514711e-06
3.69104553038e-06
3.69101270012e-06
3.69100090924e-06
3.69101197826e-06
3.69104426078e-06
3.69109366349e-06
3.69115330532e-06
3.69121610676e-06
3.6912653487e-06
3.69130875718e-06
3.69139981815e-06
3.69135498239e-06
3.69130806582e-06
3.69124610155e-06
3.69118722008e-06
3.69113804178e-06
3.69110545903e-06
3.69109377009e-06
3.69110478646e-06
3.69113683702e-06
3.6911857478e-06
3.69124455434e-06
3.69130623672e-06
3.69135310154e-06
3.69139642789e-06
3.69147028391e-06
3.69142467599e-06
3.69137959058e-06
3.69131850452e-06
3.69126030569e-06
3.69121161335e-06
3.69117933919e-06
3.69116777944e-06
3.69117871613e-06
3.69121048513e-06
3.69125888909e-06
3.69131698595e-06
3.69137785783e-06
3.69142286492e-06
3.69146698834e-06
3.69152785643e-06
3.6914814741e-06
3.6914383913e-06
3.69137845156e-06
3.69132131915e-06
3.69127353665e-06
3.69124188402e-06
3.69123056895e-06
3.69124131116e-06
3.69127248911e-06
3.69131996681e-06
3.69137695831e-06
3.69143670558e-06
3.69147970705e-06
3.69152454861e-06
3.6915768829e-06
3.69153078226e-06
3.6914904761e-06
3.69143252988e-06
3.69137734111e-06
3.69133127061e-06
3.69130078457e-06
3.69128990903e-06
3.69130026008e-06
3.69133030179e-06
3.69137606418e-06
3.69143107727e-06
3.69148882017e-06
3.69152903641e-06
3.691573552e-06
3.69162222524e-06
3.6915784003e-06
3.69154207573e-06
3.69148736868e-06
3.69143532686e-06
3.69139202257e-06
3.69136342915e-06
3.69135324387e-06
3.69136294718e-06
3.69139112579e-06
3.69143411123e-06
3.69148593627e-06
3.69154040967e-06
3.69157660648e-06
3.69161884577e-06
3.69166873158e-06
3.6916298175e-06
3.69159884604e-06
3.69154875291e-06
3.69150121149e-06
3.6914618889e-06
3.69143599988e-06
3.69142680147e-06
3.69143555579e-06
3.69146105151e-06
3.69150005583e-06
3.69154733482e-06
3.69159716796e-06
3.6916279595e-06
3.69166528917e-06
3.69172032994e-06
3.69168936094e-06
3.69166496634e-06
3.69162074547e-06
3.69157914542e-06
3.69154507919e-06
3.69152280836e-06
3.69151489368e-06
3.69152239378e-06
3.69154429255e-06
3.69157801999e-06
3.69161933835e-06
3.69166326147e-06
3.69168746447e-06
3.69171687395e-06
3.69178177065e-06
3.69176118645e-06
3.69174351703e-06
3.69170584504e-06
3.69167142028e-06
3.69164395935e-06
3.69162615707e-06
3.69161989028e-06
3.69162576756e-06
3.69164319067e-06
3.69167033993e-06
3.69170442111e-06
3.69174179672e-06
3.69175924618e-06
3.6917783252e-06
3.69187448284e-06
3.69186394171e-06
3.69184523746e-06
3.69181041937e-06
3.69178178086e-06
3.69176006465e-06
3.69174640375e-06
3.69174156763e-06
3.69174601313e-06
3.69175933722e-06
3.69178068749e-06
3.69180901691e-06
3.69184348229e-06
3.69186196326e-06
3.69187112822e-06
3.69207732139e-06
3.69202309267e-06
3.69197924063e-06
3.69193496091e-06
3.69190372153e-06
3.6918817427e-06
3.6918683363e-06
3.69186370319e-06
3.69186794124e-06
3.6918809615e-06
3.69190259658e-06
3.69193344707e-06
3.69197735788e-06
3.69202086513e-06
3.69207406537e-06
3.08342179858e-06
3.08347365931e-06
3.08353454711e-06
3.0835973775e-06
3.08365442293e-06
3.08369976455e-06
3.0837292073e-06
3.08374003887e-06
3.08373112997e-06
3.08370338203e-06
3.08365924604e-06
3.08360270146e-06
3.08353986711e-06
3.08347797156e-06
3.0834264663e-06
3.0834980804e-06
3.08355018342e-06
3.08361239689e-06
3.08367627165e-06
3.08373453646e-06
3.08378098758e-06
3.08381123157e-06
3.08382238838e-06
3.08381324875e-06
3.08378477847e-06
3.08373956642e-06
3.08368176929e-06
3.08361772331e-06
3.08355456147e-06
3.08350230817e-06
3.08352837581e-06
3.08357776361e-06
3.08363827314e-06
3.08370036538e-06
3.08375747182e-06
3.08380310758e-06
3.08383286527e-06
3.08384381538e-06
3.08383474244e-06
3.08380664021e-06
3.08376217738e-06
3.08370558744e-06
3.08364334377e-06
3.08358224882e-06
3.08353246677e-06
3.08354957636e-06
3.08359728253e-06
3.08365651364e-06
3.08371709646e-06
3.08377307763e-06
3.08381788134e-06
3.08384710877e-06
3.08385781551e-06
3.08384880273e-06
3.08382107544e-06
3.08377734952e-06
3.08372188866e-06
3.08366125091e-06
3.08360163136e-06
3.08355358985e-06
3.08357278322e-06
3.0836196331e-06
3.08367829537e-06
3.08373780865e-06
3.08379289635e-06
3.0838370115e-06
3.08386577182e-06
3.08387626666e-06
3.08386730541e-06
3.08383990618e-06
3.0837967959e-06
3.08374222608e-06
3.08368277918e-06
3.08362382243e-06
3.08357669223e-06
3.08359586646e-06
3.08364193443e-06
3.08370049572e-06
3.08375891483e-06
3.08381304012e-06
3.08385635984e-06
3.08388458012e-06
3.08389483283e-06
3.08388596072e-06
3.08385897099e-06
3.08381657126e-06
3.08376294556e-06
3.08370463168e-06
3.08364600261e-06
3.08359948819e-06
3.08361681147e-06
3.0836623096e-06
3.08372087432e-06
3.08377813833e-06
3.08383117224e-06
3.08387355216e-06
3.08390112279e-06
3.08391109567e-06
3.08390236031e-06
3.08387590154e-06
3.08383436819e-06
3.08378183038e-06
3.08372470187e-06
3.08366624433e-06
3.08362019489e-06
3.08363529032e-06
3.08368055405e-06
3.08373916396e-06
3.08379523429e-06
3.0838470148e-06
3.08388830108e-06
3.08391510527e-06
3.08392476269e-06
3.08391621154e-06
3.08389040655e-06
3.0838498982e-06
3.08379860057e-06
3.08374271589e-06
3.08368430932e-06
3.08363852388e-06
3.08365163515e-06
3.08369692736e-06
3.08375567428e-06
3.08381050082e-06
3.08386088496e-06
3.08390094073e-06
3.08392687789e-06
3.08393618906e-06
3.08392786966e-06
3.08390283344e-06
3.08386350209e-06
3.08381359492e-06
3.08375900573e-06
3.08370053915e-06
3.08365466974e-06
3.08366626181e-06
3.08371214977e-06
3.08377113216e-06
3.08382463511e-06
3.08387346338e-06
3.0839121296e-06
3.08393710246e-06
3.08394603108e-06
3.08393799288e-06
3.08391383989e-06
3.08387584323e-06
3.08382749453e-06
3.08377427435e-06
3.08371564521e-06
3.08366913201e-06
3.08368015075e-06
3.08372745162e-06
3.08378666566e-06
3.08383868904e-06
3.08388572993e-06
3.08392284635e-06
3.08394673723e-06
3.08395525769e-06
3.0839475476e-06
3.08392440576e-06
3.08388792495e-06
3.08384135028e-06
3.08378964855e-06
3.08373081682e-06
3.08368281261e-06
3.08369416507e-06
3.08374407266e-06
3.08380348663e-06
3.08385380962e-06
3.08389888671e-06
3.08393428482e-06
3.08395702869e-06
3.08396510245e-06
3.08395777285e-06
3.08393573275e-06
3.08390091767e-06
3.08385631682e-06
3.0838063241e-06
3.08374729135e-06
3.08369658964e-06
3.08370921617e-06
3.083763292e-06
3.08382278718e-06
3.08387123021e-06
3.08391424746e-06
3.0839480132e-06
3.08396958153e-06
3.08397725975e-06
3.08397028282e-06
3.08394934818e-06
3.08391617779e-06
3.08387358281e-06
3.08382549807e-06
3.08376634875e-06
3.08371140716e-06
3.0837378828e-06
3.08379704435e-06
3.08385199262e-06
3.08389587079e-06
3.08393535023e-06
3.08396629427e-06
3.08398609938e-06
3.08399309021e-06
3.08398674499e-06
3.08396758121e-06
3.08393715306e-06
3.08389813724e-06
3.08385456425e-06
3.08379992163e-06
3.08373976839e-06
3.0838606834e-06
3.08388558236e-06
3.08391499808e-06
3.08394057796e-06
3.08396610959e-06
3.08398674698e-06
3.08400004757e-06
3.0840048365e-06
3.08400066524e-06
3.08398793708e-06
3.08396783499e-06
3.08394270428e-06
3.08391743446e-06
3.0838882344e-06
3.08386254441e-06
2.89319541585e-06
2.89317545846e-06
2.89315627186e-06
2.89313413411e-06
2.89311357528e-06
2.89309674858e-06
2.89308585073e-06
2.89308203715e-06
2.8930857996e-06
2.89309668428e-06
2.89311356864e-06
2.89313452263e-06
2.89315739682e-06
2.8931776987e-06
2.89319630897e-06
2.89323745014e-06
2.89321986646e-06
2.89320208565e-06
2.89318111641e-06
2.89316136435e-06
2.89314504706e-06
2.89313440084e-06
2.89313065046e-06
2.89313431538e-06
2.89314491418e-06
2.89316128274e-06
2.89318142879e-06
2.89320316129e-06
2.89322189048e-06
2.893238286e-06
2.89330334836e-06
2.89328925241e-06
2.89327426317e-06
2.89325547044e-06
2.89323738964e-06
2.89322224041e-06
2.89321227098e-06
2.89320874231e-06
2.89321219351e-06
2.89322213261e-06
2.89323736117e-06
2.89325582596e-06
2.89327536174e-06
2.89329108053e-06
2.89330421433e-06
2.89335835704e-06
2.89334595722e-06
2.89333287132e-06
2.89331525767e-06
2.89329811739e-06
2.89328360766e-06
2.89327399332e-06
2.89327058516e-06
2.89327394155e-06
2.89328356431e-06
2.89329820931e-06
2.89331575049e-06
2.89333403036e-06
2.8933477845e-06
2.89335919479e-06
2.89340072561e-06
2.89338875595e-06
2.89337674246e-06
2.89335955956e-06
2.89334276869e-06
2.89332846648e-06
2.89331895298e-06
2.89331558398e-06
2.89331893532e-06
2.89332849605e-06
2.89334297715e-06
2.89336018572e-06
2.89337796241e-06
2.89339064419e-06
2.89340157841e-06
2.89343431339e-06
2.8934223095e-06
2.89341079437e-06
2.89339369319e-06
2.8933769849e-06
2.89336272149e-06
2.89335321659e-06
2.8933498614e-06
2.89335324309e-06
2.89336284164e-06
2.89337733226e-06
2.89339447559e-06
2.89341211038e-06
2.8934241739e-06
2.89343528316e-06
2.89346146602e-06
2.8934490385e-06
2.89343782681e-06
2.8934207107e-06
2.89340399789e-06
2.89338973599e-06
2.8933802299e-06
2.89337689105e-06
2.89338030285e-06
2.89338994716e-06
2.89340447113e-06
2.89342162153e-06
2.89343924106e-06
2.89345089278e-06
2.89346248333e-06
2.89348366073e-06
2.89347072381e-06
2.89345984134e-06
2.89344274039e-06
2.89342608078e-06
2.89341190132e-06
2.89340246151e-06
2.89339916449e-06
2.89340258175e-06
2.89341220283e-06
2.89342667027e-06
2.8934437503e-06
2.89346129645e-06
2.8934725458e-06
2.89348461166e-06
2.89350228636e-06
2.89348914714e-06
2.89347876908e-06
2.89346188677e-06
2.89344547501e-06
2.8934315503e-06
2.89342229882e-06
2.89341908384e-06
2.89342245917e-06
2.89343192354e-06
2.89344614689e-06
2.8934629527e-06
2.89348021579e-06
2.89349090095e-06
2.89350315101e-06
2.89351890163e-06
2.89350614426e-06
2.89349653456e-06
2.8934801666e-06
2.89346426793e-06
2.89345084288e-06
2.89344194613e-06
2.89343887347e-06
2.89344213677e-06
2.89345126629e-06
2.89346498861e-06
2.89348123523e-06
2.89349791334e-06
2.89350775837e-06
2.89351962988e-06
2.89353496987e-06
2.89352335388e-06
2.89351483235e-06
2.89349930318e-06
2.89348423719e-06
2.89347159323e-06
2.8934632488e-06
2.89346038249e-06
2.89346345314e-06
2.89347203842e-06
2.89348496143e-06
2.89350032849e-06
2.89351610778e-06
2.89352480164e-06
2.89353553879e-06
2.89355159973e-06
2.89354205909e-06
2.89353492656e-06
2.89352052927e-06
2.89350663785e-06
2.89349511331e-06
2.89348755108e-06
2.89348497131e-06
2.89348775584e-06
2.89349554187e-06
2.89350732788e-06
2.89352146602e-06
2.89353605791e-06
2.89354334351e-06
2.89355202879e-06
2.8935701462e-06
2.89356358919e-06
2.89355784032e-06
2.89354468259e-06
2.89353231571e-06
2.89352226734e-06
2.89351576807e-06
2.89351356198e-06
2.89351594944e-06
2.89352266357e-06
2.89353292546e-06
2.89354550052e-06
2.8935588128e-06
2.89356469474e-06
2.89357044104e-06
2.89359842669e-06
2.8935948532e-06
2.89358755075e-06
2.89357420391e-06
2.89356273981e-06
2.89355389691e-06
2.89354829412e-06
2.893546417e-06
2.89354844323e-06
2.8935542183e-06
2.89356324764e-06
2.89357486537e-06
2.89358833513e-06
2.89359575738e-06
2.89359859311e-06
2.89366846714e-06
2.89364574769e-06
2.89362779499e-06
2.89360950796e-06
2.89359585575e-06
2.89358597813e-06
2.89357992669e-06
2.89357790213e-06
2.89358001875e-06
2.89358618688e-06
2.89359619167e-06
2.89360994499e-06
2.89362831645e-06
2.89364636097e-06
2.89366853756e-06
2.50695348154e-06
2.50696536816e-06
2.50698084687e-06
2.50699778456e-06
2.50701371846e-06
2.50702660734e-06
2.50703504487e-06
2.50703829665e-06
2.50703610105e-06
2.50702872024e-06
2.5070168741e-06
2.50700170975e-06
2.50698510014e-06
2.50696894145e-06
2.5069568441e-06
2.50698195455e-06
2.50699402717e-06
2.50701021652e-06
2.50702765458e-06
2.50704411764e-06
2.50705745474e-06
2.50706620417e-06
2.50706958543e-06
2.50706731039e-06
2.5070596644e-06
2.50704740899e-06
2.50703174454e-06
2.50701460299e-06
2.50699782386e-06
2.50698507886e-06
2.5070042312e-06
2.5070163496e-06
2.50703295606e-06
2.50705043753e-06
2.50706700114e-06
2.50708039393e-06
2.50708919774e-06
2.50709258786e-06
2.50709026707e-06
2.50708252456e-06
2.50707015135e-06
2.50705437384e-06
2.50703717744e-06
2.50702024532e-06
2.50700733991e-06
2.50702288625e-06
2.50703530834e-06
2.50705227398e-06
2.50706983836e-06
2.50708644099e-06
2.50709982933e-06
2.50710863442e-06
2.50711200822e-06
2.50710964893e-06
2.50710184538e-06
2.50708940633e-06
2.50707356787e-06
2.50705635517e-06
2.50703920724e-06
2.50702612844e-06
2.50704034231e-06
2.50705310968e-06
2.50707048742e-06