/*--------------------------------*- C++ -*----------------------------------*\
  =========                 |
  \\      /  F ield         | OpenFOAM: The Open Source CFD Toolbox
   \\    /   O peration     | Website:  https://openfoam.org
    \\  /    A nd           | Version:  7
     \\/     M anipulation  |
\*---------------------------------------------------------------------------*/
FoamFile
{
    version     2.0;
    format      ascii;
    class       volScalarField;
    location    "2.3";
    object      p;
}
// * * * * * * * * * * * * * * * * * * * * * * * * * * * * * * * * * * * * * //

dimensions      [0 2 -2 0 0 0 0];

internalField   nonuniform List<scalar> 
22500
(
1.14865084623e-05
1.14847558224e-05
1.14843754936e-05
1.14837080873e-05
1.14832352909e-05
1.14828679314e-05
1.14826430807e-05
1.14825638586e-05
1.14826450499e-05
1.14828718359e-05
1.14832412008e-05
1.148371572e-05
1.14843848183e-05
1.14847654884e-05
1.14865180993e-05
1.14627136319e-05
1.14597429537e-05
1.14583402751e-05
1.14567808667e-05
1.14555842033e-05
1.14546844975e-05
1.14541345606e-05
1.14539469689e-05
1.14541367588e-05
1.14546888619e-05
1.14555907522e-05
1.14567893731e-05
1.14583504952e-05
1.14597535586e-05
1.14627241625e-05
1.14398600037e-05
1.1435774819e-05
1.1433503555e-05
1.14311626612e-05
1.14293437379e-05
1.14279862203e-05
1.14271574594e-05
1.14268766555e-05
1.14271595313e-05
1.14279903286e-05
1.14293498713e-05
1.14311706599e-05
1.14335131619e-05
1.14357848863e-05
1.14398703174e-05
1.14195185031e-05
1.14145142954e-05
1.14115531212e-05
1.14086044014e-05
1.14063030492e-05
1.14045937072e-05
1.1403551363e-05
1.14031992611e-05
1.1403553207e-05
1.14045973698e-05
1.14063084981e-05
1.14086115123e-05
1.14115617422e-05
1.14145234476e-05
1.14195283773e-05
1.14005618635e-05
1.13947716981e-05
1.13912272093e-05
1.13877883281e-05
1.13850966301e-05
1.13831061329e-05
1.13818937787e-05
1.1381485154e-05
1.13818954292e-05
1.13831094097e-05
1.13851015029e-05
1.13877946932e-05
1.1391234992e-05
1.13947800445e-05
1.14005712255e-05
1.13827258148e-05
1.13762812491e-05
1.13722516072e-05
1.13684298861e-05
1.13654322901e-05
1.13632249146e-05
1.1361882095e-05
1.13614302626e-05
1.13618835544e-05
1.13632278218e-05
1.13654366125e-05
1.13684355474e-05
1.13722585479e-05
1.13762888485e-05
1.13827347099e-05
1.1366078649e-05
1.13591184036e-05
1.13547011991e-05
1.13506005687e-05
1.13473790337e-05
1.13450162961e-05
1.13435807142e-05
1.13430983351e-05
1.13435820136e-05
1.13450188884e-05
1.13473828925e-05
1.13506056376e-05
1.13547074367e-05
1.13591253124e-05
1.13660871132e-05
1.13506337128e-05
1.13432921335e-05
1.13385770937e-05
1.13342914084e-05
1.13309198859e-05
1.13284563937e-05
1.13269613916e-05
1.13264596308e-05
1.13269625521e-05
1.13284587106e-05
1.13309233464e-05
1.13342959668e-05
1.13385827228e-05
1.13432984597e-05
1.13506418521e-05
1.133635025e-05
1.13287524087e-05
1.13238205478e-05
1.13194322536e-05
1.13159757002e-05
1.1313458448e-05
1.13119325941e-05
1.13114209884e-05
1.13119336463e-05
1.13134605514e-05
1.13159788489e-05
1.13194364246e-05
1.13238257079e-05
1.13287583084e-05
1.13363581346e-05
1.13231722279e-05
1.13154330708e-05
1.13103595983e-05
1.13059413024e-05
1.13024567503e-05
1.1299926025e-05
1.12983936598e-05
1.12978803029e-05
1.12983946294e-05
1.12999279677e-05
1.1302459665e-05
1.13059451834e-05
1.13103644222e-05
1.1315438686e-05
1.13231800581e-05
1.13110364275e-05
1.13032614053e-05
1.12981201891e-05
1.12937366596e-05
1.1290274216e-05
1.12877644604e-05
1.12862462588e-05
1.12857380234e-05
1.12862471731e-05
1.12877662917e-05
1.12902769751e-05
1.12937403508e-05
1.1298124798e-05
1.13032668704e-05
1.13110443171e-05
1.12998587558e-05
1.12921587738e-05
1.12870323089e-05
1.1282742237e-05
1.12793448852e-05
1.12768849276e-05
1.12753982111e-05
1.12749008805e-05
1.12753990904e-05
1.12768866986e-05
1.12793475528e-05
1.12827458297e-05
1.12870368152e-05
1.12921642088e-05
1.12998667919e-05
1.12894961776e-05
1.12820505731e-05
1.12770458965e-05
1.12728982791e-05
1.12695990452e-05
1.12672117753e-05
1.12657708697e-05
1.12652893096e-05
1.12657717381e-05
1.12672135107e-05
1.12696016838e-05
1.12729018473e-05
1.12770504011e-05
1.1282056099e-05
1.1289504452e-05
1.12799097862e-05
1.12729520418e-05
1.12681284746e-05
1.12641440169e-05
1.12609622374e-05
1.1258667685e-05
1.12572868891e-05
1.12568262179e-05
1.12572877507e-05
1.12586694197e-05
1.12609648819e-05
1.12641476386e-05
1.12681330791e-05
1.1272957783e-05
1.12799183821e-05
1.12721991463e-05
1.12646738394e-05
1.12600410992e-05
1.12561946145e-05
1.12531578504e-05
1.12509921764e-05
1.12496969209e-05
1.12492659704e-05
1.12496977894e-05
1.12509939189e-05
1.12531605254e-05
1.12561983176e-05
1.12600459127e-05
1.12646799018e-05
1.12722077024e-05
8.70589583796e-06
8.70648059935e-06
8.70690523078e-06
8.70728205705e-06
8.70759536656e-06
8.70783086577e-06
8.70797795855e-06
8.70802751551e-06
8.70797647421e-06
8.70782801323e-06
8.70759145471e-06
8.70727773284e-06
8.70690063661e-06
8.7064764612e-06
8.70589199437e-06
8.70845883566e-06
8.70913889856e-06
8.70966162525e-06
8.71012764663e-06
8.71051624241e-06
8.71080815025e-06
8.71099025723e-06
8.71105176056e-06
8.71098865333e-06
8.71080506303e-06
8.71051199381e-06
8.71012288807e-06
8.70965672782e-06
8.70913444407e-06
8.70845486661e-06
8.71128921224e-06
8.71214804621e-06
8.71282391857e-06
8.7134349779e-06
8.71394815969e-06
8.71433499098e-06
8.71457665485e-06
8.71465853283e-06
8.71457510792e-06
8.71433201674e-06
8.71394405909e-06
8.71343031574e-06
8.71281914271e-06
8.71214358392e-06
8.71128524514e-06
8.71461759184e-06
8.7157890214e-06
8.71671678703e-06
8.71756135798e-06
8.71827422804e-06
8.7188131149e-06
8.71915007696e-06
8.71926449005e-06
8.71914863004e-06
8.71881033121e-06
8.71827036708e-06
8.71755688194e-06
8.71671213767e-06
8.71578460061e-06
8.71461360274e-06
8.71878936853e-06
8.72040888353e-06
8.72168582097e-06
8.72284806645e-06
8.72382958794e-06
8.7245716138e-06
8.72503521363e-06
8.72519271667e-06
8.72503386278e-06
8.72456901654e-06
8.72382596797e-06
8.72284381842e-06
8.7216813294e-06
8.7204045529e-06
8.71878537948e-06
8.72386094695e-06
8.72603551608e-06
8.72773163409e-06
8.72926904946e-06
8.73056413343e-06
8.73154135875e-06
8.73215071232e-06
8.73235765175e-06
8.73214947049e-06
8.73153896949e-06
8.73056078852e-06
8.72926506904e-06
8.72772736262e-06
8.72603125223e-06
8.72385703229e-06
8.72974620867e-06
8.73254417563e-06
8.73469764106e-06
8.73663681145e-06
8.73826370162e-06
8.73948763143e-06
8.74024888263e-06
8.74050716736e-06
8.74024775984e-06
8.73948546808e-06
8.73826066262e-06
8.73663315248e-06
8.73469366408e-06
8.73254008638e-06
8.72974239768e-06
8.73630843501e-06
8.7397575322e-06
8.7423760508e-06
8.74471456641e-06
8.74666713931e-06
8.74813085995e-06
8.74903867698e-06
8.74934632019e-06
8.74903768049e-06
8.74812893761e-06
8.7466644259e-06
8.74471126238e-06
8.74237239169e-06
8.7397536658e-06
8.73630472929e-06
8.74338961489e-06
8.74747861511e-06
8.75054307045e-06
8.7532539821e-06
8.75550598494e-06
8.75718766683e-06
8.75822754417e-06
8.7585794587e-06
8.75822667583e-06
8.75718598976e-06
8.75550360553e-06
8.75325105425e-06
8.75053976829e-06
8.74747501744e-06
8.74338608072e-06
8.75082578309e-06
8.75550870774e-06
8.75897768751e-06
8.76201506993e-06
8.76452513982e-06
8.76639200138e-06
8.76754279995e-06
8.76793166916e-06
8.76754205692e-06
8.76639056332e-06
8.76452308848e-06
8.76201251727e-06
8.75897474972e-06
8.75550540098e-06
8.75082242919e-06
8.7584576819e-06
8.76365904131e-06
8.76747360042e-06
8.77077881146e-06
8.77349573996e-06
8.77550797111e-06
8.77674434437e-06
8.77716145133e-06
8.7767437185e-06
8.77550675665e-06
8.77349399998e-06
8.77077662542e-06
8.76747103598e-06
8.76365606271e-06
8.75845456014e-06
8.76613000818e-06
8.77175219897e-06
8.77584315771e-06
8.77935267873e-06
8.78222118445e-06
8.78433590676e-06
8.78563066228e-06
8.7860666697e-06
8.78563014075e-06
8.78433489025e-06
8.78221972269e-06
8.7793508303e-06
8.77584095704e-06
8.77174958177e-06
8.76612720497e-06
8.773687401e-06
8.77963042916e-06
8.78392979332e-06
8.78758072852e-06
8.79054435502e-06
8.79271733748e-06
8.79404243112e-06
8.79448775555e-06
8.7940419925e-06
8.79271648412e-06
8.79054312988e-06
8.78757917771e-06
8.78392792877e-06
8.77962816413e-06
8.7736849205e-06
8.78110841615e-06
8.78728880252e-06
8.79168578811e-06
8.79539071096e-06
8.79837057685e-06
8.800541269e-06
8.80185930464e-06
8.80230123385e-06
8.80185893172e-06
8.80054053884e-06
8.79836952366e-06
8.79538939024e-06
8.79168422276e-06
8.78728691209e-06
8.78110625187e-06
8.78907752181e-06
8.79480031113e-06
8.7990917801e-06
8.80270968031e-06
8.80558010042e-06
8.80765583704e-06
8.80891078938e-06
8.80933068781e-06
8.80891046237e-06
8.80765520997e-06
8.80557920013e-06
8.80270856925e-06
8.79909048845e-06
8.79479886805e-06
8.78907578771e-06
9.30159134643e-06
9.30140834754e-06
9.301196068e-06
9.30096337895e-06
9.30074853234e-06
9.30057684149e-06
9.30046669753e-06
9.30042894357e-06
9.30046781145e-06
9.30057892887e-06
9.30075131144e-06
9.30096658438e-06
9.30120003733e-06
9.3014126712e-06
9.30159633354e-06
9.30178533662e-06
9.30161580437e-06
9.30141402379e-06
9.30118993291e-06
9.3009814851e-06
9.30081397376e-06
9.30070607894e-06
9.30066900338e-06
9.30070721551e-06
9.30081610801e-06
9.30098433524e-06
9.30119323563e-06
9.3014180061e-06
9.30162023604e-06
9.30179036787e-06
9.30218115587e-06
9.30203482895e-06
9.30185553023e-06
9.3016493625e-06
9.3014549757e-06
9.3012972862e-06
9.30119512913e-06
9.3011599238e-06
9.30119625416e-06
9.30129940949e-06
9.3014578443e-06
9.30165273249e-06
9.30185952499e-06
9.30203928765e-06
9.30218618406e-06
9.30247246324e-06
9.3023357051e-06
9.30216849782e-06
9.30197150118e-06
9.30178432502e-06
9.30163163481e-06
9.30153236282e-06
9.30149809057e-06
9.30153346039e-06
9.30163372111e-06
9.30178718727e-06
9.30197491069e-06
9.30217248655e-06
9.30234011129e-06
9.30247750253e-06
9.30264398233e-06
9.30250862732e-06
9.30234745017e-06
9.30215550115e-06
9.3019728989e-06
9.30182373479e-06
9.30172665236e-06
9.301693119e-06
9.30172772307e-06
9.3018257795e-06
9.30197573188e-06
9.30215891543e-06
9.30235143587e-06
9.30251298638e-06
9.30264902572e-06
9.30274743924e-06
9.30261399088e-06
9.30245998241e-06
9.30227548021e-06
9.30210039742e-06
9.30195751882e-06
9.30186456439e-06
9.30183246485e-06
9.30186559903e-06
9.30195950427e-06
9.30210317495e-06
9.30227886137e-06
9.30246391946e-06
9.30261830599e-06
9.30275243997e-06
9.30282270054e-06
9.30269757398e-06
9.30255614481e-06
9.30238525519e-06
9.30222368213e-06
9.30209205799e-06
9.30200651629e-06
9.30197699967e-06
9.30200751e-06
9.30209397177e-06
9.30222638038e-06
9.30238857227e-06
9.30256001171e-06
9.30270182823e-06
9.30282766173e-06
9.30290002566e-06
9.30279321461e-06
9.30267194978e-06
9.30252241218e-06
9.30238144066e-06
9.30226673667e-06
9.30219226454e-06
9.30216659564e-06
9.30219321103e-06
9.30226856673e-06
9.30238404133e-06
9.30252564171e-06
9.30267572719e-06
9.30279738798e-06
9.3029049583e-06
9.30300416646e-06
9.30292702694e-06
9.30283395246e-06
9.30271334684e-06
9.30259965003e-06
9.30250705954e-06
9.3024469539e-06
9.30242626507e-06
9.30244784995e-06
9.30250879861e-06
9.30260213902e-06
9.3027164691e-06
9.30283762975e-06
9.30293111377e-06
9.30300904982e-06
9.30315346154e-06
9.30311659897e-06
9.30305859226e-06
9.30297290965e-06
9.30289158475e-06
9.30282498613e-06
9.30278166856e-06
9.3027667836e-06
9.30278251203e-06
9.30282662955e-06
9.30289395477e-06
9.3029759149e-06
9.30306216044e-06
9.30312059969e-06
9.30315829811e-06
9.303358954e-06
9.30337028841e-06
9.30335185077e-06
9.30330464365e-06
9.30325859033e-06
9.30322013749e-06
9.30319492187e-06
9.30318628313e-06
9.30319571146e-06
9.30322168156e-06
9.30326083444e-06
9.30330752025e-06
9.3033552972e-06
9.30337418937e-06
9.3033637264e-06
9.30362251159e-06
9.30368628705e-06
9.30370931236e-06
9.30370180248e-06
9.30369191997e-06
9.30368225045e-06
9.30367549017e-06
9.30367321035e-06
9.30367622476e-06
9.30368369376e-06
9.30369403355e-06
9.3037045415e-06
9.30371262548e-06
9.30369006856e-06
9.30362718821e-06
9.30393935639e-06
9.30405704149e-06
9.30412095133e-06
9.30415176349e-06
9.30417699659e-06
9.30419534281e-06
9.30420652967e-06
9.30421042278e-06
9.30420720825e-06
9.30419668234e-06
9.30417897227e-06
9.30415435303e-06
9.30412411504e-06
9.30406068726e-06
9.30394390963e-06
9.30434090059e-06
9.30451032868e-06
9.30459594795e-06
9.30465277606e-06
9.30470402806e-06
9.30474373987e-06
9.30476869964e-06
9.30477734102e-06
9.30476932241e-06
9.30474496864e-06
9.30470585775e-06
9.30465519977e-06
9.30459894516e-06
9.30451383119e-06
9.30434528215e-06
9.30502689639e-06
9.30507385021e-06
9.30512886279e-06
9.30518130382e-06
9.30523593416e-06
9.30528026243e-06
9.30530857978e-06
9.30531841811e-06
9.30530914984e-06
9.30528139679e-06
9.3052376302e-06
9.30518357821e-06
9.30513172701e-06
9.30507728041e-06
9.3050311053e-06
7.97267262221e-06
7.97280468531e-06
7.97296094894e-06
7.97311848551e-06
7.97325989531e-06
7.97337048378e-06
7.97344079684e-06
7.97346483829e-06
7.97344029544e-06
7.97336951718e-06
7.97325856366e-06
7.97311707333e-06
7.97295958045e-06
7.97280380685e-06
7.9726719377e-06
7.97279145175e-06
7.97292309346e-06
7.97308119191e-06
7.97324115203e-06
7.97338535563e-06
7.97349851413e-06
7.97357062739e-06
7.97359532097e-06
7.97357006787e-06
7.97349743317e-06
7.9733838671e-06
7.97323954462e-06
7.97307968721e-06
7.97292205473e-06
7.97279076911e-06
7.97277102625e-06
7.97289220001e-06
7.97304186729e-06
7.97319500284e-06
7.9733344284e-06
7.97344451756e-06
7.9735149574e-06
7.9735391421e-06
7.97351443173e-06
7.97344350538e-06
7.97333304217e-06
7.97319349031e-06
7.97304047767e-06
7.9728911763e-06
7.97277039822e-06
7.97273829279e-06
7.97285093519e-06
7.97299362707e-06
7.97314009833e-06
7.97327458773e-06
7.97338131349e-06
7.97344983465e-06
7.97347341685e-06
7.97344936789e-06
7.97338041851e-06
7.97327336644e-06
7.97313875585e-06
7.97299238777e-06
7.97284999258e-06
7.97273770742e-06
7.972718724e-06
7.97282471325e-06
7.97296227807e-06
7.97310267849e-06
7.97323237955e-06
7.97333565085e-06
7.97340212307e-06
7.97342504026e-06
7.97340170577e-06
7.97333485468e-06
7.9732312951e-06
7.9731014881e-06
7.97296116589e-06
7.97282386336e-06
7.9727181902e-06
7.97270156676e-06
7.97280130679e-06
7.97293429542e-06
7.97306842135e-06
7.97319287183e-06
7.97329221541e-06
7.97335628674e-06
7.97337841346e-06
7.97335592387e-06
7.9732915243e-06
7.97319193358e-06
7.97306738488e-06
7.97293332414e-06
7.9728005131e-06
7.97270111825e-06
7.97268117295e-06
7.97277490527e-06
7.9729038893e-06
7.97303173457e-06
7.9731507305e-06
7.97324590608e-06
7.97330738708e-06
7.97332865017e-06
7.97330707553e-06
7.97324531368e-06
7.97314992904e-06
7.97303084552e-06
7.9729030598e-06
7.97277418767e-06
7.97268079965e-06
7.9726576174e-06
7.972746276e-06
7.97287226947e-06
7.97299440997e-06
7.97310830103e-06
7.97319952492e-06
7.97325852714e-06
7.9732789577e-06
7.97325826754e-06
7.97319903258e-06
7.97310763372e-06
7.97299366473e-06
7.97287156031e-06
7.97274563197e-06
7.97265728346e-06
7.9726328625e-06
7.9727182913e-06
7.9728427149e-06
7.97296028355e-06
7.97306988747e-06
7.97315774876e-06
7.97321461516e-06
7.97323432289e-06
7.97321440283e-06
7.97315734712e-06
7.97306934342e-06
7.97295967179e-06
7.97284212038e-06
7.97271771715e-06
7.9726325769e-06
7.97260973655e-06
7.97269461017e-06
7.97281907507e-06
7.97293345489e-06
7.97303980015e-06
7.97312504894e-06
7.97318022424e-06
7.97319935345e-06
7.97318005594e-06
7.97312473099e-06
7.97303936753e-06
7.97293296125e-06
7.97281857866e-06
7.97269409154e-06
7.97260948127e-06
7.97259142739e-06
7.97267904301e-06
7.97280503732e-06
7.97291752249e-06
7.97302156539e-06
7.97310488232e-06
7.97315875735e-06
7.97317743033e-06
7.97315862774e-06
7.97310463805e-06
7.97302123219e-06
7.97291713784e-06
7.97280463654e-06
7.97267858774e-06
7.97259121133e-06
7.97257997065e-06
7.972674088e-06
7.97280286078e-06
7.97291458125e-06
7.97301718261e-06
7.97309916037e-06
7.97315205989e-06
7.97317037111e-06
7.97315196277e-06
7.97309897806e-06
7.97301693275e-06
7.97291429169e-06
7.97280255002e-06
7.97267371092e-06
7.97257981789e-06
7.97257537766e-06
7.9726799221e-06
7.97281268103e-06
7.97292483719e-06
7.97302712842e-06
7.97310856045e-06
7.97316089571e-06
7.97317897379e-06
7.97316082433e-06
7.97310842554e-06
7.97302694858e-06
7.97292462833e-06
7.97281245605e-06
7.97267962833e-06
7.97257529402e-06
7.97259694114e-06
7.97271571658e-06
7.97284550644e-06
7.97295471658e-06
7.97305467342e-06
7.97313392897e-06
7.97318460044e-06
7.97320203167e-06
7.97318454764e-06
7.97313383231e-06
7.97305454187e-06
7.9729545748e-06
7.97284536142e-06
7.97271552964e-06
7.97259694165e-06
7.97281376161e-06
7.97287177993e-06
7.972956128e-06
7.97303266781e-06
7.97310751478e-06
7.97316766077e-06
7.97320619938e-06
7.97321946638e-06
7.97320616715e-06
7.97316760407e-06
7.97310744571e-06
7.9730326064e-06
7.97295609421e-06
7.97287175703e-06
7.97281386893e-06
7.84771120405e-06
7.84763404192e-06
7.84754529654e-06
7.84745048091e-06
7.84736388196e-06
7.84729477072e-06
7.84725047651e-06
7.84723523818e-06
7.84725068657e-06
7.84729510002e-06
7.84736415723e-06
7.84745069272e-06
7.84754563786e-06
7.84763432359e-06
7.84771193093e-06
7.84773502231e-06
7.84766191136e-06
7.84757581958e-06
7.84748279192e-06
7.84739726444e-06
7.84732870443e-06
7.84728461306e-06
7.8472694072e-06
7.84728482506e-06
7.84732904006e-06
7.84739755816e-06
7.84748300921e-06
7.84757614106e-06
7.84766224749e-06
7.84773576193e-06
7.84784447539e-06
7.84778032119e-06
7.84770262005e-06
7.84761608701e-06
7.84753556899e-06
7.84747044986e-06
7.84742834225e-06
7.8474137759e-06
7.84742855298e-06
7.84747079484e-06
7.84753590463e-06
7.84761637106e-06
7.84770297869e-06
7.84778071939e-06
7.84784522132e-06
7.84794206945e-06
7.84788347251e-06
7.84781179141e-06
7.84772987582e-06
7.84765291616e-06
7.84759022207e-06
7.84754949215e-06
7.84753536757e-06
7.84754969939e-06
7.84759057544e-06
7.84765329928e-06
7.84773022784e-06
7.84781218941e-06
7.84788388668e-06
7.84794282868e-06
7.84801455417e-06
7.84795850695e-06
7.84789054164e-06
7.8478114912e-06
7.84773677275e-06
7.84767560158e-06
7.84763572871e-06
7.84762187937e-06
7.84763593296e-06
7.84767595828e-06
7.84773718386e-06
7.84781189204e-06
7.84789098322e-06
7.84795893344e-06
7.84801533877e-06
7.84807087157e-06
7.84801578831e-06
7.84795047453e-06
7.84787352923e-06
7.84780058345e-06
7.84774069542e-06
7.84770157467e-06
7.84768797293e-06
7.84770177319e-06
7.8477410493e-06
7.84780101175e-06
7.84787396246e-06
7.84795093857e-06
7.84801624024e-06
7.84807164906e-06
7.84811640889e-06
7.84806160599e-06
7.84799851971e-06
7.84792351646e-06
7.84785237715e-06
7.84779391337e-06
7.8477556855e-06
7.84774238941e-06
7.84775587639e-06
7.84779425867e-06
7.84785280862e-06
7.84792396884e-06
7.84799899798e-06
7.84806207915e-06
7.84811719679e-06
7.84815425344e-06
7.8480996919e-06
7.84803888333e-06
7.84796610085e-06
7.84789717844e-06
7.8478405819e-06
7.84780358036e-06
7.8477907144e-06
7.84780376172e-06
7.84784091436e-06
7.84789760588e-06
7.84796656438e-06
7.84803937418e-06
7.84810017828e-06
7.84815507134e-06
7.84818746431e-06
7.84813366261e-06
7.84807561625e-06
7.84800571828e-06
7.84793975381e-06
7.84788572682e-06
7.84785045198e-06
7.84783819801e-06
7.84785062317e-06
7.84788604365e-06
7.84794017068e-06
7.84800618415e-06
7.84807611877e-06
7.84813416358e-06
7.84818830887e-06
7.84821916427e-06
7.84816712274e-06
7.84811262056e-06
7.84804652409e-06
7.84798449711e-06
7.84793393093e-06
7.84790100456e-06
7.84788958541e-06
7.84790116527e-06
7.8479342316e-06
7.84798490161e-06
7.84804699172e-06
7.84811313515e-06
7.84816764545e-06
7.84822003806e-06
7.84825219357e-06
7.84820319521e-06
7.84815309483e-06
7.84809180342e-06
7.84803480546e-06
7.84798869373e-06
7.84795880466e-06
7.8479484669e-06
7.84795895519e-06
7.84798897815e-06
7.84803519603e-06
7.84809226895e-06
7.8481536184e-06
7.84820373777e-06
7.84825309368e-06
7.8482885986e-06
7.84824389083e-06
7.84819888229e-06
7.84814336134e-06
7.84809254751e-06
7.84805195562e-06
7.84802583938e-06
7.84801684393e-06
7.84802598067e-06
7.84805222503e-06
7.84809292519e-06
7.84814382498e-06
7.84819941415e-06
7.84824444744e-06
7.84828951277e-06
7.84833075326e-06
7.84829072281e-06
7.84825082892e-06
7.84820171913e-06
7.84815816728e-06
7.84812412725e-06
7.84810249009e-06
7.84809508806e-06
7.84810262242e-06
7.84812438278e-06
7.84815853232e-06
7.84820217773e-06
7.84825136648e-06
7.84829129268e-06
7.84833168013e-06
7.84838781856e-06
7.84835152041e-06
7.84831330225e-06
7.84826928596e-06
7.84823268885e-06
7.84820507376e-06
7.84818783602e-06
7.84818199441e-06
7.84818796074e-06
7.84820531684e-06
7.84823304108e-06
7.84826973988e-06
7.84831384178e-06
7.84835210343e-06
7.84838873508e-06
7.8484837125e-06
7.84843201637e-06
7.84838648901e-06
7.84834358011e-06
7.84831115493e-06
7.84828765359e-06
7.84827326634e-06
7.84826844691e-06
7.84827339134e-06
7.84828789919e-06
7.84831151594e-06
7.84834405019e-06
7.84838706741e-06
7.84843266211e-06
7.84848461241e-06
7.00555220762e-06
7.00560083048e-06
7.00565748165e-06
7.00571557494e-06
7.00576800379e-06
7.00580926581e-06
7.00583552007e-06
7.00584440343e-06
7.00583502522e-06
7.00580831189e-06
7.00576666804e-06
7.00571397014e-06
7.00565569502e-06
7.00559915213e-06
7.00555046321e-06
7.0055879933e-06
7.00563622354e-06
7.005693252e-06
7.00575198539e-06
7.00580521072e-06
7.00584723065e-06
7.00587402875e-06
7.00588311321e-06
7.00587351609e-06
7.00584624147e-06
7.00580382856e-06
7.00575033353e-06
7.00569144577e-06
7.00563450463e-06
7.00558630673e-06
7.0055729235e-06
7.00561729403e-06
7.00567098785e-06
7.00572716326e-06
7.00577856539e-06
7.00581941558e-06
7.00584557911e-06
7.00585447498e-06
7.0058450903e-06
7.00581847222e-06
7.00577724634e-06
7.00572557725e-06
7.00566926378e-06
7.00561559082e-06
7.00557128976e-06
7.00555506958e-06
7.00559665182e-06
7.00564777866e-06
7.00570176634e-06
7.00575158878e-06
7.0057914047e-06
7.00581700325e-06
7.0058257335e-06
7.00581655221e-06
7.00579053301e-06
7.00575036513e-06
7.00570028556e-06
7.00564615506e-06
7.00559501306e-06
7.00555348006e-06
7.00554433086e-06
7.00558424449e-06
7.0056337411e-06
7.00568607922e-06
7.00573466549e-06
7.00577363818e-06
7.00579876505e-06
7.00580735288e-06
7.00579834512e-06
7.00577282648e-06
7.00573352289e-06
7.00568469327e-06
7.00563220437e-06
7.00558268167e-06
7.00554279496e-06
7.00553702108e-06
7.00557577742e-06
7.00562397139e-06
7.00567478024e-06
7.00572211501e-06
7.00576017708e-06
7.00578476591e-06
7.00579318627e-06
7.00578437988e-06
7.00575942945e-06
7.0057210588e-06
7.0056734924e-06
7.00562253502e-06
7.00557427031e-06
7.00553557349e-06
7.00553080993e-06
7.00556857931e-06
7.00561560685e-06
7.0056648299e-06
7.0057107636e-06
7.00574774833e-06
7.00577167027e-06
7.00577987378e-06
7.00577131529e-06
7.00574706002e-06
7.00570978864e-06
7.005663635e-06
7.00561427098e-06
7.00556713898e-06
7.00552944573e-06
7.00552487005e-06
7.0055617254e-06
7.00560762951e-06
7.00565513581e-06
7.00569947412e-06
7.00573518543e-06
7.00575829787e-06
7.00576623112e-06
7.00575797413e-06
7.00573455674e-06
7.00569857889e-06
7.00565403089e-06
7.00560638123e-06
7.00556035401e-06
7.00552357014e-06
7.00551865036e-06
7.00555465838e-06
7.00559940874e-06
7.0056450453e-06
7.0056875762e-06
7.00572181244e-06
7.00574396808e-06
7.00575157637e-06
7.00574367325e-06
7.00572123856e-06
7.00568675573e-06
7.00564402526e-06
7.00559824276e-06
7.00555335454e-06
7.00551742433e-06
7.00551177917e-06
7.00554702334e-06
7.00559054817e-06
7.00563414695e-06
7.00567465335e-06
7.00570721477e-06
7.00572827157e-06
7.00573550238e-06
7.00572800332e-06
7.00570669165e-06
7.00567390122e-06
7.00563320358e-06
7.00558945552e-06
7.00554577703e-06
7.00551062291e-06
7.00550409964e-06
7.00553873774e-06
7.00558095622e-06
7.0056223495e-06
7.00566062462e-06
7.00569132461e-06
7.00571114899e-06
7.00571795262e-06
7.00571090472e-06
7.00569084746e-06
7.0056599358e-06
7.0056214786e-06
7.00557993527e-06
7.00553755379e-06
7.00550301944e-06
7.00549547182e-06
7.00552982782e-06
7.00557071479e-06
7.00560980089e-06
7.00564570837e-06
7.00567441196e-06
7.00569290506e-06
7.00569924186e-06
7.00569268169e-06
7.00567397575e-06
7.00564507484e-06
7.00560899649e-06
7.00556976293e-06
7.0055287142e-06
7.00549448048e-06
7.0054854203e-06
7.00552006114e-06
7.00555981187e-06
7.00559671828e-06
7.00563034694e-06
7.00565709828e-06
7.00567425866e-06
7.00568012678e-06
7.00567405437e-06
7.00565669604e-06
7.0056297651e-06
7.00559597316e-06
7.00555892813e-06
7.00551902278e-06
7.00548452156e-06
7.00547766791e-06
7.00551359503e-06
7.005551017e-06
7.00558512947e-06
7.00561607492e-06
7.00564051036e-06
7.00565609313e-06
7.00566139558e-06
7.00565590404e-06
7.00564014122e-06
7.00561553422e-06
7.00558444213e-06
7.00555019879e-06
7.00551264261e-06
7.00547688028e-06
7.0055146452e-06
7.00553595539e-06
7.00556117301e-06
7.00558505317e-06
7.0056074081e-06
7.00562511039e-06
7.00563636547e-06
7.00564017799e-06
7.00563619522e-06
7.00562477517e-06
7.00560691988e-06
7.00558442763e-06
7.00556043486e-06
7.00553509419e-06
7.00551391553e-06
6.60026996328e-06
6.60024341265e-06
6.60021184281e-06
6.60017808298e-06
6.60014733511e-06
6.60012287492e-06
6.60010716252e-06
6.60010169997e-06
6.60010706771e-06
6.60012267353e-06
6.60014700224e-06
6.60017754232e-06
6.60021101864e-06
6.60024231801e-06
6.60026915551e-06
6.60027668805e-06
6.60025143133e-06
6.60022073401e-06
6.6001875549e-06
6.60015713082e-06
6.6001328097e-06
6.6001171365e-06
6.60011167497e-06
6.60011704345e-06
6.60013261141e-06
6.6001567969e-06
6.6001870086e-06
6.60021989969e-06
6.60025035324e-06
6.60027585983e-06
6.60031166859e-06
6.6002893135e-06
6.60026139471e-06
6.60023036378e-06
6.60020156061e-06
6.60017833042e-06
6.60016328161e-06
6.60015802228e-06
6.60016319067e-06
6.60017813527e-06
6.60020123102e-06
6.60022983117e-06
6.60026058624e-06
6.60028830475e-06
6.60031085619e-06
6.60034268244e-06
6.60032212634e-06
6.60029615689e-06
6.60026666573e-06
6.60023900807e-06
6.6002165349e-06
6.60020191393e-06
6.60019679242e-06
6.60020182203e-06
6.60021633652e-06
6.60023867227e-06
6.6002661349e-06
6.60029537785e-06
6.60032115386e-06
6.60034189209e-06
6.60036548639e-06
6.6003457809e-06
6.60032100111e-06
6.60029248569e-06
6.60026556466e-06
6.60024358301e-06
6.60022923924e-06
6.60022420689e-06
6.60022914635e-06
6.60024338288e-06
6.60026522594e-06
6.60029195727e-06
6.60032024728e-06
6.60034483301e-06
6.60036472205e-06
6.60038323135e-06
6.60036387959e-06
6.60033996422e-06
6.6003122136e-06
6.60028591354e-06
6.6002643759e-06
6.60025029286e-06
6.6002453466e-06
6.60025019678e-06
6.60026416953e-06
6.60028556776e-06
6.60031168378e-06
6.60033923095e-06
6.60036297065e-06
6.60038246963e-06
6.60039776685e-06
6.60037859105e-06
6.60035540744e-06
6.60032838159e-06
6.60030273582e-06
6.60028170769e-06
6.60026794327e-06
6.60026310589e-06
6.60026784436e-06
6.60028149626e-06
6.60030238538e-06
6.60032785372e-06
6.60035468881e-06
6.60037771942e-06
6.6003970246e-06
6.60041009138e-06
6.60039108652e-06
6.60036861294e-06
6.60034239811e-06
6.60031753778e-06
6.60029715701e-06
6.60028381377e-06
6.60027912319e-06
6.60028371162e-06
6.60029694058e-06
6.60031718475e-06
6.60034187961e-06
6.60036792151e-06
6.60039025396e-06
6.60040939043e-06
6.60042109912e-06
6.60040237495e-06
6.60038069822e-06
6.60035546272e-06
6.60033158585e-06
6.60031204548e-06
6.60029926247e-06
6.6002947699e-06
6.60029915825e-06
6.6003118268e-06
6.60033123434e-06
6.60035495661e-06
6.60038003822e-06
6.6004015842e-06
6.60042044408e-06
6.60043159781e-06
6.60041334359e-06
6.60039261547e-06
6.60036858023e-06
6.60034594031e-06
6.60032747498e-06
6.6003154174e-06
6.60031118326e-06
6.60031531328e-06
6.60032725806e-06
6.60034559747e-06
6.60036809765e-06
6.6003919972e-06
6.60041260714e-06
6.60043099353e-06
6.60044222569e-06
6.60042466522e-06
6.6004050553e-06
6.60038246193e-06
6.60036133796e-06
6.60034420616e-06
6.60033305721e-06
6.6003291478e-06
6.60033295541e-06
6.60034399557e-06
6.60036100921e-06
6.60038200812e-06
6.60040448179e-06
6.60042398626e-06
6.60044167846e-06
6.60045336116e-06
6.60043667249e-06
6.60041831675e-06
6.60039740724e-06
6.60037809912e-06
6.60036258532e-06
6.60035254269e-06
6.60034903079e-06
6.60035244584e-06
6.60036238613e-06
6.60037779267e-06
6.60039699025e-06
6.60041779495e-06
6.60043605005e-06
6.60045287037e-06
6.60046539111e-06
6.60044957788e-06
6.60043248893e-06
6.60041342374e-06
6.60039620558e-06
6.60038257599e-06
6.60037383343e-06
6.60037078648e-06
6.60037374408e-06
6.6003823948e-06
6.60039592678e-06
6.60041304982e-06
6.60043202287e-06
6.60044901741e-06
6.60046496646e-06
6.60047983618e-06
6.60046461922e-06
6.60044816933e-06
6.60043075582e-06
6.60041565015e-06
6.60040397554e-06
6.60039657853e-06
6.60039401904e-06
6.60039650129e-06
6.60040381554e-06
6.60041540827e-06
6.60043043058e-06
6.60044776138e-06
6.60046411977e-06
6.60047946346e-06
6.60049750987e-06
6.60047920747e-06
6.60046271192e-06
6.60044709406e-06
6.6004343434e-06
6.60042476309e-06
6.60041878455e-06
6.60041673059e-06
6.60041872223e-06
6.60042463595e-06
6.60043414744e-06
6.60044682926e-06
6.6004623806e-06
6.6004787905e-06
6.60049717523e-06
5.955910884e-06
5.95592482508e-06
5.95594155975e-06
5.95595892581e-06
5.9559747072e-06
5.95598718491e-06
5.95599514489e-06
5.95599781001e-06
5.95599488669e-06
5.95598666822e-06
5.95597393072e-06
5.95595793318e-06
5.95594041699e-06
5.95592372509e-06
5.95590976171e-06
5.95591837731e-06
5.95593221953e-06
5.95594898698e-06
5.95596648795e-06
5.95598246052e-06
5.95599513439e-06
5.95600324021e-06
5.95600595889e-06
5.95600297595e-06
5.95599460567e-06
5.95598166712e-06
5.95596547307e-06
5.95594782721e-06
5.95593108133e-06
5.95591729481e-06
5.95591300278e-06
5.95592587571e-06
5.95594176045e-06
5.95595863051e-06
5.95597417055e-06
5.9559865855e-06
5.95599455634e-06
5.95599723713e-06
5.95599429904e-06
5.95598607156e-06
5.95597340415e-06
5.9559576486e-06
5.95594064443e-06
5.95592474037e-06
5.95591194329e-06
5.95590776011e-06
5.95591999674e-06
5.95593527195e-06
5.9559516486e-06
5.95596686075e-06
5.95597908319e-06
5.95598695662e-06
5.95598961169e-06
5.95598670975e-06
5.95597859102e-06
5.95596613e-06
5.95595070809e-06
5.95593419011e-06
5.95591887472e-06
5.95590669411e-06
5.95590499529e-06
5.95591693424e-06
5.95593188114e-06