/*--------------------------------*- C++ -*----------------------------------*\
  =========                 |
  \\      /  F ield         | OpenFOAM: The Open Source CFD Toolbox
   \\    /   O peration     | Website:  https://openfoam.org
    \\  /    A nd           | Version:  7
     \\/     M anipulation  |
\*---------------------------------------------------------------------------*/
FoamFile
{
    version     2.0;
    format      ascii;
    class       volScalarField;
    location    "1.18";
    object      p;
}
// * * * * * * * * * * * * * * * * * * * * * * * * * * * * * * * * * * * * * //

dimensions      [0 2 -2 0 0 0 0];

internalField   nonuniform List<scalar> 
22500
(
-3.5725027634e-05
-3.57233666083e-05
-3.57224615363e-05
-3.57212010504e-05
-3.57203560918e-05
-3.57197758064e-05
-3.57194744088e-05
-3.57194185292e-05
-3.57196237193e-05
-3.57200731829e-05
-3.5720800218e-05
-3.57218013182e-05
-3.57232297603e-05
-3.57243250855e-05
-3.57262592555e-05
-3.57183977254e-05
-3.57162216236e-05
-3.57148303829e-05
-3.57129713835e-05
-3.57115256378e-05
-3.57104452897e-05
-3.57098171489e-05
-3.57096518169e-05
-3.5709973763e-05
-3.57107577951e-05
-3.57119939028e-05
-3.57136042039e-05
-3.57156439234e-05
-3.57172375097e-05
-3.57196981756e-05
-3.57112131306e-05
-3.57084502142e-05
-3.57064401307e-05
-3.57038844242e-05
-3.5701771845e-05
-3.57001378079e-05
-3.56991489005e-05
-3.56988632082e-05
-3.56993184033e-05
-3.57004766685e-05
-3.57022807466e-05
-3.57045711789e-05
-3.57073214473e-05
-3.57095429416e-05
-3.57125936123e-05
-3.57031248453e-05
-3.56995762267e-05
-3.56966763317e-05
-3.56932303348e-05
-3.56902924626e-05
-3.56879882206e-05
-3.56865649326e-05
-3.56861337494e-05
-3.56867481516e-05
-3.5688354882e-05
-3.56908437876e-05
-3.56939731595e-05
-3.56976254213e-05
-3.57007450871e-05
-3.57045767777e-05
-3.56929376544e-05
-3.5688260223e-05
-3.56841361743e-05
-3.56795335027e-05
-3.56755457791e-05
-3.56724060067e-05
-3.56704454788e-05
-3.5669834079e-05
-3.56706430271e-05
-3.56728015437e-05
-3.56761403031e-05
-3.56803326206e-05
-3.56851517544e-05
-3.56895037164e-05
-3.56944564218e-05
-3.56801291649e-05
-3.56739221359e-05
-3.56682624153e-05
-3.56622479265e-05
-3.56570005196e-05
-3.56528741322e-05
-3.56502843457e-05
-3.56494622906e-05
-3.56504977446e-05
-3.56533011828e-05
-3.56576414153e-05
-3.56631062897e-05
-3.56693467975e-05
-3.56752403534e-05
-3.56817112249e-05
-3.56645442964e-05
-3.56564103192e-05
-3.56489618955e-05
-3.5641331317e-05
-3.56346655215e-05
-3.56294436498e-05
-3.56261611462e-05
-3.5625107995e-05
-3.56263919244e-05
-3.56299049284e-05
-3.5635355981e-05
-3.56422518654e-05
-3.56501166796e-05
-3.56578042866e-05
-3.56661890331e-05
-3.56462036655e-05
-3.56358023348e-05
-3.56263869647e-05
-3.56170157721e-05
-3.56088476573e-05
-3.56024815957e-05
-3.55984824402e-05
-3.55971914982e-05
-3.55987317865e-05
-3.56029791801e-05
-3.56095900827e-05
-3.56180006495e-05
-3.56276134046e-05
-3.56372715759e-05
-3.5647910708e-05
-3.56252654001e-05
-3.56123588217e-05
-3.56008898859e-05
-3.55897531072e-05
-3.55800893665e-05
-3.55726020307e-05
-3.55679085436e-05
-3.55663888577e-05
-3.55681770445e-05
-3.55731368376e-05
-3.55808847285e-05
-3.55908028139e-05
-3.56021877832e-05
-3.56139015085e-05
-3.56270365936e-05
-3.56020028491e-05
-3.55864811461e-05
-3.5572974043e-05
-3.55601558053e-05
-3.55491003508e-05
-3.55405897438e-05
-3.55352720893e-05
-3.55335488552e-05
-3.55355595008e-05
-3.55411612086e-05
-3.55499476462e-05
-3.55612689051e-05
-3.55743414197e-05
-3.55880944956e-05
-3.56038372978e-05
-3.55767597946e-05
-3.5558651021e-05
-3.5543231002e-05
-3.55289242289e-05
-3.55166738555e-05
-3.55073081738e-05
-3.55014803325e-05
-3.54995934306e-05
-3.55017854961e-05
-3.55079140692e-05
-3.55175699844e-05
-3.55300970347e-05
-3.55446640836e-05
-3.55603309607e-05
-3.55786583003e-05
-3.55498520906e-05
-3.55293625992e-05
-3.55122912849e-05
-3.54967901028e-05
-3.54836198656e-05
-3.54736239085e-05
-3.54674346095e-05
-3.54654351565e-05
-3.54677555032e-05
-3.54742602677e-05
-3.54845594768e-05
-3.54980166072e-05
-3.55137841827e-05
-3.5531103993e-05
-3.55518138588e-05
-3.55213406261e-05
-3.54990489411e-05
-3.54807756401e-05
-3.54644612731e-05
-3.54507085323e-05
-3.54403545374e-05
-3.54339801964e-05
-3.54319294635e-05
-3.5434313447e-05
-3.54410151245e-05
-3.54516835393e-05
-3.54657322793e-05
-3.5482319495e-05
-3.55008433496e-05
-3.55233589797e-05
-3.54913815004e-05
-3.5468065564e-05
-3.54490931402e-05
-3.54323973794e-05
-3.54184746229e-05
-3.54081047973e-05
-3.54017707338e-05
-3.53997426708e-05
-3.5402111146e-05
-3.54087801428e-05
-3.54194712628e-05
-3.54336976454e-05
-3.54506732049e-05
-3.54699022914e-05
-3.54934425946e-05
-3.54635944576e-05
-3.54370594101e-05
-3.54176280554e-05
-3.54007769424e-05
-3.53870505607e-05
-3.53769941031e-05
-3.53709114487e-05
-3.53689791424e-05
-3.53712537925e-05
-3.53776734901e-05
-3.5388055063e-05
-3.54020897491e-05
-3.54192282732e-05
-3.54389273276e-05
-3.54656802897e-05
-3.71897821685e-05
-3.71894265299e-05
-3.71892265558e-05
-3.71893101396e-05
-3.71894612218e-05
-3.71896220544e-05
-3.71897266372e-05
-3.71897507071e-05
-3.71896857682e-05
-3.71895395024e-05
-3.71893325412e-05
-3.7189111982e-05
-3.71889301888e-05
-3.71889818939e-05
-3.71891388232e-05
-3.71861361395e-05
-3.7185903092e-05
-3.71858254868e-05
-3.71860549619e-05
-3.71863539764e-05
-3.71866377417e-05
-3.71868241956e-05
-3.71868771706e-05
-3.71867844215e-05
-3.71865573757e-05
-3.71862282067e-05
-3.71858621452e-05
-3.71855320879e-05
-3.7185459923e-05
-3.71854897614e-05
-3.71852142356e-05
-3.71853554211e-05
-3.7185598181e-05
-3.71861290392e-05
-3.71866806433e-05
-3.71871535229e-05
-3.71874566144e-05
-3.7187547313e-05
-3.71874111642e-05
-3.7187061206e-05
-3.71865360642e-05
-3.71859132556e-05
-3.71852789355e-05
-3.71848898967e-05
-3.71845502426e-05
-3.71870092688e-05
-3.71875659811e-05
-3.71881225855e-05
-3.71889084057e-05
-3.71896433376e-05
-3.71902358632e-05
-3.7190605008e-05
-3.71907150797e-05
-3.71905540163e-05
-3.71901318171e-05
-3.71894806307e-05
-3.71886707865e-05
-3.71877814611e-05
-3.71870835008e-05
-3.71863363025e-05
-3.71897511085e-05
-3.7190515556e-05
-3.71911722052e-05
-3.71919841805e-05
-3.71926928705e-05
-3.71932374153e-05
-3.71935648912e-05
-3.71936576096e-05
-3.71935100566e-05
-3.71931253116e-05
-3.71925180372e-05
-3.71917322956e-05
-3.71908184166e-05
-3.71900262269e-05
-3.71890792382e-05
-3.71921476882e-05
-3.71928117163e-05
-3.7193300414e-05
-3.71938790988e-05
-3.71943428694e-05
-3.71946738579e-05
-3.71948572586e-05
-3.71948983541e-05
-3.71947997554e-05
-3.71945562807e-05
-3.71941598411e-05
-3.71936184513e-05
-3.71929402696e-05
-3.71923240896e-05
-3.71914865913e-05
-3.71935227076e-05
-3.71937987992e-05
-3.71938977066e-05
-3.71940469803e-05
-3.71941105458e-05
-3.71941168488e-05
-3.71940897462e-05
-3.71940573887e-05
-3.71940302095e-05
-3.71939952206e-05
-3.71939218146e-05
-3.71937808441e-05
-3.71935354647e-05
-3.71933164927e-05
-3.71928790701e-05
-3.71936138116e-05
-3.71932894308e-05
-3.7192861165e-05
-3.71924710874e-05
-3.71920552132e-05
-3.71916848641e-05
-3.71914183449e-05
-3.71913034341e-05
-3.71913574066e-05
-3.71915604896e-05
-3.7191862809e-05
-3.71922019221e-05
-3.71924999242e-05
-3.71928161341e-05
-3.71929929313e-05
-3.7192423168e-05
-3.71913771588e-05
-3.71903618724e-05
-3.71893965289e-05
-3.71884839111e-05
-3.71877309855e-05
-3.71872243774e-05
-3.71870273638e-05
-3.71871625178e-05
-3.71876049427e-05
-3.71882895788e-05
-3.71891267204e-05
-3.71900040519e-05
-3.71909153971e-05
-3.71918277957e-05
-3.71901010893e-05
-3.71882968287e-05
-3.71866930416e-05
-3.71851697032e-05
-3.7183784845e-05
-3.71826742291e-05
-3.71819455968e-05
-3.71816733422e-05
-3.7181883444e-05
-3.71825477772e-05
-3.71835904892e-05
-3.71849014513e-05
-3.71863410575e-05
-3.71878486495e-05
-3.71895346562e-05
-3.71868684101e-05
-3.71843356245e-05
-3.71821802683e-05
-3.71801486883e-05
-3.71783423467e-05
-3.71769181056e-05
-3.7175997509e-05
-3.7175660776e-05
-3.71759356978e-05
-3.71767925468e-05
-3.71781498705e-05
-3.7179884401e-05
-3.7181836364e-05
-3.71839025179e-05
-3.71863318669e-05
-3.7182971579e-05
-3.7179783358e-05
-3.71771336919e-05
-3.71746595966e-05
-3.71724967207e-05
-3.71708146485e-05
-3.71697392281e-05
-3.71693516487e-05
-3.71696784049e-05
-3.71706914308e-05
-3.71723081828e-05
-3.71744016369e-05
-3.71768000827e-05
-3.71793666219e-05
-3.71824638567e-05
-3.71786694087e-05
-3.7174908697e-05
-3.71718190927e-05
-3.71689718585e-05
-3.71665251809e-05
-3.71646475477e-05
-3.7163460888e-05
-3.71630365297e-05
-3.71634020383e-05
-3.71645282363e-05
-3.71663427324e-05
-3.7168722761e-05
-3.71714981785e-05
-3.7174510368e-05
-3.71781915574e-05
-3.71741459737e-05
-3.71698595646e-05
-3.71663954872e-05
-3.71632589866e-05
-3.71606218656e-05
-3.71586300025e-05
-3.71573823601e-05
-3.71569422801e-05
-3.71573264712e-05
-3.71585166494e-05
-3.71604490142e-05
-3.71630228543e-05
-3.71660906019e-05
-3.71694817827e-05
-3.71737011774e-05
-3.71689590401e-05
-3.71646459789e-05
-3.71609303756e-05
-3.71576462796e-05
-3.71549589805e-05
-3.71529615284e-05
-3.71517254939e-05
-3.71512911988e-05
-3.71516735956e-05
-3.71528558699e-05
-3.71547973148e-05
-3.7157424871e-05
-3.71606439741e-05
-3.7164286715e-05
-3.7168542544e-05
-3.28091406773e-05
-3.28095947574e-05
-3.28100791746e-05
-3.28105626447e-05
-3.28109948541e-05
-3.28113297904e-05
-3.28115357819e-05
-3.28115906791e-05
-3.28114855037e-05
-3.28112296813e-05
-3.28108467909e-05
-3.28103732986e-05
-3.28098570232e-05
-3.28093538861e-05
-3.28089058637e-05
-3.28095798636e-05
-3.28100276406e-05
-3.28105138697e-05
-3.28109994773e-05
-3.28114338075e-05
-3.28117712974e-05
-3.28119791532e-05
-3.28120345637e-05
-3.28119281145e-05
-3.28116698077e-05
-3.28112839077e-05
-3.28108075021e-05
-3.2810289341e-05
-3.28097847832e-05
-3.28093437469e-05
-3.28094402939e-05
-3.28098423574e-05
-3.28102902462e-05
-3.28107444485e-05
-3.28111551251e-05
-3.28114766758e-05
-3.28116754887e-05
-3.28117282048e-05
-3.28116252864e-05
-3.28113770885e-05
-3.28110083343e-05
-3.28105563286e-05
-3.28100699785e-05
-3.2809603517e-05
-3.28092067267e-05
-3.28092206953e-05
-3.28095915915e-05
-3.28100110623e-05
-3.28104420174e-05
-3.28108358285e-05
-3.28111467066e-05
-3.28113398437e-05
-3.28113911097e-05
-3.28112908731e-05
-3.28110498187e-05
-3.2810693302e-05
-3.28102590887e-05
-3.28097963679e-05
-3.28093575906e-05
-3.28089899924e-05
-3.28090894015e-05
-3.28094523216e-05
-3.28098610161e-05
-3.28102831482e-05
-3.28106712515e-05
-3.28109793108e-05
-3.28111714764e-05
-3.28112229681e-05
-3.28111239312e-05
-3.28108854031e-05
-3.28105332419e-05
-3.28101057226e-05
-3.28096522017e-05
-3.28092232823e-05
-3.28088622273e-05
-3.28090539845e-05
-3.28094263217e-05
-3.28098374597e-05
-3.28102612061e-05
-3.28106512748e-05
-3.28109616331e-05
-3.28111557724e-05
-3.28112084723e-05
-3.28111098156e-05
-3.28108709989e-05
-3.28105181797e-05
-3.28100898208e-05
-3.28096351401e-05
-3.28092030774e-05
-3.28088305562e-05
-3.28091056156e-05
-3.28095004878e-05
-3.28099228519e-05
-3.28103546643e-05
-3.28107510774e-05
-3.28110662868e-05
-3.28112637353e-05
-3.28113181056e-05
-3.28112196243e-05
-3.28109793782e-05
-3.28106234718e-05
-3.28101900699e-05
-3.28097277784e-05
-3.28092841068e-05
-3.28088869291e-05
-3.2809236009e-05
-3.28096619936e-05
-3.28100999347e-05
-3.28105429897e-05
-3.28109472794e-05
-3.28112677857e-05
-3.28114684617e-05
-3.28115245129e-05
-3.28114263721e-05
-3.28111849179e-05
-3.28108256438e-05
-3.28103858787e-05
-3.28099130483e-05
-3.2809453249e-05
-3.28090226588e-05
-3.28094310109e-05
-3.28098914737e-05
-3.28103458582e-05
-3.28107998743e-05
-3.28112107596e-05
-3.28115349267e-05
-3.28117375711e-05
-3.28117948727e-05
-3.28116977133e-05
-3.28114564827e-05
-3.28110955575e-05
-3.2810650814e-05
-3.28101678614e-05
-3.28096911398e-05
-3.28092237713e-05
-3.28096722071e-05
-3.28101651663e-05
-3.28106338227e-05
-3.28110957914e-05
-3.28115099243e-05
-3.28118346424e-05
-3.28120370445e-05
-3.28120948534e-05
-3.2811999608e-05
-3.28117609528e-05
-3.28114016282e-05
-3.28109553849e-05
-3.28104654197e-05
-3.28099741319e-05
-3.2809471144e-05
-3.28099386348e-05
-3.28104586275e-05
-3.28109374133e-05
-3.28114026451e-05
-3.28118152928e-05
-3.28121363883e-05
-3.28123357861e-05
-3.28123931348e-05
-3.28123009483e-05
-3.28120677843e-05
-3.28117143057e-05
-3.28112713984e-05
-3.28107792199e-05
-3.28102777408e-05
-3.28097447445e-05
-3.28102088252e-05
-3.28107487402e-05
-3.28112330416e-05
-3.28116966352e-05
-3.28121026095e-05
-3.28124156497e-05
-3.28126090083e-05
-3.28126649058e-05
-3.28125769417e-05
-3.28123523955e-05
-3.28120093492e-05
-3.28115750075e-05
-3.28110856869e-05
-3.28105788772e-05
-3.28100233724e-05
-3.28104566875e-05
-3.28110115603e-05
-3.28115000523e-05
-3.28119590136e-05
-3.2812354434e-05
-3.2812655783e-05
-3.28128403271e-05
-3.28128940683e-05
-3.28128111164e-05
-3.28125981098e-05
-3.28122691902e-05
-3.28118474567e-05
-3.28113640456e-05
-3.28108533935e-05
-3.28102808052e-05
-3.28106695651e-05
-3.28112407024e-05
-3.28117311022e-05
-3.28121822174e-05
-3.28125621511e-05
-3.28128471595e-05
-3.2813020592e-05
-3.28130707364e-05
-3.28129943822e-05
-3.28127952729e-05
-3.28124851488e-05
-3.2812080965e-05
-3.28116070369e-05
-3.28110950673e-05
-3.28105036546e-05
-3.28110495644e-05
-3.28115496475e-05
-3.28120035352e-05
-3.28124094579e-05
-3.28127428708e-05
-3.28129892492e-05
-3.28131372486e-05
-3.28131798941e-05
-3.28131141053e-05
-3.28129435114e-05
-3.28126747786e-05
-3.28123196112e-05
-3.28118924866e-05
-3.28114186958e-05
-3.28108969509e-05
-3.27399043347e-05
-3.27396022184e-05
-3.2739290462e-05
-3.27389871289e-05
-3.27387208752e-05
-3.27385189092e-05
-3.27383965532e-05
-3.27383650777e-05
-3.27384292843e-05
-3.2738584238e-05
-3.27388176559e-05
-3.27391091449e-05
-3.27394315984e-05
-3.2739745796e-05
-3.27400278134e-05
-3.27397649504e-05
-3.27394704674e-05
-3.27391611096e-05
-3.27388594775e-05
-3.27385950138e-05
-3.27383935025e-05
-3.27382713826e-05
-3.27382403027e-05
-3.27383053977e-05
-3.27384614158e-05
-3.27386955621e-05
-3.27389870662e-05
-3.27393081229e-05
-3.27396198209e-05
-3.27398943358e-05
-3.27399981815e-05
-3.27397385356e-05
-3.27394577712e-05
-3.27391789741e-05
-3.27389319219e-05
-3.27387420708e-05
-3.27386266788e-05
-3.27385975901e-05
-3.27386599104e-05
-3.27388081775e-05
-3.27390293419e-05
-3.27393025085e-05
-3.27395999588e-05
-3.27398831348e-05
-3.27401259027e-05
-3.27402483202e-05
-3.27400157035e-05
-3.27397584972e-05
-3.27394985823e-05
-3.27392657798e-05
-3.27390852244e-05
-3.27389749097e-05
-3.27389470896e-05
-3.27390068211e-05
-3.27391484759e-05
-3.27393587231e-05
-3.27396165481e-05
-3.2739894361e-05
-3.27401545634e-05
-3.27403739126e-05
-3.2740440924e-05
-3.27402253531e-05
-3.27399841202e-05
-3.27397372193e-05
-3.2739514171e-05
-3.27393398314e-05
-3.27392328378e-05
-3.27392056353e-05
-3.27392633377e-05
-3.27394001317e-05
-3.27396025438e-05
-3.27398494803e-05
-3.27401136292e-05
-3.27403587125e-05
-3.27405639374e-05
-3.27405951483e-05
-3.27403911336e-05
-3.27401610913e-05
-3.27399238824e-05
-3.27397083756e-05
-3.27395389141e-05
-3.27394344601e-05
-3.27394076207e-05
-3.27394634519e-05
-3.27395961413e-05
-3.27397921231e-05
-3.27400304795e-05
-3.27402843365e-05
-3.27405190273e-05
-3.27407159694e-05
-3.27407249344e-05
-3.27405287832e-05
-3.27403066759e-05
-3.27400772726e-05
-3.27398679552e-05
-3.27397027364e-05
-3.27396005182e-05
-3.27395739117e-05
-3.27396278298e-05
-3.27397565609e-05
-3.27399466565e-05
-3.27401776037e-05
-3.27404231816e-05
-3.27406504854e-05
-3.27408429281e-05
-3.27408351291e-05
-3.27406435933e-05
-3.27404276505e-05
-3.27402047576e-05
-3.27400011225e-05
-3.27398401148e-05
-3.27397402851e-05
-3.27397139233e-05
-3.2739765823e-05
-3.27398904015e-05
-3.27400746099e-05
-3.27402986024e-05
-3.27405370693e-05
-3.2740759046e-05
-3.2740949975e-05
-3.2740929813e-05
-3.27407412005e-05
-3.27405303839e-05
-3.2740313597e-05
-3.27401158528e-05
-3.27399595081e-05
-3.273986248e-05
-3.27398364897e-05
-3.27398861041e-05
-3.2740006025e-05
-3.27401838214e-05
-3.27404006322e-05
-3.27406323485e-05
-3.27408501344e-05
-3.27410411054e-05
-3.27410136112e-05
-3.27408273559e-05
-3.27406211724e-05
-3.27404107905e-05
-3.27402196109e-05
-3.27400688879e-05
-3.27399753394e-05
-3.27399499972e-05
-3.27399970007e-05
-3.27401115308e-05
-3.27402819856e-05
-3.27404908403e-05
-3.27407155102e-05
-3.27409294257e-05
-3.27411215122e-05
-3.2741091409e-05
-3.27409073629e-05
-3.27407057541e-05
-3.27405024143e-05
-3.27403189773e-05
-3.27401749917e-05
-3.27400858359e-05
-3.27400613874e-05
-3.27401054602e-05
-3.27402136472e-05
-3.27403755853e-05
-3.27405753668e-05
-3.27407922897e-05
-3.27410023163e-05
-3.27411954286e-05
-3.27411684588e-05
-3.27409855895e-05
-3.27407884886e-05
-3.27405928338e-05
-3.27404182555e-05
-3.2740282466e-05
-3.27401984889e-05
-3.27401754251e-05
-3.2740216014e-05
-3.27403170672e-05
-3.27404690894e-05
-3.27406585617e-05
-3.27408670591e-05
-3.2741072998e-05
-3.27412675868e-05
-3.27412511818e-05
-3.27410678038e-05
-3.27408737433e-05
-3.27406853596e-05
-3.2740520367e-05
-3.27403930683e-05
-3.27403155194e-05
-3.2740293512e-05
-3.27403309919e-05
-3.27404237162e-05
-3.27405652939e-05
-3.27407439253e-05
-3.27409442613e-05
-3.27411476004e-05
-3.27413449356e-05
-3.27413418013e-05
-3.27411548314e-05
-3.27409625868e-05
-3.27407810817e-05
-3.27406256466e-05
-3.2740508393e-05
-3.27404366074e-05
-3.27404170032e-05
-3.27404501624e-05
-3.27405349665e-05
-3.27406651422e-05
-3.27408325586e-05
-3.2741025069e-05
-3.27412266941e-05
-3.27414304715e-05
-3.27413321297e-05
-3.27411699514e-05
-3.27410010504e-05
-3.27408468346e-05
-3.27407178588e-05
-3.27406214808e-05
-3.2740563887e-05
-3.27405478925e-05
-3.2740575429e-05
-3.27406442872e-05
-3.27407514444e-05
-3.27408910132e-05
-3.27410551589e-05
-3.27412325546e-05
-3.27414117883e-05
-2.98908954166e-05
-2.98910805795e-05
-2.9891276314e-05
-2.98914752184e-05
-2.98916507922e-05
-2.98917868346e-05
-2.98918721518e-05
-2.98918983008e-05
-2.98918614277e-05
-2.98917645808e-05
-2.98916157721e-05
-2.98914283072e-05
-2.98912202894e-05
-2.98910180776e-05
-2.98908379414e-05
-2.9890971932e-05
-2.98911518825e-05
-2.98913467496e-05
-2.98915448488e-05
-2.989172033e-05
-2.98918569411e-05
-2.98919427856e-05
-2.98919691044e-05
-2.9891931884e-05
-2.98918343837e-05
-2.98916849521e-05
-2.98914972884e-05
-2.98912899923e-05
-2.98910893463e-05
-2.98909142302e-05
-2.98908175338e-05
-2.98909759896e-05
-2.98911529429e-05
-2.9891335888e-05
-2.98915001655e-05
-2.98916292009e-05
-2.98917105788e-05
-2.98917354228e-05
-2.98916997568e-05
-2.98916069558e-05
-2.98914655337e-05
-2.98912893165e-05
-2.98910968968e-05
-2.98909143813e-05
-2.98907596577e-05
-2.98906542282e-05
-2.98907961977e-05
-2.98909578509e-05
-2.98911279222e-05
-2.98912825329e-05
-2.98914050608e-05
-2.98914825673e-05
-2.98915061304e-05
-2.98914718746e-05
-2.98913832389e-05
-2.98912488652e-05
-2.98910826349e-05
-2.9890903015e-05
-2.98907354851e-05
-2.98905963082e-05
-2.98905258783e-05
-2.98906569715e-05
-2.98908073778e-05
-2.98909675864e-05
-2.98911145186e-05
-2.98912317144e-05
-2.98913060379e-05
-2.98913285784e-05
-2.98912955189e-05
-2.98912103428e-05
-2.98910817072e-05
-2.98909234251e-05
-2.98907536656e-05
-2.98905969003e-05
-2.98904680391e-05
-2.98904176668e-05
-2.98905396183e-05
-2.98906811236e-05
-2.98908326663e-05
-2.98909725155e-05
-2.98910845692e-05
-2.98911557243e-05
-2.98911772279e-05
-2.98911453711e-05
-2.98910636208e-05
-2.98909405302e-05
-2.9890789647e-05
-2.9890628647e-05
-2.98904807012e-05
-2.98903596731e-05
-2.98903187085e-05
-2.98904330002e-05
-2.98905665774e-05
-2.9890709658e-05
-2.98908423148e-05
-2.98909488775e-05
-2.98910165948e-05
-2.9891036967e-05
-2.989100646e-05
-2.989092842e-05
-2.98908111886e-05
-2.98906678267e-05
-2.98905153132e-05
-2.98903753246e-05
-2.98902609461e-05
-2.98902247737e-05
-2.98903321637e-05
-2.98904580348e-05
-2.98905927644e-05
-2.98907179507e-05
-2.98908185834e-05
-2.98908824754e-05
-2.98909015953e-05
-2.98908725885e-05
-2.98907986693e-05
-2.98906877838e-05
-2.98905523276e-05
-2.98904083809e-05
-2.9890275962e-05
-2.98901675921e-05
-2.98901328824e-05
-2.98902336186e-05
-2.98903518303e-05
-2.98904779718e-05
-2.98905951319e-05
-2.98906892141e-05
-2.98907488645e-05
-2.98907665856e-05
-2.9890739291e-05
-2.9890669972e-05
-2.98905660443e-05
-2.98904390558e-05
-2.9890303975e-05
-2.9890179066e-05
-2.98900765356e-05
-2.98900404119e-05
-2.98901341512e-05
-2.98902446696e-05
-2.98903618956e-05
-2.98904704728e-05
-2.9890557445e-05
-2.98906124006e-05
-2.98906286045e-05
-2.9890603224e-05
-2.98905390086e-05
-2.98904426858e-05
-2.98903247754e-05
-2.98901989526e-05
-2.98900816581e-05
-2.98899849172e-05
-2.98899449291e-05
-2.98900317847e-05
-2.98901346234e-05
-2.98902425862e-05
-2.98903420547e-05
-2.98904212792e-05
-2.98904711833e-05
-2.98904857056e-05
-2.98904624889e-05
-2.98904038295e-05
-2.98903157424e-05
-2.98902074902e-05
-2.98900912566e-05
-2.98899816427e-05
-2.98898906819e-05
-2.98898448328e-05
-2.98899254356e-05
-2.98900207734e-05
-2.98901194482e-05
-2.98902093057e-05
-2.98902804338e-05
-2.98903248681e-05
-2.98903377006e-05
-2.98903167617e-05
-2.98902641213e-05
-2.9890184772e-05
-2.98900866047e-05
-2.98899800689e-05
-2.98898779038e-05
-2.98897922094e-05
-2.98897368738e-05
-2.9889813053e-05
-2.98899023305e-05
-2.98899923165e-05
-2.9890073019e-05
-2.98901359012e-05
-2.98901749458e-05
-2.9890185987e-05
-2.98901674996e-05
-2.98901209912e-05
-2.98900504084e-05
-2.98899621161e-05
-2.98898645512e-05
-2.98897684784e-05
-2.98896863561e-05
-2.98896205939e-05
-2.98896953827e-05
-2.98897798328e-05
-2.98898624505e-05
-2.98899342486e-05
-2.98899894819e-05
-2.98900232729e-05
-2.98900327392e-05
-2.98900166599e-05
-2.98899760202e-05
-2.98899139434e-05
-2.98898349645e-05
-2.98897453919e-05
-2.98896541093e-05
-2.98895724437e-05
-2.988956651e-05
-2.98896227705e-05
-2.98896894799e-05
-2.9889752152e-05
-2.98898060104e-05
-2.98898467723e-05
-2.98898714525e-05
-2.98898780223e-05
-2.9889865606e-05
-2.98898350448e-05
-2.98897880572e-05
-2.98897279308e-05
-2.98896585794e-05
-2.98895855529e-05
-2.98895220611e-05
-2.88168246092e-05
-2.88167079052e-05
-2.88165875653e-05
-2.88164672959e-05
-2.88163592678e-05
-2.88162739433e-05
-2.88162206512e-05
-2.88162048973e-05
-2.88162290297e-05
-2.88162909998e-05
-2.88163857106e-05
-2.88165046696e-05
-2.88166364676e-05
-2.88167643917e-05
-2.88168780921e-05
-2.88167730665e-05
-2.88166605891e-05
-2.88165413533e-05
-2.8816422125e-05
-2.8816314509e-05
-2.88162291805e-05
-2.88161756882e-05
-2.88161598388e-05
-2.88161841814e-05
-2.88162465412e-05
-2.88163415924e-05
-2.88164606202e-05
-2.88165918869e-05
-2.8816718757e-05
-2.8816829316e-05
-2.88168727938e-05
-2.88167746813e-05
-2.88166661701e-05
-2.88165558406e-05
-2.881645504e-05
-2.88163747737e-05
-2.88163243694e-05
-2.88163096269e-05
-2.88163330452e-05
-2.88163924199e-05
-2.88164823334e-05
-2.88165940191e-05
-2.88167157589e-05
-2.88168310373e-05
-2.88169286661e-05
-2.88169783761e-05
-2.88168908588e-05
-2.88167915116e-05
-2.88166885585e-05
-2.88165937228e-05
-2.8816517937e-05
-2.88164702425e-05
-2.88164564635e-05
-2.88164790392e-05
-2.88165357576e-05
-2.88166211429e-05
-2.88167264239e-05
-2.88168399789e-05
-2.88169456994e-05
-2.88170335433e-05
-2.88170615153e-05
-2.8816981239e-05
-2.88168886085e-05
-2.88167911429e-05
-2.88167009795e-05
-2.88166287093e-05
-2.8816583238e-05
-2.88165702286e-05
-2.88165921095e-05
-2.88166466201e-05
-2.88167283152e-05
-2.88168284861e-05
-2.88169357216e-05
-2.88170345459e-05
-2.88171158237e-05
-2.88171318281e-05
-2.881705768e-05
-2.88169702939e-05
-2.88168779344e-05
-2.88167922247e-05
-2.88167234512e-05
-2.88166801614e-05
-2.88166679187e-05
-2.88166890471e-05
-2.88167413419e-05
-2.88168194163e-05
-2.88169147757e-05
-2.88170163379e-05
-2.88171094571e-05
-2.88171856779e-05
-2.88171968482e-05
-2.88171281231e-05
-2.88170455269e-05
-2.88169581831e-05
-2.88168769283e-05
-2.88168117496e-05
-2.88167707528e-05
-2.88167593104e-05
-2.88167795863e-05
-2.88168294591e-05
-2.88169036951e-05
-2.88169941285e-05
-2.88170901398e-05
-2.88171780345e-05
-2.88172498327e-05
-2.88172594289e-05
-2.88171953559e-05
-2.88171176008e-05
-2.88170353421e-05
-2.88169588552e-05
-2.88168975686e-05
-2.8816859103e-05
-2.88168485018e-05
-2.88168678012e-05
-2.88169149621e-05
-2.88169850183e-05
-2.88170702455e-05
-2.88171606093e-05
-2.88172434778e-05
-2.88173111744e-05
-2.88173212161e-05
-2.88172619919e-05
-2.88171891404e-05
-2.88171121901e-05
-2.88170407812e-05
-2.88169836633e-05
-2.88169479418e-05
-2.88169382226e-05
-2.88169563914e-05
-2.88170005271e-05
-2.88170660078e-05
-2.88171456682e-05
-2.88172301782e-05
-2.88173080254e-05
-2.88173716302e-05
-2.88173841277e-05
-2.88173297815e-05
-2.88172618914e-05
-2.88171905421e-05
-2.88171245399e-05
-2.88170719976e-05
-2.88170392291e-05
-2.88170304781e-05
-2.88170473512e-05
-2.88170881513e-05
-2.881714865e-05
-2.88172223579e-05
-2.8817300766e-05
-2.88173735148e-05
-2.88174330463e-05
-2.88174492705e-05
-2.88173998953e-05
-2.88173370914e-05
-2.88172715421e-05
-2.88172113511e-05
-2.88171636197e-05
-2.88171340584e-05
-2.88171262679e-05
-2.88171417287e-05
-2.88171788688e-05
-2.88172340176e-05
-2.88173014314e-05
-2.88173735436e-05
-2.88174411749e-05
-2.88174965906e-05
-2.88175179247e-05
-2.88174729547e-05
-2.88174150423e-05
-2.88173554073e-05
-2.88173011169e-05
-2.88172586313e-05
-2.88172323213e-05
-2.88172256412e-05
-2.88172394538e-05
-2.88172727687e-05
-2.88173222232e-05
-2.88173830968e-05
-2.88174488872e-05
-2.88175115588e-05
-2.88175632802e-05
-2.88175917103e-05
-2.88175499311e-05
-2.88174961062e-05
-2.8817441763e-05
-2.88173935576e-05
-2.88173558468e-05
-2.8817333223e-05
-2.88173272752e-05
-2.88173397214e-05
-2.88173689014e-05
-2.88174127514e-05
-2.88174672374e-05
-2.88175271753e-05
-2.88175858056e-05
-2.88176349409e-05
-2.88176704816e-05
-2.88176302962e-05
-2.88175795692e-05
-2.88175302078e-05
-2.88174871193e-05
-2.88174547054e-05
-2.88174348531e-05
-2.88174302383e-05
-2.88174407997e-05
-2.88174663218e-05
-2.88175046511e-05
-2.88175531333e-05
-2.88176078364e-05
-2.88176632218e-05
-2.88177118374e-05
-2.88177101178e-05
-2.88176816346e-05
-2.8817642681e-05
-2.88176057515e-05
-2.88175743906e-05
-2.88175506932e-05
-2.88175368896e-05
-2.88175337592e-05
-2.8817542077e-05
-2.88175610527e-05
-2.88175896938e-05
-2.88176261016e-05
-2.8817667758e-05
-2.88177111691e-05
-2.88177477644e-05
-2.6610024625e-05
-2.66101011916e-05
-2.66101782485e-05
-2.66102571152e-05
-2.6610328525e-05
-2.66103852014e-05
-2.66104208749e-05
-2.66104320445e-05
-2.66104172828e-05
-2.66103779023e-05
-2.66103172357e-05
-2.66102406864e-05
-2.6610155725e-05
-2.6610073179e-05
-2.66099996783e-05
-2.6610055199e-05
-2.66101292495e-05
-2.66102059252e-05
-2.6610284331e-05
-2.66103556692e-05
-2.66104124762e-05
-2.66104483629e-05
-2.66104596395e-05
-2.66104447753e-05
-2.66104051844e-05
-2.6610344312e-05
-2.66102677512e-05
-2.66101831564e-05
-2.66101013434e-05
-2.66100300755e-05
-2.66099927553e-05
-2.66100575891e-05
-2.66101274131e-05
-2.66101999129e-05
-2.66102666658e-05
-2.66103201208e-05
-2.661035401e-05
-2.66103646017e-05
-2.6610350346e-05
-2.66103126726e-05
-2.66102550836e-05
-2.66101832207e-05
-2.6610104731e-05
-2.66100303467e-05
-2.66099674642e-05
-2.66099264496e-05
-2.66099844922e-05
-2.66100483342e-05
-2.66101159503e-05
-2.66101786922e-05
-2.66102291648e-05
-2.66102612694e-05
-2.6610271245e-05
-2.66102575405e-05
-2.66102215773e-05
-2.66101668936e-05
-2.66100991546e-05
-2.66100259433e-05
-2.66099577259e-05
-2.66099013181e-05
-2.66098740848e-05
-2.66099276071e-05
-2.66099869633e-05
-2.66100508148e-05
-2.66101103288e-05
-2.66101583832e-05
-2.66101890066e-05
-2.66101984735e-05
-2.6610185227e-05
-2.66101506941e-05
-2.66100984021e-05
-2.66100339826e-05
-2.66099648869e-05
-2.66099011391e-05
-2.66098490369e-05
-2.66098295828e-05
-2.66098789497e-05
-2.66099348822e-05
-2.66099953297e-05
-2.66100518125e-05
-2.66100975033e-05
-2.6610126654e-05
-2.66101356098e-05
-2.66101228419e-05
-2.66100897533e-05
-2.66100398108e-05
-2.66099785325e-05
-2.66099131585e-05
-2.6609853156e-05
-2.66098044023e-05
-2.66097882364e-05
-2.66098341265e-05
-2.66098869228e-05
-2.66099439163e-05
-2.66099973113e-05
-2.66100405305e-05
-2.66100681116e-05
-2.66100765158e-05
-2.6610064292e-05
-2.66100327757e-05
-2.66099853405e-05
-2.66099272958e-05
-2.66098655781e-05
-2.66098090142e-05
-2.66097631897e-05
-2.66097482485e-05
-2.66097910473e-05
-2.66098406958e-05
-2.66098942417e-05
-2.66099444021e-05
-2.66099849611e-05
-2.66100108068e-05
-2.66100186117e-05
-2.6610007001e-05
-2.66099772398e-05
-2.66099325345e-05
-2.66098779112e-05
-2.66098199231e-05
-2.66097666945e-05
-2.66097235808e-05
-2.66097085683e-05
-2.66097483459e-05
-2.6609794787e-05
-2.66098447246e-05
-2.66098914097e-05
-2.66099290866e-05
-2.66099530349e-05
-2.66099601937e-05
-2.66099492779e-05
-2.66099214751e-05
-2.66098797597e-05
-2.66098288061e-05
-2.66097746911e-05
-2.6609724799e-05
-2.66096843761e-05
-2.66096681675e-05
-2.66097047602e-05
-2.66097479833e-05
-2.66097941498e-05
-2.66098371464e-05
-2.66098716989e-05
-2.66098935839e-05
-2.66099000342e-05
-2.66098899021e-05
-2.66098642555e-05
-2.66098257894e-05
-2.66097787519e-05
-2.66097286721e-05
-2.66096821684e-05
-2.660964442e-05
-2.66096261847e-05
-2.66096596939e-05
-2.6609699646e-05
-2.66097418763e-05
-2.66097809436e-05
-2.66098121639e-05
-2.66098318369e-05
-2.66098375363e-05
-2.66098282791e-05
-2.66098049647e-05
-2.66097699977e-05
-2.6609727104e-05
-2.66096811771e-05
-2.66096380874e-05
-2.66096030117e-05
-2.66095821753e-05
-2.66096128499e-05
-2.66096495645e-05
-2.6609687822e-05
-2.66097228271e-05
-2.66097505249e-05
-2.66097678857e-05
-2.66097728032e-05
-2.6609764485e-05
-2.66097436806e-05
-2.6609712379e-05
-2.66096737825e-05
-2.66096320389e-05
-2.66095922343e-05
-2.66095595822e-05
-2.66095349317e-05
-2.6609563534e-05
-2.6609597577e-05
-2.66096321627e-05
-2.66096631462e-05
-2.66096874605e-05
-2.66097024235e-05
-2.66097066237e-05
-2.66096992627e-05
-2.66096809824e-05
-2.66096533656e-05
-2.66096189509e-05
-2.66095810611e-05
-2.66095439753e-05
-2.66095130318e-05
-2.66094841868e-05
-2.66095120774e-05
-2.66095440048e-05
-2.66095753139e-05
-2.66096026819e-05
-2.66096236168e-05