/*--------------------------------*- C++ -*----------------------------------*\
  =========                 |
  \\      /  F ield         | OpenFOAM: The Open Source CFD Toolbox
   \\    /   O peration     | Website:  https://openfoam.org
    \\  /    A nd           | Version:  7
     \\/     M anipulation  |
\*---------------------------------------------------------------------------*/
FoamFile
{
    version     2.0;
    format      ascii;
    class       volScalarField;
    location    "1.52";
    object      p;
}
// * * * * * * * * * * * * * * * * * * * * * * * * * * * * * * * * * * * * * //

dimensions      [0 2 -2 0 0 0 0];

internalField   nonuniform List<scalar> 
22500
(
-2.53302893898e-05
-2.53315136935e-05
-2.53320730262e-05
-2.53327762124e-05
-2.53336928041e-05
-2.53345558979e-05
-2.53351458419e-05
-2.53353373604e-05
-2.5335114539e-05
-2.53344925942e-05
-2.53335965696e-05
-2.53326460101e-05
-2.53319073597e-05
-2.53313122554e-05
-2.53300379113e-05
-2.53554776605e-05
-2.53578402894e-05
-2.53596348871e-05
-2.53613759691e-05
-2.53631120551e-05
-2.53645763169e-05
-2.53655365215e-05
-2.53658561171e-05
-2.53655052459e-05
-2.53645129992e-05
-2.53630154986e-05
-2.53612448651e-05
-2.53594672592e-05
-2.53576360351e-05
-2.53552241653e-05
-2.53784703508e-05
-2.53819554712e-05
-2.53846789056e-05
-2.53873182325e-05
-2.53897715585e-05
-2.53917628373e-05
-2.53930472788e-05
-2.53934786468e-05
-2.53930165094e-05
-2.53917005038e-05
-2.53896764353e-05
-2.5387188975e-05
-2.53845129721e-05
-2.53817521682e-05
-2.53782172467e-05
-2.53967827183e-05
-2.54010009224e-05
-2.54040660685e-05
-2.54071369424e-05
-2.54099092828e-05
-2.54121174142e-05
-2.54135272168e-05
-2.54140009755e-05
-2.54134963711e-05
-2.54120549732e-05
-2.54098139744e-05
-2.54070072971e-05
-2.54038994166e-05
-2.54007965877e-05
-2.53965292021e-05
-2.54104145041e-05
-2.54145241179e-05
-2.54171388661e-05
-2.54198727498e-05
-2.54222902076e-05
-2.54241847851e-05
-2.54253800665e-05
-2.54257787477e-05
-2.54253490299e-05
-2.54241219511e-05
-2.54221943964e-05
-2.54197425335e-05
-2.54169715986e-05
-2.5414318711e-05
-2.54101597717e-05
-2.54179539814e-05
-2.54205825756e-05
-2.54216824073e-05
-2.54229979304e-05
-2.54241280773e-05
-2.54249861341e-05
-2.5425509867e-05
-2.54256766153e-05
-2.54254782781e-05
-2.54249222469e-05
-2.54240307306e-05
-2.54228657699e-05
-2.54215128829e-05
-2.54203747755e-05
-2.54176972885e-05
-2.54175462806e-05
-2.54169293844e-05
-2.54152591466e-05
-2.54139030405e-05
-2.54126856579e-05
-2.54116986038e-05
-2.54110451172e-05
-2.54108076165e-05
-2.54110129743e-05
-2.54116336522e-05
-2.5412586845e-05
-2.54137691219e-05
-2.54150877674e-05
-2.54167193677e-05
-2.54172871524e-05
-2.54075721297e-05
-2.54017995275e-05
-2.53960545663e-05
-2.53907814723e-05
-2.53861806115e-05
-2.53825720388e-05
-2.53802611313e-05
-2.53794567459e-05
-2.53802282356e-05
-2.5382505642e-05
-2.5386079806e-05
-2.53906450937e-05
-2.53958805923e-05
-2.54015867386e-05
-2.540731052e-05
-2.53869042192e-05
-2.53741789566e-05
-2.53631521136e-05
-2.53528888067e-05
-2.53440269389e-05
-2.53371531076e-05
-2.5332792324e-05
-2.53312892069e-05
-2.53327586321e-05
-2.53370851953e-05
-2.53439240783e-05
-2.53527500078e-05
-2.53629755961e-05
-2.53739634118e-05
-2.53866395782e-05
-2.5355027243e-05
-2.5333885259e-05
-2.53165947499e-05
-2.5300559071e-05
-2.52868114261e-05
-2.52762293615e-05
-2.52695555585e-05
-2.52672663965e-05
-2.52695208996e-05
-2.52761596452e-05
-2.52867060661e-05
-2.53004173681e-05
-2.53164152978e-05
-2.53336666501e-05
-2.53547597746e-05
-2.53120634719e-05
-2.52815238787e-05
-2.52573159568e-05
-2.52350832124e-05
-2.52161271051e-05
-2.52016271324e-05
-2.51925252043e-05
-2.51894137391e-05
-2.51924894707e-05
-2.5201555337e-05
-2.52160189723e-05
-2.52349382113e-05
-2.52571331926e-05
-2.52813017491e-05
-2.53117922544e-05
-2.52585618016e-05
-2.52183605559e-05
-2.51870398047e-05
-2.51585632639e-05
-2.51343809071e-05
-2.51159830824e-05
-2.51044836846e-05
-2.51005633281e-05
-2.51044467512e-05
-2.51159090036e-05
-2.51342694681e-05
-2.51584144268e-05
-2.51868531124e-05
-2.52181344798e-05
-2.52582864775e-05
-2.51949952763e-05
-2.51461415279e-05
-2.5108091885e-05
-2.50736691413e-05
-2.50445365895e-05
-2.50224983214e-05
-2.50087854854e-05
-2.5004123777e-05
-2.50087472482e-05
-2.50224215582e-05
-2.50444215809e-05
-2.50735158216e-05
-2.51079004173e-05
-2.5145910684e-05
-2.51947153836e-05
-2.51231547754e-05
-2.50671617525e-05
-2.50228929294e-05
-2.49830098878e-05
-2.49495445109e-05
-2.49244503782e-05
-2.49089323706e-05
-2.49036732408e-05
-2.49088927006e-05
-2.49243710005e-05
-2.49494253521e-05
-2.49828515998e-05
-2.50226962188e-05
-2.50669254706e-05
-2.5122871629e-05
-2.50535729955e-05
-2.49859769254e-05
-2.49349235182e-05
-2.48896007464e-05
-2.4852412999e-05
-2.48249016499e-05
-2.48080206904e-05
-2.48023215871e-05
-2.48079794926e-05
-2.48248192024e-05
-2.48522896548e-05
-2.48894371131e-05
-2.49347202677e-05
-2.49857342819e-05
-2.50532886433e-05
-3.8078528677e-05
-3.80752457339e-05
-3.80707686251e-05
-3.80664676261e-05
-3.80625609513e-05
-3.80595038383e-05
-3.80575566274e-05
-3.80568937756e-05
-3.80575742165e-05
-3.80595382704e-05
-3.80626116085e-05
-3.80665353446e-05
-3.807085802e-05
-3.80753636188e-05
-3.80786849206e-05
-3.80691744422e-05
-3.80665785434e-05
-3.80627161143e-05
-3.80590151037e-05
-3.80556191027e-05
-3.80529503758e-05
-3.80512456315e-05
-3.80506648429e-05
-3.80512627978e-05
-3.80529838925e-05
-3.80556682075e-05
-3.80590805989e-05
-3.80628026884e-05
-3.80666937772e-05
-3.80693283784e-05
-3.80703003195e-05
-3.80693353218e-05
-3.80668854653e-05
-3.806447353e-05
-3.80621301968e-05
-3.80602421988e-05
-3.80590158965e-05
-3.80585960478e-05
-3.80590334663e-05
-3.80602767932e-05
-3.80621813913e-05
-3.80645422357e-05
-3.80669755641e-05
-3.80694533945e-05
-3.80704546955e-05
-3.8080804287e-05
-3.80814570837e-05
-3.80803016602e-05
-3.8078986564e-05
-3.80774884349e-05
-3.80761964124e-05
-3.8075322602e-05
-3.80750191173e-05
-3.80753409745e-05
-3.80762327314e-05
-3.80775423539e-05
-3.80790588296e-05
-3.80803954649e-05
-3.80815781201e-05
-3.80809599537e-05
-3.80933571237e-05
-3.80946401078e-05
-3.80938733093e-05
-3.80927897862e-05
-3.80914059831e-05
-3.80901539756e-05
-3.80892860786e-05
-3.80889813493e-05
-3.80893053876e-05
-3.80901923124e-05
-3.80914631949e-05
-3.80928663868e-05
-3.80939717092e-05
-3.8094764632e-05
-3.80935136636e-05
-3.81031347483e-05
-3.81038775293e-05
-3.81025845019e-05
-3.8100925595e-05
-3.80990181074e-05
-3.80973445148e-05
-3.80962042394e-05
-3.80958051541e-05
-3.80962243113e-05
-3.80973844871e-05
-3.80990777542e-05
-3.81010053177e-05
-3.81026860649e-05
-3.81040046208e-05
-3.81032920949e-05
-3.81083343492e-05
-3.81076595391e-05
-3.81052694978e-05
-3.81025671502e-05
-3.80997894538e-05
-3.80974561815e-05
-3.80959050636e-05
-3.80953663067e-05
-3.80959258292e-05
-3.80974976482e-05
-3.80998514868e-05
-3.81026500365e-05
-3.81053743861e-05
-3.8107789275e-05
-3.81084919777e-05
-3.81088157152e-05
-3.81061992983e-05
-3.81024333142e-05
-3.80984746838e-05
-3.80946762749e-05
-3.80915837244e-05
-3.80895653052e-05
-3.80888687129e-05
-3.80895865062e-05
-3.80916261092e-05
-3.80947397661e-05
-3.80985594506e-05
-3.81025402998e-05
-3.81063307269e-05
-3.81089737833e-05
-3.81050782421e-05
-3.81002442936e-05
-3.80949714736e-05
-3.80896669768e-05
-3.80847845782e-05
-3.80808915668e-05
-3.80783828492e-05
-3.80775211247e-05
-3.80784043513e-05
-3.80809346304e-05
-3.80848491986e-05
-3.80897532949e-05
-3.80950800906e-05
-3.81003769496e-05
-3.81052357612e-05
-3.80977555916e-05
-3.80905824429e-05
-3.80837367021e-05
-3.80770538594e-05
-3.80710651772e-05
-3.80663596614e-05
-3.80633554091e-05
-3.80623271228e-05
-3.8063376959e-05
-3.80664028894e-05
-3.80711301099e-05
-3.80771406839e-05
-3.80838459148e-05
-3.80907153944e-05
-3.8097912539e-05
-3.80874371904e-05
-3.80779061139e-05
-3.80694617187e-05
-3.80614082626e-05
-3.80543264504e-05
-3.80488255187e-05
-3.80453395841e-05
-3.80441501369e-05
-3.80453610144e-05
-3.80488685217e-05
-3.80543911898e-05
-3.80614948448e-05
-3.80695705853e-05
-3.80780383162e-05
-3.80875921526e-05
-3.80746546918e-05
-3.80628280702e-05
-3.80527978102e-05
-3.80434197871e-05
-3.80352982438e-05
-3.8029053544e-05
-3.8025123459e-05
-3.80237863428e-05
-3.80251445383e-05
-3.80290959047e-05
-3.80353619815e-05
-3.8043505178e-05
-3.80529052414e-05
-3.80629583515e-05
-3.80748071364e-05
-3.80599522994e-05
-3.80459191085e-05
-3.8034338365e-05
-3.80237208324e-05
-3.80146615906e-05
-3.80077685565e-05
-3.80034598827e-05
-3.80019989578e-05
-3.80034803691e-05
-3.80078096618e-05
-3.80147236819e-05
-3.80238040127e-05
-3.80344430173e-05
-3.80460459865e-05
-3.80601001054e-05
-3.80436389097e-05
-3.80274415459e-05
-3.80144628706e-05
-3.80027947841e-05
-3.79930087395e-05
-3.79856464246e-05
-3.79810780526e-05
-3.79795336253e-05
-3.79810975737e-05
-3.79856856935e-05
-3.79930678835e-05
-3.80028742942e-05
-3.80145634973e-05
-3.80275636424e-05
-3.80437808662e-05
-3.80241224348e-05
-3.80073053953e-05
-3.79933725835e-05
-3.79810627864e-05
-3.79709577067e-05
-3.79634458818e-05
-3.79588165797e-05
-3.79572569833e-05
-3.7958834689e-05
-3.79634825279e-05
-3.79710131524e-05
-3.79811376533e-05
-3.79934672607e-05
-3.80074213641e-05
-3.80242571818e-05
-2.62290613101e-05
-2.62309505773e-05
-2.62331010565e-05
-2.62353138539e-05
-2.62373052758e-05
-2.62388710892e-05
-2.623986733e-05
-2.62402061681e-05
-2.62398531169e-05
-2.62388440966e-05
-2.62372685821e-05
-2.62352713823e-05
-2.62330546543e-05
-2.62309052426e-05
-2.62290182911e-05
-2.62304448644e-05
-2.62322955108e-05
-2.62344406589e-05
-2.623665741e-05
-2.62386616168e-05
-2.62402431344e-05
-2.62412523195e-05
-2.62415963092e-05
-2.62412375735e-05
-2.62402150911e-05
-2.6238623327e-05
-2.62366127623e-05
-2.62343920665e-05
-2.62322478479e-05
-2.62304002034e-05
-2.62297303193e-05
-2.62314159401e-05
-2.62334191813e-05
-2.62355270537e-05
-2.62374527008e-05
-2.62389829258e-05
-2.62399639238e-05
-2.62402992041e-05
-2.6239949561e-05
-2.62389556506e-05
-2.62374154275e-05
-2.62354836068e-05
-2.62333724329e-05
-2.62313698437e-05
-2.62296863431e-05
-2.62288709801e-05
-2.62304682995e-05
-2.62323856693e-05
-2.62344296564e-05
-2.62363131822e-05
-2.62378189179e-05
-2.62387879743e-05
-2.62391198599e-05
-2.62387740927e-05
-2.62377925506e-05
-2.62362769796e-05
-2.62343871721e-05
-2.62323399458e-05
-2.62304233025e-05
-2.62288277721e-05
-2.62284194592e-05
-2.62300170502e-05
-2.62319190052e-05
-2.62339577099e-05
-2.62358456984e-05
-2.62373606658e-05
-2.62383381217e-05
-2.62386735044e-05
-2.62383249727e-05
-2.62373356905e-05
-2.62358114037e-05
-2.62339174089e-05
-2.62318757065e-05
-2.62299742557e-05
-2.62283773268e-05
-2.62283405909e-05
-2.62300080645e-05
-2.62319461742e-05
-2.6234021888e-05
-2.62359469147e-05
-2.62374940546e-05
-2.62384937376e-05
-2.62388372174e-05
-2.62384813252e-05
-2.62374704629e-05
-2.62359143683e-05
-2.62339834192e-05
-2.62319046084e-05
-2.62299667719e-05
-2.62282996765e-05
-2.6228604588e-05
-2.62304004832e-05
-2.62324156859e-05
-2.62345614734e-05
-2.62365475625e-05
-2.62381428038e-05
-2.62391736271e-05
-2.62395280903e-05
-2.62391621496e-05
-2.6238120988e-05
-2.62365174056e-05
-2.62345256847e-05
-2.62323768502e-05
-2.62303613707e-05
-2.62285649082e-05
-2.62292114308e-05
-2.62311856934e-05
-2.62333097564e-05
-2.62355480532e-05
-2.62376093973e-05
-2.62392606777e-05
-2.62403262848e-05
-2.62406927521e-05
-2.62403157633e-05
-2.62392406463e-05
-2.6237581593e-05
-2.62355147739e-05
-2.62332733377e-05
-2.62311485823e-05
-2.62291732569e-05
-2.62301462869e-05
-2.62323337271e-05
-2.62345857151e-05
-2.62369258909e-05
-2.62390652113e-05
-2.62407713022e-05
-2.62418694605e-05
-2.62422469251e-05
-2.624185998e-05
-2.62407532196e-05
-2.62390400142e-05
-2.62368955043e-05
-2.62345520738e-05
-2.6232298915e-05
-2.62301094484e-05
-2.62313722107e-05
-2.62337916494e-05
-2.62361771685e-05
-2.62386147378e-05
-2.62408224037e-05
-2.62425723888e-05
-2.62436947372e-05
-2.62440800158e-05
-2.62436862745e-05
-2.62425562217e-05
-2.6240799726e-05
-2.62385871358e-05
-2.62361462314e-05
-2.62337591164e-05
-2.62313372343e-05
-2.62328411841e-05
-2.6235493443e-05
-2.62380052911e-05
-2.62405233975e-05
-2.62427788286e-05
-2.62445533217e-05
-2.62456859852e-05
-2.6246074095e-05
-2.62456785402e-05
-2.62445390372e-05
-2.62427587037e-05
-2.62404986177e-05
-2.62379771632e-05
-2.62354632579e-05
-2.6232807925e-05
-2.6234494952e-05
-2.62373671376e-05
-2.62399897283e-05
-2.62425632731e-05
-2.62448379907e-05
-2.62466108764e-05
-2.62477358991e-05
-2.62481203014e-05
-2.62477294393e-05
-2.62465984598e-05
-2.62448202919e-05
-2.62425412932e-05
-2.62399644042e-05
-2.62373394866e-05
-2.6234463782e-05
-2.62362504237e-05
-2.62393295839e-05
-2.62420504781e-05
-2.62446545672e-05
-2.624691756e-05
-2.62486606551e-05
-2.62497580033e-05
-2.6250131857e-05
-2.6249752497e-05
-2.62486499159e-05
-2.62469023134e-05
-2.62446352824e-05
-2.62420279447e-05
-2.62393044426e-05
-2.6236221172e-05
-2.62380622307e-05
-2.62413542673e-05
-2.62441517153e-05
-2.62467535302e-05
-2.62489646686e-05
-2.62506421568e-05
-2.62516888677e-05
-2.62520435089e-05
-2.62516841783e-05
-2.62506331519e-05
-2.62489515459e-05
-2.6246736934e-05
-2.62441320369e-05
-2.62413318798e-05
-2.6238035508e-05
-2.62406633089e-05
-2.62438459649e-05
-2.62465622228e-05
-2.62490092127e-05
-2.62510311053e-05
-2.62525405085e-05
-2.62534727958e-05
-2.62537873424e-05
-2.62534689318e-05
-2.6252532979e-05
-2.625102027e-05
-2.6248995278e-05
-2.62465453782e-05
-2.62438264834e-05
-2.62406396122e-05
-3.1844375459e-05
-3.18432160019e-05
-3.18419018542e-05
-3.1840537238e-05
-3.18393083391e-05
-3.18383398509e-05
-3.18377222136e-05
-3.18375111721e-05
-3.18377287067e-05
-3.1838351693e-05
-3.18393236267e-05
-3.18405529776e-05
-3.18419166474e-05
-3.18432299752e-05
-3.18443945797e-05
-3.18440229077e-05
-3.18429067667e-05
-3.18416156185e-05
-3.18402657681e-05
-3.18390438496e-05
-3.18380771478e-05
-3.18374588892e-05
-3.18372472418e-05
-3.1837465713e-05
-3.18380894818e-05
-3.18390595141e-05
-3.18402816079e-05
-3.18416298045e-05
-3.18429199699e-05
-3.18440408407e-05
-3.1844959992e-05
-3.18439635449e-05
-3.18427830818e-05
-3.18415219818e-05
-3.18403676093e-05
-3.18394469534e-05
-3.18388550853e-05
-3.18386517194e-05
-3.18388613805e-05
-3.18394584228e-05
-3.18403824199e-05
-3.1841537614e-05
-3.18427977524e-05
-3.18439780483e-05
-3.1844978225e-05
-3.18458416812e-05
-3.18449171793e-05
-3.18438115488e-05
-3.18426112165e-05
-3.18415021419e-05
-3.18406117248e-05
-3.18400369192e-05
-3.18398388916e-05
-3.18400427421e-05
-3.18406223368e-05
-3.18415158485e-05
-3.18426259046e-05
-3.18438257884e-05
-3.18449318389e-05
-3.18458602245e-05
-3.18464150803e-05
-3.18455134693e-05
-3.18444429341e-05
-3.18432728816e-05
-3.18421857458e-05
-3.18413092862e-05
-3.18407417749e-05
-3.1840545844e-05
-3.18407470521e-05
-3.18413189747e-05
-3.18421985407e-05
-3.18432870923e-05
-3.18444574964e-05
-3.1845528936e-05
-3.18464338948e-05
-3.18467733577e-05
-3.18458648774e-05
-3.18448050833e-05
-3.18436465921e-05
-3.18425678466e-05
-3.18416964366e-05
-3.1841131383e-05
-3.18409360579e-05
-3.1841136223e-05
-3.18417053496e-05
-3.18425796265e-05
-3.18436598699e-05
-3.18448189909e-05
-3.18458803127e-05
-3.18467920597e-05
-3.18469712023e-05
-3.18460338899e-05
-3.18449677914e-05
-3.18438094886e-05
-3.18427317324e-05
-3.18418611769e-05
-3.18412964878e-05
-3.18411011532e-05
-3.18413008635e-05
-3.18418693419e-05
-3.18427427512e-05
-3.18438223591e-05
-3.18449818357e-05
-3.1846049881e-05
-3.18469899903e-05
-3.18470310767e-05
-3.18460501008e-05
-3.18449661574e-05
-3.18438011206e-05
-3.18427206121e-05
-3.18418495799e-05
-3.18412851144e-05
-3.18410899014e-05
-3.18412891024e-05
-3.18418570696e-05
-3.18427308282e-05
-3.18438132732e-05
-3.18449798463e-05
-3.18460661255e-05
-3.18470500292e-05
-3.18469757596e-05
-3.18459411412e-05
-3.18448331358e-05
-3.18436596311e-05
-3.18425773895e-05
-3.18417081421e-05
-3.18411459599e-05
-3.18409517228e-05
-3.18411496407e-05
-3.18417151357e-05
-3.18425871601e-05
-3.18436716067e-05
-3.18448470225e-05
-3.18459576011e-05
-3.18469946868e-05
-3.18468299452e-05
-3.1845738277e-05
-3.18446050203e-05
-3.18434257212e-05
-3.18423464059e-05
-3.18414839388e-05
-3.18409279332e-05
-3.1840736131e-05
-3.18409313584e-05
-3.18414905419e-05
-3.18423557439e-05
-3.18434374456e-05
-3.18446189609e-05
-3.18457550706e-05
-3.18468491426e-05
-3.18466180724e-05
-3.18454692774e-05
-3.18443131692e-05
-3.18431343962e-05
-3.18420660373e-05
-3.18412182277e-05
-3.18406739862e-05
-3.18404867342e-05
-3.18406772917e-05
-3.18412246484e-05
-3.18420753176e-05
-3.18431462025e-05
-3.18443274524e-05
-3.18454863812e-05
-3.18466371985e-05
-3.18463611639e-05
-3.18451576482e-05
-3.18439834304e-05
-3.18428134039e-05
-3.18417664121e-05
-3.18409427078e-05
-3.1840417206e-05
-3.18402369572e-05
-3.18404204695e-05
-3.18409491869e-05
-3.1841775685e-05
-3.18428254695e-05
-3.18439981124e-05
-3.18451752335e-05
-3.18463804497e-05
-3.18460903885e-05
-3.18448309896e-05
-3.18436394778e-05
-3.18424843631e-05
-3.18414677625e-05
-3.18406781081e-05
-3.18401778322e-05
-3.18400073256e-05
-3.18401812248e-05
-3.18406845582e-05
-3.18414774475e-05
-3.18424966976e-05
-3.18436546621e-05
-3.18448488944e-05
-3.18461094992e-05
-3.18458163122e-05
-3.18444894961e-05
-3.18432848055e-05
-3.1842152454e-05
-3.18411788872e-05
-3.18404337538e-05
-3.18399670357e-05
-3.18398086705e-05
-3.18399704288e-05
-3.18404406362e-05
-3.18411886956e-05
-3.18421654026e-05
-3.18433005586e-05
-3.1844508069e-05
-3.18458354982e-05
-3.1845087744e-05
-3.18438240377e-05
-3.18427040634e-05
-3.18416853648e-05
-3.18408320498e-05
-3.18401899379e-05
-3.18397915178e-05
-3.18396574828e-05
-3.18397951768e-05
-3.1840197039e-05
-3.18408425784e-05
-3.18416990046e-05
-3.18427206316e-05
-3.18438432015e-05
-3.1845107722e-05
-2.63377735406e-05
-2.63385065664e-05
-2.63393371082e-05
-2.63401993051e-05
-2.63409758221e-05
-2.63415881207e-05
-2.63419774832e-05
-2.63421096847e-05
-2.63419714302e-05
-2.63415772784e-05
-2.63409623705e-05
-2.63401844563e-05
-2.63393210421e-05
-2.63384917209e-05
-2.6337758588e-05
-2.6337897371e-05
-2.63386025418e-05
-2.63394184707e-05
-2.63402715103e-05
-2.63410442224e-05
-2.63416560054e-05
-2.63420462565e-05
-2.63421790264e-05
-2.63420399752e-05
-2.63416447165e-05
-2.63410300683e-05
-2.63402556445e-05
-2.63394010541e-05
-2.63385859894e-05
-2.63378809968e-05
-2.6337206984e-05
-2.63378352668e-05
-2.63385820253e-05
-2.63393810778e-05
-2.63401126376e-05
-2.63406959577e-05
-2.63410698866e-05
-2.63411975061e-05
-2.63410638657e-05
-2.63406850156e-05
-2.63400987105e-05
-2.63393656813e-05
-2.63385658602e-05
-2.63378199364e-05
-2.63371917185e-05
-2.6336569252e-05
-2.63371505665e-05
-2.63378493411e-05
-2.63386097056e-05
-2.63393120036e-05
-2.63398755056e-05
-2.63402382918e-05
-2.63403624273e-05
-2.63402326144e-05
-2.63398651415e-05
-2.63392986188e-05
-2.63385947472e-05
-2.63378336827e-05
-2.63371358847e-05
-2.63365547985e-05
-2.63361292589e-05
-2.63366905723e-05
-2.63373635071e-05
-2.63381021642e-05
-2.63387879284e-05
-2.63393402528e-05
-2.63396968406e-05
-2.63398191643e-05
-2.6339691614e-05
-2.6339330653e-05
-2.63387754724e-05
-2.6338088372e-05
-2.63373494505e-05
-2.63366776148e-05
-2.63361161133e-05
-2.63358184117e-05
-2.63363754792e-05
-2.63370343184e-05
-2.63377588955e-05
-2.63384333038e-05
-2.63389776292e-05
-2.63393297475e-05
-2.63394507555e-05
-2.63393250086e-05
-2.63389689094e-05
-2.63384218903e-05
-2.63377461617e-05
-2.63370212753e-05
-2.63363634786e-05
-2.63358064529e-05
-2.63355941602e-05
-2.63361551975e-05
-2.63368065422e-05
-2.63375209986e-05
-2.63381860207e-05
-2.63387229464e-05
-2.63390705735e-05
-2.63391901977e-05
-2.63390663927e-05
-2.63387152522e-05
-2.63381759313e-05
-2.63375098088e-05
-2.63367952526e-05
-2.63361447842e-05
-2.63355834694e-05
-2.63354361018e-05
-2.6336006289e-05
-2.63366535394e-05
-2.63373584387e-05
-2.63380132654e-05
-2.63385414334e-05
-2.63388833509e-05
-2.63390011306e-05
-2.63388797514e-05
-2.63385348047e-05
-2.63380045318e-05
-2.63373486648e-05
-2.63366436249e-05
-2.63359970912e-05
-2.63354266501e-05
-2.6335326134e-05
-2.63359063357e-05
-2.63365500593e-05
-2.63372437724e-05
-2.63378857453e-05
-2.63384022694e-05
-2.63387362527e-05
-2.63388513633e-05
-2.6338733235e-05
-2.63383967038e-05
-2.63378784209e-05
-2.63372355685e-05
-2.63365417354e-05
-2.63358985827e-05
-2.6335317771e-05
-2.63352459606e-05
-2.63358355481e-05
-2.63364741565e-05
-2.63371530783e-05
-2.6337777788e-05
-2.63382784295e-05
-2.63386015053e-05
-2.63387128064e-05
-2.63385990415e-05
-2.63382739012e-05
-2.63377717807e-05
-2.63371463179e-05
-2.63364672201e-05
-2.63358290379e-05
-2.63352388977e-05
-2.63351813973e-05
-2.6335777752e-05
-2.63364083767e-05
-2.63370678746e-05
-2.63376697504e-05
-2.6338149434e-05
-2.63384579005e-05
-2.6338564107e-05
-2.63384559466e-05
-2.6338145831e-05
-2.63376650016e-05
-2.63370624809e-05
-2.633640285e-05
-2.63357724567e-05
-2.63351754646e-05
-2.63351206662e-05
-2.63357219386e-05
-2.633634175e-05
-2.63369767314e-05
-2.63375497181e-05
-2.6338002517e-05
-2.63382924111e-05
-2.63383919215e-05
-2.63382909159e-05
-2.63379997781e-05
-2.63375460193e-05
-2.63369726334e-05
-2.63363375019e-05
-2.63357178888e-05
-2.63351159492e-05
-2.63350490555e-05
-2.63356565932e-05
-2.63362657221e-05
-2.63368735247e-05
-2.63374122608e-05
-2.63378333994e-05
-2.63381006205e-05
-2.63381923811e-05
-2.63380995323e-05
-2.63378312759e-05
-2.6337409646e-05
-2.63368704077e-05
-2.63362626645e-05
-2.63356536274e-05
-2.63350454522e-05
-2.63349552832e-05
-2.63355777159e-05
-2.63361790886e-05
-2.63367578718e-05
-2.63372587018e-05
-2.63376430705e-05
-2.6337885099e-05
-2.63379673529e-05
-2.63378842543e-05
-2.63376416941e-05
-2.63372567078e-05
-2.63367558932e-05
-2.63361769151e-05
-2.63355757726e-05
-2.63349526942e-05
-2.63350659986e-05
-2.63356642495e-05
-2.63362117222e-05
-2.63367161712e-05
-2.63371391165e-05
-2.63374586522e-05
-2.63376574145e-05
-2.63377249312e-05
-2.63376569068e-05
-2.63374576823e-05
-2.63371380137e-05
-2.6336714822e-05
-2.63362105216e-05
-2.63356630189e-05
-2.63350642215e-05
-2.77830287823e-05
-2.77825705866e-05
-2.77820531707e-05
-2.77815204141e-05
-2.77810433172e-05
-2.77806692509e-05
-2.77804327007e-05
-2.77803536674e-05
-2.77804399392e-05
-2.77806826167e-05
-2.77810605681e-05
-2.77815389892e-05
-2.77820708177e-05
-2.77825849219e-05
-2.77830422164e-05
-2.77828837967e-05
-2.77824401422e-05
-2.77819294131e-05
-2.77814000743e-05
-2.77809237287e-05
-2.77805491474e-05
-2.77803117104e-05
-2.7780232379e-05
-2.77803193827e-05
-2.77805632294e-05
-2.77809417786e-05
-2.77814191494e-05
-2.77819469747e-05
-2.77824542291e-05
-2.77828965037e-05
-2.77832405395e-05
-2.77828420111e-05
-2.7782373368e-05
-2.77818775801e-05
-2.77814264528e-05
-2.778106879e-05
-2.77808407961e-05
-2.77807642192e-05
-2.77808477362e-05
-2.77810815747e-05
-2.77814430248e-05
-2.77818955496e-05
-2.77823905245e-05
-2.77828566886e-05
-2.77832533391e-05
-2.77835726097e-05
-2.77832026869e-05
-2.77827630101e-05
-2.77822907397e-05
-2.7781857045e-05
-2.77815110179e-05
-2.77812894581e-05
-2.77812147516e-05
-2.7781295797e-05
-2.77815226995e-05
-2.77818722002e-05
-2.77823072207e-05
-2.77827789164e-05
-2.77832167745e-05
-2.77835854908e-05
-2.77837892761e-05
-2.77834311898e-05
-2.77830073052e-05
-2.77825492041e-05
-2.77821260108e-05
-2.7781786757e-05
-2.77815686788e-05
-2.77814947793e-05
-2.77815741986e-05
-2.77817969588e-05
-2.77821394338e-05
-2.77825642013e-05
-2.77830223955e-05
-2.77834452185e-05
-2.77838021236e-05
-2.77839351417e-05
-2.77835811074e-05
-2.7783166176e-05
-2.77827172871e-05
-2.77823013284e-05
-2.77819670654e-05
-2.77817517288e-05
-2.77816785252e-05
-2.77817566444e-05
-2.77819761376e-05
-2.77823132468e-05
-2.7782730635e-05
-2.77831797343e-05
-2.77835942922e-05
-2.77839475764e-05
-2.77840371878e-05
-2.77836823793e-05
-2.77832726634e-05
-2.77828315355e-05
-2.77824223586e-05
-2.77820931782e-05
-2.77818807658e-05
-2.77818083068e-05
-2.77818849581e-05
-2.77821009747e-05
-2.7782432756e-05
-2.77828435062e-05
-2.77832853344e-05
-2.77836952449e-05
-2.77840494175e-05
-2.77841078106e-05
-2.77837502695e-05
-2.77833438083e-05
-2.7782909753e-05
-2.77825075837e-05
-2.77821842238e-05
-2.77819755289e-05
-2.77819041834e-05
-2.77819791493e-05
-2.77821909791e-05
-2.77825166248e-05
-2.77829202783e-05
-2.77833552127e-05
-2.77837623651e-05
-2.77841198639e-05
-2.77841572346e-05
-2.77837955091e-05
-2.77833917918e-05
-2.77829657825e-05
-2.7782572336e-05
-2.77822566179e-05
-2.77820529465e-05
-2.77819832299e-05
-2.77820560587e-05
-2.77822624645e-05
-2.7782580346e-05
-2.7782975376e-05
-2.77834025341e-05
-2.77838073293e-05
-2.77841689968e-05
-2.7784194086e-05
-2.77838287398e-05
-2.77834284013e-05
-2.77830121619e-05
-2.77826297276e-05
-2.77823238189e-05
-2.77821268764e-05
-2.77820594301e-05
-2.77821295745e-05
-2.77823289671e-05
-2.7782636839e-05
-2.77830209028e-05
-2.77834384737e-05
-2.77838402019e-05
-2.77842058553e-05
-2.77842258901e-05
-2.77838570612e-05
-2.77834612325e-05
-2.77830572598e-05
-2.77826887974e-05
-2.77823956809e-05
-2.77822074843e-05
-2.77821431359e-05
-2.77822099262e-05
-2.77824003739e-05
-2.77826954688e-05
-2.77830655757e-05
-2.77834710775e-05
-2.7783868329e-05
-2.77842374264e-05
-2.77842575228e-05
-2.77838851596e-05
-2.77834954138e-05
-2.77831061812e-05
-2.77827552117e-05
-2.77824777243e-05
-2.77823006486e-05
-2.77822401494e-05
-2.77823029109e-05
-2.77824822498e-05
-2.77827614995e-05
-2.7783114368e-05
-2.77835051949e-05
-2.77838964939e-05
-2.77842690597e-05
-2.77842975563e-05
-2.77839191311e-05
-2.77835347432e-05
-2.77831617877e-05
-2.77828300281e-05
-2.77825713391e-05
-2.77824068334e-05
-2.77823512039e-05
-2.77824091564e-05
-2.7782575591e-05
-2.77828365338e-05
-2.77831698026e-05
-2.77835447206e-05
-2.77839305686e-05
-2.77843089777e-05
-2.77843418582e-05
-2.77839503889e-05
-2.77835738607e-05
-2.7783218903e-05
-2.77829107202e-05
-2.77826729021e-05
-2.7782523885e-05
-2.77824735141e-05
-2.77825261384e-05
-2.77826775713e-05
-2.77829171085e-05
-2.77832275048e-05
-2.77835840569e-05
-2.77839623652e-05
-2.77843533116e-05
-2.77841786964e-05
-2.77838373909e-05
-2.77835137309e-05
-2.77832170392e-05
-2.77829637133e-05
-2.77827715781e-05
-2.77826519339e-05
-2.77826121074e-05
-2.77826545301e-05
-2.77827764893e-05
-2.77829709342e-05
-2.77832261274e-05
-2.77835248137e-05
-2.77838497256e-05
-2.77841909887e-05
-2.48697969322e-05
-2.487008169e-05
-2.48704021808e-05
-2.48707328776e-05
-2.48710286396e-05
-2.48712609976e-05
-2.48714085292e-05
-2.48714582319e-05
-2.48714047924e-05
-2.48712536529e-05
-2.48710181567e-05
-2.48707206896e-05
-2.48703907146e-05
-2.48700752587e-05
-2.48697950709e-05
-2.48697957686e-05
-2.48700680963e-05
-2.48703809518e-05
-2.48707065233e-05
-2.48709993244e-05
-2.48712302284e-05
-2.48713772586e-05
-2.48714268142e-05
-2.48713732734e-05
-2.48712223816e-05
-2.48709880769e-05
-2.48706933638e-05
-2.48703684388e-05
-2.48700603028e-05
-2.48697927486e-05
-2.48694754962e-05
-2.48697164455e-05
-2.48700002641e-05
-2.4870303219e-05
-2.48705789643e-05
-2.4870798276e-05
-2.48709385796e-05
-2.48709859944e-05
-2.48709347663e-05
-2.48707908463e-05
-2.4870568492e-05
-2.48702911052e-05
-2.48699888643e-05
-2.48697093362e-05
-2.48694731488e-05
-2.4869186787e-05
-2.48694081966e-05
-2.48696717545e-05
-2.48699589194e-05
-2.48702228925e-05
-2.48704342584e-05
-2.48705700007e-05
-2.48706159573e-05
-2.48705663165e-05
-2.48704271342e-05
-2.48702129944e-05
-2.48699476419e-05
-2.48696612498e-05
-2.4869401595e-05
-2.48691845356e-05
-2.48689818742e-05
-2.48691945425e-05
-2.48694467069e-05
-2.48697246272e-05
-2.48699817894e-05
-2.48701886683e-05
-2.48703219501e-05
-2.48703671903e-05
-2.48703185531e-05
-2.48701821732e-05
-2.48699728684e-05
-2.48697145967e-05
-2.48694374142e-05
-2.48691889094e-05
-2.48689801011e-05
-2.48688307936e-05
-2.48690405849e-05
-2.48692855728e-05
-2.48695573205e-05
-2.48698096122e-05
-2.48700131046e-05
-2.48701444369e-05
-2.48701891038e-05
-2.48701412863e-05
-2.48700071265e-05
-2.48698015163e-05
-2.48695483488e-05
-2.48692773754e-05
-2.48690355588e-05
-2.48688294698e-05
-2.48687147333e-05
-2.48689242452e-05
-2.4869164395e-05
-2.48694310258e-05
-2.4869678804e-05
-2.48698788893e-05
-2.48700081746e-05
-2.487005225e-05
-2.48700053852e-05
-2.48698736243e-05
-2.48696717435e-05
-2.48694232525e-05
-2.48691573661e-05
-2.48689200395e-05
-2.4868713696e-05
-2.48686241553e-05
-2.48688346071e-05
-2.48690707448e-05
-2.48693321786e-05
-2.4869574932e-05
-2.48697708602e-05
-2.48698974762e-05
-2.48699407205e-05
-2.48698950432e-05
-2.48697663036e-05
-2.48695689009e-05
-2.48693256409e-05
-2.48690649073e-05
-2.48688311588e-05
-2.48686234782e-05
-2.48685506376e-05
-2.48687616873e-05
-2.48689936743e-05
-2.48692488774e-05
-2.48694851743e-05
-2.48696755222e-05
-2.48697984724e-05
-2.48698405247e-05
-2.48697964228e-05
-2.48696717154e-05
-2.48694801569e-05
-2.48692434861e-05
-2.48689889229e-05
-2.48687590012e-05
-2.48685501471e-05
-2.48684860191e-05
-2.48686965365e-05
-2.48689233214e-05
-2.48691706085e-05
-2.48693985204e-05
-2.48695815304e-05
-2.48696995213e-05
-2.48697399373e-05
-2.48696978796e-05
-2.48695784849e-05
-2.4869394586e-05
-2.48691664433e-05
-2.48689197372e-05
-2.48686946014e-05
-2.48684858754e-05
-2.48684238203e-05
-2.48686321087e-05
-2.48688525174e-05
-2.48690899102e-05
-2.4869307166e-05
-2.48694806449e-05
-2.4869592208e-05
-2.48696304195e-05
-2.48695909419e-05
-2.48694783407e-05
-2.48693042075e-05
-2.4869086883e-05
-2.48688500333e-05
-2.48686310252e-05
-2.48684239671e-05
-2.4868359283e-05
-2.48685641652e-05
-2.48687769981e-05
-2.48690025283e-05
-2.48692066062e-05
-2.48693683725e-05
-2.48694718014e-05
-2.48695072733e-05
-2.48694709178e-05
-2.48693667263e-05
-2.48692046742e-05
-2.48690006324e-05
-2.48687756507e-05
-2.48685639629e-05
-2.48683599891e-05
-2.48682868759e-05
-2.4868488622e-05
-2.4868694149e-05
-2.48689067413e-05
-2.48690958014e-05
-2.48692435214e-05
-2.48693375415e-05
-2.48693695898e-05
-2.48693369722e-05
-2.48692426946e-05
-2.48690947664e-05
-2.4868906013e-05
-2.48686939497e-05
-2.48684894294e-05
-2.48682883324e-05
-2.48681973528e-05
-2.4868398746e-05
-2.48686006748e-05
-2.48688013259e-05
-2.48689744228e-05