/*--------------------------------*- C++ -*----------------------------------*\
  =========                 |
  \\      /  F ield         | OpenFOAM: The Open Source CFD Toolbox
   \\    /   O peration     | Website:  https://openfoam.org
    \\  /    A nd           | Version:  7
     \\/     M anipulation  |
\*---------------------------------------------------------------------------*/
FoamFile
{
    version     2.0;
    format      ascii;
    class       surfaceScalarField;
    location    "1.52";
    object      phi;
}
// * * * * * * * * * * * * * * * * * * * * * * * * * * * * * * * * * * * * * //

dimensions      [0 3 -1 0 0 0 0];

internalField   nonuniform List<scalar> 
65775
(
-3.16096117608e-11
-9.37487322183e-09
2.81258129554e-10
-3.09403078841e-14
-5.92759046931e-11
-9.88817052698e-09
3.18008974393e-10
-6.60559474048e-11
-1.03701010572e-08
3.54017494565e-10
-6.02992616163e-11
-1.07816703301e-08
3.87091842597e-10
-4.73134608012e-11
-1.11124301841e-08
4.15300566793e-10
-3.013959206e-11
-1.13554266416e-08
4.36897740533e-10
-1.06680106157e-11
-1.15080398711e-08
4.50614260129e-10
9.59684035692e-12
-1.15647640808e-08
4.55499088616e-10
2.90781343268e-11
-1.15080040842e-08
4.50635791665e-10
4.62778702237e-11
-1.13553511463e-08
4.36937901626e-10
5.93105582651e-11
-1.11123139984e-08
4.15353994781e-10
6.51376167046e-11
-1.07815172642e-08
3.87149074645e-10
5.84468644502e-11
-1.03699365459e-08
3.54063033166e-10
3.08920091697e-11
-9.88802253909e-09
3.18018787756e-10
-9.37487959705e-09
2.81202009743e-10
-5.15191190584e-13
-1.13695028258e-10
-1.7797048532e-08
-1.57768588584e-10
-8.41228878441e-14
-1.94330180012e-10
-1.87643616507e-08
-2.07732162753e-10
-2.20686801207e-10
-1.96713764886e-08
-2.59333036429e-10
-2.0785673978e-10
-2.04357380704e-08
-3.08639308873e-10
-1.67509091285e-10
-2.10433316498e-08
-3.5177955962e-10
-1.08430578759e-10
-2.14862603544e-08
-3.85436010742e-10
-3.82350147692e-11
-2.17632328398e-08
-4.07000653524e-10
3.56098104112e-11
-2.18660645496e-08
-4.14608299142e-10
1.05828370349e-10
-2.17631736246e-08
-4.06943967795e-10
1.64966632101e-10
-2.14861353877e-08
-3.85330444524e-10
2.05424635475e-10
-2.10431325367e-08
-3.51639419296e-10
2.18424483291e-10
-2.04354655721e-08
-3.08490245573e-10
1.92293539435e-10
-1.96710654597e-08
-2.59217601223e-10
1.11975328793e-10
-1.87641101043e-08
-2.07716720934e-10
-1.77971251761e-08
-1.57932378538e-10
-1.28123962259e-12
-2.0992724546e-10
-2.46020644724e-08
-1.24694461107e-09
-1.3006857812e-13
-3.4105268327e-10
-2.58923290437e-08
-1.47190834327e-09
-3.92327192787e-10
-2.70767875728e-08
-1.69404674964e-09
-3.7706817625e-10
-2.80626285511e-08
-1.89901413665e-09
-3.0915033982e-10
-2.883776438e-08
-2.07378897188e-09
-2.02225260183e-10
-2.93985296005e-08
-2.20752531901e-09
-7.11913282624e-11
-2.97479238993e-08
-2.2922701436e-09
6.78060411215e-11
-2.98779000628e-08
-2.32220745803e-09
1.98865309428e-10
-2.97478836551e-08
-2.29219546129e-09
3.05858229744e-10
-2.93984411605e-08
-2.20738590417e-09
3.73905652944e-10
-2.88376176668e-08
-2.07360317961e-09
3.89369601229e-10
-2.80624244469e-08
-1.89881588344e-09
3.38379053718e-10
-2.70765489954e-08
-1.69389396508e-09
2.07669158392e-10
-2.58921729497e-08
-1.47189484113e-09
-2.46022918981e-08
-1.2471863817e-09
-1.74576562051e-12
-3.07679009915e-10
-2.95378031807e-08
-2.58672709676e-09
-1.84819270804e-13
-4.90517988081e-10
-3.10111207405e-08
-2.99590041919e-09
-5.69296090218e-10
-3.23228139823e-08
-3.38980508488e-09
-5.53771452449e-10
-3.34033427809e-08
-3.74631260244e-09
-4.58491120958e-10
-3.42456256387e-08
-4.04575045691e-09
-3.01646875911e-10
-3.4851684181e-08
-4.27227793724e-09
-1.06043792368e-10
-3.52285975655e-08
-4.41482049891e-09
1.02444879026e-10
-3.53693143014e-08
-4.46512634612e-09
2.98072552805e-10
-3.52285833092e-08
-4.41474334689e-09
4.54982022846e-10
-3.48516497771e-08
-4.27213363342e-09
5.50388225562e-10
-3.42455579962e-08
-4.04555725947e-09
5.66115778582e-10
-3.34032367612e-08
-3.74610526087e-09
4.87627321754e-10
-3.23226804013e-08
-3.38964498885e-09
3.05216483802e-10
-3.10110864468e-08
-2.99589197969e-09
-2.95381727865e-08
-2.58700752113e-09
-1.99924038774e-12
-3.97779825416e-10
-3.26656874468e-08
-3.87273193948e-09
-2.35985891154e-13
-6.33622438627e-10
-3.42092328703e-08
-4.43004568128e-09
-7.39757876078e-10
-3.55396054726e-08
-4.95548228423e-09
-7.24128187353e-10
-3.6627252026e-08
-5.42401845348e-09
-6.02316170757e-10
-3.74706065457e-08
-5.81314857793e-09
-3.97253960655e-10
-3.80759189781e-08
-6.10510699296e-09
-1.39463453884e-10
-3.84523065995e-08
-6.28790941739e-09
1.3589643891e-10
-3.85933379861e-08
-6.35237741495e-09
3.93711673188e-10
-3.84523299695e-08
-6.28783823234e-09
5.98836995123e-10
-3.80759599368e-08
-6.10497372205e-09
7.20767108571e-10
-3.74706527506e-08
-5.81296954806e-09
7.36585101812e-10
-3.66272934149e-08
-5.42382532787e-09
6.3071960891e-10
-3.55396395498e-08
-4.95533222753e-09
3.95275465024e-10
-3.42093638364e-08
-4.43004144301e-09
-3.26661837013e-08
-3.87301770286e-09
-2.1345542883e-12
-4.75914375686e-10
-3.42234801427e-08
-4.93296301856e-09
-2.72076763832e-13
-7.64321704415e-10
-3.57573481123e-08
-5.59400127776e-09
-8.96134209573e-10
-3.70421613953e-08
-6.20791541174e-09
-8.79957406776e-10
-3.80866318456e-08
-6.74994871932e-09
-7.33276404272e-10
-3.88946848508e-08
-7.1969499113e-09
-4.83984059176e-10
-3.94745583194e-08
-7.53065337126e-09
-1.69703733954e-10
-3.98354245256e-08
-7.73895423595e-09
1.6622567477e-10
-3.99709599536e-08
-7.8123555521e-09
4.80532404597e-10
-3.98354832619e-08
-7.73889197201e-09
7.29887547892e-10
-3.94746702113e-08
-7.53053804935e-09
8.76680656758e-10
-3.88948353234e-08
-7.19679525703e-09
8.93030600992e-10
-3.80868055836e-08
-6.74978143475e-09
7.61465440267e-10
-3.70423430609e-08
-6.20778518503e-09
4.73420037977e-10
-3.57576280543e-08
-5.59400260373e-09
-3.42240901944e-08
-4.93323644978e-09
-2.21420267576e-12
-5.42615588725e-10
-3.44997617494e-08
-5.71606753061e-09
-2.91171704977e-13
-8.81216016355e-10
-3.59685009546e-08
-6.44726857862e-09
-1.03662608748e-09
-3.71727924297e-08
-7.12007596902e-09
-1.01961435987e-09
-3.81467967073e-08
-7.71082122761e-09
-8.50162424122e-10
-3.89002697998e-08
-8.19622042921e-09
-5.61132220099e-10
-3.94416072156e-08
-8.55768540163e-09
-1.96557415288e-10
-3.97788190239e-08
-8.78292107251e-09
1.93149120099e-10
-3.9905528167e-08
-8.86218153474e-09
5.57752227353e-10
-3.97789170724e-08
-8.78286860965e-09
8.46846034425e-10
-3.9441797065e-08
-8.55758861207e-09
1.01640576423e-09
-3.89005348674e-08
-8.19609079103e-09
1.03357813508e-09
-3.81471166708e-08
-7.71068082041e-09
8.78394166847e-10
-3.71731401146e-08
-7.11996653063e-09
5.40123878678e-10
-3.59689434715e-08
-6.44727472393e-09
-3.45004832986e-08
-5.71632141486e-09
-2.27375389227e-12
-6.01011275389e-10
-3.37640665202e-08
-6.23795576543e-09
-2.92117527766e-13
-9.86317215927e-10
-3.51277981014e-08
-7.01894201473e-09
-1.16348495521e-09
-3.62316632454e-08
-7.73394784755e-09
-1.1455658686e-09
-3.71195245999e-08
-8.36001975437e-09
-9.55290536045e-10
-3.78073555504e-08
-8.87357194304e-09
-6.30352779445e-10
-3.83024309077e-08
-9.25553956347e-09
-2.20629551816e-10
-3.86109977714e-08
-9.49324646773e-09
2.17249295291e-10
-3.8726751415e-08
-9.57670435223e-09
6.27002332756e-10
-3.86111331288e-08
-9.49320320984e-09
9.5200446221e-10
-3.83026945001e-08
-9.25546020944e-09
1.14238411102e-09
-3.78077287833e-08
-8.87346593862e-09
1.16045464155e-09
-3.71199808935e-08
-8.35990492565e-09
9.83497289504e-10
-3.62321683783e-08
-7.73385857941e-09
5.98499435949e-10
-3.51284017536e-08
-7.01895373318e-09
-3.37649154351e-08
-6.23819038445e-09
-2.32913339729e-12
-6.54567556719e-10
-3.22439598169e-08
-6.53714686493e-09
-2.81203561609e-13
-1.08295414409e-09
-3.34731639091e-08
-7.35630934329e-09
-1.28050575521e-09
-3.44637446705e-08
-8.10421261181e-09
-1.2616293756e-09
-3.52559875747e-08
-8.75808458364e-09
-1.05193998713e-09
-3.58715733409e-08
-9.29387547928e-09
-6.93853315998e-10
-3.63156323201e-08
-9.69202600351e-09
-2.42697990107e-10
-3.65923520504e-08
-9.93945846552e-09
2.39301841138e-10
-3.66957542977e-08
-1.00260473443e-08
6.90488111128e-10
-3.65925249455e-08
-9.93942413351e-09
1.04863990968e-09
-3.63159699137e-08
-9.6919635909e-09
1.25843176131e-09
-3.58720558875e-08
-9.29379255073e-09
1.27745323976e-09
-3.52565832819e-08
-8.75799505697e-09
1.08010158444e-09
-3.44644115872e-08
-8.10414426218e-09
6.52007221952e-10
-3.3473936674e-08
-7.35632972266e-09
-3.22449409037e-08
-6.53736704796e-09
-2.38693486795e-12
-7.05964288546e-10
-3.01262762906e-08
-6.65166018193e-09
-2.58713923975e-13
-1.1744837429e-09
-3.11995820988e-08
-7.5016499014e-09
-1.39155650078e-09
-3.20681660961e-08
-8.27622287838e-09
-1.37148630993e-09
-3.27600994332e-08
-8.95248627905e-09
-1.14307306077e-09
-3.33004517571e-08
-9.50597159258e-09
-7.53539576931e-10
-3.36912137703e-08
-9.9168135843e-09
-2.63419587685e-10
-3.39344102106e-08
-1.01716812821e-08
2.59963178369e-10
-3.40246888276e-08
-1.02605017409e-08
7.5011531219e-10
-3.39346176136e-08
-1.01716561309e-08
1.139715005e-09
-3.36916206054e-08
-9.9167686991e-09
1.36823124311e-09
-3.33010359433e-08
-9.50591279922e-09
1.38844478658e-09
-3.2760827418e-08
-8.95242387332e-09
1.17156718483e-09
-3.20689908055e-08
-8.27617858499e-09
7.0333228083e-10
-3.12005256995e-08
-7.50168449194e-09
-3.01274078651e-08
-6.65187373527e-09
-2.4522899221e-12
-7.56908946677e-10
-2.75661531239e-08
-6.61150981298e-09
-2.31160721359e-13
-1.26399603658e-09
-2.84690201771e-08
-7.48659287588e-09
-1.50018645359e-09
-2.92109746816e-08
-8.28259155816e-09
-1.47824308533e-09
-2.98030571207e-08
-8.97637193568e-09
-1.23097390746e-09
-3.02689290357e-08
-9.5432596046e-09
-8.10794928892e-10
-3.06065689346e-08
-9.96340938041e-09
-2.83256234035e-10
-3.08160518809e-08
-1.02234757479e-08
2.79694947371e-10
-3.08930384453e-08
-1.03136605995e-08
8.07266932138e-10
-3.08162907635e-08
-1.02234604638e-08
1.22751495605e-09
-3.06070382927e-08
-9.96338352193e-09
1.47489000996e-09
-3.02696087157e-08
-9.54322749166e-09
1.49698046333e-09
-2.98039098882e-08
-8.97634051257e-09
1.26098679481e-09
-2.92119515267e-08
-8.28257677352e-09
7.54181915239e-10
-2.84701297066e-08
-7.48664916997e-09
-2.75674314731e-08
-6.61172638754e-09
-2.52952592103e-12
-8.08405634819e-10
-2.46958244361e-08
-6.43857040525e-09
-1.9823652387e-13
-1.35478347958e-09
-2.54186633603e-08
-7.33362827334e-09
-1.60974307338e-09
-2.60352681352e-08
-8.14621552745e-09
-1.5842860667e-09
-2.65339455022e-08
-8.85281654253e-09
-1.31710314322e-09
-2.69297353694e-08
-9.42888163876e-09
-8.66399674105e-10
-2.72165831411e-08
-9.85499142029e-09
-3.0245645459e-10
-2.73934818582e-08
-1.01180538845e-08
2.9874433998e-10
-2.74575341463e-08
-1.02087618206e-08
8.62722706104e-10
-2.73937483229e-08
-1.0118049369e-08
1.31349872841e-09
-2.72171090504e-08
-9.85498661225e-09
1.58079507846e-09
-2.69304984859e-08
-9.42887971949e-09
1.60640864182e-09
-2.65349124935e-08
-8.8528214979e-09
1.35165636193e-09
-2.6036388859e-08
-8.14623747993e-09
8.05567111113e-10
-2.54199332243e-08
-7.33371463164e-09
-2.46972453382e-08
-6.43879972559e-09
-2.61890025527e-12
-8.63165630104e-10
-2.16290095399e-08
-6.14866501897e-09
-1.65262531779e-13
-1.4524744068e-09
-2.21662890905e-08
-7.05925351776e-09
-1.72361936793e-09
-2.2669379388e-08
-7.8840973957e-09
-1.69082661998e-09
-2.30867978627e-08
-8.59905350978e-09
-1.4016654054e-09
-2.34192079783e-08
-9.18022532372e-09
-9.20298056556e-10
-2.3658900745e-08
-9.60908490541e-09
-3.2097551905e-10
-2.38052463304e-08
-9.87305034613e-09
3.17066156881e-10
-2.38571520964e-08
-9.9634914355e-09
9.16425770634e-10
-2.38055357149e-08
-9.87305740524e-09
1.39787314793e-09
-2.36594712496e-08
-9.60910307872e-09
1.68715710456e-09
-2.3420044692e-08
-9.18025724315e-09
1.72012274524e-09
-2.30878656896e-08
-8.59910088589e-09
1.44920534342e-09
-2.26706303788e-08
-7.88416437094e-09
8.60203266244e-10
-2.21677107614e-08
-7.0593778832e-09
-2.16305629307e-08
-6.14891304785e-09
-2.70245715303e-12
-9.36128515853e-10
-1.84526438301e-08
-5.75361602605e-09
-1.24658779706e-13
-1.5694797871e-09
-1.88187963894e-08
-6.67686841727e-09
-1.84612033584e-09
-1.92357441554e-08
-7.51023022207e-09
-1.79861451934e-09
-1.95850083195e-08
-8.22928148764e-09
-1.48455412172e-09
-1.98601433079e-08
-8.81171329028e-09
-9.7233748096e-10
-2.00565240755e-08
-9.24034701036e-09
-3.38772698144e-10
-2.01749786427e-08
-9.50330266725e-09
3.34621246925e-10
-2.02158481828e-08
-9.59276225776e-09
9.68227834826e-10
-2.01752838499e-08
-9.50332151871e-09
1.48053034014e-09
-2.00571295229e-08
-9.24038901632e-09
1.79472945932e-09
-1.98610327515e-08
-8.81178126358e-09
1.842429669e-09
-1.95861564399e-08
-8.22937622627e-09
1.56604212391e-09
-1.92371114857e-08
-7.51035051553e-09
9.33027027866e-10
-1.88203637781e-08
-6.67703847144e-09
-1.8454323454e-08
-5.75388233813e-09
-2.80449763634e-12
-1.07547998555e-09
-5.26098556574e-09
-8.73095695229e-14
-1.51979246929e-08
-1.72859122095e-09
-6.19773835503e-09
-1.54972161694e-08
-1.99358201403e-09
-7.0357815641e-09
-1.58521048767e-08
-1.92353825482e-09
-7.75513576533e-09
-1.61407716495e-08
-1.5799617857e-09
-8.33575397034e-09
-1.63645963417e-08
-1.03232159081e-09
-8.76192879782e-09
-1.65237326234e-08
-3.59317464755e-10
-9.02247814752e-09
-1.66189353886e-08
3.54884406742e-10
-9.11043214156e-09
-1.66507008299e-08
1.02793524126e-09
-9.02250727667e-09
-1.66192504218e-08
1.57567310495e-09
-8.76199192021e-09
-1.65243603026e-08
1.91940340391e-09
-8.33585462326e-09
-1.63655261115e-08
1.98966341885e-09
-7.75527571968e-09
-1.61419852501e-08
1.72496209807e-09
-7.03595656727e-09
-1.58535685678e-08
1.07222371195e-09
-6.19796794512e-09
-1.54989144263e-08
-5.26124863858e-09
-2.92994598883e-12
-1.51997336285e-08
-2.7144698617e-11
1.10763754233e-09
-7.99311346043e-10
-1.56525990254e-13
-4.34917714607e-11
1.22219457793e-09
-8.88225443327e-10
-5.01333418436e-11
1.33243523584e-09
-9.72203946752e-10
-4.92232917936e-11
1.43341029317e-09
-1.04761371844e-09
-4.11345786468e-11
1.51762269325e-09
-1.11069079102e-09
-2.72197668262e-11
1.5811135784e-09
-1.15831320784e-09
-9.44157822118e-12
1.62111701397e-09
-1.18839645515e-09
9.7044247584e-12
1.63547974738e-09
-1.19920896006e-09
2.74783948623e-11
1.62118748307e-09
-1.18839165801e-09
4.1395305106e-11
1.58126596097e-09
-1.15830423254e-09
4.95072200999e-11
1.51786558653e-09
-1.11067843454e-09
5.04704790004e-11
1.43373168891e-09
-1.04759991786e-09
4.38908527565e-11
1.33278340351e-09
-9.72192961867e-10
2.75751751537e-11
1.22251048843e-09
-8.88227335234e-10
1.10786441387e-09
-7.99351417777e-10
2.16098541395e-13
-4.3714629222e-11
3.02238563733e-09
-2.02878443655e-09
-4.22290465138e-13
-6.96454378916e-11
3.28723964976e-09
-2.24749021554e-09
-8.08610921274e-11
3.53639464397e-09
-2.4527877802e-09
-7.92159711335e-11
3.75861040777e-09
-2.63610638519e-09
-6.60645073168e-11
3.94102641041e-09
-2.788783695e-09
-4.3624666849e-11
4.07664102633e-09
-2.90369653542e-09
-1.5078694114e-11
4.16152605727e-09
-2.97614598124e-09
1.56635243889e-11
4.19214139866e-09
-3.00215127749e-09
4.42127183284e-11
4.16171292278e-09
-2.97613097178e-09
6.6679505542e-11
4.07703691966e-09
-2.90366882793e-09
7.99101271136e-11
3.94164736455e-09
-2.78874559699e-09
8.16978679283e-11
3.75942651042e-09
-2.63606342261e-09
7.06399921673e-11
3.53728788912e-09
-2.45275185191e-09
4.47817781839e-11
3.28805780069e-09
-2.24748916348e-09
3.02299001991e-09
-2.02887708548e-09
5.22064440307e-13
-3.77231152391e-11
4.84308210681e-09
-3.02971248807e-09
-5.87607433879e-13
-5.83970698037e-11
5.19166593302e-09
-3.35618826499e-09
-6.78581303919e-11
5.51284668367e-09
-3.66160364026e-09
-6.6418472937e-11
5.79121397362e-09
-3.93354659517e-09
-5.53889230556e-11
6.01537773745e-09
-4.15953326623e-09
-3.65687005377e-11
6.17938278499e-09
-4.32933405943e-09
-1.25855211691e-11
6.28130665561e-09
-4.43619905886e-09
1.3326254395e-11
6.31835039162e-09
-4.47444755438e-09
3.73278340244e-11
6.28159616965e-09
-4.43617579191e-09
5.62064889654e-11
6.17997805198e-09
-4.32929053384e-09
6.73634802175e-11
6.01628068961e-09
-4.15947294149e-09
6.90043653085e-11
5.7923703433e-09
-3.93347779611e-09
5.97568483567e-11
5.51411081895e-09
-3.66154388567e-09
3.91757879876e-11
5.19284973906e-09
-3.35617732976e-09
4.84402975604e-09
-3.02983128429e-09
7.16518929285e-13
-2.00337673888e-11
6.15216875271e-09
-3.87542827351e-09
-7.02850023665e-13
-2.90405589512e-11
6.50140638974e-09
-4.29713286233e-09
-3.41506216836e-11
6.81805713389e-09
-4.69044123489e-09
-3.39630514605e-11
7.08406415254e-09
-5.03981109981e-09
-2.87344736151e-11
7.29365781329e-09
-5.32960167278e-09
-1.9157989705e-11
7.44432532137e-09
-5.54703016997e-09
-6.53950345455e-12
7.53735270408e-09
-5.68364515039e-09
7.33261237679e-12
7.5716318476e-09
-5.73239657449e-09
1.99867312377e-11
7.53771918429e-09
-5.68361570501e-09
2.96528631855e-11
7.44506946895e-09
-5.54697452953e-09
3.50482946711e-11
7.29477333531e-09
-5.32952393473e-09
3.54772604924e-11
7.08548189249e-09
-5.03972119744e-09
3.06142219546e-11
6.81961574793e-09
-4.69035970324e-09
2.1718375602e-11
6.50289147321e-09
-4.29710524937e-09
6.15339537478e-09
-3.87554561299e-09
8.2667558246e-13
2.0658377071e-12
6.84862957549e-09
-4.57080110152e-09
-7.77191661182e-13
5.18258711438e-12
7.14382825677e-09
-5.07598897103e-09
4.42586785279e-12
7.40879905148e-09
-5.54587973504e-09
2.65770447503e-12
7.62390078697e-09
-5.96244272766e-09
1.03931222662e-12
7.78930751912e-09
-6.30744830584e-09
1.58835053611e-13
7.90590852911e-09
-6.56600267678e-09
1.33685042743e-13
7.97754789579e-09
-6.72821399871e-09
6.55390859105e-13
8.00455378087e-09
-6.7859216233e-09
6.81448433735e-13
7.97795561876e-09
-6.7281808224e-09
-8.33114719395e-14
7.90672898677e-09
-6.56593955419e-09
-1.50780521251e-12
7.79052120626e-09
-6.30735936456e-09
-3.01297483889e-12
7.62543544692e-09
-5.96233804262e-09
-3.50901084637e-12
7.41049862492e-09
-5.54578040456e-09
-2.69331032812e-13
7.14549387888e-09
-5.07594198619e-09
6.85007695499e-09
-4.57089845871e-09
8.7925424316e-13
2.42507817648e-11
7.01533230931e-09
-5.1233871708e-09
-8.1611756474e-13
3.7650341799e-11
7.23779816512e-09
-5.70173502925e-09
4.04821820497e-11
7.43610418805e-09
-6.23843127526e-09
3.65995124636e-11
7.59093661458e-09
-6.71342832042e-09
2.84888390443e-11
7.70657603257e-09
-7.10635831851e-09
1.79084844483e-11
7.78621016131e-09
-7.4005545751e-09
6.2504476297e-12
7.83499646284e-09
-7.58487406371e-09
-5.48864650002e-12
7.85407583115e-09
-7.65023623555e-09
-1.70839717618e-11
7.83541922826e-09
-7.58483891334e-09
-2.75324368998e-11
7.78705591249e-09
-7.40048613541e-09
-3.54346680166e-11
7.7078237012e-09
-7.10626059208e-09
-3.90481913762e-11
7.59251598944e-09
-6.71331102422e-09
-3.59534868037e-11
7.43787325485e-09
-6.23831421228e-09
-2.24225719266e-11
7.23957066177e-09
-5.70166417668e-09
7.01692380492e-09
-5.1234536423e-09
8.93532533728e-13
4.41689394032e-11
6.79775517109e-09
-5.54208984851e-09
-8.27310130559e-13
6.58347250374e-11
6.95318008602e-09
-6.18460893346e-09
7.15533611578e-11
7.08961453402e-09
-6.77959785511e-09
6.57767768066e-11
7.1910143976e-09
-7.30537278986e-09
5.20603431098e-11
7.26368953462e-09
-7.73981511542e-09
3.31435731805e-11
7.31208808554e-09
-8.06479418993e-09
1.15005154871e-11
7.34171032462e-09
-8.26810288275e-09
-1.07646902446e-11
7.35401961666e-09
-8.33994472721e-09
-3.2338594336e-11
7.34212142248e-09
-8.26806650174e-09
-5.11157470504e-11
7.31290677168e-09
-8.06472301421e-09
-6.46214904132e-11
7.26489385448e-09
-7.73971241825e-09
-7.01360123624e-11
7.19254184595e-09
-7.30524679314e-09
-6.41643787573e-11
7.09134977402e-09
-6.77946577291e-09
-4.23665538411e-11
6.95496396057e-09
-6.18451452193e-09
6.79943162281e-09
-5.5421219978e-09
8.85159927588e-13
6.07815877205e-11
6.33476883146e-09
-5.83515472559e-09
-8.1424400577e-13
8.92090011299e-11
6.43915353962e-09
-6.53359370812e-09
9.73316465567e-11
6.52625224502e-09
-7.17896113701e-09
9.00244332201e-11
6.58639146739e-09
-7.74831163995e-09
7.16704599167e-11
6.62646178596e-09
-8.21816673931e-09
4.58282163798e-11
6.65152005588e-09
-8.56926433398e-09
1.58775108781e-11
6.66686406754e-09
-8.7885523913e-09
-1.51544210415e-11
6.67400846377e-09
-8.8657412811e-09
-4.50344056707e-11
6.66724873685e-09
-8.78851634395e-09
-7.07375634637e-11
6.65228520001e-09
-8.56919337546e-09
-8.88887619963e-11
6.62758763303e-09
-8.2180630777e-09
-9.59495298199e-11
6.58782726273e-09
-7.74818138239e-09
-8.75920831835e-11
6.52790295914e-09
-7.17881814606e-09
-5.90355694888e-11
6.44088955834e-09
-6.53347913869e-09
6.33645103523e-09
-5.8351543317e-09
8.63611551867e-13
7.38543618554e-11
5.73361102205e-09
-6.00925419674e-09
-7.85674802967e-13
1.08016445228e-10
5.80409260542e-09
-6.75561207408e-09
1.18231210967e-10
5.85523270957e-09
-7.44360483149e-09
1.09777669085e-10
5.88601135352e-09
-8.049422394e-09
8.7679202151e-11
5.90317287364e-09
-8.54862850005e-09
5.61955764902e-11
5.91205047261e-09
-8.92118489745e-09
1.94624338359e-11
5.91749061731e-09
-9.15344009927e-09
-1.87336846195e-11
5.92093314053e-09
-9.23484729249e-09
-5.53981123144e-11
5.91783647012e-09
-9.15340603126e-09
-8.67496268794e-11
5.91273783391e-09
-8.92111732575e-09
-1.08660344072e-10
5.9041851442e-09
-8.54852833803e-09
-1.16891180408e-10
5.88730983725e-09
-8.04929324618e-09
-1.06465590037e-10
5.85674740858e-09
-7.44345686155e-09
-7.21857607926e-11
5.80572309192e-09
-6.75548393519e-09
5.73525376911e-09
-6.00922756485e-09
8.38138180637e-13
8.36509977312e-11
5.06851993946e-09
-6.06963733807e-09
-7.42944498365e-13
1.22776149127e-10
5.11912731888e-09
-6.85597158133e-09
1.34873765984e-10
5.14567006922e-09
-7.57891828058e-09
1.25638922588e-10
5.15679629183e-09
-8.21417928267e-09
1.00582945466e-10
5.1588776507e-09
-8.73674051406e-09
6.45693375658e-11
5.15729487396e-09
-9.12614116152e-09
2.2366090723e-11
5.15631574454e-09
-9.36838226542e-09
-2.16154325335e-11
5.15724489127e-09
-9.45289537404e-09
-6.3754827933e-11
5.1566179122e-09
-9.36835197238e-09
-9.96480589076e-11
5.1578951486e-09
-9.1260805319e-09
-1.24536234206e-10
5.15976453689e-09
-8.73664908785e-09
-1.33575731758e-10
5.15794086601e-09
-8.21405801091e-09
-1.21295401107e-10
5.14702212599e-09
-7.5787735327e-09
-8.20658722084e-11
5.12061417623e-09
-6.85583976384e-09
5.07006193792e-09
-6.06959487656e-09
8.10268266188e-13
9.06796913465e-11
4.38763458682e-09
-6.02075327939e-09
-6.94815615048e-13
1.34117334553e-10
4.42821321141e-09
-6.83924724318e-09
1.47981486922e-10
4.43882965499e-09
-7.58974128362e-09
1.38323179273e-10
4.43767620355e-09
-8.2477061443e-09
1.10987598144e-10
4.43072735152e-09
-8.78786868029e-09
7.13514573452e-11
4.42312270139e-09
-9.18968269779e-09
2.47282079241e-11
4.41844546595e-09
-9.43904914588e-09
-2.39436734981e-11
4.41780338722e-09
-9.52560366645e-09
-7.05101312008e-11
4.41870081029e-09
-9.43902459244e-09
-1.10040279548e-10
4.42363095119e-09
-9.18963301408e-09
-1.37231639432e-10
4.43147969366e-09
-8.78779213883e-09
-1.46724460551e-10
4.43865571941e-09
-8.24760110356e-09
-1.32707388575e-10
4.44000362162e-09
-7.58961032846e-09
-8.9183458303e-11
4.42953208277e-09
-6.83912466305e-09
4.38904972319e-09
-6.02070909003e-09
7.83971566697e-13
9.54903162892e-11
3.72095621876e-09
-5.86685674962e-09
-6.40993195795e-13
1.42752185338e-10
3.7572935877e-09
-6.71007185283e-09
1.58450413958e-10
3.75810985785e-09
-7.48129153935e-09
1.48750765292e-10
3.75022125809e-09
-8.15575033073e-09
1.19675542167e-10
3.73902218371e-09
-8.70817774118e-09
7.70631040346e-11
3.72896755591e-09
-9.11828268151e-09
2.6727794419e-11
3.72278513902e-09
-9.37211257375e-09
-2.59039849074e-11
3.72135118227e-09
-9.45971929162e-09
-7.61906846058e-11
3.72299366452e-09
-9.37209585542e-09
-1.18714224257e-10
3.72938300663e-09
-9.1182483421e-09
-1.47669285847e-10
3.73964264736e-09
-8.70812313674e-09
-1.57233895923e-10
3.75103648632e-09
-8.15567150703e-09
-1.41413330862e-10
3.75910104689e-09
-7.48118718736e-09
-9.40821826097e-11
3.75843266818e-09
-6.70997365649e-09
3.7222102264e-09
-5.86682753461e-09
7.56627840868e-13
9.86583219017e-11
3.08649697538e-09
-5.61238166266e-09
-5.90899034429e-13
1.49794921289e-10
3.12056159165e-09
-6.47374161828e-09
1.67751471844e-10
3.1157894149e-09
-7.2598130488e-09
1.58368934586e-10
3.10571372817e-09
-7.94522958498e-09
1.27821071427e-10
3.09436200569e-09
-8.50507019698e-09
8.24513400733e-11
3.08490067e-09
-8.91970055873e-09
2.86225475191e-11
3.07909524108e-09
-9.17556473964e-09
-2.77608160909e-11
3.07752855248e-09
-9.26332273626e-09
-8.15503416508e-11
3.07925916234e-09
-9.17555788635e-09
-1.26847289762e-10
3.08522966023e-09
-8.91968599348e-09
-1.57300394194e-10
3.0948546643e-09
-8.50504502138e-09
-1.66577609916e-10
3.10637099955e-09
-7.94518820634e-09
-1.48527211877e-10
3.1166082184e-09
-7.25974992913e-09
-9.7341813355e-11
3.12152605466e-09
-6.47368366901e-09
3.08759137695e-09
-5.61238329937e-09
7.25368665044e-13
1.01112377195e-10
2.49428829721e-09
-5.26206869405e-09
-5.38953493948e-13
1.57472785218e-10
2.52420191036e-09
-6.1369335228e-09
1.78567920375e-10
2.51751424245e-09
-6.93310599271e-09
1.69581119739e-10
2.50982290064e-09
-7.62446194542e-09
1.37247930681e-10
2.50217785506e-09
-8.18724633306e-09
8.86610739391e-11
2.49606200282e-09
-8.60295493501e-09
3.07906334208e-11
2.49227249369e-09
-8.85864775371e-09
-2.98986350336e-11
2.4911758051e-09
-8.94574382498e-09
-8.77381397319e-11
2.49239701148e-09
-8.85865229682e-09
-1.36269922214e-10
2.49631439593e-09
-8.60296368435e-09
-1.68529280892e-10
2.50256165166e-09
-8.18725720493e-09
-1.77435053128e-10
2.51034305064e-09
-7.62446922078e-09
-1.56273741995e-10
2.51817133525e-09
-6.93310013285e-09
-9.98825855172e-11
2.52500638459e-09
-6.13693154975e-09
2.49523024224e-09
-5.26211200057e-09
6.87194877961e-13
9.80818155767e-11
-4.82361358962e-09
-4.90536353949e-13
1.95925082824e-09
1.6729698746e-10
-5.71146818312e-09
1.96866411047e-09
1.93333588437e-10
-6.51220380536e-09
1.96784436143e-09
1.84796970492e-10
-7.20384650902e-09
1.96702982682e-09
1.50057687188e-10
-7.76478871898e-09
1.96591033111e-09
9.7125612493e-11
-8.17800271579e-09
1.96502754644e-09
3.37546099557e-11
-8.4312844833e-09
1.9644208303e-09
-3.28428221143e-11
-8.51690776906e-09
1.96421767267e-09
-9.6188987916e-11
-8.4313002939e-09
1.96451711597e-09
-1.49079661283e-10
-8.17803492097e-09
1.96521992978e-09
-1.83763689455e-10
-7.76483712345e-09
1.96620540093e-09
-1.9224358448e-10
-7.20390785347e-09
1.96743212317e-09
-1.66155155839e-10
-6.51226648103e-09
1.96837090652e-09
-9.692108813e-11
-5.71154534608e-09
1.96932856489e-09
-4.82368722734e-09
6.53324315986e-13
1.96007532212e-09
1.90077119671e-11
-2.25625048858e-10
-5.9273949302e-10
-1.29233816414e-13
3.00316554324e-11
-2.50640804669e-10
-6.48824605901e-10
3.51064825297e-11
-2.76703045877e-10
-7.00819352226e-10
3.45672028211e-11
-3.00408846651e-10
-7.4688093682e-10
2.89016641608e-11
-3.20244297906e-10
-7.84993806242e-10
1.90957847807e-11
-3.35159884305e-10
-8.13535464522e-10
6.56632880518e-12
-3.4451625733e-10
-8.31491077559e-10
-6.93470927009e-12
-3.47828751127e-10
-8.37975734582e-10
-1.94351963166e-11
-3.44466299016e-10
-8.31491072097e-10
-2.91870254764e-11
-3.35066499545e-10
-8.13535138662e-10
-3.47872615118e-11
-3.20124391271e-10
-7.84993125714e-10
-3.52662716265e-11
-3.00275649206e-10
-7.46880513255e-10
-3.01248875961e-11
-2.7654480218e-10
-7.0082177877e-10
-1.90488892151e-11
-2.50495190553e-10
-6.4883899297e-10
-2.25513949602e-10
-5.92791531418e-10
-1.2392945184e-13
4.25534967969e-11
-4.8910739265e-10
-1.80781171835e-09
-3.35858301615e-13
6.92522683915e-11
-5.36589256013e-10
-1.98862945904e-09
8.17314328283e-11
-5.8518869649e-10
-2.15720301407e-09
8.07354460574e-11
-6.28848510931e-10
-2.30705583773e-09
6.75626658851e-11
-6.64792644926e-10
-2.43141701695e-09
4.46347685533e-11
-6.91469850934e-10
-2.52475722113e-09
1.53266708543e-11
-7.08088743038e-10
-2.58348690001e-09
-1.6243195908e-11
-7.13986099008e-10
-2.6045792261e-09
-4.54837923808e-11
-7.07977395019e-10
-2.58348751431e-09
-6.8286616763e-11
-6.91256637037e-10
-2.52475697882e-09
-8.13042496961e-11
-6.64502660094e-10
-2.4314155593e-09
-8.21438490198e-11
-6.28502856121e-10
-2.3070547302e-09
-6.95008541577e-11
-5.84783165639e-10
-2.15720979119e-09
-4.26597209298e-11
-5.36205217968e-10
-1.98866967803e-09
-4.88823671606e-10
-1.80794515772e-09
-3.26928540949e-13
5.48477437771e-11
-6.81925676213e-10
-2.8915461839e-09
-4.41515843622e-13
9.04589373099e-11
-7.40340436062e-10
-3.18833862856e-09
1.07212120792e-10
-7.9900145303e-10
-3.46484497359e-09
1.05961634841e-10
-8.51039338219e-10
-3.71040399817e-09
8.86126882263e-11
-8.93218607923e-10
-3.91404173991e-09
5.84802755255e-11
-9.24113751163e-10
-4.06679952751e-09
2.00415917962e-11
-9.4321219831e-10
-4.16281901364e-09
-2.13287200632e-11
-9.49998288301e-10
-4.19719447828e-09
-5.96816962949e-11
-9.43072665555e-10
-4.16281973338e-09
-8.9655243646e-11
-9.23844995518e-10
-4.06679879904e-09
-1.06801846311e-10
-8.92848105576e-10
-3.91403878685e-09
-1.0783768192e-10
-8.50595533403e-10
-3.71040104388e-09
-9.08641829415e-11
-7.98495077774e-10
-3.4648531589e-09
-5.50520221853e-11
-7.39844796677e-10
-3.18839428281e-09
-6.81534658493e-10
-2.89173132172e-09
-4.82035682008e-13
5.95038607408e-11
-8.11298031561e-10
-3.80528174688e-09
-5.00240124035e-13
9.89354525747e-11
-8.7286534332e-10
-4.20432186521e-09
1.17637338855e-10
-9.33054622859e-10
-4.57539577752e-09
1.16312982093e-10
-9.85404714946e-10
-4.90441545406e-09
9.72067951458e-11
-1.02704025229e-09
-5.17693925742e-09
6.40883207718e-11
-1.05705969781e-09
-5.38118491748e-09
2.19199521455e-11
-1.07544760991e-09
-5.50940806393e-09
-2.34313882937e-11
-1.08199021746e-09
-5.55517339942e-09
-6.55083563062e-11
-1.0752911204e-09
-5.50940815831e-09
-9.84568401636e-11
-1.05675583902e-09
-5.38118251266e-09
-1.17341011541e-10
-1.026610982e-09
-5.17693324431e-09
-1.18420785087e-10
-9.84878566534e-10
-4.9044084721e-09
-9.94647117161e-11
-9.32455881063e-10
-4.57540097792e-09
-5.97965593896e-11
-8.72279010567e-10
-4.2043808842e-09
-8.10829707243e-10
-3.80548674823e-09
-5.97503046076e-13
5.91636428386e-11
-8.82485251553e-10
-4.55843992752e-09
-5.23111230954e-13
9.90193217335e-11
-9.41591746248e-10
-5.04731586957e-09
1.18068805065e-10
-9.97293824387e-10
-5.50090192929e-09
1.16811638224e-10
-1.04443103494e-09
-5.90237274353e-09