/*--------------------------------*- C++ -*----------------------------------*\
  =========                 |
  \\      /  F ield         | OpenFOAM: The Open Source CFD Toolbox
   \\    /   O peration     | Website:  https://openfoam.org
    \\  /    A nd           | Version:  7
     \\/     M anipulation  |
\*---------------------------------------------------------------------------*/
FoamFile
{
    version     2.0;
    format      ascii;
    class       volVectorField;
    location    "0.72";
    object      U;
}
// * * * * * * * * * * * * * * * * * * * * * * * * * * * * * * * * * * * * * //

dimensions      [0 1 -1 0 0 0 0];

internalField   nonuniform List<vector> 
22500
(
(-1.01475632316e-05 -1.13680579176e-05 -3.72738758796e-05)
(-9.47929084897e-06 -1.28839675134e-05 -3.91824011033e-05)
(-8.40184085327e-06 -1.43970969712e-05 -4.09989389567e-05)
(-7.11428921783e-06 -1.57217506455e-05 -4.26567800184e-05)
(-5.56202449961e-06 -1.68318031035e-05 -4.40600258998e-05)
(-3.82002627408e-06 -1.76645820646e-05 -4.51242316554e-05)
(-1.9400643166e-06 -1.81807387744e-05 -4.57883555092e-05)
(1.13996342854e-08 -1.83551355068e-05 -4.6014364688e-05)
(1.96256047526e-06 -1.81784370162e-05 -4.57819608145e-05)
(3.84162398706e-06 -1.76601185169e-05 -4.51114607902e-05)
(5.58216514725e-06 -1.68254544656e-05 -4.40409166751e-05)
(7.13252769467e-06 -1.57139147037e-05 -4.26313826406e-05)
(8.41775151451e-06 -1.43882685092e-05 -4.09672767375e-05)
(9.49304300333e-06 -1.28744861009e-05 -3.91443649911e-05)
(1.01580697352e-05 -1.13589961108e-05 -3.7229419265e-05)
(-3.00041314347e-05 -3.35290738424e-05 -0.000140903913038)
(-2.79631147816e-05 -3.79356851461e-05 -0.000149389183626)
(-2.48269250806e-05 -4.23196449672e-05 -0.000157490122722)
(-2.10085613743e-05 -4.61782797726e-05 -0.000164841054716)
(-1.64358267419e-05 -4.94103445225e-05 -0.000171037062095)
(-1.12912185291e-05 -5.18370730516e-05 -0.000175726652506)
(-5.73565100695e-06 -5.33425988961e-05 -0.000178649040984)
(3.33874234e-08 -5.38512677366e-05 -0.000179640653747)
(5.80155457804e-06 -5.33360298932e-05 -0.000178629402476)
(1.13545345481e-05 -5.182433752e-05 -0.000175687438284)
(1.64949107536e-05 -4.93922304274e-05 -0.000170978401317)
(2.10620254799e-05 -4.61559088822e-05 -0.000164763121051)
(2.48735328422e-05 -4.22944395604e-05 -0.000157393025426)
(2.80027837274e-05 -3.79087528905e-05 -0.000149272665478)
(3.00343271099e-05 -3.35030153602e-05 -0.000140768035864)
(-4.77418866068e-05 -5.31474124889e-05 -0.00026750769116)
(-4.43106018248e-05 -5.99781930681e-05 -0.000284368257198)
(-3.93021344947e-05 -6.67139710064e-05 -0.000300418443244)
(-3.31991417665e-05 -7.26397720255e-05 -0.000314904806649)
(-2.59493978388e-05 -7.75877442303e-05 -0.000327061744212)
(-1.78142492089e-05 -8.1297223317e-05 -0.000336234832341)
(-9.04606284288e-06 -8.35963155157e-05 -0.000341938815186)
(5.0788475329e-08 -8.43726982402e-05 -0.000343870650744)
(9.14639720943e-06 -8.35863514481e-05 -0.000341906442941)
(1.79109104003e-05 -8.12778675715e-05 -0.00033617017272)
(2.60400764891e-05 -7.75601191984e-05 -0.000326964974203)
(3.32818675016e-05 -7.26054769643e-05 -0.000314776173927)
(3.93751193145e-05 -6.66750698009e-05 -0.000300258116132)
(4.43732954297e-05 -5.99363293709e-05 -0.000284175792496)
(4.77905737676e-05 -5.31061731506e-05 -0.000267283059087)
(-6.33275907531e-05 -7.02657824265e-05 -0.000410424180312)
(-5.85497962559e-05 -7.90368225537e-05 -0.000436358584933)
(-5.18433280237e-05 -8.76128285647e-05 -0.000460897750385)
(-4.37011077195e-05 -9.51409270527e-05 -0.000482905640534)
(-3.41121219479e-05 -0.000101405411222 -0.000501276974551)
(-2.33945248771e-05 -0.000106091909272 -0.000515084249486)
(-1.18733515596e-05 -0.000108992507116 -0.000523646015746)
(6.4764179276e-08 -0.000109971283719 -0.000526540385466)
(1.20013946921e-05 -0.000108980058212 -0.000523602284667)
(2.35181835165e-05 -0.000106067688442 -0.00051499683631)
(3.4228630413e-05 -0.000101370744782 -0.000501145989575)
(4.38080463039e-05 -9.50977050708e-05 -0.000482731258381)
(5.19384599619e-05 -8.75635310536e-05 -0.000460680062451)
(5.86320791302e-05 -7.89834365152e-05 -0.000436096816001)
(6.3392614816e-05 -7.02124915817e-05 -0.000410117814131)
(-7.67374144658e-05 -8.49234745859e-05 -0.000562715591664)
(-7.0695835007e-05 -9.51470136725e-05 -0.000597406740956)
(-6.24638593338e-05 -0.000105060023595 -0.000629965581354)
(-5.25318151331e-05 -0.000113735888969 -0.000658958007951)
(-4.09392073575e-05 -0.000120928707166 -0.000683016352851)
(-2.80435312283e-05 -0.000126296890671 -0.000701016201328)
(-1.42236793543e-05 -0.000129614075559 -0.000712142637435)
(7.53729109063e-08 -0.000130732483821 -0.000715896817773)
(1.43728102851e-05 -0.000129599974332 -0.000712089264045)
(2.81878910134e-05 -0.000126269412091 -0.000700909419615)
(4.10757616308e-05 -0.000120889269449 -0.00068285611)
(5.26578487958e-05 -0.000113686522216 -0.000658744282733)
(6.25768243972e-05 -0.000105003407585 -0.00062969827404)
(7.07942659947e-05 -9.50852919338e-05 -0.000597084597639)
(7.68165267148e-05 -8.48611041555e-05 -0.000562337235489)
(-8.79380760937e-05 -9.71166598942e-05 -0.000717980149401)
(-8.0739836165e-05 -0.000108305310827 -0.000760342732944)
(-7.11629378009e-05 -0.000119066075168 -0.000799729515491)
(-5.96996495779e-05 -0.000128450753202 -0.000834538638648)
(-4.64417965522e-05 -0.000136200264378 -0.000863244777045)
(-3.17712788068e-05 -0.000141969417937 -0.000884620345949)
(-1.61026531669e-05 -0.000145528300486 -0.00089779002489)
(8.31427708442e-08 -0.000146727141677 -0.000902224967314)
(1.62672758806e-05 -0.000145513261779 -0.000897728726652)
(3.19309848843e-05 -0.000141940066341 -0.000884497610044)
(4.65934309507e-05 -0.000136158019556 -0.000863060346136)
(5.98403296935e-05 -0.000128397660623 -0.000834292248054)
(7.12899267995e-05 -0.000119004852941 -0.000799420835877)
(8.08513392644e-05 -0.000108238124815 -0.000759969931134)
(8.80291677464e-05 -9.70479698018e-05 -0.000717540686603)
(-9.69547317024e-05 -0.000106887022382 -0.00087088676846)
(-8.87216998352e-05 -0.000118572705437 -0.000919376017386)
(-7.79882309168e-05 -0.000129723953506 -0.000964012069094)
(-6.52564466313e-05 -0.000139410253269 -0.00100316500106)
(-5.06673068621e-05 -0.000147375511454 -0.00103525526175)
(-3.46137954824e-05 -0.000153290219348 -0.00105903868576)
(-1.75293983567e-05 -0.000156932618233 -0.00107364419307)
(8.87386078064e-08 -0.000158158507963 -0.00107855316001)
(1.77052201452e-05 -0.000156917223311 -0.00107357644718)
(3.47847154848e-05 -0.000153260122403 -0.00105890296145)
(5.08301536905e-05 -0.000147332071609 -0.00103505112109)
(6.54082719768e-05 -0.000139355440881 -0.00100289197821)
(7.81262227111e-05 -0.000129660402482 -0.000963669660382)
(8.88438226648e-05 -0.00011850249549 -0.000918961769952)
(9.70560429223e-05 -0.000106814419315 -0.000870396806226)
(-0.000103870443466 -0.000114330082788 -0.00101740183573)
(-9.47317408914e-05 -0.000126079311537 -0.00107030055754)
(-8.30334206202e-05 -0.000137207818304 -0.00111851403616)
(-6.92930871059e-05 -0.000146831028023 -0.0011605042603)
(-5.36941627288e-05 -0.000154710528462 -0.00119471927749)
(-3.66286085002e-05 -0.000160546955525 -0.00121996372301)
(-1.85340399948e-05 -0.000164135150567 -0.00123541807581)
(9.2826398215e-08 -0.000165341739943 -0.00124060253531)
(1.87180769936e-05 -0.00016411983862 -0.0012353450095)
(3.68078538933e-05 -0.000160516969339 -0.00121981729955)
(5.38654953643e-05 -0.000154667120732 -0.00119449895202)
(6.945356301e-05 -0.000146776033866 -0.00116020947985)
(8.31802271353e-05 -0.000137143702197 -0.00111814425457)
(9.48626733285e-05 -0.000126008011512 -0.00106985270574)
(0.000103980627919 -0.000114255520333 -0.00101687067051)
(-0.000108806197873 -0.000119577341618 -0.00115477468716)
(-9.88926119296e-05 -0.000130999282198 -0.00121041322515)
(-8.64200618558e-05 -0.000141739672999 -0.00126064872983)
(-7.19228249167e-05 -0.0001509810564 -0.00130411675997)
(-5.561759902e-05 -0.000158515263138 -0.00133934377711)
(-3.78843723454e-05 -0.000164082647629 -0.00136522458229)
(-1.91522615314e-05 -0.000167500053562 -0.00138102130794)
(9.5980259178e-08 -0.000168648210778 -0.00138631077473)
(1.93426632049e-05 -0.000167485150233 -0.0013809436942)
(3.80701443861e-05 -0.000164053408727 -0.00136506904892)
(5.57957080661e-05 -0.000158472803412 -0.00133910976724)
(7.20903789432e-05 -0.000150927035965 -0.00130380378316)
(8.6574298957e-05 -0.000141676330064 -0.00126025636868)
(9.90312067758e-05 -0.000130928358827 -0.00120993780461)
(0.000108924364225 -0.000119502349559 -0.00115420969338)
(-0.000111905612455 -0.000122783159593 -0.00128137106008)
(-0.000101345653979 -0.000133532009407 -0.00133827002113)
(-8.82848789012e-05 -0.000143565061468 -0.00138921147422)
(-7.32701554032e-05 -0.000152151005805 -0.00143303715005)
(-5.65404082009e-05 -0.000159121449716 -0.00146837220618)
(-3.84541698156e-05 -0.000164260993168 -0.00149422508636)
(-1.94217912204e-05 -0.000167411156322 -0.00150995846214)
(9.86517703493e-08 -0.000168468584631 -0.00151521676442)
(1.96176004541e-05 -0.000167396899613 -0.00150987677947)
(3.86455366264e-05 -0.000164232965183 -0.00149406143498)
(5.6724407047e-05 -0.000159080610509 -0.00146812610133)
(7.34439692287e-05 -0.00015209880459 -0.00143270831004)
(8.84458252044e-05 -0.00014350347558 -0.00138879978693)
(0.00010149131221 -0.00013346254564 -0.00133777118212)
(0.00011203129559 -0.000122708890799 -0.00128077743322)
(-0.000113324172067 -0.000124117368372 -0.00139643647388)
(-0.000102241171616 -0.000133888450823 -0.00145338749596)
(-8.87717022516e-05 -0.000142935770114 -0.00150401502714)
(-7.34641634966e-05 -0.000150635242324 -0.00154734222364)
(-5.65673941023e-05 -0.000156862328116 -0.00158209278792)
(-3.8411424412e-05 -0.00016144485929 -0.00160740731532)
(-1.93802417527e-05 -0.000164249621512 -0.00162276537818)
(1.0115475786e-07 -0.000165190164972 -0.00162788784516)
(1.95811263577e-05 -0.000164236196129 -0.00162267990273)
(3.8608064186e-05 -0.000161418406122 -0.00160723610821)
(5.67569834479e-05 -0.000156823633841 -0.00158183547782)
(7.364397705e-05 -0.000150585524467 -0.0015469988436)
(8.89391456967e-05 -0.000142876707884 -0.00150358593822)
(0.000102393752675 -0.000133821276626 -0.0014528677036)
(0.000113457281085 -0.000124044720066 -0.00139581725978)
(-0.000113217942734 -0.000123756053575 -0.00149984832836)
(-0.000101731527145 -0.000132275420941 -0.00155596706836)
(-8.80277573466e-05 -0.000140095573938 -0.00160557583599)
(-7.26352398414e-05 -0.000146719622724 -0.00164779004162)
(-5.58019855962e-05 -0.000152060754096 -0.00168143751784)
(-3.78271827167e-05 -0.000155983859255 -0.00170582317872)
(-1.90636316399e-05 -0.000158380963108 -0.00172056537946)
(1.03679175709e-07 -0.000159183745654 -0.00172547114459)
(1.92696342985e-05 -0.00015836852142 -0.00172047629539)
(3.8029144812e-05 -0.000155959281942 -0.00170564475312)
(5.59972242846e-05 -0.000152024653873 -0.0016811694553)
(7.28211294979e-05 -0.000146672956774 -0.00164743270926)
(8.82017975215e-05 -0.000140039693668 -0.0016051302405)
(0.000101891167545 -0.00013221124752 -0.00155542756316)
(0.00011335866699 -0.000123685815645 -0.00149920486726)
(-0.000111732611675 -0.000121848069166 -0.00159188906882)
(-9.99773141208e-05 -0.000128874074293 -0.00164670174961)
(-8.62090782291e-05 -0.000135273130944 -0.00169489862615)
(-7.09150470272e-05 -0.000140679876439 -0.00173556104886)
(-5.43439359609e-05 -0.000145028151562 -0.00176769379689)
(-3.67680026146e-05 -0.000148212650692 -0.00179083122258)
(-1.85052814255e-05 -0.000150153110124 -0.00180475979354)
(1.06308683533e-07 -0.000150801570932 -0.00180938242185)
(1.87166126548e-05 -0.000150141784501 -0.00180466732703)
(3.69754888379e-05 -0.000148190225126 -0.00179064594487)
(5.4545026325e-05 -0.000144995055752 -0.0017674153279)
(7.11072286833e-05 -0.000140636801021 -0.00173518992748)
(8.63899378313e-05 -0.00013522106775 -0.00169443665445)
(0.000100144254627 -0.000128813570189 -0.00164614318685)
(0.000111881171625 -0.000121781091759 -0.00159122253255)
(-0.000109063216312 -0.000118504414318 -0.00167304968135)
(-9.72025338045e-05 -0.000123871996346 -0.00172674658615)
(-8.34935969067e-05 -0.000128696531569 -0.00177337150054)
(-6.84322735806e-05 -0.000132791648394 -0.00181208412851)
(-5.22841120357e-05 -0.000136065755498 -0.00184230821799)
(-3.52930802093e-05 -0.000138448099738 -0.00186389810471)
(-1.7734759105e-05 -0.000139892254122 -0.0018768316676)
(1.09047321059e-07 -0.000140373071037 -0.00188111099133)
(1.79516259279e-05 -0.00013988215735 -0.00187673626768)
(3.55062902894e-05 -0.000138428056361 -0.00186370673327)
(5.24912368329e-05 -0.000136036036684 -0.00184202009561)
(6.86309099641e-05 -0.000132752678704 -0.00181169943149)
(8.36814440324e-05 -0.000128648896714 -0.00177289262321)
(9.73769597853e-05 -0.000123815826306 -0.00172616912838)
(0.000109220059244 -0.000118441257892 -0.00167236307629)
(-0.000105618451152 -0.000114432604779 -0.0017438087738)
(-9.37545770019e-05 -0.000117360456057 -0.00179792352843)
(-8.00594965859e-05 -0.000120565039733 -0.0018425606353)
(-6.53260092721e-05 -0.000123247337106 -0.00187878716482)
(-4.97313288419e-05 -0.000125357799811 -0.00190668349542)
(-3.34803277667e-05 -0.000126872886593 -0.00192644621543)
(-1.67931500058e-05 -0.000127783077431 -0.00193822669637)
(1.1184040084e-07 -0.000128084115828 -0.00194211208127)
(1.70156587262e-05 -0.000127774379766 -0.00193812934841)
(3.36993369879e-05 -0.000126855567843 -0.00192625059338)
(4.99445280145e-05 -0.000125332006246 -0.00190638809532)
(6.55311152299e-05 -0.000123213250508 -0.00187839088601)
(8.02543081092e-05 -0.000120522940334 -0.00184206550959)
(9.39361437191e-05 -0.000117309820235 -0.00179732279226)
(0.000105784220284 -0.000114374679156 -0.00174311620524)
(1.33728011603e-07 1.74499966236e-07 -7.80482337439e-05)
(1.19143042105e-07 2.17875834634e-07 -8.1981655448e-05)
(1.06288147084e-07 2.53304572766e-07 -8.55885247052e-05)
(9.45892137574e-08 2.83188394671e-07 -8.87317749694e-05)
(7.63167445378e-08 3.09304472605e-07 -9.12982069494e-05)
(5.33048220301e-08 3.29503445353e-07 -9.31963486339e-05)
(2.6255223473e-08 3.42254221282e-07 -9.43626585383e-05)
(-2.84973254827e-09 3.46422701239e-07 -9.47583696067e-05)
(-3.18581047299e-08 3.41547927962e-07 -9.43616221075e-05)
(-5.86398912401e-08 3.28119518714e-07 -9.31942654983e-05)
(-8.12902393319e-08 3.07293660957e-07 -9.12950392449e-05)
(-9.9202913526e-08 2.8062605812e-07 -8.87274208592e-05)
(-1.10560169631e-07 2.50288052206e-07 -8.55827640305e-05)
(-1.23119431569e-07 2.14522660374e-07 -8.19739274049e-05)
(-1.37036653781e-07 1.71218150404e-07 -7.8037050919e-05)
(1.11871751804e-06 1.29936994606e-06 -0.000227641917073)
(1.05825762582e-06 1.55915454305e-06 -0.000238627856962)
(9.65261396201e-07 1.80486971285e-06 -0.000248699122329)
(8.43835697646e-07 2.02631836921e-06 -0.000257471739267)
(6.77318835675e-07 2.21727590967e-06 -0.000264631035932)
(4.73101807358e-07 2.36412828414e-06 -0.000269925102047)
(2.40115746025e-07 2.45662721123e-06 -0.000273176795485)
(-7.99135824445e-09 2.48774231279e-06 -0.000274277228147)
(-2.55842576433e-07 2.45481723073e-06 -0.000273173434035)
(-4.88117364406e-07 2.36054587734e-06 -0.000269918358115)
(-6.91341352663e-07 2.21200903686e-06 -0.000264620813882)
(-8.56809599472e-07 2.01950911569e-06 -0.000257457764869)
(-9.77229396553e-07 1.79680557249e-06 -0.000248680781152)
(-1.06928871782e-06 1.55020245787e-06 -0.000238603552635)
(-1.12802211312e-06 1.2905295782e-06 -0.000227608144362)
(2.6070012879e-06 2.97108880255e-06 -0.000369852206254)
(2.47175766966e-06 3.51139541475e-06 -0.000387129094805)
(2.24911478033e-06 4.03350845629e-06 -0.000402945827186)
(1.95114575313e-06 4.50514936621e-06 -0.000416713438049)
(1.5579944646e-06 4.90831075411e-06 -0.000427942612455)
(1.08474875271e-06 5.21637852038e-06 -0.000436243403659)
(5.51726395356e-07 5.40955560343e-06 -0.000441339658157)
(-1.27403364369e-08 5.47460554836e-06 -0.00044306155733)
(-5.76863517765e-07 5.40665473832e-06 -0.000441333649385)
(-1.10891614278e-06 5.21064168773e-06 -0.00043623137313)
(-1.58075815614e-06 4.89989053539e-06 -0.000427924450233)
(-1.97232975389e-06 4.49433990841e-06 -0.000416688785129)
(-2.2686557107e-06 4.0208252017e-06 -0.000402913833157)
(-2.48963195358e-06 3.4975056615e-06 -0.000387087459075)
(-2.6221041879e-06 2.95738694272e-06 -0.000369796018892)
(4.32654673811e-06 4.8870811529e-06 -0.000504761272848)
(4.08638346469e-06 5.70409702691e-06 -0.000527586070026)
(3.69968704391e-06 6.49759684386e-06 -0.000548438305495)
(3.18780466681e-06 7.21045911702e-06 -0.00056657243034)
(2.53225985685e-06 7.81474070005e-06 -0.000581352723975)
(1.7567340648e-06 8.27341320922e-06 -0.000592273620244)
(8.93008633322e-07 8.55969459709e-06 -0.000598975324364)
(-1.6962118511e-08 8.65600751608e-06 -0.000601236936689)
(-9.2653935698e-07 8.55600509651e-06 -0.000598966411503)
(-1.78914028442e-06 8.2661153739e-06 -0.000592255811528)
(-2.56298825221e-06 7.80402971244e-06 -0.000581325947573)
(-3.21655112159e-06 7.19672714688e-06 -0.000566536347522)
(-3.72625729902e-06 6.48151405389e-06 -0.000548392019089)
(-4.11064124866e-06 5.6865205019e-06 -0.000527526944877)
(-4.34716563057e-06 4.86966865361e-06 -0.000504683655224)
(6.03191202995e-06 6.77134876692e-06 -0.000632406926778)
(5.66154052632e-06 7.81125691906e-06 -0.000660048112837)
(5.09445104217e-06 8.81944832102e-06 -0.000685234339576)
(4.36028255793e-06 9.71750793545e-06 -0.000707113261873)
(3.44523489726e-06 1.04720689092e-05 -0.000724931504713)
(2.38095662645e-06 1.10407488713e-05 -0.000738089970948)
(1.20841744638e-06 1.13939246008e-05 -0.000746160740434)
(-2.06175884035e-08 1.15125092139e-05 -0.000748881697476)
(-1.24924430967e-06 1.13897138978e-05 -0.000746148650111)
(-2.42060582153e-06 1.10324170023e-05 -0.000738065868018)
(-3.48308101983e-06 1.04598388542e-05 -0.000724895425981)
(-4.39590838646e-06 9.70181975719e-06 -0.000707065019161)
(-5.12752802433e-06 8.80105861781e-06 -0.000685173202832)
(-5.69180282329e-06 7.79110339681e-06 -0.000659971409464)
(-6.05789212094e-06 6.75123010991e-06 -0.000632308682416)
(7.5701111841e-06 8.45343193025e-06 -0.000752822828607)
(7.05245322041e-06 9.64151278489e-06 -0.000784563743414)
(6.30367280553e-06 1.07863569354e-05 -0.000813398673798)
(5.35904200974e-06 1.17960485457e-05 -0.000838416288684)
(4.211500436e-06 1.26364514293e-05 -0.00085877309225)
(2.89895416247e-06 1.3265076007e-05 -0.000873797249791)
(1.46823749962e-06 1.36534134169e-05 -0.000883007565126)
(-2.37958438755e-08 1.37834615407e-05 -0.000886110071311)
(-1.51542817371e-06 1.36488988605e-05 -0.000882992017152)
(-2.94497430858e-06 1.32561410002e-05 -0.000873766328927)
(-4.2556879604e-06 1.26233324955e-05 -0.000858727025152)
(-5.40089148212e-06 1.17792019618e-05 -0.000838355178111)
(-6.34273905424e-06 1.07665657027e-05 -0.000813322165294)
(-7.08835214266e-06 9.61971662524e-06 -0.000784469340226)
(-7.6012732523e-06 8.43148894019e-06 -0.000752704402042)
(8.85222167608e-06 9.83660709943e-06 -0.000866059779931)
(8.18016851944e-06 1.10951639564e-05 -0.000901205416884)
(7.26076172175e-06 1.22962749707e-05 -0.000933029540993)
(6.13118489348e-06 1.3344319553e-05 -0.000960605345045)
(4.79207134931e-06 1.42080037748e-05 -0.000983023684791)
(3.28525709534e-06 1.48489598011e-05 -0.000999558699776)
(1.65990910484e-06 1.52427210536e-05 -0.00100968972764)
(-2.65594051109e-08 1.53741734727e-05 -0.00101309971801)
(-1.7126483856e-06 1.52380835875e-05 -0.00100967044181)
(-3.33687551301e-06 1.48397786393e-05 -0.00099952043906)
(-4.84189073491e-06 1.41945104587e-05 -0.000982966948761)
(-6.17862890133e-06 1.33269673288e-05 -0.000960530663958)
(-7.30528232331e-06 1.22758293643e-05 -0.000932937121568)
(-8.22128305338e-06 1.10725341096e-05 -0.000901093072045)
(-8.88832454999e-06 9.81361933371e-06 -0.000865921301487)
(9.83585626658e-06 1.08771956976e-05 -0.000972191194165)
(9.01243508368e-06 1.21361159448e-05 -0.00101007437082)
(7.94298180648e-06 1.33218311408e-05 -0.00104426194163)
(6.6624242562e-06 1.43449908692e-05 -0.00107384871694)
(5.17907055121e-06 1.51793634023e-05 -0.00109787972773)
(3.53620094334e-06 1.57934964404e-05 -0.00111559150852)
(1.78211319079e-06 1.61686042279e-05 -0.00112643701633)
(-2.89319196867e-08 1.62933893383e-05 -0.00113008468396)
(-1.83962708135e-06 1.61639974358e-05 -0.0011264137158)
(-3.59266906351e-06 1.57843713414e-05 -0.00111554538901)
(-5.2338195814e-06 1.51659384021e-05 -0.00109781163682)
(-6.71483298318e-06 1.43276905494e-05 -0.00107375973356)
(-7.99242689968e-06 1.33013730198e-05 -0.00104415298735)
(-9.05835198299e-06 1.21133314102e-05 -0.00100994363135)
(-9.87662509526e-06 1.08538346673e-05 -0.000972032441937)
(1.05133262791e-05 1.15708955521e-05 -0.00107130825073)
(9.55046464155e-06 1.27730533958e-05 -0.0011112940963)
(8.35780659152e-06 1.38859648141e-05 -0.00114725934954)
(6.96413786022e-06 1.48352119363e-05 -0.00117834819782)
(5.38468684759e-06 1.56007398297e-05 -0.00120357369323)
(3.66186534027e-06 1.61594006123e-05 -0.00122214950477)
(1.84051151667e-06 1.64985893294e-05 -0.00123351565077)
(-3.09309786102e-08 1.66109920546e-05 -0.00123733525065)
(-1.90205893671e-06 1.6494140107e-05 -0.00123348806298)
(-3.72246043072e-06 1.61505791365e-05 -0.00122209500639)
(-5.44367930948e-06 1.55877404515e-05 -0.0012034935374)
(-7.02088150557e-06 1.48184110138e-05 -0.00117824410868)
(-8.41162989106e-06 1.38660083948e-05 -0.00114713308161)
(-9.60073585822e-06 1.27506756393e-05 -0.00111114420782)
(-1.05584545526e-05 1.15477097216e-05 -0.00107112857502)
(1.09006417584e-05 1.19401131241e-05 -0.00116350912975)
(9.81683810278e-06 1.30427624204e-05 -0.00120499977892)
(8.53093289547e-06 1.40409204789e-05 -0.00124220405576)
(7.06244051228e-06 1.4881706611e-05 -0.00127432838897)
(5.43215829093e-06 1.55517293997e-05 -0.00130036086191)
(3.67963757494e-06 1.6036360894e-05 -0.00131950731852)
(1.8443913745e-06 1.63288032229e-05 -0.00133121063789)
(-3.25736948039e-08 1.64253067882e-05 -0.00133513967575)
(-1.90926277004e-06 1.6324617938e-05 -0.00133117849463)
(-3.74366162281e-06 1.60280542609e-05 -0.00131944391366)
(-5.49472540004e-06 1.55394591189e-05 -0.00130026788342)
(-7.12290949525e-06 1.48657889435e-05 -0.00127420826996)
(-8.58860958349e-06 1.40219006786e-05 -0.00124205946809)
(-9.871043794e-06 1.302125036e-05 -0.00120482959418)
(-1.09498134198e-05 1.19175550186e-05 -0.00116330734357)
(1.10279185046e-05 1.20229728775e-05 -0.00124888535933)
(9.84558411951e-06 1.29961983352e-05 -0.00129133073684)
(8.49690992411e-06 1.38514095698e-05 -0.00132929568561)
(6.9899445222e-06 1.45616919611e-05 -0.00136203584369)
(5.34914719046e-06 1.5120503289e-05 -0.00138851601446)
(3.60958565553e-06 1.55210233654e-05 -0.00140795438235)
(1.80428137182e-06 1.57612145183e-05 -0.00141981803342)
(-3.38868137037e-08 1.58401117002e-05 -0.00142379588462)
(-1.87181695592e-06 1.5757378284e-05 -0.00141978107444)
(-3.67638514343e-06 1.55133973855e-05 -0.00140788153465)
(-5.41465505012e-06 1.51092068698e-05 -0.00138840938784)
(-7.05354769291e-06 1.45469643583e-05 -0.00136189860085)
(-8.55792574976e-06 1.38336811647e-05 -0.00132913147675)
(-9.90330127524e-06 1.29759362927e-05 -0.0012911386462)
(-1.10808318109e-05 1.20014108787e-05 -0.0012486596094)
(1.09314865581e-05 1.18644421575e-05 -0.00132750547842)
(9.67464405295e-06 1.26876224225e-05 -0.00137043484278)
(8.29277046338e-06 1.33821930491e-05 -0.0014087686848)
(6.78058004908e-06 1.39497952433e-05 -0.00144175543992)
(5.16379035744e-06 1.43904241707e-05 -0.00146834434384)
(3.47176912348e-06 1.47034095161e-05 -0.00148780148164)
(1.73059240458e-06 1.48899817422e-05 -0.00149964915342)
(-3.48972454942e-08 1.49509441694e-05 -0.00150361498783)
(-1.80018637419e-06 1.48865639127e-05 -0.001499607142)
(-3.54073476051e-06 1.46966041661e-05 -0.00148771866618)
(-5.23164102558e-06 1.43803032252e-05 -0.0014682231781)
(-6.84675799338e-06 1.39365186587e-05 -0.00144159977067)
(-8.35663148986e-06 1.33660613727e-05 -0.00140858320186)
(-9.73547703201e-06 1.2668937384e-05 -0.00137021879226)
(-1.09878481624e-05 1.18442077036e-05 -0.00132725322012)
(1.06472063113e-05 1.15075578169e-05 -0.00139939256671)
(9.34163249631e-06 1.21654204593e-05 -0.00144250652873)
(7.95543644761e-06 1.26899097411e-05 -0.00148094556065)
(6.46765822087e-06 1.31107100261e-05 -0.00151384892987)
(4.90315608113e-06 1.34333372338e-05 -0.00154020589642)
(3.28517230533e-06 1.36606287376e-05 -0.00155939757765)
(1.63307659604e-06 1.37953172248e-05 -0.0015710442042)
(-3.56331652852e-08 1.38390633753e-05 -0.00157493408778)
(-1.70417414329e-06 1.37923675997e-05 -0.00157099697231)
(-3.35574671825e-06 1.36547414045e-05 -0.00155930435854)
(-4.97279230094e-06 1.34245483992e-05 -0.00154006930741)
(-6.53587042924e-06 1.30990944655e-05 -0.00151367332409)
(-8.02165562922e-06 1.26756238785e-05 -0.00148073673477)
(-9.40517156399e-06 1.21486010012e-05 -0.00144226418518)
(-1.07067204855e-05 1.14889596782e-05 -0.00139911121519)
(1.02113863973e-05 1.09869593298e-05 -0.00146448719098)
(8.8877552558e-06 1.14758956673e-05 -0.00150792755021)
(7.52446820098e-06 1.18241117193e-05 -0.00154634758292)
(6.08470359462e-06 1.21007861816e-05 -0.00157880904685)
(4.59342232179e-06 1.23105338766e-05 -0.00160454344739)
(3.06762885537e-06 1.2457088238e-05 -0.00162314887048)
(1.520743724e-06 1.25433395484e-05 -0.0016343890337)
(-3.61249044947e-08 1.25710835873e-05 -0.00163813266118)
(-1.59285497507e-06 1.25408760086e-05 -0.00163433658619)
(-3.13930286748e-06 1.24521585298e-05 -0.00162304510538)
(-4.66432557235e-06 1.23031445203e-05 -0.00160439081717)
(-6.15445089503e-06 1.20909358704e-05 -0.00157861193614)
(-7.5925797003e-06 1.18118372267e-05 -0.00154611274024)
(-8.95360194893e-06 1.14611363249e-05 -0.0015076562641)
(-1.02737463479e-05 1.09702434105e-05 -0.00146417531562)
(9.66195134366e-06 1.04239004753e-05 -0.00152281325773)
(8.36299608138e-06 1.06558229063e-05 -0.00156786344634)
(7.03630296605e-06 1.08291979027e-05 -0.00160586107444)
(5.66091299541e-06 1.0965204269e-05 -0.00163729607392)
(4.25651100246e-06 1.10653859627e-05 -0.00166189085572)
(2.83382898524e-06 1.1133861323e-05 -0.0016795261771)
(1.4009529509e-06 1.11734236756e-05 -0.00169012586938)
(-3.64199730778e-08 1.11857749868e-05 -0.00169364490002)
(-1.47367703374e-06 1.11714592917e-05 -0.00169006870104)
(-2.90618788024e-06 1.11299332188e-05 -0.00167941270162)
(-4.32823295648e-06 1.10594723017e-05 -0.00166172294827)
(-5.73170015035e-06 1.09572786635e-05 -0.00163707726266)
(-7.10581330566e-06 1.08191951612e-05 -0.00160559831967)
(-8.4306486904e-06 1.06434889117e-05 -0.00156755714132)
(-9.72695560172e-06 1.04094886779e-05 -0.00152247791389)
(-4.33060129738e-08 -6.96459647119e-08 -8.45536605856e-05)
(-2.62219336774e-08 -9.37772827147e-08 -8.88398470837e-05)
(-1.53790916752e-08 -1.09162968858e-07 -9.27753552839e-05)
(-7.72978941609e-09 -1.19604680073e-07 -9.6213444619e-05)
(-2.68828497064e-09 -1.26429652969e-07 -9.90234738828e-05)
(2.08908067281e-11 -1.30572036801e-07 -0.00010110335615)
(9.59915036751e-10 -1.32732719006e-07 -0.000102381705381)
(8.63477630514e-10 -1.33352177038e-07 -0.000102815203304)
(7.14742316787e-10 -1.32584727041e-07 -0.00010237970583)
(1.49500929546e-09 -1.30296191721e-07 -0.000101099371235)
(3.96205381319e-09 -1.26062904965e-07 -9.90175292254e-05)
(8.74206123745e-09 -1.19199277063e-07 -9.6205554334e-05)
(1.60935661855e-08 -1.08825245616e-07 -9.27654447519e-05)
(2.66291076945e-08 -9.35596375739e-08 -8.88274261478e-05)
(4.34264391272e-08 -6.96205547348e-08 -8.45368758212e-05)
(-1.88263673043e-07 -2.5971847635e-07 -0.000245829353702)
(-1.41401246738e-07 -3.3264004413e-07 -0.000257712084307)
(-1.05635114759e-07 -3.86237930876e-07 -0.000268622118542)
(-7.64159216672e-08 -4.26342004654e-07 -0.000278145035859)
(-5.17281604087e-08 -4.55213838462e-07 -0.000285923856959)
(-3.10117580824e-08 -4.74525728249e-07 -0.00029167956335)
(-1.32977289079e-08 -4.85544950248e-07 -0.000295215533553)
(2.62898190789e-09 -4.89040927265e-07 -0.000296411497007)
(1.84179145032e-08 -4.85290694547e-07 -0.000295209409611)
(3.5708549396e-08 -4.74062019606e-07 -0.00029166736542)
(5.57450919017e-08 -4.54614641983e-07 -0.000285905674085)
(7.96091794594e-08 -4.2572532022e-07 -0.000278120929482)
(1.07881450564e-07 -3.85863391709e-07 -0.000268591893512)
(1.42636962601e-07 -3.3263460729e-07 -0.000257674348074)
(1.88529625713e-07 -2.60228998342e-07 -0.000245779840569)
(-3.85755473808e-07 -4.98624677664e-07 -0.000398049167288)
(-3.1310028098e-07 -6.20496577933e-07 -0.000416593642277)
(-2.5097126421e-07 -7.17179983504e-07 -0.000433597529012)
(-1.95031946567e-07 -7.93186350698e-07 -0.000448425196486)
(-1.42239244194e-07 -8.50497921826e-07 -0.000460529099633)
(-9.20601120978e-08 -8.90384024449e-07 -0.000469481089117)
(-4.37970828471e-08 -9.13865656741e-07 -0.000474977968425)
(3.25130470371e-09 -9.21531408659e-07 -0.000476834148314)
(5.01486669856e-08 -9.13574033212e-07 -0.000474967639948)
(9.79552419837e-08 -8.89840652175e-07 -0.000469460532099)
(1.47411040968e-07 -8.49774299246e-07 -0.000460498494556)
(1.99326659936e-07 -7.92411079987e-07 -0.000448384700475)
(2.54263584599e-07 -7.16606828237e-07 -0.000433546938499)
(3.15319785081e-07 -6.20249020743e-07 -0.000416531014213)
(3.86820256237e-07 -4.98867422186e-07 -0.000397968552088)
(-5.9541149695e-07 -7.42141893796e-07 -0.0005414680324)
(-5.0009541794e-07 -9.05525621526e-07 -0.000565796543262)
(-4.12095757884e-07 -1.0405207053e-06 -0.000588058570168)
(-3.28251965323e-07 -1.14926840481e-06 -0.000607450858028)
(-2.44965691093e-07 -1.23305227127e-06 -0.000623269593173)
(-1.61923373829e-07 -1.29237219015e-06 -0.000634963445569)
(-7.89549095468e-08 -1.32774055435e-06 -0.000642140488752)
(3.80285950337e-09 -1.33941564584e-06 -0.000644561107182)
(8.64081362377e-08 -1.32745607137e-06 -0.000642125921696)
(1.68919037007e-07 -1.29183473403e-06 -0.00063493447606)
(2.51232993189e-07 -1.23232315223e-06 -0.00062322652369)
(3.3361280237e-07 -1.148462596e-06 -0.000607394002203)
(4.164003227e-07 -1.03986200276e-06 -0.00058798785901)
(5.03270175777e-07 -9.05133814531e-07 -0.000565709868569)
(5.97299788269e-07 -7.42185798098e-07 -0.000541358601421)
(-8.04731254177e-07 -9.78551035044e-07 -0.000676346517558)
(-6.895115361e-07 -1.17568845867e-06 -0.000705634371996)