/*--------------------------------*- C++ -*----------------------------------*\
  =========                 |
  \\      /  F ield         | OpenFOAM: The Open Source CFD Toolbox
   \\    /   O peration     | Website:  https://openfoam.org
    \\  /    A nd           | Version:  7
     \\/     M anipulation  |
\*---------------------------------------------------------------------------*/
FoamFile
{
    version     2.0;
    format      ascii;
    class       volScalarField;
    location    "2.22";
    object      p;
}
// * * * * * * * * * * * * * * * * * * * * * * * * * * * * * * * * * * * * * //

dimensions      [0 2 -2 0 0 0 0];

internalField   nonuniform List<scalar> 
22500
(
1.97623131076e-05
1.97589810538e-05
1.97580535033e-05
1.97566640186e-05
1.97556429581e-05
1.97548549528e-05
1.97543730195e-05
1.9754210088e-05
1.97543930204e-05
1.97548943163e-05
1.97557007514e-05
1.9756736355e-05
1.97581365502e-05
1.97590639987e-05
1.97623879515e-05
1.97179584699e-05
1.97123582737e-05
1.97095134283e-05
1.97064482533e-05
1.97040686817e-05
1.97022810734e-05
1.97011888204e-05
1.97008223094e-05
1.9701209637e-05
1.97023220772e-05
1.9704128738e-05
1.9706523871e-05
1.97095998347e-05
1.97124448452e-05
1.97180370114e-05
1.96751303711e-05
1.96674279743e-05
1.9662948609e-05
1.96584093704e-05
1.96548553974e-05
1.96522034952e-05
1.96505846718e-05
1.9650041649e-05
1.96506042818e-05
1.96522420694e-05
1.96549117089e-05
1.96584804385e-05
1.96630298867e-05
1.96675101348e-05
1.96752068163e-05
1.96369427908e-05
1.96274983082e-05
1.96217399522e-05
1.96160676118e-05
1.96116153384e-05
1.96083083953e-05
1.96062918942e-05
1.96056155875e-05
1.96063097388e-05
1.96083434811e-05
1.96116664096e-05
1.96161321016e-05
1.9621814157e-05
1.962757411e-05
1.96370159142e-05
1.96013327976e-05
1.95903922477e-05
1.95835681066e-05
1.95769918836e-05
1.95718223302e-05
1.9567999018e-05
1.95656704228e-05
1.95648898881e-05
1.95656865699e-05
1.95680307436e-05
1.95718684655e-05
1.95770501911e-05
1.95836356234e-05
1.95904619064e-05
1.96014020564e-05
1.95678439823e-05
1.95556540327e-05
1.95479549155e-05
1.95406788196e-05
1.95349528369e-05
1.95307351319e-05
1.9528169341e-05
1.95273097978e-05
1.95281838274e-05
1.95307636108e-05
1.95349942299e-05
1.9540731225e-05
1.95480158093e-05
1.9555717807e-05
1.95679093941e-05
1.95366216033e-05
1.95234424209e-05
1.9515050422e-05
1.95072664638e-05
1.95011345719e-05
1.94966349739e-05
1.9493900683e-05
1.9492985189e-05
1.94939136133e-05
1.94966603998e-05
1.9501171542e-05
1.95073133807e-05
1.95151051854e-05
1.9523500397e-05
1.95366831577e-05
1.95076764821e-05
1.94937561143e-05
1.94848306345e-05
1.94767058123e-05
1.94702981644e-05
1.94656124087e-05
1.94627678622e-05
1.94618159186e-05
1.94627793715e-05
1.9465635039e-05
1.94703311174e-05
1.94767477464e-05
1.94848798122e-05
1.9493808796e-05
1.95077345182e-05
1.9480905485e-05
1.94664713252e-05
1.94571498462e-05
1.94488260912e-05
1.94422531431e-05
1.94374609037e-05
1.94345544443e-05
1.94335822098e-05
1.94345646867e-05
1.9437481055e-05
1.94422825298e-05
1.94488636496e-05
1.94571941099e-05
1.94665194025e-05
1.94809602407e-05
1.94561778355e-05
1.94414375279e-05
1.94318444193e-05
1.94234445261e-05
1.94168018996e-05
1.94119707539e-05
1.94090432489e-05
1.94080643687e-05
1.9409052389e-05
1.94119887521e-05
1.94168282027e-05
1.94234782914e-05
1.94318844662e-05
1.94414816541e-05
1.94562300736e-05
1.94333562931e-05
1.94185007725e-05
1.94087580034e-05
1.94003913619e-05
1.93937638782e-05
1.93889524959e-05
1.93860394024e-05
1.93850657207e-05
1.93860476003e-05
1.93889686508e-05
1.93937875502e-05
1.94004219039e-05
1.94087944597e-05
1.9418541569e-05
1.94334064237e-05
1.94122818554e-05
1.93975091153e-05
1.938775311e-05
1.93795194288e-05
1.93729819013e-05
1.93682414399e-05
1.93653738189e-05
1.93644158499e-05
1.93653812083e-05
1.93682560577e-05
1.93730033703e-05
1.93795472788e-05
1.93877865662e-05
1.93975470931e-05
1.94123300758e-05
1.93927166761e-05
1.93783256004e-05
1.93687311186e-05
1.93607159916e-05
1.93543300905e-05
1.93497044275e-05
1.93469102569e-05
1.93459773657e-05
1.93469170088e-05
1.93497177624e-05
1.93543497443e-05
1.93607416361e-05
1.93687621519e-05
1.93783614046e-05
1.93927634745e-05
1.93745270253e-05
1.93608975865e-05
1.93515927254e-05
1.93438534701e-05
1.93376729143e-05
1.93332114893e-05
1.93305238741e-05
1.93296281846e-05
1.93305300956e-05
1.93332237815e-05
1.93376911726e-05
1.93438774433e-05
1.93516218767e-05
1.93609317455e-05
1.93745728551e-05
1.93589887538e-05
1.93448196518e-05
1.93359166526e-05
1.93284717197e-05
1.93225903075e-05
1.9318385986e-05
1.9315867023e-05
1.93150293047e-05
1.93158727999e-05
1.93183973874e-05
1.93226072452e-05
1.93284941425e-05
1.93359443835e-05
1.93448523851e-05
1.93590320526e-05
1.43849691692e-05
1.43862245846e-05
1.43871384757e-05
1.4387983337e-05
1.43887039192e-05
1.43892512948e-05
1.43895925834e-05
1.43897011231e-05
1.43895684337e-05
1.43892042465e-05
1.43886370594e-05
1.43879031746e-05
1.43870504904e-05
1.43861388365e-05
1.43848902416e-05
1.4390091285e-05
1.43915636796e-05
1.43926944387e-05
1.43937369095e-05
1.43946239763e-05
1.43952965386e-05
1.4395715767e-05
1.43958508429e-05
1.4395691064e-05
1.43952484256e-05
1.43945556314e-05
1.43936547477e-05
1.43926050839e-05
1.43914764481e-05
1.43900116162e-05
1.43963422843e-05
1.43982823139e-05
1.43998097954e-05
1.44012273627e-05
1.4402435192e-05
1.4403352148e-05
1.44039247887e-05
1.44041124707e-05
1.44039007211e-05
1.44033053082e-05
1.44023686603e-05
1.44011469674e-05
1.43997223579e-05
1.43981961525e-05
1.43962631886e-05
1.4404273957e-05
1.44070197318e-05
1.44091945853e-05
1.44112111828e-05
1.44129282627e-05
1.44142318e-05
1.44150463415e-05
1.44153167653e-05
1.44150233384e-05
1.44141870372e-05
1.44128645893e-05
1.44111337415e-05
1.44091098302e-05
1.44069355061e-05
1.4404195632e-05
1.44144375647e-05
1.44182888495e-05
1.44213188743e-05
1.44241112084e-05
1.44264797527e-05
1.442827355e-05
1.44293928758e-05
1.44297671361e-05
1.4429371067e-05
1.44282311274e-05
1.44264193097e-05
1.44240373366e-05
1.44212373752e-05
1.44182071587e-05
1.44143605019e-05
1.44267548219e-05
1.44319156417e-05
1.44359212214e-05
1.44395825669e-05
1.44426711181e-05
1.44450016979e-05
1.44464523983e-05
1.44469391737e-05
1.44464319746e-05
1.44449619633e-05
1.4442614427e-05
1.44395128931e-05
1.44358437918e-05
1.443183685e-05
1.44266796856e-05
1.44408638846e-05
1.44474310632e-05
1.44524482304e-05
1.44569915541e-05
1.44608007161e-05
1.44636629601e-05
1.44654394066e-05
1.44660364071e-05
1.44654205303e-05
1.44636262119e-05
1.44607481902e-05
1.44569266447e-05
1.44523755479e-05
1.44473560455e-05
1.44407911971e-05
1.44563248354e-05
1.44642954091e-05
1.44702889972e-05
1.4475661476e-05
1.44801379245e-05
1.44834867019e-05
1.44855586504e-05
1.44862552773e-05
1.44855414229e-05
1.44834531388e-05
1.4480089838e-05
1.44756017303e-05
1.44702214571e-05
1.44642246909e-05
1.44562548513e-05
1.44726909926e-05
1.44819766318e-05
1.4488856981e-05
1.44949578758e-05
1.45000102711e-05
1.45037730485e-05
1.45060937244e-05
1.45068738243e-05
1.45060781881e-05
1.45037427452e-05
1.44999667291e-05
1.44949034584e-05
1.44887948722e-05
1.44819105621e-05
1.44726243054e-05
1.44895435543e-05
1.44999880963e-05
1.45076271108e-05
1.45143250067e-05
1.45198390635e-05
1.45239274303e-05
1.45264407655e-05
1.45272850947e-05
1.45264269057e-05
1.45239003562e-05
1.4519800032e-05
1.45142759218e-05
1.45075704965e-05
1.44999268679e-05
1.44894802518e-05
1.45065096012e-05
1.45179067622e-05
1.45261517304e-05
1.45333004888e-05
1.45391518375e-05
1.45434708478e-05
1.45461171504e-05
1.45470052957e-05
1.4546104902e-05
1.45434468757e-05
1.45391171533e-05
1.45332565958e-05
1.45261005854e-05
1.45178505485e-05
1.45064500914e-05
1.45232586119e-05
1.45353702909e-05
1.45440593687e-05
1.45515142074e-05
1.45575798147e-05
1.45620355408e-05
1.45647558891e-05
1.45656676938e-05
1.4564745151e-05
1.45620144651e-05
1.45575492059e-05
1.45514752389e-05
1.45440135238e-05
1.45353192015e-05
1.45232033415e-05
1.45394889574e-05
1.45520829848e-05
1.45610669796e-05
1.45686947163e-05
1.45748572968e-05
1.45793589903e-05
1.45820962055e-05
1.45830122762e-05
1.45820868192e-05
1.45793405309e-05
1.45748304227e-05
1.45686603031e-05
1.45610261553e-05
1.45520368582e-05
1.45394380234e-05
1.45551336134e-05
1.45680272595e-05
1.45771008869e-05
1.45847382417e-05
1.45908492362e-05
1.45952828117e-05
1.45979669777e-05
1.4598863335e-05
1.45979587891e-05
1.45952666984e-05
1.45908256353e-05
1.45847079315e-05
1.45770647237e-05
1.45679860435e-05
1.45550869367e-05
1.45712548415e-05
1.45832789606e-05
1.45921177521e-05
1.45995399549e-05
1.46053895181e-05
1.46096001941e-05
1.46121378384e-05
1.4612983736e-05
1.46121307154e-05
1.46095861664e-05
1.46053689616e-05
1.45995134349e-05
1.45920859375e-05
1.45832427104e-05
1.45712130376e-05
1.53399054898e-05
1.53395465523e-05
1.53390474114e-05
1.53384938518e-05
1.53379725068e-05
1.53375554007e-05
1.53372886139e-05
1.53371993598e-05
1.53372975411e-05
1.53375723561e-05
1.53379956405e-05
1.53385211025e-05
1.53390789253e-05
1.53395796799e-05
1.53399402637e-05
1.53404363012e-05
1.53401082809e-05
1.53396371364e-05
1.53391072707e-05
1.53386036088e-05
1.53381979506e-05
1.53379372888e-05
1.53378498973e-05
1.53379462474e-05
1.53382149581e-05
1.53386268034e-05
1.53391345966e-05
1.53396683381e-05
1.53401414693e-05
1.53404709139e-05
1.53412767075e-05
1.53409948456e-05
1.53405670973e-05
1.5340074124e-05
1.53395991177e-05
1.53392133282e-05
1.53389640655e-05
1.53388803321e-05
1.53389729328e-05
1.53392302155e-05
1.53396223001e-05
1.53401016295e-05
1.53405982317e-05
1.53410280043e-05
1.5341311124e-05
1.53418769108e-05
1.53416208183e-05
1.53412183152e-05
1.53407486382e-05
1.53402925561e-05
1.53399204654e-05
1.53396792622e-05
1.53395981224e-05
1.53396879497e-05
1.5339937089e-05
1.53403155903e-05
1.53407762073e-05
1.53412493617e-05
1.53416537088e-05
1.53419111989e-05
1.53422647843e-05
1.534203211e-05
1.53416528928e-05
1.53412088923e-05
1.53407760052e-05
1.5340422198e-05
1.53401925402e-05
1.53401152738e-05
1.53402009932e-05
1.53404384255e-05
1.53407986348e-05
1.53412361877e-05
1.53416836559e-05
1.53420646029e-05
1.53422988484e-05
1.53425759157e-05
1.53423839958e-05
1.53420426007e-05
1.5341641156e-05
1.53412479077e-05
1.53409259752e-05
1.53407168241e-05
1.5340646539e-05
1.53407249643e-05
1.53409416522e-05
1.53412699161e-05
1.53416679047e-05
1.53420728097e-05
1.53424160307e-05
1.53426095203e-05
1.53429088003e-05
1.53427858563e-05
1.53425040577e-05
1.5342167581e-05
1.53418344583e-05
1.53415605808e-05
1.53413823394e-05
1.5341322606e-05
1.53413900987e-05
1.5341575565e-05
1.53418556176e-05
1.53421934988e-05
1.53425334587e-05
1.53428172463e-05
1.53429418943e-05
1.5343331358e-05
1.53433085404e-05
1.53431090466e-05
1.53428590518e-05
1.53426050573e-05
1.53423938246e-05
1.53422556891e-05
1.53422096354e-05
1.53422630108e-05
1.53424080074e-05
1.53426252073e-05
1.53428839448e-05
1.53431374689e-05
1.53433391236e-05
1.53433639193e-05
1.53438889126e-05
1.53439937399e-05
1.53438957765e-05
1.53437487182e-05
1.53435878702e-05
1.53434497214e-05
1.53433581329e-05
1.53433279321e-05
1.53433649777e-05
1.53434630225e-05
1.53436068812e-05
1.53437724094e-05
1.53439230696e-05
1.53440233925e-05
1.53439208245e-05
1.53446047093e-05
1.534485607e-05
1.53448723126e-05
1.53448372662e-05
1.53447768941e-05
1.53447169871e-05
1.5344674989e-05
1.53446616447e-05
1.53446813365e-05
1.53447293629e-05
1.53447946956e-05
1.5344859659e-05
1.53448983682e-05
1.53448847119e-05
1.53446359126e-05
1.53454817578e-05
1.5345886502e-05
1.53460215044e-05
1.53460998139e-05
1.53461404285e-05
1.53461587089e-05
1.53461660563e-05
1.53461694524e-05
1.5346171898e-05
1.53461701365e-05
1.53461569748e-05
1.53461208274e-05
1.5346046217e-05
1.534591401e-05
1.53455121392e-05
1.53465020165e-05
1.5347054511e-05
1.53473057436e-05
1.53474928214e-05
1.5347629664e-05
1.53477221212e-05
1.53477760996e-05
1.53477952846e-05
1.53477814348e-05
1.53477325989e-05
1.53476449378e-05
1.53475124082e-05
1.53473290331e-05
1.53470807437e-05
1.53465314038e-05
1.53476293792e-05
1.53483181322e-05
1.53486791113e-05
1.53489655539e-05
1.53491896126e-05
1.53493491482e-05
1.53494452112e-05
1.53494786039e-05
1.53494500468e-05
1.53493586865e-05
1.53492036024e-05
1.53489836744e-05
1.53487008965e-05
1.53483429739e-05
1.53476576151e-05
1.53488901336e-05
1.53497015018e-05
1.53501335118e-05
1.53504911404e-05
1.5350778897e-05
1.53509882091e-05
1.53511156454e-05
1.53511596364e-05
1.53511199933e-05
1.53509967914e-05
1.53507915862e-05
1.53505077282e-05
1.53501536951e-05
1.53497248427e-05
1.53489169599e-05
1.53506513089e-05
1.53512091879e-05
1.53516232294e-05
1.53519978345e-05
1.53523065929e-05
1.53525347467e-05
1.53526746201e-05
1.53527227813e-05
1.53526784772e-05
1.53525424108e-05
1.5352317974e-05
1.5352012871e-05
1.53516417965e-05
1.53512310905e-05
1.53506766415e-05
1.31415852605e-05
1.31418384014e-05
1.31421601441e-05
1.31424889552e-05
1.31427879898e-05
1.31430232591e-05
1.31431731095e-05
1.31432236e-05
1.31431696019e-05
1.31430164701e-05
1.31427784628e-05
1.31424780783e-05
1.31421487946e-05
1.31418290168e-05
1.31415774346e-05
1.31418387853e-05
1.3142095436e-05
1.31424235885e-05
1.31427599478e-05
1.31430668317e-05
1.31433090517e-05
1.31434636295e-05
1.3143515759e-05
1.3143459867e-05
1.31433017637e-05
1.31430566189e-05
1.31427482027e-05
1.31424115731e-05
1.31420852928e-05
1.3141830742e-05
1.3141901516e-05
1.31421475165e-05
1.31424679678e-05
1.31427985799e-05
1.31431025335e-05
1.314334371e-05
1.31434981444e-05
1.31435503744e-05
1.31434945299e-05
1.31433367249e-05
1.3143092779e-05
1.31427872815e-05
1.31424564693e-05
1.31421374803e-05
1.31418936016e-05
1.31419479134e-05
1.31421852671e-05
1.31425000042e-05
1.31428240369e-05
1.31431238062e-05
1.31433626237e-05
1.31435159836e-05
1.31435679978e-05
1.31435126234e-05
1.31433561495e-05
1.31431147888e-05
1.31428135371e-05
1.31424892502e-05
1.3142175688e-05
1.31419401515e-05
1.31420116891e-05
1.31422421786e-05
1.31425534673e-05
1.31428707681e-05
1.31431656256e-05
1.31434011638e-05
1.31435527563e-05
1.31436042898e-05
1.31435496416e-05
1.31433951762e-05
1.3143157285e-05
1.31428610305e-05
1.31425433854e-05
1.31422330959e-05
1.31420041367e-05
1.31420778609e-05
1.31423022004e-05
1.31426111272e-05
1.31429215496e-05
1.3143210907e-05
1.31434425777e-05
1.31435919504e-05
1.31436428504e-05
1.31435891053e-05
1.31434371113e-05
1.31432032992e-05
1.31429126157e-05
1.31426018235e-05
1.31422935508e-05
1.31420706751e-05
1.31421426655e-05
1.31423627726e-05
1.31426717506e-05
1.31429766792e-05
1.31432614452e-05
1.31434898338e-05
1.3143637306e-05
1.3143687673e-05
1.31436347379e-05
1.31434848987e-05
1.31432545719e-05
1.31429685564e-05
1.31426632397e-05
1.314235464e-05
1.31421358304e-05
1.3142212611e-05
1.31424329284e-05
1.3142745798e-05
1.31430482625e-05
1.31433307788e-05
1.31435575612e-05
1.31437041316e-05
1.31437542918e-05
1.31437018491e-05
1.31435531755e-05
1.31433246537e-05
1.31430409733e-05
1.31427380532e-05
1.31424253527e-05
1.31422060401e-05
1.31422968523e-05
1.31425241557e-05
1.31428453724e-05
1.31431492511e-05
1.31434323698e-05
1.31436595382e-05
1.3143806348e-05
1.31438566668e-05
1.31438043445e-05
1.31436556837e-05
1.31434269676e-05
1.31431427669e-05
1.31428383777e-05
1.31425171285e-05
1.31422906048e-05
1.31424043536e-05
1.31426465551e-05
1.31429801277e-05
1.31432888633e-05
1.31435749009e-05
1.31438039335e-05
1.31439517592e-05
1.31440024664e-05
1.3143950021e-05
1.31438005835e-05
1.31435701849e-05
1.31432831443e-05
1.31429738473e-05
1.31426400504e-05
1.31423983829e-05
1.31425419715e-05
1.31428069864e-05
1.31431555124e-05
1.3143471141e-05
1.31437610911e-05
1.31439923537e-05
1.31441412326e-05
1.31441922947e-05
1.31441397355e-05
1.3143989465e-05
1.31437570043e-05
1.31434661393e-05
1.31431499225e-05
1.31428010329e-05
1.31425363364e-05
1.31427113188e-05
1.31430064989e-05
1.31433710875e-05
1.31436942183e-05
1.31439877915e-05
1.31442205987e-05
1.31443698734e-05
1.31444210048e-05
1.31443685907e-05
1.31442181148e-05
1.31439842671e-05
1.3143689869e-05
1.3143366159e-05
1.31430011357e-05
1.31427061165e-05
1.31429073817e-05
1.31432402085e-05
1.31436215777e-05
1.3143951929e-05
1.31442483097e-05
1.31444815316e-05
1.31446301922e-05
1.3144681019e-05
1.31446290855e-05
1.31444793938e-05
1.31442452699e-05
1.31439481643e-05
1.314361727e-05
1.31432354395e-05
1.3142902633e-05
1.31431660412e-05
1.3143544649e-05
1.31439254586e-05
1.31442521094e-05
1.31445428604e-05
1.31447697248e-05
1.31449133702e-05
1.31449622688e-05
1.31449124093e-05
1.31447678657e-05
1.31445402105e-05
1.31442488356e-05
1.31439217273e-05
1.31435405218e-05
1.31431617686e-05
1.31438286631e-05
1.31440727699e-05
1.31443682646e-05
1.31446317699e-05
1.31448713793e-05
1.31450582879e-05
1.31451762045e-05
1.31452162719e-05
1.31451753666e-05
1.31450566798e-05
1.31448691012e-05
1.31446289783e-05
1.31443651396e-05
1.31440694733e-05
1.31438250841e-05
1.26943256548e-05
1.26941998885e-05
1.26940420061e-05
1.26938640438e-05
1.26936976644e-05
1.26935630206e-05
1.26934765036e-05
1.26934472173e-05
1.26934784635e-05
1.26935665425e-05
1.26937019718e-05
1.26938688197e-05
1.26940475121e-05
1.26942055181e-05
1.26943331879e-05
1.26944690216e-05
1.26943525708e-05
1.26942025916e-05
1.26940304473e-05
1.26938681061e-05
1.26937359572e-05
1.26936506721e-05
1.26936217201e-05
1.26936525914e-05
1.2693739397e-05
1.26938723064e-05
1.26940350122e-05
1.26942077806e-05
1.26943581029e-05
1.26944763483e-05
1.26947137849e-05
1.26946104855e-05
1.26944740967e-05
1.26943120197e-05
1.26941574791e-05
1.26940305512e-05
1.26939481771e-05
1.26939201376e-05
1.26939500852e-05
1.26940340145e-05
1.26941618206e-05
1.26943168152e-05
1.26944794294e-05
1.26946162256e-05
1.26947210614e-05
1.26949103048e-05
1.26948128932e-05
1.26946846962e-05
1.26945280585e-05
1.26943776437e-05
1.26942533239e-05
1.26941722906e-05
1.26941446452e-05
1.26941741833e-05
1.26942568107e-05
1.26943821477e-05
1.26945331133e-05
1.26946902404e-05
1.26948187665e-05
1.26949175909e-05
1.26950499566e-05
1.26949530848e-05
1.2694829066e-05
1.26946746398e-05
1.2694525904e-05
1.26944025262e-05
1.26943218896e-05
1.26942943371e-05
1.26943237557e-05
1.26944059979e-05
1.26945304754e-05
1.26946798426e-05
1.26948347621e-05
1.26949590151e-05
1.26950572673e-05
1.26951513994e-05
1.26950525482e-05
1.26949313857e-05
1.26947782445e-05
1.26946307639e-05
1.26945082679e-05
1.26944280911e-05
1.26944006675e-05
1.26944299082e-05
1.26945116758e-05
1.26946353288e-05
1.26947835039e-05
1.26949371468e-05
1.26950585675e-05
1.26951586198e-05
1.26952264888e-05
1.26951255511e-05
1.26950076501e-05
1.26948566138e-05
1.26947115013e-05
1.26945910204e-05
1.26945121416e-05
1.26944851533e-05
1.26945138938e-05
1.26945943278e-05
1.26947159888e-05
1.26948618519e-05
1.2695013399e-05
1.26951316098e-05
1.26952336545e-05
1.26952845731e-05
1.26951834089e-05
1.26950706901e-05
1.26949241317e-05
1.26947838244e-05
1.26946675411e-05
1.26945914616e-05
1.26945654402e-05
1.26945931307e-05
1.26946707119e-05
1.2694788181e-05
1.26949292939e-05
1.26950764023e-05
1.26951894648e-05
1.26952917279e-05
1.26953354744e-05
1.26952376142e-05
1.26951332762e-05
1.26949947684e-05
1.2694862726e-05
1.26947536223e-05
1.26946823533e-05
1.26946580064e-05
1.26946839296e-05
1.26947566343e-05
1.26948669117e-05
1.26949997991e-05
1.26951389135e-05
1.26952436338e-05
1.26953425898e-05
1.26953888614e-05
1.26952990684e-05
1.26952070043e-05
1.26950807461e-05
1.26949609872e-05
1.26948624584e-05
1.26947982622e-05
1.26947763828e-05
1.26947997397e-05
1.26948652985e-05
1.26949649802e-05
1.26950856228e-05
1.26952125457e-05
1.26953050536e-05
1.26953959082e-05
1.2695453092e-05
1.26953766419e-05
1.26953006241e-05
1.26951907543e-05
1.26950872743e-05
1.26950026913e-05
1.26949478059e-05
1.26949291751e-05
1.26949491834e-05
1.26950053561e-05
1.26950910614e-05
1.2695195452e-05
1.26953060369e-05
1.26953825618e-05
1.26954600449e-05
1.26955332027e-05
1.26954749564e-05
1.26954180068e-05
1.26953281972e-05
1.26952447101e-05
1.26951772297e-05
1.26951337364e-05
1.26951190781e-05
1.26951350168e-05
1.26951797197e-05
1.26952482923e-05
1.26953327049e-05
1.26954232747e-05
1.26954807693e-05
1.26955400166e-05
1.26956318278e-05
1.26955949071e-05
1.26955586208e-05
1.26954915482e-05
1.26954313021e-05
1.26953837104e-05
1.26953534284e-05
1.2695343372e-05
1.26953546112e-05
1.26953860329e-05
1.26954346714e-05
1.26954958565e-05
1.26955637195e-05
1.26956005871e-05
1.26956384611e-05
1.26957713951e-05
1.26957564527e-05
1.26957317505e-05
1.26956839775e-05
1.26956457729e-05
1.26956173625e-05
1.2695599812e-05
1.26955941743e-05
1.26956009014e-05
1.2695619508e-05
1.26956489251e-05
1.26956880539e-05
1.2695736661e-05
1.26957619868e-05
1.26957777326e-05
1.26960745636e-05
1.26960013025e-05
1.26959536361e-05
1.26959052652e-05
1.26958745474e-05
1.26958541061e-05
1.26958421763e-05
1.26958385351e-05
1.26958431874e-05
1.26958561168e-05
1.26958775259e-05
1.26959091825e-05
1.26959584434e-05
1.26960068971e-05
1.26960807846e-05
1.13686776675e-05
1.13687501768e-05
1.13688411796e-05
1.13689342793e-05
1.1369019279e-05
1.1369086359e-05
1.13691290705e-05
1.13691434189e-05
1.13691280151e-05
1.13690843485e-05
1.13690164966e-05
1.13689309036e-05
1.13688373078e-05
1.13687467201e-05
1.13686743338e-05
1.13687801706e-05
1.13688553367e-05
1.1368949609e-05
1.13690461865e-05
1.13691345526e-05
1.13692044443e-05
1.13692490253e-05
1.13692640174e-05
1.13692478888e-05
1.13692022731e-05
1.13691315463e-05
1.13690425595e-05
1.1368945548e-05
1.1368851624e-05
1.13687768589e-05
1.13688318737e-05
1.13689059898e-05
1.13689997324e-05
1.13690963905e-05
1.13691853837e-05
1.13692560867e-05
1.13693013403e-05
1.13693166188e-05
1.13693002781e-05
1.13692540572e-05
1.1369182574e-05
1.13690929832e-05
1.13689959553e-05
1.13689023546e-05
1.13688287078e-05
1.13688756977e-05
1.1368949443e-05
1.13690433524e-05
1.13691400321e-05
1.13692295053e-05
1.13693008072e-05
1.13693465745e-05
1.13693620883e-05
1.1369345621e-05
1.1369298984e-05
1.13692269766e-05
1.13691369634e-05
1.13690399427e-05
1.13689460715e-05
1.13688726787e-05
1.13689238916e-05
1.13689981765e-05
1.13690930926e-05
1.13691899369e-05
1.13692798435e-05
1.13693516049e-05
1.13693977571e-05
1.13694134477e-05
1.13693969007e-05
1.13693499678e-05
1.13692775665e-05
1.13691871732e-05
1.13690899886e-05
1.13689950728e-05
1.13689210515e-05
1.13689734871e-05
1.13690487108e-05
1.13691447524e-05
1.13692415591e-05
1.13693315239e-05
1.13694033781e-05
1.13694496429e-05
1.13694654127e-05
1.13694488819e-05
1.13694019212e-05
1.13693294943e-05
1.13692390953e-05
1.13691419899e-05
1.13690458268e-05
1.13689709263e-05
1.13690224328e-05
1.13690986312e-05
1.13691958028e-05
1.13692921897e-05
1.13693817281e-05
1.13694532422e-05
1.13694993151e-05
1.13695150534e-05
1.13694986446e-05
1.13694519569e-05
1.13693799333e-05
1.1369290003e-05
1.13691933546e-05
1.13690959767e-05
1.13690201245e-05
1.13690703646e-05
1.1369147616e-05
1.13692458766e-05
1.13693414645e-05
1.13694301312e-05
1.13695009113e-05
1.13695465209e-05
1.13695621267e-05
1.13695459347e-05
1.1369499787e-05
1.13694285551e-05
1.13693395383e-05
1.13692437068e-05
1.13691451996e-05
1.13690682531e-05
1.13691174057e-05
1.13691960643e-05
1.13692953353e-05
1.13693898105e-05
1.13694772172e-05
1.13695469383e-05
1.13695918594e-05
1.13696072491e-05
1.1369591349e-05
1.13695459579e-05
1.13694758367e-05
1.13693881124e-05
1.13692934027e-05
1.13691938562e-05
1.13691155043e-05
1.13691641506e-05
1.13692447655e-05
1.13693449471e-05
1.13694380374e-05
1.13695238547e-05
1.13695922514e-05
1.13696363004e-05
1.13696514058e-05
1.13696358551e-05
1.1369591394e-05
1.13695226432e-05
1.13694365358e-05
1.13693432167e-05
1.13692427315e-05
1.13691624283e-05
1.13692114696e-05
1.13692948445e-05
1.13693957849e-05
1.13694872007e-05
1.13695711244e-05
1.13696379566e-05
1.136968097e-05
1.13696957272e-05
1.13696805772e-05
1.13696372009e-05
1.1369570052e-05
1.13694858657e-05
1.13693942284e-05
1.13692929793e-05
1.13692099293e-05
1.13692597269e-05
1.13693469468e-05
1.13694484815e-05
1.13695380452e-05
1.13696199162e-05
1.13696850663e-05
1.13697269476e-05
1.13697413126e-05
1.13697265965e-05
1.13696843874e-05
1.13696189575e-05
1.1369536846e-05
1.13694470785e-05
1.13693452512e-05
1.13692583851e-05
1.13693086625e-05
1.13694009095e-05
1.13695030526e-05
1.13695908843e-05
1.13696709946e-05
1.13697346521e-05
1.1369775484e-05
1.13697894714e-05
1.13697751584e-05
1.13697340333e-05
1.13696701127e-05
1.1369589797e-05
1.136950178e-05
1.13693993786e-05
1.1369307497e-05
1.13693732643e-05
1.13694723215e-05
1.1369569279e-05
1.1369652299e-05
1.13697285844e-05
1.136978911e-05
1.13698277609e-05
1.13698409598e-05
1.13698274537e-05
1.13697885183e-05
1.13697277565e-05
1.13696512778e-05
1.13695681232e-05
1.13694709664e-05
1.13693722746e-05
1.13695742024e-05
1.13696247264e-05
1.13696862984e-05
1.13697434359e-05
1.13697993533e-05
1.13698441319e-05
1.13698727107e-05
1.13698824415e-05
1.13698724224e-05
1.13698435873e-05
1.13697985918e-05
1.13697425251e-05
1.13696853049e-05
1.13696236576e-05
1.13695733648e-05
1.05265130474e-05
1.05264829568e-05
1.05264423031e-05
1.05263948648e-05
1.05263504205e-05
1.05263143774e-05
1.05262910176e-05
1.05262828909e-05
1.05262909307e-05
1.05263141259e-05
1.05263498553e-05
1.05263936838e-05
1.05264402223e-05
1.05264801372e-05
1.05265112557e-05
1.05265799247e-05
1.05265532966e-05
1.05265159075e-05
1.05264710481e-05
1.05264285298e-05
1.05263937643e-05
1.05263711204e-05
1.05263632158e-05
1.05263710227e-05
1.05263934868e-05
1.05264279046e-05
1.05264697645e-05
1.0526513688e-05
1.05265503921e-05
1.05265779685e-05
1.05266692225e-05
1.05266464559e-05
1.0526613439e-05
1.05265718916e-05
1.05265319335e-05
1.0526498872e-05
1.05264771979e-05
1.05264696079e-05
1.05264771067e-05
1.0526498608e-05
1.05265313366e-05
1.05265706878e-05
1.05266113716e-05
1.05266438184e-05
1.05266673433e-05
1.05267397973e-05
1.05267186068e-05
1.05266880885e-05
1.05266482516e-05
1.05266095355e-05
1.05265772207e-05
1.05265559401e-05
1.05265484722e-05
1.05265558523e-05
1.05265769654e-05
1.05266089582e-05
1.05266471187e-05
1.0526686204e-05
1.05267161785e-05
1.05267380446e-05
1.05267917638e-05
1.05267705496e-05
1.05267412496e-05
1.05267020336e-05
1.05266637255e-05
1.05266315996e-05
1.05266103852e-05
1.05266029308e-05
1.05266102955e-05
1.05266313457e-05
1.05266631621e-05
1.0526700955e-05
1.05267395151e-05
1.05267682746e-05
1.05267901371e-05
1.05268311297e-05
1.05268090325e-05
1.05267804686e-05
1.05267414674e-05
1.05267033175e-05
1.05266712629e-05
1.05266500652e-05
1.05266426103e-05
1.05266499662e-05
1.05266709957e-05
1.05267027504e-05
1.05267404201e-05
1.05267788507e-05
1.05268069332e-05
1.05268295636e-05
1.05268613285e-05
1.05268382157e-05
1.05268103204e-05
1.05267715636e-05
1.05267337203e-05
1.05267019286e-05
1.05266808992e-05
1.05266735006e-05
1.0526680789e-05
1.05267016464e-05
1.05267331502e-05
1.05267705529e-05
1.05268087985e-05
1.0526836282e-05
1.05268598635e-05
1.05268849942e-05
1.05268612408e-05
1.0526834277e-05
1.05267961954e-05
1.0526759128e-05
1.05267280408e-05
1.05267074905e-05
1.05267002599e-05
1.05267073666e-05
1.05267277404e-05
1.05267585541e-05
1.05267952285e-05
1.0526832869e-05
1.05268594635e-05
1.0526883681e-05
1.05269047691e-05
1.05268811127e-05
1.05268556541e-05
1.05268189564e-05
1.05267833805e-05
1.05267536459e-05
1.05267340207e-05
1.0526727119e-05
1.05267338866e-05
1.05267533343e-05
1.0526782815e-05
1.0526818043e-05
1.05268543694e-05
1.05268794934e-05
1.05269036099e-05
1.05269231062e-05
1.05269005603e-05
1.05268773667e-05
1.05268429321e-05
1.05268097439e-05
1.05267821469e-05
1.05267639855e-05
1.05267576038e-05
1.05267638453e-05
1.0526781833e-05
1.05268091989e-05
1.05268420929e-05
1.05268762215e-05
1.05268991239e-05
1.05269220983e-05
1.05269420571e-05
1.05269217843e-05
1.05269016225e-05
1.05268703764e-05
1.05268405413e-05
1.05268159454e-05
1.05267998353e-05
1.0526794186e-05
1.05267996965e-05
1.05268156423e-05
1.05268400357e-05
1.05268696258e-05
1.05269006234e-05
1.05269205345e-05
1.05269412039e-05
1.0526962664e-05
1.05269457961e-05
1.0526929352e-05
1.052690225e-05
1.05268768339e-05
1.05268561816e-05
1.05268427711e-05
1.05268380787e-05
1.05268426408e-05
1.05268559051e-05
1.05268763831e-05
1.05269016065e-05
1.05269285116e-05
1.05269447283e-05
1.05269619624e-05
1.05269852055e-05
1.05269725546e-05
1.05269603645e-05
1.05269383345e-05
1.05269185159e-05
1.05269028757e-05
1.05268928537e-05
1.05268893767e-05
1.05268927389e-05
1.05269026323e-05
1.05269181367e-05
1.05269378042e-05
1.05269596853e-05
1.05269716698e-05
1.05269846468e-05
1.05270176461e-05
1.05270097301e-05
1.05269987745e-05
1.05269808042e-05
1.052696642e-05
1.05269557391e-05
1.05269491071e-05
1.05269468151e-05
1.05269490103e-05
1.0526955543e-05
1.05269661116e-05
1.05269803926e-05
1.05269982577e-05
1.05270090371e-05
1.05270171722e-05
1.05271124956e-05
1.052707857e-05
1.05270554614e-05
1.05270333903e-05
1.05270183815e-05
1.05270080503e-05
1.05270018544e-05
1.05269997724e-05
1.05270017976e-05
1.05270079333e-05
1.05270182056e-05
1.05270331614e-05
1.05270551919e-05
1.05270782051e-05
1.05271121906e-05
9.4881671239e-06
9.48818064062e-06
9.48819856776e-06
9.48821616229e-06
9.48823224787e-06
9.48824486247e-06
9.48825287569e-06
9.48825548111e-06
9.48825240291e-06
9.48824390921e-06
9.48823079491e-06
9.48821425695e-06
9.48819627864e-06
9.48817840049e-06
9.48816491524e-06
9.48820705578e-06
9.48822230383e-06
9.4882418861e-06
9.4882611011e-06
9.48827863387e-06
9.48829239597e-06
9.48830114724e-06
9.48830400138e-06
9.4883006506e-06
9.48829139368e-06
9.48827710475e-06
9.48825909384e-06
9.48823950026e-06
9.48821991966e-06
9.48820487823e-06
9.48824233551e-06
9.4882587148e-06
9.48827950899e-06
9.48829992937e-06
9.48831859962e-06
9.48833329081e-06
9.48834264729e-06
9.48834572076e-06
9.48834217448e-06
9.4883323388e-06
9.48831715937e-06
9.48829803883e-06
9.4882772853e-06
9.48825639391e-06
9.48824025265e-06
9.48827311037e-06
9.48829030229e-06
9.48831219554e-06
9.48833348556e-06
9.48835301461e-06
9.48836840926e-06
9.4883782291e-06
9.48838147521e-06
9.4883777898e-06
9.4883675278e-06
9.48835169018e-06
9.48833174612e-06
9.48831013875e-06
9.48828810507e-06
9.48827108396e-06
9.48830176619e-06
9.48831968484e-06
9.48834263885e-06