/*--------------------------------*- C++ -*----------------------------------*\
  =========                 |
  \\      /  F ield         | OpenFOAM: The Open Source CFD Toolbox
   \\    /   O peration     | Website:  https://openfoam.org
    \\  /    A nd           | Version:  7
     \\/     M anipulation  |
\*---------------------------------------------------------------------------*/
FoamFile
{
    version     2.0;
    format      ascii;
    class       volVectorField;
    location    "2.22";
    object      U;
}
// * * * * * * * * * * * * * * * * * * * * * * * * * * * * * * * * * * * * * //

dimensions      [0 1 -1 0 0 0 0];

internalField   nonuniform List<vector> 
22500
(
(1.93411407249e-05 2.15993078229e-05 0.00034895213641)
(1.80608457826e-05 2.42833753816e-05 0.000366356244214)
(1.58313342724e-05 2.70278461911e-05 0.000382251693144)
(1.33309143277e-05 2.93660760027e-05 0.000395967087027)
(1.03736595965e-05 3.13078955652e-05 0.00040707147474)
(7.10646052014e-06 3.27541604077e-05 0.000415234047455)
(3.60965523368e-06 3.36470851597e-05 0.000420227790895)
(-6.31261702554e-09 3.39492026463e-05 0.000421916570504)
(-3.62201801994e-06 3.36467917229e-05 0.000420227146886)
(-7.1180543152e-06 3.27537183279e-05 0.00041523279126)
(-1.03837545716e-05 3.13076755568e-05 0.000407069706742)
(-1.33387543749e-05 2.9366402194e-05 0.000395965059589)
(-1.58360479931e-05 2.70294768641e-05 0.000382249674835)
(-1.80620468905e-05 2.42863998378e-05 0.000366354044993)
(-1.93394565449e-05 2.16030870843e-05 0.000348946349972)
(5.59162878138e-05 6.25762930873e-05 0.000887316037011)
(5.20795864699e-05 7.01841856427e-05 0.000924058072914)
(4.5773444084e-05 7.78590903531e-05 0.000957193355584)
(3.84829313949e-05 8.44536030088e-05 0.000985471247658)
(2.9946743776e-05 8.9926814102e-05 0.00100814661327)
(2.05074713382e-05 9.40041411378e-05 0.00102469119908)
(1.04153191331e-05 9.65227723216e-05 0.0010347609248)
(-1.55312731058e-08 9.73749165922e-05 0.00103815317416)
(-1.0445787688e-05 9.65228365548e-05 0.00103475850933)
(-2.05361442364e-05 9.4004569663e-05 0.00102468652745)
(-2.99720485544e-05 8.99283233928e-05 0.00100814009853)
(-3.85030432328e-05 8.44567798283e-05 0.000985463771286)
(-4.57863899614e-05 7.78652088845e-05 0.000957185895939)
(-5.2084490751e-05 7.01930679152e-05 0.000924050262936)
(-5.59139486228e-05 6.25865800056e-05 0.000887300625969)
(8.30062412648e-05 9.28172416063e-05 0.00130296516242)
(7.68965668947e-05 0.000103459010137 0.00134933306945)
(6.74109643457e-05 0.00011411166935 0.00139067144828)
(5.64778048022e-05 0.000123230844776 0.00142562247088)
(4.38432469793e-05 0.00013076573252 0.00145341988684)
(2.99670046272e-05 0.000136361495402 0.001473572852)
(1.52021425428e-05 0.000139811358726 0.00148578383943)
(-2.21927308978e-08 0.000140977699582 0.00148988434466)
(-1.52457570826e-05 0.000139812629513 0.00148577996182)
(-3.00082602297e-05 0.000136364378802 0.0014735653854)
(-4.38801512848e-05 0.000130770982829 0.00145340954633)
(-5.65079763845e-05 0.000123239046606 0.00142561065256)
(-6.7431713307e-05 0.000114123753766 0.00139065982416)
(-7.69066279863e-05 0.00010347421808 0.00134932145024)
(-8.30058325591e-05 9.28335344667e-05 0.00130294383095)
(0.000102858912133 0.000114883963625 0.00162535723656)
(9.47839704063e-05 0.000127182338547 0.00167512033495)
(8.2818570019e-05 0.000139449464689 0.00171894665626)
(6.91366121885e-05 0.000149873871484 0.00175564614243)
(5.35262422941e-05 0.000158446005039 0.00178458992369)
(3.65106532407e-05 0.000164787427573 0.00180543643177)
(1.84986036973e-05 0.000168687545809 0.00181800906806)
(-2.67689712294e-08 0.000170004646352 0.00182221815198)
(-1.85512515258e-05 0.000168689903336 0.00181800442486)
(-3.65605601389e-05 0.000164792465476 0.00180542753954)
(-5.35711800681e-05 0.000158454383238 0.00178457772515)
(-6.91739743187e-05 0.000149886077112 0.001755632374)
(-8.28453469806e-05 0.000139466009212 0.00171893352585)
(-9.47987527835e-05 0.000127202013762 0.00167510808044)
(-0.000102861331443 0.000114904550706 0.0016253354525)
(0.000117159264049 0.000130734502479 0.00187541623182)
(0.000107420205488 0.000143709680302 0.00192455033533)
(9.35330625707e-05 0.000156644761855 0.00196724794071)
(7.78070664958e-05 0.000167543778355 0.00200262855777)
(6.00794678808e-05 0.000176461246747 0.00203028027001)
(4.0898634961e-05 0.000183031783965 0.00205005425817)
(2.06965359778e-05 0.000187062560214 0.00206191998933)
(-2.97409227935e-08 0.000188422157965 0.0020658801442)
(-2.07550482746e-05 0.000187065740725 0.00206191528049)
(-4.09541642516e-05 0.000183038416909 0.00205004530812)
(-6.01296774262e-05 0.000176471846544 0.00203026816358)
(-7.78493153632e-05 0.000167558685211 0.00200261522641)
(-9.35643477865e-05 0.00015666420596 0.00196723596648)
(-0.000107439082435 0.000143732099634 0.00192454042272)
(-0.000117164913613 0.000130757895831 0.00187539819265)
(0.000126837840003 0.000141409306908 0.00206865823473)
(0.00011572358419 0.00015430310615 0.00211462842941)
(0.000100396711368 0.000167184536261 0.00215399248395)
(8.32264421122e-05 0.000177940609315 0.00218623189342)
(6.4095373524e-05 0.000186694331338 0.00221117724912)
(4.35465306918e-05 0.000193118265742 0.00222887455849)
(2.2010118897e-05 0.000197048927325 0.00223943475433)
(-3.14704170572e-08 0.000198373191495 0.00224294774385)
(-2.20720531017e-05 0.000197052688282 0.0022394305326)
(-4.36053736038e-05 0.000193125992979 0.00222886662527)
(-6.41487862483e-05 0.000186706381877 0.00221116676235)
(-8.32718659005e-05 0.000177957159949 0.00218622088802)
(-0.000100431358487 0.000167205591023 0.0021539838038)
(-0.000115746074084 0.000154326925406 0.00211462313518)
(-0.000126846835225 0.000141434235632 0.00206864635965)
(0.000132636607346 0.000147720630924 0.00221699460464)
(0.000120424368425 0.000159956883453 0.00225831559374)
(0.000104083064969 0.000172238957069 0.00229313044608)
(8.59827254808e-05 0.000182399134602 0.00232127530801)
(6.6045604248e-05 0.000190621724192 0.00234281019071)
(4.47846827503e-05 0.000196631998336 0.00235795203242)
(2.26094091538e-05 0.000200300144702 0.00236693060774)
(-3.22519892419e-08 0.00020153456842 0.00236990699224)
(-2.26729036121e-05 0.000200304231763 0.00236692723715)
(-4.48450923187e-05 0.00019664031358 0.00235794582203)
(-6.61006686367e-05 0.000190634470624 0.00234280233283)
(-8.60300485774e-05 0.000182416342581 0.00232126790021)
(-0.000104120141288 0.000172260452881 0.00229312653016)
(-0.000120449983075 0.000159980928136 0.00225831638343)
(-0.000132648902588 0.000147745969343 0.00221699006698)
(0.000135239616507 0.000150426999056 0.00232979658831)
(0.000122191853506 0.000161594241866 0.00236573646258)
(0.000105208222102 0.000172884207231 0.00239548784523)
(8.66111375547e-05 0.000182135450753 0.0024191955793)
(6.63575446516e-05 0.000189579438847 0.00243710998215)
(4.4911329199e-05 0.000195000359506 0.00244957979065)
(2.26475587948e-05 0.000198300861361 0.00245692144639)
(-3.23330953603e-08 0.00019941042595 0.00245934584167)
(-2.27112414072e-05 0.000198305025732 0.00245691911186)
(-4.49720272564e-05 0.000195008767819 0.00244957566277)
(-6.64131361402e-05 0.000189592169997 0.00243710527647)
(-8.6659433249e-05 0.000182152415347 0.00241919245262)
(-0.000105247031579 0.000172905122821 0.00239548949895)
(-0.000122220123522 0.000161617440263 0.00236574401935)
(-0.000135255048641 0.000150451758847 0.00232979962868)
(0.000135251117831 0.00015020525293 0.00241455311237)
(0.000121610604544 0.000160028407385 0.00244491758811)
(0.000104306710792 0.00017005677997 0.00246958062162)
(8.55734879503e-05 0.000178195607051 0.00248892700227)
(6.53979800215e-05 0.000184707011036 0.00250334350888)
(4.41812677355e-05 0.000189433517924 0.00251326482036)
(2.22550114958e-05 0.000192305310254 0.00251905889873)
(-3.19273496521e-08 0.000193269946769 0.00252096406259)
(-2.23179338941e-05 0.000192309322632 0.00251905763745)
(-4.42413787336e-05 0.000189441570563 0.00251326284802)
(-6.5453339302e-05 0.000184719094686 0.00250334206993)
(-8.56221360069e-05 0.000178211556004 0.00248892832705)
(-0.000104346765687 0.000170076261142 0.00246958803828)
(-0.000121641138334 0.000160049911663 0.00244493186234)
(-0.00013526944578 0.0001502285933 0.00241456320607)
(0.000133189575978 0.000147639949312 0.00247729841598)
(0.000119174811715 0.000155949508821 0.00250226594524)
(0.00010182662265 0.000164540124693 0.00252214216236)
(8.32551925234e-05 0.000171443903805 0.00253747214783)
(6.34714408988e-05 0.000176937872935 0.00254872051012)
(4.28049809001e-05 0.000180916597326 0.00255636232398)
(2.15391371815e-05 0.000183330558987 0.00256078399145)
(-3.12202404994e-08 0.000184140978768 0.00256223088285)
(-2.16007160965e-05 0.00018333422548 0.00256078372358)
(-4.2863976586e-05 0.000180923923213 0.0025563623473)
(-6.35261163723e-05 0.000176948795079 0.0025487221045)
(-8.33038291264e-05 0.000171458230582 0.00253747762787)
(-0.000101867620462 0.000164557529744 0.00252215494371)
(-0.000119207341365 0.000155968687628 0.00250228616138)
(-0.00013321058326 0.000147661222459 0.00247731431037)
(0.000129496261916 0.00014323400362 0.00252290776216)
(0.00011529754528 0.000149935087631 0.00254290221513)
(9.813985689e-05 0.000156978195893 0.00255849320644)
(7.99753543921e-05 0.000162582435495 0.00257030442336)
(6.08286127098e-05 0.000167024590158 0.00257882360826)
(4.09545217626e-05 0.000170239118056 0.00258452689323)
(2.05872455726e-05 0.000172188429131 0.00258779176482)
(-3.03685639565e-08 0.000172842764252 0.00258885423484)
(-2.06472053305e-05 0.00017219160443 0.00258779230874)
(-4.10121620049e-05 0.000170245439692 0.00258452853892)
(-6.08824082563e-05 0.000167033977124 0.00257882765789)
(-8.00238166453e-05 0.00016259471044 0.00257031326387)
(-9.81816340611e-05 0.000156993094669 0.00255851029397)
(-0.00011533186953 0.000149951535735 0.00254292678662)
(-0.000129519783669 0.000143252811208 0.00252292734257)
(0.00012454215945 0.000137419918039 0.00255531939284)
(0.000110321936608 0.000142458290645 0.00257091538407)
(9.35564998497e-05 0.000147888597694 0.00258282630683)
(7.59994076704e-05 0.000152172550437 0.00259167834172)
(5.76754303393e-05 0.000155566210146 0.00259794035947)
(3.8769217106e-05 0.000158025790656 0.00260206153914)
(1.94693483862e-05 0.000159518050359 0.00260439118073)
(-2.94995253826e-08 0.000160019086133 0.00260514441251)
(-1.95276641225e-05 0.000159520637271 0.00260439224632)
(-3.88254947491e-05 0.000158030937078 0.00260206419283)
(-5.77283479831e-05 0.000155573837181 0.00259794586667)
(-7.60476852609e-05 0.000152182525814 0.00259168910309)
(-9.35989852314e-05 0.000147900749847 0.00258284578434)
(-0.000110357887107 0.000142471774187 0.00257094173982)
(-0.000124568051863 0.000137435931392 0.00255533943453)
(0.000118628748636 0.000130544801107 0.00257771964018)
(0.000104542797379 0.000133882064657 0.00258958012338)
(8.83474252086e-05 0.000137677783935 0.00259844575671)
(7.15528090422e-05 0.000140661569486 0.00260488742452)
(5.41799257918e-05 0.000143039270381 0.00260933730868)
(3.63590367067e-05 0.000144768502223 0.00261220498423)
(1.8239654745e-05 0.000145818297436 0.00261380106532)
(-2.8714932943e-08 0.000146170757182 0.0026143130081)
(-1.82964894247e-05 0.000145820261935 0.00261380223328)
(-3.6414111724e-05 0.000144772416517 0.00261220773191)
(-5.42321120459e-05 0.000143045063935 0.00260934272355)
(-7.16009995579e-05 0.00014066917364 0.00260489776414)
(-8.83906244747e-05 0.000137687135537 0.00259846448592)
(-0.000104580259877 0.000133892532884 0.00258960448837)
(-0.0001186568789 0.000130557857185 0.00257773590082)
(0.000112041483485 0.000122851025978 0.0025927169382)
(9.82773875422e-05 0.000124499367568 0.00260156637027)
(8.27707359208e-05 0.000126671376994 0.00260798309301)
(6.68204539961e-05 0.000128424293169 0.00261248629305)
(5.04668696862e-05 0.000129835593434 0.0026154932318)
(3.38009220628e-05 0.000130862590359 0.00261737548482)
(1.69350789062e-05 0.000131484238725 0.00261840102402)
(-2.80749667888e-08 0.000131692612153 0.00261872629887)
(-1.69907191939e-05 0.000131485614377 0.00261840174453)
(-3.38550709687e-05 0.0001308653343 0.00261737710137)
(-5.05185632651e-05 0.000129839669606 0.00261549638788)
(-6.68687078052e-05 0.000128429678206 0.00261249271343)
(-8.28146611271e-05 0.000126678081984 0.00260799611508)
(-9.83162519951e-05 0.000124507005402 0.0026015832817)
(-0.000112071785366 0.00012286128961 0.00259272454395)
(0.000105186078413 0.000114748256006 0.00260255752745)
(9.19198799681e-05 0.000114033942408 0.00260919345358)
(7.69799460353e-05 0.000114870261654 0.00261358595813)
(6.18921984157e-05 0.000115527319238 0.0026164778537)
(4.65886438017e-05 0.000116057780402 0.0026182979788)
(3.11272465238e-05 0.000116435600855 0.00261938069584)
(1.55718629235e-05 0.000116660479672 0.00261994826441)
(-2.76039855263e-08 0.000116735390172 0.00262012444613)
(-1.56266381389e-05 0.000116661348961 0.00261994804252)
(-3.11807586376e-05 0.00011643733052 0.00261938005358)
(-4.66400859112e-05 0.000116060368448 0.00261829678562)
(-6.19407064852e-05 0.000115530754552 0.00261647658573)
(-7.70246284122e-05 0.000114874645612 0.00261358730524)
(-9.19598637917e-05 0.000114038973955 0.00260919271164)
(-0.000105218514903 0.000114755947052 0.00260255679348)
(5.3975196765e-07 8.46129183434e-07 0.000233410380298)
(3.62187588071e-07 1.08512552293e-06 0.000245104110928)
(2.94752792564e-07 1.22626436731e-06 0.000255766445493)
(2.189590519e-07 1.34110092807e-06 0.000264995359327)
(1.51800890547e-07 1.42540194978e-06 0.000272486231682)
(9.54804096622e-08 1.48173270111e-06 0.000278001919396)
(4.8186449467e-08 1.51381642845e-06 0.000281381260947)
(6.57006405348e-09 1.5244978006e-06 0.000282527103709)
(-3.55360664632e-08 1.51455568229e-06 0.000281382305191)
(-8.43520521435e-08 1.48294479344e-06 0.000278003875123)
(-1.43340685884e-07 1.42659987482e-06 0.000272488812038)
(-2.13792232038e-07 1.34183483027e-06 0.000264998093957)
(-2.92971207496e-07 1.2257534971e-06 0.000255768790208)
(-3.63224841505e-07 1.08343457329e-06 0.000245104720461)
(-5.41940171781e-07 8.4350519215e-07 0.000233405563677)
(4.73917269509e-06 5.74281843087e-06 0.000664711551047)
(4.16646275056e-06 6.96789898922e-06 0.0006960548025)
(3.71773449106e-06 8.01484958651e-06 0.000724580768953)
(3.14532811779e-06 8.94427664103e-06 0.000749220660711)
(2.46359807344e-06 9.70468458217e-06 0.000769181650854)
(1.6971125209e-06 1.02671958524e-05 0.000783859042397)
(8.70834337784e-07 1.06127860204e-05 0.000792841171667)
(1.47727479244e-08 1.07300131769e-05 0.000795878725588)
(-8.42411493317e-07 1.06142312972e-05 0.000792844038464)
(-1.67215011817e-06 1.02695417556e-05 0.000783864400436)
(-2.44455477466e-06 9.7069362087e-06 0.000769188692972)
(-3.1337728701e-06 8.9454627232e-06 0.000749228117578)
(-3.71380221296e-06 8.01339554159e-06 0.00072458711439)
(-4.16882273003e-06 6.96382221888e-06 0.000696056308746)
(-4.74418451148e-06 5.73654846177e-06 0.000664699430191)
(1.1024210091e-05 1.27369919124e-05 0.00106187910775)
(9.95601814429e-06 1.51918781953e-05 0.00110946516284)
(8.93158217815e-06 1.74171550954e-05 0.00115260420895)
(7.60434061849e-06 1.94090720808e-05 0.00118973747466)
(5.9883459665e-06 2.10556504448e-05 0.00121972594014)
(4.13861661269e-06 2.22835489926e-05 0.00124172308154)
(2.12158283114e-06 2.30419545413e-05 0.00125515943504)
(1.87076004218e-08 2.32992111586e-05 0.00125969343431)
(-2.08557990649e-06 2.30432994472e-05 0.00125516358955)
(-4.10694397716e-06 2.22856148093e-05 0.00124173086097)
(-5.96399998968e-06 2.10573429295e-05 0.00121973623198)
(-7.58939817549e-06 1.940931175e-05 0.001189748561)
(-8.92636274231e-06 1.74143722671e-05 0.00115261392151)
(-9.9588119193e-06 1.51858796091e-05 0.00110946827945)
(-1.10306300246e-05 1.27283109709e-05 0.00106186296266)
(1.82730616912e-05 2.06136039635e-05 0.00142429418028)
(1.66067207362e-05 2.4308246062e-05 0.00148436111653)
(1.48867061359e-05 2.76977135061e-05 0.00153847225124)
(1.26654271848e-05 3.0735657427e-05 0.00158480491876)
(9.96887863176e-06 3.32490796482e-05 0.00162204894333)
(6.88489092139e-06 3.51239900974e-05 0.00164926758476)
(3.52368845828e-06 3.62821149788e-05 0.00166584810064)
(1.9490008832e-08 3.66745277576e-05 0.00167143067245)
(-3.48618613511e-06 3.62832068592e-05 0.001665852969)
(-6.85189219725e-06 3.5125568246e-05 0.00164927675973)
(-9.94343693106e-06 3.32501108982e-05 0.00162206128116)
(-1.2649763167e-05 3.07350705704e-05 0.00158481867238)
(-1.48813320562e-05 2.76941351463e-05 0.00153848508541)
(-1.66098276112e-05 2.43012590429e-05 0.00148436717764)
(-1.82801996524e-05 2.06036383394e-05 0.00142427849299)
(2.56585795281e-05 2.84896414583e-05 0.00175009684573)
(2.33211372644e-05 3.3293388793e-05 0.00181863298398)
(2.08530386799e-05 3.76732404622e-05 0.00187985455388)
(1.76945905894e-05 4.15933705883e-05 0.00193191291476)
(1.3897748071e-05 4.48292535111e-05 0.00197350747593)
(9.5816124479e-06 4.72379852329e-05 0.00200375992618)
(4.89540793841e-06 4.87235718136e-05 0.00202212465103)
(1.82374998462e-08 4.92262150678e-05 0.00202829338088)
(-4.86033025224e-06 4.87243482697e-05 0.00202212980216)
(-9.55076644677e-06 4.72389995997e-05 0.00200376975769)
(-1.3873957575e-05 4.4829590636e-05 0.00197352105803)
(-1.76799801313e-05 4.15920567435e-05 0.00193192882121)
(-2.08482444768e-05 3.76691134733e-05 0.00187987072775)
(-2.33245638141e-05 3.32860066584e-05 0.00181864350735)
(-2.5666015878e-05 2.84790832144e-05 0.00175008532046)
(3.2648390889e-05 3.58237635953e-05 0.00203803941936)
(2.96008903953e-05 4.15280905732e-05 0.00211110996995)
(2.63786838394e-05 4.66454713667e-05 0.00217571287955)
(2.23051348421e-05 5.12120384533e-05 0.00223018962339)
(1.74690635481e-05 5.49660225314e-05 0.00227340396599)
(1.20170791544e-05 5.77508488201e-05 0.00230465473042)
(6.12882809081e-06 5.9464254839e-05 0.00232354787539)
(1.58167720546e-08 6.00430077156e-05 0.00232987811548)
(-6.09842303127e-06 5.94646606962e-05 0.0023235530849)
(-1.19903787608e-05 5.77512179801e-05 0.00230466485547)
(-1.74485085024e-05 5.49655952022e-05 0.00227341845314)
(-2.22926342379e-05 5.12100009811e-05 0.00223020760106)
(-2.63749152222e-05 4.66408863252e-05 0.00217573288852)
(-2.96046454543e-05 4.1520546424e-05 0.00211112631938)
(-3.26559529016e-05 3.58130295317e-05 0.00203803453968)
(3.88783644345e-05 4.22625037533e-05 0.00228810257389)
(3.51166086197e-05 4.86152300934e-05 0.00236215302676)
(3.11706721929e-05 5.4184597784e-05 0.00242684716356)
(2.62525169961e-05 5.91332614955e-05 0.00248088376576)
(2.04933974715e-05 6.31789016978e-05 0.00252339977187)
(1.40623467491e-05 6.61669433179e-05 0.00255394567557)
(7.15894072554e-06 6.79998143628e-05 0.00257232733652)
(1.28470645581e-08 6.86177638712e-05 0.00257846968079)
(-7.13426652183e-06 6.79998337934e-05 0.00257233253833)
(-1.40407402687e-05 6.61666394096e-05 0.00255395600626)
(-2.04768664522e-05 6.31776866616e-05 0.00252341513349)
(-2.6242694204e-05 5.91304938943e-05 0.00248090396226)
(-3.11682477336e-05 5.4179592852e-05 0.00242687150588)
(-3.5120731966e-05 4.86075803214e-05 0.00236217612317)
(-3.88860161788e-05 4.22518360938e-05 0.00228810572644)
(4.41129680875e-05 4.75885774356e-05 0.00250152328977)
(3.96656317622e-05 5.43202994245e-05 0.00257358403049)
(3.50560097101e-05 6.00573193895e-05 0.00263570910978)
(2.93992175895e-05 6.5126408031e-05 0.00268705891382)
(2.28689190445e-05 6.92424674048e-05 0.00272709900724)
(1.5650634488e-05 7.22667160143e-05 0.00275565984631)
(7.95292716221e-06 7.41152786188e-05 0.00277275954933)
(9.73662646553e-09 7.47372566879e-05 0.00277845727251)
(-7.93426111513e-06 7.4114924506e-05 0.00277276474939)
(-1.56343907916e-05 7.22657574458e-05 0.00275567040243)
(-2.28566806779e-05 6.9240480255e-05 0.00272711528931)
(-2.93923192521e-05 6.51229280182e-05 0.00268708142788)
(-3.50551246452e-05 6.00518925224e-05 0.00263573798684)
(-3.96702213513e-05 5.43125646833e-05 0.00257361408227)
(-4.41207005457e-05 4.7578009747e-05 0.00250153474352)
(4.82242483676e-05 5.16952768714e-05 0.00268057099142)
(4.31480349334e-05 5.85399863293e-05 0.00274835510266)
(3.79573614077e-05 6.41844860175e-05 0.00280595676371)
(3.16915798914e-05 6.9135921898e-05 0.00285303606493)
(2.45615944317e-05 7.31241600609e-05 0.00288939203628)
(1.6762834109e-05 7.60369975951e-05 0.00291512368179)
(8.5025135081e-06 7.78104876717e-05 0.0029304446652)
(6.7294039982e-09 7.84059236612e-05 0.0029355343623)
(-8.48966542001e-06 7.78097912495e-05 0.00293044984813)
(-1.67518156361e-05 7.60354343569e-05 0.00291513441198)
(-2.45536033341e-05 7.31214453639e-05 0.00288940911345)
(-3.16876642237e-05 6.91317535179e-05 0.00285306065612)
(-3.79581322791e-05 6.41785989126e-05 0.0028059897795)
(-4.31532060267e-05 5.85320897131e-05 0.00274839136098)
(-4.82320931057e-05 5.16847322137e-05 0.00268058978728)
(5.11701891223e-05 5.45619025857e-05 0.00282824218552)
(4.55431617075e-05 6.1270976729e-05 0.00289015638682)
(3.98695082083e-05 6.65994519159e-05 0.00294197335766)
(3.31376938977e-05 7.12300923323e-05 0.00298382862172)
(2.55864772348e-05 7.49246963349e-05 0.00301581856078)
(1.74139319966e-05 7.76049526772e-05 0.00303827140169)
(8.81684089427e-06 7.92299300512e-05 0.00305156093029)
(3.95263218552e-09 7.97742823255e-05 0.00305596170578)
(-8.80937736359e-06 7.92289371851e-05 0.00305156597235)
(-1.74077897969e-05 7.7602858844e-05 0.00303828201385)
(-2.55825223262e-05 7.49213238672e-05 0.00301583589459)
(-3.31367072653e-05 7.12252698287e-05 0.00298385441696)
(-3.9872003736e-05 6.65930617069e-05 0.00294200921298)
(-4.55490041332e-05 6.12627974941e-05 0.00289019688385)
(-5.11781908128e-05 5.45512375229e-05 0.00282826594815)
(5.29733951819e-05 5.62311461575e-05 0.00294795941892)
(4.68878035747e-05 6.25809510218e-05 0.0030030577166)
(4.08383778395e-05 6.74098463821e-05 0.0030484520701)
(3.37884698548e-05 7.15551465348e-05 0.00308467394488)
(2.59921023648e-05 7.48260551562e-05 0.0031120547554)
(1.7641820919e-05 7.71815337974e-05 0.00313109964861)
(8.91662252932e-06 7.86033372663e-05 0.0031422998242)
(1.45799289335e-09 7.9078550869e-05 0.00314599603881)
(-8.91401036431e-06 7.86021079318e-05 0.0031423044162)
(-1.76401169382e-05 7.71790104348e-05 0.00313110945451)
(-2.59918993634e-05 7.48221307497e-05 0.00311207116046)
(-3.37903102773e-05 7.15497375687e-05 0.00308469913874)
(-4.08426489963e-05 6.74029317877e-05 0.00304848824363)
(-4.68944236231e-05 6.25723617574e-05 0.00300309898837)
(-5.29815913275e-05 5.62201677444e-05 0.0029479840745)
(5.36990643686e-05 5.67869748385e-05 0.00304331485574)
(4.72556582002e-05 6.25801200255e-05 0.00309122824083)
(4.09436886444e-05 6.67622135844e-05 0.00313008838201)
(3.37233910132e-05 7.029577747e-05 0.00316069679644)
(2.58491212551e-05 7.304922779e-05 0.00318355341871)
(1.7499201071e-05 7.50171320955e-05 0.00319929227653)
(8.82991263447e-06 7.61999315749e-05 0.00320848253981)
(-7.44805235147e-10 7.65943873598e-05 0.00321150399295)
(-8.83159770744e-06 7.61985440295e-05 0.00320848612721)
(-1.75014718788e-05 7.50143130671e-05 0.00319930006498)
(-2.58523542008e-05 7.30449048608e-05 0.00318356685392)
(-3.37279223586e-05 7.02899138509e-05 0.00316071835349)
(-4.09497672264e-05 6.67548353316e-05 0.00313012080255)
(-4.72631783462e-05 6.25711011772e-05 0.00309126510676)
(-5.37075377399e-05 5.67756293546e-05 0.00304333437925)
(5.34307732892e-05 5.63254843353e-05 0.00311787361138)
(4.67416225545e-05 6.13890228798e-05 0.00315875786169)
(4.02906052252e-05 6.48117549959e-05 0.00319139338045)
(3.30446370135e-05 6.76450351193e-05 0.00321670442552)
(2.52450874556e-05 6.98246799054e-05 0.00323532798664)
(1.7049452208e-05 7.13718510991e-05 0.0032480005995)
(8.58981406152e-06 7.22982049762e-05 0.00325533987182)
(-2.66027505529e-09 7.26065164062e-05 0.00325774220315)
(-8.59524954832e-06 7.22967499705e-05 0.00325534163754)
(-1.70552312845e-05 7.13688987129e-05 0.00324800459038)
(-2.52514156368e-05 6.98201750333e-05 0.00323533544562)
(-3.30516763178e-05 6.76389346572e-05 0.00321671784583)
(-4.02984585501e-05 6.48040875051e-05 0.003191416098)
(-4.67501055075e-05 6.13796741449e-05 0.00315878336897)
(-5.34395800121e-05 5.63138723324e-05 0.00311788051384)
(5.22785427497e-05 5.49426829852e-05 0.00317503802334)
(4.54812695642e-05 5.91953555794e-05 0.00320961710818)
(3.90279604789e-05 6.17476727866e-05 0.00323662491166)
(3.18839623306e-05 6.38214925464e-05 0.00325708782952)
(2.428567525e-05 6.53992248821e-05 0.00327184906184)
(1.636556041e-05 6.65127435669e-05 0.00328174563332)
(8.23344094584e-06 6.71769785824e-05 0.00328742072021)
(-4.29777748393e-09 6.73975219412e-05 0.00328926833361)
(-8.24209071448e-06 6.71755525966e-05 0.00328741966509)
(-1.63743600171e-05 6.65098483581e-05 0.00328174363961)
(-2.42947064912e-05 6.53947909682e-05 0.00327184677124)
(-3.18932567265e-05 6.38154486007e-05 0.00325708719335)
(-3.90374821989e-05 6.17399999724e-05 0.00323662972382)
(-4.54907007051e-05 5.91858964977e-05 0.00320962232781)
(-5.22877134673e-05 5.49308992267e-05 0.00317502451552)
(5.0316702518e-05 5.34962925483e-05 0.00321811098259)
(4.36504702823e-05 5.63400548568e-05 0.00324794046971)
(3.73054578889e-05 5.78538848643e-05 0.0032697914857)
(3.03641186235e-05 5.90884874104e-05 0.00328577307892)
(2.30655604505e-05 6.00083765929e-05 0.00329700605052)
(1.55112407782e-05 6.06507567662e-05 0.00330439961935)
(7.79280611482e-06 6.10306761218e-05 0.00330858808973)
(-5.65799683394e-09 6.11560881562e-05 0.00330994226302)
(-7.80412427295e-06 6.10294077349e-05 0.0033085834099)
(-1.55225568728e-05 6.06481849635e-05 0.00330438987209)
(-2.30768473512e-05 6.00044072985e-05 0.00329699084161)
(-3.03753044215e-05 5.90830181766e-05 0.00328575283341)
(-3.73164403372e-05 5.78467952893e-05 0.00326976968997)
(-4.36607004955e-05 5.63310566367e-05 0.00324791099579)
(-5.03263027171e-05 5.3484978059e-05 0.00321807723915)
(-8.78547856036e-08 -2.16773089096e-07 0.000164710939547)
(1.71444445623e-08 -3.23558474763e-07 0.000173043850179)
(9.71222746472e-08 -3.84303756596e-07 0.000180675228384)
(1.4478831561e-07 -4.08212681245e-07 0.000187330477965)
(1.53412912325e-07 -4.07281312612e-07 0.000192761120327)
(1.25078475248e-07 -3.94729760478e-07 0.000196775291453)
(6.90522034089e-08 -3.8215633094e-07 0.000199240928477)
(-1.96504749301e-09 -3.77180293501e-07 0.000200078220134)
(-7.27866395418e-08 -3.82501517236e-07 0.000199240655081)
(-1.28260770133e-07 -3.9537668205e-07 0.00019677477057)
(-1.55883289453e-07 -4.0818416643e-07 0.000192760361103)
(-1.46823234632e-07 -4.09351993096e-07 0.000187329366344)
(-9.8846948228e-08 -3.85387368763e-07 0.000180673371545)
(-1.84621858344e-08 -3.24589195446e-07 0.000173040343741)
(8.70045203136e-08 -2.17467221361e-07 0.000164702921151)
(2.55582896979e-07 4.39845524468e-09 0.000491177333574)
(4.93180912086e-07 -1.35134764652e-07 0.000515492855203)
(6.59511580429e-07 -1.65474412523e-07 0.000537807074606)
(7.25019008004e-07 -1.10754827575e-07 0.000557271971889)
(6.7512638958e-07 -9.31319447987e-09 0.00057316007696)
(5.17276117025e-07 9.84391510406e-08 0.000584908378816)
(2.7842203193e-07 1.7806811356e-07 0.000592124425503)
(-4.1250858984e-09 2.07035917997e-07 0.000594568888536)
(-2.86300368672e-07 1.77230991872e-07 0.000592124080197)
(-5.24122310749e-07 9.68233740047e-08 0.000584907716902)
(-6.80680670234e-07 -1.16365470898e-08 0.000573159024704)
(-7.29765424358e-07 -1.13707164368e-07 0.000557270052827)
(-6.63792237657e-07 -1.68454022732e-07 0.000537803027433)
(-4.96733629104e-07 -1.38069431492e-07 0.000515483852863)
(-2.58050412835e-07 2.14664628579e-09 0.000491156468057)
(1.17356469396e-06 9.26541111121e-07 0.000810960927017)
(1.47335555332e-06 9.32899139733e-07 0.000850368045486)
(1.6490385461e-06 1.09123084296e-06 0.000886514175187)
(1.64928413283e-06 1.35766347871e-06 0.000918019208541)
(1.45528974593e-06 1.66372785999e-06 0.000943717557185)
(1.08200768609e-06 1.94071031855e-06 0.000962710644286)
(5.74610655158e-07 2.13154029891e-06 0.000974370188416)
(-4.87150438957e-09 2.1992168188e-06 0.000978313662536)
(-5.83978011501e-07 2.13045695102e-06 0.00097437018954)
(-1.09034595607e-06 1.93854912307e-06 0.000962710628144)
(-1.46237882752e-06 1.66048468709e-06 0.000943717293541)
(-1.65564853608e-06 1.353421866e-06 0.000918017831938)
(-1.65508024887e-06 1.08668443829e-06 0.000886509678868)
(-1.47877163119e-06 9.28328978408e-07 0.000850356000979)
(-1.17755800081e-06 9.22633989405e-07 0.000810931212589)
(2.76984310473e-06 2.64195409142e-06 0.00112179772822)
(3.06956992951e-06 2.9702291828e-06 0.00117497963754)
(3.17570731484e-06 3.47888764619e-06 0.00122363539846)
(3.01789842227e-06 4.0946398791e-06 0.00126595333352)
(2.57683925191e-06 4.71424597352e-06 0.00130040832319)
(1.87827606508e-06 5.23874968414e-06 0.0013258363968)
(9.88027257802e-07 5.58780581456e-06 0.00134142792562)
(-4.88129103591e-09 5.7098942018e-06 0.00134669369029)
(-9.97503843258e-07 5.58661534801e-06 0.00134142856987)
(-1.88698402098e-06 5.23632182601e-06 0.00132583759721)
(-2.584665175e-06 4.71050563318e-06 0.00130040968404)
(-3.02532582466e-06 4.08963443902e-06 0.00126595368603)
(-3.1830735016e-06 3.47323798851e-06 0.00122363223991)
(-3.07655450546e-06 2.96431747939e-06 0.00117496740163)
(-2.77528341928e-06 2.63646462956e-06 0.00112176400471)
(4.92404608544e-06 4.99095936709e-06 0.00142060389452)
(5.16599068591e-06 5.75576514845e-06 0.00148570312991)
(5.13181989429e-06 6.71437567286e-06 0.00154498377086)
(4.73578473728e-06 7.7591311583e-06 0.00159635457241)
(3.96239764949e-06 8.75107455614e-06 0.00163804967973)
(2.85115194929e-06 9.56269097902e-06 0.00166874438686)
(1.48991109399e-06 1.00925595385e-05 0.00168753001009)
(-4.70871930354e-09 1.02763775476e-05 0.00169386483154)
(-1.4991572576e-06 1.00913442578e-05 0.00168753141448)
(-2.85995416367e-06 9.56017684878e-06 0.0016687470545)
(-3.9707578928e-06 8.74713161688e-06 0.00163805311478)
(-4.74411900946e-06 7.75374403632e-06 0.00159635747224)
(-5.14034711225e-06 6.70802009075e-06 0.00154498343868)
(-5.1743383881e-06 5.74878841055e-06 0.00148569324231)
(-4.9308621173e-06 4.98410577233e-06 0.00142057019227)
(7.47973836325e-06 7.78089043386e-06 0.0017039289032)
(7.61057381814e-06 9.03332181437e-06 0.0017785740389)
(7.3754125637e-06 1.04755419609e-05 0.00184609246976)
(6.67744609601e-06 1.1967423808e-05 0.00190430073452)