/*--------------------------------*- C++ -*----------------------------------*\
  =========                 |
  \\      /  F ield         | OpenFOAM: The Open Source CFD Toolbox
   \\    /   O peration     | Website:  https://openfoam.org
    \\  /    A nd           | Version:  7
     \\/     M anipulation  |
\*---------------------------------------------------------------------------*/
FoamFile
{
    version     2.0;
    format      ascii;
    class       volScalarField;
    location    "0.18";
    object      p;
}
// * * * * * * * * * * * * * * * * * * * * * * * * * * * * * * * * * * * * * //

dimensions      [0 2 -2 0 0 0 0];

internalField   nonuniform List<scalar> 
22500
(
3.86596990175e-05
3.86531442274e-05
3.86506263009e-05
3.86473691637e-05
3.86448357868e-05
3.86428875167e-05
3.86416926373e-05
3.86413077645e-05
3.8641787584e-05
3.86430745455e-05
3.86451111641e-05
3.86477152957e-05
3.86510253822e-05
3.86535439348e-05
3.86600589898e-05
3.85772124881e-05
3.85664379955e-05
3.85603339671e-05
3.85539347929e-05
3.85488568195e-05
3.85450340217e-05
3.854269503e-05
3.85419289188e-05
3.85427940081e-05
3.85452291348e-05
3.85491432338e-05
3.85542966329e-05
3.85607489094e-05
3.85668547762e-05
3.85775903866e-05
3.84971590696e-05
3.84824388799e-05
3.84732788725e-05
3.84641155586e-05
3.84568333064e-05
3.84513866202e-05
3.84480572913e-05
3.84469574604e-05
3.84481496353e-05
3.84515684318e-05
3.84570992745e-05
3.84644523153e-05
3.84736655601e-05
3.8482831269e-05
3.84975252463e-05
3.84257028154e-05
3.8407723933e-05
3.83962295588e-05
3.83849869521e-05
3.83760579426e-05
3.83694101772e-05
3.83653510061e-05
3.83640043895e-05
3.83654341289e-05
3.83695736976e-05
3.83762963655e-05
3.83852889901e-05
3.8396578844e-05
3.84080827345e-05
3.84260513417e-05
3.8359103996e-05
3.83383303701e-05
3.83249282117e-05
3.83120540863e-05
3.83018353281e-05
3.82942594763e-05
3.82896390617e-05
3.82881030596e-05
3.82897133303e-05
3.82944054697e-05
3.83020480039e-05
3.8312323872e-05
3.83252426616e-05
3.83386573258e-05
3.83594326616e-05
3.82965494703e-05
3.82734390197e-05
3.82584885476e-05
3.82443592587e-05
3.82331479377e-05
3.82248682934e-05
3.82198240733e-05
3.82181449631e-05
3.82198897799e-05
3.82249975617e-05
3.82333362507e-05
3.82445988187e-05
3.82587693022e-05
3.82737361571e-05
3.8296858829e-05
3.8238294727e-05
3.82133218684e-05
3.81971450525e-05
3.8182099659e-05
3.81701596219e-05
3.81613726383e-05
3.81560241759e-05
3.81542421865e-05
3.81560819116e-05
3.81614863088e-05
3.81703254418e-05
3.8182311483e-05
3.81973951128e-05
3.82135902212e-05
3.82385852241e-05
3.8184295003e-05
3.81579009477e-05
3.81407644195e-05
3.81250857122e-05
3.81126353097e-05
3.81035015013e-05
3.8097946371e-05
3.80960943348e-05
3.80979968868e-05
3.81036010275e-05
3.81127809407e-05
3.81252727233e-05
3.81409869799e-05
3.81581434747e-05
3.81845685316e-05
3.81342907545e-05
3.81068745351e-05
3.80889996321e-05
3.80729229085e-05
3.80601442603e-05
3.80507954367e-05
3.80451140053e-05
3.80432190267e-05
3.80451580797e-05
3.80508824333e-05
3.80602720247e-05
3.8073088241e-05
3.8089198161e-05
3.81070947521e-05
3.81345485329e-05
3.80879924594e-05
3.80599208593e-05
3.80415074452e-05
3.80252381196e-05
3.80122915892e-05
3.80028425244e-05
3.79971048606e-05
3.79951906483e-05
3.7997143295e-05
3.80029185761e-05
3.80124038449e-05
3.80253845975e-05
3.80416852557e-05
3.80601217575e-05
3.80882377583e-05
3.80451257906e-05
3.80167412649e-05
3.7997990923e-05
3.79817175118e-05
3.79687520906e-05
3.79593080971e-05
3.79535788959e-05
3.79516673197e-05
3.79536124124e-05
3.79593746071e-05
3.79688508584e-05
3.79818476607e-05
3.79981506892e-05
3.80169253513e-05
3.80453599665e-05
3.80054092676e-05
3.79770645991e-05
3.79582075235e-05
3.79421082763e-05
3.79292639388e-05
3.79199243226e-05
3.79142647563e-05
3.79123769932e-05
3.79142939043e-05
3.79199825658e-05
3.79293510032e-05
3.79422242298e-05
3.79583515102e-05
3.7977233576e-05
3.80056322514e-05
3.79684611316e-05
3.79406516974e-05
3.79219800898e-05
3.79062184526e-05
3.78936237107e-05
3.7884482825e-05
3.78789542936e-05
3.7877110266e-05
3.78789797681e-05
3.78845337836e-05
3.78937005144e-05
3.79063219964e-05
3.79221103315e-05
3.79408077597e-05
3.79686743431e-05
3.79339539189e-05
3.79072827197e-05
3.78890687114e-05
3.7873797566e-05
3.78615965269e-05
3.7852778079e-05
3.78474588745e-05
3.78456884085e-05
3.78474810626e-05
3.78528226087e-05
3.78616647112e-05
3.78738906721e-05
3.78891869214e-05
3.79074272647e-05
3.79341586151e-05
3.79030874625e-05
3.78761580931e-05
3.78587490334e-05
3.78441122036e-05
3.78325510371e-05
3.78242699587e-05
3.78193007759e-05
3.78176487742e-05
3.78193199895e-05
3.78243085811e-05
3.78326104811e-05
3.78441946993e-05
3.78588563796e-05
3.78762905261e-05
3.79032746192e-05
2.82247754622e-05
2.82273711457e-05
2.82293620312e-05
2.82312679607e-05
2.82329451094e-05
2.82342245442e-05
2.82350119119e-05
2.82352330857e-05
2.82348666022e-05
2.82339425851e-05
2.82325460935e-05
2.82307881547e-05
2.82288322392e-05
2.82268427831e-05
2.82242714468e-05
2.82347916558e-05
2.82378922948e-05
2.82403724026e-05
2.82427238938e-05
2.82447743228e-05
2.82463350247e-05
2.82472976736e-05
2.82475779088e-05
2.82471490969e-05
2.82460468967e-05
2.82443668736e-05
2.82422335265e-05
2.82398356439e-05
2.82373570121e-05
2.8234284719e-05
2.82484593111e-05
2.82527346126e-05
2.82562135014e-05
2.82595019109e-05
2.82623500283e-05
2.82645182022e-05
2.82658624326e-05
2.82662739388e-05
2.82657168237e-05
2.82642357445e-05
2.82619502557e-05
2.82590185175e-05
2.8255684365e-05
2.8252203156e-05
2.82479545174e-05
2.82669542195e-05
2.82731809271e-05
2.82782366503e-05
2.82829739196e-05
2.82870473299e-05
2.82901429304e-05
2.82920669107e-05
2.82926773877e-05
2.82919264836e-05
2.82898704669e-05
2.82866610655e-05
2.82825041494e-05
2.8277719704e-05
2.82726581575e-05
2.82664528545e-05
2.8290801133e-05
2.82995623936e-05
2.83065761169e-05
2.83130760055e-05
2.83186198403e-05
2.83228168676e-05
2.83254240697e-05
2.83262681897e-05
2.8325290126e-05
2.83225569683e-05
2.83182506505e-05
2.83126248209e-05
2.83060759735e-05
2.82990527241e-05
2.82903065732e-05
2.83192739143e-05
2.83308792572e-05
2.83399885823e-05
2.83483389998e-05
2.83554021561e-05
2.83607251174e-05
2.83640251643e-05
2.83651057274e-05
2.83638992442e-05
2.83604806424e-05
2.83550541757e-05
2.83479113296e-05
2.83395110685e-05
2.83303860825e-05
2.83187907848e-05
2.83511993266e-05
2.83656977741e-05
2.83768477157e-05
2.83869567938e-05
2.83954397286e-05
2.84018021807e-05
2.84057364313e-05
2.84070330611e-05
2.84056197814e-05
2.84015754582e-05
2.83951162075e-05
2.83865568523e-05
2.83763976561e-05
2.83652266755e-05
2.83507313651e-05
2.83853731846e-05
2.84026038734e-05
2.8415600613e-05
2.84272529479e-05
2.84369586891e-05
2.84442039019e-05
2.84486713257e-05
2.84501494316e-05
2.84485647763e-05
2.8443996551e-05
2.8436661876e-05
2.84268837673e-05
2.84151810839e-05
2.84021586418e-05
2.83849226637e-05
2.84207027057e-05
2.8440350303e-05
2.84549137725e-05
2.8467823602e-05
2.84785027935e-05
2.84864383321e-05
2.84913171855e-05
2.84929352157e-05
2.84912211372e-05
2.84862510928e-05
2.84782337545e-05
2.84674867024e-05
2.84545269914e-05
2.84399335099e-05
2.84202734862e-05
2.84562629023e-05
2.84779080849e-05
2.8493714153e-05
2.85075664638e-05
2.85189523406e-05
2.85273759399e-05
2.85325396855e-05
2.85342545044e-05
2.85324541622e-05
2.85272088564e-05
2.85187112093e-05
2.8507262268e-05
2.84933609562e-05
2.8477521316e-05
2.84558561871e-05
2.84913041231e-05
2.85144680454e-05
2.85311784663e-05
2.85456605611e-05
2.85574928994e-05
2.85662089978e-05
2.85715359836e-05
2.85733061379e-05
2.85714606817e-05
2.85660614841e-05
2.85572789706e-05
2.85453885781e-05
2.85308590583e-05
2.85141125999e-05
2.84909225431e-05
2.8525227742e-05
2.85494084118e-05
2.85666961961e-05
2.85815232327e-05
2.85935648999e-05
2.86023945912e-05
2.86077734586e-05
2.86095608483e-05
2.86077078471e-05
2.86022656037e-05
2.85933768183e-05
2.85812822107e-05
2.85664099223e-05
2.85490851823e-05
2.85248738225e-05
2.85575443662e-05
2.85822760392e-05
2.85998590549e-05
2.8614787647e-05
2.86268269448e-05
2.86356072732e-05
2.86409351776e-05
2.86427051589e-05
2.8640878449e-05
2.86354953407e-05
2.86266629769e-05
2.86145757346e-05
2.85996046563e-05
2.85819845213e-05
2.85572191228e-05
2.85881481413e-05
2.8613089505e-05
2.8630630598e-05
2.86453902997e-05
2.8657176817e-05
2.86657127282e-05
2.86708706917e-05
2.86725813514e-05
2.86708220304e-05
2.86656165138e-05
2.86570346912e-05
2.86452054096e-05
2.86304063969e-05
2.86128296566e-05
2.85878518177e-05
2.861858255e-05
2.86419857277e-05
2.86590118475e-05
2.86732733651e-05
2.86844780801e-05
2.86925243536e-05
2.86973627701e-05
2.86989658022e-05
2.86973214803e-05
2.86924423681e-05
2.86843564672e-05
2.86731136775e-05
2.86588162944e-05
2.86417575261e-05
2.86183176658e-05
2.93730407089e-05
2.93723029528e-05
2.93710560273e-05
2.93696903552e-05
2.93683916407e-05
2.93673606384e-05
2.93667100543e-05
2.93665042547e-05
2.93667642438e-05
2.93674628464e-05
2.93685297365e-05
2.93698517005e-05
2.93712400366e-05
2.93724969899e-05
2.93732474288e-05
2.93741850911e-05
2.93735129749e-05
2.93723328739e-05
2.9371022703e-05
2.93697642819e-05
2.93687580594e-05
2.93681200378e-05
2.9367917877e-05
2.93681741366e-05
2.93688600407e-05
2.9369901988e-05
2.93711834291e-05
2.93725142117e-05
2.93737062882e-05
2.9374389945e-05
2.93757539986e-05
2.93751756977e-05
2.93740771103e-05
2.93728433309e-05
2.93716438016e-05
2.93706779836e-05
2.93700624666e-05
2.93698672653e-05
2.93701161171e-05
2.93707795582e-05
2.9371781992e-05
2.937300579e-05
2.93742589627e-05
2.93753695817e-05
2.9375957787e-05
2.93768642818e-05
2.93763683658e-05
2.93753304051e-05
2.9374165908e-05
2.93730248087e-05
2.9372102805e-05
2.93715134185e-05
2.93713265198e-05
2.9371566176e-05
2.93722032203e-05
2.93731627473e-05
2.93743294771e-05
2.93755126566e-05
2.93765615365e-05
2.93770670996e-05
2.93777043289e-05
2.9377327879e-05
2.93763769941e-05
2.93753179132e-05
2.93742710545e-05
2.93734230294e-05
2.93728801406e-05
2.93727086186e-05
2.93729315339e-05
2.93735212237e-05
2.93744069059e-05
2.9375480303e-05
2.93765581258e-05
2.93775192061e-05
2.93779054098e-05
2.93785991838e-05
2.93784146273e-05
2.93776078564e-05
2.93767138189e-05
2.93758158703e-05
2.93750851229e-05
2.9374616555e-05
2.93744698466e-05
2.93746660271e-05
2.93751799994e-05
2.93759481062e-05
2.93768731634e-05
2.93777860619e-05
2.9378603481e-05
2.93787969454e-05
2.93797542624e-05
2.93798436123e-05
2.93792410382e-05
2.93785699324e-05
2.93778719607e-05
2.93772974532e-05
2.93769278055e-05
2.93768141937e-05
2.93769749133e-05
2.93773880894e-05
2.93779991135e-05
2.93787244249e-05
2.9379414654e-05
2.9380028789e-05
2.93799483001e-05
2.93812808349e-05
2.93817135492e-05
2.93813637021e-05
2.93809574832e-05
2.9380495534e-05
2.93801038599e-05
2.93798494888e-05
2.93797744088e-05
2.93798938741e-05
2.93801895534e-05
2.93806165578e-05
2.93811058506e-05
2.93815315988e-05
2.93818939197e-05
2.93814708745e-05
2.93832213091e-05
2.93840401895e-05
2.93839734406e-05
2.93838525638e-05
2.93836434156e-05
2.93834461027e-05
2.93833137526e-05
2.93832793843e-05
2.93833551933e-05
2.93835263839e-05
2.93837575215e-05
2.93839937032e-05
2.93841346347e-05
2.93842148974e-05
2.93834066772e-05
2.9385562381e-05
2.93867772097e-05
2.93870034115e-05
2.93871668964e-05
2.93872090961e-05
2.93872038624e-05
2.9387191615e-05
2.93871972033e-05
2.93872300088e-05
2.9387278498e-05
2.93873158715e-05
2.93873002159e-05
2.93871572036e-05
2.93869456969e-05
2.93857425642e-05
2.93882502616e-05
2.93898363897e-05
2.93903459136e-05
2.93907757894e-05
2.93910533461e-05
2.93912272381e-05
2.93913266002e-05
2.9391369207e-05
2.93913619399e-05
2.93912961633e-05
2.93911525872e-05
2.93909008477e-05
2.93904916837e-05
2.93899979222e-05
2.93884246925e-05
2.93911971416e-05
2.93930999284e-05
2.93938693408e-05
2.93945381546e-05
2.93950264814e-05
2.93953602956e-05
2.93955589649e-05
2.93956343871e-05
2.93955913105e-05
2.93954236005e-05
2.93951182001e-05
2.93946547776e-05
2.93940066965e-05
2.93932537735e-05
2.93913650714e-05
2.93942834692e-05
2.93964383718e-05
2.93974416468e-05
2.93983182306e-05
2.93989879977e-05
2.93994590809e-05
2.93997427477e-05
2.93998461735e-05
2.93997722081e-05
2.93995169533e-05
2.93990723144e-05
2.93984263753e-05
2.93975702848e-05
2.93965839944e-05
2.93944442646e-05
2.93974789169e-05
2.93998324896e-05
2.94010032427e-05
2.94020342463e-05
2.9402836528e-05
2.94034085626e-05
2.9403755067e-05
2.94038789436e-05
2.94037817838e-05
2.94034610915e-05
2.94029135162e-05
2.94021337569e-05
2.94011228343e-05
2.93999694209e-05
2.93976313483e-05
2.94013168622e-05
2.9403208163e-05
2.94044290815e-05
2.94055380932e-05
2.94064044594e-05
2.94070279679e-05
2.94074069758e-05
2.94075412298e-05
2.94074309751e-05
2.94070754062e-05
2.94064742413e-05
2.9405629028e-05
2.94045395564e-05
2.94033366768e-05
2.94014611157e-05
2.57090471989e-05
2.57095174529e-05
2.57101451997e-05
2.57107963409e-05
2.57113960456e-05
2.57118721236e-05
2.57121762975e-05
2.57122771362e-05
2.57121635803e-05
2.57118480942e-05
2.57113637093e-05
2.57107621002e-05
2.57101127706e-05
2.57094971252e-05
2.57090335635e-05
2.57094975084e-05
2.57099831719e-05
2.57106290937e-05
2.57113016278e-05
2.57119213685e-05
2.57124143897e-05
2.57127296033e-05
2.57128339992e-05
2.5712715706e-05
2.57123880642e-05
2.57118859024e-05
2.57112635464e-05
2.57105938176e-05
2.57099594905e-05
2.57094831491e-05
2.57097277761e-05
2.57102111438e-05
2.57108571831e-05
2.57115334666e-05
2.57121593698e-05
2.5712659643e-05
2.57129803447e-05
2.57130870084e-05
2.57129670404e-05
2.57126345059e-05
2.57121256687e-05
2.57114969722e-05
2.57108237198e-05
2.57101871604e-05
2.57097134738e-05
2.57099536171e-05
2.57104356336e-05
2.57110840991e-05
2.57117604697e-05
2.57123889729e-05
2.57128932848e-05
2.57132174544e-05
2.57133258192e-05
2.57132052278e-05
2.57128702668e-05
2.57123582681e-05
2.57117271175e-05
2.57110533905e-05
2.57104129944e-05
2.57099394591e-05
2.57102158371e-05
2.57106995351e-05
2.57113548472e-05
2.57120314345e-05
2.57126620721e-05
2.5713169508e-05
2.5713496542e-05
2.57136063569e-05
2.57134853712e-05
2.57131485296e-05
2.57126340908e-05
2.57120010237e-05
2.57113265013e-05
2.57106784396e-05
2.57102020011e-05
2.57105060062e-05
2.5710998112e-05
2.57116657666e-05
2.57123471774e-05
2.57129832022e-05
2.57134962645e-05
2.57138276275e-05
2.5713939453e-05
2.57138176435e-05
2.57134775233e-05
2.57129582566e-05
2.57123199426e-05
2.57116403163e-05
2.57109782349e-05
2.57104932954e-05
2.57108381986e-05
2.57113496249e-05
2.57120398937e-05
2.57127346786e-05
2.57133829238e-05
2.5713906508e-05
2.5714245152e-05
2.57143599747e-05
2.57142364005e-05
2.57138900675e-05
2.57133610329e-05
2.57127106273e-05
2.57120173666e-05
2.57113312743e-05
2.57108263984e-05
2.57112371694e-05
2.57117833754e-05
2.57125078684e-05
2.57132255604e-05
2.5713893504e-05
2.57144326483e-05
2.57147814957e-05
2.57149002372e-05
2.57147740138e-05
2.57144185965e-05
2.57138747374e-05
2.57132048035e-05
2.57124881123e-05
2.57117667582e-05
2.57112258177e-05
2.5711722528e-05
2.57123208913e-05
2.57130885444e-05
2.5713836461e-05
2.57145287495e-05
2.57150859974e-05
2.57154461541e-05
2.57155690862e-05
2.57154398906e-05
2.57150742184e-05
2.57145129528e-05
2.57138188202e-05
2.57130714277e-05
2.57123059265e-05
2.57117118452e-05
2.57123042608e-05
2.5712969056e-05
2.57137836693e-05
2.57145639586e-05
2.57152803764e-05
2.57158542834e-05
2.57162242461e-05
2.571635072e-05
2.57162191127e-05
2.57158446092e-05
2.57152673364e-05
2.57145492015e-05
2.57137689916e-05
2.57129555704e-05
2.57122941128e-05
2.57129799202e-05
2.57137196851e-05
2.57145791949e-05
2.57153882589e-05
2.57161234313e-05
2.57167083932e-05
2.57170839874e-05
2.57172124115e-05
2.57170798362e-05
2.57167005636e-05
2.57161128123e-05
2.57153761072e-05
2.57145668037e-05
2.57137077916e-05
2.57129705653e-05
2.57137326451e-05
2.57145503778e-05
2.57154486379e-05
2.57162789671e-05
2.57170238179e-05
2.57176113545e-05
2.57179865514e-05
2.57181146762e-05
2.57179832238e-05
2.57176050501e-05
2.57170152543e-05
2.57162690591e-05
2.57154383589e-05
2.57145402064e-05
2.57137244957e-05
2.57145297651e-05
2.57154290078e-05
2.57163611122e-05
2.57172039025e-05
2.57179480812e-05
2.57185285689e-05
2.57188965513e-05
2.57190219609e-05
2.57188938516e-05
2.57185235005e-05
2.57179411573e-05
2.57171959097e-05
2.57163527327e-05
2.57154205748e-05
2.57145228857e-05
2.57154002761e-05
2.57163938566e-05
2.57173302262e-05
2.57181612857e-05
2.57188824937e-05
2.57194378405e-05
2.57197869269e-05
2.571990533e-05
2.57197847196e-05
2.57194336411e-05
2.57188767933e-05
2.57181547363e-05
2.57173235297e-05
2.57163873038e-05
2.57153948324e-05
2.57168732401e-05
2.5717638727e-05
2.57184560931e-05
2.57191831151e-05
2.57198090628e-05
2.57202861854e-05
2.57205837578e-05
2.57206843832e-05
2.57205818563e-05
2.57202826568e-05
2.57198042833e-05
2.57191777722e-05
2.57184509302e-05
2.57176345424e-05
2.57168697388e-05
2.4268266102e-05
2.42680631283e-05
2.42677748324e-05
2.42674386725e-05
2.42671185095e-05
2.42668584701e-05
2.42666936862e-05
2.42666411231e-05
2.42667059704e-05
2.42668806424e-05
2.42671459954e-05
2.4267469423e-05
2.42678100256e-05
2.42681000139e-05
2.42683147763e-05
2.4268591083e-05
2.42684044415e-05
2.42681330818e-05
2.42678086794e-05
2.4267496524e-05
2.4267241367e-05
2.42670787786e-05
2.42670266902e-05
2.42670907293e-05
2.42672628685e-05
2.42675230925e-05
2.42678378548e-05
2.42681660756e-05
2.42684402987e-05
2.42686381573e-05
2.42690004654e-05
2.42688285175e-05
2.42685759984e-05
2.42682641082e-05
2.42679618681e-05
2.42677129657e-05
2.42675534111e-05
2.42675021043e-05
2.42675652084e-05
2.42677344256e-05
2.42679889724e-05
2.42682942509e-05
2.4268609443e-05
2.42688651713e-05
2.42690467643e-05
2.42692983639e-05
2.42691284818e-05
2.42688840443e-05
2.4268575635e-05
2.42682761304e-05
2.42680285297e-05
2.42678690681e-05
2.4267817559e-05
2.42678806609e-05
2.42680498934e-05
2.42683038065e-05
2.42686068137e-05
2.42689182354e-05
2.42691654718e-05
2.42693441139e-05
2.42694917166e-05
2.42693164612e-05
2.42690744006e-05
2.42687651262e-05
2.42684651578e-05
2.42682167794e-05
2.4268056377e-05
2.42680043611e-05
2.42680676816e-05
2.42682377957e-05
2.42684928438e-05
2.42687966803e-05
2.42691089437e-05
2.4269353283e-05
2.42695369078e-05
2.42696174556e-05
2.4269434622e-05
2.42691958231e-05
2.42688867865e-05
2.42685881696e-05
2.4268341031e-05
2.42681811992e-05
2.42681292005e-05
2.4268192071e-05
2.42683613928e-05
2.42686154062e-05
2.42689181658e-05
2.42692302138e-05
2.42694714239e-05
2.42696614148e-05
2.42697027556e-05
2.42695169265e-05
2.42692866211e-05
2.42689837861e-05
2.42686927033e-05
2.42684521774e-05
2.42682966213e-05
2.42682459405e-05
2.42683069723e-05
2.4268471687e-05
2.42687191159e-05
2.42690145882e-05
2.42693204589e-05
2.42695534522e-05
2.42697456647e-05
2.42697736784e-05
2.42695944163e-05
2.42693815484e-05
2.42690950308e-05
2.42688210617e-05
2.42685951782e-05
2.42684492155e-05
2.42684016977e-05
2.42684589592e-05
2.4268613659e-05
2.42688463928e-05
2.42691250055e-05
2.42694147666e-05
2.42696304813e-05
2.42698158033e-05
2.42698565582e-05
2.42696965753e-05
2.4269512547e-05
2.4269254668e-05
2.42690090844e-05
2.42688071024e-05
2.42686768061e-05
2.42686345555e-05
2.42686859202e-05
2.42688244941e-05
2.4269033198e-05
2.42692836127e-05
2.42695450393e-05
2.42697320735e-05
2.42698978048e-05
2.42699740695e-05
2.42698472731e-05
2.42697037222e-05
2.42694868138e-05
2.42692807993e-05
2.42691117145e-05
2.42690028979e-05
2.42689679272e-05
2.42690113862e-05
2.42691280141e-05
2.42693036718e-05
2.4269514719e-05
2.42697354966e-05
2.42698823175e-05
2.42700143541e-05
2.4270142088e-05
2.42700612665e-05
2.42699676507e-05
2.42698020934e-05
2.42696449695e-05
2.42695162077e-05
2.426943364e-05
2.42694075952e-05
2.4269441544e-05
2.42695314857e-05
2.42696666461e-05
2.42698289539e-05
2.42699986555e-05
2.42700957989e-05
2.42701813882e-05
2.42703651056e-05
2.42703396036e-05
2.42703021192e-05
2.42701956585e-05
2.42700943942e-05
2.4270011454e-05
2.42699585926e-05
2.42699426661e-05
2.42699659772e-05
2.42700258039e-05
2.42701150013e-05
2.42702215455e-05
2.42703323993e-05
2.42703735184e-05
2.42704033392e-05
2.42706351233e-05
2.4270670189e-05
2.42706925103e-05
2.42706500882e-05
2.42706095531e-05
2.42705760738e-05
2.42705551193e-05
2.42705500868e-05
2.42705620299e-05
2.42705896265e-05
2.42706291671e-05
2.42706750973e-05
2.4270722068e-05
2.42707034681e-05
2.42706722075e-05
2.4270972782e-05
2.42710721956e-05
2.42711398711e-05
2.42711553557e-05
2.42711715354e-05
2.42711843324e-05
2.42711931168e-05
2.42711981314e-05
2.42711996143e-05
2.42711971035e-05
2.42711902261e-05
2.4271179403e-05
2.42711687384e-05
2.42711048945e-05
2.42710082595e-05
2.42716221056e-05
2.42716175257e-05
2.4271668235e-05
2.42717008047e-05
2.42717425022e-05
2.42717775736e-05
2.42718009453e-05
2.427181096e-05
2.42718070725e-05
2.42717897318e-05
2.42717604162e-05
2.42717242109e-05
2.42716967176e-05
2.42716507022e-05
2.42716574517e-05
2.19760364479e-05
2.19761232773e-05
2.19762386874e-05
2.19763519434e-05
2.19764564228e-05
2.19765388383e-05
2.19765910206e-05
2.19766079452e-05
2.19765882777e-05
2.19765340011e-05
2.19764505947e-05
2.19763460091e-05
2.19762328238e-05
2.19761217292e-05
2.19760364296e-05
2.19762470029e-05
2.19763447402e-05
2.19764706331e-05
2.1976594837e-05
2.19767089624e-05
2.19767989077e-05
2.19768558371e-05
2.197687427e-05
2.1976852641e-05
2.19767931757e-05
2.19767018821e-05
2.19765874799e-05
2.19764636378e-05
2.19763416628e-05
2.19762469054e-05
2.19764237215e-05
2.19765286211e-05
2.19766616009e-05
2.19767938415e-05
2.19769155112e-05
2.19770117244e-05
2.19770728711e-05
2.19770929267e-05
2.19770700608e-05
2.19770067191e-05
2.19769094167e-05
2.19767875437e-05
2.1976655931e-05
2.19765256981e-05
2.19764240864e-05
2.19765859217e-05
2.19766969359e-05
2.19768372991e-05
2.19769761475e-05
2.19771042694e-05
2.19772057549e-05
2.1977270519e-05
2.19772920527e-05
2.19772682764e-05
2.19772018118e-05
2.19770995933e-05
2.1976971523e-05
2.1976833396e-05
2.19766951945e-05
2.19765867631e-05
2.19767481229e-05
2.19768658638e-05
2.19770142877e-05
2.19771590384e-05
2.19772928971e-05
2.19773989844e-05
2.19774669089e-05
2.19774897253e-05
2.19774651827e-05
2.19773960106e-05
2.19772894907e-05
2.19771559088e-05
2.19770118237e-05
2.19768653315e-05
2.19767495957e-05
2.19769113967e-05
2.19770371234e-05
2.19771934145e-05
2.19773438291e-05
2.19774828568e-05
2.19775930629e-05
2.19776637814e-05
2.19776877549e-05
2.1977662551e-05
2.19775910027e-05
2.19774806633e-05
2.19773421312e-05
2.19771925497e-05
2.19770375336e-05
2.19769140161e-05
2.1977076937e-05
2.19772112057e-05
2.19773758606e-05
2.19775316862e-05
2.19776755103e-05
2.19777895623e-05
2.1977862881e-05
2.19778879351e-05
2.1977862116e-05
2.19777883585e-05
2.19776744407e-05
2.19775312609e-05
2.19773763989e-05
2.19772125537e-05
2.19770804908e-05
2.19772469028e-05
2.19773906422e-05
2.19775644749e-05
2.19777258075e-05
2.19778745059e-05
2.19779924653e-05
2.19780684178e-05
2.19780945338e-05
2.19780680626e-05
2.197799202e-05
2.19778744211e-05
2.19777265019e-05
2.19775661642e-05
2.19773929222e-05
2.19772510362e-05
2.19774236335e-05
2.19775788721e-05
2.19777626993e-05
2.19779300147e-05
2.19780839336e-05
2.1978206119e-05
2.19782848864e-05
2.19783121003e-05
2.19782848726e-05
2.19782063006e-05
2.19780846519e-05
2.19779315834e-05
2.1977765236e-05
2.19775818395e-05
2.19774283425e-05
2.19776101878e-05
2.19777790096e-05
2.19779735037e-05
2.19781473689e-05
2.19783069271e-05
2.19784336949e-05
2.19785154556e-05
2.1978543799e-05
2.19785156993e-05
2.19784343416e-05
2.19783082444e-05
2.19781495684e-05
2.19779766248e-05
2.19777824043e-05
2.19776152548e-05
2.1977808643e-05
2.19779929828e-05
2.19781984355e-05
2.1978379134e-05
2.19785445255e-05
2.19786759717e-05
2.19787607292e-05
2.19787901566e-05
2.19787611338e-05
2.19786769172e-05
2.19785462086e-05
2.19783817254e-05
2.19782019058e-05
2.19779966906e-05
2.19778140238e-05
2.19780181944e-05
2.19782195061e-05
2.19784357247e-05
2.19786234529e-05
2.19787946989e-05
2.19789307641e-05
2.19790183419e-05
2.19790487363e-05
2.19790188221e-05
2.19789318199e-05
2.1978796551e-05
2.19786261948e-05
2.19784393609e-05
2.19782234456e-05
2.19780239206e-05
2.1978234342e-05
2.19784533494e-05
2.19786804722e-05
2.19788756742e-05
2.19790532795e-05
2.1979193932e-05
2.1979284176e-05
2.19793154025e-05
2.19792846132e-05
2.19791949725e-05
2.19790550268e-05
2.19788783832e-05
2.19786840762e-05
2.19784574136e-05
2.19782402193e-05
2.19784783227e-05
2.19787187873e-05
2.19789463016e-05
2.1979143205e-05
2.19793223021e-05
2.19794634782e-05
2.19795533989e-05
2.19795843626e-05
2.19795537332e-05
2.19794642438e-05
2.19793237657e-05
2.19791455229e-05
2.19789497257e-05
2.19787229454e-05
2.19784842743e-05
2.19789748505e-05
2.19791246397e-05
2.1979297838e-05
2.19794568877e-05
2.19796056222e-05
2.19797224194e-05
2.19797963718e-05
2.19798217125e-05
2.19797965206e-05
2.19797229014e-05
2.19796066515e-05
2.19794588542e-05
2.19793010619e-05
2.19791293377e-05
2.19789810012e-05
2.00989677622e-05
2.00989358103e-05
2.00988766346e-05
2.00988030056e-05
2.00987336481e-05
2.00986778279e-05
2.00986422315e-05
2.00986307685e-05
2.00986446284e-05
2.00986820209e-05
2.00987385113e-05
2.00988065086e-05
2.00988768252e-05
2.00989330724e-05
2.00989714486e-05
2.00991239173e-05
2.00990990201e-05
2.00990481334e-05
2.00989812682e-05
2.00989172592e-05
2.00988651851e-05
2.00988318084e-05
2.00988210466e-05
2.0098834116e-05
2.00988691738e-05
2.00989216979e-05
2.00989840794e-05
2.00990474023e-05
2.00990956751e-05
2.00991265558e-05
2.00992867891e-05
2.00992669042e-05
2.00992239735e-05
2.00991633207e-05
2.0099104288e-05
2.00990555227e-05
2.00990240409e-05
2.00990138867e-05
2.00990263204e-05
2.00990594544e-05
2.009910868e-05
2.00991663019e-05
2.00992237567e-05
2.00992647117e-05
2.009928954e-05
2.00994110093e-05
2.00993927491e-05
2.00993540091e-05
2.00992965142e-05
2.00992397847e-05
2.00991923667e-05
2.00991616017e-05
2.00991516457e-05
2.00991638132e-05
2.00991961735e-05
2.00992440238e-05
2.00992995391e-05
2.00993543831e-05
2.00993913222e-05
2.00994141052e-05
2.00995044358e-05
2.00994857964e-05
2.00994493017e-05
2.00993931934e-05
2.00993374036e-05
2.00992904665e-05
2.00992598983e-05
2.00992499524e-05
2.00992619835e-05
2.00992940544e-05
2.00993413987e-05
2.0099396121e-05
2.00994500606e-05
2.00994848001e-05
2.00995078001e-05
2.00995778072e-05
2.00995576193e-05
2.00995232491e-05
2.00994681313e-05
2.00994131375e-05
2.00993667178e-05
2.00993364087e-05
2.00993264826e-05
2.00993383053e-05
2.00993699698e-05
2.00994167423e-05
2.00994707844e-05
2.00995241601e-05
2.00995571486e-05
2.00995810446e-05
2.00996374037e-05
2.00996164606e-05
2.00995848178e-05
2.00995312702e-05
2.00994779199e-05
2.00994328346e-05
2.00994033604e-05
2.00993936509e-05
2.00994050406e-05
2.00994357138e-05
2.00994811143e-05
2.00995336648e-05
2.00995857755e-05
2.00996164548e-05
2.00996406939e-05
2.00996892026e-05
2.00996694339e-05
2.00996417769e-05
2.00995914346e-05
2.00995413656e-05
2.00994990501e-05
2.00994713824e-05
2.00994622305e-05
2.00994728311e-05
2.00995015349e-05
2.00995441413e-05
2.00995936089e-05
2.00996428829e-05
2.00996698551e-05
2.00996928128e-05
2.00997393687e-05
2.00997231518e-05
2.00997014143e-05
2.00996564868e-05
2.00996118673e-05
2.00995742403e-05
2.00995496706e-05
2.00995415436e-05
2.0099550913e-05
2.00995763853e-05
2.00996143207e-05
2.00996585384e-05
2.00997027692e-05
2.00997240428e-05
2.00997433005e-05
2.00997930976e-05
2.00997830963e-05
2.00997695336e-05
2.00997325043e-05
2.00996958507e-05
2.00996650454e-05
2.00996450228e-05
2.00996384312e-05
2.00996460951e-05
2.00996669278e-05
2.00996980845e-05
2.00997345898e-05
2.0099771272e-05
2.00997846247e-05
2.00997973674e-05
2.00998542466e-05
2.0099853077e-05
2.00998496931e-05
2.00998229916e-05
2.00997967707e-05
2.00997749577e-05
2.00997609153e-05
2.00997563967e-05
2.00997618811e-05
2.0099776687e-05
2.00997989458e-05
2.00998252514e-05
2.00998519118e-05
2.00998552998e-05
2.0099858876e-05
2.00999235729e-05
2.00999332801e-05
2.00999416989e-05
2.00999277337e-05
2.00999145004e-05
2.00999037895e-05
2.00998971747e-05
2.00998952081e-05
2.00998980929e-05
2.00999054963e-05
2.00999167485e-05
2.00999303277e-05
2.00999445199e-05
2.00999362078e-05
2.00999285633e-05
2.00999981907e-05
2.01000197298e-05
2.01000416691e-05
2.01000430494e-05
2.0100045556e-05
2.01000483045e-05
2.01000504506e-05
2.01000516132e-05
2.01000513835e-05
2.01000500513e-05
2.01000480226e-05
2.01000460572e-05
2.01000451527e-05
2.01000233989e-05
2.01000034886e-05
2.01000897585e-05
2.01001253873e-05
2.01001557339e-05
2.01001710315e-05
2.01001889432e-05
2.01002045485e-05
2.01002151807e-05
2.01002191716e-05
2.01002161433e-05
2.01002064382e-05
2.01001916302e-05
2.010017451e-05
2.0100159927e-05
2.01001299114e-05
2.0100095088e-05
2.01003324485e-05
2.01003124376e-05
2.01003193288e-05
2.0100326393e-05
2.01003418683e-05
2.01003565255e-05
2.01003665907e-05
2.0100370522e-05
2.01003676856e-05
2.01003586801e-05
2.01003450639e-05
2.01003306315e-05
2.0100324636e-05
2.0100318639e-05
2.0100338753e-05
1.81381735721e-05
1.81381794636e-05
1.81381851205e-05
1.8138183761e-05
1.81381812126e-05
1.81381781542e-05
1.81381758348e-05
1.81381745128e-05
1.81381743068e-05
1.81381750583e-05
1.81381764778e-05
1.81381777457e-05
1.81381784009e-05
1.81381747368e-05
1.81381709178e-05
1.81382732451e-05
1.81382854919e-05
1.81382968229e-05
1.81383010883e-05
1.81383032661e-05
1.8138303771e-05
1.81383036488e-05
1.81383030194e-05
1.81383019612e-05
1.8138300348e-05
1.81382980247e-05
1.81382943927e-05
1.81382894152e-05
1.81382797744e-05
1.81382705491e-05
1.81383759329e-05
1.81383931934e-05
1.81384097783e-05
1.81384195052e-05
1.81384264491e-05
1.81384306633e-05
1.8138432855e-05
1.81384330612e-05
1.813843131e-05
1.81384275457e-05
1.81384217504e-05
1.81384135334e-05
1.81384033559e-05
1.81383878619e-05
1.81383736983e-05
1.81384641462e-05
1.81384843112e-05
1.8138505123e-05
1.81385186342e-05
1.81385291046e-05
1.81385361016e-05
1.8138540069e-05
1.81385409518e-05
1.81385387407e-05
1.8138533442e-05
1.81385251544e-05
1.81385136463e-05
1.81384997863e-05
1.81384797693e-05
1.81384621904e-05
1.81385419636e-05
1.81385642958e-05
1.81385887403e-05