/*--------------------------------*- C++ -*----------------------------------*\
  =========                 |
  \\      /  F ield         | OpenFOAM: The Open Source CFD Toolbox
   \\    /   O peration     | Website:  https://openfoam.org
    \\  /    A nd           | Version:  7
     \\/     M anipulation  |
\*---------------------------------------------------------------------------*/
FoamFile
{
    version     2.0;
    format      ascii;
    class       volVectorField;
    location    "0.18";
    object      U;
}
// * * * * * * * * * * * * * * * * * * * * * * * * * * * * * * * * * * * * * //

dimensions      [0 1 -1 0 0 0 0];

internalField   nonuniform List<vector> 
22500
(
(2.98836870054e-05 3.31955306707e-05 0.000646532098102)
(2.79993014152e-05 3.71990275908e-05 0.00067878960142)
(2.45619820561e-05 4.13628781802e-05 0.000708324061995)
(2.07078612593e-05 4.4921667819e-05 0.000733774034228)
(1.61255671848e-05 4.78892994804e-05 0.000754353944751)
(1.10477631304e-05 5.01060561271e-05 0.000769466164308)
(5.60276118682e-06 5.14766661479e-05 0.000778704474243)
(-3.2925467313e-08 5.19402355878e-05 0.000781825037097)
(-5.66713677e-06 5.14749055076e-05 0.000778699597115)
(-1.11078233676e-05 5.01033483366e-05 0.000769456625163)
(-1.61774315406e-05 4.78876704644e-05 0.000754340329143)
(-2.07475109176e-05 4.49230741103e-05 0.000733758200134)
(-2.45849627835e-05 4.13713516618e-05 0.000708308337376)
(-2.80037344753e-05 3.72153321566e-05 0.000678775540503)
(-2.98734639414e-05 3.32163294583e-05 0.000646506357041)
(8.56730513572e-05 9.55727648243e-05 0.00158191224576)
(8.00043577392e-05 0.000106833776485 0.00164505694225)
(7.03335416171e-05 0.00011834036801 0.00170207678658)
(5.91624413517e-05 0.000128247755958 0.00175057200322)
(4.60481703604e-05 0.000136494938281 0.00178933275965)
(3.1527795849e-05 0.00014265057642 0.00181753824375)
(1.59905504584e-05 0.000146456781951 0.00183467312735)
(-7.38310709991e-08 0.000147744758863 0.00184043507995)
(-1.61351578039e-05 0.000146456163035 0.00183465574868)
(-3.16632532026e-05 0.000142650975187 0.00181750456944)
(-4.61667766177e-05 0.000136500193759 0.00178928523006)
(-5.92554364182e-05 0.000128261369721 0.00175051661187)
(-7.03915922497e-05 0.000118368951179 0.00170202142035)
(-8.00235111123e-05 0.000106877048356 0.00164500663857)
(-8.56582484939e-05 9.56240128074e-05 0.00158184057171)
(0.00012477450818 0.000139233153253 0.00226231909066)
(0.000115856737652 0.000154520991285 0.002337407742)
(0.00010151649464 0.000170044417363 0.00240435628653)
(8.5045817997e-05 0.000183339043952 0.00246066098413)
(6.59988595615e-05 0.000194352078647 0.00250520560632)
(4.508459346e-05 0.00020254198255 0.0025373609491)
(2.28338546589e-05 0.000207595268602 0.00255678590285)
(-1.06775044045e-07 0.000209304999274 0.00256329300587)
(-2.30433323697e-05 0.000207600102341 0.00255676020533)
(-4.52817130032e-05 0.000202553634351 0.00253731135081)
(-6.61735719641e-05 0.000194374816175 0.00250513599855)
(-8.51864426239e-05 0.000183376610185 0.00246057996829)
(-0.00010161024102 0.000170102126074 0.00240427597221)
(-0.000115897987131 0.00015459599278 0.00233733619941)
(-0.000124766113622 0.000139315587525 0.00226222147078)
(0.000151591677068 0.000169129188975 0.00276050171069)
(0.000139960773446 0.000186196647638 0.00283662238939)
(0.000122142448338 0.000203522082126 0.00290355781227)
(0.000101896482328 0.000218213198874 0.0029591921782)
(7.88227147361e-05 0.000230319020158 0.00300273567154)
(5.37142654974e-05 0.000239280533766 0.00303390124403)
(2.71638743596e-05 0.000244795033044 0.00305261560552)
(-1.27297341998e-07 0.000246659465768 0.00305886086905)
(-2.74138152958e-05 0.000244804926742 0.00305258650042)
(-5.39500005042e-05 0.000239302284395 0.00303384535717)
(-7.90330729134e-05 0.000230356520765 0.00300265778804)
(-0.000102068740367 0.000218269774667 0.00295910211688)
(-0.000122262377688 0.000203601116234 0.00290347014101)
(-0.000140022207277 0.000186293261314 0.00283654783942)
(-0.000151594828524 0.000169232909578 0.00276040440062)
(0.000169444516049 0.000189052760621 0.00312493008215)
(0.000155604320605 0.000206422984502 0.00319586535631)
(0.000135232618235 0.000224140479398 0.00325729000235)
(0.000112365144719 0.000238991776172 0.00330768159264)
(8.66530595029e-05 0.000251163780297 0.00334665720455)
(5.89132228734e-05 0.000260132882005 0.00337428928721)
(2.9750583162e-05 0.000265636891096 0.00339077121415)
(-1.39493716181e-07 0.000267496257702 0.00339624974703)
(-3.00246054832e-05 0.000265650842105 0.0033907431359)
(-5.91720837158e-05 0.000260162499389 0.00337423574141)
(-8.68851887867e-05 0.000251212223032 0.00334658328705)
(-0.000112557749908 0.000239061586382 0.00330759729443)
(-0.000135371544743 0.000224233619803 0.00325721084661)
(-0.000155683280293 0.000206532914392 0.00319580390715)
(-0.000169461487466 0.00018917030239 0.00312485286683)
(0.000180183099158 0.000201040417303 0.00338973656115)
(0.000164602490165 0.000217659377299 0.00345222260019)
(0.000142454418096 0.000234784108547 0.00350542539276)
(0.000117909453174 0.000248963750678 0.0035484381932)
(9.06607246372e-05 0.00026052233602 0.00358126798776)
(6.15019637304e-05 0.000269001996834 0.0036042933635)
(3.10160126745e-05 0.000274192030235 0.00361792374636)
(-1.45524382271e-07 0.000275944139865 0.00362243527688)
(-3.1302027678e-05 0.000274209047984 0.00361789969999)
(-6.17726144306e-05 0.000269037388357 0.00360424795713)
(-9.09046027601e-05 0.000260578411412 0.00358120622456)
(-0.00011811427076 0.000249042121312 0.00354836968642)
(-0.000142607046118 0.000234885514499 0.00350536577876)
(-0.000164696901781 0.000217776361814 0.00345218526552)
(-0.000180214633135 0.000201165692297 0.00338968976021)
(0.000185234931094 0.000206637352281 0.00357995161907)
(0.000168351399969 0.000221778433867 0.00363265345096)
(0.000145090863948 0.00023763523022 0.00367672327851)
(0.00011964367461 0.000250601555279 0.00371178096862)
(9.17361842832e-05 0.000261114911976 0.00373814376452)
(6.21020551697e-05 0.000268796918895 0.00375640806884)
(3.12790460047e-05 0.000273487658067 0.00376712690063)
(-1.47009081356e-07 0.000275070475804 0.00377065840283)
(-3.15681417103e-05 0.000273506654825 0.00376710841993)
(-6.23761747183e-05 0.000268835897612 0.00375637373717)
(-9.19844852596e-05 0.000261175320407 0.00373809833418)
(-0.000119854757707 0.000250684117961 0.00371173355501)
(-0.000145252929599 0.000237739653517 0.00367668934918)
(-0.000168459118238 0.000221897128712 0.00363264617213)
(-0.00018528094144 0.000206765126695 0.00357993908062)
(0.000185860195673 0.000207229351404 0.00371439770069)
(0.00016807539399 0.000220444313219 0.0037572333914)
(0.000144260186152 0.000234607522629 0.00379240004142)
(0.000118530994993 0.000246046150659 0.0038198954711)
(9.06432073021e-05 0.000255274361802 0.00384023390403)
(6.12434292296e-05 0.000261995033473 0.0038541301481)
(3.08105094726e-05 0.000266090913288 0.00386220534395)
(-1.45260116933e-07 0.000267472782267 0.00386485241618)
(-3.10963530181e-05 0.000266110784795 0.00386219279535)
(-6.1515122742e-05 0.000262035393632 0.00385410758655)
(-9.08907513612e-05 0.000255335925383 0.00384020587681)
(-0.000118744084051 0.000246128874377 0.00381987076973)
(-0.000144428501353 0.000234710390119 0.00379239399772)
(-0.000168194290669 0.00022055991758 0.00375725795944)
(-0.000185919997798 0.000207355146658 0.00371441891404)
(0.000183119996199 0.000203997036515 0.00380740187483)
(0.000164791235132 0.000215051309734 0.00384106361089)
(0.0001408809593 0.000227278650523 0.00386822846444)
(0.000115354956967 0.000237035037966 0.00388910142575)
(8.79973643413e-05 0.000244871482915 0.00390427120702)
(5.93500646323e-05 0.000250565904088 0.00391447705067)
(2.98260209029e-05 0.000254032162644 0.00392034187717)
(-1.41359695809e-07 0.000255201905997 0.00392225379644)
(-3.01044151137e-05 0.000254051866228 0.00392033486581)
(-5.96154391639e-05 0.00025060560584 0.0039144655038)
(-8.82407468203e-05 0.000244931338155 0.00390425963186)
(-0.000115567236281 0.000237114450002 0.00388909859627)
(-0.000141053281085 0.000227376160439 0.00386824971203)
(-0.000164919497905 0.000215160093766 0.0038411186813)
(-0.000183192502237 0.000204117144666 0.00380745336385)
(0.000177875887712 0.000197906276096 0.0038698960454)
(0.000159309106437 0.000206716297203 0.00389550378724)
(0.000135675208581 0.000216888965841 0.0039159027258)
(0.000110725768048 0.00022491068736 0.00393133756955)
(8.42733708278e-05 0.000231333181384 0.00394235893771)
(5.67461646962e-05 0.000235997562385 0.00394965292528)
(2.84895047985e-05 0.000238836430355 0.0039537935861)
(-1.36202176188e-07 0.000239795244105 0.0039551356325)
(-2.87580068947e-05 0.000238855059746 0.00395379131093)
(-5.70029800314e-05 0.000236034876885 0.00394965085114)
(-8.45106286729e-05 0.000231388955498 0.00394236171488)
(-0.000110935593641 0.000224984028154 0.00393135424212)
(-0.000135850110665 0.00021697826413 0.00391594871482)
(-0.000159445435734 0.000206815543566 0.0038955855811)
(-0.000177960071911 0.000198017908934 0.00386997207516)
(0.000170818670134 0.000189740757908 0.00391019403599)
(0.000152263320921 0.000196318329069 0.00392905329031)
(0.000129200431597 0.000204393482014 0.00394402191722)
(0.000105111053807 0.000210689025133 0.00395523723775)
(7.98311338392e-05 0.000215726216268 0.00396312420671)
(5.36748881344e-05 0.00021939190021 0.00396826188138)
(2.69229536716e-05 0.000221625967028 0.00397114305254)
(-1.30502662187e-07 0.000222381679588 0.00397207183056)
(-2.71805234601e-05 0.000221642816645 0.00397114452304)
(-5.39222134372e-05 0.000219425488272 0.00396826732753)
(-8.00614583462e-05 0.000215776123739 0.00396313851255)
(-0.000105317680331 0.000210754286071 0.0039552698651)
(-0.00012937709084 0.000204472628564 0.00394408835118)
(-0.000152406684708 0.000196406314555 0.00392915567382)
(-0.000170913681629 0.000189842266475 0.00391028639597)
(0.000162495222491 0.000180137700807 0.00393460388298)
(0.000144145267395 0.000184534632829 0.00394805338605)
(0.000121886173308 0.000190510446878 0.00395887044525)
(9.88683217191e-05 0.000195125371174 0.00396697471621)
(7.49407938085e-05 0.000198836526314 0.00397261859819)
(5.03152114749e-05 0.000201552915774 0.00397624997082)
(2.52149479393e-05 0.00020321345617 0.00397826638513)
(-1.24812799832e-07 0.000203776588323 0.00397891400146)
(-2.54616344971e-05 0.000203228014418 0.00397827046293)
(-5.05531349445e-05 0.000201581874188 0.00397626058714)
(-7.51642466876e-05 0.000198879390871 0.00397264074414)
(-9.90716727677e-05 0.00019518128489 0.00396701815624)
(-0.000122064162985 0.000190578271192 0.0039589506336)
(-0.000144294739185 0.000184610325557 0.00394816725087)
(-0.000162600247363 0.000180227668432 0.00393470087484)
(0.000153324560849 0.0001695849712 0.0039479773703)
(0.00013534777018 0.000171853388884 0.00395731398844)
(0.000114078199702 0.000175765091304 0.00396509107593)
(9.22750203597e-05 0.000178778027227 0.00397097226356)
(6.98014066502e-05 0.000181241757876 0.00397505372799)
(4.67931488163e-05 0.000183062826201 0.00397766306451)
(2.34261794724e-05 0.000184180603714 0.00397910523914)
(-1.19557206831e-07 0.00018456075268 0.0039795682542)
(-2.36628158443e-05 0.000184192622976 0.00397911052612)
(-4.70224627455e-05 0.00018308672175 0.0039776757933)
(-7.00186747873e-05 0.000181277009016 0.00397507848908)
(-9.24755001855e-05 0.000178824014083 0.00397101853071)
(-0.000114257441702 0.000175821145253 0.00396517419308)
(-0.000135502677069 0.000171916451409 0.0039574260377)
(-0.000153438834955 0.000169662559416 0.00394806375005)
(0.000143673083252 0.000158401954125 0.00395428321524)
(0.000126267610911 0.000158607653677 0.00396073140387)
(0.000106078321248 0.000160525632672 0.00396629325679)
(8.55328153647e-05 0.00016206884387 0.00397050565043)
(6.45387222258e-05 0.000163373840939 0.00397341352508)
(4.31811938597e-05 0.000164348611376 0.00397526701565)
(2.1589873847e-05 0.000164948042252 0.00397629217055)
(-1.14967269977e-07 0.000165152860215 0.00397662231722)
(-2.18177810366e-05 0.000164957573734 0.00397629686762)
(-4.34031794087e-05 0.000164367530107 0.00397527775084)
(-6.47509070492e-05 0.000163401738382 0.00397343340451)
(-8.57310828168e-05 0.000162105294328 0.00397054223916)
(-0.000106258786823 0.000160570337461 0.00396636113822)
(-0.000126427321362 0.000158658756684 0.00396082143007)
(-0.000143796122959 0.00015846789362 0.0039543409698)
(0.000134093206561 0.000146732992444 0.0039573437493)
(0.000117405562277 0.0001441466049 0.00396192910256)
(9.80412401492e-05 0.000144586938368 0.00396556646317)
(7.87135664944e-05 0.000144908931409 0.00396820050484)
(5.91814145669e-05 0.000145218989868 0.00396995769565)
(3.94932739874e-05 0.00014545144997 0.00397105868731)
(1.97127107882e-05 0.000145594011952 0.00397166566941)
(-1.11133713711e-07 0.000145644238061 0.00397186188143)
(-1.99333702763e-05 0.000145601163679 0.00397166813005)
(-3.97092527072e-05 0.000145465593361 0.00397106350434)
(-5.9389651187e-05 0.000145239888443 0.00396996505084)
(-7.89105491675e-05 0.000144936254184 0.00396821302213)
(-9.82230753231e-05 0.00014462091186 0.00396559578281)
(-0.000117568846592 0.000144186010777 0.00396195632998)
(-0.000134224518088 0.000146787367747 0.00395737508273)
(1.01254227866e-06 1.5892366946e-06 0.000412717525425)
(6.95031589328e-07 2.0204378294e-06 0.000433688029008)
(5.76660513832e-07 2.28033258565e-06 0.000452925697388)
(4.33157124588e-07 2.49438937891e-06 0.000469605195528)
(3.04393258171e-07 2.65124964659e-06 0.000483146133656)
(2.00089145851e-07 2.75443970217e-06 0.000493114761401)
(1.14112972875e-07 2.81313742184e-06 0.000499221137298)
(3.91921310942e-08 2.83390115676e-06 0.00050129159322)
(-3.8768345469e-08 2.8183298154e-06 0.000499225458101)
(-1.34012996257e-07 2.76324501635e-06 0.000493122595954)
(-2.53939655006e-07 2.660819438e-06 0.000483155850082)
(-4.01581204618e-07 2.50184937812e-06 0.00046961459898)
(-5.64111005575e-07 2.28129597832e-06 0.000452933333095)
(-6.98062628134e-07 2.0147384333e-06 0.000433688922711)
(-1.0224837151e-06 1.57762084205e-06 0.000412695486704)
(8.92391403481e-06 1.07389503847e-05 0.00116287525126)
(7.9266092817e-06 1.29728890332e-05 0.00121816744121)
(7.13008604112e-06 1.49183359531e-05 0.00126882620771)
(6.06456513299e-06 1.66557985698e-05 0.0013126561824)
(4.76924908515e-06 1.8080973085e-05 0.00134816086105)
(3.30667093538e-06 1.91347361395e-05 0.00137425419829)
(1.72342199011e-06 1.97834312186e-05 0.00139021552135)
(7.9051164471e-08 2.00062882594e-05 0.00139561273376)
(-1.57171607143e-06 1.97944941609e-05 0.00139022560852)
(-3.17430612162e-06 1.91538528587e-05 0.00137427224015)
(-4.66875241039e-06 1.81025958978e-05 0.00134818261057)
(-6.00289720849e-06 1.66739521458e-05 0.00131267634592)
(-7.1065141267e-06 1.49242924775e-05 0.00126884134029)
(-7.9333905429e-06 1.29654015369e-05 0.00121816486585)
(-8.9435125096e-06 1.0718559212e-05 0.00116281758188)
(2.01901630089e-05 2.31677584447e-05 0.00184046313581)
(1.83261472669e-05 2.75165912897e-05 0.00192259350277)
(1.65282067467e-05 3.1495731861e-05 0.00199747991866)
(1.41231734502e-05 3.50652448306e-05 0.00206195815173)
(1.11495931497e-05 3.80166993285e-05 0.00211395241046)
(7.73291767321e-06 4.02148315093e-05 0.00215202400745)
(3.99725772648e-06 4.15731646174e-05 0.00217524780918)
(9.73172485475e-08 4.20369532828e-05 0.00218308027409)
(-3.81033728221e-06 4.15850267571e-05 0.00217526088172)
(-7.56933489433e-06 4.02352197418e-05 0.0021520471734)
(-1.10243983479e-05 3.80395879551e-05 0.00211398024536)
(-1.4045682314e-05 3.50840437292e-05 0.00206198437351)
(-1.64983433888e-05 3.15012702897e-05 0.00199750045007)
(-1.83343287508e-05 2.75059974187e-05 0.00192259238405)
(-2.02153830245e-05 2.31411963194e-05 0.00184038704255)
(3.25460521667e-05 3.64354922427e-05 0.00244221198444)
(2.9618382045e-05 4.27715215519e-05 0.00254272502537)
(2.66399304732e-05 4.85897278854e-05 0.0026336466476)
(2.27139925121e-05 5.38018564438e-05 0.00271135585777)
(1.79008615462e-05 5.81061310757e-05 0.00277359792617)
(1.23866477389e-05 6.13086089915e-05 0.00281892387799)
(6.37084320858e-06 6.32853887524e-05 0.00284646201115)
(9.66647961718e-08 6.39578213442e-05 0.0028557226053)
(-6.18515457137e-06 6.32966269035e-05 0.00284647476753)
(-1.22240026564e-05 6.13279666403e-05 0.0028189464722)
(-1.77759956937e-05 5.81281129532e-05 0.00277362561462)
(-2.2636561014e-05 5.38201742769e-05 0.00271138371713)
(-2.66106549186e-05 4.85961737628e-05 0.00263367193401)
(-2.96275195812e-05 4.27618682438e-05 0.00254273214827)
(-3.25729992294e-05 3.64087810209e-05 0.00244213904164)
(4.44906087559e-05 4.89780402036e-05 0.0029641072968)
(4.03710797648e-05 5.69552252653e-05 0.00307438488943)
(3.61615172637e-05 6.41734898801e-05 0.00317311462256)
(3.07113654371e-05 7.06182746625e-05 0.00325671251171)
(2.41278052641e-05 7.59183953484e-05 0.00332310661449)
(1.66475285812e-05 7.98480179884e-05 0.0033711234817)
(8.53033784848e-06 8.22673584063e-05 0.0034001512768)
(8.60000890967e-08 8.30877602179e-05 0.0034098819042)
(-8.36513608594e-06 8.2277073821e-05 0.00340016231293)
(-1.65027459971e-05 7.98648341409e-05 0.00337114345203)
(-2.40164258917e-05 7.59377264465e-05 0.00332313266882)
(-3.06422769884e-05 7.06347134281e-05 0.0032567425366)
(-3.61360912255e-05 6.41801490574e-05 0.0031731486869)
(-4.03810244403e-05 5.6947779116e-05 0.00307440954089)
(-4.45172163046e-05 4.89535573883e-05 0.00296405588852)
(5.51501923508e-05 5.99432671357e-05 0.00340556821949)
(4.97889048443e-05 6.91210161824e-05 0.00351784910047)
(4.43823982633e-05 7.72149004794e-05 0.00361716585038)
(3.75167447621e-05 8.4410052325e-05 0.00370035987016)
(2.93638289012e-05 9.029242956e-05 0.00376579190897)
(2.01973192845e-05 9.46326974861e-05 0.00381273587347)
(1.03168248196e-05 9.72956881561e-05 0.00384095213444)
(7.10325988603e-08 9.81960270736e-05 0.00385037863672)
(-1.01803647851e-05 9.73033670175e-05 0.00384096165314)
(-2.00776529263e-05 9.46460602914e-05 0.00381275401351)
(-2.92716031249e-05 9.03079264292e-05 0.00376581824726)
(-3.7459640522e-05 8.44234347606e-05 0.0037003956988)
(-4.43621504626e-05 7.72207286709e-05 0.00361721480289)
(-4.97994960264e-05 6.91153576357e-05 0.00351790021812)
(-5.51757800216e-05 5.99216853865e-05 0.00340555074409)
(6.40165456498e-05 6.8874059526e-05 0.00376987550285)
(5.7440813909e-05 7.87845193161e-05 0.00387791685057)
(5.09341999282e-05 8.72329309387e-05 0.00397222431481)
(4.28364388891e-05 9.47048964755e-05 0.00405030309657)
(3.33905674491e-05 0.00010076928753 0.00411106074731)
(2.2892920305e-05 0.000105218129344 0.00415426785364)
(1.16610930608e-05 0.000107936778539 0.0041800733462)
(5.52703154846e-08 0.000108853228903 0.00418866366756)
(-1.15549032187e-05 0.00010794227305 0.00418008240269)
(-2.27997545971e-05 0.00010522770821 0.0041542863623)
(-3.33187114139e-05 0.000100780419926 0.0041110907478)
(-4.27922294022e-05 9.47144650835e-05 0.0040503492974)
(-5.0919644576e-05 8.72370385243e-05 0.00397229399846)
(-5.74519474057e-05 7.87795835695e-05 0.00387800100705)
(-6.40411124869e-05 6.88551922887e-05 0.00376989887249)
(7.08488154733e-05 7.55882771292e-05 0.0040633041597)
(6.31538756414e-05 8.5783223579e-05 0.00416263594293)
(5.56907399801e-05 9.41260123345e-05 0.00424814814121)
(4.65899308731e-05 0.000101460327219 0.0043180940101)
(3.61618337472e-05 0.000107362599523 0.00437191820283)
(2.47118502603e-05 0.000111664329646 0.00440983721715)
(1.25554014309e-05 0.00011428141585 0.00443233097148)
(4.06426609233e-08 0.000115161020057 0.00443979125018)
(-1.2477325011e-05 0.000114284790454 0.00443234077115)
(-2.46433750806e-05 0.000111670163343 0.0044098584051)
(-3.6109131869e-05 0.000107369249029 0.00437195503955)
(-4.65580209031e-05 0.00010146571688 0.00431815428761)
(-5.56817997409e-05 9.41276153042e-05 0.00424824244913)
(-6.31656402283e-05 8.5778010149e-05 0.00416275605082)
(-7.08723717798e-05 7.55710376585e-05 0.00406337003663)
(7.56071320286e-05 8.01033261329e-05 0.00429396922704)
(6.69400134071e-05 9.01840028599e-05 0.00438184034927)
(5.86936338228e-05 9.80506350813e-05 0.00445645924573)
(4.88399622087e-05 0.000104915613957 0.00451677779635)
(3.7744515999e-05 0.000110386109115 0.00456267695245)
(2.57094451319e-05 0.000114344325042 0.00459470434242)
(1.30312003348e-05 0.000116740965534 0.0046135703936)
(2.80084860878e-08 0.000117544083496 0.00461980435314)
(-1.29774385833e-05 0.000116742395137 0.00461358180418)
(-2.56624341877e-05 0.000114346660395 0.00459472974423)
(-3.77086716634e-05 0.000110388405224 0.00456272244899)
(-4.88191304574e-05 0.000104916672092 0.00451685376308)
(-5.86899570793e-05 9.80490164301e-05 0.0044565789739)
(-6.69525615848e-05 9.01773336734e-05 0.00438199491581)
(-7.56297574814e-05 8.00862929337e-05 0.00429407400985)
(7.83916538609e-05 8.25701485789e-05 0.00447078951118)
(6.89317851534e-05 9.22004576306e-05 0.00454593198423)
(6.00888186011e-05 9.93158444749e-05 0.00460895324714)
(4.97342161226e-05 0.000105465906666 0.00465935446266)
(3.82701313936e-05 0.000110310533773 0.00469730213142)
(2.59842787458e-05 0.000113787950094 0.0047235350493)
(1.31412721739e-05 0.000115882996601 0.00473888125532)
(1.75510676676e-08 0.000116582954929 0.00474393408265)
(-1.31076799651e-05 0.00011588271302 0.00473889450744)
(-2.59552125828e-05 0.000113787141895 0.00472356486101)
(-3.82486176608e-05 0.000110308756157 0.00469735598391)
(-4.97230815813e-05 0.000105462626046 0.00465944471952)
(-6.00899976997e-05 9.93104420295e-05 0.00460909517018)
(-6.89451549471e-05 9.21911745245e-05 0.00454611441735)
(-7.84134178308e-05 8.25518209859e-05 0.00447092399306)
(7.93897947642e-05 8.32188774268e-05 0.00460271347039)
(6.93300854313e-05 9.21257907281e-05 0.00466503456976)
(6.00775738431e-05 9.82995276958e-05 0.00471678968571)
(4.9462375115e-05 0.000103565579034 0.00475781983043)
(3.79005040027e-05 0.000107657513233 0.00478842035113)
(2.56542236509e-05 0.00011056932806 0.00480939256523)
(1.29475352415e-05 0.000112314882983 0.00482158229461)
(9.08241335194e-09 0.000112896356837 0.00482558282504)
(-1.29303273893e-05 0.000112313160227 0.00482159676973)
(-2.5639897134e-05 0.000110565824237 0.00480942520661)
(-3.78910351746e-05 0.000107652097217 0.00478847943186)
(-4.94597278488e-05 0.000103558147524 0.00475791901741)
(-6.00833201774e-05 9.82900023468e-05 0.00471694551332)
(-6.93444240082e-05 9.21128909264e-05 0.0046652322732)
(-7.94106636992e-05 8.31977723756e-05 0.00460286190107)
(7.8829052618e-05 8.23130414243e-05 0.00469823943199)
(6.83618806204e-05 9.02765117914e-05 0.0047485247923)
(5.88819561438e-05 9.53815772865e-05 0.00479002928383)
(4.82291315555e-05 9.96569472496e-05 0.00482271109378)
(3.68073809371e-05 0.000102926680457 0.004846880593)
(2.48425794728e-05 0.000105233188484 0.00486331698613)
(1.25140696767e-05 0.000106609681127 0.00487281563424)
(2.25498337161e-09 0.000107066898146 0.0048759241901)
(-1.25101219565e-05 0.000106606843121 0.00487282966953)
(-2.4840344602e-05 0.000105227541198 0.00486334865973)
(-3.68080667939e-05 0.000102918239981 0.00484693816258)
(-4.82339872247e-05 9.96458544899e-05 0.00482280868681)
(-5.88921149139e-05 9.53680382824e-05 0.00479018426879)
(-6.83774834033e-05 9.0259631665e-05 0.00474871814702)
(-7.8849186123e-05 8.22884470066e-05 0.00469837833442)
(7.69311457658e-05 8.0100809291e-05 0.00476522010605)
(6.62507111453e-05 8.69377919817e-05 0.00480490365746)
(5.67311388923e-05 9.08937047296e-05 0.00483753561349)
(4.62471158007e-05 9.41240723109e-05 0.0048630340068)
(3.51672610125e-05 9.65543519623e-05 0.00488171522912)
(2.36742868534e-05 9.82565898075e-05 0.00489432059271)
(1.19051081182e-05 9.92690444289e-05 0.00490156684426)
(-3.28799321052e-09 9.96045465198e-05 0.00490393202344)
(-1.19119747977e-05 9.9265451637e-05 0.00490157759764)
(-2.36820623264e-05 9.82494369644e-05 0.00489434494655)
(-3.51765792003e-05 9.65437467265e-05 0.00488176022663)
(-4.62586297081e-05 9.41101747893e-05 0.00486311297361)
(-5.6745491446e-05 9.08768263885e-05 0.00483766672407)
(-6.62677401225e-05 8.69172325865e-05 0.00480506525713)
(-7.69506556788e-05 8.00728411088e-05 0.004765319681)
(7.39112541527e-05 7.67985328209e-05 0.00481093069384)
(6.32456533568e-05 8.24504650544e-05 0.00484196148698)
(5.38972089791e-05 8.5162738824e-05 0.00486712377564)
(4.37563478508e-05 8.73286830466e-05 0.00488642190853)
(3.31707187887e-05 8.89376432936e-05 0.00490034166195)
(2.2279480717e-05 9.00603623786e-05 0.00490963544913)
(1.11861764988e-05 9.07267328871e-05 0.00491494479291)
(-7.85793557561e-09 9.09468541301e-05 0.00491667176659)
(-1.12019928381e-05 9.07227689131e-05 0.0049149483997)
(-2.22955774247e-05 9.0052475159e-05 0.00490964388792)
(-3.31873302509e-05 8.89259080351e-05 0.00490035898399)
(-4.37736763739e-05 8.73132100444e-05 0.0048864581904)
(-5.39154097716e-05 8.51437195818e-05 0.00486719733491)
(-6.32640438496e-05 8.24271662547e-05 0.00484205445704)
(-7.39301584718e-05 7.67675427259e-05 0.0048109588393)
(6.98601977581e-05 7.37296475082e-05 0.00484252051308)
(5.96435667399e-05 7.73294671612e-05 0.00486724125026)
(5.06538609491e-05 7.86046945895e-05 0.00488575042881)
(4.09785956302e-05 7.96599226912e-05 0.00489933650412)
(3.09859935931e-05 8.04190603172e-05 0.00490884042977)
(2.07696721649e-05 8.09434485535e-05 0.00491506410389)
(1.04126666606e-05 8.12516900668e-05 0.00491857951403)
(-1.16438359338e-08 8.13523676416e-05 0.00491971475196)
(-1.04358703101e-05 8.12480238968e-05 0.00491857243366)
(-2.07926389192e-05 8.09361666797e-05 0.0049150487867)
(-3.1008580421e-05 8.04081184591e-05 0.00490881602273)
(-4.10006486194e-05 7.96452885365e-05 0.00489930568119)
(-5.06752921538e-05 7.85861843367e-05 0.00488572849706)
(-5.96627436908e-05 7.73059790722e-05 0.00486720426262)
(-6.987841314e-05 7.36984769164e-05 0.00484247541479)
(-9.04701570262e-08 -3.37647014305e-07 0.000290237489614)
(1.40065973345e-07 -5.45702565779e-07 0.000305322418968)
(3.32682013886e-07 -6.5806122975e-07 0.00031934385079)
(4.31698091872e-07 -6.80187405618e-07 0.000331651433076)
(4.34176600591e-07 -6.4954354997e-07 0.000341722381898)
(3.43737329297e-07 -5.98378423958e-07 0.000349174630242)
(1.86659177688e-07 -5.55556400903e-07 0.000353753276411)
(-5.57019695463e-09 -5.39502940706e-07 0.00035530729849)
(-1.96887437397e-07 -5.56659946969e-07 0.000353751781653)
(-3.51475367606e-07 -6.00454204304e-07 0.000349171987258)
(-4.3909559344e-07 -6.52562619938e-07 0.000341718947513)
(-4.3581719962e-07 -6.843309759e-07 0.00033164680448)
(-3.37149292658e-07 -6.62296153243e-07 0.000319336164566)
(-1.44573086412e-07 -5.50380382901e-07 0.000305307750635)
(8.66725767549e-08 -3.4123652005e-07 0.000290201736965)
(7.96827884824e-07 3.35350013994e-07 0.0008612618358)
(1.29751820497e-06 9.46100385266e-08 0.000904882941471)
(1.69354341204e-06 8.91652380005e-08 0.000945522033657)
(1.82490019551e-06 2.86442310316e-07 0.000981209172651)
(1.68026033849e-06 5.7747241094e-07 0.00101042019334)
(1.27643378839e-06 8.67739364133e-07 0.00103204212729)
(6.8444935429e-07 1.07610747775e-06 0.00104532600923)
(-6.95169900327e-09 1.15099256034e-06 0.00104982499617)
(-6.96925769697e-07 1.07392688503e-06 0.00104532499403)
(-1.28517202396e-06 8.63318457196e-07 0.00103204075034)
(-1.68538095868e-06 5.70483122425e-07 0.00101041878791)
(-1.83046066447e-06 2.76390573066e-07 0.000981205675651)
(-1.70253711061e-06 7.78541417432e-08 0.000945510351524)
(-1.30889960899e-06 8.15397464656e-08 0.000904850401896)
(-8.07617465848e-07 3.23879588842e-07 0.000861174556129)
(2.86482034157e-06 2.44273607917e-06 0.00141530673799)
(3.46814720199e-06 2.54262891907e-06 0.00148523166425)
(3.88794063928e-06 2.97654594555e-06 0.00155032074351)
(3.87328269185e-06 3.66218320303e-06 0.0016074016392)
(3.40843635141e-06 4.41707646028e-06 0.00165406491069)
(2.52750529852e-06 5.08627833232e-06 0.00168856918484)
(1.3434108276e-06 5.54171108235e-06 0.00170974789292)
(-1.10072989933e-09 5.7025263729e-06 0.0017169090516)
(-1.34469254101e-06 5.53968874856e-06 0.00170974898751)
(-2.52659032965e-06 5.08163530481e-06 0.00168857200963)
(-3.40650505561e-06 4.40864222874e-06 0.00165406944679)
(-3.87522238539e-06 3.64892659297e-06 0.00160740444895)
(-3.89738740926e-06 2.96019464444e-06 0.00155031284623)
(-3.48366753479e-06 2.52338715498e-06 0.0014851935849)
(-2.88072717797e-06 2.42405370683e-06 0.00141518920457)
(6.21264674074e-06 6.03450654492e-06 0.00194633534598)
(6.77499210573e-06 6.80065538141e-06 0.00203913990496)
(7.0462211589e-06 7.96017115306e-06 0.00212521048632)
(6.6991309218e-06 9.36664522471e-06 0.00220043642983)
(5.72124863551e-06 1.0759998393e-05 0.00226174417089)
(4.16902289529e-06 1.19277631797e-05 0.00230696194438)
(2.19816513684e-06 1.2699519497e-05 0.00233466231189)
(5.75147066145e-09 1.29689905963e-05 0.00234401234494)
(-2.18655472829e-06 1.26981671162e-05 0.00233466642274)
(-4.15755495527e-06 1.1924035635e-05 0.00230697065654)
(-5.71215305586e-06 1.0752060015e-05 0.00226175721337)
(-6.6974258158e-06 9.35287165508e-06 0.00220044990522)
(-7.05541420105e-06 7.94150580727e-06 0.00212521445791)
(-6.79350532611e-06 6.77750455795e-06 0.00203911078859)
(-6.23287390634e-06 6.00988992018e-06 0.00194621316001)
(1.05009821068e-05 1.06782112313e-05 0.00244635848401)
(1.08929604783e-05 1.22819813023e-05 0.00255726834126)
(1.08683153129e-05 1.42917629362e-05 0.00265948001618)
(1.00384150821e-05 1.65024190444e-05 0.00274832887689)
(8.40444784037e-06 1.85815687797e-05 0.00282038701789)
(6.04878496409e-06 2.02705610442e-05 0.0028733208353)
(3.16829101117e-06 2.13672256907e-05 0.00290565180508)
(1.04351911235e-08 2.17472694894e-05 0.00291654264964)
(-3.14801866707e-06 2.13666145661e-05 0.00290565875908)
(-6.03064266136e-06 2.02680845266e-05 0.00287333526228)
(-8.3913818486e-06 1.85750007709e-05 0.00282040895378)
(-1.00351932326e-05 1.64896296708e-05 0.00274835523837)
(-1.0877976384e-05 1.42727449349e-05 0.00265950189734)
(-1.09137927255e-05 1.22567268946e-05 0.00255726030393)
(-1.05247548137e-05 1.06494841413e-05 0.00244625191235)
(1.53270663146e-05 1.58955796391e-05 0.00290723059224)
(1.54349788549e-05 1.83633591238e-05 0.00303046152459)
(1.4996823432e-05 2.11989550361e-05 0.00314304863447)
(1.3578314553e-05 2.41607050815e-05 0.00324021506086)
(1.12055112788e-05 2.68584010485e-05 0.00331851754253)