/*--------------------------------*- C++ -*----------------------------------*\
  =========                 |
  \\      /  F ield         | OpenFOAM: The Open Source CFD Toolbox
   \\    /   O peration     | Website:  https://openfoam.org
    \\  /    A nd           | Version:  7
     \\/     M anipulation  |
\*---------------------------------------------------------------------------*/
FoamFile
{
    version     2.0;
    format      ascii;
    class       volVectorField;
    location    "0.42";
    object      U;
}
// * * * * * * * * * * * * * * * * * * * * * * * * * * * * * * * * * * * * * //

dimensions      [0 1 -1 0 0 0 0];

internalField   nonuniform List<vector> 
22500
(
(-4.39329583804e-06 -5.01760543654e-06 -1.84181229551e-05)
(-4.0134625345e-06 -5.73436233948e-06 -1.91816447251e-05)
(-3.47963560441e-06 -6.41072656839e-06 -1.9769008212e-05)
(-2.89654823655e-06 -6.97391238313e-06 -2.02181193981e-05)
(-2.23538832259e-06 -7.42915553336e-06 -2.05509200844e-05)
(-1.5241128898e-06 -7.7619929548e-06 -2.07809273815e-05)
(-7.75806070542e-07 -7.96529367313e-06 -2.09171148105e-05)
(-8.31682277019e-09 -8.03425655185e-06 -2.09642691658e-05)
(7.59376064075e-07 -7.96685762418e-06 -2.09212254064e-05)
(1.50829615441e-06 -7.76503237476e-06 -2.07891468153e-05)
(2.22059960414e-06 -7.43348872768e-06 -2.05632406819e-05)
(2.8831329716e-06 -6.97927985896e-06 -2.02345547978e-05)
(3.4679598425e-06 -6.4167823002e-06 -1.97896680217e-05)
(4.00329658267e-06 -5.74097144917e-06 -1.92070158851e-05)
(4.38574578432e-06 -5.0239050761e-06 -1.8449565908e-05)
(-1.31808322417e-05 -1.49769051529e-05 -6.26659795459e-05)
(-1.20500869668e-05 -1.70669629725e-05 -6.56403120355e-05)
(-1.04887889652e-05 -1.90439238741e-05 -6.8052159892e-05)
(-8.7335443333e-06 -2.07083561849e-05 -6.99738079404e-05)
(-6.74913101905e-06 -2.20568551222e-05 -7.14453139943e-05)
(-4.60416293206e-06 -2.3045217425e-05 -7.24880930243e-05)
(-2.34431878477e-06 -2.36500142343e-05 -7.31141742761e-05)
(-2.49635603173e-08 -2.38552113558e-05 -7.33285534609e-05)
(2.29500213621e-06 -2.36546724118e-05 -7.31269808195e-05)
(4.5566876853e-06 -2.30542368493e-05 -7.25136818885e-05)
(6.70474153843e-06 -2.20696528126e-05 -7.14836203863e-05)
(8.69332945218e-06 -2.07241214476e-05 -7.00248104943e-05)
(1.04537825912e-05 -1.9061624931e-05 -6.81161090881e-05)
(1.20202135708e-05 -1.70860298808e-05 -6.5718535916e-05)
(1.31587077791e-05 -1.49953505181e-05 -6.27615705172e-05)
(-2.12561886811e-05 -2.40204876652e-05 -0.000113075418818)
(-1.9395954475e-05 -2.72904515894e-05 -0.000118788991665)
(-1.68955882408e-05 -3.03711242957e-05 -0.000123522199878)
(-1.4057936378e-05 -3.29749519237e-05 -0.000127354208281)
(-1.08616954499e-05 -3.50839986364e-05 -0.000130323868245)
(-7.40736467649e-06 -3.66306721784e-05 -0.000132446340807)
(-3.77049710994e-06 -3.75773392065e-05 -0.000133726306435)
(-3.9213944498e-08 -3.78984699731e-05 -0.000134162774828)
(3.69298782169e-06 -3.75844582912e-05 -0.000133747953645)
(7.3326056492e-06 -3.66444954024e-05 -0.00013248958225)
(1.07914918457e-05 -3.51036953209e-05 -0.000130388553889)
(1.39938721976e-05 -3.29993626234e-05 -0.000127440220479)
(1.68391719048e-05 -3.03987433906e-05 -0.000123629799502)
(1.93474909657e-05 -2.73204013407e-05 -0.000118920055875)
(2.12195112861e-05 -2.40500953897e-05 -0.000113234320414)
(-2.86041066226e-05 -3.21708742007e-05 -0.000168574926467)
(-2.60572235386e-05 -3.64242038371e-05 -0.000177380502642)
(-2.27022125019e-05 -4.04155262565e-05 -0.000184756858726)
(-1.88745976738e-05 -4.37953359075e-05 -0.000190778149507)
(-1.45778758527e-05 -4.65320757163e-05 -0.000195471564711)
(-9.93795569489e-06 -4.85395097195e-05 -0.000198839097344)
(-5.0571917233e-06 -4.97683047334e-05 -0.000200873497557)
(-5.19765309263e-08 -5.01850864176e-05 -0.000201565415697)
(4.95441138291e-06 -4.97774840924e-05 -0.000200903767148)
(9.83867420664e-06 -4.8557356406e-05 -0.000198899562697)
(1.44843606679e-05 -4.65575627949e-05 -0.000195561986149)
(1.87888643192e-05 -4.38270291167e-05 -0.0001908982753)
(2.26261798534e-05 -4.04515479059e-05 -0.000184906840065)
(2.59916085759e-05 -3.64634259862e-05 -0.000177562491449)
(2.85535055071e-05 -3.22101598647e-05 -0.000168794150938)
(-3.51964183782e-05 -3.94269657211e-05 -0.000227963581449)
(-3.2016414652e-05 -4.44655596205e-05 -0.000240027612241)
(-2.78893467459e-05 -4.91739284195e-05 -0.000250185154792)
(-2.31681689455e-05 -5.3164428552e-05 -0.000258508562735)
(-1.7885605477e-05 -5.6393744196e-05 -0.00026501212564)
(-1.21877808141e-05 -5.87626406939e-05 -0.000269685030225)
(-6.20026363784e-06 -6.02126819383e-05 -0.000272509059915)
(-6.31453934724e-08 -6.07044587911e-05 -0.000273467647218)
(6.07534564775e-06 -6.02235249559e-05 -0.000272547514107)
(1.20669558195e-05 -5.87837475444e-05 -0.000269761854248)
(1.77715129818e-05 -5.64239488762e-05 -0.000265126990495)
(2.30631761936e-05 -5.32020893866e-05 -0.000258661047258)
(2.7795691162e-05 -4.92169018683e-05 -0.000250375186487)
(3.193517482e-05 -4.4512540191e-05 -0.000240257447377)
(3.51326483596e-05 -3.94744943656e-05 -0.000228239118563)
(-4.09859749802e-05 -4.57538130323e-05 -0.000290004636648)
(-3.72306495111e-05 -5.13741615303e-05 -0.000305315849221)
(-3.2415582937e-05 -5.66020374685e-05 -0.000318221404842)
(-2.6903616296e-05 -6.10333808723e-05 -0.000328807406872)
(-2.07572334618e-05 -6.4616031251e-05 -0.000337081562515)
(-1.41378571784e-05 -6.72439069275e-05 -0.000343026153723)
(-7.19006170198e-06 -6.88523296354e-05 -0.00034661699382)
(-7.27344499593e-08 -6.93977904279e-05 -0.00034783389334)
(7.04611334964e-06 -6.88644423011e-05 -0.000346663080211)
(1.39984387847e-05 -6.72675161974e-05 -0.000343118237698)
(2.06252608792e-05 -6.46498927142e-05 -0.000337219220437)
(2.67817290918e-05 -6.1075724489e-05 -0.000328990005353)
(3.23062534305e-05 -5.66505475952e-05 -0.000318448540989)
(3.71352544378e-05 -5.14274134404e-05 -0.000305589804001)
(4.09098250457e-05 -4.58081515179e-05 -0.000290332014986)
(-4.59386032002e-05 -5.11238481957e-05 -0.000353496513792)
(-4.16669530917e-05 -5.71208348878e-05 -0.000371888528781)
(-3.62496160043e-05 -6.26708996386e-05 -0.000387364968883)
(-3.00546072055e-05 -6.73726633501e-05 -0.00040004961322)
(-2.31722654398e-05 -7.11690871256e-05 -0.000409954389734)
(-1.57743000906e-05 -7.39532267797e-05 -0.000417063395112)
(-8.01962239341e-06 -7.56570799187e-05 -0.000421353380177)
(-8.08588562928e-08 -7.62348970217e-05 -0.000422805211874)
(7.85952147105e-06 -7.56700839725e-05 -0.000421406515213)
(1.56190168001e-05 -7.39786137736e-05 -0.000417169570651)
(2.30249005782e-05 -7.12055882913e-05 -0.000410113072651)
(2.9917991956e-05 -6.74184558865e-05 -0.000400259906425)
(3.61263695304e-05 -6.27235886528e-05 -0.000387626041609)
(4.1558696394e-05 -5.71789411506e-05 -0.000372202682551)
(4.58508101036e-05 -5.11836168035e-05 -0.000353871138627)
(-5.00377315963e-05 -5.55252161529e-05 -0.000417325284817)
(-4.53084010401e-05 -6.16963238355e-05 -0.000438507228451)
(-3.93755992756e-05 -6.7375647697e-05 -0.000456268624796)
(-3.26083769814e-05 -7.21810989191e-05 -0.00047079866273)
(-2.51212081892e-05 -7.60553665864e-05 -0.000482124929517)
(-1.70909603399e-05 -7.88959118801e-05 -0.000490241909751)
(-8.68600050744e-06 -8.06340905879e-05 -0.000495134026406)
(-8.77179284353e-08 -8.12235888778e-05 -0.000496787704109)
(8.51223241353e-06 -8.0647644621e-05 -0.000495193662689)
(1.69221645968e-05 -7.89224200093e-05 -0.000490361075148)
(2.49605893859e-05 -7.60935899543e-05 -0.00048230295979)
(3.245888725e-05 -7.22292277743e-05 -0.000471034340147)
(3.92399431734e-05 -6.74312918534e-05 -0.000456560604185)
(4.51884054457e-05 -6.17579875106e-05 -0.000438857892286)
(4.99389578115e-05 -5.55891496381e-05 -0.000417742844834)
(-5.32808117421e-05 -5.89587507523e-05 -0.000480495153903)
(-4.81517064704e-05 -6.51068859229e-05 -0.000504084567493)
(-4.17909954908e-05 -7.07297196083e-05 -0.000523773661982)
(-3.45640170372e-05 -7.5478973459e-05 -0.000539843211718)
(-2.66041884068e-05 -7.93017814688e-05 -0.000552344339266)
(-1.80884141529e-05 -8.21040624213e-05 -0.000561287781418)
(-9.18971337068e-06 -8.38187480711e-05 -0.000566670682431)
(-9.35407348042e-08 -8.44003848319e-05 -0.000568488515436)
(9.00431093948e-06 -8.38325382084e-05 -0.00056673635637)
(1.79080220596e-05 -8.21310875316e-05 -0.00056141900214)
(2.64320467008e-05 -7.93408819234e-05 -0.000552540291158)
(3.44031360404e-05 -7.55284134118e-05 -0.000540102302162)
(4.16441152132e-05 -7.07871884853e-05 -0.00052409395958)
(4.80208430978e-05 -6.51709295762e-05 -0.000504468657904)
(5.31715886216e-05 -5.90256943738e-05 -0.000480952033909)
(-5.56769143362e-05 -6.14361157653e-05 -0.000542135914253)
(-5.0205496681e-05 -6.73714727161e-05 -0.00056768999872)
(-4.35052494212e-05 -7.27610467768e-05 -0.000588914882275)
(-3.59314611895e-05 -7.73036257157e-05 -0.000606200169655)
(-2.76300620994e-05 -8.09547406521e-05 -0.000619620598409)
(-1.87732405268e-05 -8.36310860801e-05 -0.000629204809502)
(-9.53432424043e-06 -8.52688084493e-05 -0.000634965504719)
(-9.85627971576e-08 -8.5824506933e-05 -0.000636909452897)
(9.33885597155e-06 -8.52825486818e-05 -0.000635036860784)
(1.85827218827e-05 -8.36580794922e-05 -0.000629347376106)
(2.74477109138e-05 -8.09939456291e-05 -0.000619833404273)
(3.57603013782e-05 -7.73534446847e-05 -0.000606481208433)
(4.33480225762e-05 -7.28193126576e-05 -0.000589261579801)
(5.00644072318e-05 -6.74368278317e-05 -0.000568105332172)
(5.55576140486e-05 -6.15050356811e-05 -0.000542629585133)
(-5.72452910105e-05 -6.29795715165e-05 -0.000601486742756)
(-5.1489340323e-05 -6.85200240881e-05 -0.000628531518912)
(-4.45391089584e-05 -7.35098583919e-05 -0.000650902086693)
(-3.67307493494e-05 -7.77071776456e-05 -0.000669093083012)
(-2.82154882249e-05 -8.1077533254e-05 -0.000683191890318)
(-1.91571634833e-05 -8.35485715075e-05 -0.000693243092363)
(-9.72591931106e-06 -8.50608174939e-05 -0.000699276354816)
(-1.02992743802e-07 -8.55741484268e-05 -0.000701311122691)
(9.52154007874e-06 -8.50742351309e-05 -0.000699353143669)
(1.8957591836e-05 -8.35750047852e-05 -0.000693396529865)
(2.80238707253e-05 -8.11161010081e-05 -0.000683420884151)
(3.65500836646e-05 -7.77564744097e-05 -0.000669395209441)
(4.43721229586e-05 -7.35679342929e-05 -0.000651274075521)
(5.13384216264e-05 -6.85856797751e-05 -0.000628976970849)
(5.71161074315e-05 -6.30494987206e-05 -0.000602016075855)
(-5.80123976512e-05 -6.36191753652e-05 -0.000657854050492)
(-5.20324349554e-05 -6.85893116752e-05 -0.000685919099892)
(-4.49240756637e-05 -7.30261352248e-05 -0.000709088413444)
(-3.69909265705e-05 -7.67551664045e-05 -0.000727916899686)
(-2.83833522934e-05 -7.97489278673e-05 -0.000742484727743)
(-1.92556105291e-05 -8.19442922821e-05 -0.000752851318327)
(-9.77228080511e-06 -8.32876580114e-05 -0.000759065370234)
(-1.06999003137e-07 -8.37438287287e-05 -0.000761160228942)
(9.55981725937e-06 -8.33004891442e-05 -0.000759147413922)
(1.90477452307e-05 -8.19696518893e-05 -0.000753015333957)
(2.81831245608e-05 -7.97861192301e-05 -0.000742729612036)
(3.68012794781e-05 -7.68030404718e-05 -0.000728239884878)
(4.47477141697e-05 -7.30830295092e-05 -0.000709485448664)
(5.18719291355e-05 -6.8654248716e-05 -0.00068639452022)
(5.78733667122e-05 -6.3689117802e-05 -0.000658419301115)
(-5.80085256179e-05 -6.33771059047e-05 -0.000710536723718)
(-5.187740927e-05 -6.76156042044e-05 -0.000739225032016)
(-4.47046185241e-05 -7.1370579853e-05 -0.000762942424678)
(-3.67488211961e-05 -7.45293979233e-05 -0.000782201248282)
(-2.81602124911e-05 -7.70655060491e-05 -0.000797066905543)
(-1.90855496541e-05 -7.89236933338e-05 -0.000807622608409)
(-9.68173251711e-06 -8.00594696422e-05 -0.000813940836824)
(-1.10697510079e-07 -8.04452170107e-05 -0.000816070158531)
(9.46178428877e-06 -8.00714569027e-05 -0.000814027944743)
(1.88699535827e-05 -7.89474610488e-05 -0.000807796941291)
(2.79518652423e-05 -7.71005750659e-05 -0.000797327590883)
(3.65505803795e-05 -7.45749180557e-05 -0.000782545433931)
(4.45191735422e-05 -7.14252532601e-05 -0.000763365171311)
(5.17075140279e-05 -6.76787704171e-05 -0.000739730887648)
(5.78597497482e-05 -6.34458941672e-05 -0.000711138236211)
(-5.73034922441e-05 -6.22684488416e-05 -0.000758705519833)
(-5.11075249276e-05 -6.56753187822e-05 -0.000787892264319)
(-4.39427062405e-05 -6.86376278922e-05 -0.000812049161713)
(-3.60434779822e-05 -7.11440417046e-05 -0.000831580899561)
(-2.7570589146e-05 -7.31497029936e-05 -0.0008466012213)
(-1.86617126888e-05 -7.46131055504e-05 -0.000857240191168)
(-9.46138016363e-06 -7.55047173286e-05 -0.00086359908301)
(-1.14149542403e-07 -7.58074688807e-05 -0.000865741705967)
(9.23444316992e-06 -7.55156133944e-05 -0.00086369088454)
(1.84388608612e-05 -7.46347890549e-05 -0.000857424278776)
(2.73545675623e-05 -7.31819043049e-05 -0.000846877379419)
(3.58370496706e-05 -7.1186248749e-05 -0.000831946886874)
(4.3748519441e-05 -6.86890124085e-05 -0.00081249940382)
(5.0928513107e-05 -6.57356143332e-05 -0.000788429753907)
(5.71448604752e-05 -6.23352021019e-05 -0.000759341659616)
(-5.60524615375e-05 -6.07565802273e-05 -0.000801253924954)
(-4.98425177524e-05 -6.28742631602e-05 -0.000831651630851)
(-4.26732484313e-05 -6.49619731021e-05 -0.000856109907576)
(-3.48970021892e-05 -6.67115609354e-05 -0.000875739313773)
(-2.66315138172e-05 -6.8093965476e-05 -0.000890782073466)
(-1.79973210251e-05 -6.90921986447e-05 -0.000901418063031)
(-9.1186376745e-06 -6.96966282487e-05 -0.000907769314592)
(-1.17354231861e-07 -6.99018709204e-05 -0.000909909393757)
(8.88520127112e-06 -6.97061040341e-05 -0.000907864832175)
(1.77677134558e-05 -6.91111368212e-05 -0.000901610103724)
(2.64083152775e-05 -6.81222779818e-05 -0.000891071541756)
(3.46828488401e-05 -6.67490786502e-05 -0.000876125791088)
(4.24707515546e-05 -6.50082938579e-05 -0.000856588330652)
(4.96551614512e-05 -6.2929903205e-05 -0.000832227802879)
(5.58835100114e-05 -6.08193067231e-05 -0.00080190941037)
(3.05837101033e-08 5.14558937101e-08 -2.68083920003e-05)
(1.49490736126e-08 7.04051559811e-08 -2.80271646924e-05)
(2.6030151637e-09 8.23629776579e-08 -2.90603557285e-05)
(-4.54984859954e-09 8.87607833009e-08 -2.99144650006e-05)
(-7.80882815489e-09 9.17592529417e-08 -3.0587966026e-05)
(-7.10452411416e-09 9.26809081103e-08 -3.1074946193e-05)
(-3.60869486831e-09 9.27673572328e-08 -3.13704854348e-05)
(1.36036083681e-09 9.28004137465e-08 -3.14709682958e-05)
(6.26184370396e-09 9.30323940537e-08 -3.13720271803e-05)
(9.56605156922e-09 9.3198795521e-08 -3.10780242983e-05)
(1.00005144311e-08 9.25143112253e-08 -3.05925823582e-05)
(6.4883938848e-09 8.97423230971e-08 -2.99206697425e-05)
(-8.62093585216e-10 8.35405071494e-08 -2.90683437247e-05)
(-1.33177161753e-08 7.1767097251e-08 -2.80376538745e-05)
(-2.9217036551e-08 5.27784906413e-08 -2.68236963539e-05)
(2.78365675693e-07 3.50965954716e-07 -8.07178667114e-05)
(2.30576126708e-07 4.37758330818e-07 -8.43434845774e-05)
(1.8120106869e-07 5.07746799271e-07 -8.74153651307e-05)
(1.37803475466e-07 5.6069431079e-07 -8.99493720703e-05)
(9.83557638339e-08 5.99488366888e-07 -9.1942930071e-05)
(6.37604336435e-08 6.25574579941e-07 -9.33821870603e-05)
(3.26546316434e-08 6.40692527726e-07 -9.42544193309e-05)
(3.38985978096e-09 6.45909423569e-07 -9.45498655304e-05)
(-2.60341746666e-08 6.41560568679e-07 -9.42592332937e-05)
(-5.75757002979e-08 6.27298839566e-07 -9.33917928877e-05)
(-9.27481473652e-08 6.0203350418e-07 -9.1957326252e-05)
(-1.32689749374e-07 5.64023626863e-07 -8.99686967645e-05)
(-1.76367915319e-07 5.11728849968e-07 -8.74401779649e-05)
(-2.25822547892e-07 4.42295286169e-07 -8.43758580387e-05)
(-2.74082488459e-07 3.55536542114e-07 -8.07632567234e-05)
(6.73958624253e-07 8.08054899172e-07 -0.000134574924229)
(5.91152125783e-07 9.80658233555e-07 -0.00014058397541)
(4.94443970213e-07 1.1289814878e-06 -0.000145670203363)
(3.97436062003e-07 1.24843596082e-06 -0.000149860315082)
(2.985532883e-07 1.34069689858e-06 -0.000153151724987)
(2.00378793022e-07 1.40584246651e-06 -0.000155525308474)
(1.02860920522e-07 1.44481464149e-06 -0.000156962272651)
(5.72485574245e-09 1.45820198557e-06 -0.000157447980828)
(-9.16248240431e-08 1.44615820269e-06 -0.000156970549693)
(-1.8974275914e-07 1.40852083275e-06 -0.000155541813799)
(-2.88762029394e-07 1.34467672321e-06 -0.000153176428176)
(-3.88484875308e-07 1.25363348112e-06 -0.000149893380352)
(-4.86158790233e-07 1.13516676448e-06 -0.000145712400163)
(-5.83329646447e-07 9.87558589761e-07 -0.000140638288828)
(-6.67098100052e-07 8.14915071415e-07 -0.000134649083099)
(1.15799813492e-06 1.35634775641e-06 -0.000188209827208)
(1.03626368094e-06 1.61775414112e-06 -0.000196559897229)
(8.84734606305e-07 1.84869339169e-06 -0.000203618287377)
(7.229487952e-07 2.03894890659e-06 -0.000209426298441)
(5.50704300282e-07 2.18861690023e-06 -0.000213982500233)
(3.72799010484e-07 2.29597111533e-06 -0.000217264791125)
(1.91228683857e-07 2.36081792785e-06 -0.000219250055698)
(7.82748946922e-09 2.38304670081e-06 -0.000219920129277)
(-1.75814708328e-07 2.36255874258e-06 -0.00021926192517)
(-3.58067410995e-07 2.29944158864e-06 -0.000217288440706)
(-5.36956502666e-07 2.19377412113e-06 -0.000214017835712)
(-7.10241193638e-07 2.04566930888e-06 -0.000209473427883)
(-8.72958010185e-07 1.85668618799e-06 -0.000203677999216)
(-1.02526413965e-06 1.62663723741e-06 -0.000196635611061)
(-1.1484068629e-06 1.36522858664e-06 -0.000188310549099)
(1.67145146574e-06 1.93018605971e-06 -0.000241465158304)
(1.50736215706e-06 2.27048817645e-06 -0.000252094232816)
(1.29760042432e-06 2.57473696692e-06 -0.000261064160676)
(1.06678950904e-06 2.82728960535e-06 -0.000268436716015)
(8.16674324275e-07 3.02719631982e-06 -0.000274213193919)
(5.54397545796e-07 3.17132640386e-06 -0.000278370559421)
(2.84144514566e-07 3.25864503401e-06 -0.000280883037208)
(9.88432398036e-09 3.28852241248e-06 -0.000281730205026)
(-2.64627688765e-07 3.26068889449e-06 -0.000280898645964)
(-5.35599944596e-07 3.17539928569e-06 -0.000278401626636)
(-7.98942894644e-07 3.03323754212e-06 -0.000274259509168)
(-1.0502574586e-06 2.83514432903e-06 -0.00026849822037)
(-1.28225305676e-06 2.58406452506e-06 -0.000261141445137)
(-1.49313157752e-06 2.28085174467e-06 -0.000252190798362)
(-1.65904732967e-06 1.94062082567e-06 -0.000241590670919)
(2.17212139284e-06 2.48280070525e-06 -0.000294182685107)
(1.96322520054e-06 2.88443789675e-06 -0.000307007225313)
(1.6950356744e-06 3.24455568731e-06 -0.000317808323381)
(1.39605434879e-06 3.54350846016e-06 -0.000326676028395)
(1.07027547871e-06 3.78016491119e-06 -0.000333616238654)
(7.26983071514e-07 3.9508354458e-06 -0.000338606731493)
(3.72289210382e-07 4.05422193781e-06 -0.000341620519141)
(1.18918447523e-08 4.08953777622e-06 -0.0003426360108)
(-3.48758600528e-07 4.05647843311e-06 -0.000341640031832)
(-7.04185685388e-07 3.95532662992e-06 -0.000338645522292)
(-1.04859350419e-06 3.78681112871e-06 -0.000333673916003)
(-1.37569654679e-06 3.55213044534e-06 -0.000326752240865)
(-1.67608599199e-06 3.25478480387e-06 -0.00031790325595)
(-1.94571250157e-06 2.89582478105e-06 -0.000307124241619)
(-2.15683102867e-06 2.49434402565e-06 -0.000294331883828)
(2.62876881918e-06 2.98000208115e-06 -0.000346201526605)
(2.37397635527e-06 3.42123168117e-06 -0.000361114955202)
(2.05003198638e-06 3.81539847946e-06 -0.000373646552679)
(1.68779146447e-06 4.1411579704e-06 -0.000383924063167)
(1.29352855816e-06 4.39807806323e-06 -0.000391959803616)
(8.78210470834e-07 4.58287382451e-06 -0.000397733575599)
(4.4936863854e-07 4.6945964136e-06 -0.000401218231344)
(1.38178983763e-08 4.73270205939e-06 -0.000402391838895)
(-4.21979612185e-07 4.69697972927e-06 -0.000401241835787)
(-8.51546603848e-07 4.58761325954e-06 -0.000397780439147)
(-1.26800136745e-06 4.40508535901e-06 -0.000392029285347)
(-1.66368275093e-06 4.1502343342e-06 -0.000384015391058)
(-2.02752660237e-06 3.82616647997e-06 -0.000373759320554)
(-2.35319578309e-06 3.43323546692e-06 -0.000361252286531)
(-2.61054821491e-06 2.99225115732e-06 -0.000346373848567)
(3.01925242782e-06 3.39792162345e-06 -0.000397355326389)
(2.71922652533e-06 3.85556831773e-06 -0.000414226567756)
(2.34472859743e-06 4.26065622477e-06 -0.000428367625714)
(1.92725376041e-06 4.59282076474e-06 -0.000439954586352)
(1.47516927893e-06 4.85308003728e-06 -0.000449007151302)
(1.00049617298e-06 5.03938479479e-06 -0.000455507420198)
(5.11562316071e-07 5.15165329106e-06 -0.000459428569882)
(1.56270680632e-08 5.18989112092e-06 -0.000460748841023)
(-4.80543579005e-07 5.15408003569e-06 -0.000459456498679)
(-9.7017882351e-07 5.04420879371e-06 -0.000455562794435)
(-1.44598231647e-06 4.86020868593e-06 -0.000449089007691)
(-1.89953668949e-06 4.602052607e-06 -0.000440061608275)
(-2.31875381819e-06 4.27161908519e-06 -0.000428498658582)
(-2.69520317789e-06 3.86782928213e-06 -0.000414384465121)
(-2.99807137356e-06 3.41050719669e-06 -0.000397550796829)
(3.32973745515e-06 3.72216934762e-06 -0.000447465946815)
(2.98702148985e-06 4.17384503417e-06 -0.000466137424804)
(2.56928314651e-06 4.56780825737e-06 -0.000481747271879)
(2.1068333728e-06 4.88739423659e-06 -0.00049453036874)
(1.60972517258e-06 5.13556024676e-06 -0.000504512567441)
(1.09033064128e-06 5.31204889684e-06 -0.000511677100554)
(5.57153281825e-07 5.41794591542e-06 -0.000515997299068)
(1.7292903642e-08 5.45396449378e-06 -0.000517451811735)
(-5.2278629603e-07 5.42033909591e-06 -0.000516029834573)
(-1.05662582143e-06 5.31680892566e-06 -0.000511741522308)
(-1.57711682312e-06 5.14259998077e-06 -0.000504607528496)
(-2.07570802401e-06 4.89652419371e-06 -0.000494653902115)
(-2.53998581316e-06 4.57867311898e-06 -0.000481897348332)
(-2.95984598585e-06 4.18604374878e-06 -0.000466316674228)
(-3.30560532607e-06 3.73477364613e-06 -0.000447685256159)
(3.55361780476e-06 3.94661294519e-06 -0.000496331782808)
(3.17259323472e-06 4.37227177989e-06 -0.000516616998109)
(2.72050163444e-06 4.73586352171e-06 -0.000533537997322)
(2.22468280676e-06 5.02680194898e-06 -0.000547394959282)
(1.69628659539e-06 5.25017704297e-06 -0.00055821430462)
(1.14736107414e-06 5.40773938964e-06 -0.000565977451349)
(5.86036058473e-07 5.50177838682e-06 -0.000570657262905)
(1.87904005941e-08 5.53372665994e-06 -0.000572232956893)
(-5.48653262226e-07 5.50406523805e-06 -0.000570694741081)
(-1.11058728917e-06 5.41229283708e-06 -0.000566051577819)
(-1.66054756722e-06 5.25692800762e-06 -0.000558323311992)
(-2.1903921303e-06 5.03558394471e-06 -0.000547536150642)
(-2.68806320382e-06 4.74635854763e-06 -0.000533708369443)
(-3.14237619231e-06 4.38412769333e-06 -0.00051681906607)
(-3.5265845102e-06 3.95895636345e-06 -0.000496576456813)
(3.69013804676e-06 4.07178182364e-06 -0.000543707647983)
(3.27671858342e-06 4.45457420426e-06 -0.000565390267824)
(2.80019681515e-06 4.7722995958e-06 -0.000583455421946)
(2.2831976189e-06 5.02224956332e-06 -0.000598262354965)
(1.73724409145e-06 5.21153604775e-06 -0.00060982565486)
(1.1734717918e-06 5.34372778532e-06 -0.000618120818768)
(5.99235343032e-07 5.42212074706e-06 -0.000623120001565)
(2.01013487319e-08 5.44872798543e-06 -0.000624803526058)
(-5.59206860983e-07 5.42423499806e-06 -0.000623162811181)
(-1.13398538993e-06 5.34794890626e-06 -0.0006182054394)
(-1.69870500185e-06 5.21781971115e-06 -0.000609949904657)
(-2.24603233891e-06 5.03047043608e-06 -0.00059842276763)
(-2.76484896839e-06 4.78218891576e-06 -0.000583647932394)
(-3.24363053433e-06 4.46583783678e-06 -0.000565617420243)
(-3.66028756498e-06 4.08363030516e-06 -0.000543980252288)
(3.742812078e-06 4.10312069688e-06 -0.000589270529303)
(3.30417169638e-06 4.42957310016e-06 -0.000612112842297)
(2.81372926004e-06 4.69009558439e-06 -0.000631164515078)
(2.28766800561e-06 4.89081540553e-06 -0.000646807550688)
(1.7371271709e-06 5.04033352328e-06 -0.000659026119503)
(1.17194015265e-06 5.14348106843e-06 -0.000667787924749)
(5.98459265358e-07 5.20414541436e-06 -0.000673066319868)
(2.12076546517e-08 5.22472661285e-06 -0.000674844273757)
(-5.56190151261e-07 5.20602317155e-06 -0.000673114884721)
(-1.13013637337e-06 5.14724594727e-06 -0.000667883940637)
(-1.69615829474e-06 5.04598071676e-06 -0.00065916707086)
(-2.24795520014e-06 4.89827338204e-06 -0.000646989235017)
(-2.77574447355e-06 4.69916222095e-06 -0.000631381695275)
(-3.26841685873e-06 4.44003045903e-06 -0.000612368141302)
(-3.71027744543e-06 4.11427162932e-06 -0.000589574732814)
(3.71767842498e-06 4.04838427787e-06 -0.000632560991583)
(3.2624271341e-06 4.30848218324e-06 -0.000656348457926)
(2.76892856206e-06 4.50507030208e-06 -0.000676276406419)
(2.24523123942e-06 4.65257394345e-06 -0.000692663746278)
(1.70170489254e-06 4.76022089969e-06 -0.000705455365482)
(1.14677350119e-06 4.83324278594e-06 -0.000714619512971)
(5.85749467406e-07 4.87568897043e-06 -0.000720136781158)
(2.20930630902e-08 4.89007162559e-06 -0.000721995604355)
(-5.41680621014e-07 4.87727364015e-06 -0.000720191500992)
(-1.10308120813e-06 4.83644403143e-06 -0.000714727836621)
(-1.65871546067e-06 4.76507673467e-06 -0.000705614653028)
(-2.20334935414e-06 4.65908370154e-06 -0.000692869256462)
(-2.72863502252e-06 4.51312596195e-06 -0.000676521589379)
(-3.22427763734e-06 4.31794799411e-06 -0.000656635560279)
(-3.68264571889e-06 4.0586711009e-06 -0.000632900696336)
(3.62374507388e-06 3.91606299621e-06 -0.000672883268822)
(3.16250654436e-06 4.10658640822e-06 -0.000697592036101)
(2.67608330622e-06 4.23577534775e-06 -0.000718379144576)
(2.16418554124e-06 4.32985367272e-06 -0.000735432615129)
(1.63722330026e-06 4.39628405269e-06 -0.000748711764385)
(1.10216131923e-06 4.43997514717e-06 -0.000758209632655)
(5.63205074551e-07 4.46478867405e-06 -0.000763922784848)
(2.27416160553e-08 4.47318663385e-06 -0.000765848007289)
(-5.17807564342e-07 4.46603840082e-06 -0.00076398389368)
(-1.05705240076e-06 4.44253288132e-06 -0.000758330911375)
(-1.59267283581e-06 4.4002330289e-06 -0.000748890851416)
(-2.12055881334e-06 4.3352740275e-06 -0.000735664823674)
(-2.63386411978e-06 4.24264956675e-06 -0.00071865675549)
(-3.12228576e-06 4.1149087591e-06 -0.00069791528452)
(-3.58644232639e-06 3.92538472849e-06 -0.000673261021677)
(3.47182123298e-06 3.74857160829e-06 -0.000709267580715)
(3.01830373374e-06 3.83861207393e-06 -0.000735574710941)
(2.54379999594e-06 3.90116222875e-06 -0.000757135004861)
(2.05104330094e-06 3.94286428932e-06 -0.000774710100272)
(1.54855554172e-06 3.96910160692e-06 -0.000788355245232)
(1.04138225552e-06 3.98444023687e-06 -0.000798100799036)
(5.32484323062e-07 3.99233389017e-06 -0.000803958975226)
(2.31453123358e-08 3.99501274777e-06 -0.000805933678022)
(-4.86243944574e-07 3.9932504445e-06 -0.000804026097692)
(-9.95332077677e-07 3.98633435353e-06 -0.000798234459544)
(-1.50291403036e-06 3.97209238663e-06 -0.000788553873912)
(-2.00614339841e-06 3.94706794095e-06 -0.000774970217523)
(-2.5000859521e-06 3.90666433432e-06 -0.000757448656278)
(-2.97642601905e-06 3.84556765576e-06 -0.000735943501527)
(-3.43240214352e-06 3.75675170543e-06 -0.000709674514156)
(-1.5545998804e-08 -2.76697745678e-08 -2.93507483928e-05)
(-8.47492410927e-09 -3.7134862334e-08 -3.06851622187e-05)
(-4.01603908616e-09 -4.29810837314e-08 -3.18118220599e-05)
(-1.16412796598e-09 -4.66614764892e-08 -3.27432191111e-05)
(3.43828324044e-10 -4.89216968061e-08 -3.34770316758e-05)
(6.25093314674e-10 -5.01745823802e-08 -3.40074944497e-05)
(8.94844234907e-11 -5.07898118383e-08 -3.43293986413e-05)
(-8.53367214819e-10 -5.09964128126e-08 -3.44389490046e-05)
(-1.7406653782e-09 -5.08636945581e-08 -3.43314030863e-05)
(-2.1038845952e-09 -5.03069822717e-08 -3.40114934448e-05)
(-1.55020077991e-09 -4.90873155677e-08 -3.34830132038e-05)
(2.56716117996e-10 -4.68263794594e-08 -3.27512038211e-05)
(3.45014541892e-09 -4.30430437919e-08 -3.18219675114e-05)
(8.25881759621e-09 -3.70608743542e-08 -3.06981895535e-05)
(1.56180856324e-08 -2.74021883668e-08 -2.93691915786e-05)
(-7.22574564883e-08 -1.05487411536e-07 -8.81755841832e-05)
(-5.24298320384e-08 -1.35047997359e-07 -9.21240394604e-05)
(-3.72689521469e-08 -1.56270921914e-07 -9.54585461589e-05)
(-2.56561536595e-08 -1.71451359363e-07 -9.8207809334e-05)
(-1.68938828174e-08 -1.82053497273e-07 -0.000100368803024)
(-1.06607164412e-08 -1.88904219522e-07 -0.000101928343549)
(-6.11576287468e-09 -1.9275624947e-07 -0.000102873333361)
(-2.39835752962e-09 -1.94083063758e-07 -0.000103193691109)
(1.4622072708e-09 -1.93019233116e-07 -0.000102879469828)
(6.44236193656e-09 -1.89381959334e-07 -0.000101940584207)
(1.33590534063e-08 -1.82664327857e-07 -0.000100387109616)
(2.29050466389e-08 -1.72073403862e-07 -9.82322374799e-05)
(3.53748347408e-08 -1.56630759092e-07 -9.54895487211e-05)
(5.14341101229e-08 -1.35048854362e-07 -9.21636963585e-05)
(7.20927235221e-08 -1.05040922538e-07 -8.82298040927e-05)
(-1.52695474364e-07 -2.04440409019e-07 -0.000146606823222)
(-1.20992618529e-07 -2.55144546932e-07 -0.000153108914211)
(-9.36764215646e-08 -2.94540541448e-07 -0.00015859522772)
(-7.03938678094e-08 -3.24438658779e-07 -0.000163110314438)
(-5.02408127344e-08 -3.46367226951e-07 -0.000166653035232)
(-3.28796640478e-08 -3.61214429836e-07 -0.000169206288294)
(-1.74013633775e-08 -3.69810146523e-07 -0.000170751595938)
(-2.85621594848e-09 -3.72688748544e-07 -0.000171274330368)
(1.18432644469e-08 -3.70008260421e-07 -0.000170762029406)
(2.77867506414e-08 -3.61579484039e-07 -0.000169227079918)
(4.58773794569e-08 -3.46845574532e-07 -0.00016668407712)
(6.68786106918e-08 -3.24926453614e-07 -0.000163151619592)
(9.10837455383e-08 -2.9478829224e-07 -0.00015864737671)
(1.19359866957e-07 -2.5506866227e-07 -0.000153174864198)
(1.52034792436e-07 -2.03927980003e-07 -0.000146694885715)
(-2.41818845652e-07 -3.09148729552e-07 -0.000204450249703)
(-1.99307154916e-07 -3.78880598404e-07 -0.00021342706791)
(-1.59694087086e-07 -4.35352467929e-07 -0.000220991193777)
(-1.23773790573e-07 -4.79478097179e-07 -0.000227206150015)
(-9.06245117168e-08 -5.12601999837e-07 -0.000232074934074)
(-6.00260064396e-08 -5.35489502359e-07 -0.0002355795002)
(-3.11657613706e-08 -5.48919569449e-07 -0.000237698341666)
(-3.17083147789e-09 -5.53392539947e-07 -0.000238414010058)
(2.49751294293e-08 -5.49060304773e-07 -0.000237713126725)
(5.42846132043e-08 -5.35751004113e-07 -0.000235608935348)
(8.55828207333e-08 -5.12949648591e-07 -0.000232118805051)
(1.19557844798e-07 -4.79836494272e-07 -0.000227264348188)