/*--------------------------------*- C++ -*----------------------------------*\
  =========                 |
  \\      /  F ield         | OpenFOAM: The Open Source CFD Toolbox
   \\    /   O peration     | Website:  https://openfoam.org
    \\  /    A nd           | Version:  7
     \\/     M anipulation  |
\*---------------------------------------------------------------------------*/
FoamFile
{
    version     2.0;
    format      ascii;
    class       surfaceScalarField;
    location    "2.08";
    object      phi;
}
// * * * * * * * * * * * * * * * * * * * * * * * * * * * * * * * * * * * * * //

dimensions      [0 3 -1 0 0 0 0];

internalField   nonuniform List<scalar> 
65775
(
-2.30976203218e-11
-4.79404848758e-09
-1.25105827653e-10
-2.3210837116e-13
-4.10247680097e-11
-5.04362402258e-09
-1.37061136365e-10
-4.95773084429e-11
-5.27156651723e-09
-1.48787542091e-10
-4.85491300201e-11
-5.4683609385e-09
-1.59755542418e-10
-4.00226474383e-11
-5.62630552249e-09
-1.6922076372e-10
-2.58406108338e-11
-5.74221508276e-09
-1.7651391938e-10
-8.17724804313e-12
-5.81493229727e-09
-1.81172381139e-10
1.06923357963e-11
-5.84203898834e-09
-1.82844695529e-10
2.83163259504e-11
-5.81477721034e-09
-1.81127803497e-10
4.24250633678e-11
-5.74191071946e-09
-1.76425967805e-10
5.08589923819e-11
-5.62586858564e-09
-1.69091820181e-10
5.17696252209e-11
-5.46785450039e-09
-1.5958914647e-10
4.30844003622e-11
-5.27103732323e-09
-1.48588062743e-10
2.49760661429e-11
-5.04317826142e-09
-1.36833574975e-10
-4.79372417962e-09
-1.24857775688e-10
1.33619830083e-12
-7.22102455658e-11
-8.86483100115e-09
-5.65297363803e-10
-6.20400166076e-13
-1.28026389454e-10
-9.31863075721e-09
-6.3331884967e-10
-1.53906981972e-10
-9.73822724293e-09
-7.00481619777e-10
-1.51963043852e-10
-1.00967545431e-08
-7.6311099442e-10
-1.26055562926e-10
-1.03830380875e-08
-8.17049668415e-10
-8.1865794418e-11
-1.05919172434e-08
-8.5860307744e-10
-2.61998309313e-11
-1.07225056111e-08
-8.85095082182e-10
3.33271433561e-11
-1.07710486218e-08
-8.94530801984e-10
8.88883303899e-11
-1.07221424409e-08
-8.84966968348e-10
1.32881230493e-10
-1.05912077567e-08
-8.58349870573e-10
1.58523074245e-10
-1.03820271643e-08
-8.16678313195e-10
1.6013202896e-10
-1.00955577458e-08
-7.62631487026e-10
1.33845787994e-10
-9.73697772278e-09
-6.99906585735e-10
7.74646565651e-11
-9.31751001419e-09
-6.32662724148e-10
-8.86394185067e-09
-5.64581925927e-10
3.82349941958e-12
-1.23749557261e-10
-1.21092961464e-08
-1.10598066904e-09
-8.79996215205e-13
-2.13401070576e-10
-1.27111278939e-08
-1.24714544545e-09
-2.55538369023e-10
-1.32668774804e-08
-1.38592493299e-09
-2.52812534819e-10
-1.3736554381e-08
-1.51454431101e-09
-2.10331658369e-10
-1.41091809023e-08
-1.62474666371e-09
-1.37065789022e-10
-1.43792800445e-08
-1.70932555149e-09
-4.43380118257e-11
-1.45475263876e-08
-1.7630850019e-09
5.49101255883e-11
-1.461001207e-08
-1.78217275161e-09
1.47498649791e-10
-1.45470138713e-08
-1.76289493059e-09
2.2049887133e-10
-1.43782839956e-08
-1.70894854875e-09
2.62608072127e-10
-1.41077683973e-08
-1.62419181295e-09
2.64854763018e-10
-1.37348688991e-08
-1.51382512615e-09
2.22112160151e-10
-1.32651088555e-08
-1.38505895391e-09
1.31613717614e-10
-1.27094720683e-08
-1.24615255902e-09
-1.21079127393e-08
-1.10489189198e-09
5.82686238866e-12
-1.74694823119e-10
-1.45017383372e-08
-1.67310105655e-09
-1.0161043991e-12
-2.94993170127e-10
-1.51946549797e-08
-1.89061329132e-09
-3.52106363583e-10
-1.58274958983e-08
-2.10266444352e-09
-3.48394825561e-10
-1.63563236269e-08
-2.29760484017e-09
-2.90315830308e-10
-1.6772691905e-08
-2.46350846631e-09
-1.89670396175e-10
-1.70724689533e-08
-2.59018723522e-09
-6.20095834567e-11
-1.7258535627e-08
-2.6704082602e-09
7.47047777696e-11
-1.73276750556e-08
-2.69881876061e-09
2.02219695998e-10
-1.72579382374e-08
-2.6701800883e-09
3.02582197336e-10
-1.70713112604e-08
-2.58973377662e-09
3.60252537856e-10
-1.67710551642e-08
-2.46283886193e-09
3.63421148129e-10
-1.63543590388e-08
-2.29673300427e-09
3.05599245086e-10
-1.58254105611e-08
-2.101609125e-09
1.8430573539e-10
-1.51926322649e-08
-1.88939607247e-09
-1.44999533895e-08
-1.67175631926e-09
7.25120279607e-12
-2.22474075804e-10
-1.60766002588e-08
-2.20903123886e-09
-1.05173371903e-12
-3.71140773047e-10
-1.68095275895e-08
-2.49604989915e-09
-4.41905122368e-10
-1.74678560313e-08
-2.77296614419e-09
-4.3702968466e-10
-1.80116449561e-08
-3.02527532675e-09
-3.64445866739e-10
-1.84363112778e-08
-3.23844941079e-09
-2.38540505441e-10
-1.87400836867e-08
-3.40033502238e-09
-7.873094535e-11
-1.89280210401e-08
-3.50246049757e-09
9.24475874687e-11
-1.89979531124e-08
-3.53854517295e-09
2.52119802723e-10
-1.89273938109e-08
-3.50221467416e-09
3.77753933561e-10
-1.87388703671e-08
-3.39984564782e-09
4.49934885345e-10
-1.84345966504e-08
-3.23772466538e-09
4.54259684054e-10
-1.80095751752e-08
-3.02432794418e-09
3.82758345513e-10
-1.74656282454e-08
-2.77181391913e-09
2.33057530462e-10
-1.68073063025e-08
-2.49471319588e-09
-1.60745435705e-08
-2.20754355643e-09
8.12907998446e-12
-2.65700631759e-10
-1.69124302655e-08
-2.67103823594e-09
-1.01745425897e-12
-4.40832003012e-10
-1.76438825275e-08
-3.01526355929e-09
-5.24031434659e-10
-1.82886165768e-08
-3.343825155e-09
-5.17916536032e-10
-1.88149315988e-08
-3.64061941467e-09
-4.31999124964e-10
-1.92225937252e-08
-3.88967514739e-09
-2.83111729909e-10
-1.95124819298e-08
-4.0778568392e-09
-9.41749599265e-11
-1.96913279974e-08
-4.1961535173e-09
1.08192266381e-10
-1.97579914849e-08
-4.23785734767e-09
2.970024309e-10
-1.96907129097e-08
-4.19590295736e-09
4.45635969786e-10
-1.95112925015e-08
-4.07735764528e-09
5.31167769449e-10
-1.92209114897e-08
-3.88893483589e-09
5.36745727188e-10
-1.88128889573e-08
-3.63964977493e-09
4.52816095432e-10
-1.82863896998e-08
-3.34264293303e-09
2.76671843702e-10
-1.76416012276e-08
-3.01388716502e-09
-1.69102145471e-08
-2.66949805706e-09
8.57454715836e-12
-3.04056504115e-10
-1.7112219695e-08
-3.0349659971e-09
-9.43769738269e-13
-5.03758368369e-10
-1.78111444544e-08
-3.4229470729e-09
-5.98289863717e-10
-1.84159776599e-08
-3.78960542701e-09
-5.9096542806e-10
-1.89038327373e-08
-4.11829787449e-09
-4.92908226051e-10
-1.92787438394e-08
-4.39251293505e-09
-3.23286532697e-10
-1.95439765983e-08
-4.59882369929e-09
-1.08188953607e-10
-1.97072202738e-08
-4.72811872982e-09
1.22150227385e-10
-1.97681533022e-08
-4.7735888585e-09
3.37126245976e-10
-1.97066435931e-08
-4.72786953584e-09
5.06501676144e-10
-1.95428607849e-08
-4.59832747228e-09
6.04180498089e-10
-1.92771621453e-08
-4.39177753804e-09
6.109751172e-10
-1.89018994032e-08
-4.11733547411e-09
5.15724563782e-10
-1.8413841115e-08
-3.78843299493e-09
3.15045019518e-10
-1.78089047884e-08
-3.42158183834e-09
-1.71099388499e-08
-3.0334349791e-09
8.72674220434e-12
-3.37934625824e-10
-1.67867070547e-08
-3.29265797288e-09
-8.52387549357e-13
-5.60176461995e-10
-1.74315499284e-08
-3.71243916829e-09
-6.6501577904e-10
-1.79806211386e-08
-4.10574243923e-09
-6.56576072703e-10
-1.84181660102e-08
-4.45607936397e-09
-5.47531131032e-10
-1.87520129239e-08
-4.74696032602e-09
-3.59273349032e-10
-1.89872126349e-08
-4.96505740724e-09
-1.20761379163e-10
-1.91316695712e-08
-5.10137297466e-09
1.3457462329e-10
-1.91856118586e-08
-5.14917746255e-09
3.72961494653e-10
-1.91311434712e-08
-5.10112693219e-09
5.60964984392e-10
-1.89861931507e-08
-4.96456829505e-09
6.69619386556e-10
-1.87505618029e-08
-4.74623743408e-09
6.77516505316e-10
-1.84163780019e-08
-4.45513675059e-09
5.71953147687e-10
-1.79786155408e-08
-4.10459896567e-09
3.48755484633e-10
-1.74293997973e-08
-3.71111223228e-09
-1.67844097167e-08
-3.29117227686e-09
8.7162760925e-12
-3.68051725696e-10
-1.60432080824e-08
-3.4467989462e-09
-7.58708419431e-13
-6.1070530606e-10
-1.66202605059e-08
-3.88891100549e-09
-7.24904753149e-10
-1.71052301142e-08
-4.30015828395e-09
-7.15454456454e-10
-1.7487136847e-08
-4.66456352692e-09
-5.96463746789e-10
-1.77768233799e-08
-4.96595208952e-09
-3.914455283e-10
-1.79803220448e-08
-5.19128966129e-09
-1.31972577653e-10
-1.81050689224e-08
-5.33178394274e-09
1.45701253052e-10
-1.81515862207e-08
-5.38088888441e-09
4.05037346537e-10
-1.81045943619e-08
-5.33154092976e-09
6.09778233792e-10
-1.79793996182e-08
-5.19080781086e-09
7.283462046e-10
-1.77755022191e-08
-4.96524288919e-09
7.37218740477e-10
-1.74854910388e-08
-4.66364407567e-09
6.222674245e-10
-1.71033516995e-08
-4.29905070073e-09
3.78656094657e-10
-1.66181974679e-08
-3.88763406554e-09
-1.60409120782e-08
-3.44537661795e-09
8.64145663464e-12
-3.95141185577e-10
-1.49797779507e-08
-3.50591903964e-09
-6.71850740875e-13
-6.5614877737e-10
-1.54813966006e-08
-3.96333182e-09
-7.78879359656e-10
-1.58989533732e-08
-4.38626857385e-09
-7.68481821946e-10
-1.62243631664e-08
-4.75937824364e-09
-6.40407156809e-10
-1.64703313265e-08
-5.06693643025e-09
-4.20237020291e-10
-1.6642913873e-08
-5.29631165262e-09
-1.41947933572e-10
-1.6748502025e-08
-5.4389717116e-09
1.55725821918e-10
-1.67877081405e-08
-5.48863375481e-09
4.33860007528e-10
-1.67480709706e-08
-5.4387312945e-09
6.53718004427e-10
-1.66420720049e-08
-5.29583635311e-09
7.81321969484e-10
-1.64691147329e-08
-5.06624027513e-09
7.91087449697e-10
-1.62228261869e-08
-4.75848197221e-09
6.67556329885e-10
-1.5897162397e-08
-4.38519837109e-09
4.0556175276e-10
-1.54793785764e-08
-3.96210857879e-09
-1.49774507188e-08
-3.50456743984e-09
8.56900266276e-12
-4.1976150575e-10
-1.36831480388e-08
-3.4807684807e-09
-5.95553395997e-13
-6.97416249958e-10
-1.41059972468e-08
-3.948426135e-09
-8.28044344913e-10
-1.44561615662e-08
-4.3786509716e-09
-8.16646568055e-10
-1.47274291804e-08
-4.75667091259e-09
-6.80082292799e-10
-1.49325869895e-08
-5.06728342927e-09
-4.46071685366e-10
-1.50766545537e-08
-5.29836183376e-09
-1.508217331e-10
-1.51645755264e-08
-5.44170080352e-09
1.64798342515e-10
-1.5196942821e-08
-5.49136246691e-09
4.59871149198e-10
-1.51641728473e-08
-5.44146305157e-09
6.93526982082e-10
-1.50758635636e-08
-5.29789316145e-09
8.29561844971e-10
-1.4931431478e-08
-5.06660033635e-09
8.40260124163e-10
-1.47259449639e-08
-4.75579785292e-09
7.08766588418e-10
-1.44543925311e-08
-4.37761850378e-09
4.30075118092e-10
-1.41039514777e-08
-3.9472575757e-09
-1.36807314758e-08
-3.47949007101e-09
8.53636620733e-12
-4.42250373404e-10
-1.22288721025e-08
-3.38217773561e-09
-5.28624559665e-13
-7.35677738822e-10
-1.2571942342e-08
-3.85652037342e-09
-8.73775050385e-10
-1.28573654639e-08
-4.29095787575e-09
-8.61001076888e-10
-1.30795569724e-08
-4.67112497709e-09
-7.16143428552e-10
-1.32486016351e-08
-4.98242988663e-09
-4.69293011014e-10
-1.33675632067e-08
-5.21339451529e-09
-1.58705039989e-10
-1.34398637609e-08
-5.35623668742e-09
1.73015196392e-10
-1.34660812829e-08
-5.40545285155e-09
4.83401066705e-10
-1.34394692686e-08
-5.35600248663e-09
7.29849526155e-10
-1.33667829656e-08
-5.21293399512e-09
8.7411273028e-10
-1.32474488087e-08
-4.98176159849e-09
8.86111638202e-10
-1.30780525249e-08
-4.67027670834e-09
7.4707338343e-10
-1.28555336192e-08
-4.28996455078e-09
4.52543611844e-10
-1.25697772051e-08
-3.85540803223e-09
-1.22262878552e-08
-3.38097423021e-09
8.55853144043e-12
-4.63468507049e-10
-1.0681761107e-08
-3.22003899803e-09
-4.72185163476e-13
-7.73283227275e-10
-1.09445049386e-08
-3.6987305872e-09
-9.17934862015e-10
-1.11714849895e-08
-4.13526558898e-09
-9.02497092593e-10
-1.13521703926e-08
-4.51544888525e-09
-7.48970011935e-10
-1.14908145649e-08
-4.82551553795e-09
-4.90032215993e-10
-1.15884776569e-08
-5.05484673253e-09
-1.65635211319e-10
-1.16474069821e-08
-5.19620065723e-09
1.80383549889e-10
-1.16682776413e-08
-5.24459595828e-09
5.04552339208e-10
-1.1646994805e-08
-5.19597179877e-09
7.63038730781e-10
-1.15876576816e-08
-5.05439755254e-09
9.15902348443e-10
-1.14895950394e-08
-4.82486589736e-09
9.30485347394e-10
-1.13505588195e-08
-4.51462904042e-09
7.84810652278e-10
-1.11694907831e-08
-4.13431458495e-09
4.73817353294e-10
-1.09421075083e-08
-3.69767828416e-09
-1.06788992461e-08
-3.21891523053e-09
8.61878376831e-12
-4.88663528454e-10
-9.09276459133e-09
-3.00296672711e-09
-4.27528234536e-13
-8.15627818751e-10
-9.27886536587e-09
-3.48500136755e-09
-9.62959822385e-10
-9.45982623481e-09
-3.92214561617e-09
-9.41836921749e-10
-9.60756793686e-09
-4.30050079104e-09
-7.78674178801e-10
-9.72118651849e-09
-4.60761789999e-09
-5.08277389449e-10
-9.80108511505e-09
-4.83397823238e-09
-1.71618728053e-10
-9.84885710613e-09
-4.97297950422e-09
1.86873763956e-10
-9.86520747451e-09
-5.02022991949e-09
5.23278168847e-10
-9.84839598005e-09
-4.97275873643e-09
7.93171509885e-10
-9.80016710894e-09
-4.83354539695e-09
9.55601415866e-10
-9.71981508815e-09
-4.60699315776e-09
9.75787023117e-10
-9.60574846226e-09
-4.29971535086e-09
8.27349614786e-10
-9.45755977619e-09
-3.92124168999e-09
4.99128916235e-10
-9.27611397357e-09
-3.48401485999e-09
-9.08950383256e-09
-3.00193289991e-09
8.73358503064e-12
-5.35673500609e-10
-2.73793151657e-09
-3.79437715506e-13
-7.48803216959e-09
-8.73071071314e-10
-3.22433107598e-09
-7.62868642202e-09
-1.01580266555e-09
-3.66042096287e-09
-7.77828124927e-09
-9.85164790253e-10
-4.03519771272e-09
-7.8999389266e-09
-8.10567809562e-10
-4.33792961946e-09
-7.99330405185e-09
-5.27684788008e-10
-4.56027611605e-09
-8.05926007174e-09
-1.77959216032e-10
-4.69627439414e-09
-8.09849424777e-09
1.93754712812e-10
-4.74213832077e-09
-8.11135672525e-09
5.43198419882e-10
-4.69606560524e-09
-8.09794753024e-09
8.25526469037e-10
-4.55986697085e-09
-8.05817188396e-09
9.99315648506e-10
-4.33733964712e-09
-7.99168177711e-09
1.02892810296e-09
-4.03445705217e-09
-7.89779037735e-09
8.849987159e-10
-3.65957285892e-09
-7.77560772182e-09
5.46270052477e-10
-3.22341161187e-09
-7.62545608788e-09
-2.7370123041e-09
8.86625788914e-12
-7.48423054426e-09
-4.6163144331e-12
3.08892577221e-10
-4.29286276523e-10
1.90540147302e-13
-6.53879430651e-12
3.41371484876e-10
-4.75991413657e-10
-6.6305183926e-12
3.72510901853e-10
-5.20523291445e-10
-5.97771460557e-12
4.01019559207e-10
-5.60754862357e-10
-4.74630888577e-12
4.24696210426e-10
-5.94543951643e-10
-3.1182578899e-12
4.42435064825e-10
-6.20119657472e-10
-1.22384348902e-12
4.53550318735e-10
-6.3629298919e-10
7.66486478371e-13
4.57493572088e-10
-6.42102684487e-10
2.65892318364e-12
4.53425806131e-10
-6.36284662505e-10
4.27329733142e-12
4.42184183727e-10
-6.20103034873e-10
5.46307427601e-12
4.24332667389e-10
-5.94519054961e-10
6.0636029933e-12
4.00611842976e-10
-5.6072140662e-10
5.91641136733e-12
3.72108568592e-10
-5.20480768581e-10
3.99632544281e-12
3.41085970203e-10
-4.75938123934e-10
3.08747282796e-10
-4.29217358431e-10
-3.36821257537e-13
-5.51187139771e-12
8.87007112526e-10
-1.13787071732e-09
4.85158479147e-13
-6.42165323392e-12
9.69236189628e-10
-1.25941381684e-09
-5.25316211432e-12
1.04678380607e-09
-1.37485017678e-09
-3.69946143854e-12
1.11618772261e-09
-1.47877038635e-09
-2.4082642167e-12
1.17307559378e-09
-1.56580849115e-09
-1.5270618811e-12
1.21519743103e-09
-1.63155617806e-09
-9.38097891282e-13
1.24142934908e-09
-1.67306824811e-09
-4.39639296774e-13
1.25076403009e-09
-1.68794921688e-09
1.42248198796e-13
1.24117349212e-09
-1.67304282125e-09
9.89555604587e-13
1.21468425798e-09
-1.63150560504e-09
2.19408906829e-12
1.17233469799e-09
-1.56573293142e-09
3.63168760254e-12
1.11533897884e-09
-1.47866955001e-09
4.70068909204e-12
1.04596521459e-09
-1.37472311748e-09
3.82869956991e-12
9.68647032299e-10
-1.2592565746e-09
8.86718472691e-10
-1.13767380459e-09
-9.69604816418e-13
-1.11693914307e-12
1.50404951835e-09
-1.72211495279e-09
6.92497793999e-13
2.26583953147e-12
1.62606329805e-09
-1.90656498862e-09
5.87419172073e-12
1.73947322099e-09
-2.08125436728e-09
7.93558718564e-12
1.83871454381e-09
-2.23817679729e-09
7.6218908768e-12
1.91884651476e-09
-2.36939609972e-09
5.10582448255e-12
1.97740242709e-09
-2.46840119747e-09
1.10972199387e-12
2.01361231443e-09
-2.53083033616e-09
-3.37772500759e-12
2.02654457287e-09
-2.55315052954e-09
-7.38461494755e-12
2.01330218873e-09
-2.53078666851e-09
-9.94410987251e-12
1.97678569619e-09
-2.46831538327e-09
-1.03592475959e-11
1.91796685668e-09
-2.36926907875e-09
-8.43311373626e-12
1.8377139918e-09
-2.23800901963e-09
-4.92079556361e-12
1.73854047296e-09
-2.08104551829e-09
-1.44773593607e-12
1.62542048238e-09
-1.90631104115e-09
1.50380001463e-09
-1.72180524886e-09
-1.53868269682e-12
6.39746588599e-12
2.02996087517e-09
-2.20577190273e-09
8.30496552187e-13
1.56403648873e-11
2.17125724121e-09
-2.44432886987e-09
2.21236117725e-11
2.30079436295e-09
-2.66959763705e-09
2.42174141231e-11
2.41138450719e-09
-2.87152797538e-09
2.13008846948e-11
2.49907819545e-09
-3.04012205792e-09
1.40576210696e-11
2.5621746951e-09
-3.16718094372e-09
3.96995551347e-12
2.60087684375e-09
-3.24719327738e-09
-7.06730399395e-12
2.61476993513e-09
-3.27572219223e-09
-1.71673640366e-11
2.60056545184e-09
-3.24713220166e-09
-2.4453978661e-11
2.56156162491e-09
-3.16706111621e-09
-2.74655918458e-11
2.49821570811e-09
-3.0399455421e-09
-2.54930174504e-11
2.41041463596e-09
-2.87129679936e-09
-1.90744399559e-11
2.29992028041e-09
-2.66931327759e-09
-9.68216300432e-12
2.17070120681e-09
-2.44398854252e-09
2.02983553167e-09
-2.20536684894e-09
-2.04065420248e-12
1.53664507192e-11
2.39995449289e-09
-2.59486723042e-09
9.13811306406e-13
3.05465959068e-11
2.54015187937e-09
-2.87948180299e-09
3.96119962116e-11
2.66693240289e-09
-3.14740283046e-09
4.12593391455e-11
2.77223084219e-09
-3.38704371873e-09
3.53435307081e-11
2.85395706909e-09
-3.5868098016e-09
2.31468120046e-11
2.91168307982e-09
-3.73718645917e-09
6.89011058224e-12
2.94676420293e-09
-3.83175097402e-09
-1.07189713741e-11
2.95945603543e-09
-3.86537166173e-09
-2.69877084331e-11
2.94647979876e-09
-3.83167263404e-09
-3.92215200705e-11
2.91112912468e-09
-3.73703310091e-09
-4.52143182062e-11
2.85318784185e-09
-3.58658516591e-09
-4.36563128843e-11
2.77138147985e-09
-3.3867522797e-09
-3.46104637608e-11
2.66619604457e-09
-3.14704902637e-09
-1.922628536e-11
2.53974363552e-09
-2.8790656144e-09
2.39998629576e-09
-2.59438290022e-09
-2.47279329085e-12
2.45056336609e-11
2.59934101521e-09
-2.89547720648e-09
9.54017277061e-13
4.48349479271e-11
2.72402400393e-09
-3.21888536192e-09
5.58336167986e-11
2.83510998088e-09
-3.52233944443e-09
5.66652276638e-11
2.92456116159e-09
-3.7931594041e-09
4.78005614279e-11
2.99222229851e-09
-4.01856129036e-09
3.11136457188e-11
3.03894816746e-09
-4.18803696506e-09
9.44293803373e-12
3.06703709443e-09
-4.29445640754e-09
-1.3880327279e-11
3.07732146725e-09
-4.33217475481e-09
-3.55613659606e-11
3.06679027286e-09
-4.29436102926e-09
-5.22763865429e-11
3.03847256755e-09
-4.18785073173e-09
-6.11941131257e-11
2.99157217769e-09
-4.01829015085e-09
-6.04136738747e-11
2.92385683615e-09
-3.79281106782e-09
-4.93845525708e-11
2.83452732404e-09
-3.52192229112e-09
-2.88072574371e-11
2.72375079665e-09
-3.21840299538e-09
2.59950161531e-09
-2.89492720458e-09
-2.83538716874e-12
3.29141023608e-11
2.64459800574e-09
-3.11372188803e-09
9.62362476791e-13
5.72518297773e-11
2.74668797298e-09
-3.469447171e-09
6.9463351878e-11
2.83598219384e-09
-3.80212477437e-09
6.92666474615e-11
2.9053384648e-09
-4.09835350168e-09
5.77863370722e-11
2.9561321328e-09
-4.34450867914e-09
3.74137166531e-11
2.99020054967e-09
-4.52936528862e-09
1.14476979878e-11
3.01040427128e-09
-4.64526193391e-09
-1.63632495067e-11
3.01794016412e-09
-4.68620028941e-09
-4.23369375502e-11
3.01019687624e-09
-4.64515000854e-09
-6.27270855866e-11
2.9898045174e-09
-4.52914732447e-09
-7.42353296968e-11
2.95559786828e-09
-4.34419324997e-09
-7.44438842962e-11
2.90476898247e-09
-4.09795214742e-09
-6.21559946421e-11
2.83553141782e-09
-3.80165050515e-09
-3.75348444466e-11
2.7465186731e-09
-3.46890765102e-09
2.64483300365e-09
-3.11311809946e-09
-3.12653961316e-12
4.00558419116e-11
2.56691034829e-09
-3.25561876228e-09
9.45434764648e-13
6.72561539717e-11
2.64540035686e-09
-3.63791537587e-09
8.00465571768e-11
2.71217378687e-09
-3.99424702683e-09
7.87592077637e-11
2.76178349457e-09
-4.31079791057e-09
6.5132934738e-11
2.79656299606e-09
-4.57339888546e-09
4.19723709929e-11
2.81894401237e-09
-4.7703504889e-09
1.28818329139e-11
2.83196580315e-09
-4.89361886742e-09
-1.81535411745e-11
2.83697158071e-09
-4.9369985531e-09
-4.72482336499e-11
2.83179396286e-09
-4.89349130936e-09
-7.04148819808e-11
2.81861815131e-09
-4.77010270492e-09
-8.40443920477e-11
2.79612732527e-09
-4.57304231665e-09
-8.53057921864e-11
2.76132357336e-09
-4.31034826328e-09
-7.23979930459e-11
2.71181687609e-09
-3.99372230057e-09
-4.48884177464e-11
2.64528386621e-09
-3.63732737744e-09
2.56714640005e-09
-3.25497192896e-09
-3.3511115801e-12
4.56773047091e-11
2.40077777162e-09
-3.32692858675e-09
9.10714244275e-13
7.475424002e-11
2.45848086339e-09
-3.73069190973e-09
8.76484664422e-11
2.50527059059e-09
-4.10575107967e-09
8.5331316555e-11
2.53802381045e-09
-4.43812189661e-09
7.00666512707e-11
2.55952310959e-09
-4.71334244029e-09
4.49649399856e-11
2.57245905349e-09
-4.91945797909e-09
1.380519693e-11
2.57974855745e-09
-5.0482136955e-09
-1.93301053503e-11
2.58270753958e-09
-5.09333659464e-09
-5.04893894982e-11
2.57960694505e-09
-5.0480719038e-09
-7.55847845868e-11
2.57219078798e-09
-4.91918316076e-09
-9.08284236234e-11
2.55916405034e-09
-4.71294895115e-09
-9.30848908782e-11
2.53764078617e-09
-4.43762968035e-09
-8.00369039366e-11
2.50496560026e-09
-4.10518316967e-09
-5.06329750848e-11
2.45836418361e-09
-3.73006404826e-09
2.40095063679e-09
-3.32624876536e-09
-3.51544113271e-12
4.97276264448e-11
2.17765012718e-09
-3.33307316807e-09
8.64175308232e-13
7.98983200237e-11
2.21906206553e-09
-3.75375805888e-09
9.25952562094e-11
2.24982116669e-09
-4.1431842225e-09
8.94010006907e-11
2.26952146524e-09
-4.48738072631e-09
7.29882850689e-11
2.28105817329e-09
-4.77180444225e-09
4.66730286322e-11
2.28711988967e-09
-4.98445005363e-09
1.43119790948e-11
2.29029710884e-09
-5.11699244416e-09
-2.00099334782e-11
2.291757399e-09
-5.16322772935e-09
-5.2364843254e-11
2.29017874288e-09
-5.11683828457e-09
-7.86603187277e-11
2.28689420783e-09
-4.98415181957e-09
-9.50284192352e-11
2.28075134642e-09
-4.77137925675e-09
-9.81295096074e-11
2.2691823597e-09
-4.486852599e-09
-8.52469974815e-11
2.24952560995e-09
-4.14258101757e-09
-5.47348201346e-11
2.2188943539e-09
-3.75309903349e-09
2.17769188209e-09
-3.33236999911e-09
-3.6289567518e-12
5.22936425028e-11
1.92320770305e-09
-3.27913641868e-09
8.1103916675e-13
8.29733673673e-11
1.95294750076e-09
-3.71271519508e-09
9.53418790278e-11
1.97176046393e-09
-4.11268442725e-09
9.14926753476e-11
1.98212876205e-09
-4.46518196742e-09
7.43718027738e-11
1.98686610697e-09
-4.75576014246e-09
4.74196257961e-11
1.98844901648e-09
-4.9725642092e-09
1.45095919139e-11
1.98900288936e-09
-5.10735419472e-09
-2.03223238577e-11
1.98947458098e-09
-5.15413057454e-09
-5.32194681264e-11
1.98889983392e-09
-5.10718994278e-09
-8.01374120021e-11
1.98824975925e-09
-4.97224689407e-09
-9.71904182131e-11
1.98658643191e-09
-4.75530931601e-09
-1.00916649781e-10
1.98179992699e-09
-4.46462532246e-09
-8.83343751049e-11
1.97143424219e-09
-4.11205430225e-09
-5.73009460768e-11
1.95268362157e-09
-3.71203385063e-09
1.92306371527e-09
-3.27841922374e-09
-3.7009319466e-12
5.35439660472e-11
1.65691673205e-09
-3.16991821851e-09
7.51777950272e-13
8.43723351298e-11
1.67873787033e-09
-3.61290619138e-09
9.64672640917e-11
1.68908833588e-09
-4.02015568269e-09
9.22318747407e-11
1.69332495394e-09
-4.37788414633e-09
7.47574655508e-11
1.69398909374e-09
-4.67190540107e-09
4.7562261214e-11
1.69312559469e-09
-4.8907334246e-09
1.45179017856e-11
1.69231061547e-09
-5.02637895918e-09
-2.040480186e-11
1.69222177197e-09
-5.07317991501e-09
-5.34284270784e-11
1.69221449977e-09
-5.02620725995e-09
-8.05742959285e-11
1.69293493295e-09
-4.89040199327e-09
-9.79581119097e-11
1.69371026355e-09
-4.67143567366e-09
-1.02043000032e-10
1.69297328678e-09
-4.37730690364e-09
-8.97092444142e-11
1.68869353847e-09
-4.0195073492e-09
-5.85162888885e-11
1.67833859689e-09
-3.61221171798e-09
1.65654856839e-09
-3.16919631802e-09
-3.74079012365e-12
5.37556004458e-11
1.39266898002e-09
-3.010001266e-09
6.90432303278e-13
8.47440928755e-11
1.40881732439e-09
-3.45960446214e-09
9.68278994225e-11
1.4134134197e-09
-3.87149099084e-09
9.24531254906e-11
1.41420984013e-09
-4.23179646771e-09
7.48132834572e-11
1.41309002833e-09
-4.52683765921e-09
4.7528339507e-11
1.41144783321e-09
-4.74576157071e-09
1.44771670963e-11
1.41026036273e-09
-4.8810034921e-09
-2.04092867197e-11
1.40996400989e-09
-4.92736329279e-09
-5.34316285498e-11
1.41016044453e-09
-4.88082738881e-09
-8.06513157161e-11
1.41124601167e-09
-4.74542166811e-09
-9.81782014695e-11
1.412785528e-09
-4.52635648666e-09
-1.02377160094e-10
1.41380310991e-09
-4.23120698691e-09
-9.00318193509e-11
1.41291351739e-09
-3.8708333406e-09
-5.86676919249e-11
1.40824307696e-09
-3.45890682912e-09
1.39203995343e-09
-3.0092855757e-09
-3.75318993663e-12
5.35323140346e-11
1.13955417182e-09
-2.80380008681e-09
6.30038336425e-13
8.53039089739e-11
1.15054517842e-09
-3.25834175252e-09
9.77516121161e-11
1.15178208753e-09
-3.67281474526e-09
9.3294909822e-11
1.15160901681e-09
-4.03330875735e-09
7.53924959511e-11
1.15063871779e-09
-4.3271453669e-09
4.78362795987e-11
1.14952881012e-09
-4.54440672114e-09
1.45669374873e-11
1.14874682204e-09
-4.67810703939e-09
-2.05221542903e-11
1.14850007569e-09
-4.72360833436e-09
-5.37538689146e-11
1.14863127404e-09
-4.67793010943e-09
-8.12275138977e-11
1.14929311609e-09
-4.54406497405e-09
-9.89957939461e-11
1.15027551285e-09
-4.32666135558e-09
-1.0325417048e-10
1.15111013728e-09
-4.03271612021e-09
-9.05260015715e-11
1.15114220604e-09
-3.67215650651e-09
-5.83680114994e-11
1.14975812556e-09
-3.2576515372e-09
1.13862178895e-09
-2.8031049475e-09
-3.74533986534e-12
5.2721711648e-11
-2.55645740178e-09
5.6302918215e-13
9.04985048042e-10
8.75555256745e-11
-3.01630414479e-09
9.07818985793e-10
1.00692326344e-10
-3.43096378123e-09
9.09314016577e-10
9.59700816215e-11
-3.78905000975e-09
9.10293033678e-10
7.74438760729e-11
-4.07943151946e-09
9.10765287736e-10
4.91145204311e-11
-4.29332859179e-09
9.10999429684e-10
1.49959583015e-11
-4.42441383186e-09
9.1107672788e-10
-2.0955110163e-11
-4.4686699258e-09
9.11049092223e-10
-5.50265667695e-11
-4.42424058791e-09
9.10929509338e-10
-8.32554570701e-11
-4.29299366358e-09
9.10701772317e-10
-1.01623763722e-10
-4.07895635509e-09
9.10307292586e-10
-1.0612363183e-10
-3.78846673916e-09
9.09662699246e-10
-9.26919993169e-11
-3.43031639112e-09
9.0849247742e-10
-5.7468959868e-11
-3.0156270202e-09
9.06785778609e-10
-2.55581049719e-09
-3.71569262813e-12
9.03699439523e-10
4.2435683034e-12
-6.45653190891e-11
-3.68973647968e-10
-6.73578076863e-14
6.50336379525e-12
-7.19837996479e-11
-4.06422907177e-10
7.43199624892e-12
-7.97030416249e-11
-4.41935162814e-10
7.21701958139e-12
-8.68145458106e-11
-4.73896432332e-10
5.97680504628e-12
-9.28035695358e-11
-5.00650066892e-10
3.91753432652e-12
-9.73218794655e-11
-5.20846950671e-10
1.31798483086e-12
-1.00161412307e-10
-5.33601529845e-10
-1.47493106315e-12
-1.01161885552e-10
-5.3818970498e-10
-4.06704518758e-12
-1.00128404387e-10
-5.33588552689e-10
-6.10883210293e-12
-9.72545118425e-11
-5.20821357968e-10
-7.3186635017e-12
-9.27053894249e-11
-5.00612580742e-10
-7.49584424136e-12
-8.67022181402e-11
-4.73847985357e-10
-6.51910144546e-12
-7.95848607833e-11
-4.41876490305e-10
-4.21565411533e-12
-7.18906960214e-11
-4.06353502085e-10
-6.4519188478e-11
-3.68888875726e-10
-2.62469520997e-14
9.45957398523e-12
-1.48249350497e-10
-1.063622675e-09
-1.64324759382e-13
1.49686217955e-11
-1.63396598102e-10
-1.17376245594e-09
1.73050177242e-11
-1.78949028953e-10
-1.2782277262e-09
1.6859445294e-11
-1.93182235323e-10
-1.37222426398e-09
1.39752030647e-11
-2.05039624418e-10
-1.45090986485e-09
9.16236790236e-12
-2.13905669469e-10
-1.51031958052e-09
3.0902228795e-12
-2.19446744191e-10
-1.5478147713e-09
-3.42928389622e-12
-2.21400720462e-10
-1.56125464091e-09
-9.4832803317e-12
-2.19377928058e-10
-1.54777698449e-09
-1.42548554811e-11
-2.1376595364e-10
-1.51024504528e-09
-1.70701821932e-11
-2.04835891714e-10
-1.45080074756e-09
-1.74255257499e-11
-1.92941921156e-10
-1.37208334038e-09
-1.49806916486e-11
-1.78701136689e-10
-1.27805737664e-09
-9.37606030488e-12
-1.63193638485e-10
-1.17356161136e-09
-1.48138808194e-10
-1.06338250005e-09
-4.83540192931e-14
1.21546703891e-11
-2.18757347821e-10
-1.66366936276e-09
-2.25240072142e-13
1.9517595043e-11
-2.38974782165e-10
-1.8385781782e-09
2.26840242169e-11
-2.59452982606e-10
-2.00417438815e-09
2.21161371255e-11
-2.78070817375e-10
-2.15295528182e-09
1.83234919973e-11
-2.93460131495e-10
-2.27737497586e-09
1.20097038827e-11
-3.04883827095e-10
-2.37124720584e-09
4.06413988501e-12
-3.11990420452e-10
-2.43043095878e-09
-4.45840457059e-12
-3.1449824628e-10
-2.4515856179e-09
-1.23801217398e-11
-3.1190563875e-10
-2.43036997935e-09
-1.86409199883e-11
-3.04712942012e-10
-2.37112708633e-09
-2.23462133102e-11
-2.9321220285e-10
-2.27719940813e-09
-2.27977813698e-11
-2.77778119628e-10
-2.15272905952e-09
-1.94937892816e-11
-2.59153626242e-10
-2.00390201907e-09
-1.20123493023e-11
-2.38729507659e-10
-1.83825950542e-09
-2.18622338019e-10
-1.66329423283e-09
-4.12244872394e-14
1.31066378274e-11
-2.74978960828e-10
-2.16252964841e-09
-2.58433345542e-13
2.12371775877e-11
-2.98243171186e-10
-2.39339777712e-09
2.47860957848e-11
-3.21394745628e-10
-2.61143394898e-09
2.41845609614e-11
-3.42221532675e-10
-2.80698081842e-09
2.00325204089e-11
-3.59288562738e-10
-2.97030522428e-09
1.31328280404e-11
-3.71864817719e-10
-3.0934179261e-09
4.46844080588e-12
-3.7965342584e-10
-3.17094419525e-09
-4.81817605504e-12
-3.82404622736e-10
-3.19857819289e-09
-1.34574251749e-11
-3.79566715467e-10
-3.17086165831e-09
-2.03022390159e-11
-3.71691399677e-10
-3.09325559426e-09
-2.43643589468e-11
-3.59038175725e-10
-2.97006846349e-09
-2.48445008358e-11
-3.41925025943e-10
-2.80667674276e-09
-2.11530013524e-11
-3.2109296162e-10
-2.61106982028e-09
-1.29013722102e-11
-2.97995930203e-10
-2.39297582101e-09
-2.7483918107e-10
-2.16204123167e-09
-9.71842795112e-15
1.28578507902e-11
-3.16214156183e-10
-2.56634122079e-09
-2.70696497828e-13
2.09784496178e-11
-3.40892149374e-10
-2.84513853982e-09
2.45680624329e-11
-3.64900197362e-10
-3.10768573178e-09
2.39929712792e-11
-3.8618154269e-10
-3.34268256552e-09
1.98761345324e-11