/*--------------------------------*- C++ -*----------------------------------*\
  =========                 |
  \\      /  F ield         | OpenFOAM: The Open Source CFD Toolbox
   \\    /   O peration     | Website:  https://openfoam.org
    \\  /    A nd           | Version:  7
     \\/     M anipulation  |
\*---------------------------------------------------------------------------*/
FoamFile
{
    version     2.0;
    format      ascii;
    class       volVectorField;
    location    "2.08";
    object      U;
}
// * * * * * * * * * * * * * * * * * * * * * * * * * * * * * * * * * * * * * //

dimensions      [0 1 -1 0 0 0 0];

internalField   nonuniform List<vector> 
22500
(
(-2.14159404468e-05 -2.40008255051e-05 1.26640715777e-05)
(-1.99922905392e-05 -2.72928922657e-05 1.30779098305e-05)
(-1.77562858243e-05 -3.0554156759e-05 1.30838988122e-05)
(-1.50163571815e-05 -3.34284205668e-05 1.27402487299e-05)
(-1.17246434752e-05 -3.58280216343e-05 1.22457116358e-05)
(-8.03943339503e-06 -3.76222473492e-05 1.17737781925e-05)
(-4.07346897523e-06 -3.87309231982e-05 1.1444473151e-05)
(3.71519904858e-08 -3.91039463893e-05 1.13319347058e-05)
(4.14700709681e-06 -3.87225577817e-05 1.14748253034e-05)
(8.11074856391e-06 -3.76057961291e-05 1.18341927265e-05)
(1.17926557109e-05 -3.58039782309e-05 1.23355542376e-05)
(1.5080266763e-05 -3.33977238279e-05 1.28584160503e-05)
(1.78152671033e-05 -3.05177588912e-05 1.32289602048e-05)
(2.00465354855e-05 -2.72520543719e-05 1.32479313902e-05)
(2.14615266991e-05 -2.39597886997e-05 1.28546521375e-05)
(-6.35536971274e-05 -7.09439117185e-05 -0.000112311930561)
(-5.91792978465e-05 -8.05480134064e-05 -0.000126213145888)
(-5.26238035908e-05 -9.0032742123e-05 -0.00014068670609)
(-4.44978765978e-05 -9.84045912015e-05 -0.000154676141708)
(-3.47792206772e-05 -0.000105384353791 -0.000166958157875)
(-2.38627367302e-05 -0.000110606124908 -0.000176491503362)
(-1.20979031538e-05 -0.000113835581934 -0.000182516742818)
(1.0526769102e-07 -0.000114921976204 -0.000184561472954)
(1.2306294879e-05 -0.000113811025567 -0.000182426943896)
(2.40649284528e-05 -0.000110557881696 -0.000176312614084)
(3.4971883189e-05 -0.000105314073828 -0.00016669179585)
(4.46785057785e-05 -9.8315122213e-05 -0.000154325167248)
(5.27899695959e-05 -8.99274660759e-05 -0.000140254963918)
(5.93299668508e-05 -8.04311353296e-05 -0.000125705838836)
(6.36798617827e-05 -7.08260349195e-05 -0.000111740482791)
(-0.000102588437699 -0.000113989992707 -0.000368472035102)
(-9.51135843682e-05 -0.000129142715237 -0.000407360324611)
(-8.44639069876e-05 -0.000143922826447 -0.000446036247324)
(-7.12993536734e-05 -0.000156921525728 -0.000481947474353)
(-5.5680945144e-05 -0.000167708365071 -0.000512609696634)
(-3.81818768511e-05 -0.000175759477383 -0.000535980527517)
(-1.93557145307e-05 -0.000180732005793 -0.000550589044906)
(1.56090208772e-07 -0.000182403897894 -0.000555532223649)
(1.96649541013e-05 -0.000180695460289 -0.000550451169255)
(3.84825942029e-05 -0.000175687621347 -0.000535705283252)
(5.59682975536e-05 -0.000167603628536 -0.000512198407894)
(7.15694858386e-05 -0.000156787978135 -0.000481402861502)
(8.47131311614e-05 -0.000143765888711 -0.000445362340082)
(9.53392990452e-05 -0.000128968813183 -0.000406562641992)
(0.000102778937603 -0.000113813567105 -0.000367564722576)
(-0.000137311299261 -0.000152032576844 -0.00071795181612)
(-0.000126764365443 -0.000171652183833 -0.00078533913466)
(-0.000112301547709 -0.000190535695791 -0.000850556540413)
(-9.45678927657e-05 -0.000207058112389 -0.00090970320969)
(-7.37379314799e-05 -0.000220698169319 -0.00095930910989)
(-5.05107626087e-05 -0.000230847091965 -0.000996639882133)
(-2.55972556904e-05 -0.000237103544294 -0.00101978280226)
(1.87349780477e-07 -0.000239205804311 -0.00102758827789)
(2.59688117639e-05 -0.000237060270539 -0.00101961293582)
(5.08731848035e-05 -0.000230761900033 -0.000996299815476)
(7.40857801974e-05 -0.000220573772882 -0.000958798500392)
(9.48965442657e-05 -0.000206898991953 -0.000909022500165)
(0.000112606478499 -0.000190348192403 -0.00084970723884)
(0.000127041466138 -0.000171443647026 -0.000784323612039)
(0.000137547988112 -0.000151818638614 -0.000716781559108)
(-0.000166984108468 -0.000184432712395 -0.0011170249521)
(-0.000153540169418 -0.000207289682377 -0.00120992911304)
(-0.000135618461392 -0.000229002208544 -0.00129775230504)
(-0.00011388321363 -0.000247893939958 -0.00137588114127)
(-8.8627131725e-05 -0.000263409304076 -0.00144042874257)
(-6.06301606146e-05 -0.000274916980757 -0.00148847125931)
(-3.07104800841e-05 -0.000281997397202 -0.00151803864104)
(2.02333711931e-07 -0.000284375086982 -0.00152797769927)
(3.11121654048e-05 -0.000281951704273 -0.00151785174881)
(6.1023147638e-05 -0.000274826915008 -0.0014880960184)
(8.90060265196e-05 -0.000263277529251 -0.00143986247424)
(0.000114243162614 -0.00024772481685 -0.0013751208409)
(0.0001359545534 -0.000228802059785 -0.00129679525578)
(0.000153847265264 -0.000207065864529 -0.00120877222289)
(0.000167250016207 -0.000184199877626 -0.00111567316016)
(-0.00019129944388 -0.000210948260573 -0.00152698207188)
(-0.000175237336716 -0.000235802469051 -0.00163861745238)
(-0.000154282080781 -0.000259133582239 -0.00174190878758)
(-0.000129176978427 -0.000279319058153 -0.00183228513175)
(-0.00010031896696 -0.000295816776004 -0.00190599224279)
(-6.8530587725e-05 -0.000308018121269 -0.00196033445344)
(-3.46915811706e-05 -0.000315512354015 -0.00199356934195)
(2.0669657135e-07 -0.000318027722334 -0.00200470675414)
(3.51022792185e-05 -0.000315467127048 -0.00199337591481)
(6.89333938795e-05 -0.000307928892346 -0.00195994514453)
(0.000100708822853 -0.000295686014657 -0.00190540222363)
(0.000129549138561 -0.000279150773212 -0.00183148806522)
(0.000154631613373 -0.000258933613275 -0.00174089759531)
(0.000175558565456 -0.000235577613602 -0.00163738298793)
(0.000191581433334 -0.000210710882377 -0.00152552102001)
(-0.000210329509635 -0.000231689643566 -0.0019199686069)
(-0.000191987156784 -0.000257390031565 -0.00204261489674)
(-0.000168468490582 -0.000281277913778 -0.00215395754552)
(-0.000140645894475 -0.000301829232062 -0.00225003846633)
(-0.000108995337564 -0.000318553337351 -0.00232757234608)
(-7.43497217642e-05 -0.000330892669176 -0.00238429835484)
(-3.76122931934e-05 -0.000338460902155 -0.00241881555132)
(2.05826874083e-07 -0.000341000079486 -0.00243035221026)
(3.80215163074e-05 -0.000338417772888 -0.00241862116347)
(7.47517969118e-05 -0.00033080753674 -0.0023839064868)
(0.000109385575169 -0.000318428460818 -0.00232697673535)
(0.000141019779949 -0.000301668227107 -0.00224923042912)
(0.00016882131446 -0.000281085984474 -0.00215292669364)
(0.00019231305605 -0.000257173180321 -0.00204134682846)
(0.000210619129276 -0.000231457388202 -0.00191845189511)
(-0.000224398325005 -0.000247001883679 -0.00227977249767)
(-0.000204133671718 -0.000272535375081 -0.00240670440215)
(-0.000178534339717 -0.000296088363012 -0.00252011582764)
(-0.000148629625283 -0.00031623789821 -0.00261693158538)
(-0.000114944880301 -0.000332573256924 -0.00269443030602)
(-7.82961500852e-05 -0.000344603292272 -0.00275080399827)
(-3.95802661223e-05 -0.000351973785045 -0.00278497681065)
(2.03630561798e-07 -0.000354445820503 -0.00279637422859)
(3.99852764943e-05 -0.000351933494621 -0.00278478331901)
(7.86945140457e-05 -0.000344523757008 -0.00275041368582)
(0.000115332177699 -0.000332456546168 -0.00269383631234)
(0.000149001556298 -0.000316087277421 -0.00261612413955)
(0.000178886478237 -0.000295908408918 -0.00251908276083)
(0.000204460216308 -0.000272331317885 -0.00240542750122)
(0.000224691405098 -0.000246780346692 -0.00227823356157)
(-0.000233954405934 -0.000257346884807 -0.00259959238471)
(-0.00021211763568 -0.000281848934195 -0.00272588630919)
(-0.000184907730736 -0.000304328545811 -0.00283733455851)
(-0.000153515153272 -0.00032345093139 -0.0029317482442)
(-0.000118485316931 -0.000338903984295 -0.00300689526545)
(-8.059463952e-05 -0.00035026888493 -0.00306133640833)
(-4.07108476521e-05 -0.000357226337527 -0.00309424922156)
(2.02393454376e-07 -0.000359559167365 -0.00310520815199)
(4.11134753562e-05 -0.000357189117147 -0.00309405632736)
(8.09908701172e-05 -0.000350195417735 -0.00306094737122)
(0.000118870867856 -0.000338796166541 -0.00300630331722)
(0.000153885856485 -0.000323311713886 -0.00293094363457)
(0.000185259400149 -0.000304161945644 -0.00283630478089)
(0.000212444647348 -0.000281659448423 -0.00272461074603)
(0.000234250072845 -0.000257138700303 -0.00259804786394)
(-0.000239480927075 -0.000263222395059 -0.00287887317312)
(-0.000216398268625 -0.000285965191709 -0.00300142368201)
(-0.000188020997622 -0.000306754643047 -0.00310862257397)
(-0.000155682505556 -0.000324340336705 -0.00319899383393)
(-0.000119921801532 -0.000338515866034 -0.00327064487011)
(-8.14577495876e-05 -0.000348932488332 -0.00332240343251)
(-4.11125508647e-05 -0.000355305742781 -0.00335363328139)
(2.03143451341e-07 -0.000357441983057 -0.00336401733569)
(4.15167069883e-05 -0.000355271597285 -0.00335343978681)
(8.18555744272e-05 -0.000348865090013 -0.00332201346335)
(0.000120309046345 -0.000338416927207 -0.00327005218923)
(0.000156055042063 -0.00032421249046 -0.00319818948772)
(0.000188374787369 -0.00030660138936 -0.00310759480581)
(0.000216727859363 -0.00028579034185 -0.00300015046432)
(0.000239780458059 -0.000263028299818 -0.00287732794207)
(-0.000241444304212 -0.000265119530129 -0.00312048674377)
(-0.000217410998877 -0.000285484897488 -0.00323765946483)
(-0.000188278958822 -0.00030405746289 -0.00333960605928)
(-0.00015548200245 -0.000319690914211 -0.00342528955871)
(-0.000119530520961 -0.000332273771135 -0.00349301336413)
(-8.10750331837e-05 -0.000341516530952 -0.00354181164978)
(-4.08815355276e-05 -0.000347168521598 -0.00357120384084)
(2.06104645072e-07 -0.000349062025416 -0.00358096345665)
(4.12916094767e-05 -0.000347137402189 -0.00357100845918)
(8.14787472425e-05 -0.000341455085737 -0.00354141823178)
(0.000119923600997 -0.000332183489157 -0.00349241638034)
(0.000155860298064 -0.000319574071625 -0.00342448127309)
(0.000188638483542 -0.000303917035027 -0.0033385761894)
(0.000217746437228 -0.000285324001429 -0.00323638512155)
(0.000241750221567 -0.000264939266258 -0.00311893876137)
(-0.000240263373484 -0.000263495505709 -0.00332872461194)
(-0.000215552007454 -0.000280938905825 -0.00343996972187)
(-0.000186053480014 -0.000296841736163 -0.00353650178425)
(-0.00015323117767 -0.000310192758028 -0.003617395241)
(-0.000117555849843 -0.000320936475904 -0.0036810891004)
(-7.96109641389e-05 -0.000328825408246 -0.00372684155882)
(-4.0100478498e-05 -0.000333644809291 -0.00375434212876)
(2.11054949947e-07 -0.000335257761205 -0.00376345914177)
(4.05204393136e-05 -0.00033361671184 -0.00375414395087)
(8.00245158564e-05 -0.000328769875724 -0.00372644280724)
(0.000117958681167 -0.000320854727241 -0.00368048488042)
(0.000153619089235 -0.000310086652184 -0.0036165791104)
(0.000186422471558 -0.000296713671275 -0.00353546541687)
(0.000215896841461 -0.000280791274593 -0.00343868987319)
(0.00024057872136 -0.000263328726913 -0.00332716928182)
(-0.000236294822212 -0.000258702621597 -0.00350808072213)
(-0.000211204654568 -0.00027275495311 -0.00361372677007)
(-0.000181702925069 -0.00028563274859 -0.00370518811731)
(-0.000149220544712 -0.000296464950262 -0.00378136786115)
(-0.000114210799238 -0.00030518377568 -0.00384097487127)
(-7.72048401454e-05 -0.000311573675054 -0.00388360131498)
(-3.88386338484e-05 -0.00031546767732 -0.00390915266668)
(2.17546589435e-07 -0.000316768310787 -0.00391760694582)
(3.92715780795e-05 -0.000315442654691 -0.00390895144465)
(7.76313581301e-05 -0.000311524131623 -0.00388319655499)
(0.000114626552666 -0.000305110648854 -0.00384036198976)
(0.000149621289545 -0.000296369599668 -0.00378054136357)
(0.000182084610784 -0.000285516918599 -0.00370414188699)
(0.000211562059183 -0.000272620195208 -0.00361243856809)
(0.000236622421081 -0.000258549272997 -0.00350651596911)
(-0.000229985627237 -0.000250977802268 -0.00366259292211)
(-0.000204870381125 -0.000261275951879 -0.00376405644255)
(-0.000175601121565 -0.000270891803643 -0.00385094543555)
(-0.000143711504337 -0.00027906420831 -0.00392232845591)
(-0.000109675323314 -0.00028561449094 -0.00397764236665)
(-7.39729923356e-05 -0.000290384603826 -0.00401696623502)
(-3.7154347931e-05 -0.000293276099939 -0.00404045844931)
(2.25047993246e-07 -0.000294238227474 -0.00404821351953)
(3.76023139671e-05 -0.000293254192297 -0.00404025484228)
(7.44145441845e-05 -0.000290341150927 -0.0040165565137)
(0.000110106131781 -0.000285550117868 -0.00397702171302)
(0.000144127316369 -0.00027897978961 -0.00392149134526)
(0.000175997849941 -0.000270788366121 -0.0038498874513)
(0.000205242762163 -0.000261154061303 -0.00376275875915)
(0.000230328355486 -0.000250837462207 -0.00366102349423)
(-0.000222425871327 -0.000241457749558 -0.00379503430368)
(-0.000197398514871 -0.000246616369666 -0.00389581442576)
(-0.000168226189221 -0.000253017079806 -0.00397796946006)
(-0.000137084250578 -0.000258374055019 -0.00404412968011)
(-0.000104249507507 -0.000262600375037 -0.00409483695111)
(-7.01308580083e-05 -0.000265635717233 -0.00413066858792)
(-3.5161240717e-05 -0.00026745919855 -0.00415200170046)
(2.33047898368e-07 -0.000268061865783 -0.00415902723928)
(3.56252188101e-05 -0.000267440464752 -0.00415179755156)
(7.05884665994e-05 -0.000265598484572 -0.00413025733589)
(0.00010469641708 -0.000262545013013 -0.00409421311207)
(0.000137516180511 -0.000258301058564 -0.00404328627855)
(0.000168639082224 -0.000252926907142 -0.00397690198957)
(0.000197786511016 -0.000246508340399 -0.00389450003236)
(0.000222786259461 -0.000241331472874 -0.00379348668422)
(6.5548270224e-07 9.04780621938e-07 -0.000142107894208)
(5.47230805103e-07 1.14954324119e-06 -0.000149213737348)
(4.55649220914e-07 1.34021632377e-06 -0.000155697614445)
(3.80981562688e-07 1.48994933655e-06 -0.000161336877464)
(2.92274095788e-07 1.61144336261e-06 -0.000165937917298)
(1.9741067912e-07 1.69997138163e-06 -0.000169340404411)
(9.65615240388e-08 1.7537578348e-06 -0.000171431470488)
(-6.73703234103e-09 1.77118782421e-06 -0.000172141567844)
(-1.09932318796e-07 1.7514267825e-06 -0.000171430716368)
(-2.10596299152e-07 1.69523832863e-06 -0.000169338744458)
(-3.05713460877e-07 1.60413929775e-06 -0.000165934952958)
(-3.95233002644e-07 1.48010248495e-06 -0.000161331868234)
(-4.70994625817e-07 1.32763218128e-06 -0.000155689585279)
(-5.63496803095e-07 1.13487377152e-06 -0.000149201278562)
(-6.70114034769e-07 8.90057167018e-07 -0.000142089025834)
(4.98020204317e-06 5.92757057033e-06 -0.000419567826042)
(4.60894083477e-06 7.15085185696e-06 -0.000439938699357)
(4.11532916709e-06 8.26806539655e-06 -0.000458546932286)
(3.53030679753e-06 9.23787555281e-06 -0.000474736788913)
(2.79108427125e-06 1.00483900973e-05 -0.00048794874693)
(1.93001871713e-06 1.06560563646e-05 -0.000497722896139)
(9.78165745071e-07 1.10324036622e-05 -0.000503729794197)
(-2.02818853053e-08 1.11580594128e-05 -0.00050576449852)
(-1.01848072024e-06 1.10256539522e-05 -0.00050372663922)
(-1.96986720062e-06 1.06424501625e-05 -0.00049771615838)
(-2.83122760954e-06 1.00277339879e-05 -0.00048793729976)
(-3.57201117565e-06 9.21046731849e-06 -0.000474718534001)
(-4.15916576159e-06 8.23399194087e-06 -0.000458519067949)
(-4.65415352232e-06 7.1119581294e-06 -0.000439897235747)
(-5.02114920695e-06 5.8884492791e-06 -0.000419508024435)
(1.117623709e-05 1.29431173189e-05 -0.000688358319056)
(1.04318444725e-05 1.52973863968e-05 -0.000721045685886)
(9.34323173201e-06 1.75074214465e-05 -0.000750886024887)
(7.99025761162e-06 1.94403434924e-05 -0.000776839936821)
(6.30557264066e-06 2.10491737184e-05 -0.000798012910931)
(4.35471593595e-06 2.22522824253e-05 -0.000813674263592)
(2.21051690729e-06 2.29957021368e-05 -0.000823296187474)
(-3.33814607705e-08 2.32442638264e-05 -0.000826550109076)
(-2.27692621582e-06 2.29850467722e-05 -0.00082328949147)
(-4.42038819595e-06 2.22308691081e-05 -0.000813660238482)
(-6.37121035085e-06 2.10169588818e-05 -0.00079798989031)
(-8.05731371309e-06 1.93980082025e-05 -0.00077680484322)
(-9.41245770516e-06 1.7455952795e-05 -0.000750834659588)
(-1.05021029551e-05 1.52396401868e-05 -0.000720972121483)
(-1.12404205569e-05 1.28853819942e-05 -0.000688256068545)
(1.78533393272e-05 2.04157329993e-05 -0.000947581841906)
(1.6616865567e-05 2.37312871156e-05 -0.000991463453361)
(1.48186707656e-05 2.68627458622e-05 -0.00103145032005)
(1.25932484697e-05 2.95835769973e-05 -0.00106619714549)
(9.88879119185e-06 3.18275152423e-05 -0.00109452122182)
(6.80422014979e-06 3.34931238598e-05 -0.00111546114803)
(3.44881975954e-06 3.45167801831e-05 -0.00112831922446)
(-4.55795704216e-08 3.48583574389e-05 -0.00113266184669)
(-3.53961192122e-06 3.45034998208e-05 -0.00112830762345)
(-6.89420385728e-06 3.34665129905e-05 -0.00111543723088)
(-9.97851694336e-06 3.17877114196e-05 -0.00109448309132)
(-1.26840574908e-05 2.95315086273e-05 -0.00106614130815)
(-1.49112918971e-05 2.68000545695e-05 -0.00103137188894)
(-1.67098307392e-05 2.3661323707e-05 -0.000991355386313)
(-1.79388773219e-05 2.03455755675e-05 -0.000947437034474)
(2.39005337319e-05 2.71017141457e-05 -0.00119612032426)
(2.20838918759e-05 3.10262157525e-05 -0.00124991575286)
(1.95561184577e-05 3.47206205615e-05 -0.0012988108722)
(1.64945959748e-05 3.78913634415e-05 -0.00134124654474)
(1.28739376893e-05 4.04756961975e-05 -0.00137580615389)
(8.81826625202e-06 4.23755576699e-05 -0.00140133979824)
(4.45840418372e-06 4.35351987805e-05 -0.0014170097304)
(-5.63336055013e-08 4.392074534e-05 -0.00142229622193)
(-4.57075053971e-06 4.35204007645e-05 -0.00141699170164)
(-8.92987697665e-06 4.23459842229e-05 -0.00140130311909)
(-1.2985205603e-05 4.04316220806e-05 -0.00137574909253)
(-1.66066162171e-05 3.78338581289e-05 -0.00134116584261)
(-1.96694349779e-05 3.46516486856e-05 -0.0012987018018)
(-2.21968937661e-05 3.09493492746e-05 -0.00124977103333)
(-2.40052991083e-05 2.70241271827e-05 -0.00119593282978)
(2.87580019648e-05 3.23836747157e-05 -0.0014330453464)
(2.63269635564e-05 3.65478903067e-05 -0.00149541569543)
(2.31266961869e-05 4.04322326622e-05 -0.00155194402077)
(1.93531174026e-05 4.37177263446e-05 -0.00160094704006)
(1.50095064483e-05 4.63607004597e-05 -0.00164082346486)
(1.02326786203e-05 4.82831172653e-05 -0.00167026987872)
(5.158645753e-06 4.94477082111e-05 -0.00168833262389)
(-6.52760709081e-08 4.98331361478e-05 -0.00169442079504)
(-5.28895416766e-06 4.94322294355e-05 -0.00168830658854)
(-1.03624114852e-05 4.82522464292e-05 -0.00167021747672)
(-1.51389155715e-05 4.6314810575e-05 -0.00164074354507)
(-1.94830219832e-05 4.36579564414e-05 -0.00160083722433)
(-2.32573957263e-05 4.0360680973e-05 -0.001551800576)
(-2.64568429411e-05 3.64680832498e-05 -0.00149523187835)
(-2.88795332661e-05 3.23025357313e-05 -0.00143281434329)
(3.22390397115e-05 3.60715814622e-05 -0.0016578113878)
(2.92180831299e-05 4.01734336865e-05 -0.00172745288348)
(2.54562982156e-05 4.39463292901e-05 -0.00179039504901)
(2.11384579048e-05 4.70896856442e-05 -0.00184490747204)
(1.62930553478e-05 4.95839524115e-05 -0.00188924212911)
(1.10568948594e-05 5.13784153641e-05 -0.00192196841388)
(5.55789136175e-06 5.24570676972e-05 -0.0019420357572)
(-7.2300771252e-08 5.28122258187e-05 -0.00194879422765)
(-5.7023397848e-06 5.24415597644e-05 -0.00194200022456)
(-1.12009690637e-05 5.13475285382e-05 -0.00192189748809)
(-1.64369080144e-05 4.95381215705e-05 -0.00188913560688)
(-2.1282644181e-05 4.70300412271e-05 -0.00184476441436)
(-2.56009148102e-05 4.38749869625e-05 -0.00179021343192)
(-2.93615561205e-05 4.00936894524e-05 -0.00172722712305)
(-3.23746181661e-05 3.59898691078e-05 -0.00165753521735)
(3.4386246387e-05 3.82360803325e-05 -0.00187022161013)
(3.08484046585e-05 4.20666289052e-05 -0.00194590660856)
(2.66642828676e-05 4.55228331222e-05 -0.00201412947846)
(2.19799438342e-05 4.83600482543e-05 -0.00207317484159)
(1.68434067936e-05 5.05801932306e-05 -0.00212117518762)
(1.13813122055e-05 5.21599195875e-05 -0.00215659504047)
(5.70479780135e-06 5.31021031397e-05 -0.00217830602326)
(-7.75326789014e-08 5.34106138583e-05 -0.00218561247835)
(-5.8598029398e-06 5.3087076177e-05 -0.00217825972323)
(-1.15361587087e-05 5.21300135263e-05 -0.00215650318623)
(-1.69981883612e-05 5.05358568453e-05 -0.0021210387988)
(-2.21349882426e-05 4.83023563495e-05 -0.00207299483394)
(-2.68195166363e-05 4.54538005567e-05 -0.00201390607714)
(-3.1002372677e-05 4.19892614037e-05 -0.00194563580062)
(-3.45331438338e-05 3.8156018291e-05 -0.00186989787963)
(3.53662581801e-05 3.90868882511e-05 -0.00207028074175)
(3.14148725138e-05 4.25235954004e-05 -0.00215085130848)
(2.69527292458e-05 4.5545183761e-05 -0.00222329462236)
(2.20671767442e-05 4.79901999546e-05 -0.00228595754862)
(1.68197635164e-05 4.98762077993e-05 -0.00233687221959)
(1.13203961235e-05 5.12033977406e-05 -0.00237442243968)
(5.65903238574e-06 5.19888109888e-05 -0.0023974267933)
(-8.12535101226e-08 5.22444708683e-05 -0.00240516201516)
(-5.82156335137e-06 5.19746555711e-05 -0.00239736875198)
(-1.14829713536e-05 5.11752307875e-05 -0.0023743077856)
(-1.69824485085e-05 4.98344483761e-05 -0.00233670335702)
(-2.22301267727e-05 4.79358148595e-05 -0.00228573750445)
(-2.7115731738e-05 4.54799957829e-05 -0.00222302621763)
(-3.15766125414e-05 4.24502492133e-05 -0.00215053229307)
(-3.55219796639e-05 3.90101058613e-05 -0.0020699065264)
(3.53932547242e-05 3.88839059295e-05 -0.00225804007006)
(3.11428056403e-05 4.18689171909e-05 -0.00234238451704)
(2.65359493534e-05 4.44030253217e-05 -0.00241804114049)
(2.15905677142e-05 4.64236724967e-05 -0.00248344429929)
(1.63759680743e-05 4.79589129617e-05 -0.00253653759664)
(1.09819074639e-05 4.90272052166e-05 -0.00257565544587)
(5.47589039527e-06 4.96545116397e-05 -0.00259959837019)
(-8.37995463947e-08 4.98574051135e-05 -0.00260764090307)
(-5.64358547224e-06 4.96415216832e-05 -0.00259952792473)
(-1.11498256653e-05 4.90013417473e-05 -0.00257551667722)
(-1.65441707198e-05 4.79205205762e-05 -0.00253633433547)
(-2.17590796898e-05 4.63735605228e-05 -0.00248318178558)
(-2.67044503361e-05 4.43427563369e-05 -0.00241772496245)
(-3.13100838622e-05 4.18007283524e-05 -0.00234201416577)
(-3.55556389458e-05 3.8811531988e-05 -0.00225761202229)
(3.46804392165e-05 3.78814984244e-05 -0.00243348647356)
(3.02414160807e-05 4.03965391053e-05 -0.00252053356254)
(2.56039224219e-05 4.24310237128e-05 -0.00259845596709)
(2.07134344053e-05 4.40268118858e-05 -0.00266575596529)
(1.56409605361e-05 4.52195870237e-05 -0.00272029492102)
(1.04547023801e-05 4.60402391544e-05 -0.00276040456264)
(5.20050349563e-06 4.65184744512e-05 -0.00278491747974)
(-8.54927270752e-08 4.66720697616e-05 -0.00279314042557)
(-5.3716424655e-06 4.6506858957e-05 -0.00278483425919)
(-1.06262145224e-05 4.60170810702e-05 -0.00276024087605)
(-1.5812919815e-05 4.51851169887e-05 -0.00272005593908)
(-2.0885782036e-05 4.3981636081e-05 -0.00266544909358)
(-2.57762581417e-05 4.23763792895e-05 -0.00259808960192)
(-3.04125859182e-05 4.03342286187e-05 -0.00252010874405)
(-3.48477568175e-05 3.78142152205e-05 -0.00243300076944)
(3.34131432706e-05 3.62993556279e-05 -0.00259647817879)
(2.88836900392e-05 3.83425687436e-05 -0.00268525045615)
(2.43099566799e-05 3.98852497176e-05 -0.00276460551042)
(1.95654155947e-05 4.10719608094e-05 -0.00283300707448)
(1.47158311739e-05 4.19438527006e-05 -0.00288825427305)
(9.80773789766e-06 4.25373613671e-05 -0.00292875666102)
(4.86765966292e-06 4.28808336242e-05 -0.00295345067875)
(-8.65920188424e-08 4.29902383716e-05 -0.00296171957351)
(-5.04103985453e-06 4.28707431384e-05 -0.00295335459063)
(-9.9816138855e-06 4.25171848161e-05 -0.00292856772556)
(-1.48903081333e-05 4.19136827076e-05 -0.00288797875982)
(-1.97403906969e-05 4.10321601047e-05 -0.00283265433792)
(-2.44849815738e-05 3.98366880704e-05 -0.00276418672853)
(-2.90576465183e-05 3.82866094875e-05 -0.0026847680332)
(-3.35841558955e-05 3.62377361778e-05 -0.00259593049526)
(3.17335742783e-05 3.43036069014e-05 -0.00274670102513)
(2.72031606579e-05 3.5871887962e-05 -0.00283651310363)
(2.27753054157e-05 3.6939948606e-05 -0.00291668868536)
(1.82493729816e-05 3.77432839499e-05 -0.00298544319664)
(1.36802521419e-05 3.83248187555e-05 -0.00304062998311)
(9.09489386558e-06 3.87175312449e-05 -0.00308088288313)
(4.50436278205e-06 3.89434650752e-05 -0.0031053388424)
(-8.72686028699e-08 3.90147202107e-05 -0.00311350883213)
(-4.67913418367e-06 3.89349882829e-05 -0.00310523011683)
(-9.27026222643e-06 3.87005073642e-05 -0.00308066891009)
(-1.38563619999e-05 3.82992053771e-05 -0.00304031767792)
(-1.84261221562e-05 3.77091628639e-05 -0.00298504337289)
(-2.29522200897e-05 3.68977730408e-05 -0.00291621523302)
(-2.73791315698e-05 3.58225639876e-05 -0.00283597014296)
(-3.19073811987e-05 3.42481409152e-05 -0.00274608762564)
(2.97503517596e-05 3.1997198569e-05 -0.00288360485398)
(2.53194268823e-05 3.31062829954e-05 -0.00297465652528)
(2.1112980881e-05 3.37126869831e-05 -0.00305532159552)
(1.68574422778e-05 3.41676432724e-05 -0.00312361241957)
(1.26033759223e-05 3.44944058889e-05 -0.00317785773342)
(8.36170826587e-06 3.47141508553e-05 -0.00321713652716)
(4.13312376576e-06 3.48398300331e-05 -0.00324088942118)
(-8.76231011266e-08 3.48787119528e-05 -0.00324880135758)
(-4.30862565067e-06 3.48329832527e-05 -0.00324076877389)
(-8.53786179615e-06 3.4700330616e-05 -0.00321689859212)
(-1.27803835592e-05 3.44734247482e-05 -0.00317750933402)
(-1.70352697406e-05 3.4139318826e-05 -0.00312316478429)
(-2.12911742683e-05 3.36770481571e-05 -0.00305479081518)
(-2.54968262958e-05 3.30636481541e-05 -0.00297405018825)
(-2.99262621768e-05 3.19478958023e-05 -0.00288292469128)
(2.75519652221e-05 2.97344452717e-05 -0.0030067624522)
(2.33773758391e-05 3.0123408145e-05 -0.0031016813252)
(1.94281979758e-05 3.02990296751e-05 -0.00318194619437)
(1.54684636741e-05 3.04367424764e-05 -0.00324849104985)
(1.15409335844e-05 3.0529414539e-05 -0.003300651998)
(7.64379831191e-06 3.05888248965e-05 -0.00333810240226)
(3.77128300043e-06 3.0620942609e-05 -0.00336062945497)
(-8.77003689848e-08 3.06294996467e-05 -0.00336810824562)
(-3.94694193374e-06 3.06156872528e-05 -0.00336049862806)
(-7.82012461594e-06 3.05781808748e-05 -0.00333784361636)
(-1.17181551109e-05 3.05130931296e-05 -0.00330027108508)
(-1.56466188951e-05 3.04143961443e-05 -0.00324799785557)
(-1.9607031148e-05 3.02702585373e-05 -0.00318135742502)
(-2.35556433376e-05 3.00878966861e-05 -0.00310100351012)
(-2.77296678529e-05 2.9691487459e-05 -0.00300602998842)
(-2.0527670716e-07 -3.64661402754e-07 -0.000185699191116)
(-1.02608163003e-07 -4.96035974052e-07 -0.000195105461846)
(-3.8063398636e-08 -5.75165827201e-07 -0.000203735452945)
(5.47460585028e-09 -6.24264630395e-07 -0.000211267618583)
(2.75281637199e-08 -6.51949173881e-07 -0.00021741937198)
(3.01631996859e-08 -6.65528871814e-07 -0.000221970454842)
(1.8038662092e-08 -6.71076057494e-07 -0.000224766632669)
(-2.3292750679e-09 -6.72548170469e-07 -0.000225714345268)
(-2.26130268179e-08 -6.71291284221e-07 -0.000224761596535)
(-3.44481718993e-08 -6.65883333553e-07 -0.000221960445419)
(-3.12007415312e-08 -6.52301816145e-07 -0.00021740452533)
(-8.24845156968e-09 -6.24485166587e-07 -0.000211248097921)
(3.64399471945e-08 -5.74957460147e-07 -0.000203711277769)
(1.02426781109e-07 -4.95184936845e-07 -0.000195075966443)
(2.06083200053e-07 -3.63417100548e-07 -0.000185661235872)
(-7.95197110968e-07 -1.20454157738e-06 -0.000534781121244)
(-5.25823061444e-07 -1.56367420801e-06 -0.000560340494444)
(-3.32617388283e-07 -1.80655404238e-06 -0.000583766220056)
(-1.88981926486e-07 -1.97102108455e-06 -0.000604178971038)
(-9.17456481432e-08 -2.07512301111e-06 -0.000620830640745)
(-3.59981825671e-08 -2.13531907203e-06 -0.000633139357188)
(-1.17502689834e-08 -2.1654120804e-06 -0.000640695797665)
(-5.03926258871e-09 -2.17449360526e-06 -0.000643249907804)
(1.86757705982e-09 -2.16569203063e-06 -0.000640680436112)
(2.67754300666e-08 -2.13571513288e-06 -0.000633108838573)
(8.38619001075e-08 -2.0753516138e-06 -0.000620785399439)
(1.83141150437e-07 -1.97081335305e-06 -0.000604119557613)
(3.29444183389e-07 -1.80535147106e-06 -0.000583692797533)
(5.25876989824e-07 -1.56108983801e-06 -0.00056025125487)
(7.97524975246e-07 -1.201113929e-06 -0.000534669041624)
(-1.55015793836e-06 -2.15487122503e-06 -0.000859288695703)
(-1.14787167475e-06 -2.71407100473e-06 -0.000898526135904)
(-8.32591636141e-07 -3.12150269532e-06 -0.000934411984607)
(-5.77508636757e-07 -3.41383851979e-06 -0.000965634239799)
(-3.76124485921e-07 -3.61228070274e-06 -0.00099107521508)
(-2.22170906462e-07 -3.73671152314e-06 -0.00100986610723)
(-1.04055506347e-07 -3.80396528627e-06 -0.00102139369387)
(-5.86628912604e-09 -3.82512865182e-06 -0.00102528325436)
(9.25593611582e-08 -3.80395096423e-06 -0.00102136803648)
(2.11461310863e-07 -3.73648755649e-06 -0.00100981514966)
(3.66996242905e-07 -3.61153912966e-06 -0.000990999699324)
(5.70865021073e-07 -3.41230075159e-06 -0.000965535130688)
(8.2930120041e-07 -3.11864457209e-06 -0.000934289764071)
(1.14864030393e-06 -2.70954554331e-06 -0.000898378442964)
(1.5539012152e-06 -2.14944723257e-06 -0.000859105946133)
(-2.27745886171e-06 -3.0173669998e-06 -0.00116063069447)
(-1.7706425684e-06 -3.71825808587e-06 -0.00121136019832)
(-1.34989875553e-06 -4.24848120958e-06 -0.00125763576256)
(-9.91776179762e-07 -4.63942923728e-06 -0.00129784045173)
(-6.87485798221e-07 -4.91288262505e-06 -0.00133056902443)
(-4.3011358178e-07 -5.08972587989e-06 -0.00135472665454)
(-2.07914516821e-07 -5.18788722317e-06 -0.00136953772125)
(-5.21302726416e-09 -5.21916277248e-06 -0.00137452875653)
(1.97723834818e-07 -5.1875218957e-06 -0.00136950193548)
(4.20696155214e-07 -5.08881607578e-06 -0.00135465560532)
(6.79613833912e-07 -4.91115729356e-06 -0.00133046377328)
(9.86400422633e-07 -4.63664708376e-06 -0.00129770241247)
(1.34798568849e-06 -4.24421338639e-06 -0.00125746591999)
(1.77294337496e-06 -3.71224092424e-06 -0.00121115624127)
(2.28289121616e-06 -3.01041371087e-06 -0.001160381958)
(-2.94250803993e-06 -3.76929284283e-06 -0.00144042464834)
(-2.35416744612e-06 -4.56312878421e-06 -0.00150074909323)
(-1.84470055903e-06 -5.17665859484e-06 -0.00155562179079)
(-1.39451957747e-06 -5.63616150927e-06 -0.00160323521529)