/*--------------------------------*- C++ -*----------------------------------*\
  =========                 |
  \\      /  F ield         | OpenFOAM: The Open Source CFD Toolbox
   \\    /   O peration     | Website:  https://openfoam.org
    \\  /    A nd           | Version:  7
     \\/     M anipulation  |
\*---------------------------------------------------------------------------*/
FoamFile
{
    version     2.0;
    format      ascii;
    class       surfaceScalarField;
    location    "1.8";
    object      phi;
}
// * * * * * * * * * * * * * * * * * * * * * * * * * * * * * * * * * * * * * //

dimensions      [0 3 -1 0 0 0 0];

internalField   nonuniform List<scalar> 
65775
(
8.2825357827e-12
1.24218994472e-09
1.55415236605e-10
-2.42242658632e-14
1.32041736943e-11
1.30149182021e-09
1.72222283811e-10
1.57929794119e-11
1.35318043165e-09
1.88338097565e-10
1.55758568976e-11
1.39780241852e-09
2.02913267344e-10
1.29987790066e-11
1.43343789808e-09
2.15154960903e-10
8.5584008939e-12
1.45952486998e-09
2.24416638991e-10
2.93961468369e-12
1.47591310896e-09
2.30270255678e-10
-3.09249461084e-12
1.4821029687e-09
2.32372172356e-10
-8.70752711031e-12
1.47592383844e-09
2.30269491073e-10
-1.31408224174e-11
1.45954579713e-09
2.24415071529e-10
-1.57073389468e-11
1.43346888352e-09
2.15152506537e-10
-1.59114283736e-11
1.39784156505e-09
2.02909730951e-10
-1.33073153847e-11
1.35322599307e-09
1.88332943652e-10
-8.37346815201e-12
1.30153617652e-09
1.72213513505e-10
1.24220747975e-09
1.55396007685e-10
-8.64409405663e-14
2.25020830746e-11
2.15676041432e-09
4.02306866067e-10
-5.39492139537e-14
3.83320728963e-11
2.25290393638e-09
4.44574385224e-10
4.59601050473e-11
2.33752911253e-09
4.84901027344e-10
4.56385406579e-11
2.40970352881e-09
5.21225966022e-10
3.81998327514e-11
2.46713801509e-09
5.51630582572e-10
2.51989924316e-11
2.50897645409e-09
5.74574419127e-10
8.66078531349e-12
2.53522312895e-09
5.89049447888e-10
-9.08350145048e-12
2.54516434663e-09
5.94238813561e-10
-2.56117764443e-11
2.53524716428e-09
5.89046990957e-10
-3.85934826406e-11
2.50902369137e-09
5.74569463094e-10
-4.60042542959e-11
2.46720791933e-09
5.51622930025e-10
-4.62904085739e-11
2.40979330301e-09
5.21215119025e-10
-3.86220977282e-11
2.33763453547e-09
4.84885531347e-10
-2.27499276729e-11
2.25300797319e-09
4.44548756449e-10
2.15681070102e-09
4.02256071872e-10
-2.32889586722e-13
3.49064383711e-11
2.80067701435e-09
5.94076319677e-10
-7.51981438484e-14
5.98225388859e-11
2.91702107472e-09
6.56010302109e-10
7.16671040557e-11
3.02051559681e-09
7.14866593149e-10
7.11847817702e-11
3.10761516657e-09
7.67729722305e-10
5.95834029882e-11
3.176673295e-09
8.11874685063e-10
3.93010384218e-11
3.22671323239e-09
8.4512891248e-10
1.35024744969e-11
3.25805155807e-09
8.66076296434e-10
-1.41642089723e-11
3.26995309027e-09
8.73569704993e-10
-3.99474486908e-11
3.25808301525e-09
8.66072340602e-10
-6.02000381876e-11
3.22677526019e-09
8.45120962117e-10
-7.1758118391e-11
3.17676536212e-09
8.11862478702e-10
-7.21851978713e-11
3.10773480963e-09
7.67712573071e-10
-6.02774603785e-11
3.0206577918e-09
7.14842489341e-10
-3.52907109573e-11
2.91716202339e-09
6.55971751331e-10
2.80074899257e-09
5.94003263227e-10
-3.60840949432e-13
4.59846583378e-11
3.21934474771e-09
7.41757855175e-10
-8.86088013656e-14
7.83953622e-11
3.34379730418e-09
8.19084724293e-10
9.38301771558e-11
3.45532815355e-09
8.92270948335e-10
9.31130946534e-11
3.54802919713e-09
9.57817273002e-10
7.79022196857e-11
3.62117702955e-09
1.01243288664e-09
5.13641490706e-11
3.67388722693e-09
1.05350596087e-09
1.7639984626e-11
3.70682892645e-09
1.07933797932e-09
-1.85100016732e-11
3.7193737007e-09
1.08855680408e-09
-5.22143496616e-11
3.70686206722e-09
1.07933279171e-09
-7.87137386277e-11
3.67395295136e-09
1.05349558271e-09
-9.38683963593e-11
3.62127504968e-09
1.01241706576e-09
-9.45138336814e-11
3.54815793584e-09
9.57795300672e-10
-7.89962229285e-11
3.45548377479e-09
8.92240703608e-10
-4.64920028558e-11
3.34395204269e-09
8.19038036336e-10
3.21942628293e-09
7.41672808113e-10
-4.75251432291e-13
5.56863930679e-11
3.45238652377e-09
8.51189127397e-10
-9.64692271767e-14
9.43867146761e-11
3.5762073358e-09
9.403892305e-10
1.12850891662e-10
3.68775192671e-09
1.02445046663e-09
1.11871168076e-10
3.77936681276e-09
1.09951082851e-09
9.35426474097e-11
3.85123614255e-09
1.16191194742e-09
6.16496430475e-11
3.90272112436e-09
1.208759538e-09
2.11632878176e-11
3.93481739047e-09
1.2381740858e-09
-2.22174483531e-11
3.94707386927e-09
1.2486439186e-09
-6.26801843539e-11
3.93484726286e-09
1.23816787072e-09
-9.45270035586e-11
3.90278066637e-09
1.20874718233e-09
-1.12788386924e-10
3.85132573161e-09
1.16189330612e-09
-1.13682730042e-10
3.7794860823e-09
1.09948536974e-09
-9.51194355658e-11
3.68789940702e-09
1.02441637259e-09
-5.63074360929e-11
3.57635353305e-09
9.40338455572e-10
3.45246115408e-09
8.51099564904e-10
-5.80407560707e-13
6.41148788864e-11
3.53440923129e-09
9.2728260158e-10
-1.00324966644e-13
1.08087179179e-10
3.65152260492e-09
1.02543900686e-09
1.29053425746e-10
3.75742413298e-09
1.11752024543e-09
1.27780670764e-10
3.84338306341e-09
1.1994791567e-09
1.06770378768e-10
3.91035291079e-09
1.26745253417e-09
7.03316611931e-11
3.95802706801e-09
1.3183912815e-09
2.41312538645e-11
3.98766187602e-09
1.35031671221e-09
-2.53514730528e-11
3.99900835014e-09
1.36164696914e-09
-7.15250521076e-11
3.98768390305e-09
1.35030956875e-09
-1.0791121095e-10
3.95807142975e-09
1.31837719334e-09
-1.28845152358e-10
3.91042073965e-09
1.26743157311e-09
-1.30020972177e-10
3.84347565234e-09
1.19945116768e-09
-1.08942351775e-10
3.75754265691e-09
1.11748403391e-09
-6.48438126977e-11
3.65163938675e-09
1.02538700432e-09
3.53445935042e-09
9.27192949877e-10
-6.78665881717e-13
7.1406703253e-11
3.4956400588e-09
9.74282547764e-10
-1.01340084975e-13
1.19760282671e-10
3.60214131353e-09
1.07898143267e-09
1.42735309342e-10
3.69869504352e-09
1.17673167846e-09
1.41132366776e-10
3.7761211678e-09
1.26344074457e-09
1.17824668206e-10
3.83596377782e-09
1.33517177932e-09
7.7566284565e-11
3.87827835365e-09
1.38882339669e-09
2.65963760958e-11
3.90449425841e-09
1.42238278441e-09
-2.79700296314e-11
3.91455535578e-09
1.43425355015e-09
-7.89103777935e-11
3.90450466995e-09
1.42237469028e-09
-1.19110814218e-10
3.87829995668e-09
1.38880757749e-09
-1.42334368013e-10
3.83599851521e-09
1.33514863116e-09
-1.4383071456e-10
3.77617218642e-09
1.26341066503e-09
-1.2073226049e-10
3.69876655442e-09
1.17669431034e-09
-7.22404529714e-11
3.60220864469e-09
1.07892974839e-09
3.49564728802e-09
9.74195050467e-10
-7.72479934086e-13
7.76584709009e-11
3.36247367667e-09
9.95925347031e-10
-1.0015048869e-13
1.296028981e-10
3.4561919882e-09
1.10518448305e-09
1.54139405014e-10
3.54126679923e-09
1.20668718309e-09
1.52173958969e-10
3.60861309565e-09
1.29640167475e-09
1.26915000944e-10
3.66019250105e-09
1.37042026766e-09
8.34919074314e-11
3.69640507115e-09
1.42566986441e-09
2.8605398019e-11
3.71875573154e-09
1.46015420182e-09
-3.01247076116e-11
3.72734823207e-09
1.47230639794e-09
-8.49793406846e-11
3.71875153221e-09
1.46014499819e-09
-1.28339955152e-10
3.69639778285e-09
1.42565203609e-09
-1.53508170367e-10
3.66018489693e-09
1.37039462825e-09
-1.5535882963e-10
3.60861003961e-09
1.29636931388e-09
-1.30689469029e-10
3.54127563203e-09
1.20664870443e-09
-7.85960547677e-11
3.45619197177e-09
1.10513331682e-09
3.36241979263e-09
9.95840506291e-10
-8.63563799239e-13
8.29352666825e-11
3.15790586208e-09
9.95545383159e-10
-9.7405244862e-14
1.37760660813e-10
3.2380116408e-09
1.1077593399e-09
1.63464706678e-10
3.31069731132e-09
1.21147770102e-09
1.61119319139e-10
3.36743281949e-09
1.30280511868e-09
1.3422761305e-10
3.41044819238e-09
1.37794060328e-09
8.82330640368e-11
3.44042845752e-09
1.43390134331e-09
3.02006251086e-11
3.45885441411e-09
1.46874660288e-09
-3.18620811909e-11
3.46594142924e-09
1.48097360347e-09
-8.98607056825e-11
3.45883351592e-09
1.46873598584e-09
-1.35788940206e-10
3.44038796202e-09
1.43388092496e-09
-1.62584313423e-10
3.41039140104e-09
1.37791168362e-09
-1.64807748679e-10
3.36736617187e-09
1.30276957998e-09
-1.38962341978e-10
3.3106307889e-09
1.21143717159e-09
-8.3977460583e-11
3.23792883399e-09
1.10770758261e-09
3.15777368893e-09
9.95462233287e-10
-9.53489589589e-13
8.72819416372e-11
2.90188409528e-09
9.76146106775e-10
-9.35411174045e-14
1.44348730024e-10
2.96853065876e-09
1.09004236013e-09
1.70888675657e-10
3.02881137308e-09
1.19477376823e-09
1.68168323993e-10
3.07515441086e-09
1.28662858172e-09
1.39939273945e-10
3.10992698843e-09
1.36196848635e-09
9.19083655897e-11
3.13399709854e-09
1.4179485761e-09
3.14224843286e-11
3.14872221213e-09
1.45271413259e-09
-3.32261409489e-11
3.15437490113e-09
1.46485391691e-09
-9.36765673258e-11
3.14868353416e-09
1.45270165606e-09
-1.41637891923e-10
3.13392101746e-09
1.41792468308e-09
-1.69765706094e-10
3.10981694268e-09
1.36193499931e-09
-1.72357591062e-10
3.07501773414e-09
1.28658824016e-09
-1.45668014542e-10
3.02866013046e-09
1.19472926764e-09
-8.8430899826e-11
2.96835248252e-09
1.08998770114e-09
2.90165851758e-09
9.76062422302e-10
-1.04356971588e-12
9.07223509349e-11
2.61161106156e-09
9.40449067687e-10
-8.89947731418e-14
1.49472099577e-10
2.6655790953e-09
1.05505309461e-09
1.7659731324e-10
2.7140384523e-09
1.15989014969e-09
1.73531827708e-10
2.75074779798e-09
1.25145147524e-09
1.44232741353e-10
2.77805617767e-09
1.32630124021e-09
9.46380623802e-11
2.79686231137e-09
1.38177131143e-09
3.2311862797e-11
2.80830879091e-09
1.41611866848e-09
-3.42603573377e-11
2.81267409415e-09
1.42804615143e-09
-9.65496486214e-11
2.80825224261e-09
1.41610376882e-09
-1.46071807538e-10
2.79675016894e-09
1.38174279626e-09
-1.75265143387e-10
2.77789150307e-09
1.32626144543e-09
-1.78195787693e-10
2.75053797437e-09
1.25140402816e-09
-1.50912407792e-10
2.71379653045e-09
1.15983888042e-09
-9.19808559462e-11
2.66529636448e-09
1.054992246e-09
2.61128014511e-09
9.40361592788e-10
-1.13492528066e-12
9.32582976571e-11
2.30181382617e-09
8.90929372802e-10
-8.37340870776e-14
1.5327940272e-10
2.34409122747e-09
1.00554044903e-09
1.80846696354e-10
2.38169021183e-09
1.10983735815e-09
1.77471052022e-10
2.40994515734e-09
1.20050651579e-09
1.47315291502e-10
2.43090763002e-09
1.2743481011e-09
9.65515190598e-11
2.44531517587e-09
1.32890825841e-09
3.29119769322e-11
2.45403000336e-09
1.3625799985e-09
-3.50091879148e-11
2.45730352057e-09
1.37419955956e-09
-9.86103914947e-11
2.45395624027e-09
1.36256205583e-09
-1.4929867878e-10
2.4451682392e-09
1.32887382283e-09
-1.79344083644e-10
2.4306895093e-09
1.27429994592e-09
-1.82578163046e-10
2.40966219395e-09
1.20044913648e-09
-1.54843379434e-10
2.38135502937e-09
1.10977586887e-09
-9.4628150827e-11
2.34369834756e-09
1.0054695897e-09
2.30136953493e-09
8.90834285383e-10
-1.22815498677e-12
9.49765542121e-11
1.98487589061e-09
8.29842576493e-10
-7.77165063829e-14
1.56155691442e-10
2.01618042717e-09
9.4402722958e-10
1.84079767099e-10
2.04426853276e-09
1.04736728698e-09
1.80337632387e-10
2.06564449366e-09
1.13671941463e-09
1.49424810759e-10
2.08160929957e-09
1.20916708854e-09
9.77846280516e-11
2.09259296051e-09
1.26251433374e-09
3.32674321613e-11
2.09917748872e-09
1.29531434257e-09
-3.55167849712e-11
2.10157641505e-09
1.3065529824e-09
-9.99938323338e-11
2.09908770429e-09
1.29529280195e-09
-1.51555090598e-10
2.09241335036e-09
1.26247276165e-09
-1.82352211842e-10
2.08134065026e-09
1.20910851495e-09
-1.85945141035e-10
2.06529093735e-09
1.13664905911e-09
-1.57842992576e-10
2.04384058422e-09
1.04729179285e-09
-9.64560313406e-11
2.01567454212e-09
9.43942705594e-10
1.98431260199e-09
8.29736847428e-10
-1.3177191753e-12
9.65258731169e-11
1.6704749989e-09
7.59244521726e-10
-7.02364066447e-14
1.59003837828e-10
1.69135328734e-09
8.72866153458e-10
1.86922689742e-10
1.71202299195e-09
9.75009244417e-10
1.82478022041e-10
1.72838456923e-09
1.0627285734e-09
1.50749457907e-10
1.74072131247e-09
1.13348370283e-09
9.84367698081e-11
1.74922841766e-09
1.18538401474e-09
3.3410277288e-11
1.75426820442e-09
1.21716202696e-09
-3.58126260212e-11
1.75601146489e-09
1.22796419544e-09
-1.00796498876e-10
1.75416320866e-09
1.21713660927e-09
-1.53025485792e-10
1.74901817137e-09
1.18533460208e-09
-1.846314968e-10
1.74040562272e-09
1.1334132611e-09
-1.88917791099e-10
1.72796508559e-09
1.06264258447e-09
-1.60809674223e-10
1.71150636306e-09
9.74915918133e-10
-9.81093745767e-11
1.69073434368e-09
8.72764923152e-10
1.66979467378e-09
7.59127500307e-10
-1.40628425209e-12
1.00024894944e-10
6.81163866318e-10
-6.32619124776e-14
1.36414434521e-09
1.6334561623e-10
7.94458520744e-10
1.37731126192e-09
1.90151018626e-10
8.95132490999e-10
1.3935790968e-09
1.84364096923e-10
9.80903706435e-10
1.40663878891e-09
1.51638944981e-10
1.04969701191e-09
1.41652740048e-09
9.87398749379e-11
1.09995199316e-09
1.42343576992e-09
3.34246695731e-11
1.13058488311e-09
1.42750702607e-09
-3.59763918568e-11
1.14090623358e-09
1.42881600592e-09
-1.01245043991e-10
1.13055606761e-09
1.42738613241e-09
-1.54053013431e-10
1.09989558752e-09
1.42319385444e-09
-1.86645419255e-10
1.04961557257e-09
1.41616444481e-09
-1.92261890517e-10
9.80802111049e-10
1.40615524778e-09
-1.652524386e-10
8.95019925293e-10
1.39297691503e-09
-1.01695084194e-10
7.94335357168e-10
1.3765851153e-09
6.81044051315e-10
-1.48617403328e-12
1.36334806518e-09
-7.54042954032e-13
4.38678779989e-11
1.12283909034e-10
-7.86583528111e-15
-7.53108316828e-13
4.82936180587e-11
1.23886538062e-10
-5.80650498074e-13
5.31114665346e-11
1.35013674361e-10
-4.08168478661e-13
5.76057857294e-11
1.45098656126e-10
-2.67957425311e-13
6.1407041089e-11
1.53581114422e-10
-1.63387850634e-13
6.42870181879e-11
1.60004711304e-10
-8.15055118255e-14
6.61026586453e-11
1.64067201683e-10
-6.73794088558e-15
6.67516530647e-11
1.65527296873e-10
7.54761225287e-14
6.61048551233e-11
1.64064005888e-10
1.81034701109e-13
6.42929051919e-11
1.5999837515e-10
3.24469403482e-13
6.14195492938e-11
1.5357171945e-10
5.04400344711e-13
5.76261080209e-11
1.45086227739e-10
6.87577295359e-13
5.31347926946e-11
1.34997942898e-10
7.01311949937e-13
4.8317232492e-11
1.23866056608e-10
4.38736187396e-11
1.12253551039e-10
-4.55293842999e-14
-9.32684624292e-13
1.27327838941e-10
3.19752076986e-10
-1.98090959291e-14
-6.21759510576e-13
1.39221042946e-10
3.5327217601e-10
-3.09314532402e-14
1.51945107335e-10
3.85411874981e-10
3.99706113105e-13
1.63810165427e-10
4.14535923037e-10
5.405767752e-13
1.7382039278e-10
4.39034907697e-10
3.9755250878e-13
1.8137968435e-10
4.57591327e-10
5.97409255387e-14
1.86137620267e-10
4.69321401503e-10
-3.43716740643e-13
1.87839613094e-10
4.7352380836e-10
-6.7871480113e-13
1.86144648982e-10
4.69311960674e-10
-8.1512573046e-13
1.81396503809e-10
4.57572594784e-10
-6.60736755054e-13
1.73851981375e-10
4.39007144678e-10
-2.05880479087e-13
1.63858900507e-10
4.14499253821e-10
4.18530662249e-13
1.52002897556e-10
3.85365637499e-10
7.69272055943e-13
1.3927667534e-10
3.5321245851e-10
1.27347524315e-10
3.19667871454e-10
-1.40767698493e-13
-1.87556796834e-13
2.24679285906e-10
4.96896105309e-10
-2.87424714266e-14
7.90791822382e-13
2.4453161528e-10
5.49663807317e-10
1.88825020745e-12
2.65485983422e-10
6.00169171998e-10
2.49918884045e-12
2.84998330626e-10
6.45881150968e-10
2.40904389657e-12
3.01442212112e-10
6.8430487858e-10
1.65389394843e-12
3.13838603138e-10
7.13393689447e-10
4.40277938353e-13
3.21632796606e-10
7.3176551514e-10
-9.2943015943e-13
3.24420159683e-10
7.3833012023e-10
-2.13645595665e-12
3.21645386404e-10
7.3175023402e-10
-2.87705042496e-12
3.1386682324e-10
7.13363400555e-10
-2.94104028564e-12
3.01491252266e-10
6.84260070529e-10
-2.2882375805e-12
2.85070090881e-10
6.45822173882e-10
-1.13456019982e-12
2.65570817274e-10
6.00095357717e-10
-9.03993404703e-14
2.44610019467e-10
5.49569969151e-10
2.24709528896e-10
4.96767766733e-10
-2.39368044152e-13
1.20086409565e-12
3.22535786348e-10
6.42693333212e-10
-3.57610647287e-14
3.13732120351e-12
3.49762351368e-10
7.11864774964e-10
4.80161943016e-12
3.78133717173e-10
7.77905873416e-10
5.51246376197e-12
4.04476552505e-10
8.37583810485e-10
5.00944309848e-12
4.26649323287e-10
8.87693328664e-10
3.38203752514e-12
4.43341845319e-10
9.25600030175e-10
9.81831995883e-13
4.53827490798e-10
9.49515415312e-10
-1.68228887251e-12
4.57575264262e-10
9.58038440964e-10
-4.07113404243e-12
4.53845329064e-10
9.49494841636e-10
-5.67436876733e-12
4.43380108774e-10
9.25559308849e-10
-6.13701138566e-12
4.26712177444e-10
8.87633243159e-10
-5.36604960625e-12
4.04564517914e-10
8.37505098645e-10
-3.6236223213e-12
3.78236907673e-10
7.77808262249e-10
-1.59695801205e-12
3.49855947116e-10
7.11742939738e-10
3.22574796659e-10
6.42531673486e-10
-3.4171543933e-13
3.04842444342e-12
4.11478406773e-10
7.59200042868e-10
-4.1343080184e-14
6.13062885972e-12
4.44868142799e-10
8.42153488877e-10
8.38968942914e-12
4.79169248725e-10
9.21109291679e-10
9.12380816462e-12
5.10898391353e-10
9.92315132135e-10
8.07182012197e-12
5.37558871371e-10
1.05202196187e-09
5.4000296092e-12
5.57601670163e-10
1.09714336205e-09
1.62139430107e-12
5.70179337824e-10
1.12557452861e-09
-2.53515629726e-12
5.74670957696e-10
1.13567913468e-09
-6.29714273897e-12
5.70200958779e-10
1.12554918785e-09
-8.93433794325e-12
5.57646763563e-10
1.09709329992e-09
-9.93109702171e-12
5.37630145787e-10
1.05194834992e-09
-9.11855414318e-12
5.10995029817e-10
9.92219290617e-10
-6.76048033186e-12
4.79281392622e-10
9.2099173226e-10
-3.56534782922e-12
4.4496909124e-10
8.42009424327e-10
4.11522393406e-10
7.59013979797e-10
-4.46525112288e-13
5.18252724536e-12
4.85279174568e-10
8.4830783317e-10
-4.58400080319e-14
9.52101435542e-12
5.23302648538e-10
9.42623962889e-10
1.23742688363e-11
5.61722523245e-10
1.03207224064e-09
1.30638700305e-11
5.97104807017e-10
1.11254712646e-09
1.13699000013e-11
6.26763183928e-10
1.17991192138e-09
7.55712831861e-12
6.49022328562e-10
1.23075660881e-09
2.3070815827e-12
6.62974124786e-10
1.26274682587e-09
-3.43261818049e-12
6.67950511239e-10
1.27408281844e-09
-8.66056748721e-12
6.62997678166e-10
1.26271716776e-09
-1.24281612054e-11
6.4907044345e-10
1.2306981542e-09
-1.40521019359e-11
6.2683700237e-10
1.17982633851e-09
-1.32663452679e-11
5.97202321645e-10
1.11243651787e-09
-1.02942377049e-11
5.61834478891e-10
1.03193821741e-09
-5.82197285996e-12
5.23402058209e-10
9.42462602119e-10
4.85323834324e-10
8.48104079013e-10
-5.52382718041e-13
7.45272388458e-12
5.40275625785e-10
9.11848401373e-10
-4.93634642003e-14
1.30943607288e-11
5.81293979525e-10
1.01531167391e-09
1.65166693906e-11
6.21957696753e-10
1.1130374292e-09
1.71039525512e-11
6.59211956454e-10
1.20071407987e-09
1.47142152333e-11
6.90337229479e-10
1.27395967836e-09
9.72844075976e-12
7.13647199165e-10
1.32915933598e-09
2.99620056851e-12
7.28235187405e-10
1.36383040642e-09
-4.32897359675e-12
7.33429881171e-10
1.37607661993e-09
-1.10337926836e-11
7.28258375519e-10
1.36379676987e-09
-1.59641599979e-11
7.136937704e-10
1.32909321925e-09
-1.82696890085e-11
6.90407032691e-10
1.27386335911e-09
-1.75695107955e-11
6.59302144509e-10
1.20059062903e-09
-1.4009790144e-11
6.22060272845e-10
1.11288979342e-09
-8.21497093679e-12
5.81382413793e-10
1.01513687976e-09
5.40314111316e-10
9.11631946089e-10
-6.58419820677e-13
9.7369317039e-12
5.74838037604e-10
9.51647339677e-10
-5.19794346507e-14
1.66755814187e-11
6.17251826098e-10
1.06225569145e-09
2.06223132487e-11
6.58400100398e-10
1.16626579463e-09
2.10602787537e-11
6.95861278311e-10
1.25928535949e-09
1.79552248425e-11
7.27023965143e-10
1.33681288248e-09
1.18167967816e-11
7.50296668177e-10
1.39513535075e-09
3.65582002992e-12
7.64832136627e-10
1.43169601915e-09
-5.18884296148e-12
7.69996436069e-10
1.44456312455e-09
-1.33174090802e-11
7.64852670139e-10
1.4316586098e-09
-1.93908799103e-11
7.50337213008e-10
1.39506203244e-09
-2.23985745801e-11
7.27083277047e-10
1.33670664646e-09
-2.1832205064e-11
6.95935987551e-10
1.25915040439e-09
-1.77310433066e-11
6.584835847e-10
1.16610656289e-09
-1.06209668108e-11
6.17319272106e-10
1.06207011811e-09
5.74860270241e-10
9.51421656658e-10
-7.63519694527e-13
1.19408125736e-11
5.8892040016e-10
9.69548480854e-10
-5.39586455798e-14
2.01271254136e-11
6.31271302013e-10
1.08552553961e-09
2.45406308816e-11
6.71372440085e-10
1.19406377272e-09
2.47948215512e-11
7.07595362772e-10
1.29079097485e-09
2.09842142436e-11
7.37558907926e-10
1.37119287933e-09
1.3753424786e-11
7.59855037457e-10
1.43155203761e-09
4.26309594732e-12
7.73744291524e-10
1.46930410901e-09
-5.98724567744e-12
7.78663823952e-10
1.48253664702e-09
-1.54406444175e-11
7.73759826637e-10
1.46926299242e-09
-2.25978486114e-11
7.59885009722e-10
1.43147168666e-09
-2.62992427404e-11
7.37601217321e-10
1.37107708218e-09
-2.59026168715e-11
7.07646456077e-10
1.29064518446e-09
-2.13191541482e-11
6.71427039708e-10
1.19389402931e-09
-1.29446027791e-11
6.31306698565e-10
1.0853306014e-09
5.88915080337e-10
9.69315657297e-10
-8.66624779804e-13
1.3997551063e-11
5.83679592368e-10
9.67420014591e-10
-5.52894399422e-14
2.33489425098e-11
6.24710996579e-10
1.08722730769e-09
2.81669279439e-11
6.62516759068e-10
1.19878716805e-09
2.82177648454e-11
6.96329915223e-10
1.2978202863e-09
2.3735370594e-11
7.24101705537e-10
1.37988678321e-09
1.54992124207e-11
7.44673333972e-10
1.44134638801e-09
4.80572968916e-12
7.57445916448e-10
1.47968675823e-09
-6.70989756998e-12
7.61951124016e-10
1.49306374584e-09
-1.73624552606e-11
7.57454264597e-10
1.47964187207e-09
-2.55174312757e-11
7.44688477699e-10
1.44125889682e-09
-2.98801567696e-11
7.24120857625e-10
1.37976132077e-09
-2.96744704579e-11
6.96349352305e-10
1.29766365004e-09
-2.46726097447e-11
6.62532412927e-10
1.19860707655e-09
-1.51175895987e-11
6.24702443668e-10
1.08702326077e-09
5.83632955972e-10
9.67180882505e-10
-9.66745528877e-13
1.58666362622e-11
5.61147313603e-10
9.47148683492e-10
-5.62558148511e-14
2.62810886346e-11
5.99831146257e-10
1.06949803099e-09
3.14482558171e-11
6.34386238771e-10
1.1828325242e-09
3.12942977263e-11
6.64909323798e-10
1.28300584169e-09
2.61913240117e-11
6.89764297991e-10
1.36572247425e-09
1.7048024499e-11
7.08077008324e-10
1.42749254969e-09
5.28315387314e-12
7.19401310345e-10
1.46591047719e-09
-7.35412077782e-12
7.23373011793e-10
1.47924438503e-09
-1.90745880862e-11
7.19400341379e-10
1.46586167572e-09
-2.81301333366e-11
7.08073146595e-10
1.42739761087e-09
-3.31044320909e-11
6.89754278682e-10
1.36558687213e-09
-3.30927729873e-11
6.64889262356e-10
1.28283776397e-09
-2.7729507077e-11
6.34352910493e-10
1.18264146252e-09
-1.70978179089e-11
5.99766255498e-10
1.06928421652e-09
5.61044958861e-10
9.46903035249e-10
-1.06274027582e-12
1.75350624598e-11
5.23952022352e-10
9.1062646881e-10
-5.67779661427e-14
2.89140627143e-11
5.59477926576e-10
1.03449710755e-09
3.43996465299e-11
5.90094181765e-10
1.14862583389e-09
3.40600985601e-11
6.16736117412e-10
1.24900158868e-09
2.83939498937e-11
6.38225699882e-10
1.33153577522e-09
1.8432787337e-11
6.53969007332e-10
1.39296096659e-09
5.7083691681e-12
6.63658889365e-10
1.43103072963e-09
-7.93055448293e-12
6.67031089983e-10
1.44416495599e-09
-2.06075484361e-11
6.63646359956e-10
1.43097787229e-09
-3.04752495313e-11
6.53941962921e-10
1.39285823497e-09
-3.60050352042e-11
6.38180423297e-10
1.33138939176e-09
-3.61698108153e-11
6.16668646758e-10
1.2488211033e-09
-3.04777253781e-11
5.90001615194e-10
1.14842267382e-09
-1.88697582014e-11
5.59344143488e-10
1.0342724687e-09
5.23778746191e-10
9.1037358974e-10
-1.15330994398e-12
1.90429475988e-11
4.75057965853e-10
8.59732634642e-10
-5.68086901555e-14
3.13360254794e-11
5.06791315643e-10
9.84405637341e-10
3.71511408817e-11
5.330159919e-10
1.09861478905e-09
3.66564734894e-11
5.55478250153e-10
1.19845671413e-09
3.04663094667e-11
5.73437036992e-10
1.28013083969e-09
1.97365221166e-11
5.86526595601e-10
1.34067170806e-09
6.11151818205e-12
5.94541876631e-10
1.37804212485e-09
-8.46678311301e-12
5.97300672132e-10
1.39084757864e-09
-2.20415653277e-11
5.94515358816e-10
1.37798522747e-09
-3.26728967088e-11
5.86471535809e-10
1.34056108938e-09
-3.87199758924e-11
5.73349909781e-10
1.27997324216e-09
-3.90322221538e-11
5.55354872753e-10
1.19826285051e-09
-3.30020014295e-11
5.32853676986e-10
1.09839825818e-09
-2.04702827102e-11
5.06575336693e-10
9.84169508871e-10
4.74797434493e-10
8.59472874078e-10
-1.23424940084e-12
2.05421929459e-11
4.17487880865e-10
7.96311734504e-10
-5.61475322368e-14
3.37734608351e-11
4.44957930492e-10
9.21455124896e-10
3.99792505668e-11
4.6654520496e-10
1.03526098696e-09
3.93504108205e-11
4.84848588095e-10
1.13397347161e-09
3.26250391984e-11
4.99406486658e-10
1.21422626966e-09
2.10999917383e-11
5.0998349171e-10
1.27343911128e-09
6.5418194428e-12
5.16425093649e-10
1.30982399364e-09
-9.00946037382e-12
5.18607625333e-10
1.32219618772e-09
-2.35148081371e-11
5.16381494725e-10
1.30976346661e-09
-3.49365743462e-11
5.0989482021e-10
1.27332124595e-09
-4.15128284051e-11
4.99269751257e-10
1.21405791651e-09
-4.19525821748e-11
4.84660228605e-10
1.13376590521e-09
-3.55254809671e-11
4.66302340677e-10
1.03502992372e-09
-2.20484860861e-11
4.44646502611e-10
9.2120764189e-10
4.17126322141e-10
7.96048285465e-10
-1.30645793483e-12
2.09511315982e-11
7.22153576889e-10
-5.59881635532e-14
3.55587270302e-10
3.5877525999e-11
8.48016966329e-10
3.7646123947e-10
4.29025894807e-11
9.60937054815e-10
3.93703476034e-10
4.23380033063e-11
1.05798411274e-09
4.0832091513e-10
3.51136005746e-11
1.13635866032e-09
4.19957180925e-10
2.27135860346e-11
1.19390526364e-09
4.2841830919e-10
7.07140025838e-12
1.22909405288e-09
4.3354667894e-10
-9.62871076984e-12
1.24095721958e-09
4.35245518016e-10
-2.52151976794e-11
1.22903123214e-09
4.33482159108e-10
-3.75068323675e-11
1.19378267323e-09
4.28288467728e-10
-4.45754608368e-11
1.13618278869e-09
4.19760543528e-10
-4.49443283039e-11
1.05776568586e-09
4.08055356787e-10
-3.7691325164e-11
9.60693066031e-10
3.93366790567e-10
-2.25161160778e-11
8.47755600665e-10
3.76042334961e-10
7.2190007962e-10
-1.36325043981e-12
3.55109378202e-10
7.89777748788e-13
-8.91569971088e-12
1.20391875282e-10
-3.29332067981e-15
1.22854674999e-12
-9.98601671147e-12
1.33410845613e-10
1.43355727732e-12
-1.1145340189e-11
1.45927525394e-10
1.41325513163e-12
-1.22026938559e-11
1.57300956747e-10
1.18137294202e-12
-1.30992429639e-11
1.66889594772e-10
7.76833045873e-13
-1.37789822698e-11
1.74164923877e-10
2.58878170978e-13
-1.42066866619e-11
1.78770563655e-10
-2.99314092635e-13
-1.43564609683e-11
1.80423685407e-10
-8.15663628844e-13
-1.42010675681e-11
1.78765515259e-10
-1.21737580359e-12
-1.37691515262e-11
1.74154962082e-10
-1.4463444476e-12
-1.30873809173e-11
1.6687495232e-10
-1.46459945855e-12
-1.21897585701e-11
1.57281885056e-10
-1.25445132701e-12
-1.11280301185e-11
1.45904094137e-10
-8.11018531264e-13
-9.97059272372e-12
1.33382065705e-10
-8.90362428955e-12
1.20353458841e-10
-1.78169491667e-14
1.87051176192e-12
-1.70813088508e-11
3.26021392756e-10
-8.14509482545e-15
3.03899046891e-12
-1.88743438964e-11
3.60953565458e-10
3.60476793641e-12
-2.08069614597e-11
3.94468713663e-10
3.58106874382e-12
-2.25444969888e-11
4.24866077666e-10
3.00431119374e-12
-2.39833706062e-11
4.50458956248e-10
1.9751453931e-12
-2.50541801965e-11
4.69859121434e-10
6.48257487501e-13
-2.57197958089e-11
4.8212823213e-10
-7.83591046736e-13
-2.59512952807e-11
4.86521553206e-10
-2.10580074992e-12
-2.57056297273e-11
4.82113246071e-10
-3.12649906648e-12
-2.50284149385e-11
4.69829584556e-10
-3.69328154602e-12
-2.39502824781e-11
4.50415617771e-10
-3.7066249404e-12
-2.25068626676e-11
4.24809781102e-10
-3.12545890439e-12
-2.07622141576e-11
3.94399805417e-10
-1.93982160949e-12
-1.88309852194e-11
3.60869527582e-10
-1.7046820328e-11
3.25913369394e-10
-5.8414243253e-14
2.56740162695e-12
-1.9738775313e-11
4.96966682487e-10
-1.1003302778e-14
4.27602796447e-12
-2.14454307e-11
5.50491016492e-10
5.12900845123e-12
-2.32623960939e-11
6.01737099253e-10
5.12272652248e-12
-2.48384402325e-11
6.4814868958e-10
4.30786271838e-12
-2.60846179632e-11
6.87187279011e-10
2.82955418575e-12
-2.6975505265e-11
7.16759866225e-10
9.14110985184e-13
-2.75134753032e-11
7.35444112135e-10
-1.15472451027e-12
-2.7696713279e-11
7.42117509214e-10
-3.06245027416e-12
-2.74912778558e-11
7.35419779437e-10
-4.52656666803e-12
-2.6934432596e-11
7.1671195627e-10
-5.32349269254e-12
-2.60303596158e-11
6.87117113644e-10
-5.309258897e-12
-2.47755201441e-11
6.48057837478e-10
-4.42976327461e-12
-2.31905969808e-11
6.01626533697e-10
-2.69089247012e-12
-2.13742498548e-11
5.50357810244e-10
-1.96813472321e-11
4.96799623912e-10
-1.03435210046e-13
3.00900496098e-12
-1.77753867045e-11
6.37705809441e-10
-1.3058566384e-14
5.1062873585e-12
-1.88053393105e-11
7.07096918922e-10
6.18727416827e-12
-1.98364743524e-11
7.73368194453e-10
6.21239645638e-12
-2.06010447709e-11
8.33291031224e-10
5.23639441276e-12
-2.10873491183e-11
8.83641406939e-10
3.43534237423e-12
-2.13588345574e-11
9.21754531315e-10
1.08969239067e-12
-2.1489280564e-11
9.45809414907e-10
-1.44628740492e-12
-2.15255839713e-11
9.54378714993e-10
-3.78108758845e-12
-2.14601836872e-11
9.45776472823e-10
-5.56187706111e-12
-2.13042527606e-11
9.21689747914e-10
-6.5109705968e-12
-2.10135330142e-11
8.83546742693e-10
-6.45382769588e-12
-2.05141794696e-11
8.33168939507e-10
-5.33385423136e-12
-1.97396348184e-11
7.7322066397e-10
-3.19313060507e-12
-1.8709112073e-11
7.06921633509e-10
-1.7694517748e-11
6.37491311653e-10
-1.5355215953e-13
3.28129896885e-12
-1.21172722645e-11
7.50249653919e-10
-1.45574199419e-14
5.64975483849e-12
-1.20759084053e-11
8.33030092077e-10
6.90258516098e-12
-1.18669359071e-11
9.11859876677e-10
6.961847607e-12
-1.1378911984e-11
9.83007074398e-10
5.87876873434e-12
-1.07253732268e-11
1.04271597063e-09
3.84976220362e-12
-1.00867026191e-11
1.08787364743e-09
1.19523847342e-12
-9.62605246959e-12
1.11634110205e-09
-1.67702713574e-12
-9.4512442729e-12
1.12645460943e-09
-4.31739303625e-12
-9.59131344879e-12
1.11630029333e-09
-6.31962580356e-12
-1.00210149543e-11
1.08779350976e-09
-7.36611870871e-12
-1.06354301322e-11
1.04259918852e-09
-7.2625522082e-12
-1.12721666566e-11
9.82857166779e-10
-5.9573296306e-12
-1.1748882042e-11
9.11680207901e-10
-3.53176744794e-12
-1.19591838523e-11
8.32819556271e-10
-1.20150060871e-11
7.49997616563e-10
-2.08113925871e-13
3.45638763589e-12
-3.78957404829e-12
8.3651765086e-10
-1.5539184074e-14
6.01000822608e-12
-2.46495498685e-12