/*--------------------------------*- C++ -*----------------------------------*\
  =========                 |
  \\      /  F ield         | OpenFOAM: The Open Source CFD Toolbox
   \\    /   O peration     | Website:  https://openfoam.org
    \\  /    A nd           | Version:  7
     \\/     M anipulation  |
\*---------------------------------------------------------------------------*/
FoamFile
{
    version     2.0;
    format      ascii;
    class       volVectorField;
    location    "1.8";
    object      U;
}
// * * * * * * * * * * * * * * * * * * * * * * * * * * * * * * * * * * * * * //

dimensions      [0 1 -1 0 0 0 0];

internalField   nonuniform List<vector> 
22500
(
(5.47930632514e-06 6.10324255906e-06 6.76459006061e-05)
(5.14297736923e-06 6.86579071879e-06 7.11085734561e-05)
(4.55088490838e-06 7.64985375006e-06 7.43056583329e-05)
(3.85586056461e-06 8.33335467862e-06 7.7088743633e-05)
(3.01618254263e-06 8.90816031542e-06 7.93539645512e-05)
(2.07344548422e-06 9.34037818867e-06 8.10245962572e-05)
(1.05523724361e-06 9.60880530035e-06 8.20488352202e-05)
(-2.26146688096e-09 9.69981542666e-06 8.23958562377e-05)
(-1.05970461769e-06 9.6084221039e-06 8.20488554657e-05)
(-2.07775642689e-06 9.33963230535e-06 8.10246205601e-05)
(-3.0202364605e-06 8.90710053425e-06 7.93539616274e-05)
(-3.85957767569e-06 8.33203606097e-06 7.70886407336e-05)
(-4.55414537374e-06 7.64837236669e-06 7.43052429159e-05)
(-5.14591935524e-06 6.86408065785e-06 7.11069954656e-05)
(-5.48141708291e-06 6.10156999013e-06 6.76398689274e-05)
(1.59925651697e-05 1.78263833028e-05 0.000184171270877)
(1.49669693144e-05 2.00214191444e-05 0.000192603348566)
(1.32720584615e-05 2.22546534093e-05 0.000200355683982)
(1.12317491862e-05 2.4214510249e-05 0.00020707606179)
(8.78821350135e-06 2.58615374814e-05 0.000212523583849)
(6.04080888932e-06 2.71004797571e-05 0.000216528001985)
(3.07432686272e-06 2.78704052675e-05 0.000218977053002)
(-6.25250878881e-09 2.81314143752e-05 0.000219804442848)
(-3.08669037557e-06 2.78693927002e-05 0.000218977098255)
(-6.05276533824e-06 2.70985098346e-05 0.000216528051641)
(-8.79950839375e-06 2.58587345587e-05 0.000212523551646)
(-1.12421650591e-05 2.42110214879e-05 0.000207075739489)
(-1.32813312353e-05 2.22507167292e-05 0.000200354450085)
(-1.49752385958e-05 2.00169202694e-05 0.000192598738384)
(-1.59985638983e-05 1.78218823617e-05 0.00018415563682)
(2.43871637673e-05 2.71269303411e-05 0.000283686220656)
(2.27077799144e-05 3.03304780838e-05 0.000295564011885)
(2.01013672004e-05 3.35616267112e-05 0.000306440031882)
(1.69684032244e-05 3.63938167133e-05 0.000315836179477)
(1.32556587717e-05 3.87662830887e-05 0.000323427993557)
(9.10021512488e-06 4.0547703624e-05 0.000328993963632)
(4.62764940753e-06 4.16534511849e-05 0.000332391250705)
(-9.78608600412e-09 4.20280580367e-05 0.000333536672862)
(-4.64701392945e-06 4.16519677057e-05 0.000332391361647)
(-9.11897613033e-06 4.05448186952e-05 0.000328994126721)
(-1.32734397223e-05 3.87621743106e-05 0.000323428080813)
(-1.69848766198e-05 3.63887091617e-05 0.00031583587991)
(-2.0116154458e-05 3.35558443595e-05 0.000306438441359)
(-2.272093011e-05 3.0323901515e-05 0.00029555759992)
(-2.43968451561e-05 2.71201998733e-05 0.00028366425059)
(3.10876588194e-05 3.45018077021e-05 0.000368756939137)
(2.88102944935e-05 3.83849692021e-05 0.000382903997756)
(2.54462608788e-05 4.22782793749e-05 0.000395802633809)
(2.14250478459e-05 4.56801481146e-05 0.000406910462966)
(1.67076341205e-05 4.85209128857e-05 0.000415858561221)
(1.14546503452e-05 5.06493734094e-05 0.000422402888924)
(5.81995885179e-06 5.19686902359e-05 0.000426389954281)
(-1.28641060737e-08 5.24152681573e-05 0.000427732022325)
(-5.84542552092e-06 5.19668000495e-05 0.000426390203582)
(-1.14793518847e-05 5.06456981788e-05 0.000422403323305)
(-1.67310925496e-05 4.85156727156e-05 0.000415859036013)
(-2.14468475377e-05 4.56736358599e-05 0.000406910624381)
(-2.546594265e-05 4.22708942538e-05 0.000395801469718)
(-2.88278072534e-05 3.83766061064e-05 0.00038289749852)
(-3.11008347303e-05 3.44931441491e-05 0.00036873280396)
(3.63871491028e-05 4.03033542009e-05 0.000441438993749)
(3.35752128069e-05 4.46054326711e-05 0.000456937241106)
(2.95818696738e-05 4.88990468816e-05 0.000471005661602)
(2.48434938326e-05 5.26373671598e-05 0.00048308358138)
(1.93383732647e-05 5.57490414519e-05 0.000492785875833)
(1.32402659573e-05 5.80753598911e-05 0.000499865349209)
(6.72139796284e-06 5.95151872221e-05 0.000504170901204)
(-1.55846685875e-08 6.00021073083e-05 0.000505618163033)
(-6.75226003434e-06 5.95129292961e-05 0.000504171337691)
(-1.32702259362e-05 5.80709688625e-05 0.000499866169584)
(-1.93668668294e-05 5.57427730055e-05 0.000492786955853)
(-2.4870029804e-05 5.26295712778e-05 0.000483084605522)
(-2.96059386376e-05 4.88901936865e-05 0.000471005693849)
(-3.35966763518e-05 4.45954341333e-05 0.00045693217258)
(-3.64036695394e-05 4.02929156141e-05 0.000441415850865)
(4.04455987825e-05 4.47163496956e-05 0.000503426648181)
(3.71652040373e-05 4.9214621072e-05 0.000519558592252)
(3.26579830029e-05 5.36874275439e-05 0.000534137631254)
(2.73555438084e-05 5.7567464621e-05 0.0005466173436)
(2.1253785956e-05 6.07859775702e-05 0.000556615930581)
(1.45313181715e-05 6.31867437011e-05 0.000563895507891)
(7.37020558375e-06 6.46703271744e-05 0.000568315395906)
(-1.80373929599e-08 6.51715524648e-05 0.000569799293921)
(-7.40593411453e-06 6.46677266877e-05 0.000568316031063)
(-1.45660272253e-05 6.31816836809e-05 0.00056389675683)
(-2.12868372453e-05 6.07787429584e-05 0.000556617733878)
(-2.73863805276e-05 5.75584542716e-05 0.000546619512429)
(-3.26860694037e-05 5.36771702531e-05 0.000534139464726)
(-3.71903373696e-05 4.92030567522e-05 0.000519556066833)
(-4.04653426427e-05 4.47042069334e-05 0.000503406346666)
(4.33957896719e-05 4.78891364237e-05 0.000556141506086)
(3.97136284296e-05 5.23942148491e-05 0.000572349578796)
(3.4798630514e-05 5.68595189627e-05 0.000586934856847)
(2.90703811998e-05 6.07184214154e-05 0.000599386504439)
(2.25417308982e-05 6.39075098043e-05 0.000609338234241)
(1.53894482645e-05 6.62807802042e-05 0.000616568643596)
(7.79812536395e-06 6.77449611207e-05 0.000620951771515)
(-2.03028834581e-08 6.82391077964e-05 0.00062242174196)
(-7.83835105572e-06 6.7742030774e-05 0.00062095257201)
(-1.5428553135e-05 6.62750731284e-05 0.000616570274353)
(-2.25790124205e-05 6.38993329135e-05 0.000609340746348)
(-2.91052255792e-05 6.07082157846e-05 0.000599389919069)
(-3.48304884619e-05 5.68478620211e-05 0.000586938826697)
(-3.97422512177e-05 5.23810883933e-05 0.000572350199849)
(-4.34186771778e-05 4.78753034108e-05 0.000556124917579)
(4.53663269396e-05 4.99658954326e-05 0.000600791794203)
(4.1347762991e-05 5.43209229989e-05 0.000616648353161)
(3.61221151617e-05 5.8624393019e-05 0.000630861399858)
(3.00918391713e-05 6.23286671255e-05 0.000642967456581)
(2.32856477287e-05 6.53776533535e-05 0.000652621749495)
(1.5873124996e-05 6.76411848744e-05 0.000659622505533)
(8.03524164944e-06 6.90352723907e-05 0.000663860120152)
(-2.24525771023e-08 6.95052215294e-05 0.00066527988873)
(-8.07973783447e-06 6.90320193335e-05 0.000663860995039)
(-1.59164138782e-05 6.76348395368e-05 0.000659624353657)
(-2.33269707639e-05 6.53685376179e-05 0.000652624773028)
(-3.01305309809e-05 6.23172555218e-05 0.000642971955854)
(-3.61576192233e-05 5.86113055364e-05 0.000630867456385)
(-4.1379782269e-05 5.43061918256e-05 0.000616652113766)
(-4.53923141068e-05 4.99503443592e-05 0.00060077892283)
(4.64773942915e-05 5.10821100093e-05 0.000638416286903)
(4.21848811286e-05 5.51598115943e-05 0.000653601265495)
(3.6736927916e-05 5.9175908338e-05 0.000667167576998)
(3.05148851249e-05 6.26177436684e-05 0.000678702392052)
(2.35617437647e-05 6.5438375579e-05 0.000687883437643)
(1.60356765274e-05 6.75271767799e-05 0.000694528998623)
(8.1089681937e-06 6.88113908426e-05 0.000698545892719)
(-2.45493132575e-08 6.92437542805e-05 0.000699890437298)
(-8.15763454156e-06 6.88078237869e-05 0.000698546675081)
(-1.60830645102e-05 6.75202041317e-05 0.000694530741611)
(-2.36070463846e-05 6.54283246235e-05 0.000687886523231)
(-3.05573881298e-05 6.26051121334e-05 0.000678707448839)
(-3.67760638367e-05 5.91613509889e-05 0.000667175153204)
(-4.22202892181e-05 5.51434199815e-05 0.000653607427015)
(-4.65064782663e-05 5.10647906056e-05 0.000638406250676)
(4.68395287724e-05 5.13630912614e-05 0.000669918954899)
(4.23313694289e-05 5.50619109142e-05 0.000684203754196)
(3.67409394104e-05 5.86896839634e-05 0.000696936097036)
(3.04250792128e-05 6.17831510093e-05 0.000707749108804)
(2.3438622195e-05 6.43064998491e-05 0.000716340499505)
(1.59250386695e-05 6.61704733607e-05 0.000722548012084)
(8.04391978922e-06 6.73144327668e-05 0.000726294660623)
(-2.6645527082e-08 6.76990330029e-05 0.000727547494555)
(-8.09676168511e-06 6.73105719652e-05 0.000726295084035)
(-1.59765490693e-05 6.61629063144e-05 0.000722549117399)
(-2.34879524699e-05 6.42955458925e-05 0.000716342857607)
(-3.04714668071e-05 6.17693160048e-05 0.000707753701459)
(-3.67837938017e-05 5.86736461869e-05 0.000696943951538)
(-4.23702408106e-05 5.50438225708e-05 0.000684210690844)
(-4.6871762484e-05 5.13439572448e-05 0.000669909860476)
(4.65546863219e-05 5.09260093359e-05 0.000696098461578)
(4.18839084452e-05 5.41651874307e-05 0.000709336084589)
(3.6222826456e-05 5.73236645181e-05 0.000721122131918)
(2.99000032504e-05 6.00014007901e-05 0.000731123021201)
(2.29784032741e-05 6.21753634122e-05 0.000739053066676)
(1.55844784271e-05 6.37773723687e-05 0.000744770386596)
(7.86226177636e-06 6.47588069815e-05 0.000748215241596)
(-2.87793457179e-08 6.5088225065e-05 0.000749365759432)
(-7.9193618648e-06 6.47546951322e-05 0.000748214914881)
(-1.56402144906e-05 6.37692868472e-05 0.000744770054122)
(-2.30318930821e-05 6.21635986115e-05 0.000739053466202)
(-2.99504338907e-05 5.99864479823e-05 0.000731125482638)
(-3.62695659185e-05 5.7306207392e-05 0.000721128168048)
(-4.19263895932e-05 5.41454289994e-05 0.000709341107013)
(-4.65901921528e-05 5.09050622782e-05 0.000696087188126)
(4.57160632508e-05 4.98809017877e-05 0.000717676538322)
(4.09304918241e-05 5.25935178219e-05 0.000729799923796)
(3.52641770781e-05 5.52173093108e-05 0.000740593315296)
(2.90111758222e-05 5.74285280448e-05 0.00074973656993)
(2.2237960606e-05 5.92161958498e-05 0.000756962152608)
(1.50532629898e-05 6.0530514963e-05 0.000762154855617)
(7.58400044653e-06 6.13341152257e-05 0.000765276167815)
(-3.09694451195e-08 6.16032788582e-05 0.000766316866944)
(-7.64547933247e-06 6.13298271509e-05 0.000765274557158)
(-1.51133676114e-05 6.05220521004e-05 0.000762151971541)
(-2.22957838029e-05 5.92038057146e-05 0.000756958826328)
(-2.906585227e-05 5.74126560283e-05 0.000749734427013)
(-3.53150099937e-05 5.51986131649e-05 0.000740594386738)
(-4.09767687216e-05 5.25722342504e-05 0.00072979915015)
(-4.57550299004e-05 4.9858243019e-05 0.000717658549011)
(4.44057879232e-05 4.83223460817e-05 0.000735330057687)
(3.95545946583e-05 5.04497839114e-05 0.000746364260103)
(3.39443843343e-05 5.24904287217e-05 0.000756175480036)
(2.78268164993e-05 5.42015811176e-05 0.000764439067677)
(2.12700414188e-05 5.55805270724e-05 0.000770925187592)
(1.43670661388e-05 5.65913740895e-05 0.000775561544327)
(7.22712605751e-06 5.72076216856e-05 0.000778338444332)
(-3.32099117505e-08 5.74133750782e-05 0.00077926198587)
(-7.29309004897e-06 5.72032722777e-05 0.000778334882893)
(-1.44316651011e-05 5.65827546493e-05 0.000775554687836)
(-2.13323545117e-05 5.55678177593e-05 0.000770915800348)
(-2.7885924846e-05 5.41851398858e-05 0.000764428911315)
(-3.39995006021e-05 5.2470839525e-05 0.000756167177929)
(-3.96048316694e-05 5.04272789927e-05 0.00074635261664)
(-4.44483672281e-05 4.82982848651e-05 0.000735299838671)
(4.2713876791e-05 4.63187663288e-05 0.000749732531244)
(3.78576617013e-05 4.78329000475e-05 0.000759835655889)
(3.23497397427e-05 4.92516716063e-05 0.000768706094437)
(2.64123875093e-05 5.04484078272e-05 0.000776053747259)
(2.01221429934e-05 5.1407478238e-05 0.0007817468469)
(1.35570741022e-05 5.21059243873e-05 0.000785781499106)
(6.80722338062e-06 5.25292264819e-05 0.00078818521506)
(-3.54642390191e-08 5.26697449516e-05 0.000788981667057)
(-6.87770382802e-06 5.25249649792e-05 0.000788178978873)
(-1.36262087842e-05 5.20974428171e-05 0.00078576908978)
(-2.01890074603e-05 5.13948764734e-05 0.000781728670559)
(-2.64760147201e-05 5.04319134824e-05 0.000776031272581)
(-3.24092353718e-05 4.92317141e-05 0.000768682437363)
(-3.79119414971e-05 4.78096574161e-05 0.00075980671517)
(-4.27602795035e-05 4.62936523268e-05 0.000749684551169)
(4.07711610499e-05 4.4136526411e-05 0.000761661735157)
(3.5969897186e-05 4.47305327643e-05 0.000771214966474)
(3.0539707166e-05 4.55472283589e-05 0.000779080616962)
(2.48108310574e-05 4.62249726264e-05 0.000785397623198)
(1.88257323979e-05 4.67581055084e-05 0.000790197603357)
(1.26452143243e-05 4.71395574185e-05 0.000793559134911)
(6.33579108311e-06 4.73677910812e-05 0.000795547458951)
(-3.76681503798e-08 4.74425954795e-05 0.000796202782852)
(-6.41068500112e-06 4.73638433592e-05 0.000795538076429)
(-1.27187786517e-05 4.71316687484e-05 0.000793540103457)
(-1.88970485271e-05 4.67462977844e-05 0.000790168621602)
(-2.48789070257e-05 4.62093237489e-05 0.000785359057465)
(-3.06035483911e-05 4.5527971002e-05 0.000779035458019)
(-3.60280014715e-05 4.47075202805e-05 0.000771157760234)
(-4.08218105896e-05 4.41113786254e-05 0.000761597768252)
(9.40213121508e-08 1.31179591553e-07 5.56211826227e-05)
(7.76978427474e-08 1.6436096251e-07 5.84925603277e-05)
(7.4363960677e-08 1.8681801342e-07 6.11682584738e-05)
(6.724401662e-08 2.08150447017e-07 6.35200318538e-05)
(5.54345064483e-08 2.27191217278e-07 6.54489551213e-05)
(3.92837795469e-08 2.42238865485e-07 6.68791150179e-05)
(1.98331965125e-08 2.51846718985e-07 6.77589202762e-05)
(-1.3001155419e-09 2.55078340579e-07 6.80574819405e-05)
(-2.24258044087e-08 2.51580229524e-07 6.77583435745e-05)
(-4.18544430969e-08 2.41717156558e-07 6.6877938893e-05)
(-5.79489004793e-08 2.26445968669e-07 6.54471284832e-05)
(-6.96107895867e-08 2.07235817097e-07 6.35174446501e-05)
(-7.64413015427e-08 1.8579278151e-07 6.11646419475e-05)
(-7.94499912024e-08 1.63289629882e-07 5.84870476359e-05)
(-9.52089133281e-08 1.30170375587e-07 5.56109896532e-05)
(6.93814301431e-07 8.23000964795e-07 0.000159542508001)
(6.36544293282e-07 9.93131169726e-07 0.000167328596787)
(5.91869954716e-07 1.14600807427e-06 0.00017458954529)
(5.23302527512e-07 1.29060792159e-06 0.00018097375565)
(4.24923952965e-07 1.4172388054e-06 0.00018621014372)
(2.9927473665e-07 1.51599176122e-06 0.00019009272267)
(1.5298810876e-07 1.57868848303e-06 0.000192480651072)
(-4.18736283508e-09 1.59997956003e-06 0.00019328919743)
(-1.61319535454e-07 1.57790478075e-06 0.000192478838269)
(-3.07473831254e-07 1.51446680705e-06 0.000190089033096)
(-4.32857983434e-07 1.41507080259e-06 0.000186204427633)
(-5.30728399731e-07 1.28794523582e-06 0.000180965690426)
(-5.9841842446e-07 1.14301894477e-06 0.000174578343646)
(-6.42055806643e-07 9.89968456704e-07 0.000167311733405)
(-6.97665477671e-07 8.19937826015e-07 0.000159513369235)
(1.62833174803e-06 1.86380339222e-06 0.000256047336648)
(1.51560276437e-06 2.22044009304e-06 0.000268025114786)
(1.39894462968e-06 2.55939429643e-06 0.000279190316427)
(1.22746462619e-06 2.87885651012e-06 0.000289006955832)
(9.91111549717e-07 3.15696713138e-06 0.00029705728375)
(6.95823884213e-07 3.3727787517e-06 0.000303025486487)
(3.56094301265e-07 3.50941757597e-06 0.000306695015488)
(-7.21753140703e-09 3.55587602434e-06 0.000307935788011)
(-3.70436625076e-07 3.50815467752e-06 0.000306691949718)
(-7.09882616986e-07 3.3703300043e-06 0.000303019257848)
(-1.00464294119e-06 3.15349748375e-06 0.000297047659934)
(-1.24010316647e-06 2.87460079514e-06 0.000288993438885)
(-1.41015397671e-06 2.55461590456e-06 0.000279171720761)
(-1.52507879616e-06 2.21531568124e-06 0.00026799770501)
(-1.63513197892e-06 1.8587254826e-06 0.00025600162879)
(2.75406093839e-06 3.0966625501e-06 0.000345582945471)
(2.57104052387e-06 3.65673104752e-06 0.000361076290776)
(2.36089559013e-06 4.19824189171e-06 0.000375499664814)
(2.06004786691e-06 4.70740630331e-06 0.000388175544877)
(1.65623944596e-06 5.14887153937e-06 0.000398566181367)
(1.15958547369e-06 5.49022811855e-06 0.00040626666748)
(5.93161475651e-07 5.70587390085e-06 0.000410999261783)
(-1.03409349871e-08 5.77918377318e-06 0.000412597788197)
(-6.13691352604e-07 5.7041750915e-06 0.000410994968786)
(-1.17965157851e-06 5.48693453237e-06 0.000406257966144)
(-1.67547617318e-06 5.14419809659e-06 0.000398552787829)
(-2.07797735947e-06 4.70165156635e-06 0.000388156854505)
(-2.37686162094e-06 4.19175560646e-06 0.000375474267324)
(-2.58461496264e-06 3.64969963225e-06 0.000361039733899)
(-2.76406183956e-06 3.08959282494e-06 0.000345523999353)
(3.96495439643e-06 4.40603381509e-06 0.000428381002775)
(3.69911917719e-06 5.165771965e-06 0.000446733165901)
(3.38175327408e-06 5.90226779294e-06 0.000463782459988)
(2.93682091786e-06 6.59305796894e-06 0.000478753674445)
(2.35216602049e-06 7.18986196118e-06 0.000491016919558)
(1.64254489869e-06 7.64990550957e-06 0.000500099773012)
(8.39379478935e-07 7.93993455483e-06 0.000505678774885)
(-1.3495354875e-08 8.0384676651e-06 0.000507561477873)
(-8.66155104948e-07 7.9378432476e-06 0.000505673266103)
(-1.66866613061e-06 7.64584603808e-06 0.000500088643021)
(-2.37714416647e-06 7.18408352764e-06 0.000490999879693)
(-2.9600732931e-06 6.58590648383e-06 0.00047873010873)
(-3.40253562176e-06 5.89416484595e-06 0.000463750930274)
(-3.71691704247e-06 5.15692305021e-06 0.000446688851067)
(-3.97839116881e-06 4.39704709449e-06 0.000428311574313)
(5.18671895384e-06 5.71360863548e-06 0.000504581233091)
(4.82816898621e-06 6.65575785922e-06 0.000525151360422)
(4.39532351697e-06 7.56464628763e-06 0.00054420920408)
(3.80001120292e-06 8.41462440168e-06 0.000560924195232)
(3.03236704848e-06 9.1462354217e-06 0.000574602014153)
(2.11202061634e-06 9.70844710132e-06 0.000584724208051)
(1.07789492259e-06 1.00621403799e-05 0.00059093719312)
(-1.66275171992e-08 1.01821902009e-05 0.000593032056588)
(-1.11087287691e-06 1.00597042688e-05 0.000590930435715)
(-2.14415825353e-06 9.70371052087e-06 0.000584710609912)
(-3.0630591896e-06 9.1394691411e-06 0.000574581340517)
(-3.82858127195e-06 8.40620839876e-06 0.000560895930279)
(-4.42095957485e-06 7.55505645632e-06 0.000544172072439)
(-4.85030203137e-06 6.64522024007e-06 0.000525100373427)
(-5.20380628795e-06 5.70283422006e-06 0.000504503148201)
(6.36063979791e-06 6.95887070777e-06 0.000574296970013)
(5.90234198509e-06 8.0559163123e-06 0.000596466986913)
(5.35028883151e-06 9.10420580192e-06 0.000616941010307)
(4.60522392371e-06 1.00809959739e-05 0.000634871625475)
(3.66136991798e-06 1.09182636147e-05 0.000649525818738)
(2.54324546924e-06 1.1559504116e-05 0.000660359308302)
(1.29598573696e-06 1.19619866022e-05 0.000667003229536)
(-1.96921153914e-08 1.20984356498e-05 0.000669241477876)
(-1.33503625215e-06 1.19592598252e-05 0.000666995121261)
(-2.58128690563e-06 1.15541918173e-05 0.00066034306655)
(-3.697693312e-06 1.09106467029e-05 0.000649501328141)
(-4.63907082449e-06 1.00714745437e-05 0.000634838587438)
(-5.38079696359e-06 9.09329567395e-06 0.000616898481892)
(-5.92889930769e-06 8.04385405433e-06 0.000596409897882)
(-6.381571396e-06 6.94647941756e-06 0.000574211208318)
(7.44023173636e-06 8.09461179845e-06 0.00063765241041)
(6.87821175053e-06 9.31144658138e-06 0.000660838081083)
(6.20725362254e-06 1.04594781581e-05 0.000682174181024)
(5.31888511233e-06 1.15243345377e-05 0.000700828780766)
(4.21271681153e-06 1.24326929223e-05 0.000716052214556)
(2.91794947524e-06 1.31257346055e-05 0.000727292403408)
(1.48433396157e-06 1.35596046464e-05 0.000734178798876)
(-2.26523374404e-08 1.37064858923e-05 0.000736496608131)
(-1.52925693859e-06 1.35566481221e-05 0.000734169140716)
(-2.96172057049e-06 1.3119961481e-05 0.000727273148619)
(-4.25454013354e-06 1.24243827672e-05 0.000716023432949)
(-5.35793295798e-06 1.15138932642e-05 0.000700790504799)
(-6.24262863861e-06 1.04474442857e-05 0.00068212594472)
(-6.90925999261e-06 9.29806050315e-06 0.000660774736186)
(-7.46516460939e-06 8.08079551058e-06 0.000637559032106)
(8.39042972661e-06 9.08582853624e-06 0.000694803877635)
(7.72377480679e-06 1.03822501814e-05 0.000718467298506)
(6.93776871701e-06 1.1586831718e-05 0.000740163207755)
(5.91731007779e-06 1.26976627698e-05 0.000759098779926)
(4.66817483746e-06 1.36398575301e-05 0.000774524801319)
(3.22378635361e-06 1.43555633825e-05 0.000785897093622)
(1.63672599934e-06 1.4802302655e-05 0.000792855906793)
(-2.54762064241e-08 1.49532877228e-05 0.000795195633154)
(-1.68725982142e-06 1.47991857512e-05 0.000792844375484)
(-3.27305840081e-06 1.43494612431e-05 0.000785874202853)
(-4.71532207812e-06 1.36310354178e-05 0.000774490864225)
(-5.96144949199e-06 1.26865170712e-05 0.000759054263362)
(-6.97797716339e-06 1.15739026772e-05 0.000740108244669)
(-7.75935581587e-06 1.0367774241e-05 0.000718396610429)
(-8.41948861906e-06 9.07080417356e-06 0.000694701867508)
(9.18645237336e-06 9.90833565016e-06 0.000745951495152)
(8.41715577062e-06 1.12411661288e-05 0.000769614413845)
(7.52304169078e-06 1.24579288301e-05 0.000791232690263)
(6.38549926442e-06 1.3571644875e-05 0.000810064420437)
(5.01672299872e-06 1.45098966658e-05 0.000825372755315)
(3.45360024678e-06 1.52189891084e-05 0.000836635836454)
(1.74966759209e-06 1.5660118129e-05 0.000843517021426)
(-2.81342320023e-08 1.58089187143e-05 0.000845827664767)
(-1.8054929074e-06 1.56569195487e-05 0.000843503145391)
(-3.50809058131e-06 1.5212708484e-05 0.000836608378458)
(-5.06896966198e-06 1.45007716754e-05 0.000825332311587)
(-6.43457924388e-06 1.35600441012e-05 0.000810011977711)
(-7.56801386371e-06 1.24443711314e-05 0.000791169087957)
(-8.45727477669e-06 1.12258692306e-05 0.000769534154715)
(-9.21973106384e-06 9.89234757612e-06 0.000745838543911)
(9.81252871538e-06 1.05473609526e-05 0.000791345943955)
(8.94524216117e-06 1.18720363121e-05 0.000814605589084)
(7.95265246606e-06 1.30569415015e-05 0.000835786510208)
(6.71599880479e-06 1.41311399377e-05 0.000854193610099)
(5.25362175708e-06 1.50288214996e-05 0.000869111217168)
(3.60475910723e-06 1.5703307242e-05 0.000880055985068)
(1.82203473821e-06 1.61213313793e-05 0.000886728339389)
(-3.05953569946e-08 1.62620277734e-05 0.000888965074957)
(-1.88277041556e-06 1.61181404093e-05 0.000886711485251)
(-3.66412442073e-06 1.56970197427e-05 0.000880022683446)
(-5.31068551943e-06 1.50196342903e-05 0.00086906235184)
(-6.76981436564e-06 1.4119372896e-05 0.000854130743724)
(-8.00226760383e-06 1.30430659644e-05 0.000835711299801)
(-8.98985733682e-06 1.18562286744e-05 0.000814512224685)
(-9.85008169048e-06 1.0530688997e-05 0.000791218202026)
(1.02602084883e-05 1.09956851313e-05 0.00083129409514)
(9.30219603994e-06 1.22671333788e-05 0.00085384718915)
(8.22342505265e-06 1.33772891489e-05 0.000874322451455)
(6.90805697339e-06 1.43716179061e-05 0.000892047553911)
(5.37976108292e-06 1.5194766964e-05 0.000906342013102)
(3.67868407871e-06 1.58092490575e-05 0.000916784958548)
(1.85482198932e-06 1.61885181297e-05 0.000923131774133)
(-3.28251702551e-08 1.63158574017e-05 0.000925254472776)
(-1.92001717864e-06 1.61854317793e-05 0.000923111157677)
(-3.74250860477e-06 1.58031445075e-05 0.00091674419925)
(-5.44128377215e-06 1.51857870395e-05 0.000906282221588)
(-6.96632651026e-06 1.43600137598e-05 0.000891970865668)
(-8.27748717206e-06 1.33634541329e-05 0.00087423149028)
(-9.35119343767e-06 1.22511780642e-05 0.00085373585967)
(-1.03020380819e-05 1.09786554366e-05 0.000831146079262)
(1.05263110039e-05 1.12497977533e-05 0.000866166955931)
(9.48863051648e-06 1.24228997223e-05 0.000887857283869)
(8.33938797547e-06 1.34180632665e-05 0.000907461479549)
(6.96772859195e-06 1.42958107799e-05 0.000924295446528)
(5.40166341104e-06 1.50149200767e-05 0.000937756703879)
(3.6807745213e-06 1.55480453843e-05 0.000947526690333)
(1.85107521023e-06 1.58756599121e-05 0.000953438282271)
(-3.47865632172e-08 1.59853548757e-05 0.000955409141529)
(-1.92020113285e-06 1.58727776873e-05 0.00095341302951)
(-3.74855724067e-06 1.55423192038e-05 0.000947476626651)
(-5.46719236404e-06 1.50064326801e-05 0.000937682989972)
(-7.03006704188e-06 1.42847244646e-05 0.000924200639742)
(-8.39759240986e-06 1.3404665099e-05 0.000907349365366)
(-9.54178922261e-06 1.2407200353e-05 0.000887722027182)
(-1.0572306343e-05 1.12328082134e-05 0.000865992407615)
(1.06182023306e-05 1.13057208554e-05 0.00089641294274)
(9.51692677323e-06 1.23498564895e-05 0.000917346129119)
(8.31589674566e-06 1.31888819024e-05 0.000935997866045)
(6.90990570605e-06 1.39172433548e-05 0.000951730189057)
(5.33239486248e-06 1.45074442862e-05 0.00096413701791)
(3.62070965223e-06 1.49418528113e-05 0.000973056932258)
(1.81594406703e-06 1.52075361023e-05 0.000978421779526)
(-3.64426555753e-08 1.52962078745e-05 0.000980202734266)
(-1.888395987e-06 1.52049473453e-05 0.000978391082714)
(-3.69186118728e-06 1.49366853212e-05 0.000972995791418)
(-5.40137082974e-06 1.44997204854e-05 0.000964046288928)
(-6.97580223141e-06 1.39070271326e-05 0.000951612326504)
(-8.37780043249e-06 1.31763211318e-05 0.000935857747599)
(-9.5738945127e-06 1.23348325787e-05 0.000917179897293)
(-1.06682056139e-05 1.1289127845e-05 0.000896206455401)
(1.0551633389e-05 1.13160412942e-05 0.000922688626986)
(9.41017191823e-06 1.21100521678e-05 0.000943490574001)
(8.17154564394e-06 1.27356869112e-05 0.000960952099299)
(6.75218381713e-06 1.3271585295e-05 0.000975260883914)
(5.18708122378e-06 1.36997421721e-05 0.000986338217677)
(3.50948763708e-06 1.40120089901e-05 0.000994209692348)
(1.75521995699e-06 1.42017585173e-05 0.00099890927102)
(-3.7764643243e-08 1.42647754762e-05 0.00100046090897)
(-1.83033051225e-06 1.41995738374e-05 0.00099887285069)
(-3.58334648183e-06 1.40076252067e-05 0.000994136768208)
(-5.25885480226e-06 1.36931295593e-05 0.000986228896409)
(-6.82101786675e-06 1.32627149597e-05 0.000975116462491)
(-8.23658002406e-06 1.27245780501e-05 0.00096077772627)
(-9.47034594433e-06 1.20963524409e-05 0.000943281166124)
(-1.06055282037e-05 1.13005610318e-05 0.000922455568072)
(-3.37495120546e-08 -6.23548122327e-08 4.45026585854e-05)
(-1.43434468457e-08 -8.60159588383e-08 4.68142546043e-05)
(-2.1139342057e-09 -1.00092561122e-07 4.89759330373e-05)
(6.32676766929e-09 -1.08547420435e-07 5.08884034173e-05)
(9.98412091228e-09 -1.12833498131e-07 5.24651186723e-05)
(9.29072773664e-09 -1.14522720017e-07 5.36388365444e-05)
(5.25977164204e-09 -1.14952613678e-07 5.43626858516e-05)
(-6.00111644142e-10 -1.15020526742e-07 5.46083363049e-05)
(-6.43677137074e-09 -1.15042702492e-07 5.43610685045e-05)
(-1.04007308712e-08 -1.14701062665e-07 5.36356044731e-05)
(-1.10001754565e-08 -1.13099094597e-07 5.24602686952e-05)
(-7.27781642676e-09 -1.08902759141e-07 5.08818953757e-05)
(1.2630469681e-09 -1.00474780712e-07 4.89676089653e-05)
(1.36329720753e-08 -8.6429736289e-08 4.68035146368e-05)
(3.32527690371e-08 -6.27141723566e-08 4.4487496079e-05)
(-9.33492327774e-08 -1.63531685338e-07 0.000130236478242)
(-4.22727181182e-08 -2.20788165994e-07 0.00013674324659)
(-7.65876028209e-09 -2.55985696635e-07 0.000142841904531)
(1.56536042013e-08 -2.76375829761e-07 0.000148243629335)
(2.59928697087e-08 -2.85792915119e-07 0.000152701614111)
(2.44352645958e-08 -2.88646662235e-07 0.000156023099859)
(1.37216789419e-08 -2.88699462956e-07 0.000158072204816)
(-2.00633927604e-09 -2.88502658869e-07 0.00015876609508)
(-1.76704268449e-08 -2.88968073055e-07 0.000158067208695)
(-2.81988238983e-08 -2.89178276983e-07 0.000156013120005)
(-2.94860014188e-08 -2.86578261657e-07 0.000152686647897)
(-1.88821600155e-08 -2.77401991253e-07 0.000148223570766)
(4.77639615509e-09 -2.57113070698e-07 0.000142816308763)
(3.98445947115e-08 -2.22008247764e-07 0.000136710389741)
(9.15908070878e-08 -1.64636744307e-07 0.000130191697967)
(-1.44095217777e-07 -2.42359317359e-07 0.000212000032635)
(-6.79336490868e-08 -3.20963722081e-07 0.00022228186796)
(-1.42329817347e-08 -3.69428960112e-07 0.00023192421142)
(2.18743322352e-08 -3.96023575981e-07 0.000240469882696)
(3.816796075e-08 -4.0660075415e-07 0.000247526752908)
(3.6210925788e-08 -4.08054525599e-07 0.000252787288668)
(2.01749666397e-08 -4.06308927961e-07 0.00025603311907)
(-3.5649637301e-09 -4.05391975354e-07 0.000257130865383)
(-2.72055093735e-08 -4.0673775459e-07 0.000256024666984)
(-4.29529268291e-08 -4.08904095502e-07 0.00025277041238)
(-4.44743785338e-08 -4.07856634974e-07 0.000247501464917)
(-2.76931299595e-08 -3.97651827665e-07 0.000240436050598)
(9.0351597584e-09 -3.71253024232e-07 0.000231881219033)
(6.34967103371e-08 -3.22936217022e-07 0.000222227225699)
(1.4078292473e-07 -2.44219597356e-07 0.00021192715156)
(-1.51747298979e-07 -2.63428699054e-07 0.000289811368444)
(-5.64886105049e-08 -3.45337186854e-07 0.000303453081905)
(1.09387554975e-08 -3.91179365072e-07 0.000316241739886)
(5.41379688236e-08 -4.10518123966e-07 0.000327579544145)
(7.02693099162e-08 -4.11446915195e-07 0.000336945682008)
(6.14292529963e-08 -4.03587778538e-07 0.00034392998317)
(3.33323769546e-08 -3.95219137102e-07 0.000348239659828)
(-5.28090234475e-09 -3.91961822593e-07 0.000349695884225)
(-4.37603769974e-08 -3.95814640418e-07 0.000348227724582)
(-7.14675306316e-08 -4.04764357539e-07 0.000343906165435)
(-7.97031612129e-08 -4.13176093304e-07 0.000336910033012)
(-6.283859795e-08 -4.12741106996e-07 0.000327531966368)
(-1.87122715975e-08 -3.93702012908e-07 0.000316181599988)
(4.97950323699e-08 -3.48079726901e-07 0.000303377513031)
(1.4661473101e-07 -2.66078859518e-07 0.000289712670235)
(-1.16453198814e-07 -2.29943655727e-07 0.000363645941018)
(-7.80356435887e-09 -3.00412385598e-07 0.000380227894606)
(6.77173538492e-08 -3.30045798809e-07 0.000395756167413)
(1.1215810474e-07 -3.30562384998e-07 0.000409522981066)
(1.21950479111e-07 -3.12632502049e-07 0.000420897271834)
(9.97872122252e-08 -2.88783758868e-07 0.000429380136714)
(5.30269093867e-08 -2.69754869423e-07 0.000434614211605)
(-7.1325459011e-09 -2.6280733626e-07 0.000436381486067)
(-6.71233570313e-08 -2.70520053659e-07 0.000434598762894)
(-1.13390638036e-07 -2.90290668687e-07 0.00042934933226)