/*--------------------------------*- C++ -*----------------------------------*\
  =========                 |
  \\      /  F ield         | OpenFOAM: The Open Source CFD Toolbox
   \\    /   O peration     | Website:  https://openfoam.org
    \\  /    A nd           | Version:  7
     \\/     M anipulation  |
\*---------------------------------------------------------------------------*/
FoamFile
{
    version     2.0;
    format      ascii;
    class       surfaceScalarField;
    location    "1.48";
    object      phi;
}
// * * * * * * * * * * * * * * * * * * * * * * * * * * * * * * * * * * * * * //

dimensions      [0 3 -1 0 0 0 0];

internalField   nonuniform List<scalar> 
65775
(
1.71389582318e-12
1.21872533217e-09
1.17644241466e-10
7.5929021039e-14
1.74957375726e-12
1.27815467708e-09
1.29321414677e-10
1.91101257543e-12
1.32980570823e-09
1.39893891499e-10
1.73140282699e-12
1.37457167844e-09
1.49113125926e-10
1.41979834317e-12
1.41042845035e-09
1.56674804851e-10
9.76746664224e-13
1.43675153019e-09
1.62309850857e-10
4.5676925423e-13
1.45329892965e-09
1.65848584356e-10
-9.9626011867e-14
1.45952132351e-09
1.67127336936e-10
-6.28410662795e-13
1.45326176242e-09
1.65848828316e-10
-1.08802085636e-12
1.43667935016e-09
1.62310490611e-10
-1.42483628703e-12
1.41032206044e-09
1.56676139504e-10
-1.63581158797e-12
1.37443806293e-09
1.49115831211e-10
-1.51212239755e-12
1.32965145849e-09
1.39899754176e-10
-1.50413678776e-12
1.27800725585e-09
1.29336799567e-10
1.21865767271e-09
1.17690524536e-10
2.16770687712e-13
6.52040626826e-12
2.17008979671e-09
3.16900559206e-10
1.84611027876e-13
9.87958955758e-12
2.27100587834e-09
3.4786917294e-10
1.08750874002e-11
2.35922020505e-09
3.75634797175e-10
1.02861003282e-11
2.43476718163e-09
3.99635141262e-10
8.42936343936e-12
2.49520419719e-09
4.19177073794e-10
5.64066822185e-12
2.53944662024e-09
4.33661909121e-10
2.27331282622e-12
2.5672436366e-09
4.42725900309e-10
-1.28580017745e-12
2.57770033872e-09
4.45993840538e-10
-4.67707617307e-12
2.56716036406e-09
4.42726640334e-10
-7.51210453283e-12
2.5392839267e-09
4.33663806568e-10
-9.43745516735e-12
2.49496518404e-09
4.19180973107e-10
-1.01145042338e-11
2.43446299027e-09
3.99642956836e-10
-9.21980992883e-12
2.35886726749e-09
3.75651621258e-10
-5.96152178992e-12
2.27066112114e-09
3.47912674919e-10
2.16990138521e-09
3.17018273671e-10
5.76539880396e-13
1.2719771999e-11
2.88542482838e-09
4.83352439852e-10
2.50539531778e-13
1.9754557856e-11
3.01361292779e-09
5.30850659123e-10
2.16964456839e-11
3.12614873493e-09
5.73192722549e-10
2.04490915612e-11
3.22123852431e-09
6.09598539603e-10
1.66477574963e-11
3.29716571958e-09
6.39105379089e-10
1.10262299735e-11
3.35257296175e-09
6.60899331445e-10
4.29582184006e-12
3.3873600802e-09
6.74498491215e-10
-2.78807968254e-12
3.40045614048e-09
6.79386325721e-10
-9.5538127362e-12
3.38724857158e-09
6.7449939272e-10
-1.52444312706e-11
3.35235485261e-09
6.60901767197e-10
-1.914727599e-11
3.29684542743e-09
6.39110613063e-10
-2.05256502313e-11
3.22082772863e-09
6.0960939337e-10
-1.87337490792e-11
3.12566875005e-09
5.73216454762e-10
-1.18625653195e-11
3.01314002403e-09
5.30911780064e-10
2.8851499972e-09
4.83514978711e-10
8.73655759435e-13
1.99577750404e-11
3.3924514453e-09
6.21070269793e-10
2.94828827303e-13
3.08924265828e-11
3.53670799278e-09
6.82871903759e-10
3.40205633276e-11
3.66338103097e-09
7.37718206938e-10
3.19689998631e-11
3.76902144806e-09
7.8466627027e-10
2.59248871109e-11
3.85307547352e-09
8.22567367381e-10
1.70621890935e-11
3.91420049401e-09
8.5047370137e-10
6.51274261372e-12
3.95253553258e-09
8.67839267776e-10
-4.56738706854e-12
3.96698018556e-09
8.74059355636e-10
-1.5161357861e-11
3.95241399298e-09
8.67839463707e-10
-2.41116322707e-11
3.91396212662e-09
8.50474898154e-10
-3.02840547732e-11
3.85272526101e-09
8.22571130424e-10
-3.25004782847e-11
3.76856987768e-09
7.8467594881e-10
-2.95627539138e-11
3.66284749825e-09
7.37742001595e-10
-1.88395284173e-11
3.53617894657e-09
6.82937088334e-10
3.39212916065e-09
6.21247675983e-10
1.13210949986e-12
2.77003014191e-11
3.71747656538e-09
7.31987727625e-10
3.22360653223e-13
4.28115678608e-11
3.86882800797e-09
8.06080288426e-10
4.73412478934e-11
4.0013730613e-09
8.71574582703e-10
4.44604847335e-11
4.11046883007e-09
9.27408564035e-10
3.59904935806e-11
4.19683084787e-09
9.72316397276e-10
2.35956261122e-11
4.25938625727e-09
1.00528214868e-09
8.87901538607e-12
4.29855919637e-09
1.02573910185e-09
-6.56437198169e-12
4.31333207784e-09
1.03303900876e-09
-2.13328073257e-11
4.29844351092e-09
1.02573796936e-09
-3.38297736889e-11
4.25915922314e-09
1.00528078794e-09
-4.24491667027e-11
4.19649642924e-09
9.72316476098e-10
-4.55208807414e-11
4.11003508179e-09
9.27413470335e-10
-4.12125061681e-11
4.00085331129e-09
8.71592309968e-10
-2.63474935326e-11
3.86831225877e-09
8.06138468333e-10
3.71715981389e-09
7.32158714684e-10
1.36297884963e-12
3.56740877267e-11
3.88534985237e-09
8.17837412172e-10
3.37236555667e-13
5.51658531102e-11
4.03668459855e-09
9.02376181079e-10
6.12634856154e-11
4.16856036898e-09
9.76828255049e-10
5.75818776365e-11
4.27565413616e-09
1.04005083054e-09
4.65894301228e-11
4.35987559231e-09
1.0907192406e-09
3.04746234051e-11
4.42060695343e-09
1.12780317369e-09
1.13491066923e-11
4.45856326296e-09
1.15074980588e-09
-8.71801759953e-12
4.47288805424e-09
1.15890470411e-09
-2.79009250233e-11
4.45846827189e-09
1.15074708442e-09
-4.4129023124e-11
4.42042016954e-09
1.12779865194e-09
-5.52868711322e-11
4.35959935853e-09
1.09071444304e-09
-5.91790514498e-11
4.27529228639e-09
1.04004867622e-09
-5.33245889931e-11
4.16811903793e-09
9.76835651593e-10
-3.41037122278e-11
4.03624640457e-09
9.02420057688e-10
3.88509398794e-09
8.17990111992e-10
1.57250309074e-12
4.37264004398e-11
3.91944242674e-09
8.80247267265e-10
3.4286053032e-13
6.77282126965e-11
4.06528186806e-09
9.73538045464e-10
7.55268925066e-11
4.19148990899e-09
1.05540659857e-09
7.11068950486e-11
4.29254635983e-09
1.12466403044e-09
5.75561334561e-11
4.37139383354e-09
1.17997569396e-09
3.76031503906e-11
4.42796673547e-09
1.22033931889e-09
1.3896239791e-11
4.46323956786e-09
1.24524166958e-09
-1.09869018456e-11
4.47655849345e-09
1.25405218886e-09
-3.47553592924e-11
4.4631774786e-09
1.24523752617e-09
-5.48298596879e-11
4.42784442763e-09
1.220331865e-09
-6.85577464845e-11
4.37121139231e-09
1.17996608852e-09
-7.32022576333e-11
4.29230233911e-09
1.12465429174e-09
-6.56621809512e-11
4.19118169506e-09
1.05540196055e-09
-4.19483162843e-11
4.06498149483e-09
9.7356454296e-10
3.91930320056e-09
8.80376645021e-10
1.76751961652e-12
5.1737717826e-11
3.84166381691e-09
9.20797072244e-10
3.41124731185e-13
8.03309406575e-11
3.97794888055e-09
1.0212937282e-09
8.99559953891e-11
4.0948399615e-09
1.1091849207e-09
8.48949338131e-11
4.18706110474e-09
1.18326761313e-09
6.87962745042e-11
4.25837412312e-09
1.24223599971e-09
4.49312706689e-11
4.30927084059e-09
1.28514605469e-09
1.65090912922e-11
4.34091752812e-09
1.31153985462e-09
-1.33463379998e-11
4.35286796954e-09
1.3208327203e-09
-4.18329944818e-11
4.3408979708e-09
1.31153498249e-09
-6.58251804006e-11
4.30923237783e-09
1.28513694567e-09
-8.21091243359e-11
4.25831399663e-09
1.24222319298e-09
-8.74042769619e-11
4.1869725406e-09
1.18325185109e-09
-7.8048449439e-11
4.09471089137e-09
1.10916945184e-09
-4.97564504326e-11
3.97783806238e-09
1.02130392634e-09
3.84169388179e-09
9.20903649975e-10
1.95255250127e-12
5.96208165288e-11
3.67245760714e-09
9.41038178462e-10
3.34065372993e-13
9.2867397097e-11
3.79633366597e-09
1.04734305308e-09
1.0446198254e-10
3.90141955781e-09
1.14001452316e-09
9.88927090007e-11
3.98307601364e-09
1.21786395198e-09
8.02868228421e-11
4.04563274806e-09
1.27964116828e-09
5.2454436471e-11
4.09005258197e-09
1.32447655275e-09
1.91914219134e-11
4.11758975585e-09
1.35197179911e-09
-1.57878343707e-11
4.12798028605e-09
1.36160133799e-09
-4.91171643861e-11
4.11761930704e-09
1.35196739394e-09
-7.70803912e-11
4.09011118978e-09
1.32446810102e-09
-9.58767953817e-11
4.04571522234e-09
1.27962841577e-09
-1.01686809269e-10
3.98317005447e-09
1.2178461099e-09
-9.03694033354e-11
3.90150470252e-09
1.13999268664e-09
-5.74363509099e-11
3.79645418302e-09
1.04734225769e-09
3.6727033138e-09
9.41127157471e-10
2.13183590356e-12
6.73248263623e-11
3.43080342781e-09
9.42485500776e-10
3.23088088016e-13
1.05305655558e-10
3.54040589588e-09
1.05334523286e-09
1.19058199351e-10
3.63217941481e-09
1.1497093162e-09
1.13146265863e-10
3.70246341935e-09
1.2304255106e-09
9.20823990999e-11
3.75585908194e-09
1.29431075871e-09
6.02152435489e-11
3.7936184694e-09
1.34056982356e-09
2.1962340084e-11
3.81695503741e-09
1.36885560921e-09
-1.83195303269e-11
3.82573964367e-09
1.3787054202e-09
-5.66397753283e-11
3.81703678847e-09
1.36885346784e-09
-8.86398842149e-11
3.79378070252e-09
1.34056553245e-09
-1.09897683061e-10
3.75609488733e-09
1.2943031244e-09
-1.16055323223e-10
3.70275643448e-09
1.2304120172e-09
-1.02587429031e-10
3.63250182528e-09
1.14968879531e-09
-6.49333451686e-11
3.54078827541e-09
1.05334262304e-09
3.43130151162e-09
9.42566115819e-10
2.3089776979e-12
7.48318738716e-11
3.13424667305e-09
9.26589082103e-10
3.09625129966e-13
1.17704488228e-10
3.22847475595e-09
1.04088294841e-09
1.33878207128e-10
3.30625553314e-09
1.14000775922e-09
1.27808433806e-10
3.36517279144e-09
1.2228555112e-09
1.04311395727e-10
3.40970890951e-09
1.28830156602e-09
6.82970996445e-11
3.44113888113e-09
1.33560707294e-09
2.48531051847e-11
3.46050019627e-09
1.36445451352e-09
-2.09635493339e-11
3.46775043948e-09
1.37443831145e-09
-6.44754365062e-11
3.46063369783e-09
1.36445689638e-09
-1.00623989533e-10
3.44140457294e-09
1.33561144601e-09
-1.243175437e-10
3.41009933187e-09
1.28830576542e-09
-1.30638038616e-10
3.36566946183e-09
1.22285516752e-09
-1.14757708396e-10
3.30682592123e-09
1.13999922796e-09
-7.22272902347e-11
3.22913681153e-09
1.04089097968e-09
3.13502121602e-09
9.26673941961e-10
2.48725726399e-12
8.21604078443e-11
2.798967303e-09
8.94691599944e-10
2.93644389257e-13
1.30258855598e-10
2.87721357938e-09
1.01141567427e-09
1.49204932902e-10
2.94107754982e-09
1.11252772419e-09
1.43129571869e-10
2.98939840565e-09
1.19694133771e-09
1.17148071937e-10
3.02597126915e-09
1.26355682961e-09
7.67983659537e-11
3.05179033883e-09
1.31165622159e-09
2.78974496724e-11
3.067627838e-09
1.34091790509e-09
-2.37470809617e-11
3.07349681632e-09
1.35097908182e-09
-7.27163825238e-11
3.06780965833e-09
1.34092738919e-09
-1.13201855088e-10
3.05215269853e-09
1.31167450154e-09
-1.39383057878e-10
3.02650818959e-09
1.26358090289e-09
-1.45715806738e-10
2.99009208797e-09
1.19696495641e-09
-1.27074996884e-10
2.9418942802e-09
1.11254428202e-09
-7.9337674844e-11
2.87815997747e-09
1.01144888737e-09
2.8000288476e-09
8.94795413299e-10
2.66921441162e-12
8.9501261205e-11
2.43977312699e-09
8.47978032451e-10
2.75382222059e-13
1.4346759877e-10
2.50168686562e-09
9.66243601632e-10
1.65494400123e-10
2.55264689772e-09
1.06874021532e-09
1.593810261e-10
2.59187713745e-09
1.1543242811e-09
1.30715871391e-10
2.62179157161e-09
1.22186693518e-09
8.57646243233e-11
2.64292355425e-09
1.27062380111e-09
3.11061095854e-11
2.65579171281e-09
1.30022714036e-09
-2.66777033061e-11
2.66047671878e-09
1.3103361148e-09
-8.14061029795e-11
2.65601564929e-09
1.3002463006e-09
-1.26495848664e-10
2.6433712986e-09
1.27066135187e-09
-1.55366222977e-10
2.62245924264e-09
1.22191942881e-09
-1.61747005895e-10
2.59275117346e-09
1.15438386034e-09
-1.40042271517e-10
2.55369677721e-09
1.06879650821e-09
-8.64613731884e-11
2.50291141261e-09
9.66316706786e-10
2.44112128319e-09
8.48113925686e-10
2.84382087637e-12
9.7680585367e-11
2.06966868393e-09
7.87428641769e-10
2.5329586756e-13
1.58162561396e-10
2.11578738311e-09
9.06532589515e-10
1.83036521965e-10
2.15614878149e-09
1.01000242289e-09
1.76464874315e-10
2.1882271315e-09
1.09651273351e-09
1.44798511994e-10
2.21280506338e-09
1.16486237003e-09
9.50199302347e-11
2.2301230596e-09
1.21423184205e-09
3.44156363096e-11
2.24055855615e-09
1.2441621884e-09
-2.9693511248e-11
2.2442564525e-09
1.25431016989e-09
-9.03707221336e-11
2.24081798038e-09
1.24419299841e-09
-1.40293909699e-10
2.23064216381e-09
1.2142929285e-09
-1.72175030318e-10
2.2135824133e-09
1.16495059125e-09
-1.79029088897e-10
2.18925512233e-09
1.09661971156e-09
-1.54497928417e-10
2.15740602822e-09
1.01011371961e-09
-9.44311090208e-11
2.11727382519e-09
9.06659129795e-10
2.07128231435e-09
7.87603798521e-10
3.01764099771e-12
1.07435608152e-10
7.13901777319e-10
2.30706770736e-13
1.70005690207e-09
1.74164173583e-10
8.33609538771e-10
1.73300009168e-09
2.00914619691e-10
9.37731526108e-10
1.76609167484e-09
1.9342698688e-10
1.02498383967e-09
1.79262457911e-09
1.58705320028e-10
1.09406548705e-09
1.81285959533e-09
1.04173170217e-10
1.14403430125e-09
1.82712507702e-09
3.76971042798e-11
1.17429649799e-09
1.83565308556e-09
-3.2671823546e-11
1.18448177166e-09
1.83857717186e-09
-9.92274300532e-11
1.17433895082e-09
1.83594349113e-09
-1.53916596071e-10
1.14411912794e-09
1.8277063217e-09
-1.88870639713e-10
1.09419065058e-09
1.81373072733e-09
-1.9666286962e-10
1.02514260032e-09
1.79378245662e-09
-1.70285886235e-10
9.37906751107e-10
1.76752747353e-09
-1.04006690268e-10
8.33809064966e-10
1.73471557579e-09
7.14099007998e-10
3.17685612915e-12
1.70191783119e-09
-2.28872280254e-12
5.01180377201e-11
6.98758884715e-11
2.58734733037e-14
-3.6584742846e-12
5.4771879852e-11
7.60610667569e-11
-4.28231278753e-12
5.93867301465e-11
8.12711883996e-11
-4.21673071905e-12
6.36115993824e-11
8.55619914219e-11
-3.5132831711e-12
6.71400793531e-11
8.89238980742e-11
-2.29730114181e-12
6.98179375105e-11
9.13465984268e-11
-7.46146826174e-13
7.15183530641e-11
9.28429405462e-11
9.22490288309e-13
7.21314978601e-11
9.33904269505e-11
2.47540690774e-12
7.15123613633e-11
9.2846359481e-11
3.69376654733e-12
6.98006392987e-11
9.13534984845e-11
4.39453019372e-12
6.71013433236e-11
8.89344701756e-11
4.44526572654e-12
6.35474837354e-11
8.55768273339e-11
3.79748945426e-12
5.93131709204e-11
8.12920578757e-11
2.39726788944e-12
5.46991511563e-11
7.60936994046e-11
5.01004182143e-11
6.99380526384e-11
1.02382346801e-13
-4.843918183e-12
1.57209834656e-10
2.14748717904e-10
6.60796833176e-14
-8.1188119836e-12
1.71000167763e-10
2.3513571428e-10
-9.76379808328e-12
1.84248054351e-10
2.52642202297e-10
-9.75896059676e-12
1.96184476136e-10
2.67248342152e-10
-8.20010822447e-12
2.06094942395e-10
2.78807486714e-10
-5.36949759511e-12
2.13567256784e-10
2.87197907191e-10
-1.702807974e-12
2.18294053406e-10
2.92389898311e-10
2.258912882e-12
2.1999753814e-10
2.94270487348e-10
5.92645275986e-12
2.18274811326e-10
2.92399725821e-10
8.75509360451e-12
2.13518969051e-10
2.87217755568e-10
1.02973232955e-11
2.06000421548e-10
2.78837978613e-10
1.02563757751e-11
1.96035814598e-10
2.67291233799e-10
8.53922290178e-12
1.84072225047e-10
2.52702459226e-10
5.17481756084e-12
1.7083530931e-10
2.35229324861e-10
1.57155058062e-10
2.14915257245e-10
3.05522130183e-13
-5.78430366075e-12
2.93735135626e-10
3.52669412574e-10
9.64184748193e-14
-1.00149566668e-11
3.18543747383e-10
3.87736187591e-10
-1.23156325352e-11
3.41845179304e-10
4.1810075554e-10
-1.24772775616e-11
3.62548840261e-10
4.43567573014e-10
-1.05629361751e-11
3.79625408393e-10
4.63793091568e-10
-6.91822994517e-12
3.92423515157e-10
4.78507275103e-10
-2.1255183072e-12
4.00490539712e-10
4.87609834262e-10
3.07485844579e-12
4.03395255023e-10
4.90886594338e-10
7.86331714761e-12
4.00457374879e-10
4.87625161845e-10
1.14942023352e-11
3.92346244593e-10
4.78538254428e-10
1.33707582155e-11
3.79485837237e-10
4.63840721705e-10
1.31308129017e-11
3.6234017939e-10
4.43634500672e-10
1.07125140269e-11
3.41599411223e-10
4.18194066703e-10
6.33916065929e-12
3.18324293542e-10
3.87878334696e-10
2.93663203981e-10
3.52913953404e-10
5.08047762147e-13
-5.36047981444e-12
4.40781909909e-10
4.79410268771e-10
1.20755300383e-13
-9.63716487949e-12
4.76861339704e-10
5.29012698397e-10
-1.21848759178e-11
5.10100082576e-10
5.72194401437e-10
-1.25657827468e-11
5.39224789301e-10
6.08525114115e-10
-1.07401671215e-11
5.63057108373e-10
6.37432962345e-10
-7.02773862034e-12
5.80804134193e-10
6.58484559775e-10
-2.04555273935e-12
5.91947503373e-10
6.71496522839e-10
3.39119307107e-12
5.95955429458e-10
6.76156008113e-10
8.36127018664e-12
5.91902062415e-10
6.71516157861e-10
1.20435318758e-11
5.80703735396e-10
6.58524254519e-10
1.38064555734e-11
5.62886729502e-10
6.37493960869e-10
1.33144782207e-11
5.38981659166e-10
6.08610530967e-10
1.06080916758e-11
5.0981658017e-10
5.72312222123e-10
6.14174580453e-12
4.76615617978e-10
5.29188261742e-10
4.40704345066e-10
4.79703517833e-10
7.14502710029e-13
-3.7435588412e-12
5.83480846563e-10
5.93026547861e-10
1.40724056616e-13
-7.24829106431e-12
6.29911925828e-10
6.56698846325e-10
-9.62686814899e-12
6.71878281298e-10
7.12336042591e-10
-1.0235875541e-11
7.08137919877e-10
7.59242066353e-10
-8.88695845572e-12
7.37532868014e-10
7.96603925481e-10
-5.79280560357e-12
7.59266835083e-10
8.23822270396e-10
-1.49684926899e-12
7.72854134797e-10
8.40626848086e-10
3.2349984813e-12
7.77734873538e-10
8.46615253357e-10
7.50944585304e-12
7.72801018803e-10
8.40649788791e-10
1.05547537255e-11
7.59153546044e-10
8.23868614197e-10
1.18145308306e-11
7.37349023183e-10
7.9667493469e-10
1.10621749702e-11
7.07884700655e-10
7.5934077955e-10
8.48804133668e-12
6.7158760646e-10
7.12470161037e-10
4.75253507155e-12
6.29665423039e-10
6.56894376772e-10
5.8341224325e-10
5.93345647285e-10
9.22520613903e-13
-1.10835487908e-12
7.10586336923e-10
6.9181052391e-10
1.57514067635e-13
-3.10152306541e-12
7.65629546976e-10
7.68796438358e-10
-4.89719020462e-12
8.14407711121e-10
8.36237622358e-10
-5.70451590049e-12
8.55953528157e-10
8.9316694672e-10
-5.16353626303e-12
8.89280523037e-10
9.38535006979e-10
-3.31129979739e-12
9.13724885807e-10
9.715849294e-10
-5.13995838039e-13
9.28929908064e-10
9.91962761142e-10
2.63502096406e-12
9.34382807522e-10
9.99190576164e-10
5.40079486971e-12
9.28874308707e-10
9.91988358884e-10
7.18480951782e-12
9.13609531195e-10
9.71636536815e-10
7.61018281109e-12
8.89100104464e-10
9.38613617185e-10
6.62896604064e-12
8.55712782743e-10
8.9327493492e-10
4.60422286334e-12
8.1413634072e-10
8.36381419789e-10
2.34519907203e-12
7.6540771018e-10
7.69001607546e-10
7.10538335986e-10
6.9214006934e-10
1.12942234461e-12
2.36274363501e-12
8.14074098614e-10
7.74342813533e-10
1.71448138261e-13
2.53980568887e-12
8.75474396199e-10
8.63642652373e-10
1.72164426423e-12
9.28763061374e-10
9.41996139286e-10
7.75855197029e-13
9.73493457646e-10
1.00818104461e-09
2.35710051884e-13
1.00896162299e-09
1.06093038649e-09
2.94999815548e-13
1.0347446039e-09
1.09934591248e-09
8.60122575425e-13
1.0506898353e-09
1.12299706616e-09
1.629282918e-12
1.05639628108e-09
1.13134694692e-09
2.15298746784e-12
1.05063791223e-09
1.12302507561e-09
2.12527472418e-12
1.0346393827e-09
1.09940227699e-09
1.44434887562e-12
1.0088019788e-09
1.06101547456e-09
2.96587088719e-13
9.73286649315e-10
1.00829596885e-09
-7.80698684183e-13
9.28534492239e-10
9.42145340785e-10
-9.0036996372e-13
8.75300812061e-10
8.63850899843e-10
8.14062151065e-10
7.74673244928e-10
1.33421204926e-12
6.4931685161e-12
8.88778768834e-10
8.39521453515e-10
1.82655756389e-13
9.40739851305e-12
9.54017507744e-10
9.3994730208e-10
9.92538086181e-12
1.00940048208e-09
1.02814046356e-09
8.91950630954e-12
1.05521077812e-09
1.10265598233e-09
7.08188217958e-12
1.09108662258e-09
1.16203682213e-09
4.87903129209e-12
1.11691139195e-09
1.20526239572e-09
2.57382403989e-12
1.13277773064e-09
1.23183286921e-09
2.65871942789e-13
1.13844050317e-09
1.24116912999e-09
-2.08999004353e-12
1.13273525955e-09
1.23186358087e-09
-4.39724015828e-12
1.11682738911e-09
1.20532404304e-09
-6.39860516358e-12
1.09096333855e-09
1.16212894578e-09
-7.63182615448e-12
1.05505694374e-09
1.10277798541e-09
-7.39921599842e-12
1.00923687524e-09
1.02829415052e-09
-4.80976824109e-12
9.53913765389e-10
9.40156455832e-10
8.8882405265e-10
8.39848577598e-10
1.53485589093e-12
1.11153078127e-11
9.32041175767e-10
8.86563216907e-10
1.91936331343e-13
1.72309824561e-11
9.98547139021e-10
9.96793867361e-10
1.93934189496e-11
1.05371461521e-09
1.09363440281e-09
1.84115318299e-11
1.09868543129e-09
1.17545996146e-09
1.51139228934e-11
1.13345238321e-09
1.24065309469e-09
1.0269210114e-11
1.15821921348e-09
1.28808759556e-09
4.56656365253e-12
1.17332436122e-09
1.31719814477e-09
-1.39751935976e-12
1.17869617736e-09
1.32737733254e-09
-7.15913668566e-12
1.17329661758e-09
1.31723283772e-09
-1.2123752553e-11
1.15816642962e-09
1.28815677627e-09
-1.56053327195e-11
1.13337931271e-09
1.24075506391e-09
-1.68368277618e-11
1.09860110924e-09
1.1755918891e-09
-1.49828079692e-11
1.05363529191e-09
1.09379503546e-09
-9.21665600415e-12
9.98534438347e-10
9.97006071439e-10
9.32164039888e-10
8.86887602511e-10
1.72946021707e-12
1.60725994699e-11
9.43357466953e-10
9.14981783931e-10
1.99146214014e-13
2.57437168493e-11
1.00869124941e-09
1.03361218357e-09
2.97939869455e-11
1.0616083807e-09
1.13784857616e-09
2.89123770017e-11
1.10414118479e-09
1.22592979188e-09
2.40413557106e-11
1.13660559147e-09
1.29610132213e-09
1.62705351706e-11
1.1594877426e-09
1.34714040994e-09
6.76898632298e-12
1.17333346752e-09
1.37841338632e-09
-3.29418267967e-12
1.17823389856e-09
1.38929358713e-09
-1.28619607307e-11
1.17332463623e-09
1.37845383436e-09
-2.07660655631e-11
1.15947407301e-09
1.3472204738e-09
-2.58384730884e-11
1.136593703e-09
1.29621777709e-09
-2.69887331477e-11
1.10414029484e-09
1.22607713862e-09
-2.32667875986e-11
1.06163054377e-09
1.1380220757e-09
-1.39671430264e-11
1.00878982819e-09
1.03383373709e-09
9.43581588842e-10
9.15308375611e-10
1.91629012934e-12
2.12235794735e-11
9.24047692129e-10
9.2454640837e-10
2.05121317626e-13
3.46864224315e-11
9.86051766038e-10
1.05012967728e-09
4.07880596202e-11
1.03507642312e-09
1.16050988826e-09
4.00608629089e-11
1.07397526299e-09
1.25381759714e-09
3.35456192743e-11
1.10331871819e-09
1.32816896302e-09
2.26650746139e-11
1.12379543491e-09
1.38224244452e-09
9.10279026891e-12
1.13608519201e-09
1.41532501932e-09
-5.34878800621e-12
1.14040789008e-09
1.42677398969e-09
-1.89835210946e-11
1.13609856288e-09
1.41537345877e-09
-3.00086757062e-11
1.12382717466e-09
1.38233776929e-09
-3.67398831228e-11
1.10337659982e-09
1.32830624509e-09
-3.77517521303e-11
1.07406861482e-09
1.25398830663e-09
-3.19953766613e-11
1.03521418928e-09
1.16070527232e-09
-1.8922595834e-11
9.86279948821e-10
1.05037033185e-09
9.24394653444e-10
9.24883857521e-10
2.09314875267e-12
2.64464394934e-11
8.7692671186e-10
9.15224757325e-10
2.09508903407e-13
4.38109297752e-11
9.33849589669e-10
1.04631345846e-09
5.20303457941e-11
9.77799333413e-10
1.16164691114e-09
5.14728934491e-11
1.01230289145e-09
1.25923147531e-09
4.32787039029e-11
1.038087746e-09
1.33704009501e-09
2.92105189273e-11
1.05593579711e-09
1.3936399349e-09
1.14804570266e-11
1.06656701681e-09
1.42822073483e-09
-7.47740483578e-12
1.07027552941e-09
1.4401215943e-09
-2.52852294851e-11
1.06660540045e-09
1.42827961628e-09
-3.95077601573e-11
1.05601763414e-09
1.39375545424e-09
-4.79300830288e-11
1.0382220835e-09
1.33720565071e-09
-4.87854882574e-11
1.01249896334e-09
1.25943530108e-09
-4.09252662992e-11
9.78064624154e-10
1.16187546297e-09
-2.39663646916e-11
9.34223012791e-10
1.04658492464e-09
8.77417403869e-10
9.15583874668e-10
2.25769852365e-12
3.16724272674e-11
8.0596635655e-10
8.87114811923e-10
2.12198923898e-13
5.29066150332e-11
8.56580810642e-10
1.02232988978e-09
6.31808365963e-11
8.9475797962e-10
1.14156048145e-09
6.27451310161e-11
9.24521628199e-10
1.24259314432e-09
5.2864057853e-11
9.46652331059e-10
1.32323467214e-09
3.56417409333e-11
9.6190483435e-10
1.38192736625e-09
1.38050298126e-11
9.70936169994e-10
1.41774291813e-09
-9.58714824221e-12
9.74055379496e-10
1.42999621019e-09
-3.15066821534e-11
9.71001936359e-10
1.4178144415e-09
-4.88917566508e-11
9.62041723146e-10
1.38206767848e-09
-5.90116835228e-11
9.46868969595e-10
1.32343588056e-09
-5.97561800961e-11
9.248280968e-10
1.24284047069e-09
-4.98524403859e-11
8.95160777823e-10
1.14183456399e-09
-2.9036090249e-11
8.5711454759e-10
1.02264350621e-09
8.06621474636e-10
8.87504166906e-10
2.40081196093e-12
3.68700166458e-11
7.15992065294e-10
8.40377667934e-10
2.12749938273e-13
6.16865604272e-11
7.59749763966e-10
9.78591972821e-10
7.3802944552e-11
7.91823621922e-10
1.10086557878e-09
7.33954008741e-11
8.16850652515e-10
1.20463750902e-09
6.18724452796e-11
8.35508712575e-10
1.28757427492e-09
4.16637669192e-11
8.48400040914e-10
1.34798956492e-09
1.59714071541e-11
8.56018228558e-10
1.38481644422e-09
-1.1577143883e-11
8.58618530471e-10
1.39733727682e-09
-3.73570433689e-11
8.56114755818e-10
1.38490180337e-09
-5.77370470184e-11
8.48597207674e-10
1.34815740807e-09
-6.95085559714e-11
8.35814439098e-10
1.2878162941e-09
-7.02346515096e-11
8.17274051834e-10
1.20493721356e-09
-5.84957864938e-11
7.92372605225e-10
1.10119752792e-09
-3.41054054883e-11
7.6045684865e-10
9.78957217019e-10
7.16823861026e-10
8.40798509139e-10
2.52549845576e-12
3.97317075912e-11
7.75254641938e-10
2.13572076917e-13
6.14747700824e-10
6.8465625711e-11
9.16099492166e-10
6.48566277928e-10
8.2676748162e-11
1.04061045071e-09
6.74774728934e-10
8.25726196998e-11
1.1464457433e-09
6.95533132917e-10
6.97525104529e-11
1.23117800508e-09
7.11257184185e-10
4.69692082639e-11
1.29297859028e-09
7.22279425366e-10
1.78789221304e-11
1.33061575783e-09
7.28827916224e-10
-1.33496118993e-11
1.34332760254e-09
7.31039183983e-10
-4.2533047935e-11
1.33071355339e-09
7.28959582619e-10
-6.54971249089e-11
1.29317144346e-09
7.22545749925e-10
-7.85775847024e-11
1.23145822612e-09
7.1166314412e-10
-7.90102810098e-11
1.14679781754e-09
6.96085804851e-10
-6.51856582791e-11
1.0410047513e-09
6.75481696701e-10
-3.68786918423e-11
9.1653264332e-10
6.49455691117e-10
7.75680077864e-10
2.61469221313e-12
6.15776560143e-10
2.11009074672e-13
-1.57053469871e-13
6.9885094492e-11
9.36052109138e-15
2.28063049674e-13
-3.60137967493e-13
7.64830139671e-11
2.19785519318e-13
-7.51877021765e-13
8.21226702173e-11
1.83982194944e-13
-1.15341932867e-12
8.68227289999e-11
1.50460769441e-13
-1.50450581203e-12
9.0539881742e-11
1.18462536571e-13
-1.77900689983e-12
9.32374098737e-11
8.43775320334e-14
-1.95961914715e-12
9.49092016364e-11
4.64060380066e-14
-2.028777015e-12
9.55192491678e-11
7.07079910012e-15
-1.97610823729e-12
9.49157351392e-11
-3.4258788262e-14
-1.80732212723e-12
9.32504677297e-11
-7.7443835946e-14
-1.53751313957e-12
9.0559507792e-11
-1.20009357747e-13
-1.18812914669e-12
8.68492537699e-11
-1.45437215813e-13
-8.00228683505e-13
8.21573074553e-11
-1.44076811772e-13
-4.00631174381e-13
7.65305829157e-11
-1.87279853816e-13
6.99611647495e-11
5.55387908578e-14
5.62080679114e-13
1.02157742619e-11
2.03909191949e-10
2.04511335222e-14
7.35502895686e-13
1.0961150837e-11
2.23773168171e-10
7.52359331998e-13
1.11664585947e-11
2.40841459332e-10
6.72974696154e-13
1.1216907727e-11
2.55079274442e-10
5.5795444424e-13
1.12064275615e-11
2.66338128234e-10
4.26096079974e-13
1.1171874689e-11
2.74503966901e-10
2.79654509369e-13
1.11349610064e-11
2.79554794974e-10
1.21554983278e-13
1.1112090924e-11
2.81386049622e-10
-3.896869302e-14
1.10965331055e-11
2.79574017611e-10
-1.96223878065e-13
1.11030903106e-11
2.74542354657e-10
-3.4038508285e-13
1.1120583986e-11
2.66395754616e-10
-4.49058043659e-13
1.11220802092e-11
2.55156986154e-10
-4.78012251921e-13
1.10521995145e-11
2.40942614528e-10
-3.5630474304e-13
1.0855727782e-11
2.23910922011e-10
1.01391490446e-11
2.04117639914e-10
1.69805697865e-13
9.19969990866e-13
3.15894362102e-11
3.30452009768e-10
2.79320133458e-14
1.33852451261e-12
3.44941156604e-11
3.63905972878e-10
1.44344074302e-12
3.64490380491e-11
3.92832442431e-10
1.34422527496e-12
3.79496321372e-11
4.17046803636e-10
1.12814337217e-12
3.90946913597e-11
4.36236727185e-10
8.43828843784e-13
3.99059663838e-11
4.50171936097e-10
5.1511714337e-13
4.03937379271e-11
4.58783808357e-10
1.62713332493e-13
4.05546950807e-11
4.61887688859e-10
-1.87761968683e-13
4.03383062169e-11
4.58814663226e-10
-5.11969877575e-13
3.98051001488e-11
4.50233503502e-10
-7.77485262546e-13
3.89653246225e-11
4.36328990695e-10
-9.32467011147e-13
3.78041663905e-11
4.17170776301e-10
-9.02334430828e-13
3.62833465856e-11
3.92992580816e-10
-5.70481440967e-13
3.43378315451e-11
3.64120224382e-10
3.14792967917e-11
3.30765810234e-10
2.8880990671e-13
1.34797810837e-12
6.11043166229e-11
4.48610930238e-10
3.28049528758e-14
2.10880606924e-12
6.70143939695e-11
4.95836369399e-10
2.38042730321e-12
7.15674260997e-11
5.36910379427e-10
2.28683788036e-12
7.52534640097e-11
5.71418960838e-10
1.94011523715e-12
7.81472468998e-11
5.98832206883e-10
1.42636752967e-12
8.02396140175e-11
6.18766711135e-10
8.09298146116e-13
8.15227130423e-11
6.31078090695e-10
1.47398123835e-13
8.1964531113e-11
6.35491529345e-10
-4.98338662345e-13
8.14557930784e-11
6.31119219659e-10
-1.06547108596e-12
8.01160550989e-11
6.18848690267e-10
-1.48215796582e-12
7.79846426589e-11
5.9895476904e-10
-1.65863682634e-12
7.50680436235e-11
5.7158283067e-10
-1.49104536508e-12
7.13643093423e-11
5.37119906138e-10
-8.48184533482e-13
6.68243299769e-11
4.96110998962e-10
6.09676397046e-11
4.49000501908e-10
4.13526704366e-13
1.89910276373e-12
9.58641274419e-11
5.56418601445e-10
3.6286182606e-14
3.11809154501e-12
1.05271114942e-10
6.17310877629e-10
3.63965173073e-12
1.12937752585e-10
6.70537315635e-10
3.57588061251e-12
1.19248705616e-10
7.15402234327e-10
3.0582420478e-12
1.24241644095e-10
7.51119946375e-10
2.21805270694e-12
1.27866568522e-10
7.77126221027e-10
1.17796451463e-12
1.30096370563e-10
7.93177374139e-10
5.92008180219e-14
1.30871885202e-10
7.98902843624e-10
-1.0161545532e-12
1.30022406724e-10
7.93227590901e-10
-1.92294810583e-12
1.27728850082e-10
7.77226147533e-10
-2.53095564074e-12
1.24058070503e-10
7.51268816316e-10
-2.70428011789e-12
1.19038080884e-10
7.1559992226e-10
-2.31574872743e-12
1.12711500968e-10
6.70786899309e-10
-1.24415221916e-12
1.05064316606e-10
6.17631275841e-10
9.57106561961e-11
5.56860355278e-10
5.42607390629e-13
2.62152399718e-12
1.32935118485e-10
6.52153244234e-10
3.86684612277e-14
4.43815955449e-12
1.45982631335e-10
7.26344996715e-10
5.30206586136e-12
1.5692631229e-10
7.91465038285e-10
5.29258050756e-12
1.65996431931e-10
8.46509371157e-10
4.55236676723e-12
1.73184401726e-10