/*--------------------------------*- C++ -*----------------------------------*\
  =========                 |
  \\      /  F ield         | OpenFOAM: The Open Source CFD Toolbox
   \\    /   O peration     | Website:  https://openfoam.org
    \\  /    A nd           | Version:  7
     \\/     M anipulation  |
\*---------------------------------------------------------------------------*/
FoamFile
{
    version     2.0;
    format      ascii;
    class       volScalarField;
    location    "1.1";
    object      p;
}
// * * * * * * * * * * * * * * * * * * * * * * * * * * * * * * * * * * * * * //

dimensions      [0 2 -2 0 0 0 0];

internalField   nonuniform List<scalar> 
22500
(
1.2418670559e-05
1.24173797027e-05
1.24167460397e-05
1.24159328781e-05
1.24152780142e-05
1.24147725854e-05
1.24144601434e-05
1.2414355354e-05
1.24144713234e-05
1.2414794718e-05
1.24153108991e-05
1.24159757572e-05
1.24167985562e-05
1.24174388166e-05
1.24187418679e-05
1.24049146556e-05
1.24029358039e-05
1.24017167402e-05
1.24003875569e-05
1.23993085992e-05
1.23984885627e-05
1.23979829157e-05
1.23978136594e-05
1.23979945053e-05
1.23985115213e-05
1.23993426602e-05
1.24004320298e-05
1.24017710308e-05
1.24029969365e-05
1.24049878373e-05
1.23919039497e-05
1.23893181255e-05
1.23876164963e-05
1.23858501833e-05
1.23844186683e-05
1.23833370338e-05
1.2382671085e-05
1.23824480868e-05
1.23826825356e-05
1.23833597174e-05
1.23844522764e-05
1.23858940785e-05
1.23876700722e-05
1.23893785024e-05
1.23919767128e-05
1.23804566908e-05
1.23773876707e-05
1.23753100872e-05
1.23732123723e-05
1.23715146184e-05
1.23702373781e-05
1.23694520041e-05
1.23691890032e-05
1.23694631638e-05
1.2370259488e-05
1.23715473331e-05
1.23732550541e-05
1.23753621992e-05
1.23774463601e-05
1.23805280603e-05
1.2369925556e-05
1.23664586403e-05
1.23640693653e-05
1.23617115532e-05
1.23598043053e-05
1.2358375311e-05
1.23574977543e-05
1.23572040141e-05
1.23575086425e-05
1.23583968731e-05
1.23598361766e-05
1.23617530736e-05
1.23641199917e-05
1.23665155638e-05
1.23699952194e-05
1.23601295733e-05
1.23563441168e-05
1.23537004819e-05
1.23511453248e-05
1.23490787765e-05
1.23475365203e-05
1.23465906701e-05
1.23462742675e-05
1.23466012961e-05
1.23475575609e-05
1.23491098372e-05
1.23511857341e-05
1.23537495899e-05
1.23563993477e-05
1.23601976446e-05
1.23510776324e-05
1.23470527648e-05
1.23442103104e-05
1.23415169646e-05
1.23393386771e-05
1.2337719215e-05
1.23367273933e-05
1.23363958665e-05
1.23367377937e-05
1.23377397977e-05
1.23393690251e-05
1.23415563871e-05
1.23442580436e-05
1.23471064116e-05
1.23511443376e-05
1.23427592203e-05
1.23385687922e-05
1.23355784606e-05
1.23327999641e-05
1.23305528849e-05
1.23288883739e-05
1.23278704503e-05
1.23275305051e-05
1.23278806716e-05
1.23289085864e-05
1.23305826622e-05
1.23328385881e-05
1.23356250442e-05
1.23386211734e-05
1.23428249203e-05
1.23351393167e-05
1.23308496671e-05
1.23277575759e-05
1.23249407539e-05
1.23226632324e-05
1.23209819908e-05
1.23199554486e-05
1.2319612979e-05
1.23199655537e-05
1.23210019667e-05
1.2322692639e-05
1.23249788712e-05
1.23278033748e-05
1.23309012721e-05
1.23352045397e-05
1.23281753993e-05
1.23238444943e-05
1.2320693402e-05
1.23178802592e-05
1.23156071048e-05
1.23139345383e-05
1.23129150158e-05
1.23125752973e-05
1.23129250828e-05
1.23139544396e-05
1.2315636404e-05
1.23179182325e-05
1.23207389143e-05
1.23238959616e-05
1.23282409211e-05
1.23218187407e-05
1.23174958054e-05
1.23143276789e-05
1.23115573498e-05
1.23093211614e-05
1.23076807715e-05
1.2306682724e-05
1.23063506242e-05
1.23066928386e-05
1.23077007795e-05
1.23093506507e-05
1.23115956263e-05
1.2314373517e-05
1.2317547931e-05
1.23218855635e-05
1.23160019319e-05
1.23117351816e-05
1.23085978267e-05
1.23059092799e-05
1.23037415675e-05
1.2302155931e-05
1.23011932029e-05
1.23008734374e-05
1.23012034444e-05
1.23021762361e-05
1.23037715704e-05
1.23059483556e-05
1.23086447074e-05
1.23117888818e-05
1.23160711448e-05
1.23106077246e-05
1.2306481211e-05
1.23034413889e-05
1.23008748945e-05
1.22988065601e-05
1.22972981537e-05
1.22963848377e-05
1.2296082113e-05
1.22963952806e-05
1.22973188862e-05
1.22988373509e-05
1.2300915247e-05
1.23034900819e-05
1.23065374591e-05
1.23106803333e-05
1.23055454634e-05
1.23016799935e-05
1.22987923258e-05
1.22963835757e-05
1.22944445336e-05
1.22930382206e-05
1.2292190283e-05
1.22919102392e-05
1.22922009286e-05
1.22930594378e-05
1.22944762545e-05
1.22964255737e-05
1.22988435645e-05
1.23017400219e-05
1.23056217869e-05
1.2301364375e-05
1.22971661876e-05
1.22944713322e-05
1.22922337164e-05
1.22904575249e-05
1.22891855851e-05
1.22884243981e-05
1.2288174188e-05
1.22884353351e-05
1.22892074365e-05
1.22904904049e-05
1.22922778035e-05
1.22945263839e-05
1.22972321273e-05
1.2301444078e-05
1.06099564928e-05
1.0610169427e-05
1.06102789526e-05
1.06103595512e-05
1.06104211589e-05
1.06104665655e-05
1.06104950382e-05
1.06105042562e-05
1.06104932368e-05
1.06104632831e-05
1.06104171792e-05
1.0610355846e-05
1.06102757722e-05
1.06101666108e-05
1.06099551892e-05
1.06110431961e-05
1.06113008091e-05
1.06114600435e-05
1.06115864026e-05
1.06116859015e-05
1.06117591482e-05
1.06118046662e-05
1.06118197263e-05
1.0611803025e-05
1.06117562009e-05
1.06116824285e-05
1.06115834021e-05
1.06114579243e-05
1.06112988997e-05
1.06110428188e-05
1.06121268513e-05
1.06124541581e-05
1.06126771714e-05
1.06128654714e-05
1.06130182452e-05
1.06131320897e-05
1.06132030838e-05
1.06132269156e-05
1.0613201622e-05
1.0613129463e-05
1.06130151227e-05
1.06128627096e-05
1.06126753252e-05
1.06124522555e-05
1.06121268343e-05
1.061338302e-05
1.06138324252e-05
1.06141583563e-05
1.06144445367e-05
1.06146821664e-05
1.06148613294e-05
1.06149735588e-05
1.06150115629e-05
1.06149722635e-05
1.06148589897e-05
1.06146793249e-05
1.06144418907e-05
1.06141565351e-05
1.06138303981e-05
1.06133833111e-05
1.06149746325e-05
1.06156019931e-05
1.06160723323e-05
1.06164931885e-05
1.06168468058e-05
1.06171149241e-05
1.06172831462e-05
1.06173403251e-05
1.06172819914e-05
1.06171128349e-05
1.06168442267e-05
1.06164907068e-05
1.06160705449e-05
1.06155998888e-05
1.06149752786e-05
1.06169301025e-05
1.0617780394e-05
1.06184257634e-05
1.06190073672e-05
1.0619498129e-05
1.06198708145e-05
1.06201045653e-05
1.06201841246e-05
1.06201035487e-05
1.06198689763e-05
1.06194958352e-05
1.06190051047e-05
1.06184240923e-05
1.06177782116e-05
1.06169312747e-05
1.06192197649e-05
1.06203220649e-05
1.06211597304e-05
1.06219148538e-05
1.0622552204e-05
1.06230358842e-05
1.06233388351e-05
1.06234419527e-05
1.06233379385e-05
1.06230342658e-05
1.06225501774e-05
1.06219128276e-05
1.06211582292e-05
1.06203198832e-05
1.06192215101e-05
1.06217918954e-05
1.06231581324e-05
1.06241921318e-05
1.06251206375e-05
1.06259029668e-05
1.0626495554e-05
1.06268660063e-05
1.0626992027e-05
1.06268652175e-05
1.06264941387e-05
1.06259011951e-05
1.06251188643e-05
1.06241908045e-05
1.06231560559e-05
1.06217941871e-05
1.06245831626e-05
1.06262084665e-05
1.06274307862e-05
1.06285214237e-05
1.06294377598e-05
1.06301300592e-05
1.06305618565e-05
1.06307086002e-05
1.06305611464e-05
1.06301287984e-05
1.06294361942e-05
1.06285198877e-05
1.06274296485e-05
1.06262065604e-05
1.06245861246e-05
1.06275250635e-05
1.0629389038e-05
1.06307815441e-05
1.06320144294e-05
1.06330466987e-05
1.06338242145e-05
1.0634307901e-05
1.06344720663e-05
1.06343072392e-05
1.06338230533e-05
1.06330452804e-05
1.06320130819e-05
1.0630780576e-05
1.06293873481e-05
1.06275287089e-05
1.06305482726e-05
1.06326171823e-05
1.06341540575e-05
1.06355037987e-05
1.063662949e-05
1.06374743659e-05
1.06379983957e-05
1.06381759541e-05
1.0637997736e-05
1.06374732179e-05
1.06366281154e-05
1.06355025601e-05
1.06341532231e-05
1.06326157464e-05
1.06305527123e-05
1.06335823368e-05
1.06358125135e-05
1.06374642184e-05
1.06389040337e-05
1.0640099228e-05
1.06409923667e-05
1.06415443239e-05
1.06417309631e-05
1.0641543602e-05
1.06409911195e-05
1.06400977451e-05
1.06389027518e-05
1.06374634082e-05
1.06358113279e-05
1.06335875405e-05
1.06365524048e-05
1.06388994247e-05
1.06406395244e-05
1.06421450418e-05
1.064338652e-05
1.06443087864e-05
1.06448761616e-05
1.06450674638e-05
1.0644875304e-05
1.06443072642e-05
1.06433847085e-05
1.06421434565e-05
1.0640638534e-05
1.06388983425e-05
1.06365581613e-05
1.06394273564e-05
1.06418611913e-05
1.06436537967e-05
1.0645194016e-05
1.06464507693e-05
1.06473767469e-05
1.06479431302e-05
1.06481334828e-05
1.06479420494e-05
1.06473748092e-05
1.06464483772e-05
1.06451918512e-05
1.06436523429e-05
1.06418601959e-05
1.06394331763e-05
1.0642490372e-05
1.06447603402e-05
1.06465292099e-05
1.06480423959e-05
1.06492559862e-05
1.06501408585e-05
1.0650678602e-05
1.06508586363e-05
1.0650677389e-05
1.06501386233e-05
1.06492531734e-05
1.064803976e-05
1.06465276517e-05
1.06447601018e-05
1.06424957586e-05
1.07825477783e-05
1.07824146119e-05
1.07822644532e-05
1.0782109185e-05
1.07819679773e-05
1.07818568003e-05
1.07817859027e-05
1.07817611481e-05
1.0781784751e-05
1.0781854359e-05
1.07819639715e-05
1.07821034692e-05
1.07822584081e-05
1.07824073168e-05
1.07825409412e-05
1.07824572211e-05
1.0782325878e-05
1.07821763466e-05
1.07820211686e-05
1.07818797867e-05
1.07817681531e-05
1.07816968115e-05
1.07816719034e-05
1.07816958384e-05
1.0781766075e-05
1.07818763218e-05
1.07820161723e-05
1.07821709119e-05
1.07823194633e-05
1.07824511958e-05
1.07825061848e-05
1.07823850343e-05
1.07822454671e-05
1.07820982777e-05
1.07819631743e-05
1.07818558495e-05
1.07817869621e-05
1.07817628475e-05
1.07817860295e-05
1.07818538778e-05
1.07819599423e-05
1.07820936725e-05
1.07822403331e-05
1.07823790012e-05
1.0782500701e-05
1.07825379301e-05
1.07824210311e-05
1.07822867789e-05
1.07821440613e-05
1.07820124915e-05
1.07819075716e-05
1.07818400092e-05
1.07818163077e-05
1.07818390703e-05
1.07819056232e-05
1.07820094006e-05
1.07821397457e-05
1.07822818798e-05
1.07824151625e-05
1.07825330456e-05
1.07825244538e-05
1.07824066694e-05
1.07822737386e-05
1.07821327174e-05
1.07820026812e-05
1.07818988951e-05
1.07818319942e-05
1.07818085099e-05
1.07818310581e-05
1.07818969736e-05
1.07819996922e-05
1.07821286167e-05
1.07822690718e-05
1.07824009527e-05
1.0782520178e-05
1.07824833903e-05
1.0782362873e-05
1.0782230375e-05
1.07820908409e-05
1.07819626315e-05
1.07818604783e-05
1.07817946649e-05
1.0781771565e-05
1.07817937292e-05
1.07818585793e-05
1.0781959736e-05
1.07820869361e-05
1.07822259127e-05
1.07823573989e-05
1.07824796733e-05
1.07824295133e-05
1.07823068225e-05
1.07821755225e-05
1.07820388092e-05
1.07819139919e-05
1.07818149083e-05
1.07817512004e-05
1.07817288533e-05
1.07817502685e-05
1.07818130302e-05
1.07819111698e-05
1.07820350661e-05
1.07821712411e-05
1.07823015755e-05
1.07824264254e-05
1.07823728546e-05
1.07822497804e-05
1.0782121319e-05
1.07819894647e-05
1.07818701609e-05
1.07817759775e-05
1.07817156149e-05
1.07816944613e-05
1.07817146895e-05
1.07817741263e-05
1.07818674205e-05
1.07819858967e-05
1.07821172505e-05
1.07822447892e-05
1.07823704655e-05
1.07823214004e-05
1.0782200223e-05
1.07820765609e-05
1.07819517325e-05
1.07818400876e-05
1.07817526059e-05
1.07816967942e-05
1.07816772611e-05
1.07816958789e-05
1.07817507891e-05
1.07818374302e-05
1.07819483372e-05
1.0782072726e-05
1.07821955295e-05
1.07823197258e-05
1.07822809724e-05
1.07821638055e-05
1.07820467068e-05
1.0781930767e-05
1.07818286323e-05
1.07817493992e-05
1.07816991559e-05
1.07816816045e-05
1.07816982606e-05
1.07817476325e-05
1.07818260825e-05
1.07819275728e-05
1.07820431427e-05
1.07821594812e-05
1.07822800339e-05
1.07822547621e-05
1.07821429805e-05
1.07820336786e-05
1.07819279887e-05
1.07818367489e-05
1.07817669054e-05
1.0781722986e-05
1.07817076744e-05
1.07817221174e-05
1.0781765201e-05
1.07818343166e-05
1.07819250085e-05
1.07820303989e-05
1.07821390615e-05
1.07822545775e-05
1.07822430997e-05
1.07821367561e-05
1.07820358244e-05
1.07819412997e-05
1.07818619308e-05
1.07818023018e-05
1.07817652071e-05
1.0781752325e-05
1.07817643696e-05
1.07818006714e-05
1.07818596319e-05
1.07819385367e-05
1.07820328375e-05
1.07821332398e-05
1.07822436005e-05
1.07822444914e-05
1.07821418175e-05
1.07820492704e-05
1.07819664551e-05
1.07818995904e-05
1.07818505963e-05
1.07818206011e-05
1.07818101944e-05
1.07818198011e-05
1.07818490429e-05
1.07818974107e-05
1.07819638944e-05
1.07820465467e-05
1.07821386929e-05
1.07822456155e-05
1.07822562602e-05
1.07821561673e-05
1.0782071886e-05
1.07820007233e-05
1.07819459861e-05
1.07819070469e-05
1.0781883538e-05
1.07818754459e-05
1.07818827934e-05
1.07819055804e-05
1.0781943955e-05
1.0781998353e-05
1.07820694105e-05
1.07821534454e-05
1.07822578317e-05
1.07822613239e-05
1.07821659106e-05
1.07820929273e-05
1.07820353591e-05
1.0781993085e-05
1.07819635182e-05
1.07819458294e-05
1.07819397353e-05
1.07819452325e-05
1.07819623532e-05
1.07819914518e-05
1.07820335018e-05
1.07820911109e-05
1.07821640204e-05
1.07822628878e-05
9.6645922822e-06
9.66467031009e-06
9.66475776588e-06
9.66484610312e-06
9.66492433466e-06
9.66498471188e-06
9.66502234084e-06
9.66503420599e-06
9.66501915089e-06
9.66497854841e-06
9.66491570398e-06
9.66483598738e-06
9.66474677815e-06
9.66465939456e-06
9.66458017237e-06
9.66459709596e-06
9.66467182674e-06
9.66475741688e-06
9.66484485287e-06
9.66492265826e-06
9.66498298408e-06
9.66502068656e-06
9.6650325916e-06
9.66501743317e-06
9.66497670981e-06
9.66491391084e-06
9.66483465262e-06
9.66474658086e-06
9.6646610405e-06
9.66458557963e-06
9.66449527123e-06
9.66455923115e-06
9.66463488731e-06
9.66471445788e-06
9.66478615847e-06
9.66484233286e-06
9.66487764659e-06
9.6648888227e-06
9.66487452066e-06
9.66483629785e-06
9.66477772152e-06
9.66470450677e-06
9.66462429976e-06
9.66454842124e-06
9.66448401674e-06
9.66439264209e-06
9.66444785341e-06
9.66451509856e-06
9.66458754863e-06
9.6646536879e-06
9.66470601931e-06
9.66473910631e-06
9.66474960763e-06
9.66473614364e-06
9.66470029506e-06
9.66464566182e-06
9.6645779823e-06
9.66450479977e-06
9.66443717305e-06
9.66438160871e-06
9.66430691493e-06
9.66435555766e-06
9.6644162452e-06
9.6644826839e-06
9.66454400062e-06
9.66459287121e-06
9.66462392329e-06
9.66463378851e-06
9.66462109412e-06
9.66458740364e-06
9.66453630132e-06
9.66447344272e-06
9.66440616181e-06
9.66434502239e-06
9.66429610436e-06
9.66422919553e-06
9.66427230518e-06
9.66432704754e-06
9.66438785572e-06
9.6644444348e-06
9.66448981802e-06
9.66451875899e-06
9.66452796004e-06
9.66451606381e-06
9.66448460561e-06
9.66443708029e-06
9.66437896215e-06
9.66431726269e-06
9.66426188099e-06
9.66421876762e-06
9.66415453445e-06
9.66419244248e-06
9.6642416835e-06
9.66429699646e-06
9.66434878207e-06
9.66439053275e-06
9.6644172304e-06
9.66442570997e-06
9.66441465588e-06
9.66438554662e-06
9.66434172939e-06
9.66428840616e-06
9.66423217265e-06
9.66418214642e-06
9.66414445946e-06
9.66408123635e-06
9.66411413325e-06
9.66415832203e-06
9.66420828043e-06
9.66425531594e-06
9.66429338373e-06
9.66431778228e-06
9.66432550973e-06
9.66431532591e-06
9.66428862335e-06
9.66424855989e-06
9.66419999848e-06
9.66414905794e-06
9.6641040079e-06
9.66407145332e-06
9.6640082325e-06
9.66403651083e-06
9.66407609168e-06
9.66412098999e-06
9.66416342966e-06
9.66419786801e-06
9.66421996961e-06
9.66422693601e-06
9.66421761894e-06
9.66419330815e-06
9.66415693477e-06
9.66411298099e-06
9.66406705005e-06
9.66402654922e-06
9.66399879207e-06
9.66393497203e-06
9.6639590811e-06
9.66399455795e-06
9.66403478996e-06
9.66407288085e-06
9.66410383522e-06
9.66412369753e-06
9.66412991969e-06
9.66412144876e-06
9.66409946433e-06
9.66406663598e-06
9.66402703481e-06
9.66398572481e-06
9.66394927188e-06
9.66392585915e-06
9.66386118711e-06
9.66388176231e-06
9.66391373406e-06
9.66394976531e-06
9.66398383201e-06
9.6640114777e-06
9.66402919373e-06
9.66403468704e-06
9.66402703765e-06
9.66400728165e-06
9.66397781183e-06
9.66394225334e-06
9.66390510774e-06
9.66387214352e-06
9.6638524445e-06
9.66378693371e-06
9.66380480375e-06
9.66383392665e-06
9.66386628264e-06
9.66389666274e-06
9.66392122727e-06
9.66393688714e-06
9.66394169145e-06
9.66393482063e-06
9.66391719583e-06
9.6638908657e-06
9.6638589995e-06
9.66382551188e-06
9.6637954045e-06
9.66377858826e-06
9.66371142603e-06
9.66372764794e-06
9.66375484999e-06
9.66378432494e-06
9.66381163902e-06
9.66383347434e-06
9.66384732447e-06
9.66385147827e-06
9.66384535168e-06
9.66382962553e-06
9.66380606055e-06
9.66377729432e-06
9.66374666044e-06
9.66371850352e-06
9.66370350182e-06
9.66363306246e-06
9.66364927665e-06
9.66367582486e-06
9.66370352845e-06
9.66372858643e-06
9.66374834372e-06
9.6637606835e-06
9.66376436371e-06
9.66375883781e-06
9.66374469932e-06
9.66372330662e-06
9.66369679925e-06
9.66366792209e-06
9.66364042382e-06
9.66362566233e-06
9.66357894414e-06
9.66359460815e-06
9.66361530698e-06
9.66363600413e-06
9.66365456454e-06
9.6636690448e-06
9.66367803179e-06
9.66368057415e-06
9.6636763543e-06
9.6636657411e-06
9.66364971398e-06
9.66362977367e-06
9.66360788654e-06
9.66358611232e-06
9.66357161168e-06
9.40006906651e-06
9.40001557022e-06
9.39995636845e-06
9.39989751856e-06
9.39984432494e-06
9.39980233771e-06
9.3997757842e-06
9.39976678722e-06
9.39977610503e-06
9.3998027494e-06
9.39984439251e-06
9.39989736412e-06
9.39995672352e-06
9.400015672e-06
9.40007006832e-06
9.40002537865e-06
9.39997239656e-06
9.39991270853e-06
9.39985279866e-06
9.39979845712e-06
9.39975551336e-06
9.39972828502e-06
9.39971904076e-06
9.39972863645e-06
9.39975599569e-06
9.39979865711e-06
9.39985276931e-06
9.39991313129e-06
9.39997282848e-06
9.4000265957e-06
9.40005457762e-06
9.40000717133e-06
9.39995226637e-06
9.39989590299e-06
9.39984433055e-06
9.39980332695e-06
9.39977718676e-06
9.39976826951e-06
9.39977749889e-06
9.39980377099e-06
9.39984456129e-06
9.39989593024e-06
9.39995258082e-06
9.40000758048e-06
9.40005562712e-06
9.40009082601e-06
9.40004803292e-06
9.39999723777e-06
9.39994428655e-06
9.39989544036e-06
9.39985640512e-06
9.39983137338e-06
9.39982278857e-06
9.39983162864e-06
9.39985678175e-06
9.39989568204e-06
9.39994434367e-06
9.39999744551e-06
9.40004827654e-06
9.40009171856e-06
9.40011944105e-06
9.40007990247e-06
9.40003212951e-06
9.39998201252e-06
9.39993548255e-06
9.39989813011e-06
9.3998740704e-06
9.39986578299e-06
9.39987427503e-06
9.39989843418e-06
9.3999356822e-06
9.39998203789e-06
9.40003222717e-06
9.40007993899e-06
9.40012017168e-06
9.40014438279e-06
9.40010722625e-06
9.40006210858e-06
9.40001461677e-06
9.39997033385e-06
9.39993467214e-06
9.39991161189e-06
9.39990363804e-06
9.39991176333e-06
9.39993489411e-06
9.39997047343e-06
9.40001458773e-06
9.40006208385e-06
9.40010716018e-06
9.4001448742e-06
9.40016800394e-06
9.40013290598e-06
9.40009018996e-06
9.40004525396e-06
9.40000325751e-06
9.39996935525e-06
9.39994737154e-06
9.39993974511e-06
9.39994747114e-06
9.399969489e-06
9.40000330675e-06
9.40004513602e-06
9.4000900136e-06
9.40013270895e-06
9.40016831167e-06
9.400190944e-06
9.40015766011e-06
9.40011715532e-06
9.40007476717e-06
9.40003512833e-06
9.40000308679e-06
9.39998226927e-06
9.3999750267e-06
9.399982318e-06
9.4000031328e-06
9.40003508569e-06
9.40007456786e-06
9.40011686941e-06
9.40015735448e-06
9.40019115097e-06
9.40021372255e-06
9.40018205898e-06
9.4001436675e-06
9.40010383483e-06
9.40006662168e-06
9.40003653772e-06
9.40001697907e-06
9.40001015785e-06
9.40001698045e-06
9.40003650147e-06
9.40006648242e-06
9.4001035448e-06
9.4001432852e-06
9.40018165834e-06
9.40021384373e-06
9.40023688106e-06
9.40020669951e-06
9.40017039833e-06
9.40013313191e-06
9.40009842195e-06
9.40007040592e-06
9.4000521937e-06
9.40004583637e-06
9.40005215603e-06
9.40007029813e-06
9.40009820414e-06
9.40013277224e-06
9.40016995417e-06
9.40020625375e-06
9.40023694104e-06
9.40026094988e-06
9.40023221847e-06
9.40019798503e-06
9.40016325887e-06
9.40013110837e-06
9.40010523594e-06
9.40008845769e-06
9.40008259257e-06
9.4000883876e-06
9.40010507216e-06
9.40013081901e-06
9.40016283985e-06
9.40019748195e-06
9.40023173539e-06
9.40026096278e-06
9.40028672132e-06
9.40025930231e-06
9.40022695549e-06
9.40019464264e-06
9.40016500279e-06
9.40014132931e-06
9.40012601732e-06
9.40012068536e-06
9.40012592541e-06
9.4001411236e-06
9.4001646754e-06
9.40019417441e-06
9.40022640897e-06
9.40025875853e-06
9.40028665181e-06
9.40031597368e-06
9.40028923481e-06
9.40025812622e-06
9.40022771378e-06
9.40020033523e-06
9.40017865891e-06
9.4001647946e-06
9.40015994303e-06
9.40016469198e-06
9.40017845215e-06
9.40019997622e-06
9.40022724061e-06
9.4002575408e-06
9.40028864101e-06
9.40031583614e-06
9.40034894329e-06
9.40032133366e-06
9.40029111191e-06
9.40026229196e-06
9.40023687898e-06
9.40021714926e-06
9.40020458885e-06
9.40020027497e-06
9.40020450829e-06
9.40021694469e-06
9.40023657147e-06
9.40026182142e-06
9.40029053099e-06
9.40032067095e-06
9.40034875578e-06
9.40035115441e-06
9.40033522052e-06
9.4003120983e-06
9.40029018554e-06
9.4002710126e-06
9.40025615292e-06
9.40024678576e-06
9.40024355312e-06
9.40024672675e-06
9.40025602308e-06
9.40027076143e-06
9.40028981181e-06
9.40031154308e-06
9.40033449652e-06
9.40035081204e-06
8.54748783012e-06
8.54752679301e-06
8.54757156575e-06
8.54761681179e-06
8.54765718441e-06
8.54768856201e-06
8.54770822634e-06
8.54771457589e-06
8.54770704607e-06
8.54768635918e-06
8.5476543055e-06
8.54761377667e-06
8.54756871518e-06
8.54752483597e-06
8.54748541253e-06
8.54750631445e-06
8.54754443651e-06
8.54758874334e-06
8.54763390107e-06
8.54767431187e-06
8.54770579253e-06
8.54772554271e-06
8.5477319057e-06
8.54772427085e-06
8.54770342107e-06
8.54767122606e-06
8.54763067703e-06
8.5475858276e-06
8.54754237547e-06
8.54750417262e-06
8.54747578835e-06
8.54750945688e-06
8.54754940361e-06
8.54759116456e-06
8.54762892828e-06
8.54765862353e-06
8.54767736246e-06
8.54768343145e-06
8.54767617468e-06
8.54765640339e-06
8.54762602008e-06
8.54758805524e-06
8.54754655966e-06
8.54750719452e-06
8.54747361445e-06
8.5474420366e-06
8.54747193311e-06
8.54750819838e-06
8.54754681905e-06
8.54758215904e-06
8.5476101933e-06
8.54762799046e-06
8.54763379523e-06
8.54762691891e-06
8.54760818439e-06
8.54757951169e-06
8.54754394262e-06
8.5475054874e-06
8.54746965643e-06
8.54743976979e-06
8.54741427006e-06
8.54744138021e-06
8.54747481881e-06
8.5475107848e-06
8.54754403002e-06
8.54757057613e-06
8.54758752085e-06
8.54759307732e-06
8.54758655024e-06
8.54756875272e-06
8.54754160125e-06
8.54750810384e-06
8.54747218554e-06
8.54743910782e-06
8.54741191759e-06
8.54738900532e-06
8.54741387823e-06
8.54744468776e-06
8.54747818763e-06
8.54750936408e-06
8.5475343885e-06
8.54755042368e-06
8.54755570887e-06
8.547549547e-06
8.54753273648e-06
8.54750715027e-06
8.54747571311e-06
8.54744220899e-06
8.54741158801e-06
8.54738669844e-06
8.54736422495e-06
8.54738695516e-06
8.54741526621e-06
8.54744627959e-06
8.54747526729e-06
8.54749862686e-06
8.54751363906e-06
8.5475186076e-06
8.54751284948e-06
8.54749713032e-06
8.54747324319e-06
8.54744397389e-06
8.54741291083e-06
8.54738465137e-06
8.54736191935e-06
8.54733914913e-06
8.54735968754e-06
8.54738558728e-06
8.54741404155e-06
8.54744071944e-06
8.54746226487e-06
8.54747613888e-06
8.54748074137e-06
8.54747542776e-06
8.54746091115e-06
8.54743886989e-06
8.54741189862e-06
8.5473833375e-06
8.54735740926e-06
8.54733677685e-06
8.54731314368e-06
8.54733157496e-06
8.5473550835e-06
8.54738091432e-06
8.54740514993e-06
8.54742472884e-06
8.54743734793e-06
8.54744153562e-06
8.54743670334e-06
8.54742349611e-06
8.54740344133e-06
8.54737889528e-06
8.54735290057e-06
8.54732929388e-06
8.54731074462e-06
8.54728586787e-06
8.54730222906e-06
8.54732336862e-06
8.54734654498e-06
8.54736823212e-06
8.54738573148e-06
8.54739699355e-06
8.54740072967e-06
8.54739640787e-06
8.54738460063e-06
8.54736664927e-06
8.54734462866e-06
8.54732123762e-06
8.5472999287e-06
8.54728341947e-06
8.54725709115e-06
8.54727153482e-06
8.54729041326e-06
8.54731094502e-06
8.5473300335e-06
8.54734535074e-06
8.54735518534e-06
8.54735842982e-06
8.54735464487e-06
8.54734430344e-06
8.54732854249e-06
8.54730911189e-06
8.54728831881e-06
8.5472692283e-06
8.54725463457e-06
8.54722687005e-06
8.54723971781e-06
8.54725652732e-06
8.54727450215e-06
8.54729095023e-06
8.54730405548e-06
8.54731239445e-06
8.54731513745e-06
8.54731189318e-06
8.54730306915e-06
8.54728954868e-06
8.54727273045e-06
8.54725447147e-06
8.54723742312e-06
8.54722443513e-06
8.54719495965e-06
8.54720692142e-06
8.54722209244e-06
8.54723769732e-06
8.54725165967e-06
8.54726254492e-06
8.54726945492e-06
8.54727166352e-06
8.54726898039e-06
8.54726163583e-06
8.54725031282e-06
8.54723601128e-06
8.54722007973e-06
8.54720466742e-06
8.54719257972e-06
8.54716171597e-06
8.54717379999e-06
8.54718757474e-06
8.54720108915e-06
8.54721267072e-06
8.54722160199e-06
8.54722713017e-06
8.54722890832e-06
8.54722670059e-06
8.54722072802e-06
8.54721142523e-06
8.54719945683e-06
8.54718563869e-06
8.54717160357e-06
8.54715950939e-06
8.54714378469e-06
8.54715103486e-06
8.54716055775e-06
8.54716943281e-06
8.547176933e-06
8.54718263816e-06
8.5471861854e-06
8.54718725634e-06
8.54718576275e-06
8.54718181413e-06
8.54717570415e-06
8.54716785061e-06
8.54715862174e-06
8.54714883454e-06
8.54714159029e-06
8.09693417828e-06
8.09690893447e-06
8.09687953566e-06
8.09685009801e-06
8.09682406594e-06
8.09680386314e-06
8.09679110357e-06
8.09678688881e-06
8.09679165697e-06
8.09680494678e-06
8.09682563482e-06
8.09685189596e-06
8.09688127522e-06
8.09691022334e-06
8.09693666412e-06
8.09691976263e-06
8.09689506923e-06
8.09686589263e-06
8.09683637173e-06
8.09681014573e-06
8.09678971908e-06
8.09677679618e-06
8.09677252209e-06
8.09677737012e-06
8.09679084439e-06
8.09681175696e-06
8.09683820991e-06
8.09686764644e-06
8.09689650157e-06
8.09692226779e-06
8.09693980232e-06
8.09691800276e-06
8.09689162913e-06
8.0968642339e-06
8.09683961379e-06
8.09682026915e-06
8.09680797503e-06
8.09680390021e-06
8.09680853013e-06
8.0968213492e-06
8.0968411431e-06
8.09686598124e-06
8.09689328867e-06
8.09691950479e-06
8.09694219838e-06
8.09696235913e-06
8.09694303635e-06
8.09691901737e-06
8.0968936279e-06
8.09687050919e-06
8.0968521902e-06
8.09684049938e-06
8.09683661521e-06
8.09684102413e-06
8.09685319828e-06
8.09687190945e-06
8.09689521569e-06
8.09692055532e-06
8.09694446239e-06
8.09696468899e-06
8.09698095335e-06
8.0969634687e-06
8.0969412492e-06
8.09691754879e-06
8.09689573609e-06
8.09687834184e-06
8.09686719998e-06
8.09686348905e-06
8.09686769015e-06
8.0968792757e-06
8.09689701675e-06
8.09691898917e-06
8.09694267722e-06
8.09696477948e-06
8.09698317398e-06
8.09699788565e-06
8.09698181501e-06
8.09696128654e-06
8.09693918405e-06
8.09691867016e-06
8.09690222711e-06
8.09689166292e-06
8.09688813559e-06
8.09689211385e-06
8.09690307901e-06
8.09691982079e-06
8.09694046637e-06
8.09696258343e-06
8.09698308139e-06
8.09699991603e-06
8.09701443631e-06
8.09699972381e-06
8.09698079373e-06
8.0969602677e-06
8.0969411161e-06
8.09692570588e-06
8.09691578184e-06
8.09691245977e-06
8.09691619323e-06
8.09692647819e-06
8.09694215058e-06
8.09696141727e-06
8.0969819627e-06
8.09700093413e-06
8.09701632125e-06
8.09703103901e-06
8.09701767766e-06
8.09700027136e-06
8.09698135249e-06
8.09696363181e-06
8.09694933138e-06
8.0969401049e-06
8.09693701049e-06
8.0969404769e-06
8.0969500259e-06
8.09696455858e-06
8.09698239117e-06
8.09700135498e-06
8.09701884744e-06
8.09703285737e-06
8.09704805476e-06
8.09703598846e-06
8.09702005778e-06
8.0970027554e-06
8.09698651711e-06
8.09697339747e-06
8.09696492425e-06
8.09696208194e-06
8.09696526214e-06
8.09697402802e-06
8.09698736126e-06
8.09700371515e-06
8.0970210917e-06
8.09703714021e-06
8.09704981291e-06
8.09706570821e-06
8.09705487103e-06
8.0970403836e-06
8.09702469156e-06
8.09700997723e-06
8.09699808945e-06
8.09699041527e-06
8.09698784186e-06
8.09699072489e-06
8.09699866921e-06
8.09701075926e-06
8.09702560607e-06
8.09704140658e-06
8.09705605004e-06
8.0970674379e-06
8.09708415564e-06
8.09707447239e-06
8.09706134972e-06
8.09704722447e-06
8.09703403913e-06
8.09702341919e-06
8.09701657687e-06
8.09701429005e-06
8.09701686813e-06
8.09702396421e-06
8.09703478658e-06
8.09704812097e-06
8.09706238059e-06
8.09707568802e-06
8.0970858652e-06
8.0971035238e-06
8.09709480344e-06
8.09708288721e-06
8.09707024291e-06
8.09705856666e-06
8.09704922012e-06
8.09704323209e-06
8.09704124257e-06
8.0970435108e-06
8.09704975301e-06
8.09705929816e-06
8.09707114509e-06
8.0970839472e-06
8.09709604228e-06
8.09710518934e-06
8.09712421055e-06
8.09711602778e-06
8.09710500363e-06
8.09709363062e-06
8.09708333262e-06
8.09707520862e-06
8.09707003706e-06
8.09706834243e-06
8.09707031776e-06
8.09707573133e-06
8.09708407397e-06
8.09709455107e-06
8.09710609393e-06
8.0971172933e-06
8.09712582882e-06
8.09714620325e-06
8.09713788484e-06
8.09712750853e-06
8.09711719782e-06
8.0971081378e-06
8.09710109822e-06
8.09709668406e-06
8.09709525834e-06
8.09709696613e-06
8.09710163407e-06
8.0971088909e-06
8.09711815314e-06
8.09712864001e-06
8.09713918138e-06
8.09714779185e-06
8.0971568595e-06
8.09715210757e-06
8.09714459237e-06
8.09713731283e-06
8.09713099414e-06
8.09712611787e-06
8.09712307815e-06
8.09712213516e-06
8.09712336603e-06
8.09712666514e-06
8.09713177283e-06
8.09713830734e-06
8.09714576399e-06
8.097153444e-06
8.09715843809e-06
7.36733440734e-06
7.36735323728e-06
7.3673742914e-06
7.36739491139e-06
7.36741302761e-06
7.36742703449e-06
7.36743586183e-06
7.36743872781e-06
7.36743531692e-06
7.36742593592e-06
7.36741137125e-06
7.36739289263e-06
7.3673722312e-06
7.36735187753e-06
7.36733325251e-06
7.36734477909e-06
7.36736347454e-06
7.36738438556e-06
7.36740506319e-06
7.36742328423e-06
7.36743741467e-06
7.36744633255e-06
7.36744922025e-06
7.36744574203e-06
7.36743622846e-06
7.36742150595e-06
7.36740289846e-06
7.36738220368e-06
7.36736192655e-06
7.367343804e-06
7.36733160172e-06
7.36734824959e-06
7.36736711937e-06
7.36738631524e-06
7.36740341795e-06
7.36741681523e-06
7.36742530464e-06
7.36742806059e-06
7.36742473383e-06
7.3674156725e-06
7.36740172161e-06
7.36738422982e-06
7.36736500981e-06
7.3673465639e-06
7.36733058194e-06
7.36731674013e-06
7.36733155964e-06
7.36734871814e-06
7.36736648634e-06
7.36738253741e-06
7.36739523399e-06
7.36740331535e-06
7.36740594876e-06
7.36740277851e-06
7.36739416261e-06
7.36738095681e-06
7.36736452126e-06
7.36734666131e-06
7.36732981195e-06
7.36731555198e-06
7.36730459316e-06
7.36731804803e-06
7.36733388802e-06