/*--------------------------------*- C++ -*----------------------------------*\
  =========                 |
  \\      /  F ield         | OpenFOAM: The Open Source CFD Toolbox
   \\    /   O peration     | Website:  https://openfoam.org
    \\  /    A nd           | Version:  7
     \\/     M anipulation  |
\*---------------------------------------------------------------------------*/
FoamFile
{
    version     2.0;
    format      ascii;
    class       volVectorField;
    location    "1.48";
    object      U;
}
// * * * * * * * * * * * * * * * * * * * * * * * * * * * * * * * * * * * * * //

dimensions      [0 1 -1 0 0 0 0];

internalField   nonuniform List<vector> 
22500
(
(1.07595081107e-05 1.20863264231e-05 0.000156245271927)
(9.99759991257e-06 1.36417305202e-05 0.000163970712524)
(8.74534688138e-06 1.51993912038e-05 0.000170980208995)
(7.34644044485e-06 1.6519539016e-05 0.00017702332576)
(5.70704239772e-06 1.76089996498e-05 0.00018191709226)
(3.90562160684e-06 1.84168815029e-05 0.000185516277013)
(1.98436335519e-06 1.89143710138e-05 0.000187719411206)
(9.72003275185e-10 1.90825961433e-05 0.000188465197023)
(-1.98244829999e-06 1.89144976289e-05 0.000187719398903)
(-3.90378650372e-06 1.84171244017e-05 0.000185516258276)
(-5.70534098325e-06 1.76093302772e-05 0.00018191707148)
(-7.34492046336e-06 1.65199271598e-05 0.000177023314995)
(-8.7440837248e-06 1.51997774845e-05 0.000170980281645)
(-9.99653602559e-06 1.36421599546e-05 0.000163971321759)
(-1.07588302851e-05 1.20867292625e-05 0.000156248576222)
(3.14111488315e-05 3.52869045506e-05 0.000414197322415)
(2.91352764932e-05 3.97330416524e-05 0.000431891780932)
(2.55674187612e-05 4.41458247162e-05 0.000447760189567)
(2.14583987086e-05 4.79216746756e-05 0.000461313692664)
(1.6679018548e-05 5.1039448801e-05 0.000472204250683)
(1.14142950457e-05 5.33541451601e-05 0.000480167104787)
(5.7992738435e-06 5.47809975369e-05 0.000485021543595)
(2.50423462745e-09 5.52633997386e-05 0.000486659051085)
(-5.79433159091e-06 5.47812788187e-05 0.000485021514974)
(-1.14095416903e-05 5.33546833639e-05 0.000480167058786)
(-1.66745764452e-05 5.10401804951e-05 0.000472204191902)
(-2.14543843082e-05 4.79225320693e-05 0.000461313646872)
(-2.55639821591e-05 4.4146687669e-05 0.000447760362003)
(-2.91323508069e-05 3.97340165778e-05 0.000431893474481)
(-3.14092281142e-05 3.52878520768e-05 0.000414205439473)
(4.76167214928e-05 5.33851304828e-05 0.000626437851998)
(4.39530179852e-05 5.98017316752e-05 0.000650238408221)
(3.84992238422e-05 6.6118272775e-05 0.000671355118422)
(3.22196159059e-05 7.15128713468e-05 0.000689246972248)
(2.49954874939e-05 7.59503486917e-05 0.000703528468222)
(1.70796783069e-05 7.92368894898e-05 0.000713918706097)
(8.66959660588e-06 8.12595493401e-05 0.000720230775676)
(3.73986479443e-09 8.19427592252e-05 0.000722354090412)
(-8.66220627804e-06 8.12598857416e-05 0.000720230689226)
(-1.7072547271e-05 7.92375303478e-05 0.000713918546054)
(-2.49887827897e-05 7.59512153709e-05 0.000703528231143)
(-3.22134961324e-05 7.15138738319e-05 0.000689246680466)
(-3.84938839589e-05 6.61192812611e-05 0.000671355034146)
(-4.39484150272e-05 5.98028960487e-05 0.000650240318553)
(-4.76135931247e-05 5.33863259311e-05 0.000626448531102)
(6.02846605445e-05 6.74444399158e-05 0.000801477349619)
(5.53853226493e-05 7.51241625412e-05 0.000828615079816)
(4.83914257091e-05 8.26433069403e-05 0.000852422156285)
(4.03778589337e-05 8.90348204866e-05 0.000872427083124)
(3.12572389328e-05 9.42713590884e-05 0.000888287910956)
(2.13231144557e-05 9.81380625766e-05 0.000899768624425)
(1.08126114319e-05 0.000100513107817 0.00090671832145)
(4.68595246513e-09 0.000101314468686 0.000909050179921)
(-1.08033447117e-05 0.000100513481533 0.000906718110749)
(-2.13141560506e-05 9.81387729441e-05 0.000899768210176)
(-3.12487866258e-05 9.42723206567e-05 0.000888287268374)
(-4.03700937619e-05 8.90359293493e-05 0.000872426200565)
(-4.83845586356e-05 8.26444303396e-05 0.000852421255036)
(-5.53793292916e-05 7.51254729943e-05 0.000828616052847)
(-6.02804149857e-05 6.74458254425e-05 0.00080148775757)
(7.00936245276e-05 7.82757874559e-05 0.000945852264034)
(6.41147860125e-05 8.66755417932e-05 0.000974321334401)
(5.58656000021e-05 9.48689111782e-05 0.000998992035807)
(4.64778974122e-05 0.000101795255304 0.00101953711975)
(3.59015909244e-05 0.000107446169929 0.00103570880188)
(2.4451135571e-05 0.000111605881476 0.00104735072028)
(1.23863510967e-05 0.000114155632885 0.00105437120189)
(5.41278843988e-09 0.000115014986148 0.00105672093204)
(-1.237564234e-05 0.000114156044915 0.00105437081613)
(-2.44407707468e-05 0.000111606665201 0.00104734994038)
(-3.58917888961e-05 0.000107447236587 0.0010357075626)
(-4.64688514934e-05 0.000101796493268 0.00101953533382)
(-5.58575148987e-05 9.48701808267e-05 0.000998989783888)
(-6.41076487863e-05 8.66770294471e-05 0.000974320384895)
(-7.00883619434e-05 7.82773827653e-05 0.000945860342045)
(7.74044507576e-05 8.62940239244e-05 0.00106472428858)
(7.05003829241e-05 9.49611174765e-05 0.00109307532869)
(6.12495896207e-05 0.000103393097078 0.00111731417678)
(5.08070662336e-05 0.00011047909272 0.00113729890639)
(3.91593560785e-05 0.000116233991376 0.00115290427765)
(2.66257172235e-05 0.000120456692993 0.00116407074482)
(1.34743922568e-05 0.000123039493935 0.00117077635063)
(5.97838359608e-09 0.00012390902692 0.0011730149278)
(-1.34625606768e-05 0.000123039954172 0.00117077575925)
(-2.66142554024e-05 0.000120457571133 0.00116406952752)
(-3.91484966692e-05 0.000116235197032 0.00115290230671)
(-5.07970082876e-05 0.000110480508873 0.00113729597483)
(-6.12405170073e-05 0.000103394579351 0.00111731014413)
(-7.04922837773e-05 9.49628525785e-05 0.00109307174589)
(-7.73982745351e-05 8.62959004785e-05 0.00106472891681)
(8.25128388426e-05 9.18288106093e-05 0.00116227732797)
(7.4834571861e-05 0.000100388338871 0.00118948265607)
(6.48133999141e-05 0.0001086999819 0.00121239528793)
(5.36021473035e-05 0.000115641508241 0.00123107526042)
(4.12210275865e-05 0.000121251427134 0.00124553109398)
(2.79806666374e-05 0.000125354338009 0.00125580459703)
(1.41458017482e-05 0.000127858356098 0.00126194498485)
(6.43346791121e-09 0.000128700458625 0.00126398923617)
(-1.41330665349e-05 0.000127858883961 0.00126194417536)
(-2.79683204634e-05 0.000125355349541 0.00125580290741)
(-4.12093121457e-05 0.000121252831553 0.00124552831279)
(-5.35912628342e-05 0.000115643182624 0.00123107102259)
(-6.48035047079e-05 0.000108701777437 0.00121238918125)
(-7.48256465523e-05 0.000100390427957 0.00118947602609)
(-8.25058407226e-05 9.18310719622e-05 0.00116227802121)
(8.57043364524e-05 9.52006121565e-05 0.00124197214989)
(7.73976556832e-05 0.000103352173836 0.00126733193246)
(6.68163189183e-05 0.000111255667452 0.00128833417717)
(5.50900683448e-05 0.000117813484246 0.00130523971472)
(4.22689238547e-05 0.000123085696375 0.00131818873363)
(2.86438600599e-05 0.000126929203763 0.00132731962465)
(1.44665085671e-05 0.000129269848092 0.00133274777409)
(6.82221398995e-09 0.000130056213838 0.00133454941464)
(-1.44530010595e-05 0.00012927046796 0.00133274675235)
(-2.8630756175e-05 0.000126930398577 0.00132731746683)
(-4.22564713482e-05 0.000123087374509 0.00131818512822)
(-5.50784672513e-05 0.000117815516676 0.00130523411232)
(-6.68057011472e-05 0.000111257897416 0.00128832587568)
(-7.73879987829e-05 0.000103354749631 0.0012673221559)
(-8.56965972995e-05 9.52033825502e-05 0.00124196891263)
(8.72430233512e-05 9.67077379946e-05 0.00130671398444)
(7.84463330874e-05 0.00010421673892 0.00132978642355)
(6.74952115182e-05 0.000111486067696 0.00134853648078)
(5.54778423199e-05 0.000117476510314 0.00136341154822)
(4.24691130089e-05 0.000122266634892 0.00137467129794)
(2.87315696965e-05 0.000125748171536 0.00138253916021)
(1.44963768272e-05 0.000127864184786 0.00138718725209)
(7.18410768718e-09 0.000128574462491 0.00138872464956)
(-1.44821492922e-05 0.000127864922469 0.00138718604665)
(-2.8717756606e-05 0.000125749602388 0.00138253658825)
(-4.24559664364e-05 0.000122268666627 0.00137466694063)
(-5.54655631019e-05 0.000117479006738 0.00136340466195)
(-6.74839106854e-05 0.000111488860714 0.00134852608505)
(-7.84359956277e-05 0.000104219940523 0.0013297737488)
(-8.72346077798e-05 9.67111510862e-05 0.00130670726227)
(8.73674127197e-05 9.66207980746e-05 0.00135896406372)
(7.82099737181e-05 0.000103307592183 0.00137951021552)
(6.70611234244e-05 0.000109768020092 0.00139585545355)
(5.49499915102e-05 0.000115053399301 0.00140860954002)
(4.19694827903e-05 0.000119257489169 0.00141813195959)
(2.83471125453e-05 0.000122305382516 0.00142471498779)
(1.4288500569e-05 0.000124154851205 0.00142857528128)
(7.55419492893e-09 0.000124775254876 0.00142984694543)
(-1.42735350128e-05 0.000124155728643 0.00142857395372)
(-2.83325680276e-05 0.000122307094534 0.00142471212902)
(-4.19556155714e-05 0.000119259944554 0.0014181270499)
(-5.49370061153e-05 0.000115056454798 0.0014086016507)
(-6.70491205056e-05 0.00010977149318 0.00139584335968)
(-7.81989610403e-05 0.000103311549253 0.00137949530451)
(-8.73583569357e-05 9.66249826918e-05 0.00135895477681)
(8.62923730689e-05 9.51860262826e-05 0.00140081264241)
(7.68928494803e-05 0.000100913405508 0.00141875100503)
(6.57020771553e-05 0.000106430957341 0.00143268546749)
(5.36712975667e-05 0.000110911559392 0.00144335504734)
(4.09018048982e-05 0.000114459676274 0.00145119387407)
(2.75821020769e-05 0.000117027905914 0.0014565441321)
(1.38897779583e-05 0.000118584688811 0.00145965352589)
(7.96216880023e-09 0.000119106728004 0.00146067286736)
(-1.38739965995e-05 0.00011858571833 0.00145965218762)
(-2.75667433083e-05 0.000117029926067 0.00145654122445)
(-4.08871291704e-05 0.000114462600029 0.00145118880247)
(-5.36575188088e-05 0.000110915239752 0.00144334672848)
(-6.56893001097e-05 0.000106435195981 0.00143267247639)
(-7.68811218222e-05 0.00010091821875 0.00141873503674)
(-8.62826743118e-05 9.51910846672e-05 0.00140080230043)
(8.42093809666e-05 9.26274254967e-05 0.0014340234314)
(7.4676998543e-05 9.72852230701e-05 0.00144939349199)
(6.35878954648e-05 0.000101757884614 0.0014610255193)
(5.17907435092e-05 0.000105367347056 0.00146974375771)
(3.93839639498e-05 0.000108218987453 0.00147602842277)
(2.65174454805e-05 0.000110282564741 0.00148025199442)
(1.33412654046e-05 0.00011153284085 0.0014826796878)
(8.43057293022e-09 0.000111952055378 0.00148347084702)
(-1.33245448022e-05 0.000111534019666 0.00148267852116)
(-2.65011428357e-05 0.000110284889053 0.00148024943393)
(-3.93683444301e-05 0.000108222380965 0.00147602385436)
(-5.17760372217e-05 0.00010537166616 0.00146973600221)
(-6.35742293049e-05 0.00010176291975 0.00146101298598)
(-7.4664478363e-05 9.72909388253e-05 0.00144937827974)
(-8.41989908269e-05 9.26334160154e-05 0.00143401428196)
(8.12834637244e-05 8.91318860255e-05 0.00146005343591)
(7.17320876974e-05 9.26271766778e-05 0.00147299438726)
(6.08805032045e-05 9.59890204722e-05 0.00148252584883)
(4.94463935831e-05 9.86952140088e-05 0.00148949904014)
(3.75210302131e-05 0.000100835934161 0.00149441370564)
(2.52230945386e-05 0.000102385735196 0.00149765495805)
(1.26778537702e-05 0.000103324008757 0.00149949281172)
(8.9725435249e-09 0.000103638531263 0.0015000874275)
(-1.26600453163e-05 0.000103325312028 0.00149949208656)
(-2.52056931699e-05 0.000102388317484 0.00149765333842)
(-3.75043045877e-05 0.000100839736546 0.00149441065981)
(-4.94305979606e-05 9.87001102904e-05 0.00148949340687)
(-6.08658070468e-05 9.59948018958e-05 0.00148251588095)
(-7.17186744217e-05 9.26337634219e-05 0.0014729824706)
(-8.1272317576e-05 8.91387733926e-05 0.00146004833999)
(7.76910601643e-05 8.48352205247e-05 0.00148004644872)
(6.82598742355e-05 8.71357435032e-05 0.00149081715972)
(5.77492848461e-05 8.9346438769e-05 0.00149853139221)
(4.67625631135e-05 9.1154263915e-05 0.00150401601708)
(3.53994076465e-05 9.25861061459e-05 0.00150778116255)
(2.37536890711e-05 9.36197570122e-05 0.001510209982)
(1.19261991461e-05 9.42432496141e-05 0.00151156501626)
(9.58720850921e-09 9.44519675234e-05 0.00151199974572)
(-1.1907155236e-05 9.4244628254e-05 0.0015115650796)
(-2.3735036799e-05 9.36225012359e-05 0.00151021007649)
(-3.5381417178e-05 9.25901797027e-05 0.00150778100894)
(-4.67455174122e-05 9.11595763726e-05 0.00150401472145)
(-5.77334155085e-05 8.93528150321e-05 0.0014985271373)
(-6.82454637171e-05 8.71430713805e-05 0.00149081201258)
(-7.7679049629e-05 8.48429119599e-05 0.00148004851771)
(7.3686469865e-05 8.01941476192e-05 0.00149482773213)
(6.45121835935e-05 8.07607269483e-05 0.00150394966794)
(5.42977084989e-05 8.19224042163e-05 0.00151013904373)
(4.3803865028e-05 8.28619522289e-05 0.00151440516636)
(3.30603163027e-05 8.35961491401e-05 0.00151725800884)
(2.21360026359e-05 8.41170429387e-05 0.001519058326)
(1.10999445655e-05 8.44275020969e-05 0.00152004635061)
(1.02590263823e-08 8.45310409998e-05 0.00152036075681)
(-1.10795513903e-05 8.44288660029e-05 0.00152004749192)
(-2.21159852409e-05 8.41197684398e-05 0.00151906079171)
(-3.30409411797e-05 8.36002243308e-05 0.00151726197061)
(-4.37854349225e-05 8.28673369494e-05 0.00151441044043)
(-5.42805281e-05 8.19289840905e-05 0.00151014407855)
(-6.4496732644e-05 8.07684703153e-05 0.00150395749985)
(-7.36733872144e-05 8.02023280266e-05 0.00149483659675)
(2.25892393303e-07 3.6509461457e-07 0.000110219668779)
(1.39010156716e-07 4.76204123837e-07 0.000115610930205)
(1.00039096609e-07 5.40011683217e-07 0.000120455710308)
(6.60487173965e-08 5.87413159602e-07 0.000124619000247)
(4.00813749585e-08 6.20238211523e-07 0.000127986033209)
(2.1763036971e-08 6.41270406567e-07 0.000130460652519)
(9.34487660024e-09 6.52854292103e-07 0.000131975502638)
(3.60665621574e-10 6.56583320689e-07 0.000132489091335)
(-8.60798555722e-09 6.52926384403e-07 0.000131975509156)
(-2.09798518177e-08 6.41414247646e-07 0.000130460677018)
(-3.92430058247e-08 6.20444450348e-07 0.000127986098306)
(-6.52072362634e-08 5.87660893626e-07 0.000124619156652)
(-9.92861623915e-08 5.40286843247e-07 0.000120456108487)
(-1.38385636178e-07 4.76480738672e-07 0.000115612154245)
(-2.25529347324e-07 3.65363838445e-07 0.000110223775043)
(2.02214849707e-06 2.48819637318e-06 0.00031840701678)
(1.74124077704e-06 3.04242460127e-06 0.000333203253768)
(1.51543715904e-06 3.50147295337e-06 0.000346460585425)
(1.25959044762e-06 3.89646259993e-06 0.000357821694681)
(9.73355214234e-07 4.21401902475e-06 0.000366988961983)
(6.63285966685e-07 4.44646291441e-06 0.000373716380331)
(3.36378922357e-07 4.58830771462e-06 0.000377829578116)
(1.2216149632e-09 4.63615366842e-06 0.000379220070116)
(-3.33907528406e-07 4.58851022129e-06 0.000377829587735)
(-6.6073531047e-07 4.44685885512e-06 0.000373716432044)
(-9.70723138691e-07 4.21457740364e-06 0.000366989122889)
(-1.25699643088e-06 3.89713266337e-06 0.000357822115476)
(-1.51311093684e-06 3.50221716296e-06 0.000346461711118)
(-1.7393127668e-06 3.0432059001e-06 0.000333206795158)
(-2.02097881848e-06 2.4889881695e-06 0.000318417891948)
(4.85266535798e-06 5.67498913223e-06 0.000514479212734)
(4.3378302695e-06 6.81025911499e-06 0.000537484021499)
(3.83443362658e-06 7.81897170268e-06 0.00055801763718)
(3.22950945259e-06 8.70540025095e-06 0.000575561412986)
(2.52276887798e-06 9.43119877679e-06 0.000589681797851)
(1.73270296835e-06 9.96949295979e-06 0.00060002514694)
(8.82785131878e-07 1.03008636487e-05 0.000606340131559)
(2.14713363774e-09 1.04130172382e-05 0.000608470586472)
(-8.78464702988e-07 1.03011807923e-05 0.000606340084811)
(-1.72831331071e-06 9.97010462643e-06 0.000600025101969)
(-2.51832791366e-06 9.4320481679e-06 0.000589681856078)
(-3.22517531204e-06 8.70640833612e-06 0.00057556180532)
(-3.83052062629e-06 7.82008236964e-06 0.000558019031664)
(-4.33456439676e-06 6.8114764203e-06 0.000537488940097)
(-4.85059546909e-06 5.67628544623e-06 0.000514494748356)
(8.28677831571e-06 9.45559887594e-06 0.000698401799578)
(7.49753128685e-06 1.1213963094e-05 0.000728337742379)
(6.65527943096e-06 1.28108657367e-05 0.000754915800867)
(5.62087141622e-06 1.42247438486e-05 0.000777531574818)
(4.40011460311e-06 1.53885827697e-05 0.0007956720266)
(3.02646859178e-06 1.62545865082e-05 0.000808925848354)
(1.54314313123e-06 1.67887603499e-05 0.000817002272721)
(3.09537120257e-09 1.69696300066e-05 0.000819721885867)
(-1.53693906513e-06 1.67891790724e-05 0.000817002073344)
(-3.02023711254e-06 1.62553926472e-05 0.000808925505598)
(-4.39390594601e-06 1.53897042766e-05 0.000795671656915)
(-5.61487264064e-06 1.42260867677e-05 0.000777531450569)
(-6.64984764827e-06 1.28123537258e-05 0.000754916709069)
(-7.49296287426e-06 1.12156403862e-05 0.000728342669932)
(-8.2837511157e-06 9.45743227467e-06 0.000698419184556)
(1.19719128927e-05 1.34465276566e-05 0.000869579908935)
(1.08776666224e-05 1.5802577671e-05 0.00090505379881)
(9.66347247051e-06 1.79495019967e-05 0.000936329874276)
(8.16032228807e-06 1.985499695e-05 0.000962802592794)
(6.38633791854e-06 2.14249713089e-05 0.000983942863788)
(4.39134492109e-06 2.25933783075e-05 0.000999336094492)
(2.23854361131e-06 2.3314039181e-05 0.00100869326551)
(4.02782218294e-09 2.35579543279e-05 0.00101183823095)
(-2.23049321827e-06 2.33145521757e-05 0.00100869282388)
(-4.38332497272e-06 2.25943681221e-05 0.000999335263484)
(-6.37843577282e-06 2.14263589904e-05 0.000983941748136)
(-8.15274892406e-06 1.98566806178e-05 0.000962801452837)
(-9.65660128432e-06 1.79513873457e-05 0.000936329499874)
(-1.0871828883e-05 1.58047282685e-05 0.0009050574122)
(-1.19678800687e-05 1.34489096143e-05 0.000869596779107)
(1.56612943896e-05 1.73883844029e-05 0.00102734121321)
(1.42424140226e-05 2.02730351389e-05 0.00106689161109)
(1.26433908798e-05 2.28853009569e-05 0.00110146426295)
(1.06620282042e-05 2.52031588887e-05 0.0011305372633)
(8.333605954e-06 2.7110286154e-05 0.00115362860128)
(5.72449338126e-06 2.85276556848e-05 0.00117037247283)
(2.9162150945e-06 2.9400949931e-05 0.00118052057979)
(4.92023589949e-09 2.96962973416e-05 0.00118392465052)
(-2.90640076107e-06 2.94015522183e-05 0.00118051983811)
(-5.71477248151e-06 2.85288212153e-05 0.00117037102359)
(-8.32410205902e-06 2.71119336865e-05 0.00115362650587)
(-1.06529700575e-05 2.52051817572e-05 0.0011305347099)
(-1.2635153714e-05 2.28875913409e-05 0.00110146193599)
(-1.42353355652e-05 2.02756624259e-05 0.00106689283713)
(-1.56562166988e-05 1.73913045224e-05 0.00102735594839)
(1.91646495221e-05 2.10867837638e-05 0.00117119308368)
(1.74128622355e-05 2.4399660636e-05 0.0012133656874)
(1.54325633203e-05 2.73631333272e-05 0.00124986024698)
(1.29874939244e-05 2.99869073389e-05 0.0012803155132)
(1.01328460256e-05 3.21394299497e-05 0.00130435169733)
(6.95064425049e-06 3.37353066421e-05 0.00132169537855)
(3.5377299474e-06 3.47169076392e-05 0.00133217083736)
(5.75901820689e-09 3.50485516368e-05 0.00133567729394)
(-3.52625830365e-06 3.47175939988e-05 0.00133216978348)
(-6.93932576048e-06 3.37366398668e-05 0.00132169327237)
(-1.0121836253e-05 3.21413293718e-05 0.00130434852513)
(-1.29770343566e-05 2.99892640924e-05 0.00128031133283)
(-1.54230211026e-05 2.73658266764e-05 0.00124985555016)
(-1.74045716281e-05 2.44027624919e-05 0.00121336386045)
(-1.91584941085e-05 2.10902196728e-05 0.00117120473172)
(2.23355888816e-05 2.4395251452e-05 0.00130093249269)
(2.02540091477e-05 2.80148483287e-05 0.00134435338173)
(1.79100815736e-05 3.11994851876e-05 0.00138149792907)
(1.50354050505e-05 3.40084259421e-05 0.00141222761355)
(1.17055290245e-05 3.63032323843e-05 0.0014363061198)
(8.01630181205e-06 3.79990703423e-05 0.00145358329186)
(4.07600495137e-06 3.90398608462e-05 0.00146397776277)
(6.54023044133e-09 3.93910918069e-05 0.00146744918624)
(-4.06298862018e-06 3.90406260677e-05 0.0014639764461)
(-8.00349046294e-06 3.80005628327e-05 0.00145358061577)
(-1.1693104427e-05 3.63053740455e-05 0.00143630196834)
(-1.50236179103e-05 3.40111076596e-05 0.00141222186501)
(-1.78992840571e-05 3.12025750494e-05 0.00138149081984)
(-2.02445313118e-05 2.80184144291e-05 0.00134434837393)
(-2.23283406865e-05 2.43991846254e-05 0.0013009407978)
(2.5067935628e-05 2.72101371675e-05 0.00141666737699)
(2.26703011524e-05 3.10029218963e-05 0.00146010138779)
(1.99922017479e-05 3.42738551133e-05 0.00149678516374)
(1.67373687779e-05 3.71434203236e-05 0.00152684445836)
(1.29999704235e-05 3.94752934069e-05 0.00155020983628)
(8.88699726067e-06 4.11916658876e-05 0.00156687053676)
(4.51383260874e-06 4.2242313292e-05 0.00157685024586)
(7.26523791745e-09 4.25964111488e-05 0.0015801749459)
(-4.49938032577e-06 4.22431499532e-05 0.00157684879467)
(-8.87279082475e-06 4.11933044335e-05 0.00156686754089)
(-1.29862115207e-05 3.94776611029e-05 0.00155020505996)
(-1.67243147149e-05 3.71464096152e-05 0.00152683756467)
(-1.99801893365e-05 3.42773268417e-05 0.00149677609378)
(-2.26596565698e-05 3.10069338679e-05 0.00146009373323)
(-2.50595904419e-05 2.72145461221e-05 0.00141667285726)
(2.72912941261e-05 2.94651526475e-05 0.00151878555571)
(2.46006660334e-05 3.32932254634e-05 0.00156117578747)
(2.16273393162e-05 3.65189551048e-05 0.00159648797284)
(1.80530946167e-05 3.93286484238e-05 0.00162512794993)
(1.39871699777e-05 4.15971453897e-05 0.0016471965613)
(9.54421106023e-06 4.32591097734e-05 0.00166282396696)
(4.84223972605e-06 4.42734579042e-05 0.00167213930203)
(7.937792151e-09 4.46148468336e-05 0.00167523440859)
(-4.82645245045e-06 4.42743542424e-05 0.00167213794245)
(-9.52869874705e-06 4.3260872392e-05 0.00166282110596)
(-1.39721483325e-05 4.15997098759e-05 0.00164719184063)
(-1.80388254818e-05 3.93319124861e-05 0.00162512079858)
(-2.16141462228e-05 3.65227773081e-05 0.00159647801186)
(-2.45888767146e-05 3.32976520365e-05 0.00156116681009)
(-2.72818532307e-05 2.94700070523e-05 0.00151878962251)
(2.89659753631e-05 3.11257487403e-05 0.0016078922059)
(2.60131862709e-05 3.48526867597e-05 0.00164838314369)
(2.27908714644e-05 3.79102680453e-05 0.00168163598128)
(1.89655816133e-05 4.05489243895e-05 0.00170831931206)
(1.46567266907e-05 4.26631277905e-05 0.00172868764317)
(9.98236851722e-06 4.42039564099e-05 0.00174300166811)
(5.05888611676e-06 4.51413617961e-05 0.00175148838704)
(8.55989947449e-09 4.54563995293e-05 0.00175430008632)
(-5.04186093823e-06 4.51422987627e-05 0.00175148746185)
(-9.96563612213e-06 4.42058070872e-05 0.00174299964334)
(-1.46405108094e-05 4.26658395375e-05 0.00172868405795)
(-1.8950147384e-05 4.05524062681e-05 0.00170831336247)
(-2.27765331023e-05 3.79143834125e-05 0.00168162694428)
(-2.60002787767e-05 3.48574749601e-05 0.00164837507957)
(-2.89554478265e-05 3.11310000133e-05 0.00160789731718)
(3.00765929411e-05 3.21822191046e-05 0.00168472626493)
(2.68991013142e-05 3.56768233759e-05 0.00172268124384)
(2.34800846087e-05 3.84546740679e-05 0.00175342607376)
(1.9476877785e-05 4.08241827212e-05 0.00177782930231)
(1.5013343205e-05 4.27062322776e-05 0.0017962681376)
(1.02062745126e-05 4.40701476033e-05 0.00180911793732)
(5.16669347828e-06 4.48971314274e-05 0.00181669155375)
(9.12946969354e-09 4.51746510006e-05 0.00181919304188)
(-5.14853226024e-06 4.48980823545e-05 0.00181669153391)
(-1.01884147187e-05 4.40720336195e-05 0.00180911772656)
(-1.49960116114e-05 4.27090175311e-05 0.00179626722798)
(-1.94603403835e-05 4.08277939829e-05 0.00177782668967)
(-2.3464649486e-05 3.84589907612e-05 0.00175342064333)
(-2.68851170915e-05 3.56818845785e-05 0.0017226773083)
(-3.0064996232e-05 3.2187790963e-05 0.00168473602758)
(3.06241404157e-05 3.26374072464e-05 0.00175005698748)
(2.72682991703e-05 3.57772887192e-05 0.00178510045837)
(2.37119525838e-05 3.81795948517e-05 0.00181314614348)
(1.96062761279e-05 4.01983279688e-05 0.00183514675545)
(1.50749967953e-05 4.17867745344e-05 0.00185158055739)
(1.02295804462e-05 4.29312659672e-05 0.00186292699819)
(5.17297081892e-06 4.36227787818e-05 0.00186957157345)
(9.63952582319e-09 4.38544871045e-05 0.00187175921627)
(-5.15379166182e-06 4.36237093992e-05 0.00186957304646)
(-1.02107057213e-05 4.29331206562e-05 0.00186292983987)
(-1.50566519757e-05 4.17895360059e-05 0.00185158432789)
(-1.95887256565e-05 4.02019502243e-05 0.00183515035661)
(-2.36954991941e-05 3.81839845583e-05 0.00181314798755)
(-2.72533086697e-05 3.57824991535e-05 0.00178510480116)
(-3.06115262006e-05 3.26431789046e-05 0.00175007578435)
(3.06378038968e-05 3.2501701848e-05 0.00180455337647)
(2.71616156085e-05 3.52165681494e-05 0.00183672865332)
(2.35319043932e-05 3.71495958065e-05 0.00186214611546)
(1.93930775875e-05 3.8749773566e-05 0.00188177435568)
(1.48732035584e-05 3.99965282228e-05 0.00189624119177)
(1.00741517562e-05 4.08892576039e-05 0.00190612988149)
(5.08887500561e-06 4.14264711729e-05 0.00191188240991)
(1.00783603754e-08 4.16061539999e-05 0.00191377057246)
(-5.06881948837e-06 4.14273443302e-05 0.00191188601418)
(-1.00544035308e-05 4.08910059311e-05 0.0019061371447)
(-1.48539841462e-05 3.9999153659e-05 0.00189625194663)
(-1.93746462681e-05 3.87532629932e-05 0.00188178770676)
(-2.35145550072e-05 3.71539024054e-05 0.00186216004987)
(-2.71457260961e-05 3.52217719833e-05 0.00183674641854)
(-3.06242273842e-05 3.25075506398e-05 0.00180458558995)
(3.01497319113e-05 3.22277942342e-05 0.00184875320755)
(2.66403070159e-05 3.41765039556e-05 0.00187900753706)
(2.29832143989e-05 3.55094551261e-05 0.00190187449254)
(1.88733418513e-05 3.66021455497e-05 0.0019191858035)
(1.44368311186e-05 3.74397393102e-05 0.00193177528385)
(9.75996302019e-06 3.80334464581e-05 0.00194030323967)
(4.9246041259e-06 3.83881612035e-05 0.0019452358808)
(1.04337829089e-08 3.85064136308e-05 0.00194685114096)
(-4.90384121399e-06 3.83889251967e-05 0.00194524206736)
(-9.73951358141e-06 3.80349840512e-05 0.00194031590868)
(-1.44169131163e-05 3.74420693397e-05 0.00193179478137)
(-1.88542027864e-05 3.66052886569e-05 0.00191921200674)
(-2.2965129347e-05 3.5513412577e-05 0.00190190540577)
(-2.66237107977e-05 3.41814380921e-05 0.00187904703821)
(-3.01352106498e-05 3.22334150891e-05 0.00184879807931)
(-5.71454023194e-08 -1.10065360122e-07 7.93643097774e-05)
(-2.03724842764e-08 -1.54278747886e-07 8.32310258416e-05)
(3.71421719472e-09 -1.80918251176e-07 8.66801909304e-05)
(2.07817155484e-08 -1.9663880683e-07 8.96412947746e-05)
(2.74023268609e-08 -2.0370176378e-07 9.20346143166e-05)
(2.47098691851e-08 -2.05711981025e-07 9.37935579809e-05)
(1.46402505813e-08 -2.05578903207e-07 9.4870593338e-05)
(4.56715008851e-10 -2.05275417305e-07 9.5236175061e-05)
(-1.37449810812e-08 -2.05513883922e-07 9.48708145131e-05)
(-2.38664611121e-08 -2.05582210388e-07 9.37940055498e-05)
(-2.66281060304e-08 -2.03504968835e-07 9.20353052338e-05)
(-2.00439908672e-08 -1.96367244786e-07 8.9642286842e-05)
(-3.03668645053e-09 -1.80620740122e-07 8.66816501901e-05)
(2.09447463261e-08 -1.53947156677e-07 8.3233468349e-05)
(5.75597260397e-08 -1.09764519117e-07 7.93693708233e-05)
(2.04561005787e-08 -8.71326325079e-08 0.000238102713217)
(1.07521831798e-07 -1.5389729768e-07 0.000249517402656)
(1.58489551285e-07 -1.81368601437e-07 0.000259716595352)
(1.82564125923e-07 -1.83271846091e-07 0.000268469262746)
(1.73823058573e-07 -1.68210034441e-07 0.00027554227192)
(1.35679610558e-07 -1.47731827452e-07 0.00028074064996)
(7.47881137167e-08 -1.31172851328e-07 0.000283922847607)
(1.37046359165e-09 -1.2482703237e-07 0.000284999844223)
(-7.20909285034e-08 -1.30990967285e-07 0.000283923485715)
(-1.33107889797e-07 -1.47368155525e-07 0.000280741944925)
(-1.7142557715e-07 -1.67662101011e-07 0.000275544281891)
(-1.8031170812e-07 -1.82533820721e-07 0.000268472168191)
(-1.56433761184e-07 -1.80541522038e-07 0.000259720895132)
(-1.05777644715e-07 -1.52972544163e-07 0.000249524620124)
(-1.91871898458e-08 -8.6262931391e-08 0.000238116766457)
(3.09888365192e-07 1.95628030656e-07 0.000395250846602)
(4.25223471443e-07 1.71217957715e-07 0.000413972970247)
(4.78875673344e-07 1.98935045234e-07 0.000430696135091)
(4.81138248466e-07 2.59229968599e-07 0.000445036656783)
(4.25203323577e-07 3.35241202052e-07 0.00045661802099)
(3.17600635426e-07 4.06594084834e-07 0.000465126421177)
(1.70643634201e-07 4.56822741436e-07 0.000470332243375)
(2.24245945656e-09 4.74977514787e-07 0.000472091037517)
(-1.66218746935e-07 4.57096409336e-07 0.000470333229915)
(-3.13348425895e-07 4.07143266817e-07 0.000465128430653)
(-4.21201093163e-07 3.36072491116e-07 0.000456621156938)
(-4.77388117437e-07 2.60343076976e-07 0.000445041213135)
(-4.75461324112e-07 2.00213401114e-07 0.000430702880955)
(-4.22293186548e-07 1.72649742312e-07 0.000413984197908)
(-3.0772521147e-07 1.97038506052e-07 0.000395272230449)
(8.71669358007e-07 7.98521824542e-07 0.00055010727985)
(9.95041533393e-07 8.87619654598e-07 0.000575780060334)
(1.02438642809e-06 1.03710171869e-06 0.000598672441116)
(9.7013484058e-07 1.21790512169e-06 0.000618275190241)
(8.25615971222e-07 1.40263102695e-06 0.000634087151461)
(6.01862320939e-07 1.56027189843e-06 0.000645693039563)
(3.18555946746e-07 1.66593581172e-06 0.000652788321834)
(3.09019817037e-09 1.70324100602e-06 0.000655182144296)
(-3.12447700138e-07 1.666300999e-06 0.000652789550455)
(-5.95962614061e-07 1.56100295659e-06 0.000645695553151)
(-8.20031084165e-07 1.40373127971e-06 0.000634091097971)
(-9.64911582433e-07 1.21936500604e-06 0.000618280953596)
(-1.01964656174e-06 1.03880677929e-06 0.000598680971537)
(-9.90946072359e-07 8.89543222224e-07 0.000575794155582)
(-8.68590897061e-07 8.0047536832e-07 0.000550133773325)
(1.67521945505e-06 1.67839225387e-06 0.000701757847337)
(1.78755641522e-06 1.93394696319e-06 0.00073386938128)
(1.76750172455e-06 2.25489866775e-06 0.00076241379401)
(1.62537126806e-06 2.5989204896e-06 0.000786799912878)
(1.3554968936e-06 2.92662070349e-06 0.000806431805443)
(9.74700741592e-07 3.19547686957e-06 0.000820819604248)
(5.11421684183e-07 3.3716829721e-06 0.000829605122815)
(3.91483467415e-09 3.43319339544e-06 0.000832565399868)
(-5.03674650985e-07 3.37213847826e-06 0.000829606497046)
(-9.67194077754e-07 3.19638539086e-06 0.000820822426688)
(-1.34836502519e-06 2.92797813502e-06 0.000806436257045)
(-1.61870626578e-06 2.60070825012e-06 0.000786806428406)
(-1.7614631311e-06 2.25700909364e-06 0.000762423404679)
(-1.78231743707e-06 1.93635253113e-06 0.000733885210209)
(-1.67120382783e-06 1.68087024314e-06 0.000701787562529)
(2.6777178476e-06 2.77972041795e-06 0.000849134118033)
(2.76116928283e-06 3.23486701045e-06 0.000886999946216)