/*--------------------------------*- C++ -*----------------------------------*\
  =========                 |
  \\      /  F ield         | OpenFOAM: The Open Source CFD Toolbox
   \\    /   O peration     | Website:  https://openfoam.org
    \\  /    A nd           | Version:  7
     \\/     M anipulation  |
\*---------------------------------------------------------------------------*/
FoamFile
{
    version     2.0;
    format      ascii;
    class       volVectorField;
    location    "0.32";
    object      U;
}
// * * * * * * * * * * * * * * * * * * * * * * * * * * * * * * * * * * * * * //

dimensions      [0 1 -1 0 0 0 0];

internalField   nonuniform List<vector> 
22500
(
(-1.42109985451e-05 -1.59887007237e-05 -1.97606728459e-05)
(-1.32107561924e-05 -1.81848456435e-05 -2.06569335513e-05)
(-1.16732812331e-05 -2.03420816773e-05 -2.14843411103e-05)
(-9.84970660228e-06 -2.22190554784e-05 -2.22648816146e-05)
(-7.68005927171e-06 -2.37793650879e-05 -2.29466495705e-05)
(-5.26639706244e-06 -2.49431854248e-05 -2.34751182193e-05)
(-2.67650940377e-06 -2.56620349382e-05 -2.38104913177e-05)
(4.46000665239e-09 -2.5905180814e-05 -2.39268092586e-05)
(2.68533370367e-06 -2.56610002813e-05 -2.38063555755e-05)
(5.27494014773e-06 -2.4941152308e-05 -2.34669170363e-05)
(7.68818947494e-06 -2.3776393182e-05 -2.29345315328e-05)
(9.85733742334e-06 -2.22152667431e-05 -2.22490926674e-05)
(1.16803357452e-05 -2.0337580336e-05 -2.14652059046e-05)
(1.3217330686e-05 -1.81797777692e-05 -2.06348745877e-05)
(1.42165409354e-05 -1.59836424036e-05 -1.97363910846e-05)
(-4.22478473044e-05 -4.73550021655e-05 -0.000125832604871)
(-3.92012859188e-05 -5.37587460103e-05 -0.000135101197948)
(-3.46994642853e-05 -6.00397335171e-05 -0.000143885392383)
(-2.92676029575e-05 -6.55300087037e-05 -0.000151867877703)
(-2.28397110613e-05 -7.00915678319e-05 -0.00015861756523)
(-1.5667638208e-05 -7.34967135279e-05 -0.000163742205525)
(-7.9647622876e-06 -7.56018886971e-05 -0.000166945488003)
(1.30562238403e-08 -7.63138110457e-05 -0.000168038135785)
(7.99059003429e-06 -7.5598746436e-05 -0.000166933034356)
(1.56926377328e-05 -7.34905481905e-05 -0.000163717503387)
(2.28634479631e-05 -7.00825995316e-05 -0.0001585810523)
(2.92897861806e-05 -6.55186277389e-05 -0.000151820271197)
(3.47198503609e-05 -6.00263698332e-05 -0.000143827655374)
(3.92198995874e-05 -5.37439388516e-05 -0.000135034562734)
(4.22634475405e-05 -4.73401772707e-05 -0.000125759002034)
(-6.80189444003e-05 -7.58901832321e-05 -0.000289253570787)
(-6.28836022639e-05 -8.59511626293e-05 -0.000311693426726)
(-5.56225801454e-05 -9.57331551642e-05 -0.000332898369538)
(-4.68463520592e-05 -0.000104278289 -0.000351968164747)
(-3.65325917731e-05 -0.000111356189752 -0.000367944045422)
(-2.50465211577e-05 -0.000116632492192 -0.000379990931706)
(-1.27285188159e-05 -0.000119891637377 -0.00038748420377)
(2.02592508599e-08 -0.000120993226376 -0.000390030222158)
(1.27686138713e-05 -0.000119886751172 -0.000387464387837)
(2.50853843592e-05 -0.000116622903306 -0.000379951574701)
(3.65695398664e-05 -0.000111342255647 -0.000367885749258)
(4.68808931516e-05 -0.0001042606071 -0.000351891933569)
(5.56543124615e-05 -9.57124916757e-05 -0.0003328055912)
(6.29123921911e-05 -8.5928406038e-05 -0.000311585853046)
(6.80431787869e-05 -7.58673280385e-05 -0.000289133946355)
(-9.10909197624e-05 -0.000101247360694 -0.000495898273478)
(-8.39203889428e-05 -0.000114296097152 -0.00053372819956)
(-7.41155773897e-05 -0.000126865888911 -0.000569166995001)
(-6.23011683919e-05 -0.000137819807298 -0.00060071100937)
(-4.85261367039e-05 -0.000146861467234 -0.000626903035405)
(-3.32390876166e-05 -0.000153587792424 -0.000646519320587)
(-1.6883296152e-05 -0.000157737121979 -0.000658662299324)
(2.56759157907e-08 -0.00015913857379 -0.000662775364984)
(1.69341505937e-05 -0.000157731046929 -0.000658636702719)
(3.32884928884e-05 -0.000153575862822 -0.000646468381324)
(4.85732551303e-05 -0.000146844124638 -0.000626827341211)
(6.23453493134e-05 -0.000137797767124 -0.000600611587442)
(7.41562743893e-05 -0.000126840132172 -0.000569045334196)
(8.39572724188e-05 -0.000114267716072 -0.000533586170804)
(9.112221596e-05 -0.000101218620588 -0.000495738862367)
(-0.000111152206429 -0.000123187441279 -0.000729384529844)
(-0.000102067451537 -0.000138490712119 -0.000782271969088)
(-8.99547395106e-05 -0.000153093044981 -0.000831233129137)
(-7.5447182819e-05 -0.000165776506441 -0.000874339276971)
(-5.86752291559e-05 -0.00017620634305 -0.00090980298678)
(-4.01457241788e-05 -0.000183947511626 -0.000936175607079)
(-2.03784082968e-05 -0.000188715689638 -0.000952420552027)
(2.93577129334e-08 -0.000190324894936 -0.000957907005786)
(2.04366042426e-05 -0.000188708943514 -0.000952390922919)
(4.0202401549e-05 -0.000183934252861 -0.000936116506613)
(5.87294790825e-05 -0.000176187047203 -0.000909714834908)
(7.54982533762e-05 -0.000165751932546 -0.000874222890753)
(9.00019685812e-05 -0.000153064257196 -0.000831089796032)
(0.000102110340578 -0.000138458887101 -0.000782103308925)
(0.000111188962524 -0.000123154857025 -0.000729193262697)
(-0.000128007529378 -0.000141555639916 -0.00097407349008)
(-0.000117173999899 -0.000158359247299 -0.00103979258278)
(-0.000103016445735 -0.00017424572203 -0.00109981942093)
(-8.61938512096e-05 -0.000187991687978 -0.00115208304199)
(-6.69162402561e-05 -0.00019925108105 -0.00119468762756)
(-4.57264578459e-05 -0.000207588594271 -0.00122614936164)
(-2.31945054791e-05 -0.000212716309434 -0.00124543567529)
(3.16419542028e-08 -0.000214445543436 -0.00125193144493)
(2.32572793205e-05 -0.000212709308038 -0.00124540354863)
(4.57877354606e-05 -0.000207574821323 -0.00122608513339)
(6.6975098939e-05 -0.000199231009619 -0.00119459146981)
(8.62494892161e-05 -0.000187966067709 -0.00115195543063)
(0.000103068124904 -0.000174215613557 -0.00109966125512)
(0.000117221092689 -0.000158325811938 -0.00103960497603)
(0.000128048339594 -0.00014152099256 -0.000973858537124)
(-0.000141619732986 -0.000156338827332 -0.0012170897692)
(-0.000129230143388 -0.000173913569964 -0.0012924142785)
(-0.000113312180175 -0.000190387137064 -0.00136026605822)
(-9.45700707997e-05 -0.000204580522591 -0.00141871492985)
(-7.32833229236e-05 -0.000216161251212 -0.0014659516512)
(-5.00105843615e-05 -0.000224718056228 -0.00150060679491)
(-2.53480848252e-05 -0.000229973264855 -0.00152175588712)
(3.29674410699e-08 -0.000231744292351 -0.00152886127453)
(2.54135339046e-05 -0.000229966312903 -0.00152172239124)
(5.00746022205e-05 -0.000224704368128 -0.00150053969864)
(7.33450047674e-05 -0.000216141276076 -0.00146585087682)
(9.46286000826e-05 -0.000204554967722 -0.00141858059554)
(0.000113366786431 -0.000190357005394 -0.00136009862632)
(0.00012928010534 -0.000173879941336 -0.00129221424292)
(0.000141663508435 -0.000156303541313 -0.00121685839578)
(-0.000152082608442 -0.000167646422588 -0.00144916609929)
(-0.000138342876269 -0.000185319259917 -0.00153066706051)
(-0.000120959564882 -0.000201757768269 -0.00160310867137)
(-0.000100694473381 -0.000215855806684 -0.00166491192422)
(-7.78813111849e-05 -0.00022731575072 -0.00171447659223)
(-5.30761064521e-05 -0.000235767008037 -0.0017506297844)
(-2.68804768741e-05 -0.000240951110672 -0.00177260625231)
(3.37467820346e-08 -0.000242697169732 -0.00177997340316)
(2.6947511777e-05 -0.000240944410673 -0.00177257208735)
(5.3141783917e-05 -0.000235753805416 -0.00175056124954)
(7.79447558227e-05 -0.000227296457316 -0.00171437341218)
(0.000100754873667 -0.000215831071049 -0.00166477392688)
(0.000121016145285 -0.000201728504419 -0.00160293594227)
(0.000138394859675 -0.000185286441122 -0.00153045947596)
(0.000152128616931 -0.000167611542822 -0.00144892403935)
(-0.000159574706904 -0.000175667997816 -0.0016645507626)
(-0.000144693332965 -0.000192836865058 -0.00174913561069)
(-0.000126140276907 -0.000208697862971 -0.0018234160492)
(-0.000104737041363 -0.000222234052102 -0.0018862709964)
(-8.08534212989e-05 -0.000233199089837 -0.00193635057812)
(-5.50263445929e-05 -0.000241272515549 -0.00197269932415)
(-2.78455898747e-05 -0.000246219986959 -0.00199472027244)
(3.4300582773e-08 -0.000247885555473 -0.0020020883659)
(2.79137562302e-05 -0.000246213664332 -0.0019946857916)
(5.50932190519e-05 -0.000241260046353 -0.00197263009548)
(8.0918157266e-05 -0.000233180841008 -0.00193624620324)
(0.000104798839509 -0.000222210603183 -0.00188613112)
(0.000126198371203 -0.00020867002526 -0.00182324049837)
(0.000144746916714 -0.000192805488014 -0.00174892370871)
(0.000159622553284 -0.000175634231692 -0.00166430205801)
(-0.000164321025204 -0.000180639061852 -0.00186037354485)
(-0.000148501778052 -0.000196775396636 -0.00194555416637)
(-0.000129067887368 -0.000211589613235 -0.0020195991306)
(-0.000106891294022 -0.000224168875135 -0.00208184638212)
(-8.23585931278e-05 -0.000234328083402 -0.00213117283064)
(-5.59738141135e-05 -0.000241799379282 -0.00216682429886)
(-2.83015266814e-05 -0.000246374368517 -0.0021883601842)
(3.48426454304e-08 -0.00024791391371 -0.00219555407222)
(2.83707962308e-05 -0.00024636849734 -0.00218832551011)
(5.6041844099e-05 -0.000241787788638 -0.0021667546558)
(8.24245614366e-05 -0.000234311089735 -0.00213106776743)
(0.000106954412957 -0.000224146980073 -0.0020817054692)
(0.00012912740421 -0.000211563517329 -0.00201942206803)
(0.000148556866775 -0.000196745819338 -0.00194533980145)
(0.000164370585922 -0.000180606842902 -0.00186012069637)
(-0.000166565576585 -0.000182819128578 -0.00203582452044)
(-0.000150002950366 -0.000197459184028 -0.00211978804259)
(-0.0001299669954 -0.000210818832616 -0.00219220605729)
(-0.000107357086259 -0.000222110484514 -0.00225277758686)
(-8.25575971388e-05 -0.000231209730459 -0.00230054787073)
(-5.60303491979e-05 -0.000237896509538 -0.00233494150226)
(-2.83054562795e-05 -0.00024198841969 -0.00235566204575)
(3.54922593938e-08 -0.000243364802342 -0.00236257296962)
(2.8376040333e-05 -0.000241983044756 -0.00235562718111)
(5.60997355366e-05 -0.000237885884714 -0.00233487147177)
(8.26249839901e-05 -0.000231194114905 -0.00230044221861)
(0.000107421696325 -0.000222090293641 -0.00225263589495)
(0.000130028086488 -0.000210794647371 -0.00219202801795)
(0.000150059682371 -0.000197431586998 -0.00211957208963)
(0.000166616934785 -0.000182788696813 -0.00203556881097)
(-0.000166548140899 -0.000182471020627 -0.00219137265603)
(-0.000149430719786 -0.000195198487946 -0.0022729621975)
(-0.000129063341336 -0.000206750652807 -0.0023429678119)
(-0.000106331979267 -0.000216486036957 -0.00240125705081)
(-8.16051495823e-05 -0.000224322964746 -0.00244699710699)
(-5.53012061902e-05 -0.000230078460524 -0.00247979434488)
(-2.79105231113e-05 -0.000233597185662 -0.00249949848017)
(3.62961015623e-08 -0.000234779946071 -0.00250606016776)
(2.79827275734e-05 -0.000233592339518 -0.00249946339792)
(5.53722493232e-05 -0.000230068862846 -0.00247972387676)
(8.1674248895e-05 -0.000224308812719 -0.00244689080723)
(0.000106398367534 -0.000216467650529 -0.00240111455709)
(0.000129126284023 -0.000206728483293 -0.00234278891054)
(0.00014948936298 -0.000195172974412 -0.00227274498546)
(0.000166601515668 -0.000182442543263 -0.00219111459571)
(-0.00016448710082 -0.00017980677115 -0.00232812314944)
(-0.000147027401709 -0.000190259255103 -0.00240685948824)
(-0.000126589969306 -0.000199723194195 -0.0024741767122)
(-0.000104008780265 -0.000207702389083 -0.00252987023689)
(-7.96446492596e-05 -0.000214122288045 -0.00257328304617)
(-5.38808766626e-05 -0.000218828511265 -0.00260425788428)
(-2.71637580182e-05 -0.000221699624598 -0.00262280901618)
(3.72482052507e-08 -0.000222663369798 -0.00262897631023)
(2.72378795583e-05 -0.000221695333392 -0.00262277373107)
(5.39538717252e-05 -0.000218819991394 -0.00260418699242)
(7.97157548053e-05 -0.000214109675142 -0.00257317608351)
(0.000104077241928 -0.000207685898302 -0.00252972687553)
(0.000126655057647 -0.00019970313544 -0.00247399690585)
(0.000147088247106 -0.000190235904592 -0.0024066412037)
(0.000164542736182 -0.000179780404004 -0.00232786318284)
(-0.000160676043304 -0.000174985586999 -0.00244731512772)
(-0.000143126723325 -0.000182904718409 -0.00252367450036)
(-0.000122802384438 -0.000190069949864 -0.00258836654412)
(-0.000100567003237 -0.000196159573614 -0.00264121944574)
(-7.67999939264e-05 -0.000201038475567 -0.00268203565114)
(-5.18491628717e-05 -0.000204594737942 -0.00271098578563)
(-2.61048929436e-05 -0.000206754250294 -0.00272826428502)
(3.83098192456e-08 -0.000207477233697 -0.00273399810732)
(2.6181149863e-05 -0.000206750529256 -0.00272822891706)
(5.19243246411e-05 -0.000204587331889 -0.00271091467726)
(7.68733186082e-05 -0.000201027458281 -0.00268192824711)
(0.000100637754622 -0.000196145060659 -0.00264107532265)
(0.000122869843734 -0.000190052101578 -0.00258818578104)
(0.000143190002843 -0.000182883621339 -0.00252345533944)
(0.000160734241454 -0.000174961367049 -0.00244705437039)
(-0.000155776650181 -0.000168980433099 -0.00254970527)
(-0.000138261440029 -0.00017327627435 -0.00262604433248)
(-0.000117979313145 -0.000178101449136 -0.00268788345033)
(-9.62244357812e-05 -0.000182150862189 -0.0027375103028)
(-7.32421592597e-05 -0.000185347831812 -0.0027754511853)
(-4.93289209912e-05 -0.000187649027286 -0.00280220887124)
(-2.47987859033e-05 -0.000189035215094 -0.00281812700483)
(3.94253926305e-08 -0.000189497288775 -0.00282340033585)
(2.48772822856e-05 -0.000189032083682 -0.0028180918432)
(4.9406348464e-05 -0.000187642779253 -0.00280213809409)
(7.33177911978e-05 -0.000185338494526 -0.00277534407887)
(9.62975498144e-05 -0.000182138475186 -0.00273736612864)
(0.000118049216209 -0.000178086053157 -0.0026877021691)
(0.000138327143548 -0.000173257721735 -0.00262582340537)
(0.000155837711411 -0.000168958685633 -0.0025494480799)
(3.01851844459e-07 4.2643530181e-07 -9.68841486745e-05)
(2.36349950234e-07 5.49834740895e-07 -0.000101681886363)
(1.81878112505e-07 6.41871363033e-07 -0.000106025945899)
(1.42383195891e-07 7.09712599358e-07 -0.00010978198824)
(1.02990644054e-07 7.61691511582e-07 -0.000112833604886)
(6.69479859115e-08 7.97912947985e-07 -0.000115083542225)
(3.24940633573e-08 8.19345931541e-07 -0.00011646370076)
(-8.73577117006e-10 8.26389166594e-07 -0.000116932081315)
(-3.42230850564e-08 8.19040660254e-07 -0.000116463389897)
(-6.8642160889e-08 7.97298318435e-07 -0.000115082902121)
(-1.04704611357e-07 7.60757000172e-07 -0.00011283259033)
(-1.4417069105e-07 7.08484562476e-07 -0.000109780522277)
(-1.83756692443e-07 6.40333098402e-07 -0.000106023935312)
(-2.38299367663e-07 5.48090449828e-07 -0.000101679192829)
(-3.03554332061e-07 4.24718547876e-07 -9.68805738474e-05)
(2.42626466706e-06 2.90542369729e-06 -0.000285636493168)
(2.20863383607e-06 3.53049560682e-06 -0.000299329459389)
(1.93828359886e-06 4.08988007611e-06 -0.000311726229846)
(1.64000442109e-06 4.56625193816e-06 -0.000322438896897)
(1.28356066734e-06 4.95811600926e-06 -0.000331137616824)
(8.82992848153e-07 5.24888777546e-06 -0.000337549953503)
(4.48823835062e-07 5.42814344654e-06 -0.00034148191496)
(-2.69487218515e-09 5.48856435307e-06 -0.00034281275304)
(-4.54165643687e-07 5.42724144441e-06 -0.000341480860229)
(-8.88234526338e-07 5.24708618487e-06 -0.00033754779349)
(-1.2887852039e-06 4.9554226252e-06 -0.000331134227374)
(-1.64533927752e-06 4.5627613487e-06 -0.000322434064306)
(-1.94375707357e-06 4.08563220357e-06 -0.000311719690669)
(-2.21415414356e-06 3.52577244753e-06 -0.00029932083146)
(-2.43112013653e-06 2.90077084382e-06 -0.000285625317793)
(5.59655343405e-06 6.50405030084e-06 -0.000468175276798)
(5.17828908616e-06 7.74222856426e-06 -0.000490097492059)
(4.59669080665e-06 8.89054019666e-06 -0.000509918790032)
(3.90383943092e-06 9.88684590499e-06 -0.000527034112138)
(3.06630456828e-06 1.07108567076e-05 -0.000540922384791)
(2.11376454033e-06 1.13250489956e-05 -0.000551156237121)
(1.0766171954e-06 1.17044655249e-05 -0.000557428562747)
(-4.51897278538e-09 1.18325292553e-05 -0.000559548098171)
(-1.08558210053e-06 1.17030216315e-05 -0.000557426614907)
(-2.12256156766e-06 1.13221734261e-05 -0.000551152268949)
(-3.07499146433e-06 1.07065956229e-05 -0.000540916218756)
(-3.91255737997e-06 9.88136739694e-06 -0.000527025442766)
(-4.60548076975e-06 8.88402650712e-06 -0.000509907231721)
(-5.18700539441e-06 7.73509439187e-06 -0.000490082496127)
(-5.60429315646e-06 6.49706993063e-06 -0.000468156220596)
(9.18639171974e-06 1.05299237114e-05 -0.000644232669235)
(8.51374018432e-06 1.23395444699e-05 -0.000673672213659)
(7.55899534427e-06 1.40371740274e-05 -0.000700233130029)
(6.40328729927e-06 1.55108428797e-05 -0.00072314253676)
(5.01932934817e-06 1.67257267034e-05 -0.000741715608844)
(3.45399233711e-06 1.76286336337e-05 -0.000755393297433)
(1.75777022547e-06 1.81850213614e-05 -0.000763771574431)
(-6.27914404107e-09 1.83725847513e-05 -0.000766599305606)
(-1.77024305271e-06 1.81832024652e-05 -0.000763768560409)
(-3.46625625821e-06 1.76250197757e-05 -0.000755387191113)
(-5.03140346195e-06 1.6720397986e-05 -0.000741706217456)
(-6.41528844483e-06 1.55040103728e-05 -0.000723129528024)
(-7.57095837977e-06 1.40291252521e-05 -0.000700216072689)
(-8.52547057435e-06 1.23307593386e-05 -0.000673650475656)
(-9.19689249875e-06 1.05212994068e-05 -0.000644205609146)
(1.26509299019e-05 1.43726395334e-05 -0.000813429488783)
(1.16798470454e-05 1.66074965286e-05 -0.000849619635496)
(1.03305494376e-05 1.87061365839e-05 -0.0008821794634)
(8.70874715435e-06 2.05157636905e-05 -0.000910223941033)
(6.79938235744e-06 2.19969366291e-05 -0.000932935795895)
(4.66442994234e-06 2.30911717285e-05 -0.000949649034507)
(2.36946007941e-06 2.37624952752e-05 -0.000959880348866)
(-7.90568745753e-09 2.39882742467e-05 -0.00096333012229)
(-2.38518315847e-06 2.37604532721e-05 -0.000959876084073)
(-4.67992633488e-06 2.30871221057e-05 -0.000949640442227)
(-6.81463299801e-06 2.19909792424e-05 -0.000932922714938)
(-8.72382644549e-06 2.05081295047e-05 -0.000910206085841)
(-1.03454650687e-05 1.86971659423e-05 -0.000882156449602)
(-1.16943834118e-05 1.65977041176e-05 -0.000849590841344)
(-1.26640488397e-05 1.436295385e-05 -0.000813394311279)
(1.56647848105e-05 1.76716887008e-05 -0.000975401661976)
(1.43700913936e-05 2.01505265791e-05 -0.00101754264519)
(1.2638939034e-05 2.24659329518e-05 -0.00105533392358)
(1.05923930231e-05 2.4442332715e-05 -0.0010878348867)
(8.23044234009e-06 2.60449047719e-05 -0.00111412670666)
(5.62558013855e-06 2.72198505316e-05 -0.00113345952418)
(2.85136925508e-06 2.79367935902e-05 -0.00114528718851)
(-9.34528587732e-09 2.81772107119e-05 -0.00114927200523)
(-2.86997504912e-06 2.79346475063e-05 -0.00114528148644)
(-5.64395954714e-06 2.72155995846e-05 -0.00113344809688)
(-8.24854306001e-06 2.6038658105e-05 -0.00111410947406)
(-1.0610243754e-05 2.44343258811e-05 -0.00108781168459)
(-1.26565097058e-05 2.2456526223e-05 -0.00105530450821)
(-1.43871643252e-05 2.0140231487e-05 -0.00101750648646)
(-1.56803439677e-05 1.76614242115e-05 -0.000975358224163)
(1.80582710596e-05 2.02448711103e-05 -0.00112987656038)
(1.64381603051e-05 2.27935982285e-05 -0.00117716528593)
(1.43652250846e-05 2.51500761756e-05 -0.00121942728624)
(1.1963677787e-05 2.71376925527e-05 -0.00125571906908)
(9.24861051383e-06 2.87320912756e-05 -0.00128504688304)
(6.29731384219e-06 2.98910815889e-05 -0.00130659636729)
(3.18429790409e-06 3.05940531429e-05 -0.00131977259698)
(-1.05672690687e-08 3.0829017022e-05 -0.00132420873273)
(-3.20535558946e-06 3.05918970354e-05 -0.00131976527945)
(-6.3181587063e-06 2.98868130176e-05 -0.00130658177177)
(-9.26916681413e-06 2.8725821345e-05 -0.00128502505695)
(-1.19839314265e-05 2.71296470158e-05 -0.00125569003843)
(-1.43851131781e-05 2.51406156524e-05 -0.00121939103298)
(-1.64574644465e-05 2.27832001195e-05 -0.00117712143845)
(-1.80760485973e-05 2.02344199062e-05 -0.00112982467085)
(1.97730956374e-05 2.20365926709e-05 -0.00127668907373)
(1.78488413643e-05 2.45106240398e-05 -0.001328340691)
(1.54934649713e-05 2.6764117248e-05 -0.0013743416772)
(1.28213922098e-05 2.86404544412e-05 -0.00141379118852)
(9.86097405953e-06 3.01279255827e-05 -0.00144564050654)
(6.68868275339e-06 3.11992877147e-05 -0.00146902628112)
(3.37417701892e-06 3.18449795966e-05 -0.00148331726686)
(-1.15636160487e-08 3.20600484306e-05 -0.00148812577854)
(-3.39723840199e-06 3.18428867287e-05 -0.00148330817525)
(-6.71155490014e-06 3.11951442649e-05 -0.00146900821929)
(-9.88356794884e-06 3.01218373349e-05 -0.00144561368759)
(-1.2843657945e-05 2.86326297596e-05 -0.00141375588532)
(-1.55153121935e-05 2.67548981047e-05 -0.00137429816797)
(-1.78700589687e-05 2.45004436772e-05 -0.00132828880952)
(-1.9792836037e-05 2.20262570387e-05 -0.00127662848201)
(2.08283162922e-05 2.30788677532e-05 -0.00141575374296)
(1.86398562105e-05 2.53713935273e-05 -0.00147100978599)
(1.60717634552e-05 2.74174709774e-05 -0.00152005583428)
(1.32172277735e-05 2.90978373605e-05 -0.00156206861517)
(1.01148808825e-05 3.04130269693e-05 -0.00159595625659)
(6.83569556297e-06 3.13511358394e-05 -0.00162081949292)
(3.4404090173e-06 3.19127768037e-05 -0.00163600370396)
(-1.23457481487e-08 3.20991702673e-05 -0.00164110963744)
(-3.4650471538e-06 3.19108028022e-05 -0.00163599270896)
(-6.86017420284e-06 3.13472257418e-05 -0.00162079771871)
(-1.01391067213e-05 3.04072749513e-05 -0.00159592410798)
(-1.32411257813e-05 2.90904274691e-05 -0.0015620266524)
(-1.60952211029e-05 2.74087118237e-05 -0.00152000468385)
(-1.86626728986e-05 2.53616641403e-05 -0.00147094951133)
(-2.08497541875e-05 2.30688748034e-05 -0.00141568413918)
(2.12897901175e-05 2.34560524205e-05 -0.00154701457772)
(1.88889985239e-05 2.54964666073e-05 -0.00160514224805)
(1.61803182134e-05 2.7268295547e-05 -0.00165658049661)
(1.32271031052e-05 2.87017948657e-05 -0.00170060060877)
(1.00746244687e-05 2.98082331905e-05 -0.00173606994332)
(6.78490718087e-06 3.0589409674e-05 -0.00176206685177)
(3.40740324648e-06 3.10539087477e-05 -0.00177792984645)
(-1.29370963842e-08 3.12074824878e-05 -0.00178326028497)
(-3.43323717436e-06 3.10520954438e-05 -0.00177791685483)
(-6.81061505171e-06 3.05858135232e-05 -0.00176204118285)
(-1.01001163098e-05 2.98029308797e-05 -0.00173603220456)
(-1.3252287837e-05 2.86949395106e-05 -0.00170055166988)
(-1.62050678698e-05 2.72601520787e-05 -0.00165652136477)
(-1.89131180769e-05 2.54873532631e-05 -0.00160507321546)
(-2.13126623226e-05 2.34465621087e-05 -0.0015469355929)
(2.12455816368e-05 2.32764914433e-05 -0.00167038814819)
(1.86892590296e-05 2.50229922184e-05 -0.00173068337601)
(1.59087088011e-05 2.64837955988e-05 -0.001783913161)
(1.293186267e-05 2.7645588331e-05 -0.00182942539508)
(9.80642931692e-06 2.85287031906e-05 -0.00186604021416)
(6.58317887807e-06 2.91455961476e-05 -0.0018928336733)
(3.29939530407e-06 2.95098728718e-05 -0.00190916178137)
(-1.33665701803e-08 2.96298417159e-05 -0.0019146435578)
(-3.32610116259e-06 2.9508250615e-05 -0.00190914674067)
(-6.60979377311e-06 2.91423725517e-05 -0.00189280399861)
(-9.83287287346e-06 2.85239322145e-05 -0.00186599670852)
(-1.29580374261e-05 2.76393861385e-05 -0.0018293692394)
(-1.5934477479e-05 2.64763734812e-05 -0.00178384575877)
(-1.87144271262e-05 2.50146034701e-05 -0.00173060522437)
(-2.12696440278e-05 2.32676023578e-05 -0.00167029935094)
(2.07878159602e-05 2.26522452508e-05 -0.0017857036473)
(1.81324162447e-05 2.4081533384e-05 -0.00184752374173)
(1.53426797329e-05 2.52152690236e-05 -0.00190203180624)
(1.24070467775e-05 2.60989931503e-05 -0.00194856858069)
(9.37097126117e-06 2.67598189802e-05 -0.00198590441739)
(6.27278348565e-06 2.72165043728e-05 -0.00201315315381)
(3.13803290604e-06 2.74843269329e-05 -0.00202972608529)
(-1.3662690454e-08 2.7572167692e-05 -0.00203528325334)
(-3.16534318497e-06 2.74829179616e-05 -0.00202970898959)
(-6.3000381258e-06 2.72136947121e-05 -0.00201311944287)
(-9.39810472882e-06 2.6755637061e-05 -0.00198585505988)
(-1.24339636717e-05 2.60935129801e-05 -0.00194850504528)
(-1.53692407724e-05 2.52086420653e-05 -0.00190195589851)
(-1.81584254746e-05 2.40739473425e-05 -0.00184743613985)
(-2.08128632448e-05 2.26440431585e-05 -0.00178560456282)
(1.99989211867e-05 2.16814336524e-05 -0.00189263071266)
(1.73010093242e-05 2.27791534239e-05 -0.00195552110965)
(1.45601007691e-05 2.3584605241e-05 -0.00201095095822)
(1.17204269499e-05 2.41977879016e-05 -0.00205808734653)
(8.82170852379e-06 2.46490909037e-05 -0.00209570833779)
(5.89037062619e-06 2.4957779671e-05 -0.00212304860563)
(2.94188752922e-06 2.51375342475e-05 -0.00213962929868)
(-1.38489299242e-08 2.51962175075e-05 -0.00214517998632)
(-2.96958238107e-06 2.51363519856e-05 -0.00213961020124)
(-5.91804403746e-06 2.49554105805e-05 -0.00212301093101)
(-8.84931282439e-06 2.46455388901e-05 -0.00209565315862)
(-1.17478768086e-05 2.41930805627e-05 -0.00205801635485)
(-1.45872602155e-05 2.35788281115e-05 -0.0020108663601)
(-1.732768044e-05 2.27724254761e-05 -0.00195542381717)
(-2.00247740482e-05 2.16739968689e-05 -0.00189252101455)
(1.89531846409e-05 2.04368706049e-05 -0.0019905726789)
(1.62777095134e-05 2.12087702993e-05 -0.00205467703333)
(1.36384501096e-05 2.16896882773e-05 -0.00211087509405)
(1.09355496494e-05 2.20511999432e-05 -0.00215815044596)
(8.20673214612e-06 2.23130681572e-05 -0.00219555115692)
(5.46794870781e-06 2.24899645331e-05 -0.00222256643977)
(2.72691304607e-06 2.25919284254e-05 -0.0022388876766)
(-1.39441609426e-08 2.2624952995e-05 -0.00224434037629)
(-2.7548078994e-06 2.2590976255e-05 -0.00223886671748)
(-5.4958498033e-06 2.24880454464e-05 -0.00222252503173)
(-8.23461247711e-06 2.2310161802e-05 -0.00219549037251)
(-1.09633436966e-05 2.20472909479e-05 -0.00215807205367)
(-1.36660331073e-05 2.16847956501e-05 -0.00211078163361)
(-1.63048770251e-05 2.12029288852e-05 -0.00205456990945)
(-1.89796808707e-05 2.04302204857e-05 -0.00199045252798)
(1.7720581729e-05 1.91454269317e-05 -0.00207883409314)
(1.5160307661e-05 1.94327822365e-05 -0.00214601629537)
(1.26470198783e-05 1.96104861075e-05 -0.00220246596641)
(1.01050858694e-05 1.97407308396e-05 -0.00224911314309)
(7.5639863095e-06 1.98282637392e-05 -0.00228561326215)
(5.030178422e-06 1.98837461216e-05 -0.00231179766394)
(2.50527265273e-06 1.99140268316e-05 -0.00232755063563)
(-1.39619184132e-08 1.99234082078e-05 -0.00233280178802)
(-2.53320955709e-06 1.99133017458e-05 -0.00232752812268)
(-5.0581416652e-06 1.9882278726e-05 -0.00231175308596)
(-7.59196424857e-06 1.98260159256e-05 -0.00228554756291)
(-1.0133033749e-05 1.97376585887e-05 -0.00224902790927)
(-1.26748464069e-05 1.96065441e-05 -0.00220236384604)
(-1.51877956483e-05 1.94279141625e-05 -0.00214589852302)
(-1.77475933962e-05 1.91396223203e-05 -0.00207870607308)
(-1.0535565716e-07 -1.81381724132e-07 -0.000117030488946)
(-5.63934417178e-08 -2.45908297193e-07 -0.000122867277907)
(-2.55179175576e-08 -2.85533036615e-07 -0.000128164758891)
(-4.59037579887e-09 -3.10825156831e-07 -0.000132758700637)
(6.87195081832e-09 -3.25935862064e-07 -0.000136495609204)
(9.85745378807e-09 -3.34089801902e-07 -0.000139253315681)
(6.51597422648e-09 -3.37878320772e-07 -0.000140945570237)
(-3.3897971978e-10 -3.38959693889e-07 -0.000141519661674)
(-7.17839033747e-09 -3.37895833801e-07 -0.000140944693231)
(-1.04676056596e-08 -3.34114359169e-07 -0.000139251576123)
(-7.37967739711e-09 -3.2594890885e-07 -0.000136493035931)
(4.20916626414e-09 -3.10815258654e-07 -0.000132755329867)
(2.53017194056e-08 -2.85442491526e-07 -0.000128160613475)
(5.64011406108e-08 -2.45719197174e-07 -0.000122862306524)
(1.05514212885e-07 -1.81131651982e-07 -0.000117024342859)
(-4.26772423697e-07 -6.27355202075e-07 -0.000340255372434)
(-2.95259271789e-07 -8.11159037651e-07 -0.000356414651855)
(-1.98877325366e-07 -9.39165860767e-07 -0.000371062441568)
(-1.25590908375e-07 -1.02885495562e-06 -0.000383740218671)
(-7.25027445472e-08 -1.08859985678e-06 -0.000394038356355)
(-3.726780319e-08 -1.12541358245e-06 -0.000401630966444)
(-1.53365609866e-08 -1.14503018223e-06 -0.000406286210568)
(-7.73486628313e-10 -1.15114757627e-06 -0.000407861126189)
(1.38257922686e-08 -1.14503251438e-06 -0.000406283516382)
(3.58767500198e-08 -1.12539613831e-06 -0.000401625624486)
(7.1337444262e-08 -1.08852562646e-06 -0.000394030459277)
(1.24728595815e-07 -1.0286984335e-06 -0.000383729887448)
(1.98408723033e-07 -9.38820599477e-07 -0.000371049763939)
(2.95300935567e-07 -8.10599022599e-07 -0.000356399501876)
(4.2718619287e-07 -6.26660329858e-07 -0.000340237009174)
(-8.50030416732e-07 -1.15399445601e-06 -0.000551009639926)
(-6.49220145268e-07 -1.44938958798e-06 -0.000576211080304)
(-4.86856264888e-07 -1.67117636848e-06 -0.00059900255387)
(-3.51938361164e-07 -1.83537515674e-06 -0.000618693131155)
(-2.39820149161e-07 -1.9514076819e-06 -0.000634666565296)
(-1.47631478328e-07 -2.02737239569e-06 -0.000646432726576)
(-7.02088172216e-08 -2.07003019339e-06 -0.000653641192407)
(-9.59597997825e-10 -2.08374151911e-06 -0.000656075672388)
(6.83342412256e-08 -2.06996683431e-06 -0.000653636661434)
(1.45902379526e-07 -2.02721976968e-06 -0.000646423744639)
(2.38362894501e-07 -1.95112835302e-06 -0.000634653291918)
(3.50862802646e-07 -1.83494387216e-06 -0.000618675780464)
(4.86290485937e-07 -1.67049584779e-06 -0.000598981308204)
(6.49303631218e-07 -1.44844270494e-06 -0.000576185814062)
(8.50628692435e-07 -1.1529099253e-06 -0.000550979384843)
(-1.27770405578e-06 -1.65952921902e-06 -0.000749707031217)
(-1.01934606814e-06 -2.04155022958e-06 -0.000782772743732)
(-7.96425571429e-07 -2.33986105966e-06 -0.000812590797518)
(-6.01121533354e-07 -2.56671324835e-06 -0.000838306344897)
(-4.27826908832e-07 -2.73133056211e-06 -0.000859141022431)
(-2.73605045409e-07 -2.84178676276e-06 -0.000874474663029)
(-1.33402020992e-07 -2.90504073171e-06 -0.000883861936409)
(-9.45319492175e-10 -2.92558692157e-06 -0.000887028246443)
(1.31557763193e-07 -2.90491451753e-06 -0.000883855576006)
(2.71909626137e-07 -2.84151022062e-06 -0.000874462057326)
(4.26407514506e-07 -2.73087129518e-06 -0.000859122400283)
(6.00104216526e-07 -2.56605000903e-06 -0.000838282021745)
(7.95957880281e-07 -2.3389180403e-06 -0.000812561079439)
(1.01956754679e-06 -2.04032260121e-06 -0.000782737581141)
(1.27849637934e-06 -1.65816089571e-06 -0.000749665405905)
(-1.68767174261e-06 -2.12586521765e-06 -0.000936867171106)
(-1.38199927493e-06 -2.57196807435e-06 -0.000976725432335)
(-1.10521126903e-06 -2.92872722065e-06 -0.00101255391114)