/*--------------------------------*- C++ -*----------------------------------*\
  =========                 |
  \\      /  F ield         | OpenFOAM: The Open Source CFD Toolbox
   \\    /   O peration     | Website:  https://openfoam.org
    \\  /    A nd           | Version:  7
     \\/     M anipulation  |
\*---------------------------------------------------------------------------*/
FoamFile
{
    version     2.0;
    format      ascii;
    class       volVectorField;
    location    "2.5";
    object      U;
}
// * * * * * * * * * * * * * * * * * * * * * * * * * * * * * * * * * * * * * //

dimensions      [0 1 -1 0 0 0 0];

internalField   nonuniform List<vector> 
22500
(
(-1.15221935237e-05 -1.29260377553e-05 -3.34732422879e-05)
(-1.07476391237e-05 -1.46658848209e-05 -3.51644120411e-05)
(-9.51768035575e-06 -1.63937439161e-05 -3.67746540178e-05)
(-8.05102376057e-06 -1.79036694345e-05 -3.82564996024e-05)
(-6.28959460652e-06 -1.91660065102e-05 -3.95197611116e-05)
(-4.31783888367e-06 -2.01114330499e-05 -4.04825288999e-05)
(-2.19337304745e-06 -2.0696839233e-05 -4.10853835534e-05)
(1.01851421174e-08 -2.0894719273e-05 -4.12910135082e-05)
(2.21351414521e-06 -2.06948022424e-05 -4.10787654439e-05)
(4.33731136917e-06 -2.01074596354e-05 -4.04693331218e-05)
(6.30802288663e-06 -1.91602777349e-05 -3.95000736516e-05)
(8.06809436458e-06 -1.78964627449e-05 -3.82304565655e-05)
(9.53302090762e-06 -1.63853767558e-05 -3.67423959877e-05)
(1.07613243322e-05 -1.46565929395e-05 -3.5126018545e-05)
(1.15330039137e-05 -1.29168767203e-05 -3.34289982526e-05)
(-3.41248575166e-05 -3.81782482375e-05 -0.000140361223895)
(-3.17628526237e-05 -4.32402408289e-05 -0.000149290645531)
(-2.81777780683e-05 -4.82535175805e-05 -0.000157819736849)
(-2.38237167247e-05 -5.26570857816e-05 -0.000165578277955)
(-1.86265969123e-05 -5.63368162309e-05 -0.00017213337259)
(-1.27927237451e-05 -5.90949359098e-05 -0.000177103862984)
(-6.50204699536e-06 -6.08043030818e-05 -0.000180205405902)
(2.58195299432e-08 -6.13819533508e-05 -0.000181258844666)
(6.55317130578e-06 -6.07980859728e-05 -0.00018018469981)
(1.28423841031e-05 -5.90827530972e-05 -0.000177062612874)
(1.86740528544e-05 -5.63191511605e-05 -0.000172071923233)
(2.38684706745e-05 -5.26346998463e-05 -0.000165497164141)
(2.82192014236e-05 -4.82273061192e-05 -0.000157719564368)
(3.18008129841e-05 -4.32110217516e-05 -0.000149171861126)
(3.41561524235e-05 -3.8148796952e-05 -0.000140224867599)
(-5.45157424888e-05 -6.07371258063e-05 -0.000279967595118)
(-5.05390687064e-05 -6.86213356893e-05 -0.000298773426803)
(-4.47923459192e-05 -7.63608386824e-05 -0.000316668212098)
(-3.78055876647e-05 -8.3155117652e-05 -0.000332827199443)
(-2.95314167182e-05 -8.88144054242e-05 -0.00034639662157)
(-2.02666894553e-05 -9.30498053821e-05 -0.000356641465807)
(-1.02951462147e-05 -9.5672097137e-05 -0.000363015107797)
(4.31408603921e-08 -9.65577144372e-05 -0.000365175384667)
(1.03805168302e-05 -9.56624851549e-05 -0.000362981915984)
(2.03494195017e-05 -9.30310174353e-05 -0.000356575257258)
(2.96099976326e-05 -8.87872905126e-05 -0.000346297780057)
(3.78788358418e-05 -8.31209364258e-05 -0.000332696332448)
(4.48590589069e-05 -7.6321203983e-05 -0.000316506012542)
(5.05987021607e-05 -6.85776812175e-05 -0.000298580264826)
(5.45642280302e-05 -6.0693194993e-05 -0.000279744677786)
(-7.25508661898e-05 -8.05498036913e-05 -0.00044348473073)
(-6.70066187742e-05 -9.07104932665e-05 -0.000473297953412)
(-5.92879404945e-05 -0.000100597534414 -0.000501460974328)
(-4.99365146573e-05 -0.000109256856303 -0.000526691614956)
(-3.89554323349e-05 -0.000116444422508 -0.000547738369722)
(-2.67073421818e-05 -0.000121811948129 -0.000563549274736)
(-1.35590282596e-05 -0.00012513046794 -0.000573351645169)
(5.60714243511e-08 -0.000126250328363 -0.000576667034537)
(1.36700292401e-05 -0.000125118335861 -0.000573307628372)
(2.68150150379e-05 -0.000121788225835 -0.00056346135722)
(3.90577980871e-05 -0.000116410176701 -0.000547606832542)
(5.0031933177e-05 -0.000109213661417 -0.000526516945756)
(5.93748083808e-05 -0.000100547482486 -0.000501243749481)
(6.70839784567e-05 -9.06554417534e-05 -0.000473038215274)
(7.2614171385e-05 -8.04941109651e-05 -0.000443183290699)
(-8.81302363566e-05 -9.75823428254e-05 -0.000621382523409)
(-8.11127720543e-05 -0.000109453673104 -0.000661903967361)
(-7.16155020519e-05 -0.000120904494732 -0.000699818204943)
(-6.01804829264e-05 -0.000130901988134 -0.000733494534367)
(-4.68713122937e-05 -0.000139168774555 -0.000761385999912)
(-3.20964348938e-05 -0.000145327346439 -0.000782224829596)
(-1.62842525952e-05 -0.000149128794954 -0.000795095674042)
(6.54525937983e-08 -0.00015041054448 -0.000799439420034)
(1.64139083323e-05 -0.00014911508245 -0.000795042932704)
(3.22224330623e-05 -0.000145300505279 -0.000782119337187)
(4.69914154142e-05 -0.000139129961039 -0.000761227800186)
(6.02927547745e-05 -0.000130852909967 -0.000733283810203)
(7.17180490915e-05 -0.000120847463209 -0.000699555210249)
(8.12042699729e-05 -0.000109390752496 -0.000661588155102)
(8.82059335584e-05 -9.75181271828e-05 -0.000621013795179)
(-0.000101175786868 -0.000111789276564 -0.000804738904792)
(-9.28098437253e-05 -0.000124799403756 -0.000854588721136)
(-8.17407702541e-05 -0.000137241815793 -0.000900726551366)
(-6.85191297519e-05 -0.000148064920355 -0.000941345553461)
(-5.32700807001e-05 -0.000156978323815 -0.000974742009784)
(-3.64305387189e-05 -0.000163601964095 -0.000999555161973)
(-1.84696209584e-05 -0.00016768359271 -0.00101482188461)
(7.20083650851e-08 -0.000169058646547 -0.00101996298098)
(1.86123609601e-05 -0.000167669070609 -0.00101476243242)
(3.65695265198e-05 -0.000163573501957 -0.000999436092539)
(5.3402966413e-05 -0.000156937079341 -0.000974563068251)
(6.86438072311e-05 -0.000148012610556 -0.000941106533294)
(8.18551607717e-05 -0.000137180792603 -0.000900427285947)
(9.29123317118e-05 -0.000124731768835 -0.000854227902358)
(0.000101261618076 -0.000111719565684 -0.000804315149769)
(-0.000111694778835 -0.00012319646153 -0.000986125616283)
(-0.000102123717154 -0.000136793991476 -0.00104329726483)
(-8.97014638678e-05 -0.000149692873376 -0.00109561312718)
(-7.49983134463e-05 -0.000160866283651 -0.00114127255713)
(-5.81959784075e-05 -0.000170029951328 -0.00117854795703)
(-3.97442485999e-05 -0.00017682264674 -0.00120609412975)
(-2.01337238486e-05 -0.00018100151721 -0.00122297958713)
(7.64841748922e-08 -0.00018240817564 -0.00122865378842)
(2.02854371263e-05 -0.000180986786181 -0.00122291506097)
(3.98922584993e-05 -0.000176793735274 -0.00120596476963)
(5.83379193844e-05 -0.000169987959349 -0.00117835323303)
(7.51320036837e-05 -0.000160812854077 -0.00114101190895)
(8.98247369228e-05 -0.000149630275956 -0.00109528600344)
(0.000102234737075 -0.000136724246174 -0.00104290153868)
(0.000111788903061 -0.000123123834462 -0.000985658421106)
(-0.000119772924319 -0.000131902996227 -0.00115999150051)
(-0.000109149374805 -0.000145577104372 -0.00122227148403)
(-9.55983206693e-05 -0.000158450194552 -0.00127862748213)
(-7.9717346521e-05 -0.000169549831937 -0.00132741601188)
(-6.17355796993e-05 -0.000178614880427 -0.00136698455601)
(-4.21014528414e-05 -0.000185318539993 -0.00139607893438)
(-2.13101322872e-05 -0.00018943621685 -0.00141385184365)
(7.95896377951e-08 -0.000190821199038 -0.00141981231013)
(2.1468103655e-05 -0.000189421717584 -0.00141378340829)
(4.22558462425e-05 -0.000185290042043 -0.00139594165538)
(6.18840710183e-05 -0.000178573386437 -0.00136677771368)
(7.98577419914e-05 -0.0001694968577 -0.00132713881905)
(9.57284345277e-05 -0.000158387847549 -0.00127827914365)
(0.000109267215233 -0.000145507257567 -0.00122184908199)
(0.000119874009134 -0.000131829491982 -0.00115949066603)
(-0.000125547677817 -0.000138057122014 -0.00132264522972)
(-0.000114026540449 -0.000151348033614 -0.00138792389592)
(-9.95707312518e-05 -0.000163770618904 -0.00144637998777)
(-8.28065843821e-05 -0.000174427801611 -0.00149662301564)
(-6.39987472593e-05 -0.000183095627612 -0.00153712972639)
(-4.35814421351e-05 -0.000189491584914 -0.00156677750435)
(-2.20401025631e-05 -0.000193414712721 -0.00158483087326)
(8.19217535206e-08 -0.000194733288495 -0.00159087392037)
(2.22027958607e-05 -0.000193400755755 -0.0015847592569)
(4.37407162067e-05 -0.000189464108844 -0.00156663381538)
(6.41523484542e-05 -0.000183055512941 -0.00153691316571)
(8.29523441019e-05 -0.00017437640074 -0.0014963327387)
(9.9706486144e-05 -0.000163709828585 -0.00144601515032)
(0.000114150189937 -0.000151279528382 -0.00138748084823)
(0.00012565490699 -0.000137984267138 -0.00132211822718)
(-0.000129186871712 -0.000141837576722 -0.00147198996125)
(-0.000116920328833 -0.000154339460034 -0.00153844887111)
(-0.000101778814189 -0.000165941760094 -0.00159741708895)
(-8.44117923025e-05 -0.000175841605281 -0.00164778729805)
(-6.5105736683e-05 -0.000183862175697 -0.00168817828738)
(-4.42696320748e-05 -0.000189769282716 -0.00171761487527)
(-2.23677293876e-05 -0.000193388008869 -0.00173548580895)
(8.39273289681e-08 -0.000194603398127 -0.0017414567437)
(2.25344945133e-05 -0.000193374811354 -0.00173541140396)
(4.44331468408e-05 -0.000189743253249 -0.00171746560507)
(6.52638307563e-05 -0.000183824054704 -0.00168795337258)
(8.456234e-05 -0.000175792553849 -0.00164748600171)
(0.00010191969289 -0.000165883431182 -0.00159703871874)
(0.00011704935068 -0.000154273296997 -0.0015379890829)
(0.000129299882597 -0.000141766458396 -0.00147144181699)
(-0.000130873338328 -0.000143442261427 -0.00160715087631)
(-0.000118007376072 -0.000154798220665 -0.00167335275423)
(-0.000102391763926 -0.000165258450756 -0.00173165186504)
(-8.46845029009e-05 -0.000174136214019 -0.00178118273532)
(-6.51792484221e-05 -0.000181304760867 -0.00182069265589)
(-4.42517973361e-05 -0.000186576025123 -0.00184936287604)
(-2.23369175453e-05 -0.000189801417122 -0.00186671566607)
(8.59000463689e-08 -0.000190883843236 -0.00187250244458)
(2.25076890714e-05 -0.000189789139347 -0.00186663865261)
(4.44194894312e-05 -0.000186551756432 -0.00184920840419)
(6.53417794711e-05 -0.000181269085422 -0.00182046002165)
(8.48397986184e-05 -0.00017409007683 -0.00178087143133)
(0.000102537743991 -0.000165203232046 -0.00173126153632)
(0.000118141781283 -0.000154735097775 -0.00167287836286)
(0.000130992146304 -0.000143373652959 -0.00160658437158)
(-0.000130789986596 -0.000143075554529 -0.00172809413818)
(-0.000117466303254 -0.000152965188266 -0.00179302617075)
(-0.000101582222747 -0.000162004877713 -0.00184988224409)
(-8.37770609578e-05 -0.000169644932046 -0.00189792126998)
(-6.43396295435e-05 -0.000175799153533 -0.0019360118137)
(-4.36103392372e-05 -0.000180317798457 -0.00196351669944)
(-2.19893843281e-05 -0.000183078717398 -0.00198010821009)
(8.79991261987e-08 -0.000184004262032 -0.00198562954149)
(2.21644141095e-05 -0.000183067492925 -0.00198002868308)
(4.37824610638e-05 -0.000180295552809 -0.00196335719638)
(6.45068549137e-05 -0.000175766300133 -0.00193577168732)
(8.39373716534e-05 -0.000169602178237 -0.00189760027907)
(0.00010173357496 -0.000161953298888 -0.00184948054795)
(0.000117606371011 -0.000152905668312 -0.00179253811656)
(0.000130914870574 -0.000143010110986 -0.00172751038229)
(-0.000129106569787 -0.000140908141754 -0.00183528844321)
(-0.0001154846922 -0.000149050443803 -0.00189843905599)
(-9.95318668178e-05 -0.000156446989215 -0.00195346001484)
(-8.18417793457e-05 -0.000162688342347 -0.00199957482278)
(-6.27015588236e-05 -0.000167706191349 -0.00203584352078)
(-4.24214589054e-05 -0.000171381067643 -0.00206187390211)
(-2.13632065874e-05 -0.000173620760012 -0.00207751431331)
(9.02726086837e-08 -0.000174370207938 -0.00208270673995)
(2.1542842823e-05 -0.000173610709193 -0.00207743241679)
(4.25983599793e-05 -0.000171361079903 -0.00206170958765)
(6.28738314092e-05 -0.000167676513314 -0.00203559606934)
(8.2007464928e-05 -0.000162649414842 -0.00199924413091)
(9.96889500493e-05 -0.000156399553117 -0.00195304689857)
(0.000115630777922 -0.000148995036524 -0.0018979377659)
(0.000129237840603 -0.000140846531571 -0.00183468837208)
(-0.000126050601062 -0.000137068070071 -0.00192942013769)
(-0.000112323053108 -0.000143268273668 -0.00199104860638)
(-9.64451836298e-05 -0.000148848959857 -0.00204411796594)
(-7.90251693804e-05 -0.000153585005804 -0.00208793207665)
(-6.03677330263e-05 -0.000157372376402 -0.00212200310334)
(-4.07517898578e-05 -0.000160128945015 -0.0021462758838)
(-2.04916390324e-05 -0.000161800610718 -0.00216079517196)
(9.26860434758e-08 -0.000162358164079 -0.00216560257822)
(2.06761646278e-05 -0.000161791827973 -0.00216071126199)
(4.09337499603e-05 -0.000160111418877 -0.00214610735578)
(6.05453356374e-05 -0.000157346187548 -0.00212174890834)
(7.91965225911e-05 -0.000153550335667 -0.00208759180248)
(9.66082980782e-05 -0.000148806181241 -0.002043692913)
(0.000112475461914 -0.000143217529281 -0.00199053415562)
(0.000126188771379 -0.000137010759792 -0.00192880634693)
(-0.000122110875378 -0.000132354333664 -0.00201105239522)
(-0.000108389614062 -0.000135725291987 -0.00207295416788)
(-9.25333330215e-05 -0.000139445644388 -0.00212368622903)
(-7.54921350009e-05 -0.000142560498053 -0.00216468527365)
(-5.74672350467e-05 -0.000145012898995 -0.00219616611878)
(-3.86938472436e-05 -0.000146774456642 -0.00221842629218)
(-1.94234762001e-05 -0.000147833511543 -0.00223168307881)
(9.51793052596e-08 -0.000148184724815 -0.00223606063708)
(1.96130431463e-05 -0.000147826101114 -0.0022315979803)
(3.88810190261e-05 -0.000146759623569 -0.00221825509632)
(5.7650318951e-05 -0.000144990614865 -0.00219590719158)
(7.56693085339e-05 -0.000142530752349 -0.00216433714109)
(9.2702654291e-05 -0.000139408515782 -0.00212324986538)
(0.00010854828473 -0.000135680330715 -0.00207242286701)
(0.000122256721043 -0.000132302542486 -0.00201043700497)
(1.82890601837e-07 2.46801647977e-07 -8.53944197608e-05)
(1.55677047381e-07 3.11895917058e-07 -8.96757930677e-05)
(1.32674053646e-07 3.62964709263e-07 -9.3587386646e-05)
(1.14004366137e-07 4.03875758002e-07 -9.69885501243e-05)
(8.9578836372e-08 4.38084140852e-07 -9.97616954954e-05)
(6.16518691927e-08 4.63706489654e-07 -0.000101810941561)
(3.04520157591e-08 4.79609234462e-07 -0.000103069532442)
(-2.34045698624e-09 4.84854226066e-07 -0.000103496618683)
(-3.50573631053e-08 4.79024438404e-07 -0.000103068755551)
(-6.60660331322e-08 4.62541660637e-07 -0.000101809370108)
(-9.38252611687e-08 4.36323870436e-07 -9.97592731081e-05)
(-1.18192602447e-07 4.01523873409e-07 -9.69851464743e-05)
(-1.36875052946e-07 3.59994562062e-07 -9.35827600473e-05)
(-1.598886972e-07 3.08396913529e-07 -8.96694263116e-05)
(-1.8654016915e-07 2.43283706432e-07 -8.53850902421e-05)
(1.50249622166e-06 1.7730624045e-06 -0.000249835617248)
(1.40278248515e-06 2.13615136374e-06 -0.000261866796565)
(1.26438711111e-06 2.47189768303e-06 -0.000272855713918)
(1.09526949546e-06 2.76825161271e-06 -0.00028240550322)
(8.73705072403e-07 3.01980333988e-06 -0.000290187774128)
(6.08947388332e-07 3.21093705593e-06 -0.000295937382456)
(3.11208895045e-07 3.33051859946e-06 -0.000299467227512)
(-3.82148217832e-09 3.37075797509e-06 -0.000300661903763)
(-3.18789966537e-07 3.32867365017e-06 -0.000299464542021)
(-6.16468702675e-07 3.20720674661e-06 -0.000295931976682)
(-8.81553871603e-07 3.01408298599e-06 -0.000290179514676)
(-1.10415360676e-06 2.76053059868e-06 -0.000282394053702)
(-1.27481797837e-06 2.46209557468e-06 -0.000272840420975)
(-1.41469248761e-06 2.12458838692e-06 -0.000261846211515)
(-1.51409378696e-06 1.76104924965e-06 -0.000249806862535)
(3.49301497699e-06 4.01698659711e-06 -0.000406941253046)
(3.28397261631e-06 4.75915317931e-06 -0.000425959306264)
(2.96418340579e-06 5.46477748858e-06 -0.000443305458071)
(2.5546508443e-06 6.09289168483e-06 -0.00045836853458)
(2.03020297768e-06 6.62370289727e-06 -0.000470635910538)
(1.41032969167e-06 7.02586695692e-06 -0.000479695817802)
(7.19512637471e-07 7.27678620114e-06 -0.000485255453289)
(-8.51482895873e-09 7.36132032044e-06 -0.000487134122694)
(-7.36369116982e-07 7.27385640086e-06 -0.000485250704588)
(-1.42679470686e-06 7.01999734604e-06 -0.000479686268393)
(-2.04644840812e-06 6.61488368067e-06 -0.000470621361772)
(-2.57123414233e-06 6.08124181754e-06 -0.00045834849031)
(-2.98158080424e-06 5.45051440228e-06 -0.000443278960837)
(-3.30209236387e-06 4.74286476443e-06 -0.000425924228472)
(-3.50991655435e-06 4.00037217399e-06 -0.000406893564354)
(5.7773468483e-06 6.5686947493e-06 -0.000556706877302)
(5.42127243196e-06 7.67766402949e-06 -0.000581952039241)
(4.87674696192e-06 8.74033029489e-06 -0.00060492844984)
(4.17937039089e-06 9.68318961463e-06 -0.000624860677246)
(3.30657120567e-06 1.04746610628e-05 -0.000641080830502)
(2.28919146285e-06 1.10710423562e-05 -0.00065305389581)
(1.16610617318e-06 1.1441628501e-05 -0.000660397470103)
(-1.22281347487e-08 1.1566328119e-05 -0.000662875956339)
(-1.19034718789e-06 1.14378495156e-05 -0.000660390328739)
(-2.31290618025e-06 1.10634923352e-05 -0.000653039568811)
(-3.32981377141e-06 1.04633935198e-05 -0.000641059117076)
(-4.20258946811e-06 9.66842351156e-06 -0.000624831047518)
(-4.90037564826e-06 8.72249841509e-06 -0.000604889846738)
(-5.44518300446e-06 7.65756317492e-06 -0.000581902004832)
(-5.79947940586e-06 6.54827309409e-06 -0.000556640780993)
(8.02377423866e-06 9.05462508407e-06 -0.000699068640338)
(7.48898650437e-06 1.04517690477e-05 -0.000729776750737)
(6.70058450627e-06 1.17899194217e-05 -0.000757649275384)
(5.70704928153e-06 1.29679950914e-05 -0.00078179936476)
(4.49268640595e-06 1.39487791422e-05 -0.000801434163489)
(3.09868389262e-06 1.46828475864e-05 -0.000815918895361)
(1.575234868e-06 1.51367976559e-05 -0.000824798133444)
(-1.5519449607e-08 1.52892201118e-05 -0.000827791960492)
(-1.60605396578e-06 1.5132479451e-05 -0.000824788274452)
(-3.12894545096e-06 1.46742333123e-05 -0.000815899174466)
(-4.52236693856e-06 1.39359558912e-05 -0.000801404456246)
(-5.73648090998e-06 1.29512312442e-05 -0.000781759251819)
(-6.73009849205e-06 1.17697486365e-05 -0.000757597820995)
(-7.51840227694e-06 1.04290987034e-05 -0.000729711451437)
(-8.05097255683e-06 9.0315135876e-06 -0.00069898462247)
(1.00277994515e-05 1.1247239375e-05 -0.000833962313533)
(9.29376827663e-06 1.282786029e-05 -0.000869372249474)
(8.26278833399e-06 1.4333260189e-05 -0.000901412356127)
(6.99208052798e-06 1.56454654343e-05 -0.000929135948638)
(5.47528864923e-06 1.67277132125e-05 -0.000951654503957)
(3.76145689627e-06 1.75316302395e-05 -0.000968255569929)
(1.90764321019e-06 1.80261194731e-05 -0.0009784264651)
(-1.85010566669e-08 1.81916903429e-05 -0.000981852907023)
(-1.94443809112e-06 1.80214978661e-05 -0.000978413565939)
(-3.79771079558e-06 1.75224193097e-05 -0.000968229850135)
(-5.51091542833e-06 1.67140201095e-05 -0.000951616003531)
(-7.02728918536e-06 1.56275819266e-05 -0.00092908450748)
(-8.29778049536e-06 1.43117666471e-05 -0.000901347372011)
(-9.32829967179e-06 1.28036888889e-05 -0.00086929138444)
(-1.00597934706e-05 1.1222476435e-05 -0.000833860600811)
(1.16739614873e-05 1.30214902478e-05 -0.000961357748051)
(1.07338226045e-05 1.46795089614e-05 -0.00100072369287)
(9.47837372543e-06 1.62434107591e-05 -0.00103622390554)
(7.96776280319e-06 1.75915970895e-05 -0.00106689921191)
(6.20581109852e-06 1.86922128365e-05 -0.00109179130601)
(4.24613317033e-06 1.95031700291e-05 -0.00111012960031)
(2.14800622345e-06 1.99991415267e-05 -0.00112135851542)
(-2.1162638251e-08 2.0164669971e-05 -0.00112513851521)
(-2.19014621546e-06 1.99944092459e-05 -0.00112134226262)
(-4.28777461063e-06 1.94937426185e-05 -0.00111009729629)
(-6.24682035256e-06 1.8678206993e-05 -0.00109174324338)
(-8.0082282311e-06 1.75733056073e-05 -0.00106683563015)
(-9.51836879886e-06 1.62214259972e-05 -0.00103614472258)
(-1.07730332841e-05 1.46547389e-05 -0.00100062687676)
(-1.17104096709e-05 1.29959726337e-05 -0.00096123831301)
(1.29115078504e-05 1.43259658328e-05 -0.00108126758334)
(1.17722696222e-05 1.59681176476e-05 -0.00112386923827)
(1.03230926937e-05 1.74961030818e-05 -0.00116215507922)
(8.6205973202e-06 1.87979540137e-05 -0.00119519402686)
(6.67836494543e-06 1.98491883576e-05 -0.00122197856013)
(4.55113827489e-06 2.0617166047e-05 -0.0012416966934)
(2.29631932636e-06 2.10840431363e-05 -0.00125376328379)
(-2.34780997851e-08 2.12393024286e-05 -0.0012578222986)
(-2.34311839558e-06 2.10793624582e-05 -0.00125374337971)
(-4.59750079843e-06 2.06078409702e-05 -0.00124165724695)
(-6.72412645685e-06 1.9835331659e-05 -0.00122192019407)
(-8.66573971604e-06 1.87798451818e-05 -0.0011951175014)
(-1.03675654055e-05 1.74743132787e-05 -0.00116206098444)
(-1.18157015269e-05 1.59435066968e-05 -0.0011237559244)
(-1.29520412582e-05 1.43004425641e-05 -0.00108113010571)
(1.37370151207e-05 1.51629100983e-05 -0.00119373781859)
(1.24175928528e-05 1.67154665076e-05 -0.00123888636661)
(1.08133248198e-05 1.81341579158e-05 -0.0012793239472)
(8.97135088386e-06 1.93280540729e-05 -0.00131417816262)
(6.9136481193e-06 2.02809238077e-05 -0.00134240604733)
(4.69298194794e-06 2.09708447055e-05 -0.00136316893577)
(2.36170716698e-06 2.1387669392e-05 -0.00137586578107)
(-2.54412109592e-08 2.1525745453e-05 -0.00138013350556)
(-2.41246418554e-06 2.1383174488e-05 -0.00137584194848)
(-4.74337768667e-06 2.09618839972e-05 -0.00136312181908)
(-6.96350384717e-06 2.02675943947e-05 -0.00134233665748)
(-9.02056448861e-06 1.9310605074e-05 -0.00131408787405)
(-1.08617360449e-05 1.81131147188e-05 -0.00127921413611)
(-1.24647741676e-05 1.66916079079e-05 -0.00123875578122)
(-1.37812540262e-05 1.51379835491e-05 -0.00119358162947)
(1.41783267726e-05 1.55697221027e-05 -0.00129882815599)
(1.27061146878e-05 1.69794925765e-05 -0.00134587031997)
(1.09887947523e-05 1.82373343682e-05 -0.00138787329412)
(9.05930845223e-06 1.92818316059e-05 -0.00142403768318)
(6.94597468321e-06 2.01050494054e-05 -0.00145329101907)
(4.69703720954e-06 2.06955698718e-05 -0.00147478292833)
(2.35763595243e-06 2.10500747553e-05 -0.00148791279301)
(-2.70633602136e-08 2.11670167702e-05 -0.00149232207935)
(-2.41167157643e-06 2.10458777649e-05 -0.00148788477731)
(-4.75079730383e-06 2.06871907073e-05 -0.00147472764245)
(-6.99928298312e-06 2.00925557956e-05 -0.00145320989145)
(-9.11200013536e-06 1.92654250545e-05 -0.00142393276142)
(-1.10406184383e-05 1.82174720663e-05 -0.00138774681862)
(-1.27565801051e-05 1.6956850178e-05 -0.00134572139604)
(-1.42258805254e-05 1.55458519681e-05 -0.00129865215704)
(1.42807905872e-05 1.56031784506e-05 -0.00139658781806)
(1.2687794079e-05 1.68346139956e-05 -0.001444915511)
(1.08993106684e-05 1.78987938524e-05 -0.00148795855139)
(8.93076040541e-06 1.87692352107e-05 -0.00152497569801)
(6.81414229831e-06 1.94460339673e-05 -0.0015548644346)
(4.59120788791e-06 1.99269011541e-05 -0.00157678324344)
(2.2986751774e-06 2.02137341109e-05 -0.00159015455687)
(-2.83692841227e-08 2.03079302469e-05 -0.00159463975671)
(-2.35535813337e-06 2.02099259559e-05 -0.00159012212959)
(-4.64770805624e-06 1.99192802758e-05 -0.00157671931858)
(-6.87029988424e-06 1.94346250145e-05 -0.00155477084712)
(-8.98637158837e-06 1.8754175398e-05 -0.00152485518546)
(-1.09540528847e-05 1.7880447308e-05 -0.00148781426956)
(-1.27411135843e-05 1.68135368078e-05 -0.0014447468393)
(-1.43312847565e-05 1.55806888964e-05 -0.00139639038572)
(1.40963018225e-05 1.53271182135e-05 -0.00148702783476)
(1.24159987217e-05 1.63570127444e-05 -0.00153611122177)
(1.05962184292e-05 1.72085911048e-05 -0.00157975947286)
(8.6321281233e-06 1.78931419409e-05 -0.00161722407287)
(6.55622003337e-06 1.84179125039e-05 -0.00164737752835)
(4.40241874134e-06 1.87872716539e-05 -0.0016694247928)
(2.19873636694e-06 1.90062288872e-05 -0.00168284492535)
(-2.9386920008e-08 1.90777796925e-05 -0.00168733959331)
(-2.25748959681e-06 1.90028865372e-05 -0.00168280789699)
(-4.46108618592e-06 1.87805544363e-05 -0.00166935180475)
(-6.61467186341e-06 1.84077916098e-05 -0.0016472707525)
(-8.69014200975e-06 1.78796715146e-05 -0.0016170868926)
(-1.06534208872e-05 1.71920223715e-05 -0.00157959600541)
(-1.24717802328e-05 1.63377708726e-05 -0.00153592107327)
(-1.4149394881e-05 1.53062923739e-05 -0.00148680680842)
(1.36743809055e-05 1.48008072313e-05 -0.00157008499115)
(1.19419127711e-05 1.5612731256e-05 -0.00161957622581)
(1.01291074162e-05 1.62433644578e-05 -0.00166353503665)
(8.20760275765e-06 1.67403854617e-05 -0.00170108369719)
(6.20775213428e-06 1.71164021995e-05 -0.0017311272911)
(4.15540307782e-06 1.73787968736e-05 -0.00175299038688)
(2.07046395903e-06 1.75334059021e-05 -0.00176625569237)
(-3.01387552709e-08 1.7583653899e-05 -0.00177068947726)
(-2.13075744893e-06 1.75305870214e-05 -0.00176621394996)
(-4.21571021107e-06 1.73730948481e-05 -0.00175290802169)
(-6.26798211398e-06 1.71077316824e-05 -0.00173100665243)
(-8.26753459363e-06 1.6728699015e-05 -0.00170092865483)
(-1.01883319109e-05 1.62287759783e-05 -0.00166335071559)
(-1.19997704324e-05 1.55955236997e-05 -0.00161936269683)
(-1.37297314759e-05 1.47818924972e-05 -0.00156983823069)
(1.3063188558e-05 1.40707145012e-05 -0.00164556549819)
(1.13199428944e-05 1.46627963147e-05 -0.00169561245981)
(9.54976391827e-06 1.50682273707e-05 -0.00173974773317)
(7.7005713032e-06 1.53845902429e-05 -0.00177698605684)
(5.80223889964e-06 1.56210753482e-05 -0.00180648871713)
(3.8727995337e-06 1.57846381817e-05 -0.00182781308725)
(1.92525322706e-06 1.58803180134e-05 -0.00184069633784)
(-3.06440867528e-08 1.59111485278e-05 -0.00184499144975)
(-1.98659299529e-06 1.58780553385e-05 -0.00184064993258)
(-3.93425014013e-06 1.57800213174e-05 -0.00182772131383)
(-5.86376036908e-06 1.56139560022e-05 -0.00180635381528)
(-7.76196872567e-06 1.53748188049e-05 -0.00177681196968)
(-9.61060611625e-06 1.50557747321e-05 -0.00173954044839)
(-1.13795090271e-05 1.4647768856e-05 -0.00169537345026)
(-1.31204770491e-05 1.40538444891e-05 -0.00164529190652)
(1.23114830093e-05 1.32919579785e-05 -0.00171331596372)
(1.06154224257e-05 1.35526364262e-05 -0.00176539139094)
(8.9053026988e-06 1.37394807212e-05 -0.0018092601317)
(7.14810618003e-06 1.38832234134e-05 -0.00184554012562)
(5.3671346511e-06 1.39867943762e-05 -0.00187392785502)
(3.57282343656e-06 1.4056412475e-05 -0.0018942869725)
(1.77218104257e-06 1.40961867154e-05 -0.00190652796271)
(-3.0938699146e-08 1.41086127387e-05 -0.00191059723981)
(-1.83414565447e-06 1.40944615426e-05 -0.00190647737797)
(-3.63500249948e-06 1.40528694481e-05 -0.00189418662059)
(-5.42954156166e-06 1.39812553503e-05 -0.00187377950672)
(-7.21058031495e-06 1.38754866989e-05 -0.00184534703243)
(-8.96744347788e-06 1.37293847355e-05 -0.00180902850114)
(-1.06764124599e-05 1.35400742321e-05 -0.00176512199571)
(-1.23705891894e-05 1.32773120602e-05 -0.00171302167517)
(-6.08019072654e-08 -1.01964518741e-07 -9.56991565111e-05)
(-3.50887098589e-08 -1.37258599428e-07 -0.000100526439174)
(-1.91039284175e-08 -1.59303070664e-07 -0.000104943249548)
(-8.11925034611e-09 -1.73947376675e-07 -0.000108793215106)
(-1.44357123104e-09 -1.83270811156e-07 -0.000111935344943)
(1.4356574877e-09 -1.88765455429e-07 -0.000114258936697)
(1.48663131805e-09 -1.91591151744e-07 -0.000115686380239)
(-7.37870892711e-11 -1.92464950391e-07 -0.000116170487909)
(-1.6427543548e-09 -1.91628684237e-07 -0.00011568457364)
(-1.60072839046e-09 -1.88834488418e-07 -0.000114255340066)
(1.33357515311e-09 -1.83341620591e-07 -0.00011192998957)
(8.17476227837e-09 -1.73979238078e-07 -0.000108786126156)
(1.93789466281e-08 -1.59247727122e-07 -0.000104934378348)
(3.55796860247e-08 -1.3703187135e-07 -0.000100515380164)
(6.13049305476e-08 -1.01657241398e-07 -9.56843434983e-05)
(-2.55268986438e-07 -3.70677591053e-07 -0.000278226600003)
(-1.86745712391e-07 -4.74160428709e-07 -0.000291603067285)
(-1.36619702223e-07 -5.48013084003e-07 -0.000303837115604)
(-9.71217552992e-08 -6.01912441694e-07 -0.000314488499393)
(-6.54174335279e-08 -6.39818104205e-07 -0.000323174452416)
(-4.03427887259e-08 -6.64571985527e-07 -0.000329594448862)
(-2.01688457911e-08 -6.78478295832e-07 -0.000333536186138)
(-2.77955598905e-09 -6.8295444066e-07 -0.00033486951636)
(1.46866795453e-08 -6.78450840217e-07 -0.000333530815046)
(3.51682466018e-08 -6.64439580849e-07 -0.000329583754395)
(6.10094458553e-08 -6.39419151862e-07 -0.000323158519596)
(9.41391156714e-08 -6.01046355109e-07 -0.000314467388294)
(1.35604157192e-07 -5.4638495176e-07 -0.000303810654761)
(1.87861151258e-07 -4.71507390985e-07 -0.000291570047132)
(2.57759921307e-07 -3.67356987637e-07 -0.000278183370984)
(-5.20726441622e-07 -6.94374209236e-07 -0.000450520293052)
(-4.1400040473e-07 -8.65382245877e-07 -0.000471391255325)
(-3.25925078222e-07 -9.976434395e-07 -0.000490448648033)
(-2.49256809627e-07 -1.09932679106e-06 -0.000507020372517)
(-1.79925826625e-07 -1.17436105617e-06 -0.000520522451994)
(-1.16711081775e-07 -1.22557807392e-06 -0.000530496323509)
(-5.79660676868e-08 -1.25532610009e-06 -0.000536616466877)
(-1.80299294518e-09 -1.26504181887e-06 -0.000538683183193)
(5.43942117851e-08 -1.25516777149e-06 -0.000536607242506)
(1.1330878133e-07 -1.22520305573e-06 -0.000530477973659)
(1.77039644547e-07 -1.17364787794e-06 -0.000520495161074)
(2.47446088166e-07 -1.09812788219e-06 -0.00050698432383)
(3.25697606626e-07 -9.95775809912e-07 -0.000490403720794)
(4.15526730612e-07 -8.62645370696e-07 -0.000471335840228)
(5.23302295045e-07 -6.91132046546e-07 -0.000450449369959)
(-7.96677792915e-07 -1.01700129972e-06 -0.000612878909276)
(-6.57385543516e-07 -1.24327916802e-06 -0.000640259454907)
(-5.33328722352e-07 -1.42570149305e-06 -0.000665203425139)
(-4.19032882119e-07 -1.56952850691e-06 -0.000686866198015)
(-3.09762371087e-07 -1.67807196366e-06 -0.000704500726214)
(-2.04497081966e-07 -1.75355928929e-06 -0.000717519396565)
(-1.02063627828e-07 -1.79799106769e-06 -0.000725503443141)
(-1.31925439127e-09 -1.81257789022e-06 -0.00072819626686)
(9.94454330857e-08 -1.79767300066e-06 -0.000725490389949)
(2.01999514574e-07 -1.75286984686e-06 -0.00071749345127)
(3.07677301963e-07 -1.67690999953e-06 -0.000704462192587)
(4.17868315233e-07 -1.56778406408e-06 -0.000686815418383)
(5.33587989498e-07 -1.4232575729e-06 -0.000665140428879)
(6.59285894882e-07 -1.24002755211e-06 -0.000640182536779)
(7.99560950879e-07 -1.01335230894e-06 -0.000612782378631)
(-1.06785043336e-06 -1.32409237939e-06 -0.000765636614129)
(-9.00738103611e-07 -1.59373816064e-06 -0.000798609880567)