/*--------------------------------*- C++ -*----------------------------------*\
  =========                 |
  \\      /  F ield         | OpenFOAM: The Open Source CFD Toolbox
   \\    /   O peration     | Website:  https://openfoam.org
    \\  /    A nd           | Version:  7
     \\/     M anipulation  |
\*---------------------------------------------------------------------------*/
FoamFile
{
    version     2.0;
    format      ascii;
    class       volScalarField;
    location    "2.34";
    object      p;
}
// * * * * * * * * * * * * * * * * * * * * * * * * * * * * * * * * * * * * * //

dimensions      [0 2 -2 0 0 0 0];

internalField   nonuniform List<scalar> 
22500
(
3.40970002502e-05
3.40927782223e-05
3.40907093646e-05
3.40881638221e-05
3.40861063108e-05
3.40845194892e-05
3.40835395905e-05
3.40832215706e-05
3.40836056898e-05
3.40846496502e-05
3.40862987563e-05
3.40884090083e-05
3.40909990489e-05
3.40930788527e-05
3.40972965048e-05
3.4050069144e-05
3.40434848355e-05
3.40393930923e-05
3.40350708527e-05
3.40315667459e-05
3.40289111408e-05
3.40272777286e-05
3.40267421908e-05
3.40273470453e-05
3.40290477948e-05
3.40317680913e-05
3.40353283337e-05
3.40396952169e-05
3.4043799038e-05
3.40503795896e-05
3.40051774158e-05
3.39964465475e-05
3.39906670639e-05
3.39848176313e-05
3.39800900586e-05
3.39765306232e-05
3.39743449793e-05
3.39736233917e-05
3.39744110315e-05
3.39766607228e-05
3.39802811098e-05
3.39850623168e-05
3.39909541049e-05
3.39967472605e-05
3.40054813113e-05
3.39653721465e-05
3.39548969302e-05
3.39478269437e-05
3.39408339192e-05
3.39351960783e-05
3.39309715703e-05
3.39283812019e-05
3.39275226714e-05
3.39284420425e-05
3.3931091412e-05
3.39353715811e-05
3.39410585846e-05
3.39480917326e-05
3.39551767817e-05
3.39656642891e-05
3.39285212522e-05
3.39165762451e-05
3.39084554026e-05
3.39005752105e-05
3.38942330582e-05
3.38895020344e-05
3.3886605243e-05
3.38856434006e-05
3.38866611801e-05
3.38896121548e-05
3.38943942008e-05
3.39007815201e-05
3.39086996621e-05
3.39168363151e-05
3.39287995928e-05
3.38940994504e-05
3.38809522524e-05
3.38719891501e-05
3.38634420958e-05
3.3856572002e-05
3.38514685744e-05
3.38483482365e-05
3.38473109554e-05
3.38483992223e-05
3.38515690697e-05
3.38567190019e-05
3.38636305536e-05
3.38722126807e-05
3.38811933522e-05
3.38943644066e-05
3.38621962634e-05
3.38481203501e-05
3.38385060497e-05
3.38294938019e-05
3.38222554669e-05
3.38168995518e-05
3.38136292626e-05
3.38125414246e-05
3.38136757188e-05
3.38169911707e-05
3.38223895665e-05
3.38296660624e-05
3.3838710962e-05
3.3848343298e-05
3.38624484186e-05
3.38327808488e-05
3.38180313862e-05
3.38079303947e-05
3.37986242521e-05
3.37911526949e-05
3.3785644209e-05
3.37822850284e-05
3.37811672575e-05
3.37823273079e-05
3.37857276122e-05
3.37912750107e-05
3.37987817512e-05
3.3808118367e-05
3.38182380833e-05
3.38330218785e-05
3.38057170617e-05
3.37905227365e-05
3.37800743908e-05
3.37706176298e-05
3.37630262735e-05
3.37574475612e-05
3.3754049889e-05
3.37529192205e-05
3.37540885008e-05
3.37575238072e-05
3.37631383046e-05
3.37707625082e-05
3.37802478575e-05
3.37907158905e-05
3.38059483257e-05
3.37808436321e-05
3.37654091072e-05
3.37547376073e-05
3.37452537742e-05
3.37376409382e-05
3.37320625013e-05
3.37286693916e-05
3.37275403406e-05
3.37287048259e-05
3.37321325802e-05
3.37377441715e-05
3.37453878773e-05
3.37548989984e-05
3.37655912583e-05
3.37810683319e-05
3.37579943325e-05
3.37425006945e-05
3.37317268186e-05
3.37223274701e-05
3.3714783009e-05
3.37092685073e-05
3.37059188867e-05
3.37048046341e-05
3.3705951652e-05
3.37093333792e-05
3.37148789236e-05
3.37224527263e-05
3.37318784123e-05
3.37426742979e-05
3.37582145725e-05
3.373697561e-05
3.37216006003e-05
3.3710859812e-05
3.37016517222e-05
3.36942608533e-05
3.36888706915e-05
3.36856016211e-05
3.36845149314e-05
3.36856321246e-05
3.36889313479e-05
3.36943507895e-05
3.37017699449e-05
3.37110038082e-05
3.37217679288e-05
3.37371929319e-05
3.37174949012e-05
3.37025006794e-05
3.36919713611e-05
3.36830597138e-05
3.36759049251e-05
3.36706995881e-05
3.36675495233e-05
3.36665030677e-05
3.36675782726e-05
3.36707566421e-05
3.36759901656e-05
3.36831725259e-05
3.36921098991e-05
3.37026641767e-05
3.37177113697e-05
3.36992665681e-05
3.36849927184e-05
3.36748469811e-05
3.36663396395e-05
3.36595171934e-05
3.36545764638e-05
3.36515960805e-05
3.36506084227e-05
3.36516232399e-05
3.36546306758e-05
3.36595987242e-05
3.36664488085e-05
3.36749822329e-05
3.36851549767e-05
3.36994838648e-05
3.3683091612e-05
3.36684791987e-05
3.36589375861e-05
3.36509412592e-05
3.36446076349e-05
3.36400671441e-05
3.363734412e-05
3.36364438324e-05
3.3637370023e-05
3.36401188609e-05
3.36446859912e-05
3.36510474593e-05
3.36590719495e-05
3.36686425962e-05
3.36833037767e-05
2.77297120629e-05
2.77308738975e-05
2.77316429224e-05
2.77323538387e-05
2.77329765701e-05
2.77334556613e-05
2.77337525188e-05
2.77338358155e-05
2.77336958514e-05
2.77333467202e-05
2.77328256871e-05
2.77321780409e-05
2.7731451742e-05
2.77306856608e-05
2.77295303107e-05
2.77347237246e-05
2.77361277425e-05
2.77371421229e-05
2.77380776081e-05
2.77388851885e-05
2.77395014543e-05
2.77398829471e-05
2.77399948008e-05
2.77398251419e-05
2.77393903657e-05
2.77387313632e-05
2.77378982976e-05
2.77369501929e-05
2.77359380633e-05
2.77345426053e-05
2.77408732091e-05
2.77427812734e-05
2.77442338915e-05
2.77455866687e-05
2.7746749506e-05
2.77476367444e-05
2.77481886112e-05
2.7748359133e-05
2.77481320347e-05
2.77475279539e-05
2.77465983753e-05
2.77454089044e-05
2.77440437738e-05
2.77425910501e-05
2.77406920185e-05
2.77489062664e-05
2.77516687681e-05
2.77538263075e-05
2.77558370154e-05
2.77575610073e-05
2.7758876307e-05
2.77596971118e-05
2.77599601272e-05
2.77596427008e-05
2.77587715341e-05
2.77574146739e-05
2.77556628892e-05
2.7753638686e-05
2.77514794559e-05
2.77487251768e-05
2.77593083446e-05
2.7763222076e-05
2.77662930062e-05
2.77691401311e-05
2.77715711918e-05
2.77734217347e-05
2.7774576827e-05
2.77749543936e-05
2.77745249952e-05
2.77733218487e-05
2.77714310752e-05
2.77689720279e-05
2.77661100373e-05
2.77630359843e-05
2.77591287984e-05
2.77719125313e-05
2.77771658219e-05
2.7781256108e-05
2.77850212076e-05
2.77882186358e-05
2.77906445133e-05
2.77921567041e-05
2.77926564038e-05
2.77921081041e-05
2.77905507363e-05
2.77880865478e-05
2.77848613527e-05
2.77810804809e-05
2.777698417e-05
2.77717372336e-05
2.77862901211e-05
2.77929526051e-05
2.77980766354e-05
2.78027527645e-05
2.78067007625e-05
2.7809684713e-05
2.78115409175e-05
2.7812158014e-05
2.78114960288e-05
2.78095979636e-05
2.78065781467e-05
2.78026032124e-05
2.7797910879e-05
2.77927782933e-05
2.77861207365e-05
2.78019496754e-05
2.78099871369e-05
2.78160848778e-05
2.7821595742e-05
2.78262216545e-05
2.78297040674e-05
2.78318651417e-05
2.78325861106e-05
2.78318243389e-05
2.78296250952e-05
2.7826109565e-05
2.78214579604e-05
2.78159303889e-05
2.78098221708e-05
2.78017871712e-05
2.78184064195e-05
2.78276997989e-05
2.78346568914e-05
2.78408794765e-05
2.78460733526e-05
2.78499676121e-05
2.78523779918e-05
2.7853183724e-05
2.78523414266e-05
2.78498967337e-05
2.78459723266e-05
2.78407543822e-05
2.7834514982e-05
2.7827545694e-05
2.78182528432e-05
2.78352177105e-05
2.78455829846e-05
2.78532500735e-05
2.78600344902e-05
2.78656663863e-05
2.78698720898e-05
2.78724681103e-05
2.78733367301e-05
2.78724357809e-05
2.7869809301e-05
2.78655764954e-05
2.78599223125e-05
2.78531212316e-05
2.78454406038e-05
2.78350738515e-05
2.78519966651e-05
2.7863205183e-05
2.78714144304e-05
2.78786020992e-05
2.78845367393e-05
2.78889500621e-05
2.78916661643e-05
2.78925751476e-05
2.7891637884e-05
2.78888950109e-05
2.78844576064e-05
2.78785026637e-05
2.78712988766e-05
2.78630753156e-05
2.78518639111e-05
2.78684078648e-05
2.7880206862e-05
2.78887892756e-05
2.78962302258e-05
2.7902338965e-05
2.79068605105e-05
2.79096337076e-05
2.79105613486e-05
2.79096091282e-05
2.79068125578e-05
2.79022697349e-05
2.789614275e-05
2.78886866135e-05
2.78800899929e-05
2.78682874646e-05
2.78841519646e-05
2.78963008915e-05
2.79051106518e-05
2.79126757086e-05
2.79188416755e-05
2.79233788176e-05
2.79261496152e-05
2.79270754969e-05
2.79261282451e-05
2.79233369785e-05
2.79187811817e-05
2.79125989164e-05
2.79050199413e-05
2.78961965106e-05
2.7884043857e-05
2.78991245414e-05
2.79114535714e-05
2.79203210429e-05
2.7927866795e-05
2.79339510914e-05
2.79383924919e-05
2.79410912106e-05
2.79419908769e-05
2.79410724965e-05
2.79383557918e-05
2.79338977124e-05
2.79277990603e-05
2.79202408801e-05
2.79113615054e-05
2.78990280655e-05
2.79142304894e-05
2.79257991584e-05
2.79344574018e-05
2.79417788866e-05
2.79475786069e-05
2.79517703564e-05
2.79543021969e-05
2.79551443887e-05
2.79542857179e-05
2.79517379466e-05
2.79475313438e-05
2.79417187248e-05
2.79343865902e-05
2.79257194801e-05
2.79141453815e-05
2.83172076916e-05
2.8316706355e-05
2.83159835487e-05
2.83152010141e-05
2.83144670169e-05
2.8313888559e-05
2.83135254939e-05
2.83134094138e-05
2.83135503069e-05
2.83139347197e-05
2.8314527784e-05
2.8315270511e-05
2.83160681006e-05
2.83167983238e-05
2.83173153486e-05
2.83174513477e-05
2.8316978953e-05
2.83162876976e-05
2.83155295396e-05
2.83148135637e-05
2.83142455326e-05
2.83138873122e-05
2.83137725308e-05
2.83139122835e-05
2.83142920586e-05
2.83148749345e-05
2.83155998974e-05
2.83163714205e-05
2.83170720541e-05
2.83175590758e-05
2.8318025784e-05
2.83176001201e-05
2.83169559519e-05
2.831623821e-05
2.83155541827e-05
2.83150075454e-05
2.83146609023e-05
2.8314549605e-05
2.83146856217e-05
2.83150538662e-05
2.83156160648e-05
2.83163101486e-05
2.83170402177e-05
2.83176940337e-05
2.83181333947e-05
2.83184060742e-05
2.83180098003e-05
2.83173939108e-05
2.83167046379e-05
2.83160450336e-05
2.83155160701e-05
2.83151794296e-05
2.83150711338e-05
2.83152036314e-05
2.83155617679e-05
2.83161070965e-05
2.83167778365e-05
2.83174786271e-05
2.83181031669e-05
2.83185137819e-05
2.83186080368e-05
2.83182414001e-05
2.83176537409e-05
2.83169985954e-05
2.83163706105e-05
2.83158665045e-05
2.83155453409e-05
2.83154421073e-05
2.83155690004e-05
2.83159114138e-05
2.83164322645e-05
2.83170721779e-05
2.83177387123e-05
2.83183340368e-05
2.83187156382e-05
2.83187683048e-05
2.83184498012e-05
2.83179078146e-05
2.8317306127e-05
2.83167288598e-05
2.83162656129e-05
2.83159705548e-05
2.83158760661e-05
2.83159935125e-05
2.83163094222e-05
2.83167896556e-05
2.83173794474e-05
2.83179922947e-05
2.83185418951e-05
2.83188748126e-05
2.83189836849e-05
2.8318741739e-05
2.83182680505e-05
2.83177432515e-05
2.83172383838e-05
2.83168332562e-05
2.83165755615e-05
2.83164937107e-05
2.83165977493e-05
2.8316875766e-05
2.83172978788e-05
2.83178157223e-05
2.83183515982e-05
2.83188330162e-05
2.83190892779e-05
2.83193148243e-05
2.83191777645e-05
2.83187936282e-05
2.8318366238e-05
2.83179523335e-05
2.8317619816e-05
2.83174087181e-05
2.83173426663e-05
2.83174300524e-05
2.8317660865e-05
2.8318010269e-05
2.83184375365e-05
2.83188760557e-05
2.83192679418e-05
2.83194197844e-05
2.83197960313e-05
2.83197846821e-05
2.83195061439e-05
2.83191901242e-05
2.8318879485e-05
2.83186289678e-05
2.8318470378e-05
2.8318422144e-05
2.83184908203e-05
2.83186684652e-05
2.83189356398e-05
2.83192599093e-05
2.83195873021e-05
2.83198737007e-05
2.83199001722e-05
2.83204367339e-05
2.83205606975e-05
2.83203961132e-05
2.83201973291e-05
2.83199952754e-05
2.83198307035e-05
2.83197270025e-05
2.83196973782e-05
2.8319746547e-05
2.83198686167e-05
2.83200495822e-05
2.83202654972e-05
2.83204759172e-05
2.83206486674e-05
2.83205400831e-05
2.83212251526e-05
2.83214802599e-05
2.83214297009e-05
2.83213469397e-05
2.8321252582e-05
2.83211730986e-05
2.8321123635e-05
2.83211123581e-05
2.83211422684e-05
2.83212093832e-05
2.83213049252e-05
2.83214133018e-05
2.83215079561e-05
2.83215670341e-05
2.83213276392e-05
2.83221284899e-05
2.83224969816e-05
2.8322554406e-05
2.83225824257e-05
2.8322591107e-05
2.83225929609e-05
2.8322595106e-05
2.8322601273e-05
2.83226128011e-05
2.83226275695e-05
2.83226413974e-05
2.83226467974e-05
2.83226309246e-05
2.83225822593e-05
2.83222297487e-05
2.83230941811e-05
2.83235508979e-05
2.83237101154e-05
2.83238429176e-05
2.83239483974e-05
2.83240260255e-05
2.83240760419e-05
2.83240982196e-05
2.83240927405e-05
2.8324058838e-05
2.83239963721e-05
2.83239049887e-05
2.83237845312e-05
2.83236344071e-05
2.83231938591e-05
2.83240911786e-05
2.83246216801e-05
2.8324867234e-05
2.83250915357e-05
2.83252788385e-05
2.83254194779e-05
2.83255085788e-05
2.83255437422e-05
2.83255242061e-05
2.83254501659e-05
2.83253241002e-05
2.83251506334e-05
2.83249389492e-05
2.83247031894e-05
2.83241880627e-05
2.83252984496e-05
2.83257006945e-05
2.83259963997e-05
2.83262812939e-05
2.83265186913e-05
2.83266959859e-05
2.83268070837e-05
2.83268492267e-05
2.83268215354e-05
2.83267245681e-05
2.83265609678e-05
2.83263371551e-05
2.83260653927e-05
2.83257813478e-05
2.83253927493e-05
2.54271532756e-05
2.54273920481e-05
2.54276923851e-05
2.54279986158e-05
2.54282787289e-05
2.54284989441e-05
2.54286385973e-05
2.5428683223e-05
2.54286277821e-05
2.54284785057e-05
2.5428251411e-05
2.54279704484e-05
2.54276666573e-05
2.54273770238e-05
2.54271431146e-05
2.54271945291e-05
2.5427435421e-05
2.54277411315e-05
2.54280569363e-05
2.5428345838e-05
2.54285736944e-05
2.54287182882e-05
2.54287644455e-05
2.54287066752e-05
2.54285517105e-05
2.54283164717e-05
2.54280263228e-05
2.54277142192e-05
2.54274186919e-05
2.54271857054e-05
2.54270148404e-05
2.54272405062e-05
2.54275337877e-05
2.54278433708e-05
2.5428128928e-05
2.54283562458e-05
2.54285012641e-05
2.54285479971e-05
2.54284905011e-05
2.54283359302e-05
2.54281019413e-05
2.54278150136e-05
2.54275094641e-05
2.54272242766e-05
2.54270075625e-05
2.54268525794e-05
2.54270646756e-05
2.54273472229e-05
2.54276484523e-05
2.54279289753e-05
2.54281542027e-05
2.54282987531e-05
2.54283458962e-05
2.54282893149e-05
2.54281364785e-05
2.54279055919e-05
2.5427623866e-05
2.54273262805e-05
2.5427050393e-05
2.54268468322e-05
2.54267341568e-05
2.54269348976e-05
2.54272088671e-05
2.5427500891e-05
2.5427775242e-05
2.54279969055e-05
2.54281400039e-05
2.5428187129e-05
2.54281317818e-05
2.54279815526e-05
2.54277550573e-05
2.54274798316e-05
2.54271909255e-05
2.5426922847e-05
2.54267301366e-05
2.5426637049e-05
2.54268284425e-05
2.54270935859e-05
2.54273760105e-05
2.54276431367e-05
2.54278604537e-05
2.54280014998e-05
2.54280484792e-05
2.54279946229e-05
2.54278476658e-05
2.54276264598e-05
2.54273586941e-05
2.54270791378e-05
2.54268181831e-05
2.54266356207e-05
2.54265560561e-05
2.54267392468e-05
2.54269975394e-05
2.54272712697e-05
2.54275316652e-05
2.54277448459e-05
2.54278839123e-05
2.54279307436e-05
2.54278783421e-05
2.54277345328e-05
2.54275183401e-05
2.54272575539e-05
2.54269865381e-05
2.54267310604e-05
2.54265569724e-05
2.54264949736e-05
2.54266724898e-05
2.54269269106e-05
2.54271937145e-05
2.54274490284e-05
2.54276591666e-05
2.54277969399e-05
2.54278438134e-05
2.542779268e-05
2.54276513492e-05
2.54274390177e-05
2.54271835773e-05
2.5426919011e-05
2.54266664369e-05
2.54264976059e-05
2.54264573768e-05
2.54266333287e-05
2.54268865556e-05
2.54271489049e-05
2.54274009904e-05
2.54276093141e-05
2.54277464045e-05
2.54277934678e-05
2.54277433415e-05
2.54276037605e-05
2.54273939978e-05
2.54271420384e-05
2.54268815264e-05
2.54266292704e-05
2.54264618634e-05
2.54264456429e-05
2.54266234579e-05
2.54268771812e-05
2.54271368905e-05
2.54273869985e-05
2.54275942171e-05
2.54277308686e-05
2.54277781395e-05
2.54277288793e-05
2.54275906864e-05
2.54273827049e-05
2.54271329198e-05
2.5426874662e-05
2.54266210915e-05
2.54264517004e-05
2.54264576799e-05
2.54266391287e-05
2.54268939354e-05
2.54271520056e-05
2.54274006436e-05
2.54276066801e-05
2.54277425971e-05
2.54277898442e-05
2.54277414982e-05
2.54276048445e-05
2.54273986258e-05
2.54271505757e-05
2.542689371e-05
2.54266385368e-05
2.54264654633e-05
2.54264853396e-05
2.54266703202e-05
2.54269262192e-05
2.542718354e-05
2.54274308576e-05
2.54276352602e-05
2.54277697638e-05
2.54278166398e-05
2.54277693539e-05
2.5427634735e-05
2.5427430648e-05
2.54271841764e-05
2.54269280186e-05
2.54266716166e-05
2.54264951697e-05
2.54265111024e-05
2.54266980603e-05
2.54269574471e-05
2.54272169339e-05
2.54274644261e-05
2.5427667254e-05
2.54277998859e-05
2.54278460549e-05
2.54277999419e-05
2.54276676381e-05
2.54274654745e-05
2.5427219145e-05
2.54269609475e-05
2.54267012194e-05
2.54265228885e-05
2.54265207179e-05
2.54267184994e-05
2.54269843871e-05
2.54272480025e-05
2.54274948323e-05
2.54276936873e-05
2.54278221401e-05
2.54278666403e-05
2.54278224621e-05
2.54276945038e-05
2.54274965354e-05
2.54272510941e-05
2.5426989142e-05
2.54267236716e-05
2.54265344526e-05
2.54267014985e-05
2.54268611538e-05
2.54270970345e-05
2.54273280467e-05
2.54275409881e-05
2.54277091226e-05
2.54278162919e-05
2.54278532468e-05
2.54278167635e-05
2.54277102998e-05
2.54275431611e-05
2.54273318964e-05
2.54271032024e-05
2.5426869188e-05
2.54267165111e-05
2.43943752092e-05
2.4394197213e-05
2.43939460781e-05
2.4393671196e-05
2.43934097116e-05
2.43931979581e-05
2.4393063092e-05
2.43930178806e-05
2.43930659973e-05
2.43932017073e-05
2.4393410423e-05
2.43936683762e-05
2.43939433622e-05
2.43941912251e-05
2.43943782322e-05
2.43943372105e-05
2.43941641757e-05
2.43939200167e-05
2.43936492797e-05
2.43933904532e-05
2.4393180376e-05
2.43930460855e-05
2.43930009525e-05
2.43930490049e-05
2.43931841966e-05
2.43933914412e-05
2.43936464475e-05
2.43939168345e-05
2.43941592626e-05
2.4394340665e-05
2.43944025372e-05
2.43942387489e-05
2.43940066666e-05
2.4393744941e-05
2.43934937809e-05
2.43932890595e-05
2.43931575567e-05
2.43931132209e-05
2.43931604706e-05
2.43932931329e-05
2.4393495753e-05
2.43937436381e-05
2.43940044726e-05
2.43942353303e-05
2.43944064154e-05
2.43944502289e-05
2.43942907515e-05
2.43940651799e-05
2.43938088739e-05
2.43935625491e-05
2.43933614159e-05
2.43932316434e-05
2.43931877259e-05
2.43932344692e-05
2.43933656442e-05
2.43935655165e-05
2.43938090726e-05
2.43940640632e-05
2.43942879803e-05
2.43944546836e-05
2.43944616106e-05
2.43943025147e-05
2.43940797745e-05
2.43938268061e-05
2.4393583672e-05
2.43933849175e-05
2.43932563179e-05
2.43932126763e-05
2.43932590106e-05
2.43933891038e-05
2.43935871011e-05
2.43938279201e-05
2.43940795333e-05
2.43943000388e-05
2.43944667908e-05
2.43944513386e-05
2.43942901783e-05
2.43940701248e-05
2.43938204893e-05
2.43935810635e-05
2.43933854451e-05
2.43932586395e-05
2.43932154904e-05
2.43932611027e-05
2.43933893835e-05
2.43935846429e-05
2.43938221232e-05
2.43940703585e-05
2.43942882989e-05
2.43944566313e-05
2.43944293558e-05
2.43942670119e-05
2.43940507724e-05
2.43938062987e-05
2.43935727849e-05
2.43933822675e-05
2.43932587173e-05
2.43932165867e-05
2.43932608951e-05
2.43933858066e-05
2.4393576179e-05
2.43938081101e-05
2.43940511922e-05
2.43942655662e-05
2.43944351239e-05
2.43944034325e-05
2.43942421876e-05
2.43940320174e-05
2.4393796017e-05
2.43935718894e-05
2.4393389559e-05
2.43932713977e-05
2.4393231042e-05
2.43932732459e-05
2.43933926072e-05
2.43935749562e-05
2.43937978858e-05
2.43940326777e-05
2.43942411092e-05
2.43944101017e-05
2.43943812143e-05
2.43942237047e-05
2.439402292e-05
2.43937995844e-05
2.43935890639e-05
2.43934185956e-05
2.43933083527e-05
2.43932706693e-05
2.43933098672e-05
2.43934211284e-05
2.43935917087e-05
2.43938013739e-05
2.43940238281e-05
2.43942230475e-05
2.43943887987e-05
2.43943686353e-05
2.43942174917e-05
2.43940297646e-05
2.43938235128e-05
2.43936311766e-05
2.4393476499e-05
2.43933768222e-05
2.4393342766e-05
2.43933780391e-05
2.43934785689e-05
2.43936334603e-05
2.43938253125e-05
2.43940310431e-05
2.43942175256e-05
2.43943771786e-05
2.43943689864e-05
2.439422619e-05
2.43940547404e-05
2.43938697772e-05
2.43936999961e-05
2.43935648149e-05
2.43934782224e-05
2.43934486801e-05
2.43934791953e-05
2.43935665196e-05
2.43937019933e-05
2.43938716443e-05
2.43940564277e-05
2.43942270018e-05
2.43943785442e-05
2.43943815829e-05
2.43942472318e-05
2.43940943271e-05
2.4393934525e-05
2.43937913068e-05
2.43936790686e-05
2.43936077614e-05
2.43935835565e-05
2.43936085713e-05
2.43936805279e-05
2.43937932055e-05
2.43939365832e-05
2.43940965426e-05
2.43942487998e-05
2.43943920217e-05
2.43944007874e-05
2.43942718463e-05
2.43941394392e-05
2.4394008555e-05
2.43938958147e-05
2.4393809387e-05
2.43937552913e-05
2.43937370231e-05
2.43937560039e-05
2.439381079e-05
2.4393897711e-05
2.43940109605e-05
2.43941422423e-05
2.43942742665e-05
2.43944120858e-05
2.43944100663e-05
2.43942856893e-05
2.43941784671e-05
2.43940812134e-05
2.43940020922e-05
2.43939434828e-05
2.43939073574e-05
2.43938953855e-05
2.43939081158e-05
2.43939449157e-05
2.4394004256e-05
2.43940840274e-05
2.43941820074e-05
2.43942890898e-05
2.43944218239e-05
2.43943741677e-05
2.4394279458e-05
2.43942065082e-05
2.43941461466e-05
2.43941006612e-05
2.43940679326e-05
2.43940482047e-05
2.43940419027e-05
2.4394049236e-05
2.43940700297e-05
2.43941037541e-05
2.43941503569e-05
2.43942118875e-05
2.43942853279e-05
2.43943863251e-05
2.2387521439e-05
2.23875893509e-05
2.23876761726e-05
2.23877638659e-05
2.23878426697e-05
2.23879028745e-05
2.23879382914e-05
2.23879456096e-05
2.23879241754e-05
2.23878757516e-05
2.23878046795e-05
2.23877178058e-05
2.2387624375e-05
2.23875378155e-05
2.23874670388e-05
2.23874928194e-05
2.23875603106e-05
2.2387645936e-05
2.23877343867e-05
2.23878141443e-05
2.2387875375e-05
2.23879115119e-05
2.23879190124e-05
2.23878970434e-05
2.23878475765e-05
2.23877752976e-05
2.23876875228e-05
2.23875939377e-05
2.23875082142e-05
2.23874398686e-05
2.2387405791e-05
2.23874681468e-05
2.23875474156e-05
2.23876326859e-05
2.23877103123e-05
2.23877707158e-05
2.2387806723e-05
2.23878144267e-05
2.23877927718e-05
2.23877438992e-05
2.23876727914e-05
2.2387587175e-05
2.23874970159e-05
2.2387416288e-05
2.2387353937e-05
2.23873332462e-05
2.23873916878e-05
2.23874667838e-05
2.2387549539e-05
2.2387625793e-05
2.23876857633e-05
2.2387721893e-05
2.23877299506e-05
2.23877086679e-05
2.23876603142e-05
2.23875900966e-05
2.23875060541e-05
2.23874183289e-05
2.2387341059e-05
2.23872823631e-05
2.23872812879e-05
2.23873374786e-05
2.23874100176e-05
2.23874907633e-05
2.23875659353e-05
2.23876254359e-05
2.23876615987e-05
2.23876699017e-05
2.23876489867e-05
2.23876011536e-05
2.23875317729e-05
2.23874490377e-05
2.23873631454e-05
2.2387288193e-05
2.23872315686e-05
2.23872407196e-05
2.23872960303e-05
2.23873655988e-05
2.23874444123e-05
2.23875181459e-05
2.23875768146e-05
2.23876126905e-05
2.23876211409e-05
2.23876007004e-05
2.23875536975e-05
2.23874855464e-05
2.23874044767e-05
2.23873206007e-05
2.23872478005e-05
2.2387192917e-05
2.23872072118e-05
2.23872611257e-05
2.23873276727e-05
2.23874040809e-05
2.2387475733e-05
2.23875329856e-05
2.2387568147e-05
2.23875765735e-05
2.23875567337e-05
2.23875109482e-05
2.23874445792e-05
2.23873657727e-05
2.2387284436e-05
2.23872140734e-05
2.23871612304e-05
2.23871780142e-05
2.23872294722e-05
2.23872928026e-05
2.23873660076e-05
2.23874349136e-05
2.23874901383e-05
2.23875241881e-05
2.23875324287e-05
2.23875133372e-05
2.23874691605e-05
2.23874051608e-05
2.23873292845e-05
2.23872511413e-05
2.23871837273e-05
2.23871335413e-05
2.23871501918e-05
2.23871986566e-05
2.23872582616e-05
2.2387327563e-05
2.23873930441e-05
2.23874456706e-05
2.23874782103e-05
2.23874861097e-05
2.23874678796e-05
2.2387425666e-05
2.23873645777e-05
2.23872922826e-05
2.23872180135e-05
2.23871541534e-05
2.23871074411e-05
2.2387122044e-05
2.23871667078e-05
2.23872219931e-05
2.23872867665e-05
2.23873482214e-05
2.23873977779e-05
2.2387428464e-05
2.23874359023e-05
2.2387418625e-05
2.2387378681e-05
2.2387320963e-05
2.23872528114e-05
2.23871830291e-05
2.23871233229e-05
2.2387080929e-05
2.23870918216e-05
2.23871319266e-05
2.23871825562e-05
2.23872423504e-05
2.23872993773e-05
2.23873454564e-05
2.23873740159e-05
2.23873808661e-05
2.23873646328e-05
2.23873272124e-05
2.23872732364e-05
2.23872096591e-05
2.23871448291e-05
2.23870897609e-05
2.2387052481e-05
2.23870582476e-05
2.23870931601e-05
2.23871389841e-05
2.23871936403e-05
2.23872459457e-05
2.23872882919e-05
2.23873144628e-05
2.2387320649e-05
2.23873055255e-05
2.23872708556e-05
2.23872209019e-05
2.23871621523e-05
2.23871024901e-05
2.2387052341e-05
2.23870208427e-05
2.23870195276e-05
2.23870485899e-05
2.23870899601e-05
2.23871398064e-05
2.23871876082e-05
2.23872260845e-05
2.23872498221e-05
2.23872552474e-05
2.23872413297e-05
2.23872095179e-05
2.23871636488e-05
2.23871095987e-05
2.23870547402e-05
2.2387009226e-05
2.2386984066e-05
2.23869694571e-05
2.23869941099e-05
2.23870335068e-05
2.23870801543e-05
2.23871240473e-05
2.2387159003e-05
2.23871802264e-05
2.23871849844e-05
2.23871722814e-05
2.23871433785e-05
2.23871014307e-05
2.23870513923e-05
2.23869998311e-05
2.23869564342e-05
2.23869363277e-05
2.23869141376e-05
2.23869472801e-05
2.23869852882e-05
2.23870262416e-05
2.23870631899e-05
2.23870916654e-05
2.23871085948e-05
2.23871120248e-05
2.2387101393e-05
2.23870775388e-05
2.23870425703e-05
2.23869998927e-05
2.23869541137e-05
2.23869119337e-05
2.23868821621e-05
2.08918899013e-05
2.08918514582e-05
2.08917903233e-05
2.08917244083e-05
2.08916637692e-05
2.08916154403e-05
2.08915837387e-05
2.08915718231e-05
2.08915807306e-05
2.0891609143e-05
2.08916536601e-05
2.08917090079e-05
2.08917683172e-05
2.08918230963e-05
2.08918661816e-05
2.08918675387e-05
2.08918280878e-05
2.08917665684e-05
2.08916993063e-05
2.08916372342e-05
2.08915876257e-05
2.08915551063e-05
2.08915428997e-05
2.08915521201e-05
2.08915813672e-05
2.08916270739e-05
2.08916837566e-05
2.08917442901e-05
2.08918000413e-05
2.08918434641e-05
2.08918745141e-05
2.08918353474e-05
2.08917756096e-05
2.08917088789e-05
2.08916468485e-05
2.08915969019e-05
2.08915640538e-05
2.08915516997e-05
2.08915610083e-05
2.08915905083e-05
2.08916364806e-05
2.08916932355e-05
2.08917534227e-05
2.08918082665e-05
2.08918503705e-05
2.08918789166e-05
2.08918398516e-05
2.08917806728e-05
2.08917144708e-05
2.0891652268e-05
2.08916018063e-05
2.08915685182e-05
2.0891555947e-05
2.08915653151e-05
2.08915950795e-05
2.08916413888e-05
2.08916983701e-05
2.08917584945e-05
2.08918130099e-05
2.08918548554e-05
2.08918754862e-05
2.08918359515e-05
2.089177664e-05
2.08917107214e-05
2.08916482625e-05
2.08915973453e-05
2.08915636565e-05
2.08915508635e-05
2.08915602409e-05
2.08915902126e-05
2.08916368215e-05
2.08916940799e-05
2.08917543431e-05
2.08918090546e-05
2.08918514425e-05
2.08918675299e-05
2.08918264707e-05
2.08917673721e-05
2.0891701902e-05
2.08916394809e-05
2.08915883957e-05
2.08915544823e-05
2.089154151e-05
2.08915507853e-05
2.08915807279e-05
2.08916273278e-05
2.0891684567e-05
2.08917447833e-05
2.08917997778e-05
2.08918430806e-05
2.08918560099e-05
2.08918137001e-05
2.08917550359e-05
2.08916902893e-05
2.08916284429e-05
2.08915776885e-05
2.08915438969e-05
2.08915308587e-05
2.08915399082e-05
2.08915694795e-05
2.08916156054e-05
2.08916723267e-05
2.08917320785e-05
2.08917871742e-05
2.08918314892e-05
2.08918416078e-05
2.08917985254e-05
2.08917404875e-05
2.08916771458e-05
2.08916166035e-05
2.08915667983e-05
2.08915335396e-05
2.08915205825e-05
2.08915292603e-05
2.08915580624e-05
2.08916031377e-05
2.08916587043e-05
2.08917174194e-05
2.08917722562e-05
2.08918175063e-05
2.08918254382e-05
2.08917818329e-05
2.08917249015e-05
2.08916636713e-05
2.08916051686e-05
2.08915570052e-05
2.08915247649e-05
2.08915120844e-05
2.08915202468e-05
2.08915478531e-05
2.08915912405e-05
2.08916449264e-05
2.08917019174e-05
2.0891755972e-05
2.08918019018e-05
2.08918082831e-05
2.08917644428e-05
2.08917092848e-05
2.08916509055e-05
2.08915952838e-05
2.08915494826e-05
2.08915187705e-05
2.08915065666e-05
2.08915140929e-05
2.08915400667e-05
2.08915811153e-05
2.08916321567e-05
2.08916866759e-05
2.08917393139e-05
2.08917855056e-05
2.08917910131e-05
2.08917474777e-05
2.08916947306e-05
2.08916398618e-05
2.08915878332e-05
2.0891545059e-05
2.089151636e-05
2.0891504845e-05
2.08915116296e-05
2.08915355727e-05
2.0891573682e-05
2.08916213604e-05
2.08916726811e-05
2.08917232259e-05
2.08917691333e-05
2.08917747416e-05
2.08917320163e-05
2.08916820383e-05
2.08916311538e-05
2.08915832768e-05
2.08915440756e-05
2.08915178094e-05
2.08915071758e-05
2.08915131425e-05
2.08915347601e-05
2.08915694361e-05
2.08916132e-05
2.08916607901e-05
2.08917086816e-05
2.08917537472e-05
2.08917608062e-05
2.08917191762e-05
2.08916719629e-05
2.0891625083e-05
2.08915815483e-05
2.08915462339e-05
2.08915226712e-05
2.08915130772e-05
2.08915182212e-05
2.08915373319e-05
2.08915683556e-05
2.08916079832e-05
2.08916517166e-05
2.08916969002e-05
2.08917408278e-05
2.08917484806e-05
2.08917069231e-05
2.08916626558e-05
2.08916199886e-05
2.08915812332e-05
2.08915502883e-05
2.08915298527e-05
2.08915215049e-05
2.08915258001e-05
2.08915421499e-05
2.08915691255e-05
2.08916042159e-05
2.08916437724e-05
2.08916858392e-05
2.08917295136e-05
2.08917080397e-05
2.08916773983e-05
2.08916419274e-05
2.08916083381e-05
2.08915783698e-05
2.08915548826e-05
2.08915395185e-05
2.08915331924e-05
2.08915361346e-05
2.08915480641e-05
2.08915681202e-05
2.08915947915e-05
2.08916253494e-05
2.08916581699e-05
2.0891690026e-05
1.91261981257e-05
1.91262250316e-05
1.91262634134e-05
1.91263020311e-05
1.91263366889e-05
1.91263632824e-05
1.91263795048e-05
1.91263834881e-05
1.91263746222e-05
1.91263536209e-05
1.91263224757e-05
1.91262845025e-05
1.91262442314e-05
1.91262079783e-05
1.91261807588e-05
1.91261904174e-05
1.9126217523e-05
1.91262539995e-05
1.91262913706e-05
1.91263249231e-05
1.91263507646e-05
1.91263665302e-05
1.9126370299e-05
1.91263614507e-05
1.9126340719e-05
1.9126310168e-05
1.91262731568e-05
1.91262342088e-05
1.91261994566e-05
1.91261736617e-05
1.91261712918e-05
1.91261968624e-05
1.9126230316e-05
1.91262659555e-05
1.91262981488e-05
1.91263232343e-05
1.91263385627e-05
1.91263422248e-05
1.91263335634e-05
1.91263133685e-05
1.9126283754e-05
1.91262481273e-05
1.91262109758e-05
1.91261783298e-05
1.91261544408e-05
1.912615707e-05
1.91261810898e-05
1.91262126971e-05
1.91262468782e-05
1.91262781767e-05
1.91263028361e-05
1.91263179534e-05
1.91263216044e-05
1.91263131062e-05
1.91262932927e-05
1.91262643162e-05
1.91262296174e-05
1.91261936543e-05
1.91261623747e-05
1.91261395484e-05
1.91261481905e-05
1.91261711098e-05
1.91262014984e-05
1.9126234495e-05