/*--------------------------------*- C++ -*----------------------------------*\
  =========                 |
  \\      /  F ield         | OpenFOAM: The Open Source CFD Toolbox
   \\    /   O peration     | Website:  https://openfoam.org
    \\  /    A nd           | Version:  7
     \\/     M anipulation  |
\*---------------------------------------------------------------------------*/
FoamFile
{
    version     2.0;
    format      ascii;
    class       volVectorField;
    location    "2.34";
    object      U;
}
// * * * * * * * * * * * * * * * * * * * * * * * * * * * * * * * * * * * * * //

dimensions      [0 1 -1 0 0 0 0];

internalField   nonuniform List<vector> 
22500
(
(1.98865238945e-05 2.19651943367e-05 0.000368421135577)
(1.87648852197e-05 2.45721422235e-05 0.000387290128062)
(1.66038160983e-05 2.73366902927e-05 0.000404702111412)
(1.40816274894e-05 2.97518471431e-05 0.000419769292853)
(1.1018662208e-05 3.17921761279e-05 0.000431973891961)
(7.57327883295e-06 3.33307212065e-05 0.000440943854964)
(3.84706859033e-06 3.42875240974e-05 0.000446430551312)
(-2.53161630417e-08 3.4611912752e-05 0.000448285329206)
(-3.89662070282e-06 3.42857000766e-05 0.000446428776058)
(-7.61979892172e-06 3.33275685453e-05 0.000440940429254)
(-1.10597186042e-05 3.17890149937e-05 0.000431969068939)
(-1.41147381121e-05 2.97499644948e-05 0.000419763739255)
(-1.66257913362e-05 2.73389164286e-05 0.000404696251675)
(-1.87747865613e-05 2.45786059216e-05 0.000387280789426)
(-1.98853407317e-05 2.1974409978e-05 0.00036838329275)
(5.71905328007e-05 6.34388934051e-05 0.000930779207785)
(5.37410014895e-05 7.08486197489e-05 0.000970429335137)
(4.76198870475e-05 7.85579278301e-05 0.00100670579662)
(4.02913575953e-05 8.53258786133e-05 0.00103779997212)
(3.15072170116e-05 9.10288387956e-05 0.00106275563027)
(2.16403369912e-05 9.53240297601e-05 0.00108096170772)
(1.09932274276e-05 9.79947374364e-05 0.00109204056393)
(-5.92508598154e-08 9.89005958837e-05 0.00109577104808)
(-1.11094348475e-05 9.79926138318e-05 0.00109203333117)
(-2.17499028594e-05 9.53208374914e-05 0.00108094796758)
(-3.16051214945e-05 9.10271691634e-05 0.00106273663737)
(-4.03719675028e-05 8.53281586004e-05 0.00103777824853)
(-4.76765773106e-05 7.85690402726e-05 0.00100668334497)
(-5.3771518088e-05 7.08677241689e-05 0.000970397630318)
(-5.71944244177e-05 6.34630557833e-05 0.000930683944563)
(8.41751709757e-05 9.33497054998e-05 0.00135928930657)
(7.86388401873e-05 0.000103590436434 0.00140911163739)
(6.94812931949e-05 0.000114164813304 0.00145436598887)
(5.85780380593e-05 0.00012341157837 0.00149285821863)
(4.56909415003e-05 0.000131171134467 0.00152351566014)
(3.13207273847e-05 0.000136998271984 0.00154574196232)
(1.5891333028e-05 0.000140615582026 0.0015592073607)
(-8.63505100545e-08 0.000141842555214 0.00156372721044)
(-1.60609736292e-05 0.000140616391886 0.00155919630089)
(-3.14813599163e-05 0.000137001178395 0.00154572118668)
(-4.58359141694e-05 0.000131179042422 0.00152348741878)
(-5.86997824915e-05 0.000123427257983 0.00149282656444)
(-6.95708739335e-05 0.000114192476786 0.00145433479225)
(-7.86928936514e-05 0.000103627503074 0.0014090703936)
(-8.41903497263e-05 9.33913116968e-05 0.00135916446596)
(0.000103511531818 0.000114702918583 0.00168749990568)
(9.61658171716e-05 0.000126384788626 0.00174080489413)
(8.46771045963e-05 0.000138418850478 0.0017888697872)
(7.11329060634e-05 0.000148867168623 0.00182944642954)
(5.53354761906e-05 0.000157598118055 0.00186151975597)
(3.78550629867e-05 0.0001641321163 0.00188462605988)
(1.91827101621e-05 0.00016818001835 0.00189856154608)
(-1.04305082561e-07 0.000169552353694 0.0019032255135)
(-1.93878071823e-05 0.000168183680678 0.00189854885504)
(-3.80497109748e-05 0.000164140741266 0.00188460264637)
(-5.55121127015e-05 0.000157614417868 0.00186148881643)
(-7.12831977844e-05 0.000148893790932 0.00182941334674)
(-8.47912338736e-05 0.000138458880753 0.00178884056331)
(-9.62400898192e-05 0.000126434316991 0.00174077043623)
(-0.000103540151172 0.00011475664489 0.00168738078461)
(0.000117059312701 0.000129630050678 0.00193885107664)
(0.000108185718485 0.000141785658961 0.00199139611856)
(9.49243160848e-05 0.000154325254988 0.00203843353766)
(7.94662837467e-05 0.000165125336907 0.00207784386673)
(6.16581346336e-05 0.000174111401451 0.00210875472182)
(4.20981644938e-05 0.000180813128058 0.00213087682052)
(2.13073239835e-05 0.000184956236295 0.00214415552259)
(-1.15933682527e-07 0.000186359921099 0.00214858706498)
(-2.15354074943e-05 0.0001849621465 0.00214414331285)
(-4.23149558209e-05 0.000180826134697 0.00213085495528)
(-6.18556233955e-05 0.000174133815609 0.0021087272723)
(-7.96359701238e-05 0.000165159391718 0.00207781748901)
(-9.50565564705e-05 0.000154373242478 0.0020384166179)
(-0.000108276799732 0.00014184257505 0.00199138264484)
(-0.000117101883727 0.000129691344178 0.00193876284677)
(0.00012587183639 0.000139293785039 0.00213051207801)
(0.00011574498104 0.000151192523783 0.0021796858349)
(0.000101188868043 0.000163529040858 0.00222341270966)
(8.44258391407e-05 0.000174066474016 0.00225977964504)
(6.5341225301e-05 0.000182795529537 0.00228808041231)
(4.45288280816e-05 0.000189283868917 0.00230819547731)
(2.25114846518e-05 0.000193286743696 0.00232020932036)
(-1.22913790927e-07 0.000194642023524 0.00232420752852)
(-2.27534209728e-05 0.000193294231484 0.00232019916385)
(-4.47591182161e-05 0.000189299852001 0.0023081782464)
(-6.55517744962e-05 0.000182821850989 0.0022880610259)
(-8.46083494606e-05 0.000174104851297 0.0022597661218)
(-0.000101334535262 0.000163581039313 0.00222341607129)
(-0.000115850384946 0.000151252578232 0.00217970335876)
(-0.000125927983203 0.000139358428571 0.00213046731148)
(0.000130779435587 0.000144594860445 0.00227547666649)
(0.00011966515967 0.000155698153535 0.00231979674143)
(0.000104231370138 0.000167311925495 0.00235900379097)
(8.66762198174e-05 0.00017715046585 0.00239139648446)
(6.69180425737e-05 0.000185264612507 0.0024164137592)
(4.55203122142e-05 0.000191277003439 0.00243407191678)
(2.29868778516e-05 0.000194978926117 0.00244456452093)
(-1.26546538003e-07 0.000196231479296 0.00244804697268)
(-2.32360814108e-05 0.000194987171952 0.00244455739871)
(-4.5757889939e-05 0.000191294328763 0.00243406123052)
(-6.71360769526e-05 0.000185292372139 0.00241640531122)
(-8.68668679219e-05 0.000177189905762 0.00239139982464)
(-0.000104386843073 0.000167363989083 0.00235903273521)
(-0.000119782651661 0.000155757304281 0.00231985101297)
(-0.000130848401301 0.000144658866385 0.00227547985117)
(0.000132528955658 0.000146355354663 0.00238379367406)
(0.00012067897491 0.000156295340813 0.00242256730685)
(0.000104726953418 0.000166827088714 0.00245679077939)
(8.68035805759e-05 0.000175677660116 0.00248493026515)
(6.68560142597e-05 0.000182945150976 0.00250651865577)
(4.53982328528e-05 0.000188315168971 0.00252165718161)
(2.29002357887e-05 0.000191615635974 0.00253060811521)
(-1.27862603582e-07 0.000192731639077 0.00253357143)
(-2.31521606974e-05 0.000191623802906 0.00253060448525)
(-4.56388459298e-05 0.000188332148777 0.00252165392431)
(-6.70777670654e-05 0.000182971896544 0.00250652252511)
(-8.69992152873e-05 0.000175715001623 0.00248495251238)
(-0.000104889783979 0.000166875566964 0.00245684798594)
(-0.000120806720284 0.000156349660524 0.00242266015162)
(-0.000132609767863 0.00014641503003 0.00238384375286)
(0.000131769071565 0.000145297834674 0.00246333963455)
(0.000119414030405 0.000153846585037 0.00249642061204)
(0.000103248310653 0.000163064539363 0.00252570314019)
(8.53008850313e-05 0.000170750360669 0.00254974428274)
(6.55452238246e-05 0.000177034709181 0.00256810264551)
(4.44326471079e-05 0.000181667587604 0.00258090684413)
(2.23892661373e-05 0.000184510701439 0.00258844493878)
(-1.27749859061e-07 0.000185471465562 0.00259093532861)
(-2.26411294039e-05 0.000184517965003 0.00258844483254)
(-4.46737255929e-05 0.000181682585185 0.00258091105296)
(-6.57684801317e-05 0.000177058096258 0.00256811892187)
(-8.54996983131e-05 0.000170782678739 0.00254978566764)
(-0.000103417022944 0.000163106116018 0.00252578873042)
(-0.000119550691284 0.000153892709771 0.00249655015817)
(-0.000131860663091 0.000145349830787 0.0024634312498)
(0.000129049922283 0.000142040789622 0.00252034088304)
(0.000116392871899 0.000149078823537 0.00254795278787)
(0.000100265895889 0.000156846557524 0.00257266386055)
(8.25694424942e-05 0.000163271510795 0.00259302658481)
(6.33005059334e-05 0.000168504142181 0.00260855361261)
(4.28399011765e-05 0.000172355456098 0.00261934700603)
(2.1563750226e-05 0.000174716348992 0.00262568197319)
(-1.26956939241e-07 0.000175513665123 0.00262777206183)
(-2.18142520766e-05 0.000174722003035 0.00262568502974)
(-4.30803154733e-05 0.000172367098713 0.00261935790303)
(-6.35243721045e-05 0.000168522205706 0.00260858105697)
(-8.27708036306e-05 0.000163296407262 0.00259308533825)
(-0.000100439954948 0.000156878581192 0.00257277508348)
(-0.00011653780775 0.000149114049969 0.002548113219)
(-0.000129151509767 0.000142082347275 0.00252046449722)
(0.000124836170934 0.000137114191879 0.00255976562327)
(0.000112046400334 0.000142599762939 0.00258238032337)
(9.61616755436e-05 0.000148847604206 0.00260308050749)
(7.89321008885e-05 0.000153971272287 0.00262031318418)
(6.03725582536e-05 0.000158130883099 0.00263348705732)
(4.07906168874e-05 0.000161190573422 0.00264263927736)
(2.05096734415e-05 0.000163065103955 0.00264800445896)
(-1.26111475292e-07 0.000163697693278 0.00264977391048)
(-2.07587525862e-05 0.000163068624479 0.00264800985347)
(-4.10304324623e-05 0.00016119783186 0.00264265506856)
(-6.05972551008e-05 0.000158142179041 0.00263352267289)
(-7.91363201891e-05 0.000153986982535 0.00262038481151)
(-9.63412837074e-05 0.000148868187884 0.00260321079859)
(-0.000112199453953 0.000142622180502 0.00258256093783)
(-0.000124947411163 0.000137143424017 0.00255990637785)
(0.000119517080072 0.000130975500314 0.00258566941851)
(0.000106726912584 0.000134909815021 0.00260393951623)
(9.12451535697e-05 0.000139609973303 0.00262127370912)
(7.46479711236e-05 0.000143430718796 0.002635930464)
(5.69594201435e-05 0.000146529481658 0.00264719721584)
(3.84174231207e-05 0.00014881053567 0.00265503870986)
(1.92931500518e-05 0.000150207692854 0.00265963849143)
(-1.25702146483e-07 0.000150678652397 0.00266115628226)
(-1.95417239408e-05 0.000150208790707 0.00265964474669)
(-3.86576434047e-05 0.000148812890451 0.00265505612481)
(-5.71860215327e-05 0.000146533252652 0.0026472353687)
(-7.48560983696e-05 0.000143436319616 0.00263600632972)
(-9.14310680124e-05 0.000139618102815 0.00262141093542)
(-0.00010688829104 0.000134918340966 0.00260412321199)
(-0.000119637996177 0.00013099099677 0.00258580515738)
(0.000113407414151 0.000123998304491 0.0026015693482)
(0.000100728198018 0.000126395431104 0.00261631252423)
(8.5776030887e-05 0.000129554028737 0.00263090318002)
(6.99283971824e-05 0.000132103735038 0.00264340804058)
(5.32165705611e-05 0.000134179419825 0.00265306151597)
(3.58211709687e-05 0.000135709422605 0.00265979516305)
(1.79635598015e-05 0.000136645567276 0.00266375175428)
(-1.26077977039e-07 0.000136960202554 0.0026650584108)
(-1.8213188632e-05 0.000136644277519 0.00266375651015)
(-3.60634130799e-05 0.000135706922588 0.00265980888697)
(-5.34467237557e-05 0.000134175750418 0.00265309279985)
(-7.01419382853e-05 0.000132099282566 0.00264347333079)
(-8.59693685038e-05 0.000129549726549 0.00263102686701)
(-0.000100898399343 0.000126389990059 0.00261647408582)
(-0.000113538210592 0.000123999652179 0.00260167115831)
(0.000106788404856 0.000116446876529 0.00261093121867)
(9.4348682998e-05 0.000117341527734 0.00262313536906)
(7.99912941287e-05 0.000118985645664 0.00263540445655)
(6.49424032609e-05 0.000120340744212 0.00264586734329)
(4.92583481698e-05 0.000121451126649 0.00265391137312)
(3.307265149e-05 0.00012226662342 0.00265951964364)
(1.6554881967e-05 0.00012276227324 0.00266281930561)
(-1.273726159e-07 0.000122927469127 0.00266390927706)
(-1.68074386988e-05 0.000122758953203 0.00266281928533)
(-3.33187870503e-05 0.000122259978204 0.0026595221908)
(-4.94938860632e-05 0.000121441099265 0.00265392209749)
(-6.51630064764e-05 0.000120327565467 0.00264589923736)
(-8.01931957625e-05 0.000118970214783 0.00263548152442)
(-9.4528240751e-05 0.000117323402938 0.00262323804156)
(-0.000106929705678 0.000116435150267 0.002610966254)
(0.000100045694455 0.000108575073269 0.00261796641559)
(8.79628242247e-05 0.000107379067647 0.00262861130981)
(7.40434968285e-05 0.000107804831295 0.00263833969956)
(5.97871682726e-05 0.000108123373499 0.00264632342671)
(4.51469820785e-05 0.000108384487276 0.00265234315166)
(3.02123782986e-05 0.000108566756669 0.00265651229323)
(1.50878900909e-05 0.000108672605393 0.00265896320126)
(-1.2955330977e-07 0.000108705980573 0.00265977159306)
(-1.5345106711e-05 0.000108667905205 0.00265895553135)
(-3.04640710772e-05 0.000108557298622 0.00265649691151)
(-4.53894857106e-05 0.000108370142532 0.00265232028198)
(-6.00163520619e-05 0.000108104141423 0.00264629740457)
(-7.42550844334e-05 0.00010778145029 0.00263833029301)
(-8.81514035537e-05 0.000107350817086 0.00262858514513)
(-0.000100198865746 0.000108552705848 0.00261793938542)
(6.13106712214e-07 8.44304218252e-07 0.000259614308285)
(5.25542404288e-07 1.03463701213e-06 0.000273297244781)
(5.25091303647e-07 1.16790886367e-06 0.000286137059854)
(4.73541388137e-07 1.30663687629e-06 0.000297406419361)
(3.88129670558e-07 1.43077173714e-06 0.000306614236886)
(2.7741335467e-07 1.52681305769e-06 0.000313416049345)
(1.49113994819e-07 1.58733756468e-06 0.000317589525658)
(1.22124334757e-08 1.60843596197e-06 0.000319004928231)
(-1.26144171049e-07 1.58851977589e-06 0.000317591800075)
(-2.58879570948e-07 1.52856461241e-06 0.000313420086264)
(-3.76753127706e-07 1.43214631552e-06 0.000306619111193)
(-4.69752228607e-07 1.30694520129e-06 0.000297410854137)
(-5.27613335176e-07 1.16561334719e-06 0.000286139288224)
(-5.32343230871e-07 1.03036674255e-06 0.000273290260077)
(-6.1935176636e-07 8.38113013563e-07 0.000259573256929)
(4.78313739938e-06 5.55053861741e-06 0.000728956844096)
(4.47743623509e-06 6.61733759572e-06 0.000764824063313)
(4.24600049626e-06 7.62329968156e-06 0.000798542443155)
(3.77575876969e-06 8.60405936689e-06 0.000828139638799)
(3.07220108496e-06 9.46434827186e-06 0.000852302823072)
(2.17371679963e-06 1.01310511667e-05 0.000870136207781)
(1.13379430688e-06 1.05526201006e-05 0.000881068513252)
(2.03381052256e-08 1.06976731917e-05 0.000884767573604)
(-1.09617839984e-06 1.05547153312e-05 0.000881074070531)
(-2.14529603928e-06 1.01341513475e-05 0.000870145945351)
(-3.0582367614e-06 9.46675616664e-06 0.000852314300728)
(-3.77724097318e-06 8.60440366921e-06 0.000828149619021)
(-4.25931030343e-06 7.61868112172e-06 0.000798546154491)
(-4.49754979321e-06 6.60851791322e-06 0.000764801830669)
(-4.79919084604e-06 5.53741633704e-06 0.000728849892587)
(1.08395382542e-05 1.21538705757e-05 0.00115079867396)
(1.02044134885e-05 1.43257317854e-05 0.00120421871502)
(9.5558456326e-06 1.64543533155e-05 0.0012544121912)
(8.43406997513e-06 1.8497503287e-05 0.00129840591331)
(6.82840814926e-06 2.02754065031e-05 0.00133425113302)
(4.81111069353e-06 2.16477799344e-05 0.00136065707227)
(2.49400438898e-06 2.25135231235e-05 0.00137681913549)
(2.01321023526e-08 2.28100530281e-05 0.00138227743883)
(-2.45743936662e-06 2.25147455495e-05 0.00137682738447)
(-4.78559659012e-06 2.16491476314e-05 0.00136067176508)
(-6.82016615907e-06 2.02753807039e-05 0.00133426909861)
(-8.44471938907e-06 1.84948920601e-05 0.00129842295239)
(-9.58100895616e-06 1.64464431482e-05 0.00125442161745)
(-1.02370386134e-05 1.43121616547e-05 0.00120419260541)
(-1.08652734965e-05 1.21344508362e-05 0.00115065251071)
(1.7614486637e-05 1.93885651313e-05 0.00152709586567)
(1.6530698975e-05 2.26569573498e-05 0.00159339721043)
(1.53474751072e-05 2.5865300869e-05 0.00165554723579)
(1.34578058656e-05 2.89197688444e-05 0.00170986823273)
(1.08444837771e-05 3.1560445114e-05 0.00175398875898)
(7.61250624534e-06 3.35899467798e-05 0.00178639822882)
(3.93016169264e-06 3.48666472547e-05 0.00180619009943)
(1.22138095471e-08 3.53026730518e-05 0.00181286165131)
(-3.90934856133e-06 3.48666903531e-05 0.00180620042785)
(-7.60240396101e-06 3.35891649038e-05 0.00178641727189)
(-1.08509677977e-05 3.15576909668e-05 0.00175401368066)
(-1.3482511354e-05 2.89141138636e-05 0.0017098952328)
(-1.53860077143e-05 2.58547299496e-05 0.00165556940796)
(-1.65750575111e-05 2.26399942709e-05 0.0015933829631)
(-1.76490454982e-05 1.93647283335e-05 0.00152694503349)
(2.43352825888e-05 2.64400094614e-05 0.00185806260664)
(2.27108693941e-05 3.06722267036e-05 0.00193259699552)
(2.09346013473e-05 3.47745595985e-05 0.00200221789248)
(1.8246622171e-05 3.86569789094e-05 0.00206284682136)
(1.46372562487e-05 4.19935891086e-05 0.00211189704788)
(1.02398308127e-05 4.45466001288e-05 0.00214779983727)
(5.26976336536e-06 4.61478797488e-05 0.00216966480578)
(3.90224903755e-10 4.66934031385e-05 0.00217702107789)
(-5.27209949688e-06 4.6146550253e-05 0.00216967716115)
(-1.02513171335e-05 4.45433409979e-05 0.00214782367279)
(-1.46627545094e-05 4.19876568746e-05 0.00211193079113)
(-1.82873886123e-05 3.86478148078e-05 0.00206288828027)
(-2.09865528734e-05 3.47609072361e-05 0.0020022616187)
(-2.27662931203e-05 3.06523238867e-05 0.00193261050365)
(-2.43782381007e-05 2.64125125726e-05 0.00185793599056)
(3.05275850412e-05 3.28364825318e-05 0.00214433180852)
(2.8304434864e-05 3.78366816189e-05 0.00222277472671)
(2.59167647002e-05 4.25832752686e-05 0.00229575384745)
(2.24561113565e-05 4.70524454028e-05 0.0023590573831)
(1.79330554231e-05 5.08702620256e-05 0.00241005293408)
(1.25033412617e-05 5.3777813732e-05 0.00244723420888)
(6.41665885972e-06 5.55956118148e-05 0.00246980976897)
(-1.29062366421e-08 5.62133945307e-05 0.00247739078615)
(-6.44488906578e-06 5.55927790639e-05 0.00246982441871)
(-1.25386057918e-05 5.37718337005e-05 0.00244726375576)
(-1.79789361082e-05 5.08607952594e-05 0.00241009772597)
(-2.2513370856e-05 4.70393838106e-05 0.00235911776504)
(-2.59816854897e-05 4.25660762118e-05 0.00229582717281)
(-2.83703944535e-05 3.78136336367e-05 0.00222282889069)
(-3.05789910748e-05 3.28056819252e-05 0.00214424873991)
(3.58862109637e-05 3.82914288383e-05 0.00238753840914)
(3.30415886217e-05 4.38322530503e-05 0.00246614901309)
(3.00553484944e-05 4.89532992383e-05 0.00253901295821)
(2.58878319807e-05 5.37510002986e-05 0.00260198860315)
(2.05782713013e-05 5.78229725943e-05 0.00265251136295)
(1.42986854367e-05 6.09084345455e-05 0.0026892053557)
(7.31870385918e-06 6.28306902541e-05 0.00271141789343)
(-2.62021098179e-08 6.34823266481e-05 0.00271886372555)
(-7.37278471709e-06 6.28263238653e-05 0.00271143510987)
(-1.43575973193e-05 6.08996343726e-05 0.00268924136515)
(-2.06443178149e-05 5.78097784089e-05 0.00265256881654)
(-2.59612467797e-05 5.37337267256e-05 0.00260207100094)
(-3.01328464943e-05 4.89321532449e-05 0.00253912131581)
(-3.31176524748e-05 4.38055464778e-05 0.00246625174908)
(-3.59463554866e-05 3.82574385526e-05 0.00238750945182)
(4.0233547329e-05 4.26510329638e-05 0.00259030640978)
(3.67776883031e-05 4.84972008302e-05 0.0026660780445)
(3.32312362201e-05 5.37340545923e-05 0.00273612934207)
(2.84504263343e-05 5.86132256635e-05 0.00279651502406)
(2.25072033189e-05 6.2724617523e-05 0.00284479217669)
(1.5583885969e-05 6.58226339097e-05 0.00287973360313)
(7.95583190033e-06 6.77452842562e-05 0.00290082658641)
(-3.873684117e-08 6.83952884192e-05 0.00290788595359)
(-8.03429807038e-06 6.7739411787e-05 0.00290084631909)
(-1.5665158959e-05 6.58110157192e-05 0.00287977601782)
(-2.25924459609e-05 6.27076203427e-05 0.00284486236252)
(-2.85393524882e-05 5.85915468279e-05 0.00279661993835)
(-3.33210087478e-05 5.37085617016e-05 0.0027362740525)
(-3.68637442469e-05 4.84663764471e-05 0.00266623081509)
(-4.03025668795e-05 4.26134223454e-05 0.00259033342553)
(4.34946369995e-05 4.5864953795e-05 0.00275602012731)
(3.94653867664e-05 5.1791565802e-05 0.00282672771957)
(3.54158645721e-05 5.69161209471e-05 0.00289206589657)
(3.01319906414e-05 6.16582517464e-05 0.00294833321929)
(2.37185436003e-05 6.56212383952e-05 0.00299321151832)
(1.63622576521e-05 6.85887928753e-05 0.00302560427444)
(8.33117768936e-06 7.04226859602e-05 0.00304511371316)
(-5.02187587016e-08 7.10408531276e-05 0.0030516345991)
(-8.43203469226e-06 7.04153991893e-05 0.003045135274)
(-1.64642310563e-05 6.85744823822e-05 0.00302565161591)
(-2.38218491424e-05 6.56004939711e-05 0.00299329207095)
(-3.02358630641e-05 6.16320812538e-05 0.00294845740416)
(-3.55177758963e-05 5.68858880101e-05 0.00289224282791)
(-3.95615431513e-05 5.17560713561e-05 0.00282692432861)
(-4.35726747917e-05 4.58230756478e-05 0.00275609582484)
(4.56729283119e-05 4.79595906964e-05 0.00288855944886)
(4.11283424069e-05 5.37633641992e-05 0.00295273631231)
(3.66447964887e-05 5.85866267333e-05 0.00301219827806)
(3.09755856385e-05 6.30095169073e-05 0.00306346400996)
(2.42548616196e-05 6.66695620848e-05 0.0031043112973)
(1.66676772548e-05 6.93908285468e-05 0.00313374094611)
(8.46344203936e-06 7.10647059295e-05 0.00315143571253)
(-6.06432223151e-08 7.16270952323e-05 0.00315734411279)
(-8.58470320335e-06 7.10561731604e-05 0.00315145746092)
(-1.6788747665e-05 6.93740987564e-05 0.003133789683)
(-2.43752112124e-05 6.66453319054e-05 0.00310439645488)
(-3.10940160415e-05 6.29789823925e-05 0.00306359920313)
(-3.67589290958e-05 5.85514758882e-05 0.00301239640655)
(-4.1234819792e-05 5.37227181477e-05 0.00295296158163)
(-4.57602090201e-05 4.79128047669e-05 0.00288866634391)
(4.68278135067e-05 4.90146618779e-05 0.00299209079767)
(4.18382438289e-05 5.45184267806e-05 0.00304897397612)
(3.69960401023e-05 5.88898076698e-05 0.00310202837807)
(3.10601133743e-05 6.28478120196e-05 0.00314791419301)
(2.41872543091e-05 6.60845689212e-05 0.00318447472872)
(1.65538541655e-05 6.84719250478e-05 0.00321078658443)
(8.38141755351e-06 6.99330906205e-05 0.00322658804187)
(-7.01260712867e-08 7.04222463276e-05 0.00323185987994)
(-8.52132573098e-06 6.99235949563e-05 0.00322660706655)
(-1.66926402303e-05 6.84532674921e-05 0.00321083046572)
(-2.43238407662e-05 6.60574303061e-05 0.00318455426405)
(-3.1192906977e-05 6.28133983082e-05 0.00314804565111)
(-3.71226404498e-05 5.88499273574e-05 0.00310222815178)
(-4.19553819504e-05 5.44724227169e-05 0.00304920227308)
(-4.69245555215e-05 4.89624840069e-05 0.00299219951514)
(4.70521854833e-05 4.91412551842e-05 0.00307096547005)
(4.16945229859e-05 5.41913741918e-05 0.00312044728924)
(3.65738542332e-05 5.79906525156e-05 0.00316706434996)
(3.04880648521e-05 6.13713054316e-05 0.00320751973214)
(2.36062398345e-05 6.40978176244e-05 0.00323973875325)
(1.60881227715e-05 6.60918358257e-05 0.00326289621116)
(8.12086185484e-06 6.73061502817e-05 0.00327678753014)
(-7.87819110567e-08 6.7711078941e-05 0.00328141746541)
(-8.27787017126e-06 6.72961067454e-05 0.00327679938606)
(-1.62433890563e-05 6.6072020389e-05 0.00326292567779)
(-2.3758311888e-05 6.40687580544e-05 0.00323979692957)
(-3.06350207559e-05 6.13340478282e-05 0.0032076246402)
(-3.67131513444e-05 5.79468781175e-05 0.00316723589527)
(-4.18226822434e-05 5.41405230114e-05 0.00312064142426)
(-4.71587190682e-05 4.90838693833e-05 0.00307103330105)
(4.64488612011e-05 4.84548104793e-05 0.00312976381286)
(4.08098947887e-05 5.29121811198e-05 0.00317237975948)
(3.5503105528e-05 5.60423845378e-05 0.00321286662241)
(2.93834365741e-05 5.87644924695e-05 0.00324794696402)
(2.26202974405e-05 6.09285830549e-05 0.00327577055169)
(1.53502097241e-05 6.24992085364e-05 0.00329570528017)
(7.72378271517e-06 6.34513825696e-05 0.00330763983437)
(-8.66396016563e-08 6.37676347616e-05 0.00331161047172)
(-7.89636022948e-06 6.34413282587e-05 0.00330763852436)
(-1.55206435621e-05 6.24792551031e-05 0.00329570734814)
(-2.27868855441e-05 6.08990390926e-05 0.00327578566015)
(-2.9543990716e-05 5.8726033316e-05 0.003247993181)
(-3.56548846277e-05 5.59963212969e-05 0.0032129678764)
(-4.09490204473e-05 5.2857798059e-05 0.00317249104014)
(-4.65651877385e-05 4.83933067303e-05 0.00312973856063)
(4.51344674733e-05 4.70545826467e-05 0.00317352348238)
(3.9330011917e-05 5.0844997076e-05 0.00321048728084)
(3.39520665542e-05 5.32021668551e-05 0.00324520181847)
(2.79047116911e-05 5.52109528005e-05 0.00327477218554)
(2.13621520083e-05 5.67903085957e-05 0.00329793582028)
(1.44345519403e-05 5.79305664697e-05 0.0033144112414)
(7.23907333318e-06 5.86193844214e-05 0.00332423547519)
(-9.36052201106e-08 5.88471023852e-05 0.00332749247965)
(-7.42546046513e-06 5.86099172153e-05 0.00332421406698)
(-1.46184352523e-05 5.79116630916e-05 0.00331437074589)
(-2.15416748741e-05 5.67620081267e-05 0.00329788174037)
(-2.80775253507e-05 5.51734523265e-05 0.00327471881257)
(-3.41152768131e-05 5.31561046017e-05 0.00324517624695)
(-3.94793163118e-05 5.07891947301e-05 0.00321045450481)
(-4.52603932596e-05 4.69903202492e-05 0.00317335220779)
(4.3195655655e-05 4.57083509919e-05 0.00320840255162)
(3.74516692426e-05 4.82936566682e-05 0.00324152590061)
(3.21116057681e-05 4.97125419429e-05 0.00327010500387)
(2.62201345696e-05 5.09360458802e-05 0.00329347650997)
(1.99672467869e-05 5.18850511412e-05 0.00331134334549)
(1.34351848608e-05 5.25668207024e-05 0.00332388077502)
(6.71494097092e-06 5.29765027149e-05 0.00333130057871)
(-9.94480861117e-08 5.31107805235e-05 0.00333374358122)
(-6.91285777717e-06 5.29683973153e-05 0.00333125385354)
(-1.36301669548e-05 5.25505593463e-05 0.00332378616015)
(-2.01572363226e-05 5.18604012905e-05 0.0033111991914)
(-2.64027097681e-05 5.0902735969e-05 0.00329328649523)
(-3.22839859878e-05 4.96704222435e-05 0.00326989410454)
(-3.76085568486e-05 4.82403595049e-05 0.00324125071865)
(-4.33309545151e-05 4.56458003522e-05 0.00320809061221)
(-8.56898094966e-08 -2.75738033307e-07 0.000190851597595)
(8.5327269719e-08 -4.29675561447e-07 0.00020121787779)
(2.18151915687e-07 -5.10817244271e-07 0.000211170341049)
(2.92437988832e-07 -5.30701709183e-07 0.000220089400099)
(2.97569151103e-07 -5.1227435083e-07 0.000227487356461)
(2.3633598203e-07 -4.78047447132e-07 0.000233009159773)
(1.26496690257e-07 -4.4872590071e-07 0.000236418422256)
(-8.91991986373e-09 -4.37878890583e-07 0.000237576643491)
(-1.43608762966e-07 -4.50253218721e-07 0.000236415201207)
(-2.51456900564e-07 -4.81038393334e-07 0.000233002866659)
(-3.10383633418e-07 -5.16787823992e-07 0.000227478025444)
(-3.04555594209e-07 -5.36995953397e-07 0.00022007634128)
(-2.29971133798e-07 -5.17789584697e-07 0.000211151281818)
(-9.61248240575e-08 -4.37631743987e-07 0.000201186965001)
(7.72352308268e-08 -2.82797150223e-07 0.000190789687588)
(9.68938274403e-08 -3.30612718439e-07 0.000557586771009)
(5.19125281319e-07 -6.19500905927e-07 0.000586754157414)
(8.48492203064e-07 -7.2470257507e-07 0.000614879422987)
(1.01281665661e-06 -6.76307028472e-07 0.000640145166214)
(9.82022687229e-07 -5.40210156427e-07 0.00066113744858)
(7.6441484823e-07 -3.82785007055e-07 0.000676824632267)
(4.07340525209e-07 -2.63129638212e-07 0.000686515238877)
(-2.38185804314e-08 -2.20074000169e-07 0.000689801971952)
(-4.5347432599e-07 -2.67400741713e-07 0.000686507162511)
(-8.06478606514e-07 -3.91251358471e-07 0.00067680876481)
(-1.01935682056e-06 -5.52972472506e-07 0.00066111353772)
(-1.04804613547e-06 -6.93621743339e-07 0.000640110778249)
(-8.82731332904e-07 -7.44254871787e-07 0.000614827637079)
(-5.5048025665e-07 -6.4156545971e-07 0.000586667242866)
(-1.21504174799e-07 -3.50981858982e-07 0.000557419167676)
(6.7972073535e-07 1.46700735905e-07 0.00090576478479)
(1.2711819981e-06 -1.07998738347e-07 0.000951685829284)
(1.72422184082e-06 -9.19664835854e-08 0.00099604330407)
(1.91379891232e-06 1.4049098354e-07 0.00103593095876)
(1.79220452256e-06 4.80848118486e-07 0.00106909034933)
(1.3728207588e-06 8.20154345478e-07 0.00109387673294)
(7.28938905081e-07 1.06402965727e-06 0.00110918751191)
(-3.49512241716e-08 1.15055639558e-06 0.00111437491697)
(-7.97151218843e-07 1.05771911159e-06 0.00110917609733)
(-1.43649635096e-06 8.07456585584e-07 0.00109385417291)
(-1.85057385322e-06 4.61422974987e-07 0.00106905590354)
(-1.96939958861e-06 1.14195611667e-07 0.00103588062154)
(-1.77817144686e-06 -1.22340384734e-07 0.00099596660825)
(-1.32120965372e-06 -1.41807366435e-07 0.00095155581797)
(-7.19304225716e-07 1.14074399125e-07 0.000905515513354)
(1.78904177164e-06 1.26773386151e-06 0.00123416416998)
(2.47835655406e-06 1.21678985746e-06 0.00129451365125)
(2.97826414656e-06 1.50598313131e-06 0.0013528113299)
(3.11467972603e-06 2.04788368511e-06 0.00140523343889)
(2.82513027014e-06 2.68857154055e-06 0.00144879835208)
(2.12904825113e-06 3.27661386428e-06 0.00148134764481)
(1.12480699304e-06 3.68383328472e-06 0.00150144271843)
(-4.48445718154e-08 3.82676294465e-06 0.00150824475)
(-1.21287914032e-06 3.67580040856e-06 0.00150142974635)
(-2.21279592246e-06 3.26039956105e-06 0.00148132190069)
(-2.9036773738e-06 2.66380179422e-06 0.00144875861051)
(-3.18990423687e-06 2.01458614794e-06 0.00140517463032)
(-3.05075717795e-06 1.46688061741e-06 0.0013527209301)
(-2.54581472093e-06 1.17310372262e-06 0.00129435858003)
(-1.84307483558e-06 1.22404667604e-06 0.00123386463826)
(3.32870436939e-06 2.89868140643e-06 0.00154079556225)
(4.04843515312e-06 3.16437716097e-06 0.00161287096556)
(4.52234540788e-06 3.82047086446e-06 0.00168240293986)
(4.53468326998e-06 4.74279113271e-06 0.00174486684705)
(4.01269575276e-06 5.73228036064e-06 0.00179671632846)
(2.98314998799e-06 6.59899905894e-06 0.0018354103842)
(1.56802079255e-06 7.1853235312e-06 0.00185927474231)
(-5.4483247054e-08 7.38955323266e-06 0.00186734483815)
(-1.67550385604e-06 7.17580351764e-06 0.00185926146332)
(-3.08664910158e-06 6.57982951002e-06 0.00183538407661)
(-4.1111781983e-06 5.70319411456e-06 0.00179667559601)
(-4.62920125238e-06 4.70396576261e-06 0.00174480637137)
(-4.61274121469e-06 3.77437483904e-06 0.00168230973597)
(-4.13228563705e-06 3.11227554638e-06 0.00161270808116)
(-3.39684204428e-06 2.84548308304e-06 0.00154047239459)
(5.16676450517e-06 4.87449660418e-06 0.00182337747891)
(5.85281956476e-06 5.51239137839e-06 0.00190415128007)
(6.23415623207e-06 6.56933012532e-06 0.00198188980982)