/*--------------------------------*- C++ -*----------------------------------*\
  =========                 |
  \\      /  F ield         | OpenFOAM: The Open Source CFD Toolbox
   \\    /   O peration     | Website:  https://openfoam.org
    \\  /    A nd           | Version:  7
     \\/     M anipulation  |
\*---------------------------------------------------------------------------*/
FoamFile
{
    version     2.0;
    format      ascii;
    class       volVectorField;
    location    "0.24";
    object      U;
}
// * * * * * * * * * * * * * * * * * * * * * * * * * * * * * * * * * * * * * //

dimensions      [0 1 -1 0 0 0 0];

internalField   nonuniform List<vector> 
22500
(
(-3.60558176462e-06 -3.98816308445e-06 -2.92074287117e-05)
(-3.41645628318e-06 -4.47909350199e-06 -3.07742781331e-05)
(-3.06115808622e-06 -4.99382920866e-06 -3.22807415313e-05)
(-2.61745497037e-06 -5.45630016712e-06 -3.36382482808e-05)
(-2.06220880862e-06 -5.85271981597e-06 -3.47714541136e-05)
(-1.42378061911e-06 -6.15493956705e-06 -3.56217745977e-05)
(-7.24694610889e-07 -6.34412731917e-06 -3.61484702393e-05)
(6.03698886383e-09 -6.40824917256e-06 -3.63270177523e-05)
(7.36637989974e-07 -6.34295259329e-06 -3.61456109542e-05)
(1.43534842801e-06 -6.15264479937e-06 -3.56160670037e-05)
(2.07317142273e-06 -5.84941489879e-06 -3.4762906245e-05)
(2.62763649837e-06 -5.45212778426e-06 -3.36268265623e-05)
(3.0703068752e-06 -4.98899727704e-06 -3.22662750385e-05)
(3.42477101453e-06 -4.47360781944e-06 -3.07560991866e-05)
(3.61192737603e-06 -3.98276383344e-06 -2.91835715682e-05)
(-1.05120729891e-05 -1.16322645309e-05 -8.6753693422e-05)
(-9.92310060954e-06 -1.30496097669e-05 -9.12874864486e-05)
(-8.90193983275e-06 -1.45226242907e-05 -9.56620856638e-05)
(-7.60339336575e-06 -1.58522074449e-05 -9.9614215909e-05)
(-5.99271897047e-06 -1.69907971832e-05 -0.000102920083513)
(-4.13783850257e-06 -1.7859232093e-05 -0.000105404815867)
(-2.10619776531e-06 -1.84032852791e-05 -0.000106945149395)
(1.782111364e-08 -1.85876484752e-05 -0.000107466270142)
(2.14145446296e-06 -1.83998529302e-05 -0.000106936259545)
(4.17197876388e-06 -1.78525268542e-05 -0.000105387082292)
(6.02507380412e-06 -1.69811336561e-05 -0.000102893548566)
(7.63342620345e-06 -1.58399988846e-05 -9.95788035575e-05)
(8.92902578901e-06 -1.45084753009e-05 -9.56173145051e-05)
(9.94733785033e-06 -1.30337020427e-05 -9.12314486462e-05)
(1.0530735292e-05 -1.16163108791e-05 -8.66817350339e-05)
(-1.62506629971e-05 -1.79372874832e-05 -0.000142110108302)
(-1.52591690056e-05 -2.00555332732e-05 -0.000149325455991)
(-1.36661109244e-05 -2.22372909724e-05 -0.000156295364587)
(-1.16472660402e-05 -2.42053523136e-05 -0.000162598608684)
(-9.16846692055e-06 -2.5885839988e-05 -0.000167875434849)
(-6.32422532009e-06 -2.71657954085e-05 -0.000171844008656)
(-3.21624703011e-06 -2.79669046067e-05 -0.00017430463756)
(2.9482475103e-08 -2.82381142292e-05 -0.000175135984386)
(3.27457959285e-06 -2.79614421395e-05 -0.000174289553608)
(6.38071191422e-06 -2.71551425267e-05 -0.000171813933385)
(9.22197856916e-06 -2.58705286515e-05 -0.000167830466694)
(1.16968501108e-05 -2.41861047242e-05 -0.000162538681433)
(1.37107353095e-05 -2.22151057412e-05 -0.000156219823639)
(1.52986312988e-05 -2.0030850032e-05 -0.000149231531676)
(1.628113727e-05 -1.79123338238e-05 -0.000141991157592)
(-2.09856904355e-05 -2.31071483383e-05 -0.000194691561592)
(-1.96085972339e-05 -2.57354138512e-05 -0.00020423033574)
(-1.75220066744e-05 -2.84233551306e-05 -0.000213444105506)
(-1.48977932103e-05 -3.0843101157e-05 -0.000221779909366)
(-1.17088435878e-05 -3.29033051962e-05 -0.000228760395697)
(-8.06677977989e-06 -3.44695836331e-05 -0.000234011188189)
(-4.09844370287e-06 -3.54486663676e-05 -0.000237266516166)
(4.02102938888e-08 -3.57797358366e-05 -0.000238365097426)
(4.17801812438e-06 -3.54414582228e-05 -0.000237245199636)
(8.1438729442e-06 -3.44555308271e-05 -0.00023396870902)
(1.17819194005e-05 -3.28831161036e-05 -0.000228696937401)
(1.49655222496e-05 -3.08177564876e-05 -0.000221695485926)
(1.75830086131e-05 -2.83941890971e-05 -0.000213338062881)
(1.96623428228e-05 -2.57030867703e-05 -0.000204099453551)
(2.10276699455e-05 -2.30742589814e-05 -0.000194527968267)
(-2.48365296977e-05 -2.72924887355e-05 -0.000244041794425)
(-2.31009749196e-05 -3.02661099295e-05 -0.000255499621956)
(-2.05888868974e-05 -3.3288194058e-05 -0.000266558049174)
(-1.74603588165e-05 -3.60022144115e-05 -0.000276562946548)
(-1.36983807925e-05 -3.83057688346e-05 -0.000284940856759)
(-9.42467321639e-06 -4.00534499487e-05 -0.000291242145088)
(-4.78326325419e-06 -4.11443165121e-05 -0.000295147660209)
(4.99915348719e-08 -4.15126967072e-05 -0.000296464226095)
(4.8822207014e-06 -4.11356464625e-05 -0.000295120118734)
(9.52061480026e-06 -4.00365432067e-05 -0.000291187297337)
(1.37894231392e-05 -3.82814681296e-05 -0.000284859014195)
(1.75448409214e-05 -3.59717013663e-05 -0.000276454298498)
(2.06651400838e-05 -3.32530672236e-05 -0.000266422140388)
(2.31681697974e-05 -3.02271939405e-05 -0.000255333093786)
(2.4889750402e-05 -2.7252658789e-05 -0.000243836009999)
(-2.7871763476e-05 -3.05754302644e-05 -0.000289833773558)
(-2.58108717307e-05 -3.37452728665e-05 -0.000302785963408)
(-2.2937393213e-05 -3.69482566738e-05 -0.000315271128286)
(-1.93984796869e-05 -3.98172473364e-05 -0.000326564731704)
(-1.51886332137e-05 -4.22439786256e-05 -0.000336019407106)
(-1.04342462883e-05 -4.40809375765e-05 -0.000343128394329)
(-5.2894558374e-06 -4.5225609424e-05 -0.000347532675204)
(5.88997426717e-08 -4.56115890362e-05 -0.000349015720447)
(5.4060836141e-06 -4.52157529894e-05 -0.000347498929193)
(1.05474205046e-05 -4.40617057412e-05 -0.000343061244031)
(1.52961816689e-05 -4.22163060197e-05 -0.000335919347971)
(1.9498458196e-05 -3.97824599902e-05 -0.000326432241149)
(2.30279057364e-05 -3.69081407012e-05 -0.000315106147794)
(2.58908364673e-05 -3.37007722658e-05 -0.000302585201557)
(2.79359978027e-05 -3.05296247345e-05 -0.000289587983502)
(-3.01564367692e-05 -3.30292063891e-05 -0.000331862356192)
(-2.78067971061e-05 -3.62622296901e-05 -0.000345886370832)
(-2.4633473729e-05 -3.95113818939e-05 -0.00035938585569)
(-2.07718129721e-05 -4.24133877978e-05 -0.000371593803806)
(-1.62284240647e-05 -4.48587180607e-05 -0.000381809824089)
(-1.11301011501e-05 -4.67051263144e-05 -0.000389487601632)
(-5.63491304872e-06 -4.7853533178e-05 -0.000394241627801)
(6.70418032531e-08 -4.82401276631e-05 -0.000395840497022)
(5.76770972536e-06 -4.78427522939e-05 -0.000394201684968)
(1.1259097514e-05 -4.66840714541e-05 -0.000389408192534)
(1.63512146468e-05 -4.48283730662e-05 -0.000381691692776)
(2.08862190586e-05 -4.23751683191e-05 -0.000371437836757)
(2.47374245987e-05 -3.94671899919e-05 -0.00035919257432)
(2.78989988783e-05 -3.62130917473e-05 -0.000345652658673)
(3.02315196963e-05 -3.29783506117e-05 -0.000331578419433)
(-3.17600823452e-05 -3.47310346883e-05 -0.000370029925529)
(-2.91596199081e-05 -3.79118287372e-05 -0.000384723504034)
(-2.57449571659e-05 -4.10915059282e-05 -0.000398849139614)
(-2.16413954968e-05 -4.39220886533e-05 -0.000411620164564)
(-1.68676797589e-05 -4.62970932751e-05 -0.000422301351765)
(-1.15476198439e-05 -4.80854144972e-05 -0.000430323177378)
(-5.83792714846e-06 -4.91953777344e-05 -0.000435286565691)
(7.45364394734e-08 -4.95683202889e-05 -0.000436953512943)
(5.98562686362e-06 -4.91839209174e-05 -0.000435240399121)
(1.16912576322e-05 -4.80630110278e-05 -0.000430231483345)
(1.70046689287e-05 -4.62647356621e-05 -0.000422165188827)
(2.17693684418e-05 -4.38812280916e-05 -0.000411440947616)
(2.58617134942e-05 -4.10440956078e-05 -0.000398628130392)
(2.92636719442e-05 -3.7858937747e-05 -0.000384457783271)
(3.18459159437e-05 -3.46759957493e-05 -0.00036970922177)
(-3.27528002982e-05 -3.57585511982e-05 -0.000404331756839)
(-2.99391035487e-05 -3.87893314691e-05 -0.000419327450776)
(-2.63379276643e-05 -4.18021162299e-05 -0.000433729297815)
(-2.20663183644e-05 -4.44733624514e-05 -0.000446746795018)
(-1.71546313221e-05 -4.67038770858e-05 -0.000457624780427)
(-1.1720942608e-05 -4.83781652376e-05 -0.000465785850381)
(-5.91613847635e-06 -4.94149431617e-05 -0.000470830158566)
(8.1499768003e-08 -4.97625269814e-05 -0.000472521406421)
(6.07770620946e-06 -4.94030494541e-05 -0.000470777690869)
(1.18782673934e-05 -4.83548690872e-05 -0.000465681737872)
(1.73049942879e-05 -4.6670139493e-05 -0.000457470453104)
(2.2207204607e-05 -4.44306168795e-05 -0.000446544303636)
(2.64670394059e-05 -4.17523042421e-05 -0.000433480778218)
(3.0054760891e-05 -3.87335254253e-05 -0.000419030125387)
(3.28493645233e-05 -3.5700140804e-05 -0.000403974993257)
(-3.32032814309e-05 -3.61881729646e-05 -0.000434844136628)
(-3.02122676228e-05 -3.89878083665e-05 -0.000449821896864)
(-2.64751770764e-05 -4.17527006989e-05 -0.000464198760592)
(-2.21024199563e-05 -4.41916747269e-05 -0.000477187507646)
(-1.71347493109e-05 -4.62170793932e-05 -0.000488025223201)
(-1.16822003805e-05 -4.77320846499e-05 -0.000496142249873)
(-5.88613714298e-06 -4.86677998913e-05 -0.000501151596749)
(8.80321776131e-08 -4.89806813408e-05 -0.000502827487502)
(6.06073765979e-06 -4.86557072739e-05 -0.00050109269213)
(1.18524547312e-05 -4.77083504935e-05 -0.000496025453622)
(1.72978526024e-05 -4.61825926556e-05 -0.000487852370454)
(2.2255748256e-05 -4.41477964802e-05 -0.000476961368768)
(2.66163568344e-05 -4.17012978588e-05 -0.000463922454875)
(3.03394175312e-05 -3.8929907534e-05 -0.000449492658992)
(3.33106465001e-05 -3.61271684639e-05 -0.00043445112149)
(-3.31781844831e-05 -3.60954176174e-05 -0.00046171758431)
(-3.00428944926e-05 -3.85971510827e-05 -0.000476418022031)
(-2.62160134865e-05 -4.10468788737e-05 -0.000490525847705)
(-2.18022958033e-05 -4.31938973588e-05 -0.000503253936309)
(-1.6850759134e-05 -4.49659516528e-05 -0.000513843882173)
(-1.14614974143e-05 -4.62862795508e-05 -0.000521752539153)
(-5.76344442685e-06 -4.70993652603e-05 -0.000526621709597)
(9.42083412651e-08 -4.73703717857e-05 -0.000528246029653)
(5.95039067952e-06 -4.7087320029e-05 -0.000526556179158)
(1.16440694226e-05 -4.62625793678e-05 -0.000521622660344)
(1.70261109446e-05 -4.49313744146e-05 -0.000513651883693)
(2.19677289025e-05 -4.31496728574e-05 -0.000503003350715)
(2.6369092335e-05 -4.09947337717e-05 -0.000490220878778)
(3.01815263642e-05 -3.85380070359e-05 -0.000476055741832)
(3.32965192245e-05 -3.60326129335e-05 -0.000461287004558)
(-3.27407860827e-05 -3.55545161936e-05 -0.000485177848752)
(-2.94911192096e-05 -3.77015719229e-05 -0.000499420633294)
(-2.56168508407e-05 -3.97795686804e-05 -0.000513079164096)
(-2.12160504666e-05 -4.15870335188e-05 -0.000525353325114)
(-1.63431514215e-05 -4.30691263816e-05 -0.000535509371993)
(-1.10871845276e-05 -4.41685620751e-05 -0.000543057305697)
(-5.56263114362e-06 -4.48432591351e-05 -0.000547687448164)
(1.00069679728e-07 -4.50672073656e-05 -0.000549226011628)
(5.76131727617e-06 -4.48315224389e-05 -0.000547615079753)
(1.12815380509e-05 -4.41454025677e-05 -0.000542913853973)
(1.65303284121e-05 -4.30351727341e-05 -0.000535297365084)
(2.1393311061e-05 -4.15433238041e-05 -0.000525077019572)
(2.57817038058e-05 -3.97276154254e-05 -0.000512743978543)
(2.96412545587e-05 -3.76421308121e-05 -0.00049902341711)
(3.28703202001e-05 -3.54908047895e-05 -0.000484707274076)
(-3.19483672204e-05 -3.46312003286e-05 -0.000505538481449)
(-2.86156953373e-05 -3.63728023517e-05 -0.000519254684409)
(-2.47343135516e-05 -3.80336362558e-05 -0.000532348137407)
(-2.03932673389e-05 -3.94667141083e-05 -0.000543996346444)
(-1.56511910545e-05 -4.06338820727e-05 -0.000553536621121)
(-1.0586375772e-05 -4.14949175396e-05 -0.000560571876618)
(-5.297552419e-06 -4.20208423204e-05 -0.000564864228237)
(1.05621461862e-07 -4.21943754577e-05 -0.000566282940662)
(5.50737723039e-06 -4.20096893221e-05 -0.000564784864044)
(1.07919677933e-05 -4.14728378882e-05 -0.000560414404662)
(1.58497483716e-05 -4.06013289498e-05 -0.00055330363117)
(2.05820396725e-05 -3.94244722067e-05 -0.000543692589759)
(2.4910755298e-05 -3.79829204839e-05 -0.00053198040593)
(2.87772708105e-05 -3.63141223756e-05 -0.000518820152869)
(3.20891861188e-05 -3.45677108411e-05 -0.000505025506585)
(-3.08656121411e-05 -3.3372675443e-05 -0.000523230653016)
(-2.74902080478e-05 -3.46766504087e-05 -0.000536529694376)
(-2.36324043904e-05 -3.58814157762e-05 -0.000548978124772)
(-1.93847001322e-05 -3.69200074784e-05 -0.000559806642137)
(-1.48133404016e-05 -3.775775021e-05 -0.000568526479344)
(-9.98516525519e-06 -3.83703200774e-05 -0.000574883457433)
(-4.98149137425e-06 -3.87417152659e-05 -0.000578732897556)
(1.10834010855e-07 -3.88630665282e-05 -0.000579995953526)
(5.20178918447e-06 -3.87314145829e-05 -0.000578646603701)
(1.0201367008e-05 -3.83498571785e-05 -0.00057471189338)
(1.50227181964e-05 -3.77273941188e-05 -0.000568271846039)
(1.95845245987e-05 -3.68802432666e-05 -0.000559473501906)
(2.38200847218e-05 -3.58330602299e-05 -0.000548574449334)
(2.76629937969e-05 -3.46198868132e-05 -0.000536054821883)
(3.10179150996e-05 -3.3310378499e-05 -0.000522674791226)
(-2.95988327106e-05 -3.19809921602e-05 -0.000538900309377)
(-2.62199276148e-05 -3.26190138702e-05 -0.000552197878203)
(-2.23701114378e-05 -3.33621615654e-05 -0.000563781812046)
(-1.82379927405e-05 -3.39912573898e-05 -0.00057350072508)
(-1.38669467799e-05 -3.44886682264e-05 -0.00058114808302)
(-9.3100268604e-06 -3.48462759984e-05 -0.000586641896018)
(-4.62831290526e-06 -3.50602562233e-05 -0.000589936760353)
(1.15658193457e-07 -3.51287779441e-05 -0.000591007140179)
(4.85831129386e-06 -3.50511794217e-05 -0.00058984430252)
(9.5360830312e-06 -3.48281833546e-05 -0.000586457571263)
(1.40864281628e-05 -3.44616616517e-05 -0.000580873155199)
(1.84482265956e-05 -3.39555273421e-05 -0.000573138284622)
(2.25684819019e-05 -3.33181302744e-05 -0.000563339885195)
(2.64030913836e-05 -3.25661372722e-05 -0.000551673910189)
(2.97631692651e-05 -3.19220661292e-05 -0.00053831435128)
(-5.51593511566e-09 -1.51399222445e-08 -3.55387254611e-05)
(3.19506534039e-09 -2.32763439816e-08 -3.74120903775e-05)
(9.1051058694e-09 -2.74748816412e-08 -3.91823044511e-05)
(1.23993213549e-08 -2.89459927017e-08 -4.07532339423e-05)
(1.25614683371e-08 -2.86154426651e-08 -4.20502290896e-05)
(9.92709353863e-09 -2.75094547687e-08 -4.30161082613e-05)
(5.21761341401e-09 -2.64905467634e-08 -4.36117166606e-05)
(-5.98581927993e-10 -2.61307574496e-08 -4.38135898397e-05)
(-6.3882219291e-09 -2.66345427239e-08 -4.36099353839e-05)
(-1.10202784108e-08 -2.78010399955e-08 -4.30125551507e-05)
(-1.35493261166e-08 -2.90658159056e-08 -4.20449124415e-05)
(-1.33170601202e-08 -2.95673522433e-08 -4.07461206456e-05)
(-1.00109778967e-08 -2.82578325978e-08 -3.91732209469e-05)
(-4.14599385859e-09 -2.42195370627e-08 -3.74003292841e-05)
(4.61885036247e-09 -1.60823268314e-08 -3.55219457446e-05)
(1.55077200517e-08 -6.65875220455e-09 -0.000101702684318)
(3.74652455632e-08 -2.05614792217e-08 -0.000106756302403)
(5.14077509706e-08 -2.46073275109e-08 -0.000111542400259)
(5.68538355631e-08 -2.20033942158e-08 -0.000115796213412)
(5.26802285441e-08 -1.55456009126e-08 -0.000119311446976)
(3.98712536692e-08 -8.33155495808e-09 -0.000121930977899)
(2.05946611321e-08 -2.94419555351e-09 -0.000123546495541)
(-2.15066805815e-09 -1.09569474011e-09 -0.000124092773487)
(-2.4830013261e-08 -3.39574931081e-09 -0.000123540813422)
(-4.39029969488e-08 -9.22608804781e-09 -0.000121919657358)
(-5.63822511394e-08 -1.68674516521e-08 -0.000119294541517)
(-6.01785328079e-08 -2.37197736012e-08 -0.000115773673714)
(-5.43641777413e-08 -2.66310865569e-08 -0.000111513783414)
(-4.00917969883e-08 -2.28055108926e-08 -0.000106719632408)
(-1.76556963166e-08 -8.80691164463e-09 -0.000101652529722)
(4.90847098851e-08 2.118414925e-08 -0.000162604105991)
(8.02300339007e-08 5.80508664952e-09 -0.000170309651169)
(9.93140007031e-08 4.29165173203e-09 -0.000177613183938)
(1.04643515139e-07 1.20105684719e-08 -0.000184110853605)
(9.46116723319e-08 2.47100157398e-08 -0.000189483779687)
(7.07931371115e-08 3.77115864742e-08 -0.000193489427457)
(3.66573308128e-08 4.71149382204e-08 -0.000195959895871)
(-2.99683831946e-09 5.03279157244e-08 -0.000196794090195)
(-4.25599212106e-08 4.64243813583e-08 -0.000195950287382)
(-7.64290951706e-08 3.63232314928e-08 -0.000193470290478)
(-9.98487500203e-08 2.26126832702e-08 -0.000189455217499)
(-1.09467200417e-07 9.21828046708e-09 -0.000184072821806)
(-1.03793792229e-07 9.12444918631e-10 -0.000177565066476)
(-8.44292009076e-08 1.99178475175e-09 -0.000170248588162)
(-5.27538259427e-08 1.73730284093e-08 -0.000162522414006)
(9.12941121476e-08 6.12744558589e-08 -0.000218480731559)
(1.27303312147e-07 4.72007769052e-08 -0.000228349824547)
(1.48352390243e-07 4.96243224876e-08 -0.000237705456589)
(1.51340355044e-07 6.27014868012e-08 -0.000246035845783)
(1.34388099731e-07 8.11144769842e-08 -0.000252928386283)
(9.95684147947e-08 9.90682360576e-08 -0.000258069022409)
(5.13983003719e-08 1.11782169307e-07 -0.000261239623346)
(-3.89914541209e-09 1.16095150649e-07 -0.000262309045588)
(-5.90911725512e-08 1.1088432015e-07 -0.00026122591585)
(-1.06958130382e-07 9.72647138308e-08 -0.000258041742745)
(-1.41330620192e-07 7.83956205304e-08 -0.000252887731963)
(-1.57811895134e-07 5.90889849568e-08 -0.000245981873872)
(-1.54415320751e-07 4.52428600984e-08 -0.000237637590122)
(-1.3300624697e-07 4.22466913198e-08 -0.000228264825385)
(-9.63196545326e-08 5.62210857854e-08 -0.000218369696944)
(1.29781537108e-07 9.89605072552e-08 -0.000269548632011)
(1.66943683138e-07 8.58871445285e-08 -0.000281128419748)
(1.87766472007e-07 9.07778231482e-08 -0.000292103365128)
(1.87638721539e-07 1.07030492419e-07 -0.00030188332189)
(1.64584892674e-07 1.28656174419e-07 -0.00030997999936)
(1.21027227209e-07 1.49282409914e-07 -0.000316021034252)
(6.21844154461e-08 1.63724170014e-07 -0.000319747141135)
(-4.80224012479e-09 1.6857965628e-07 -0.000321002749686)
(-7.16748761489e-08 1.6264882499e-07 -0.000319729178836)
(-1.30191031016e-07 1.47129501357e-07 -0.00031598532438)
(-1.73262407007e-07 1.25429285289e-07 -0.000309926890556)
(-1.95778936658e-07 1.02770812238e-07 -0.000301813088805)
(-1.95396207482e-07 8.56281610093e-08 -0.000292015693557)
(-1.74079158422e-07 8.00655332892e-08 -0.000281020054885)
(-1.36072116254e-07 9.29522648878e-08 -0.000269410073478)
(1.57355834796e-07 1.25579134837e-07 -0.000316017176359)
(1.92856147781e-07 1.11932320035e-07 -0.000328889274754)
(2.12140773657e-07 1.16747093427e-07 -0.000341084189558)
(2.09090168065e-07 1.33250367445e-07 -0.000351959759157)
(1.81796489846e-07 1.55105914462e-07 -0.000360968665582)
(1.3287300532e-07 1.75846961809e-07 -0.000367692678225)
(6.78710451585e-08 1.90298998954e-07 -0.000371840140826)
(-5.67819757895e-09 1.95102408532e-07 -0.000373236504217)
(-7.91085941023e-08 1.89081469446e-07 -0.000371817762042)
(-1.43769095306e-07 1.73416989621e-07 -0.000367648243465)
(-1.92174624446e-07 1.51483349963e-07 -0.000360902741326)
(-2.18864180863e-07 1.28497694378e-07 -0.0003518729643)
(-2.21293060655e-07 1.11024857013e-07 -0.000340976682444)
(-2.01361992636e-07 1.0546663602e-07 -0.000328758003515)
(-1.64859146499e-07 1.18847441631e-07 -0.000315852244757)
(1.71303196944e-07 1.37902513998e-07 -0.00035809118591)
(2.03261978683e-07 1.22106481645e-07 -0.000371871291015)
(2.2037032255e-07 1.24480119069e-07 -0.00038492093709)
(2.15090686233e-07 1.38669907277e-07 -0.000396568228581)
(1.85752760209e-07 1.58227602417e-07 -0.000406221587901)
(1.35025454914e-07 1.76958158528e-07 -0.000413428557889)
(6.84566737867e-08 1.90011402108e-07 -0.00041787371449)
(-6.51019945308e-09 1.94280457561e-07 -0.000419368937343)
(-8.13557648636e-08 1.88688628317e-07 -0.000417846742426)
(-1.47573551641e-07 1.74325131107e-07 -0.000413375075242)
(-1.97757221497e-07 1.54319521553e-07 -0.000406142449333)
(-2.26429720154e-07 1.33568337946e-07 -0.000396464523151)
(-2.30981875701e-07 1.18357957812e-07 -0.00038479347719)
(-2.1308385413e-07 1.15191875014e-07 -0.000371717328222)
(-1.79979547743e-07 1.30644552661e-07 -0.000357900490568)
(1.71580031595e-07 1.3591777868e-07 -0.000395972135415)
(1.98966655397e-07 1.16986599761e-07 -0.000410310315929)
(2.1373481115e-07 1.15297541675e-07 -0.000423884457782)
(2.07123717324e-07 1.25419465765e-07 -0.000436010367818)
(1.77864128547e-07 1.40952392798e-07 -0.000446064724844)
(1.28583059048e-07 1.56226515807e-07 -0.000453571839509)
(6.45467696401e-08 1.66928982482e-07 -0.000458201223127)
(-7.28484396087e-09 1.70343289952e-07 -0.000459756789377)
(-7.89944148006e-08 1.65538500456e-07 -0.000458169456323)
(-1.42674872727e-07 1.53464375454e-07 -0.000453508934381)
(-1.91393432895e-07 1.36865488215e-07 -0.000445971890158)
(-2.19936669471e-07 1.20104137719e-07 -0.000435889277903)
(-2.25727741538e-07 1.08932921351e-07 -0.00042373672628)
(-2.10046646567e-07 1.09796692621e-07 -0.000410133503749)
(-1.81399385876e-07 1.28313289054e-07 -0.000395755730265)
(1.59801885446e-07 1.21569302556e-07 -0.000429861186912)
(1.82262919149e-07 9.9318653493e-08 -0.000444443528522)
(1.94814095005e-07 9.28814812279e-08 -0.000458248612507)
(1.87771170784e-07 9.80853416581e-08 -0.000470591577406)
(1.60404241323e-07 1.08705291803e-07 -0.000480827535535)
(1.15240643962e-07 1.19766788015e-07 -0.000488468437661)
(5.70506120823e-08 1.27622171802e-07 -0.000493178076412)
(-7.99097814615e-09 1.30020816014e-07 -0.000494758561065)
(-7.29111386766e-08 1.26201020229e-07 -0.000493141278345)
(-1.30744589877e-07 1.16947661448e-07 -0.000488395657455)
(-1.75334386355e-07 1.04542867917e-07 -0.000480720388075)
(-2.0194798555e-07 9.2684266014e-08 -0.000470452417695)
(-2.08099768872e-07 8.64214654503e-08 -0.000458079968156)
(-1.94537570386e-07 9.20099002237e-08 -0.000444243198786)
(-1.70734163882e-07 1.13780275839e-07 -0.000429618474069)
(1.38601118528e-07 9.79762290057e-08 -0.000459964749761)
(1.56246494276e-07 7.30308035722e-08 -0.000474517375255)
(1.66809012189e-07 6.20624499324e-08 -0.000488299568526)
(1.60087019845e-07 6.22899326588e-08 -0.000500630223323)
(1.35996628067e-07 6.78180305588e-08 -0.000510851296972)
(9.69275915022e-08 7.44869329518e-08 -0.000518474373752)
(4.69951312238e-08 7.93793253265e-08 -0.000523168440921)
(-8.61891787938e-09 8.07343781833e-08 -0.000524741004922)
(-6.41136497472e-08 7.79638868694e-08 -0.000523126330786)
(-1.13693522099e-07 7.16809367948e-08 -0.000518391161744)
(-1.52186996177e-07 6.36791681948e-08 -0.000510729029906)
(-1.75503563143e-07 5.69241883821e-08 -0.000500472003475)
(-1.81288382452e-07 5.564339129e-08 -0.000488108921247)
(-1.69646009235e-07 6.57475047557e-08 -0.000474292201609)
(-1.50610342619e-07 9.01482243513e-08 -0.000459694311316)
(1.11110844724e-07 6.88290963907e-08 -0.000486503613353)
(1.24281074572e-07 4.24975585308e-08 -0.000500800908102)
(1.33025327254e-07 2.79088387421e-08 -0.000514351003123)
(1.2714622417e-07 2.36559213723e-08 -0.000526471915047)
(1.07258458267e-07 2.4408994914e-08 -0.000536501412375)
(7.55609463064e-08 2.69174868251e-08 -0.000543966355735)
(3.53981878596e-08 2.90076178342e-08 -0.000548554767778)
(-9.16143112942e-09 2.93882893309e-08 -0.00055008831476)
(-5.36054712402e-08 2.76324534052e-08 -0.000548507018495)
(-9.34246705056e-08 2.41916825905e-08 -0.000543872036088)
(-1.24554934573e-07 2.03877714779e-08 -0.000536362981935)
(-1.43666849647e-07 1.8440147198e-08 -0.000526293247951)
(-1.48590208483e-07 2.16581245092e-08 -0.000514136693947)
(-1.38729928484e-07 3.53736739925e-08 -0.000500548785279)
(-1.24157166608e-07 6.10937315192e-08 -0.000486203004407)
(8.05710633342e-08 3.79456370733e-08 -0.00050972747)
(8.9584210491e-08 1.20049431929e-08 -0.000523608253006)
(9.65045786062e-08 -4.94418081579e-09 -0.000536768200179)
(9.17530927233e-08 -1.29284595755e-08 -0.000548510077511)
(7.65864006213e-08 -1.63658007749e-08 -0.000558183843587)
(5.29044771267e-08 -1.75297930716e-08 -0.000565355342558)
(2.31980380265e-08 -1.78998479696e-08 -0.000569749845545)
(-9.61399666446e-09 -1.83597384555e-08 -0.000571213727858)
(-4.23156410435e-08 -1.92013445926e-08 -0.000569696101436)
(-7.16932749164e-08 -2.01122279899e-08 -0.000565249140032)
(-9.48275963804e-08 -2.01800451269e-08 -0.000558027958608)
(-1.09234834472e-07 -1.78873696532e-08 -0.00054830910506)
(-1.13038927649e-07 -1.09093122294e-08 -0.000536527900393)
(-1.04999116693e-07 5.16332042293e-09 -0.000523326304737)
(-9.46080460306e-08 3.04282090354e-08 -0.000509393160427)
(5.00418293022e-08 9.11553930746e-09 -0.000529937955647)
(5.49156246062e-08 -1.45094799251e-08 -0.000543338165075)
(5.98285832916e-08 -3.26883659825e-08 -0.00055600502196)
(5.63433435361e-08 -4.37172394694e-08 -0.000567212645407)
(4.61041939436e-08 -5.06780351085e-08 -0.000576364222383)
(3.05348084331e-08 -5.48947975403e-08 -0.000583101749319)
(1.12339085972e-08 -5.72795104476e-08 -0.000587210363839)
(-9.9749395047e-09 -5.84080619621e-08 -0.000588572667112)
(-3.10812880226e-08 -5.84771088815e-08 -0.00058715030048)
(-5.00736181116e-08 -5.72744846739e-08 -0.000582982890501)
(-6.51261151904e-08 -5.42022495615e-08 -0.000576189432485)
(-7.46416388068e-08 -4.83188053949e-08 -0.000566987020329)
(-7.72123860894e-08 -3.82603784677e-08 -0.000555735618398)
(-7.12046671262e-08 -2.09597687551e-08 -0.000543022963731)
(-6.50060118288e-08 1.94045500972e-09 -0.000529566252759)
(2.1983034574e-08 -1.35102788414e-08 -0.000547524780419)
(2.23209059111e-08 -3.32883058941e-08 -0.00056054899154)
(2.51375483193e-08 -5.22531503556e-08 -0.000572653969453)
(2.3074590367e-08 -6.59585418018e-08 -0.000583147800711)
(1.77215721571e-08 -7.58567672594e-08 -0.000591583585119)
(9.85897371204e-09 -8.25240006268e-08 -0.000597728425753)
(2.47886002459e-10 -8.64872002083e-08 -0.000601449516831)
(-1.02474323454e-08 -8.81197315922e-08 -0.000602675405804)
(-2.06487058758e-08 -8.75553889086e-08 -0.000601382985517)
(-2.99767980652e-08 -8.46513472664e-08 -0.000597596421406)
(-3.73633194461e-08 -7.90212381023e-08 -0.000591388635262)
(-4.20464782967e-08 -7.01192099116e-08 -0.000582894875763)
(-4.32539617971e-08 -5.73439572649e-08 -0.000572351261833)
(-3.93917658081e-08 -3.92675950337e-08 -0.000560196472373)
(-3.78130107586e-08 -2.02776430696e-08 -0.000547113503201)
(-3.28387591187e-09 -2.65538658441e-08 -0.000563091647695)
(-7.09615827332e-09 -4.24750722451e-08 -0.000576152117804)
(-5.84278444213e-09 -6.24965453648e-08 -0.000587488970257)
(-6.28809468638e-09 -7.82097405063e-08 -0.000596987538153)
(-7.04541901758e-09 -9.02122851629e-08 -0.000604457996307)
(-8.04486320182e-09 -9.86149288099e-08 -0.000609824258794)
(-9.20712197786e-09 -1.03694235363e-07 -0.000613044285749)
(-1.04363533166e-08 -1.0566243251e-07 -0.000614095792542)
(-1.15830882431e-08 -1.0460014426e-07 -0.000612971774186)
(-1.24950188323e-08 -1.00426733448e-07 -0.000609679896075)
(-1.30712586284e-08 -9.29273470253e-08 -0.000604243439266)
(-1.32304588004e-08 -8.1821106509e-08 -0.000596706429757)
(-1.29096231271e-08 -6.69886265825e-08 -0.000587149662544)
(-1.06734362589e-08 -4.78840089801e-08 -0.000575753008597)
(-1.34170111318e-08 -3.28277208175e-08 -0.000562650681773)
(7.86066701379e-09 1.43532415645e-08 -3.27514147283e-05)
(3.38815519304e-09 1.97721126612e-08 -3.44936750841e-05)
(7.13394761844e-10 2.29860190969e-08 -3.61473865911e-05)
(-1.11846452206e-09 2.49735275134e-08 -3.76217776268e-05)
(-1.90532441132e-09 2.60882897346e-08 -3.88425365981e-05)
(-1.79420092194e-09 2.66284752871e-08 -3.97534300808e-05)
(-1.03723192264e-09 2.68458572482e-08 -4.03157309078e-05)
(5.55196251781e-11 2.69106232466e-08 -4.05062593033e-05)
(1.13666424614e-09 2.6885635724e-08 -4.03135303722e-05)
(1.86127667011e-09 2.67149540277e-08 -3.97490422517e-05)
(1.94247301487e-09 2.62345448331e-08 -3.88359796612e-05)
(1.1855763992e-09 2.51922157134e-08 -3.76130404264e-05)
(-5.85938492497e-10 2.32441676023e-08 -3.61363261705e-05)
(-3.1945537822e-09 2.00796724752e-08 -3.44796057148e-05)
(-7.63440352472e-09 1.46452739207e-08 -3.2731924163e-05)
(1.63061417092e-08 3.3912968757e-08 -9.42652333831e-05)
(4.91268744303e-09 4.60655468057e-08 -9.90192013543e-05)
(-1.91142038556e-09 5.31055671398e-08 -0.000103545885722)
(-5.96708034059e-09 5.70696852249e-08 -0.000107589266326)
(-7.11225535062e-09 5.89029043388e-08 -0.000110941688573)
(-5.80934940402e-09 5.94820558906e-08 -0.00011344565657)
(-2.72340459038e-09 5.95275315468e-08 -0.000114991926241)
(1.29518036549e-09 5.95131149397e-08 -0.00011551469276)
(5.25786809246e-09 5.96063040579e-08 -0.000114985084662)
(8.16641697136e-09 5.96329330929e-08 -0.000113432022432)
(9.17142092773e-09 5.91086052055e-08 -0.000110921334009)
(7.66057403012e-09 5.73038272825e-08 -0.000107562189478)
(3.15552883365e-09 5.32503117502e-08 -0.000103511713066)
(-4.15965519307e-09 4.61012315309e-08 -9.89759972839e-05)
(-1.59953048939e-08 3.37603061451e-08 -9.42074197965e-05)
(2.11417488053e-08 4.42858837883e-08 -0.000151330469058)
(3.92726450066e-09 6.06004837331e-08 -0.000158641562406)
(-6.83217321937e-09 7.0079584971e-08 -0.000165613400048)
(-1.29636520258e-08 7.51630542521e-08 -0.000171848796791)
(-1.43085296675e-08 7.71955027533e-08 -0.000177023649484)
(-1.16031542604e-08 7.75252313621e-08 -0.000180891465848)
(-5.93924574493e-09 7.72475601407e-08 -0.00018328044409)
(1.27891000543e-09 7.71053791906e-08 -0.000184087010114)
(8.44242091924e-09 7.73655638476e-08 -0.000183268886956)
(1.3943744098e-08 7.77699158293e-08 -0.000180868448028)
(1.64079972943e-08 7.75794725844e-08 -0.00017698931985)
(1.48210190226e-08 7.56769990426e-08 -0.000171803205679)
(8.42747440574e-09 7.06077847101e-08 -0.000165556064663)
(-2.62592257786e-09 6.11073571132e-08 -0.000158569721157)
(-2.02059807269e-08 4.46518790157e-08 -0.0001512362813)
(1.61813200663e-08 4.21273904054e-08 -0.000204107878294)
(-5.12733418207e-09 5.90904598068e-08 -0.00021354870694)
(-1.83215213085e-08 6.81501081582e-08 -0.000222557766292)
(-2.50372754739e-08 7.21132932944e-08 -0.000230624066645)
(-2.51553002416e-08 7.26600508064e-08 -0.000237324217809)
(-1.9689632676e-08 7.15796190099e-08 -0.000242335090494)
(-1.01443086684e-08 7.03090623266e-08 -0.000245430630892)
(1.54752007985e-09 6.98195989115e-08 -0.00024647464664)
(1.31820545066e-08 7.04568882721e-08 -0.000245414251421)
(2.25615375919e-08 7.18836894761e-08 -0.000242302494471)
(2.7788352868e-08 7.31330049839e-08 -0.000237275673534)