/*--------------------------------*- C++ -*----------------------------------*\
  =========                 |
  \\      /  F ield         | OpenFOAM: The Open Source CFD Toolbox
   \\    /   O peration     | Website:  https://openfoam.org
    \\  /    A nd           | Version:  7
     \\/     M anipulation  |
\*---------------------------------------------------------------------------*/
FoamFile
{
    version     2.0;
    format      ascii;
    class       volVectorField;
    location    "1.62";
    object      U;
}
// * * * * * * * * * * * * * * * * * * * * * * * * * * * * * * * * * * * * * //

dimensions      [0 1 -1 0 0 0 0];

internalField   nonuniform List<vector> 
22500
(
(-1.21143157601e-05 -1.35962582189e-05 -3.12686299692e-05)
(-1.12927757245e-05 -1.54339888755e-05 -3.28343475137e-05)
(-9.99630977915e-06 -1.72552493281e-05 -3.43245090214e-05)
(-8.45167066097e-06 -1.88455521146e-05 -3.5702092063e-05)
(-6.59985291731e-06 -2.01735959916e-05 -3.68810658853e-05)
(-4.52939794414e-06 -2.11674137696e-05 -3.7782026585e-05)
(-2.30041033722e-06 -2.17824290776e-05 -3.8347290195e-05)
(1.06121074014e-08 -2.19902623214e-05 -3.85404830829e-05)
(2.32135169066e-06 -2.17802996519e-05 -3.83410241569e-05)
(4.54950900133e-06 -2.1163279864e-05 -3.77695207459e-05)
(6.61864556297e-06 -2.01676992031e-05 -3.68623781703e-05)
(8.46875345904e-06 -1.88382449088e-05 -3.56773154412e-05)
(1.00112960287e-05 -1.72469633062e-05 -3.42937398177e-05)
(1.13057651259e-05 -1.54250451543e-05 -3.279764124e-05)
(1.21243627031e-05 -1.35876377461e-05 -3.12263223798e-05)
(-3.59052370206e-05 -4.01774487729e-05 -0.000138929405535)
(-3.3399961956e-05 -4.55266400285e-05 -0.000148008725645)
(-2.96170963599e-05 -5.08146926336e-05 -0.000156680458096)
(-2.50281724518e-05 -5.54554874151e-05 -0.000164575755322)
(-1.95598425553e-05 -5.93290848494e-05 -0.000171252443711)
(-1.34288576624e-05 -6.22301803281e-05 -0.000176318895058)
(-6.82311805541e-06 -6.40271913395e-05 -0.000179482283263)
(2.88978441104e-08 -6.46343893684e-05 -0.000180557718129)
(6.88019187596e-06 -6.40209757194e-05 -0.000179462827385)
(1.34838233201e-05 -6.22180819284e-05 -0.000176280089621)
(1.96114664756e-05 -5.93117600595e-05 -0.000171194523154)
(2.50754772704e-05 -5.54338899742e-05 -0.000164499088436)
(2.96591686001e-05 -5.07900378111e-05 -0.000156585463209)
(3.34366669986e-05 -4.54999547669e-05 -0.000147895717434)
(3.59341849962e-05 -4.0151241541e-05 -0.00013879946792)
(-5.74509424044e-05 -6.40176553154e-05 -0.000284021246822)
(-5.32322608571e-05 -7.23642095541e-05 -0.000303661261073)
(-4.71615248201e-05 -8.0542455921e-05 -0.000322342176768)
(-3.97883238511e-05 -8.77153405128e-05 -0.000339210529653)
(-3.10691516688e-05 -9.36834616374e-05 -0.000353376957842)
(-2.13162863305e-05 -9.81465336463e-05 -0.000364073938176)
(-1.08266934369e-05 -0.000100908432582 -0.000370730079478)
(4.48937160717e-08 -0.000101841195748 -0.000372987358617)
(1.09154147347e-05 -0.000100899051133 -0.000370698554866)
(2.14018851848e-05 -9.81282560962e-05 -0.00036401100658)
(3.11497530253e-05 -9.36572462729e-05 -0.000353282895403)
(3.98623775981e-05 -8.76825845795e-05 -0.000339085791894)
(4.72275942056e-05 -8.05049800316e-05 -0.000322187296045)
(5.32897956272e-05 -7.23236034156e-05 -0.000303476541264)
(5.74966371612e-05 -6.39773795173e-05 -0.000283808047056)
(-7.65568954004e-05 -8.5008357614e-05 -0.000456696292286)
(-7.06730169954e-05 -9.57795938988e-05 -0.000488234384195)
(-6.25101011748e-05 -0.000106240016128 -0.000517999237604)
(-5.26297841054e-05 -0.000115392815134 -0.000544646433847)
(-4.10431833223e-05 -0.000122981636727 -0.000566863978567)
(-2.81321802642e-05 -0.00012864447984 -0.000583549062969)
(-1.42812151986e-05 -0.000132143951831 -0.000593892001167)
(5.68553795055e-08 -0.000133324957044 -0.000597391434373)
(1.43936693237e-05 -0.000132132327762 -0.000593850167627)
(2.82409463303e-05 -0.000128621797675 -0.000583465447116)
(4.11460022384e-05 -0.000122949019048 -0.000566738745146)
(5.27247210235e-05 -0.000115351907016 -0.000544479913358)
(6.25953413491e-05 -0.000106193007363 -0.000517791844827)
(7.07475792347e-05 -9.57284133334e-05 -0.000487986118947)
(7.66169355819e-05 -8.49570318519e-05 -0.000456408173759)
(-9.30848587783e-05 -0.000103079361938 -0.000646139409958)
(-8.56354021139e-05 -0.000115674505979 -0.000689275438876)
(-7.55827501217e-05 -0.000127797314459 -0.000729574462391)
(-6.34902608259e-05 -0.000138370864987 -0.000765322770045)
(-4.94339048565e-05 -0.000147104230405 -0.000794900742017)
(-3.38440746602e-05 -0.000153605448967 -0.000816983841086)
(-1.71701231473e-05 -0.000157616595988 -0.000830617626655)
(6.53277318995e-08 -0.000158969200364 -0.000835219712869)
(1.72994464891e-05 -0.000157603615673 -0.000830567638326)
(3.39694781234e-05 -0.000153580077685 -0.000816883781774)
(4.95529401399e-05 -0.000147067642037 -0.000794750528186)
(6.36007604438e-05 -0.000138324788735 -0.000765122413907)
(7.56826444427e-05 -0.000127744084154 -0.000729324039413)
(8.57233346386e-05 -0.000115616182557 -0.000688974359185)
(9.31567351298e-05 -0.000103020171282 -0.000645787806958)
(-0.000106935087486 -0.000118165118965 -0.00084217638146)
(-9.80529004516e-05 -0.000131974420458 -0.000895376275615)
(-8.6329020867e-05 -0.000145150419942 -0.00094450908541)
(-7.23384598922e-05 -0.000156599424149 -0.000987685236697)
(-5.62226422335e-05 -0.000166017749514 -0.00102313274744)
(-3.84421017682e-05 -0.000173011404743 -0.00104944199386)
(-1.94890157958e-05 -0.000177319212565 -0.00106561884753)
(7.10170489502e-08 -0.000178770677997 -0.0010710667604)
(1.96297163701e-05 -0.000177305596278 -0.00106556273804)
(3.85788668842e-05 -0.000172984746478 -0.0010493295307)
(5.6352968985e-05 -0.000165979196754 -0.00102296353934)
(7.24600679196e-05 -0.000156550678412 -0.000987458891057)
(8.6439699718e-05 -0.000145093799225 -0.000944225231628)
(9.81510090775e-05 -0.000131911971429 -0.000895033552826)
(0.000107016481647 -0.000118100975688 -0.000841773652204)
(-0.00011810662502 -0.000130284256582 -0.00103635046737)
(-0.000107944978908 -0.000144719175605 -0.00109737702378)
(-9.47821258412e-05 -0.000158378905891 -0.00115306792492)
(-7.92175544123e-05 -0.00017019815168 -0.0012015604132)
(-6.14522288303e-05 -0.000179880906946 -0.00124107650623)
(-4.19602327508e-05 -0.000187053346776 -0.00127023961817)
(-2.12562580558e-05 -0.000191464139676 -0.0012881015087)
(7.4695609587e-08 -0.000192949146478 -0.00129410364248)
(2.14043564796e-05 -0.00019145043653 -0.00128804090089)
(4.21045045686e-05 -0.000187026475287 -0.00127011801244)
(6.15902015936e-05 -0.000179841938444 -0.00124089323117)
(7.93469217077e-05 -0.00017014868775 -0.00120131470905)
(9.49006315006e-05 -0.000158321142528 -0.00115275900928)
(0.000108050783281 -0.000144655048112 -0.00109700270971)
(0.000118195657344 -0.000130217600367 -0.00103590815193)
(-0.000126686943 -0.000139538049977 -0.00122238700631)
(-0.00011540927268 -0.000154053627274 -0.00128878789497)
(-0.000101046493651 -0.000167684812411 -0.00134867838952)
(-8.42310889325e-05 -0.000179424555923 -0.00140038710893)
(-6.52132439498e-05 -0.000189002511576 -0.00144223577341)
(-4.4465444322e-05 -0.000196080997597 -0.00147295960646)
(-2.25070854955e-05 -0.000200427496286 -0.00149171006084)
(7.70895790253e-08 -0.000201889791096 -0.00149799782325)
(2.26600317377e-05 -0.000200414096252 -0.00149164608085)
(4.46147308801e-05 -0.000196054678454 -0.00147283115534)
(6.53564751667e-05 -0.000188964239101 -0.00144204198873)
(8.43659875112e-05 -0.00017937578846 -0.00140012699358)
(0.000101170823536 -0.000167627560011 -0.0013483508927)
(0.000115521064877 -0.000153989657952 -0.00128839004334)
(0.000126782259856 -0.000139470773249 -0.00122191472375)
(-0.000132821739153 -0.000146083064262 -0.00139616905399)
(-0.000120593923687 -0.000160189406798 -0.00146563183179)
(-0.000105270198011 -0.000173341884919 -0.00152760879612)
(-8.75176413872e-05 -0.000184612157269 -0.00158072056243)
(-6.76225220823e-05 -0.000193770166892 -0.00162344254953)
(-4.60420663861e-05 -0.000200524253412 -0.00165466036628)
(-2.32853894277e-05 -0.000204666028736 -0.00167365045259)
(7.87969542159e-08 -0.000206058505661 -0.00168000639843)
(2.34418154644e-05 -0.000204653194808 -0.00167358377919)
(4.61950168075e-05 -0.000200499004384 -0.00165452648151)
(6.7769697809e-05 -0.000193733345978 -0.00162324051226)
(8.76568241344e-05 -0.00018456505435 -0.00158044930901)
(0.000105399208896 -0.000173286287976 -0.00152726720422)
(0.000120710712602 -0.000160126881348 -0.00146521621819)
(0.000132922513837 -0.000146016548811 -0.00139567400656)
(-0.000136690475067 -0.000150109681832 -0.00155541393687)
(-0.000123675371744 -0.000163374957988 -0.00162597242843)
(-0.000107624411086 -0.000175657459273 -0.00168833401719)
(-8.92329372604e-05 -0.00018612596129 -0.00174143829052)
(-6.88084401389e-05 -0.000194600735857 -0.00178392195163)
(-4.6781224358e-05 -0.000200839898406 -0.00181483196875)
(-2.36382072617e-05 -0.000204661464101 -0.00183357822249)
(8.02549241855e-08 -0.000205945446879 -0.00183984110679)
(2.37976126178e-05 -0.00020464937092 -0.00183350920054)
(4.69373351788e-05 -0.00020081606362 -0.00181469338484)
(6.89590588012e-05 -0.000194565869487 -0.00178371288515)
(8.9375917009e-05 -0.000186081167101 -0.00174115777531)
(0.000107757644693 -0.00017560428206 -0.00168798106029)
(0.000123796754372 -0.000163314735063 -0.00162554269304)
(0.000136796346183 -0.000150044889426 -0.00155490086589)
(-0.000138488733939 -0.000151828789316 -0.00169922563977)
(-0.000124842445652 -0.000163873601026 -0.00176935060999)
(-0.000108289997596 -0.000174945938105 -0.00183085588552)
(-8.95387584547e-05 -0.000184333756803 -0.00188294931291)
(-6.89018226571e-05 -0.000191909967863 -0.00192440784096)
(-4.67742759291e-05 -0.000197479706974 -0.00195444344402)
(-2.36122831288e-05 -0.000200887570653 -0.00197260491213)
(8.17433163392e-08 -0.000202031733392 -0.00197866122273)
(2.3774724966e-05 -0.000200876341201 -0.00197253368303)
(4.69335949262e-05 -0.000197457528979 -0.00195430046411)
(6.90559220057e-05 -0.00019187740968 -0.00192419226622)
(8.96855669292e-05 -0.000184291721281 -0.0018826603944)
(0.000108427479953 -0.000174895709134 -0.00183049294131)
(0.000124968457782 -0.000163816261574 -0.00176890866832)
(0.000138599720237 -0.000151766394635 -0.00169869709028)
(-0.000138411617019 -0.0001514575222 -0.00182764336343)
(-0.000124285629569 -0.000161941443758 -0.00189627755039)
(-0.000107451012414 -0.000171509410721 -0.00195613506284)
(-8.8597237185e-05 -0.000179589704883 -0.00200656058213)
(-6.8030509566e-05 -0.000186096719508 -0.00204645729431)
(-4.61086314384e-05 -0.000190874127625 -0.00207522348685)
(-2.32518413968e-05 -0.000193793307505 -0.00209256060433)
(8.34078816347e-08 -0.000194772413336 -0.00209833044888)
(2.34176683191e-05 -0.00019378304054 -0.00209248723412)
(4.62714980755e-05 -0.000190853802438 -0.00207507622657)
(6.81884178476e-05 -0.000186066757812 -0.00204623536175)
(8.87481927923e-05 -0.00017955079336 -0.0020062634828)
(0.000107593046576 -0.000171462552371 -0.00195576259383)
(0.000124416566253 -0.000161887441919 -0.00189582419048)
(0.000138527993357 -0.000151398075956 -0.00182710029387)
(-0.000136639558983 -0.000149176106217 -0.00194124682733)
(-0.000122204423199 -0.000157801203477 -0.00200787384464)
(-0.000105300378792 -0.000165630014748 -0.00206570359211)
(-8.65696621203e-05 -0.000172233745611 -0.0021140422518)
(-6.63156270207e-05 -0.000177543001812 -0.00215198739222)
(-4.48646296721e-05 -0.000181431667425 -0.00217918575647)
(-2.25969924266e-05 -0.000183801980748 -0.00219551593638)
(8.52889279039e-08 -0.000184595605557 -0.00220093840707)
(2.27666336829e-05 -0.000183792762737 -0.00219544054461)
(4.50314634863e-05 -0.000181413370509 -0.00217903439335)
(6.64777531224e-05 -0.000177515902957 -0.00215175922135)
(8.67251649855e-05 -0.000172198303762 -0.00211373691709)
(0.000105447348894 -0.000165586927597 -0.00206532150011)
(0.000122340653599 -0.000157750950085 -0.00200740940571)
(0.000136761638311 -0.000149120168571 -0.00194069004901)
(-0.000133414319882 -0.000145119899953 -0.00204082917547)
(-0.000118875240204 -0.000151678381369 -0.0021057470976)
(-0.000102053973027 -0.00015758733811 -0.00216146085528)
(-8.36101108273e-05 -0.000162602662445 -0.0022073543255)
(-6.3864830513e-05 -0.000166614376464 -0.00224298694475)
(-4.31120158426e-05 -0.000169534822324 -0.00226834629358)
(-2.16825218561e-05 -0.000171306222333 -0.00228350725286)
(8.73518246741e-08 -0.000171897447202 -0.00228852890964)
(2.18563370995e-05 -0.000171298119798 -0.00228343016257)
(4.32831657099e-05 -0.000169518695194 -0.00226819137031)
(6.40315102591e-05 -0.000166590370854 -0.00224275306569)
(8.37704867106e-05 -0.00016257101635 -0.00220704086802)
(0.000102206200924 -0.000157548422824 -0.00216106867532)
(0.000119017085638 -0.000151632307104 -0.0021052716437)
(0.000133542596953 -0.000145067830105 -0.00204026106058)
(-0.000129260664435 -0.000140125882228 -0.00212700090042)
(-0.000114733107889 -0.000143686356406 -0.0021921219004)
(-9.79376075775e-05 -0.000147631901965 -0.00224535637529)
(-7.98949508229e-05 -0.000150936429731 -0.00228830801171)
(-6.08162445622e-05 -0.000153539296717 -0.00232125306213)
(-4.09498165067e-05 -0.000155409536426 -0.00234453283902)
(-2.05606671318e-05 -0.000156534272832 -0.00235839247748)
(8.95285623636e-08 -0.000156907605904 -0.00236297164505)
(2.07388803096e-05 -0.000156527368737 -0.00235831444016)
(4.11254962114e-05 -0.000155395760682 -0.00234437576537)
(6.09876768533e-05 -0.000153518702219 -0.00232101531714)
(8.00603852756e-05 -0.000150909086784 -0.0022879880319)
(9.80952791075e-05 -0.000147597931628 -0.00224495473012)
(0.000114880530506 -0.000143645333337 -0.00219163213935)
(0.000129395849311 -0.000140078660464 -0.00212643251465)
(2.07274696956e-07 2.80278750309e-07 -8.83410611446e-05)
(1.73195953052e-07 3.56363314301e-07 -9.27603183706e-05)
(1.44206801811e-07 4.15504310199e-07 -9.67914463743e-05)
(1.21233250113e-07 4.62015594957e-07 -0.000100293097493)
(9.33432053589e-08 5.00090464312e-07 -0.000103146412242)
(6.30807605844e-08 5.28122573426e-07 -0.000105254080212)
(3.0363402067e-08 5.45289074499e-07 -0.000106548283086)
(-3.49029709971e-09 5.50872273026e-07 -0.000106987464915)
(-3.72266662512e-08 5.44534424248e-07 -0.000106547580701)
(-6.95967215193e-08 5.26660883956e-07 -0.000105252653986)
(-9.93360333357e-08 4.98009118369e-07 -0.000103144202539)
(-1.26581849299e-07 4.59460753937e-07 -0.000100289978054)
(-1.48826426358e-07 4.12633750872e-07 -9.67871964314e-05)
(-1.77105397433e-07 3.53364639006e-07 -9.27544776835e-05)
(-2.10208834126e-07 2.77550227826e-07 -8.83325656327e-05)
(1.68789266298e-06 1.99117301687e-06 -0.000258816708222)
(1.56639468704e-06 2.40491376139e-06 -0.000271270121638)
(1.40223379654e-06 2.78497897655e-06 -0.000282626702857)
(1.20686763431e-06 3.11779816923e-06 -0.000292486143985)
(9.57180101271e-07 3.39814407082e-06 -0.000300515708983)
(6.63633053983e-07 3.60995762425e-06 -0.000306445715351)
(3.36651438198e-07 3.74193188741e-06 -0.000310085561723)
(-7.79060861799e-09 3.78624025801e-06 -0.000311317496326)
(-3.52015752115e-07 3.73989710334e-06 -0.00031008314788)
(-6.78382337415e-07 3.60595873141e-06 -0.000306440839415)
(-9.71064803859e-07 3.39233046984e-06 -0.00030050822304)
(-1.21981027519e-06 3.11045741127e-06 -0.000292475716262)
(-1.41419891693e-06 2.77648598512e-06 -0.000282612731103)
(-1.57734981755e-06 2.39576886156e-06 -0.000271251315312)
(-1.69699859932e-06 1.98237680211e-06 -0.000258790563083)
(3.91284913868e-06 4.50265875263e-06 -0.000422050337103)
(3.66497547239e-06 5.34148071592e-06 -0.000441781462632)
(3.29457195317e-06 6.13488228455e-06 -0.00045974961445)
(2.82863194749e-06 6.83716517996e-06 -0.000475337029418)
(2.24056156583e-06 7.42771987805e-06 -0.000488023260045)
(1.55211911159e-06 7.87346664671e-06 -0.000497388778539)
(7.89233871072e-07 8.15088112347e-06 -0.000503134722254)
(-1.26050827774e-08 8.24428350074e-06 -0.000505076360745)
(-8.1412503846e-07 8.14788552478e-06 -0.000503130373732)
(-1.57609120292e-06 7.86757704243e-06 -0.00049738001748)
(-2.26317206603e-06 7.41915962955e-06 -0.000488009879512)
(-2.84964637112e-06 6.82635206372e-06 -0.000475318555969)
(-3.31383758775e-06 6.12240510247e-06 -0.000459725176673)
(-3.6823654056e-06 5.32809275392e-06 -0.000441749172176)
(-3.92728330775e-06 4.4897357425e-06 -0.000422006695948)
(6.45860042698e-06 7.34858190533e-06 -0.000577993206866)
(6.04320343668e-06 8.59535141082e-06 -0.000604240555527)
(5.41924096558e-06 9.7847126484e-06 -0.00062809111179)
(4.63088979775e-06 1.08349751866e-05 -0.000648760128705)
(3.65476177017e-06 1.17130544399e-05 -0.000665568544334)
(2.52513187212e-06 1.23726566627e-05 -0.000677970642963)
(1.28358239243e-06 1.27817265261e-05 -0.000685575623597)
(-1.63353204971e-08 1.29193794363e-05 -0.000688142338718)
(-1.31589703376e-06 1.2778066941e-05 -0.000685569041575)
(-2.5564152428e-06 1.23654448445e-05 -0.000677957423396)
(-3.684487047e-06 1.17025380682e-05 -0.000665548480325)
(-4.65873473203e-06 1.08216243963e-05 -0.000648732718813)
(-5.44496714357e-06 9.76923763352e-06 -0.000628055396767)
(-6.06657427343e-06 8.57865388173e-06 -0.000604194355104)
(-6.47831184423e-06 7.33229794562e-06 -0.000577932510713)
(8.95202941797e-06 1.01093345507e-05 -0.000726528055144)
(8.33472677437e-06 1.1672976073e-05 -0.000758517341812)
(7.43723163727e-06 1.31642943548e-05 -0.000787505749958)
(6.31874878755e-06 1.44713445646e-05 -0.000812595527526)
(4.96373378028e-06 1.55554493912e-05 -0.000832979847176)
(3.41779803126e-06 1.63645262164e-05 -0.000848010800163)
(1.73473074237e-06 1.68639742693e-05 -0.000857222614393)
(-1.94669466149e-08 1.70317235025e-05 -0.000860328578203)
(-1.77330964785e-06 1.68599347362e-05 -0.000857213495941)
(-3.45534271204e-06 1.63565509762e-05 -0.000847992548321)
(-4.99968763653e-06 1.55437822768e-05 -0.000832952329224)
(-6.35272693793e-06 1.44564535364e-05 -0.000812558346843)
(-7.46890416153e-06 1.31469167009e-05 -0.000787458060489)
(-8.36373935944e-06 1.16540579668e-05 -0.000758456926211)
(-8.97690099947e-06 1.00906519278e-05 -0.000726450705519)
(1.11646435852e-05 1.25308327226e-05 -0.000867539768544)
(1.03236327957e-05 1.42920666573e-05 -0.000904493670063)
(9.15567613555e-06 1.59625121539e-05 -0.000937875556505)
(7.72998241454e-06 1.74120348467e-05 -0.000966727745142)
(6.0414339824e-06 1.86031281947e-05 -0.000990145590506)
(4.14411321451e-06 1.94853857413e-05 -0.00100740153376)
(2.09903905865e-06 2.00271211731e-05 -0.00101797091859)
(-2.2171058382e-08 2.02085941868e-05 -0.00102153162768)
(-2.14304576921e-06 2.00229049548e-05 -0.00101795895936)
(-4.18713480269e-06 1.94770489265e-05 -0.00100737767899)
(-6.08290749741e-06 1.85908984355e-05 -0.000990109864745)
(-7.76947114909e-06 1.73963536758e-05 -0.000966679995248)
(-9.19276240022e-06 1.59440988487e-05 -0.00093781524505)
(-1.03578579975e-05 1.42718469917e-05 -0.000904418735792)
(-1.11944278023e-05 1.2510636832e-05 -0.000867445940116)
(1.29694217262e-05 1.4475656972e-05 -0.00100095688295)
(1.18983953279e-05 1.6315038335e-05 -0.00104211029046)
(1.04819141481e-05 1.80425904287e-05 -0.00107916004971)
(8.79225271598e-06 1.95248999346e-05 -0.00111113741063)
(6.83547473155e-06 2.07304376831e-05 -0.00113706626807)
(4.67038293192e-06 2.1616115602e-05 -0.00115615917977)
(2.36008304483e-06 2.2156833687e-05 -0.00116784709536)
(-2.44885883708e-08 2.23374027792e-05 -0.00117178168485)
(-2.40875446259e-06 2.2152599847e-05 -0.00116783199803)
(-4.71814647422e-06 2.16077316552e-05 -0.00115612916669)
(-6.88177627384e-06 2.07181071068e-05 -0.00113702160384)
(-8.83661433789e-06 1.95090227539e-05 -0.00111107831706)
(-1.05238449651e-05 1.80238410403e-05 -0.0010790864714)
(-1.19373495445e-05 1.62942850976e-05 -0.00104202045422)
(-1.30037829778e-05 1.44547122617e-05 -0.00100084652232)
(1.43129147727e-05 1.58901100161e-05 -0.00112676177406)
(1.30212232923e-05 1.77038889263e-05 -0.00117137408253)
(1.13921597079e-05 1.93838782493e-05 -0.00121139878139)
(9.49345940668e-06 2.08082019022e-05 -0.00124589800171)
(7.34170819461e-06 2.19537950767e-05 -0.00127384491392)
(4.9965572816e-06 2.27881691792e-05 -0.00129440892633)
(2.51872483253e-06 2.32944936355e-05 -0.0013069899314)
(-2.6424738827e-08 2.34629947163e-05 -0.00131122216141)
(-2.57130432215e-06 2.32903707349e-05 -0.00130697141424)
(-5.04832428293e-06 2.27799917371e-05 -0.00129437222616)
(-7.39213104747e-06 2.19417348314e-05 -0.00127379060809)
(-9.54203367851e-06 2.07926066094e-05 -0.00124582680029)
(-1.14383386831e-05 1.93653566951e-05 -0.00121131125316)
(-1.30643965376e-05 1.76832304234e-05 -0.00117126881616)
(-1.43514707296e-05 1.58690484747e-05 -0.00112663456366)
(1.51949427435e-05 1.67808834635e-05 -0.00124497844836)
(1.37052190831e-05 1.84881775509e-05 -0.00129234012857)
(1.19080519863e-05 2.00404342479e-05 -0.00133468757918)
(9.85965727156e-06 2.1339929201e-05 -0.00137114550855)
(7.58548593307e-06 2.23727659804e-05 -0.0014006499633)
(5.14259751172e-06 2.31182120957e-05 -0.00142234179465)
(2.58591730067e-06 2.35677428009e-05 -0.00143560351092)
(-2.79894060592e-08 2.37167874642e-05 -0.00144006142018)
(-2.64166549366e-06 2.35638345311e-05 -0.00143558131406)
(-5.19764061849e-06 2.31104450589e-05 -0.00142229791229)
(-7.63932774216e-06 2.2361273106e-05 -0.00140058533941)
(-9.91178480819e-06 2.13249957432e-05 -0.00137106142836)
(-1.19578823124e-05 2.00225870144e-05 -0.00133458534244)
(-1.37520928846e-05 1.84681092629e-05 -0.00129221870474)
(-1.52372890596e-05 1.6760208321e-05 -0.00124483375885)
(1.56499055777e-05 1.71935190276e-05 -0.00135564794063)
(1.39940651349e-05 1.87369964272e-05 -0.0014050840423)
(1.20766580202e-05 2.01062402228e-05 -0.00144914938509)
(9.93689745964e-06 2.12369449953e-05 -0.00148704616273)
(7.60673775599e-06 2.21241732868e-05 -0.00151767867856)
(5.13788189392e-06 2.27584874391e-05 -0.00154017409048)
(2.57720418061e-06 2.3138549754e-05 -0.00155391404057)
(-2.92050408366e-08 2.32640623045e-05 -0.00155852871322)
(-2.63542503948e-06 2.31349396899e-05 -0.00155388792964)
(-5.19551300965e-06 2.27512947449e-05 -0.00154012256645)
(-7.66333045545e-06 2.21134852059e-05 -0.00151760307861)
(-9.99194828348e-06 2.12229753287e-05 -0.00148694840151)
(-1.2129567413e-05 2.00894196159e-05 -0.00144903156586)
(-1.40441368239e-05 1.8717906026e-05 -0.00140494548172)
(-1.56956329827e-05 1.7173621327e-05 -0.00135548476444)
(1.57309953937e-05 1.71942597681e-05 -0.00145879859395)
(1.3945785053e-05 1.85364890246e-05 -0.00150967754803)
(1.19553708077e-05 1.96884836367e-05 -0.00155491656856)
(9.77816362362e-06 2.06251665648e-05 -0.00159377972538)
(7.44964084786e-06 2.1350032578e-05 -0.00162513798975)
(5.01406626997e-06 2.1863243679e-05 -0.00164812551084)
(2.50907574704e-06 2.21687637728e-05 -0.00166214621679)
(-3.01042297941e-08 2.2269234877e-05 -0.00166684998914)
(-2.56913665704e-06 2.21655177692e-05 -0.00166211598706)
(-5.07365631802e-06 2.18567554703e-05 -0.00164806592327)
(-7.50836866973e-06 2.13403386414e-05 -0.00162505076388)
(-9.83555317685e-06 2.06124015623e-05 -0.00159366741963)
(-1.20108256436e-05 1.96729690009e-05 -0.00155478213654)
(-1.39985828209e-05 1.85186821588e-05 -0.00150952058015)
(-1.5779710404e-05 1.7175440059e-05 -0.00145861546476)
(1.54978117656e-05 1.68561832324e-05 -0.00155441269496)
(1.36212415708e-05 1.79733781786e-05 -0.001606179745)
(1.16023657996e-05 1.88892356693e-05 -0.00165213959799)
(9.43575190343e-06 1.96207433234e-05 -0.00169154887417)
(7.15688358643e-06 2.01786688875e-05 -0.00172324903604)
(4.80123998241e-06 2.056991693e-05 -0.00174641967741)
(2.39704391856e-06 2.0801372448e-05 -0.00176052168947)
(-3.07223147724e-08 2.08771417475e-05 -0.00176524576758)
(-2.45838095305e-06 2.07985419616e-05 -0.00176048717789)
(-4.86222344106e-06 2.05642341329e-05 -0.00174635165818)
(-7.21718737686e-06 2.01701199593e-05 -0.00172314954603)
(-9.49494291189e-06 1.96093771533e-05 -0.00169142107369)
(-1.16598696136e-05 1.88752549928e-05 -0.00165198733111)
(-1.36763267023e-05 1.79571064259e-05 -0.00160600283223)
(-1.55491455103e-05 1.68387045897e-05 -0.00155420768223)
(1.50064049188e-05 1.62462272874e-05 -0.00164238397641)
(1.30779683262e-05 1.71219112611e-05 -0.00169466991961)
(1.10730674235e-05 1.77943069965e-05 -0.00174104258958)
(8.9587963258e-06 1.83205493431e-05 -0.00178062034734)
(6.76781596601e-06 1.87165252098e-05 -0.00181227337067)
(4.52668724626e-06 1.89917757569e-05 -0.00183530238174)
(2.25502585101e-06 1.91536175528e-05 -0.00184927410846)
(-3.10916717018e-08 1.92063231027e-05 -0.00185394539582)
(-2.31713957831e-06 1.91512353447e-05 -0.0018492352282)
(-4.58855740113e-06 1.89869684146e-05 -0.00183522567586)
(-6.82918534865e-06 1.87092321722e-05 -0.00181216104622)
(-9.01929002988e-06 1.83107343755e-05 -0.00178047601902)
(-1.11321487443e-05 1.77820434081e-05 -0.00174087103058)
(-1.31349122733e-05 1.71073801834e-05 -0.00169447139202)
(-1.50599862023e-05 1.6230334136e-05 -0.00164215519105)
(1.43103622062e-05 1.5416188851e-05 -0.00172245230744)
(1.23763140471e-05 1.60497190054e-05 -0.00177540674174)
(1.04247217088e-05 1.6475695511e-05 -0.00182205373922)
(8.39503179513e-06 1.68057649761e-05 -0.00186139013247)
(6.31911951889e-06 1.70510875036e-05 -0.00189254753733)
(4.21511504612e-06 1.72200418032e-05 -0.00191506582042)
(2.09542250005e-06 1.73186316291e-05 -0.00192867063281)
(-3.12442583802e-08 1.735047434e-05 -0.00193320811115)
(-2.15787370806e-06 1.73167068801e-05 -0.00192862745255)
(-4.27742170808e-06 1.72161350349e-05 -0.00191498044224)
(-6.38109562834e-06 1.70451008837e-05 -0.00189242207536)
(-8.45637542156e-06 1.6797588421e-05 -0.00186122827806)
(-1.04849508996e-05 1.64652805024e-05 -0.00182186105883)
(-1.24347189288e-05 1.60370811254e-05 -0.00177518477907)
(-1.43658440427e-05 1.54020619872e-05 -0.00172219882833)
(1.34631239245e-05 1.45361386594e-05 -0.00179437625749)
(1.15884715387e-05 1.48059452367e-05 -0.00184955452992)
(9.70917306417e-06 1.49948360619e-05 -0.00189601578545)
(7.7849328923e-06 1.51391015293e-05 -0.00193443543923)
(5.84059485589e-06 1.52420072832e-05 -0.00196449864422)
(3.88619395943e-06 1.5310620621e-05 -0.00198606123697)
(1.92800948326e-06 1.53495857136e-05 -0.00199902761054)
(-3.12257750192e-08 1.53617754609e-05 -0.00200334030197)
(-1.99045534498e-06 1.53480946775e-05 -0.00199898059571)
(-3.94859055563e-06 1.5307584539e-05 -0.001985967991)
(-5.90282674435e-06 1.52373201891e-05 -0.00196436085867)
(-7.8467780006e-06 1.51326234789e-05 -0.00193425618573)
(-9.77024214345e-06 1.49864290643e-05 -0.00189580083628)
(-1.16480491428e-05 1.47954288206e-05 -0.00184930481252)
(-1.35203779015e-05 1.4523937579e-05 -0.00179410371969)
(-7.01126677581e-08 -1.16497723971e-07 -0.000100488476446)
(-3.98317166916e-08 -1.57556975486e-07 -0.00010554694412)
(-2.06639954719e-08 -1.83226448937e-07 -0.000110168471074)
(-7.42557268302e-09 -2.00114496585e-07 -0.000114193098398)
(4.61996824869e-10 -2.10655522044e-07 -0.000117475776247)
(3.5737167179e-09 -2.16698225365e-07 -0.000119902371057)
(3.10844429141e-09 -2.19687064354e-07 -0.000121392775599)
(6.22170917413e-10 -2.20543910605e-07 -0.000121898242114)
(-1.89830669556e-09 -2.1958576088e-07 -0.00012139102999)
(-2.46616019247e-09 -2.16511818435e-07 -0.000119898899689)
(4.8793280507e-10 -2.10415532925e-07 -0.000117470618859)
(8.18409130006e-09 -1.99868763685e-07 -0.000114186297719)
(2.11787460668e-08 -1.83051322365e-07 -0.000110160010965)
(4.00952309023e-08 -1.57476917999e-07 -0.000105536491469)
(7.01459432256e-08 -1.16548332434e-07 -0.000100474649258)
(-2.9129039175e-07 -4.17005043573e-07 -0.000292136759057)
(-2.09774785981e-07 -5.36625509929e-07 -0.000306149924343)
(-1.49251477708e-07 -6.2189610777e-07 -0.000318945373485)
(-1.01803115225e-07 -6.83527676486e-07 -0.000330073472501)
(-6.48570368455e-08 -7.2617868882e-07 -0.000339141646276)
(-3.71054332458e-08 -7.53577785036e-07 -0.0003458410434)
(-1.62064468391e-08 -7.68702175875e-07 -0.000349953237112)
(8.2160543515e-10 -7.73451427441e-07 -0.00035134419526)
(1.77966366039e-08 -7.68474934068e-07 -0.000349948024531)
(3.85483280713e-08 -7.53135036539e-07 -0.000345830674841)
(6.61108071153e-08 -7.25550443138e-07 -0.000339126230933)
(1.02896661308e-07 -6.82771887648e-07 -0.000330053122697)
(1.50197712376e-07 -6.21123670542e-07 -0.000318920020825)
(2.10593615262e-07 -5.35878077548e-07 -0.000306118586305)
(2.9190378431e-07 -4.16428265295e-07 -0.00029209624908)
(-5.87785585328e-07 -7.80454149772e-07 -0.000473028211265)
(-4.62232118716e-07 -9.76097159092e-07 -0.000494888375082)
(-3.58512150901e-07 -1.12667180823e-06 -0.000514813899423)
(-2.69255099344e-07 -1.24139739677e-06 -0.00053211992909)
(-1.90521305214e-07 -1.32509726545e-06 -0.000546209001928)
(-1.20823102936e-07 -1.38161775764e-06 -0.000556611056161)
(-5.77811976869e-08 -1.41413327964e-06 -0.000562992036987)
(1.47437192093e-09 -1.42465552034e-06 -0.00056514680791)
(6.06569218252e-08 -1.41385033199e-06 -0.000562983249802)
(1.23489299001e-07 -1.38107016607e-06 -0.000556593587819)
(1.92890093537e-07 -1.32432811395e-06 -0.000546183056377)
(2.7130962041e-07 -1.24048959566e-06 -0.000532085733716)
(3.60231854596e-07 -1.12576802768e-06 -0.000514771434773)
(4.63623336574e-07 -9.75260395926e-07 -0.000494836302811)
(5.88730609843e-07 -7.79859710936e-07 -0.000472962123867)
(-8.93888214673e-07 -1.13920782095e-06 -0.00064348865738)
(-7.30983927714e-07 -1.39626296364e-06 -0.000672164722936)
(-5.86593959368e-07 -1.60223358339e-06 -0.000698240138005)
(-4.55320445767e-07 -1.76328913711e-06 -0.000720856538899)
(-3.32456912159e-07 -1.88368080735e-06 -0.000739251335795)
(-2.16643397159e-07 -1.96670087205e-06 -0.000752823530916)
(-1.05915965962e-07 -2.01523928313e-06 -0.000761144319208)
(1.88562639588e-09 -2.0311182206e-06 -0.000763950685952)
(1.09609832518e-07 -2.01492200869e-06 -0.000761131983319)
(2.20114088552e-07 -1.9660809793e-06 -0.000752799022902)
(3.35603010398e-07 -1.88279603638e-06 -0.00073921496963)
(4.58107248248e-07 -1.76222019395e-06 -0.000720808687908)
(5.88992335134e-07 -1.60112203739e-06 -0.000698180921117)
(7.33001577262e-07 -1.39518999947e-06 -0.00067209272036)
(8.95355338304e-07 -1.13839266238e-06 -0.000643398871092)
(-1.19293173099e-06 -1.47824688286e-06 -0.000803888654096)
(-9.98450810034e-07 -1.78284614956e-06 -0.000838424993147)