/*--------------------------------*- C++ -*----------------------------------*\
  =========                 |
  \\      /  F ield         | OpenFOAM: The Open Source CFD Toolbox
   \\    /   O peration     | Website:  https://openfoam.org
    \\  /    A nd           | Version:  7
     \\/     M anipulation  |
\*---------------------------------------------------------------------------*/
FoamFile
{
    version     2.0;
    format      ascii;
    class       volVectorField;
    location    "0.4";
    object      U;
}
// * * * * * * * * * * * * * * * * * * * * * * * * * * * * * * * * * * * * * //

dimensions      [0 1 -1 0 0 0 0];

internalField   nonuniform List<vector> 
22500
(
(-1.96409569619e-05 -2.14909031379e-05 -7.51378633393e-05)
(-1.89027986729e-05 -2.40472310687e-05 -8.07077997944e-05)
(-1.72258300256e-05 -2.6826126538e-05 -8.74249238757e-05)
(-1.49044709104e-05 -2.94226215086e-05 -9.44446994093e-05)
(-1.18440815343e-05 -3.170115802e-05 -0.000100868108074)
(-8.21237484883e-06 -3.34653088719e-05 -0.000105963282816)
(-4.16178128139e-06 -3.4578421996e-05 -0.000109215191449)
(1.08285692277e-07 -3.49515264676e-05 -0.000110315127063)
(4.37667507388e-06 -3.45524229591e-05 -0.000109139368584)
(8.42293272472e-06 -3.34136540725e-05 -0.00010581166519)
(1.2049330878e-05 -3.16242274163e-05 -0.000100640081399)
(1.51042908151e-05 -2.93217750659e-05 -9.41389295379e-05)
(1.74186015482e-05 -2.67025125235e-05 -8.7038313377e-05)
(1.90901572263e-05 -2.39028087595e-05 -8.02353037793e-05)
(1.98036495798e-05 -2.13414159784e-05 -7.45783347406e-05)
(-5.68644547585e-05 -6.22011557466e-05 -0.000313814132415)
(-5.44341650044e-05 -6.95794379866e-05 -0.000338812095517)
(-4.96007350191e-05 -7.75108486852e-05 -0.000366889680536)
(-4.28633360368e-05 -8.49255281954e-05 -0.000395023737906)
(-3.40667664602e-05 -9.14173816975e-05 -0.0004201873616)
(-2.36157689572e-05 -9.64435176084e-05 -0.000439903960985)
(-1.1958986375e-05 -9.96157851615e-05 -0.000452408513189)
(3.30191467307e-07 -0.000100677630027 -0.000456636484857)
(1.26135734511e-05 -9.95381727561e-05 -0.000452185202102)
(2.42546192242e-05 -9.62904607597e-05 -0.000439456838217)
(3.46829657401e-05 -9.11922986418e-05 -0.000419513086448)
(4.34523512965e-05 -8.46347233029e-05 -0.000394115664968)
(5.01555983763e-05 -7.7161691547e-05 -0.000365735764114)
(5.49523727089e-05 -6.91810581218e-05 -0.000337394239836)
(5.73037237416e-05 -6.17906980895e-05 -0.000312124356989)
(-8.84246585456e-05 -9.65229031274e-05 -0.000612865995539)
(-8.40530690417e-05 -0.000107709950382 -0.000660694997232)
(-7.63411595552e-05 -0.000119535864161 -0.000712793156599)
(-6.57538644673e-05 -0.000130516995342 -0.000763901184964)
(-5.21457143713e-05 -0.000140061619239 -0.000808991780163)
(-3.60890766484e-05 -0.000147418399991 -0.000844013894562)
(-1.82588840341e-05 -0.00015204749641 -0.000866109287629)
(4.99205362626e-07 -0.000153592455651 -0.000873566459619)
(1.92488913105e-05 -0.000151927382373 -0.000865755898914)
(3.70560913377e-05 -0.000147182014613 -0.000843305767279)
(5.30784027074e-05 -0.000139715418364 -0.000807921015958)
(6.66439958404e-05 -0.000130071661808 -0.00076245288231)
(7.71781363079e-05 -0.000119006031662 -0.000710943589225)
(8.4829362188e-05 -0.000107111783069 -0.000658409145265)
(8.90851073785e-05 -9.59058743425e-05 -0.000610122011029)
(-0.000114333404605 -0.000124609535954 -0.00094097228994)
(-0.000107935519833 -0.000138561120151 -0.00101020404355)
(-9.76061625572e-05 -0.000153082033849 -0.00108401524833)
(-8.37270354291e-05 -0.000166451341336 -0.00115528499214)
(-6.6204844463e-05 -0.000177978466564 -0.00121745851989)
(-4.57214542518e-05 -0.000186813574361 -0.00126537359974)
(-2.31058917978e-05 -0.000192352019775 -0.00129545345337)
(6.22203321334e-07 -0.000194195520306 -0.00130558199026)
(2.43405324678e-05 -0.000192204073715 -0.0012949959571)
(4.69291919955e-05 -0.000186522779172 -0.00126445615122)
(6.73712152804e-05 -0.000177553414966 -0.00121606704915)
(8.48403538766e-05 -0.000165905483088 -0.00115339383392)
(9.86524526487e-05 -0.000152434719374 -0.00108158640879)
(0.000108902105932 -0.000137832384602 -0.0010071825157)
(0.000115160477594 -0.000123852959636 -0.000937314156478)
(-0.000134864418343 -0.000146869822246 -0.00127081891935)
(-0.000126497270512 -0.000162576374348 -0.00135680672845)
(-0.000113838507439 -0.000178695248154 -0.00144697204475)
(-9.72236706879e-05 -0.000193402364621 -0.00153295270349)
(-7.66291219667e-05 -0.000205977367075 -0.00160726164677)
(-5.27984976532e-05 -0.000215557978181 -0.00166414624867)
(-2.66504855809e-05 -0.000221539441584 -0.00169970008412)
(7.03756659051e-07 -0.000223524998522 -0.00171164186072)
(2.80477431123e-05 -0.000221375770872 -0.00169916092324)
(5.41673197457e-05 -0.000215236561382 -0.00166306469256)
(7.79532600966e-05 -0.000205508083211 -0.00160561763936)
(9.84889978785e-05 -0.000192800112802 -0.00153071011781)
(0.000115028611567 -0.000177981567698 -0.00144407920257)
(0.000127595810818 -0.000161772869374 -0.0013531892114)
(0.000135811902127 -0.000146028225056 -0.00126640749903)
(-0.000150326742744 -0.000163658763859 -0.00158235892043)
(-0.000140154970507 -0.00018017404422 -0.00167914725432)
(-0.000125503423234 -0.000196920016481 -0.00177935018063)
(-0.000106713859573 -0.000212060864716 -0.00187399935643)
(-8.3832692711e-05 -0.00022489874466 -0.00195520308474)
(-5.76263542612e-05 -0.000234620899557 -0.0020170342601)
(-2.90502139925e-05 -0.000240665751267 -0.00205554118373)
(7.56930028399e-07 -0.000242666584331 -0.00206844205595)
(3.05537291209e-05 -0.000240495377204 -0.00205493546362)
(5.91010096917e-05 -0.000234286581715 -0.00201581959802)
(8.52612669598e-05 -0.00022441100076 -0.00195335524006)
(0.00010808067787 -0.000211435138088 -0.00187147458771)
(0.000126790591097 -0.000196178380346 -0.00177608677905)
(0.000141343877938 -0.000179337843795 -0.00167505499966)
(0.000151361232613 -0.00016277444782 -0.00157734442373)
(-0.000161174280902 -0.000175448383899 -0.00186338416787)
(-0.00014942894681 -0.000191941714496 -0.00196518337437)
(-0.00013315217742 -0.000208506185492 -0.00206962289324)
(-0.000112731212266 -0.000223347078147 -0.0021676241111)
(-8.82734629755e-05 -0.000235826731433 -0.00225126177141)
(-6.05374813223e-05 -0.000245221772955 -0.00231469745909)
(-3.04746482308e-05 -0.000251039213622 -0.00235409629838)
(7.94837357412e-07 -0.000252958590454 -0.00236726237315)
(3.20539462194e-05 -0.000250868196895 -0.00235343153035)
(6.2087636447e-05 -0.000244886451508 -0.00231336574999)
(8.97765715111e-05 -0.000235337872101 -0.00224923739365)
(0.000114170543658 -0.000222720144041 -0.00216486001656)
(0.00013450917373 -0.00020776282177 -0.00206605281541)
(0.000150683673581 -0.000191101899388 -0.00196070653629)
(0.000162275082613 -0.000174551673359 -0.00185788690842)
(-0.000167951442116 -0.00018280100435 -0.00210825025649)
(-0.000154890827412 -0.000198587258363 -0.00221024947751)
(-0.000137358529299 -0.000214331603825 -0.00231433460797)
(-0.000115808091691 -0.000228306811396 -0.00241162124981)
(-9.03959461232e-05 -0.000239961166919 -0.00249436442974)
(-6.18491121685e-05 -0.000248683484436 -0.00255695428237)
(-3.10849350139e-05 -0.000254061918988 -0.00259575049098)
(8.27356603914e-07 -0.000255829765046 -0.00260868043065)
(3.27291315056e-05 -0.000253894092901 -0.00259502827022)
(6.34635676905e-05 -0.000248354655396 -0.0025555097851)
(9.19620426864e-05 -0.000239482052801 -0.00249217330895)
(0.000117308219524 -0.000227692578939 -0.00240863778446)
(0.000138773843275 -0.000213602928742 -0.00231049386426)
(0.000156200766841 -0.000197762401631 -0.00220544547432)
(0.00016910873965 -0.000181912010359 -0.00210235440785)
(-0.000171220557827 -0.000186304442789 -0.00231598127665)
(-0.000157100241766 -0.000200850415002 -0.00241462084864)
(-0.000138659908588 -0.00021529084307 -0.00251509689904)
(-0.000116426242784 -0.000227982046628 -0.00260884896155)
(-9.05929453082e-05 -0.000238474906952 -0.00268841518284)
(-6.18374904272e-05 -0.000246281081657 -0.00274848815354)
(-3.10210931841e-05 -0.000251073730195 -0.00278566501198)
(8.60746205249e-07 -0.000252641749747 -0.00279801725311)
(3.27317847039e-05 -0.000250911507849 -0.00278488320143)
(6.35174394892e-05 -0.000245963391101 -0.00274692752375)
(9.22226706135e-05 -0.000238012150806 -0.00268605530583)
(0.000117987234103 -0.000227388790733 -0.00260564962488)
(0.000140133129442 -0.000214586483764 -0.00251099983527)
(0.000158464856674 -0.000200051179795 -0.00240951919169)
(0.00017243297871 -0.000185435639753 -0.00230973717702)
(-0.000171521603859 -0.000186535938745 -0.00248852266114)
(-0.000156573849532 -0.00019945097407 -0.00258145499417)
(-0.000137535110648 -0.000212233428087 -0.00267623919214)
(-0.000115003205714 -0.000223343425236 -0.00276463903266)
(-8.91983124766e-05 -0.000232444853539 -0.00283952832644)
(-6.07345617944e-05 -0.000239173392667 -0.00289596600193)
(-3.04005909426e-05 -0.000243284981006 -0.00293083401701)
(8.98317598912e-07 -0.000244622178305 -0.00294237469623)
(3.21860413927e-05 -0.000243130012284 -0.002929988658)
(6.2487979226e-05 -0.000238869936907 -0.00289428198727)
(9.08992328379e-05 -0.000232002690805 -0.00283699107418)
(0.000116632133271 -0.000222776164933 -0.00276121719436)
(0.000139072736435 -0.000211558882343 -0.0026718855399)
(0.000157999024961 -0.000198683169176 -0.00257606453687)
(0.00017279357983 -0.00018569452589 -0.00248195293099)
(-0.000169353650433 -0.000184048464684 -0.0026294659224)
(-0.000153773942016 -0.000195061206288 -0.00271540356226)
(-0.000134402027316 -0.000205930879861 -0.00280333047338)
(-0.000111896954383 -0.000215258142689 -0.0028852586941)
(-8.64941630449e-05 -0.00022282346807 -0.00295446478004)
(-5.87344367436e-05 -0.00022837838189 -0.00300647362119)
(-2.9321765211e-05 -0.000231754523381 -0.00303852744766)
(9.41298837262e-07 -0.000232843701763 -0.00304908224476)
(3.11927618173e-05 -0.000231608140325 -0.00303761425599)
(6.05720260889e-05 -0.000228091621119 -0.00300465792666)
(8.82768653672e-05 -0.00022240513441 -0.00295173896212)
(0.000113604249732 -0.000214720470415 -0.00288160261683)
(0.000136014187361 -0.000205289735714 -0.00279871149964)
(0.00015526943042 -0.000194328136134 -0.00270972008503)
(0.000170693481386 -0.000183238584662 -0.00262257282643)
(-0.000165163515104 -0.000179363941541 -0.00274329534591)
(-0.00014910802054 -0.000188283487894 -0.00282187438085)
(-0.000129627742342 -0.000197054640455 -0.00290244342765)
(-0.000107419799994 -0.000204473939617 -0.00297718295581)
(-8.27238701636e-05 -0.000210428119087 -0.00303993305994)
(-5.60030785393e-05 -0.00021476603331 -0.00308685468858)
(-2.78687349609e-05 -0.000217384871083 -0.00311566066698)
(9.89519214156e-07 -0.000218219716775 -0.00312507814214)
(2.98357885587e-05 -0.000217248415936 -0.00311467631706)
(5.79354688684e-05 -0.000214498424846 -0.00308490037983)
(8.45992000659e-05 -0.000210036811204 -0.00303700814891)
(0.000109216571275 -0.00020396936505 -0.00297327953438)
(0.000131325690922 -0.000196450270504 -0.00289754659129)
(0.000150685049031 -0.000187588183443 -0.00281588819562)
(0.000166581608006 -0.000178589591974 -0.00273607023522)
(-0.000159333343008 -0.000172937192556 -0.00283509707836)
(-0.000142949189857 -0.000179613355768 -0.00290682263731)
(-0.000123554631249 -0.000186157773687 -0.0029799344417)
(-0.000101859169689 -0.000191614930703 -0.00304686751099)
(-7.81073091453e-05 -0.000195943274825 -0.00310239157813)
(-5.2688812029e-05 -0.00019906379647 -0.00314355620501)
(-2.61166778092e-05 -0.000200928959398 -0.0031686738526)
(1.04184470676e-06 -0.000201512044874 -0.00317680140831)
(2.81881071112e-05 -0.000200803872033 -0.00316761742962)
(5.4724640732e-05 -0.000198817968959 -0.00314146042141)
(8.00843776128e-05 -0.000195582662142 -0.00309926119945)
(0.00010375511437 -0.000191147585911 -0.00304270551555)
(0.000125348575869 -0.00018559429228 -0.00297474607283)
(0.000144618253006 -0.000178959443463 -0.00290052553828)
(0.000160839455716 -0.000172203701562 -0.00282753887592)
(-0.000152244134495 -0.000165077495329 -0.00291066292478)
(-0.000135727882815 -0.000169376975439 -0.00297695777851)
(-0.000116542825765 -0.000173628067475 -0.00304248347424)
(-9.54975590086e-05 -0.000177156125752 -0.00310072772301)
(-7.28551677008e-05 -0.000179902501572 -0.00314805954596)
(-4.89330728238e-05 -0.000181845554499 -0.00318269214579)
(-2.41378633812e-05 -0.000182985973668 -0.00320363507916)
(1.09654467617e-06 -0.00018332817722 -0.00321030921912)
(2.63185757921e-05 -0.000182873565795 -0.00320251019511)
(5.10775138901e-05 -0.000181624152256 -0.00318046022651)
(7.49396816002e-05 -0.00017957627045 -0.00314472718379)
(9.74991630268e-05 -0.000176730567902 -0.00309630295106)
(0.000118440036414 -0.000173110265485 -0.00303698946055)
(0.000137496866502 -0.000168768884174 -0.00297034183091)
(0.000153849084069 -0.000164387724145 -0.00290279833537)
(-0.000144662469082 -0.000156370723301 -0.00297680083787)
(-0.000128168104541 -0.000157407250417 -0.00304001536742)
(-0.000109063611513 -0.000159559764549 -0.00309678530869)
(-8.87204341113e-05 -0.000161261250332 -0.00314488170364)
(-6.72674448786e-05 -0.000162523560398 -0.00318283405556)
(-4.49463346413e-05 -0.000163374454945 -0.00321010920352)
(-2.20421832931e-05 -0.000163850619315 -0.003226398248)
(1.15153110612e-06 -0.000163974356167 -0.00323146660863)
(2.43327597906e-05 -0.000163752718465 -0.003225216477)
(4.72002705416e-05 -0.000163181048871 -0.00320776212841)
(6.94605782716e-05 -0.000162237077657 -0.00317932595686)
(9.08291003863e-05 -0.000160884776559 -0.00314021520983)
(0.000111065765379 -0.000159097216095 -0.00309098987286)
(0.000130035648044 -0.00015685472035 -0.00303302788553)
(0.000146375968863 -0.000155736354427 -0.00296877334487)
(3.70907210303e-07 3.58948547204e-07 -0.000187743787065)
(5.45056473532e-07 3.26989871161e-07 -0.000197722970562)
(6.91740124741e-07 3.52664128672e-07 -0.00020721797399)
(7.54342218164e-07 4.38568629769e-07 -0.000215684051152)
(6.99152068325e-07 5.62334552012e-07 -0.000222697609004)
(5.33661782058e-07 6.84350729911e-07 -0.000227933895017)
(2.83234740292e-07 7.71684182862e-07 -0.000231168852882)
(-1.23547992966e-08 8.01119041569e-07 -0.000232267807665)
(-3.08400651308e-07 7.64023412221e-07 -0.000231164839493)
(-5.60980273806e-07 6.68006223479e-07 -0.000227925605532)
(-7.32985201897e-07 5.3499770373e-07 -0.000222683953612)
(-8.00059947334e-07 3.98080134033e-07 -0.000215662365828)
(-7.52608532586e-07 2.95946080246e-07 -0.000207184052986)
(-6.20142587783e-07 2.5509722774e-07 -0.000197668967664)
(-4.46017497294e-07 2.8170174548e-07 -0.000187654852696)
(2.66709099544e-06 2.75723646129e-06 -0.000535131096898)
(3.06238195448e-06 2.99536772394e-06 -0.000561884732853)
(3.30321388507e-06 3.39884040326e-06 -0.000587431510943)
(3.258046442e-06 3.92827489945e-06 -0.000610264217273)
(2.84620285392e-06 4.50387888137e-06 -0.000629208727524)
(2.09448817547e-06 5.01072974019e-06 -0.000643368425343)
(1.08455639124e-06 5.35392411261e-06 -0.000652120174936)
(-6.29631013272e-08 5.4680033161e-06 -0.000655087168585)
(-1.21074582071e-06 5.3290662971e-06 -0.000652105240801)
(-2.22304383034e-06 4.95943277614e-06 -0.00064333781499)
(-2.98392529158e-06 4.42260904245e-06 -0.000629159250793)
(-3.41438710878e-06 3.81427907241e-06 -0.000610188264975)
(-3.48347537441e-06 3.24820370598e-06 -0.000587316886001)
(-3.26297569667e-06 2.81260276602e-06 -0.000561708976313)
(-2.85973779351e-06 2.56332274995e-06 -0.000534859278223)
(5.73279475908e-06 6.04386444746e-06 -0.000852587613778)
(6.19766930962e-06 6.65867332262e-06 -0.000893113751195)
(6.36359211785e-06 7.51034691332e-06 -0.000931886066431)
(6.0538392338e-06 8.50084489941e-06 -0.000966594040222)
(5.16353878008e-06 9.50282382561e-06 -0.000995420919503)
(3.74334313707e-06 1.03521672149e-05 -0.00101698157174)
(1.9249349477e-06 1.09143833912e-05 -0.00103031001613)
(-1.0511862748e-07 1.10983274035e-05 -0.00103482166038)
(-2.13533022763e-06 1.08708349218e-05 -0.00103027874368)
(-3.95621725656e-06 1.026326263e-05 -0.00101691817349)
(-5.38670827701e-06 9.36515459627e-06 -0.000995320972526)
(-6.29900546107e-06 8.31267407957e-06 -0.000966446943161)
(-6.63830910356e-06 7.27138201915e-06 -0.000931674160901)
(-6.4972694107e-06 6.37792506911e-06 -0.000892804382091)
(-6.02216067058e-06 5.74977032e-06 -0.000852131967681)
(8.84856198783e-06 9.38767127819e-06 -0.00114097705523)
(9.2387000432e-06 1.03186040664e-05 -0.00119243387744)
(9.20911232213e-06 1.15226262259e-05 -0.00124173268829)
(8.55963211369e-06 1.2847019499e-05 -0.00128593085156)
(7.1814715455e-06 1.4136828549e-05 -0.00132267713392)
(5.14822344075e-06 1.5205024863e-05 -0.00135017898991)
(2.62763211269e-06 1.59014709616e-05 -0.00136718305064)
(-1.50940279625e-07 1.61262633967e-05 -0.00137293106997)
(-2.92946468199e-06 1.5843456841e-05 -0.00136712904025)
(-5.45190756327e-06 1.50876150949e-05 -0.00135007057486)
(-7.49410949196e-06 1.3957757136e-05 -0.00132250999191)
(-8.89241191654e-06 1.26060844545e-05 -0.00128569400991)
(-9.56973753756e-06 1.12228300408e-05 -0.00124140683664)
(-9.62168853684e-06 9.97169599017e-06 -0.0011919815596)
(-9.21698339355e-06 9.02484037465e-06 -0.00114034266402)
(1.14881859418e-05 1.22024632157e-05 -0.00140126264938)
(1.16958596239e-05 1.33072906936e-05 -0.00146099008855)
(1.14129979395e-05 1.46909707445e-05 -0.00151829204525)
(1.04261401081e-05 1.61648211327e-05 -0.00156975574709)
(8.63660286283e-06 1.75661438387e-05 -0.00161259527694)
(6.13519190632e-06 1.87076350995e-05 -0.00164468319225)
(3.10911412687e-06 1.944304342e-05 -0.00166452796433)
(-1.93484912732e-07 1.9676660892e-05 -0.00167122773582)
(-3.49584553471e-06 1.93745057431e-05 -0.00166444474276)
(-6.52299609356e-06 1.85698568789e-05 -0.00164451753603)
(-9.03126580217e-06 1.73581911019e-05 -0.00161234453711)
(-1.08372006957e-05 1.58881239036e-05 -0.00156941130568)
(-1.18471899835e-05 1.43509767698e-05 -0.00151783691732)
(-1.21476851295e-05 1.29176142101e-05 -0.001460386575)
(-1.19217500678e-05 1.17941399262e-05 -0.00140045292219)
(1.34357230686e-05 1.42501974197e-05 -0.00163451766614)
(1.33974419419e-05 1.53906416741e-05 -0.00170006814707)
(1.285135149e-05 1.67927348517e-05 -0.00176306713129)
(1.15742687477e-05 1.82570476972e-05 -0.00181977173588)
(9.48506768237e-06 1.96254761617e-05 -0.00186704741822)
(6.68416989859e-06 2.07255403774e-05 -0.00190249381289)
(3.3632272256e-06 2.14267030299e-05 -0.00192442392271)
(-2.30669683605e-07 2.16450801424e-05 -0.0019318185156)
(-3.82418093435e-06 2.13512546964e-05 -0.00192430576505)
(-7.14549180341e-06 2.05746079327e-05 -0.00190226019353)
(-9.95106932088e-06 1.93993531724e-05 -0.00186669885979)
(-1.20524829434e-05 1.79585854284e-05 -0.00181930439593)
(-1.33470669623e-05 1.64291410202e-05 -0.00176246976311)
(-1.39055108893e-05 1.49762549295e-05 -0.001699306195)
(-1.39236282613e-05 1.38145166731e-05 -0.00163353283975)
(1.46644988521e-05 1.55080433911e-05 -0.00184192731818)
(1.43572448599e-05 1.65849625839e-05 -0.00191108169528)
(1.35699771968e-05 1.78914196589e-05 -0.00197770337888)
(1.20699770569e-05 1.92403081715e-05 -0.00203783210789)
(9.79642472916e-06 2.04837059254e-05 -0.00208805601451)
(6.8522977183e-06 2.14717195273e-05 -0.00212575639154)
(3.42194919702e-06 2.209479255e-05 -0.00214909101123)
(-2.62615181978e-07 2.22839935705e-05 -0.00215694895873)
(-3.94665762251e-06 2.2015535551e-05 -0.00214893332642)
(-7.37668249018e-06 2.13137368854e-05 -0.00212544623939)
(-1.03233837609e-05 2.02483322222e-05 -0.00208759831128)
(-1.26049733359e-05 1.89314427515e-05 -0.0020372296847)
(-1.41168808065e-05 1.75174656959e-05 -0.00197695328836)
(-1.49112909763e-05 1.61601651993e-05 -0.00191015464142)
(-1.51977734255e-05 1.50593635636e-05 -0.00184076518179)
(1.5247743116e-05 1.60656953725e-05 -0.00202474475052)
(1.46795375283e-05 1.70249000382e-05 -0.00209551322647)
(1.36905906553e-05 1.81727859447e-05 -0.00216391014907)
(1.20381432332e-05 1.93514120072e-05 -0.00222584090518)
(9.68243056798e-06 2.04247543645e-05 -0.00227767505177)
(6.7233038695e-06 2.12679363824e-05 -0.00231662841462)
(3.3297232519e-06 2.17935771513e-05 -0.00234074687158)
(-2.90192398995e-07 2.1948019761e-05 -0.00234885681181)
(-3.90943542839e-06 2.17131158062e-05 -0.00234054626466)
(-7.30197637797e-06 2.1107989702e-05 -0.00231623535467)
(-1.02616492773e-05 2.01874324189e-05 -0.00227709968986)
(-1.2621402794e-05 1.90413824562e-05 -0.00222509402552)
(-1.4280341567e-05 1.77990347244e-05 -0.00216299879411)
(-1.52716149572e-05 1.66012100271e-05 -0.00209441425999)
(-1.58191663873e-05 1.56153563614e-05 -0.0020234005523)
(1.53034658874e-05 1.60623722039e-05 -0.00218426162182)
(1.45019756179e-05 1.68872380616e-05 -0.00225488476052)
(1.33558634943e-05 1.78544195839e-05 -0.00232342993131)
(1.16145568658e-05 1.88456941752e-05 -0.00238571894187)
(9.25865621794e-06 1.97370602765e-05 -0.00243795304737)
(6.38097492091e-06 2.04285608415e-05 -0.00247724045924)
(3.13013275374e-06 2.08538666475e-05 -0.00250156713252)
(-3.14462321021e-07 2.09734924262e-05 -0.00250973231735)
(-3.75819055211e-06 2.07743406028e-05 -0.00250132124936)
(-7.00719258223e-06 2.0270798791e-05 -0.00247675995405)
(-9.88341150367e-06 1.95037011887e-05 -0.00243725371286)
(-1.22395965414e-05 1.85418381246e-05 -0.00238482018865)
(-1.39823026225e-05 1.74891430204e-05 -0.00232234968798)
(-1.51261969941e-05 1.6473367044e-05 -0.00225360592728)
(-1.59075653784e-05 1.56192280674e-05 -0.00218272746537)
(1.49598705019e-05 1.56470686872e-05 -0.00232182213881)
(1.39611564625e-05 1.63455793105e-05 -0.00239078902729)
(1.26990702921e-05 1.71365247662e-05 -0.00245808211583)
(1.09207644897e-05 1.79456344961e-05 -0.00251945401864)
(8.62561609889e-06 1.86619741964e-05 -0.00257098652761)
(5.89687249514e-06 1.92094484964e-05 -0.00260975203563)
(2.86000848494e-06 1.95406931266e-05 -0.00263374305285)
(-3.36348641719e-07 1.96284400695e-05 -0.0026417765618)
(-3.53160883143e-06 1.94638766937e-05 -0.00263345031456)
(-6.56576480886e-06 1.90572741211e-05 -0.00260918081753)
(-9.29109280137e-06 1.84373292148e-05 -0.002570158199)
(-1.15830260578e-05 1.76537198212e-05 -0.00251839671628)
(-1.33580308471e-05 1.67860821544e-05 -0.00245682491504)
(-1.46134990038e-05 1.59481173234e-05 -0.00238931987291)
(-1.55926113084e-05 1.52177813642e-05 -0.00232008573308)
(1.43347025722e-05 1.4955813675e-05 -0.00243889305761)
(1.31745913612e-05 1.5547175727e-05 -0.00250499171109)
(1.18302338711e-05 1.6178601912e-05 -0.00256988239229)
(1.005458341e-05 1.68196793093e-05 -0.00262922285307)
(7.86306242465e-06 1.73757831098e-05 -0.00267903918434)
(5.32726202938e-06 1.77931887511e-05 -0.00271646825328)
(2.54816156954e-06 1.80406616116e-05 -0.0027395970971)
(-3.56560577828e-07 1.8100780239e-05 -0.00274731682192)
(-3.2599277821e-06 1.79680016255e-05 -0.00273925645028)
(-6.0354247131e-06 1.7649372122e-05 -0.00271580377046)
(-8.56595174643e-06 1.71636702525e-05 -0.00267807719963)
(-1.07511184044e-05 1.65442376561e-05 -0.00262799974554)
(-1.25193062815e-05 1.58478082095e-05 -0.00256843823415)
(-1.3852948468e-05 1.51709672056e-05 -0.0025033178996)
(-1.49935900668e-05 1.45450027433e-05 -0.00243693597812)
(1.35249038953e-05 1.40998668871e-05 -0.00253719908303)
(1.22341502331e-05 1.46030858432e-05 -0.00259961505272)
(1.08338476594e-05 1.50911637733e-05 -0.00266123469102)
(9.09090586915e-06 1.55780157025e-05 -0.00271756573588)
(7.03224465052e-06 1.59897558963e-05 -0.00276469753175)
(4.71545080236e-06 1.62925976499e-05 -0.0027999832297)
(2.21684335996e-06 1.6467952753e-05 -0.00282172038449)
(-3.75537994954e-07 1.65049642535e-05 -0.00282894236532)
(-2.96629958166e-06 1.6400703653e-05 -0.00282133120352)
(-5.46045508239e-06 1.61594546846e-05 -0.00279922336265)
(-7.77034192861e-06 1.57933066837e-05 -0.0027635969465)
(-9.81998394515e-06 1.53226579958e-05 -0.00271616783293)
(-1.15519840409e-05 1.47837807862e-05 -0.00265959029513)
(-1.29380694349e-05 1.42518907809e-05 -0.00259771781068)
(-1.42090929697e-05 1.37116373808e-05 -0.00253499584387)
(1.26023336996e-05 1.31618761929e-05 -0.00261894304724)
(1.12076615169e-05 1.3583921736e-05 -0.00267743000706)
(9.77501912661e-06 1.3935549705e-05 -0.00273519383484)
(8.08970367894e-06 1.42774475732e-05 -0.00278758957741)
(6.18319811335e-06 1.45599521826e-05 -0.00283103308973)
(4.09727777137e-06 1.47643427037e-05 -0.00286332216263)
(1.88457609703e-06 1.48792754804e-05 -0.00288310670014)
(-3.93446115131e-07 1.48981274959e-05 -0.002889636509)
(-2.66965926749e-06 1.48184896493e-05 -0.00288266904188)
(-4.87723175292e-06 1.46438367351e-05 -0.00286246560804)
(-6.95493959267e-06 1.43818961639e-05 -0.00282978887209)
(-8.85037070982e-06 1.40452901893e-05 -0.00278600556018)
(-1.0522040215e-05 1.36546855913e-05 -0.00273333136895)
(-1.19375985327e-05 1.32606998546e-05 -0.00267528717309)
(-1.33120493243e-05 1.27999901273e-05 -0.00261646702973)
(1.16179183472e-05 1.21928389719e-05 -0.00268714724425)
(1.01527348346e-05 1.25282169658e-05 -0.00274231644807)
(8.71632606747e-06 1.27348229867e-05 -0.00279576722465)
(7.11003847202e-06 1.29384980062e-05 -0.00284314005779)
(5.36532867606e-06 1.31067492335e-05 -0.00288172385691)
(3.50740817477e-06 1.32283162581e-05 -0.00291005061835)
(1.56925728715e-06 1.32943921886e-05 -0.0029272614864)
(-4.10299761502e-07 1.32992627798e-05 -0.00293288660985)
(-2.38790778258e-06 1.32408457922e-05 -0.00292677699234)
(-4.32036672118e-06 1.31219475479e-05 -0.00290909860241)
(-6.16913498905e-06 1.29490089311e-05 -0.00288033305633)
(-7.90147900884e-06 1.2731688172e-05 -0.00284135733344)
(-9.49237023504e-06 1.2482596711e-05 -0.00279366201568)
(-1.09095057979e-05 1.22343914465e-05 -0.00273990176889)
(-1.23541276076e-05 1.18581765844e-05 -0.00268438238551)
(1.06141155931e-05 1.13200116564e-05 -0.00274646811291)
(9.14706353485e-06 1.14491967388e-05 -0.00280015700957)
(7.73319724074e-06 1.14967248536e-05 -0.00284809180605)
(6.2182531293e-06 1.15663856608e-05 -0.00288880441288)
(4.63011471317e-06 1.16290431265e-05 -0.00292105370233)
(2.98103604607e-06 1.16758576312e-05 -0.00294430577077)
(1.28861718056e-06 1.1698736411e-05 -0.00295825890889)
(-4.25944089616e-07 1.1691901649e-05 -0.00296275093189)
(-2.13845491053e-06 1.16535160067e-05 -0.00295773357164)
(-3.8247985627e-06 1.15858126975e-05 -0.00294326840041)
(-5.46392125594e-06 1.14946936097e-05 -0.00291952605152)
(-7.03852318181e-06 1.1388862582e-05 -0.00288682289282)
(-8.53705291056e-06 1.12774854256e-05 -0.0028457258219)
(-9.92973322931e-06 1.11890881588e-05 -0.00279740875403)
(-1.13786041124e-05 1.10159457798e-05 -0.0027434819953)
(-5.27743005305e-08 -9.99512539002e-08 -0.000196107541903)
(-5.0045678654e-08 -1.20185699828e-07 -0.000206797672719)
(-5.47966100373e-08 -1.32824599066e-07 -0.000217094789166)
(-5.58283396757e-08 -1.45429503339e-07 -0.000226349673153)
(-5.12327607451e-08 -1.57626802344e-07 -0.000234048851274)
(-4.1157576631e-08 -1.67800985011e-07 -0.000239809712635)
(-2.72144635164e-08 -1.74814948245e-07 -0.000243370520074)
(-1.15339410234e-08 -1.77648813361e-07 -0.000244575485736)
(4.49017101196e-09 -1.75750794959e-07 -0.000243350536939)
(1.97228345031e-08 -1.69131645716e-07 -0.000239769790467)
(3.29602614239e-08 -1.58270582304e-07 -0.000233989129024)
(4.32229116954e-08 -1.44161876205e-07 -0.000226270190271)
(4.98769870364e-08 -1.2805897717e-07 -0.000216994469833)
(5.43036564127e-08 -1.10484531845e-07 -0.000206670810613)
(6.32541411057e-08 -8.73923212548e-08 -0.000195933740222)
(-2.434800142e-07 -3.38184962008e-07 -0.000557429563838)
(-2.32579205449e-07 -4.02839345617e-07 -0.000585960730824)
(-2.32402259391e-07 -4.5551134075e-07 -0.000613575419362)
(-2.20295240314e-07 -5.07392257715e-07 -0.000638468450732)
(-1.89678058488e-07 -5.55192119186e-07 -0.00065921789279)
(-1.41211398986e-07 -5.93669214885e-07 -0.000674763530733)
(-7.97134024573e-08 -6.18837630881e-07 -0.000684376890581)
(-1.18322974341e-08 -6.27706985432e-07 -0.000687622325837)
(5.64314314946e-08 -6.18953707965e-07 -0.000684314300763)
(1.19469747417e-07 -5.93160918357e-07 -0.000674638661154)
(1.71994541328e-07 -5.5265344999e-07 -0.000659031520824)
(2.10253840404e-07 -5.01393056236e-07 -0.00063822133291)
(2.32992243224e-07 -4.44162358202e-07 -0.000613265331213)
(2.45846618035e-07 -3.83984988972e-07 -0.00058557218827)
(2.64634741134e-07 -3.15396944675e-07 -0.000556915437961)
(-4.9176067011e-07 -6.37945093652e-07 -0.000885491376801)
(-4.80793553696e-07 -7.45466922544e-07 -0.00092850871826)
(-4.77243607756e-07 -8.42677740807e-07 -0.000970272051721)
(-4.48797014725e-07 -9.38440785083e-07 -0.00100800602152)
(-3.83585775966e-07 -1.0262827824e-06 -0.00103950891613)
(-2.83092915213e-07 -1.09685992922e-06 -0.00106313558508)
(-1.56370700664e-07 -1.1425808088e-06 -0.00107775179901)
(-1.61841064641e-08 -1.15787605012e-06 -0.00108267920216)
(1.24572461806e-07 -1.14032478791e-06 -0.00107764730553)
(2.53559797389e-07 -1.09128202927e-06 -0.00106292728558)
(3.59832841592e-07 -1.015541819e-06 -0.001039198344)
(4.36094455895e-07 -9.20856517573e-07 -0.00100759469021)
(4.80625784437e-07 -8.16478687726e-07 -0.000969757239758)
(5.03409561499e-07 -7.09115231038e-07 -0.000927868408086)
(5.27290696007e-07 -5.96608715724e-07 -0.000884659325488)
(-7.35631145255e-07 -9.09158512018e-07 -0.00118211741911)
(-7.22124438783e-07 -1.04690640348e-06 -0.0012365576669)
(-7.10610087629e-07 -1.17945836078e-06 -0.0012895408702)
(-6.623493028e-07 -1.31096576366e-06 -0.0013375210227)
(-5.61564508756e-07 -1.43179900549e-06 -0.00137764257723)
(-4.10311950708e-07 -1.5288512267e-06 -0.00140776456598)
(-2.21139047503e-07 -1.59135033428e-06 -0.00142640661378)
(-1.21056560682e-08 -1.61165507125e-06 -0.00143268422145)
(1.97518861648e-07 -1.58665872609e-06 -0.0014262604456)
(3.89019066429e-07 -1.51849528794e-06 -0.0014074734915)
(5.46142719707e-07 -1.41418119438e-06 -0.00137720914483)
(6.58343412781e-07 -1.28470064395e-06 -0.00133694789057)
(7.23627705e-07 -1.14318274207e-06 -0.00128882601417)
(7.55674969485e-07 -9.99684020498e-07 -0.00123567633267)
(7.83101606022e-07 -8.56044653005e-07 -0.001180993582)
(-9.56687959074e-07 -1.14211394679e-06 -0.00144891782291)
(-9.37969386422e-07 -1.2991429103e-06 -0.001511969725)
(-9.15174531234e-07 -1.45593713256e-06 -0.00157347332262)
(-8.45676854303e-07 -1.61228947558e-06 -0.00162930072359)