/*--------------------------------*- C++ -*----------------------------------*\
  =========                 |
  \\      /  F ield         | OpenFOAM: The Open Source CFD Toolbox
   \\    /   O peration     | Website:  https://openfoam.org
    \\  /    A nd           | Version:  7
     \\/     M anipulation  |
\*---------------------------------------------------------------------------*/
FoamFile
{
    version     2.0;
    format      ascii;
    class       volScalarField;
    location    "2";
    object      p;
}
// * * * * * * * * * * * * * * * * * * * * * * * * * * * * * * * * * * * * * //

dimensions      [0 2 -2 0 0 0 0];

internalField   nonuniform List<scalar> 
22500
(
8.32018050884e-06
8.31830479257e-06
8.31823593234e-06
8.31783043478e-06
8.31762347537e-06
8.31746207945e-06
8.31736844289e-06
8.317331815e-06
8.31736528282e-06
8.3174557187e-06
8.31761349069e-06
8.31781663993e-06
8.31821739926e-06
8.318283054e-06
8.32015160625e-06
8.29105797954e-06
8.2876778192e-06
8.2863542634e-06
8.28485767082e-06
8.28376876998e-06
8.28296065823e-06
8.28247264896e-06
8.28230435304e-06
8.2824689099e-06
8.28295313267e-06
8.28375713564e-06
8.28484170263e-06
8.2863334121e-06
8.28765361032e-06
8.29102669184e-06
8.26286723589e-06
8.25808710042e-06
8.25568159116e-06
8.25321347817e-06
8.25135410262e-06
8.24998067201e-06
8.24914902235e-06
8.24886603679e-06
8.24914547094e-06
8.24997351916e-06
8.25134309382e-06
8.25319833937e-06
8.25566182869e-06
8.25806395808e-06
8.26283643234e-06
8.23766476088e-06
8.23171403068e-06
8.2284414197e-06
8.22520848036e-06
8.22274414399e-06
8.22093029305e-06
8.21983170331e-06
8.21945986604e-06
8.21982849704e-06
8.22092381681e-06
8.22273419823e-06
8.22519480558e-06
8.22842343049e-06
8.23169280284e-06
8.2376353353e-06
8.21406056032e-06
8.20709508862e-06
8.20308293538e-06
8.19922532251e-06
8.19626458984e-06
8.19409326332e-06
8.1927786752e-06
8.19233517443e-06
8.19277573279e-06
8.19408732036e-06
8.19625547132e-06
8.19921280941e-06
8.20306643578e-06
8.20707558364e-06
8.21403275738e-06
8.19175749442e-06
8.18393572088e-06
8.17930303927e-06
8.17495079515e-06
8.17159493833e-06
8.16914290511e-06
8.16765928992e-06
8.16715990256e-06
8.16765656363e-06
8.16913738674e-06
8.17158649112e-06
8.1749392262e-06
8.17928787642e-06
8.18391766972e-06
8.19173110954e-06
8.17086966774e-06
8.1623623855e-06
8.1572290516e-06
8.15250941888e-06
8.14885784315e-06
8.1461993476e-06
8.14459198097e-06
8.14405183332e-06
8.14458939219e-06
8.14619411147e-06
8.14884985215e-06
8.15249852019e-06
8.15721489355e-06
8.16234554347e-06
8.17084439863e-06
8.15142867533e-06
8.14240303124e-06
8.13687882545e-06
8.13190698315e-06
8.12804940563e-06
8.1252503256e-06
8.1235592354e-06
8.12299165505e-06
8.12355671037e-06
8.12524523424e-06
8.12804165762e-06
8.13189648258e-06
8.13686534944e-06
8.14238699611e-06
8.15140412743e-06
8.13339108008e-06
8.12400402776e-06
8.11818763594e-06
8.11306459057e-06
8.10907943684e-06
8.10619616549e-06
8.10445542241e-06
8.10387171171e-06
8.10445288339e-06
8.10619105826e-06
8.1090717032e-06
8.11305416498e-06
8.11817445175e-06
8.12398830785e-06
8.13336678711e-06
8.11669274385e-06
8.10709010512e-06
8.10107310504e-06
8.09588742431e-06
8.09184309483e-06
8.08892347558e-06
8.08716181293e-06
8.08657146432e-06
8.0871591832e-06
8.08891819856e-06
8.09183513631e-06
8.09587676395e-06
8.10105978984e-06
8.10707418155e-06
8.11666807659e-06
8.10126139374e-06
8.09157975909e-06
8.0854523779e-06
8.08028230176e-06
8.07623790883e-06
8.07332198682e-06
8.07156326809e-06
8.07097416473e-06
8.0715604762e-06
8.07331639547e-06
8.07622949836e-06
8.0802710768e-06
8.08543849363e-06
8.09156307346e-06
8.10123567104e-06
8.08700444022e-06
8.07739048529e-06
8.07125330953e-06
8.06616766861e-06
8.06217183965e-06
8.05929143219e-06
8.05755468062e-06
8.05697309051e-06
8.05755166924e-06
8.05928538391e-06
8.06216274977e-06
8.06615554635e-06
8.07123838427e-06
8.07737244201e-06
8.08697702187e-06
8.07377036804e-06
8.06445712048e-06
8.05843798716e-06
8.05348913708e-06
8.04957485522e-06
8.04675222482e-06
8.04505135292e-06
8.04448212865e-06
8.04504805398e-06
8.04674562314e-06
8.04956487802e-06
8.05347578424e-06
8.05842150908e-06
8.0644370719e-06
8.07374051879e-06
8.06155441723e-06
8.05284042774e-06
8.0470013836e-06
8.04219957581e-06
8.03837824735e-06
8.03562909445e-06
8.03397661306e-06
8.03342411798e-06
8.03397300899e-06
8.03562184003e-06
8.03836720105e-06
8.04218462795e-06
8.04698280205e-06
8.05281760293e-06
8.06152170342e-06
8.05174190069e-06
8.04236302684e-06
8.03669746054e-06
8.03199183549e-06
8.02828381315e-06
8.02564330894e-06
8.02406475686e-06
8.0235382204e-06
8.02406078785e-06
8.02563531382e-06
8.02827155403e-06
8.03197501426e-06
8.03667596713e-06
8.04233635283e-06
8.05170690811e-06
5.146203387e-06
5.14702851516e-06
5.1476626795e-06
5.1482398424e-06
5.14872152747e-06
5.14908387947e-06
5.14931030429e-06
5.14938773645e-06
5.14931190177e-06
5.14908674567e-06
5.14872484469e-06
5.148242669e-06
5.14766525724e-06
5.14703097784e-06
5.14620623474e-06
5.14960516427e-06
5.15055254018e-06
5.15130998258e-06
5.1519991732e-06
5.15257696576e-06
5.15301215109e-06
5.15328418923e-06
5.15337729738e-06
5.15328579738e-06
5.1530150076e-06
5.15258021848e-06
5.15200177243e-06
5.15131190496e-06
5.15055446164e-06
5.14960739387e-06
5.15349936595e-06
5.15469467362e-06
5.15565995866e-06
5.15654493947e-06
5.1572911982e-06
5.15785472917e-06
5.15820730232e-06
5.15832792123e-06
5.15820887823e-06
5.15785756365e-06
5.1572945555e-06
5.15654789899e-06
5.15566225864e-06
5.15469720552e-06
5.15350188531e-06
5.15813463057e-06
5.15976565499e-06
5.1610751439e-06
5.16227700623e-06
5.1632929172e-06
5.16406084475e-06
5.16454110572e-06
5.16470518406e-06
5.16454264609e-06
5.16406366333e-06
5.16329641795e-06
5.16228042705e-06
5.16107807129e-06
5.15976888149e-06
5.15813754193e-06
5.16395577903e-06
5.16620841436e-06
5.16799261752e-06
5.16962295029e-06
5.1709984914e-06
5.17203675031e-06
5.17268483766e-06
5.1729058469e-06
5.17268635223e-06
5.17203954561e-06
5.17100207271e-06
5.16962665807e-06
5.16799602557e-06
5.16621214107e-06
5.1639589777e-06
5.17102638253e-06
5.17404502959e-06
5.17639644867e-06
5.17852973942e-06
5.18032204322e-06
5.18167075193e-06
5.18251031515e-06
5.18279604128e-06
5.18251175702e-06
5.18167343282e-06
5.18032555441e-06
5.17853352352e-06
5.17640007281e-06
5.1740491127e-06
5.17102953049e-06
5.17921545039e-06
5.18309109505e-06
5.1860584594e-06
5.18872744813e-06
5.19095794534e-06
5.1926299162e-06
5.19366743396e-06
5.19401981337e-06
5.19366877419e-06
5.19263242294e-06
5.1909612693e-06
5.18873112139e-06
5.18606204407e-06
5.18309525984e-06
5.17921835265e-06
5.18832473774e-06
5.19309232379e-06
5.19668329756e-06
5.19988221392e-06
5.20254028071e-06
5.20452431808e-06
5.20575138878e-06
5.20616731168e-06
5.20575259058e-06
5.20452657213e-06
5.2025432975e-06
5.19988560024e-06
5.19668666944e-06
5.19309628448e-06
5.18832728328e-06
5.19813080063e-06
5.20377208107e-06
5.20795884078e-06
5.21164961493e-06
5.21469857467e-06
5.21696441692e-06
5.21836103252e-06
5.218833496e-06
5.21836208178e-06
5.21696638267e-06
5.21470121328e-06
5.21165258143e-06
5.20796181832e-06
5.20377562516e-06
5.19813270304e-06
5.20840574725e-06
5.21485595718e-06
5.21958151504e-06
5.22370148733e-06
5.22708546355e-06
5.22958914775e-06
5.23112711336e-06
5.23164639065e-06
5.23112800253e-06
5.2295908077e-06
5.22708768356e-06
5.2237039697e-06
5.21958399787e-06
5.21485894198e-06
5.20840689008e-06
5.21893214865e-06
5.2260873705e-06
5.23127178616e-06
5.23574188185e-06
5.23939260495e-06
5.24208159263e-06
5.24372769061e-06
5.24428241887e-06
5.24372843714e-06
5.24208297898e-06
5.23939443521e-06
5.23574387336e-06
5.23127372437e-06
5.22608970306e-06
5.21893234985e-06
5.22950187668e-06
5.23722873716e-06
5.24277827796e-06
5.24751297517e-06
5.25135710942e-06
5.254175249e-06
5.2558942287e-06
5.25647236508e-06
5.25589487635e-06
5.25417643213e-06
5.25135865016e-06
5.24751457291e-06
5.24277973744e-06
5.23723039912e-06
5.22950113286e-06
5.23991034176e-06
5.24807207509e-06
5.25389315938e-06
5.25880686084e-06
5.26276920617e-06
5.26565861435e-06
5.26741424854e-06
5.26800352636e-06
5.26741484951e-06
5.26565973613e-06
5.26277062118e-06
5.25880827053e-06
5.2538943099e-06
5.24807321544e-06
5.2399087753e-06
5.25013352708e-06
5.25861153353e-06
5.26455020548e-06
5.26952405117e-06
5.27349980046e-06
5.27638166626e-06
5.27812591697e-06
5.27871015495e-06
5.27812654905e-06
5.27638283071e-06
5.27350129342e-06
5.26952547467e-06
5.26455130778e-06
5.25861225205e-06
5.2501314232e-06
5.26104776902e-06
5.26889938815e-06
5.274689632e-06
5.27954595182e-06
5.28337806832e-06
5.28613810496e-06
5.28780258831e-06
5.28835913129e-06
5.28780323801e-06
5.28613935359e-06
5.28337969081e-06
5.27954756274e-06
5.27469073454e-06
5.26889967715e-06
5.26104554626e-06
6.01984057055e-06
6.01965087824e-06
6.01942677282e-06
6.01917218874e-06
6.01893469117e-06
6.01874184868e-06
6.01861592228e-06
6.01857084284e-06
6.01861227279e-06
6.01873483801e-06
6.0189249519e-06
6.01916040406e-06
6.01941193815e-06
6.01963483611e-06
6.01982258579e-06
6.02023620062e-06
6.02006672009e-06
6.01985827383e-06
6.01961752541e-06
6.01939048604e-06
6.019204929e-06
6.01908316239e-06
6.0190393758e-06
6.0190794144e-06
6.01919772036e-06
6.0193804677e-06
6.01960536426e-06
6.01984329217e-06
6.02005019754e-06
6.02021788379e-06
6.02085694825e-06
6.02071755929e-06
6.02053762265e-06
6.02032015909e-06
6.02011131587e-06
6.01993876255e-06
6.01982479432e-06
6.01978363075e-06
6.01982113501e-06
6.01993169826e-06
6.02010141602e-06
6.02030802692e-06
6.02052288273e-06
6.02070118456e-06
6.0208387653e-06
6.02131550991e-06
6.02118859187e-06
6.02102403949e-06
6.02081844757e-06
6.02061886042e-06
6.02045295847e-06
6.02034305303e-06
6.02030331761e-06
6.02033954735e-06
6.02044615606e-06
6.02060921343e-06
6.02080650095e-06
6.02100966149e-06
6.02117267983e-06
6.02129747365e-06
6.02161114008e-06
6.02148820331e-06
6.02133268566e-06
6.02113484935e-06
6.02094225194e-06
6.02078193453e-06
6.02067565756e-06
6.02063723578e-06
6.0206722952e-06
6.0207753961e-06
6.02093292136e-06
6.02112320625e-06
6.02131869671e-06
6.02147279992e-06
6.02159332641e-06
6.02181862768e-06
6.02170360858e-06
6.0215604446e-06
6.02137540294e-06
6.02119514019e-06
6.02104503585e-06
6.02094551019e-06
6.02090950446e-06
6.02094230326e-06
6.02103878288e-06
6.02118615931e-06
6.02136412067e-06
6.02154692259e-06
6.02168864108e-06
6.02180119369e-06
6.02199522734e-06
6.02190001831e-06
6.02177859288e-06
6.02161643422e-06
6.02145792888e-06
6.02132562398e-06
6.02123775235e-06
6.02120585971e-06
6.02123469915e-06
6.02131966298e-06
6.02144932954e-06
6.02160556599e-06
6.02176557808e-06
6.02188553117e-06
6.02197814229e-06
6.02218537984e-06
6.02212685668e-06
6.02203948268e-06
6.0219122314e-06
6.0217861505e-06
6.02167993595e-06
6.02160897962e-06
6.02158300342e-06
6.02160607688e-06
6.02167426019e-06
6.02177792329e-06
6.02190176489e-06
6.02202693942e-06
6.02211283787e-06
6.02216858682e-06
6.02242513413e-06
6.02242192355e-06
6.02238119643e-06
6.0223002165e-06
6.02221625736e-06
6.02214345911e-06
6.02209397264e-06
6.02207545891e-06
6.02209121527e-06
6.02213805718e-06
6.02220839684e-06
6.02229014968e-06
6.02236908925e-06
6.02240832952e-06
6.02240863327e-06
6.02274087923e-06
6.0228099482e-06
6.02282642439e-06
6.02280034982e-06
6.02276551393e-06
6.02273124089e-06
6.02270633571e-06
6.02269632723e-06
6.02270371225e-06
6.02272609276e-06
6.02275798741e-06
6.02279064329e-06
6.02281469957e-06
6.02279670031e-06
6.02272463576e-06
6.02314818466e-06
6.02330196514e-06
6.02338238376e-06
6.02341584348e-06
6.0234335412e-06
6.02344013697e-06
6.02344115457e-06
6.02344009778e-06
6.02343865898e-06
6.02343523091e-06
6.02342633826e-06
6.02340648157e-06
6.02337102006e-06
6.02328903223e-06
6.02313216792e-06
6.02364933315e-06
6.02389451433e-06
6.02404146365e-06
6.02413516961e-06
6.02420544298e-06
6.02425271065e-06
6.02427945708e-06
6.02428725149e-06
6.02427708919e-06
6.02424804019e-06
6.02419855212e-06
6.02412615164e-06
6.02403044976e-06
6.02388191e-06
6.02363360375e-06
6.02423642442e-06
6.02457633949e-06
6.02478835622e-06
6.02493850007e-06
6.02505792671e-06
6.02514337328e-06
6.02519422839e-06
6.02521036556e-06
6.02519198812e-06
6.02513894751e-06
6.02505137564e-06
6.02492984905e-06
6.02477772675e-06
6.02456408066e-06
6.02422102211e-06
6.02495936938e-06
6.02539012281e-06
6.02563518436e-06
6.0258205633e-06
6.02597350484e-06
6.02608609625e-06
6.0261544864e-06
6.026176678e-06
6.02615237494e-06
6.02608194412e-06
6.02596730943e-06
6.02581233796e-06
6.02562499178e-06
6.02537821885e-06
6.02494447356e-06
6.02614151391e-06
6.02636839558e-06
6.02656372081e-06
6.02673726472e-06
6.02688996741e-06
6.02700598148e-06
6.02707745575e-06
6.02710090445e-06
6.02707546544e-06
6.02700204459e-06
6.02688410998e-06
6.02672941824e-06
6.02655386189e-06
6.02635660275e-06
6.02612708227e-06
4.70389951714e-06
4.70406786641e-06
4.70427187374e-06
4.70447795147e-06
4.70466329146e-06
4.70480870174e-06
4.7049012995e-06
4.70493307894e-06
4.70490091919e-06
4.70480775462e-06
4.70466134244e-06
4.70447415815e-06
4.70426614743e-06
4.70405983025e-06
4.70389160725e-06
4.70412044615e-06
4.70429009577e-06
4.70449810119e-06
4.70470801479e-06
4.7048978563e-06
4.70504730769e-06
4.7051427637e-06
4.70517564209e-06
4.70514253753e-06
4.70504665306e-06
4.7048962881e-06
4.70470463352e-06
4.70449252645e-06
4.70428225371e-06
4.70411211027e-06
4.70419458828e-06
4.70435507067e-06
4.70455672464e-06
4.70476076553e-06
4.70494697631e-06
4.70509414177e-06
4.70518841051e-06
4.70522089492e-06
4.70518807477e-06
4.70509328923e-06
4.70494517202e-06
4.70475727405e-06
4.70455106781e-06
4.70434752461e-06
4.70418621045e-06
4.70424421547e-06
4.70439740293e-06
4.70459408396e-06
4.70479227904e-06
4.70497431345e-06
4.7051185452e-06
4.70521110531e-06
4.7052429785e-06
4.70521061431e-06
4.7051174059e-06
4.70497215441e-06
4.70478852163e-06
4.70458832137e-06
4.70438997575e-06
4.70423588133e-06
4.70429908732e-06
4.70444642527e-06
4.70463987086e-06
4.70483257189e-06
4.70501024848e-06
4.70515125523e-06
4.70524183385e-06
4.70527301106e-06
4.70524123271e-06
4.70514991376e-06
4.70500786645e-06
4.70482865693e-06
4.70463413697e-06
4.70443913019e-06
4.70429084295e-06
4.70434918086e-06
4.70449044515e-06
4.7046815171e-06
4.7048683206e-06
4.70504105533e-06
4.7051782287e-06
4.70526640366e-06
4.70529672352e-06
4.70526569543e-06
4.70517669649e-06
4.70503844599e-06
4.70486425135e-06
4.70467574864e-06
4.70448338104e-06
4.70434088518e-06
4.70438951419e-06
4.70452535193e-06
4.70471503157e-06
4.70489623129e-06
4.70506406872e-06
4.70519738016e-06
4.7052830966e-06
4.70531254077e-06
4.70528230489e-06
4.70519570643e-06
4.70506130486e-06
4.70489208786e-06
4.70470929036e-06
4.70451853043e-06
4.70438127213e-06
4.70442269567e-06
4.70455538834e-06
4.70474557039e-06
4.70492265717e-06
4.70508659408e-06
4.70521676701e-06
4.70530043481e-06
4.70532914614e-06
4.7052995727e-06
4.70521496954e-06
4.70508370649e-06
4.7049184639e-06
4.7047399319e-06
4.70454880035e-06
4.70441465221e-06
4.70445454396e-06
4.70458795845e-06
4.7047814283e-06
4.70495672929e-06
4.70511849266e-06
4.70524679486e-06
4.70532918029e-06
4.70535741984e-06
4.70532827236e-06
4.70524492254e-06
4.70511554824e-06
4.70495255749e-06
4.7047759544e-06
4.70458165199e-06
4.70444668958e-06
4.70449194683e-06
4.70463164129e-06
4.70483153764e-06
4.70500769507e-06
4.70516920453e-06
4.70529699878e-06
4.70537891691e-06
4.70540695245e-06
4.70537798158e-06
4.70529509092e-06
4.70516624932e-06
4.70500360157e-06
4.70482627793e-06
4.70462566778e-06
4.70448434311e-06
4.70454240347e-06
4.70469502856e-06
4.70490406147e-06
4.70508326508e-06
4.70524600032e-06
4.70537432248e-06
4.70545635559e-06
4.70548439012e-06
4.70545542214e-06
4.70537242852e-06
4.70524310276e-06
4.70507929803e-06
4.70489904423e-06
4.70468936548e-06
4.70453502397e-06
4.7046112352e-06
4.70478412682e-06
4.70500428117e-06
4.70518796818e-06
4.70535286292e-06
4.70548227644e-06
4.70556474037e-06
4.70559285725e-06
4.7055638357e-06
4.70548044946e-06
4.70535007509e-06
4.70518418935e-06
4.70499953067e-06
4.70477875461e-06
4.70460405256e-06
4.70470102325e-06
4.70490203511e-06
4.70513443898e-06
4.70532317542e-06
4.70549077979e-06
4.70562170294e-06
4.7057047312e-06
4.70573300906e-06
4.70570388059e-06
4.70561997683e-06
4.70548817321e-06
4.7053196209e-06
4.70512998067e-06
4.70489693582e-06
4.70469405328e-06
4.70485083958e-06
4.70508535078e-06
4.70531466302e-06
4.70549978698e-06
4.70566459342e-06
4.705792962e-06
4.70587408974e-06
4.70590160923e-06
4.70587329878e-06
4.70579139366e-06
4.70566218827e-06
4.70549651625e-06
4.70531050844e-06
4.70508047669e-06
4.70484404518e-06
4.70533123347e-06
4.70545563496e-06
4.70561175801e-06
4.70574719311e-06
4.70587515268e-06
4.7059762717e-06
4.70604034975e-06
4.70606208889e-06
4.70603962895e-06
4.70597481655e-06
4.70587295398e-06
4.70574415755e-06
4.70560782399e-06
4.70545082016e-06
4.70532473714e-06
4.73087845234e-06
4.73080061186e-06
4.73071558259e-06
4.73062014831e-06
4.73053344262e-06
4.73046370427e-06
4.73041808202e-06
4.73040147734e-06
4.7304160293e-06
4.73045997229e-06
4.73052875186e-06
4.73061457612e-06
4.73070847192e-06
4.73079333349e-06
4.73086945063e-06
4.73098682896e-06
4.73091588192e-06
4.73083530977e-06
4.73074346903e-06
4.73065923461e-06
4.73059095499e-06
4.7305460968e-06
4.73052971334e-06
4.73054402183e-06
4.73058716965e-06
4.7306544349e-06
4.73073782695e-06
4.73082822292e-06
4.73090829131e-06
4.73097763601e-06
4.73118412629e-06
4.73112442649e-06
4.73105413688e-06
4.73097022474e-06
4.73089188968e-06
4.73082755608e-06
4.73078502579e-06
4.73076942998e-06
4.73078300026e-06
4.73082381731e-06
4.73088704366e-06
4.73096449633e-06
4.73104716327e-06
4.73111684758e-06
4.73117511377e-06
4.73135013872e-06
4.73129633631e-06
4.73123307608e-06
4.73115401425e-06
4.73107915946e-06
4.73101698816e-06
4.73097571849e-06
4.73096056993e-06
4.73097377106e-06
4.73101334423e-06
4.73107430837e-06
4.73114825624e-06
4.73122624291e-06
4.73128898513e-06
4.73134130663e-06
4.73147563655e-06
4.73142351409e-06
4.73136431393e-06
4.73128750992e-06
4.73121420384e-06
4.73115290529e-06
4.73111210977e-06
4.7310971441e-06
4.73111024311e-06
4.73114938432e-06
4.73120944654e-06
4.73128183799e-06
4.7313576646e-06
4.73141647901e-06
4.73146700624e-06
4.7315733496e-06
4.7315209811e-06
4.7314642427e-06
4.73138856185e-06
4.73131603749e-06
4.73125516421e-06
4.73121461351e-06
4.73119976429e-06
4.73121284257e-06
4.73125180065e-06
4.7313114284e-06
4.73138304343e-06
4.73145783754e-06
4.73151416822e-06
4.73156505489e-06
4.73165093663e-06
4.73159736075e-06
4.73154263108e-06
4.73146786663e-06
4.73139613456e-06
4.73133586665e-06
4.73129571918e-06
4.73128105194e-06
4.73129405199e-06
4.73133268682e-06
4.73139173768e-06
4.73146257291e-06
4.73153653588e-06
4.73159082783e-06
4.73164293182e-06
4.73171358952e-06
4.73165906078e-06
4.73160676972e-06
4.73153348379e-06
4.73146322e-06
4.73140423881e-06
4.73136498341e-06
4.73135067798e-06
4.73136342624e-06
4.73140125745e-06
4.73145905852e-06
4.73152842946e-06
4.73160095695e-06
4.73165280476e-06
4.73170579485e-06
4.73176681127e-06
4.73171285716e-06
4.73166419821e-06
4.73159368607e-06
4.73152619137e-06
4.73146965836e-06
4.73143208075e-06
4.73141841828e-06
4.73143063701e-06
4.73146688295e-06
4.73152228867e-06
4.7315889e-06
4.73165866554e-06
4.73170687259e-06
4.73175923297e-06
4.73181663685e-06
4.73176589345e-06
4.73172258626e-06
4.73165663424e-06
4.73159361454e-06
4.73154100255e-06
4.73150610482e-06
4.73149343313e-06
4.73150477014e-06
4.73153842911e-06
4.73158996028e-06
4.73165210069e-06
4.73171730115e-06
4.73176012289e-06
4.73180926479e-06
4.73186898283e-06
4.7318248093e-06
4.7317887414e-06
4.73172927062e-06
4.73167259008e-06
4.73162553607e-06
4.73159440717e-06
4.73158311857e-06
4.73159317671e-06
4.7316231516e-06
4.73166918147e-06
4.73172498239e-06
4.73178370167e-06
4.7318192403e-06
4.73186181107e-06
4.73192847323e-06
4.73189460368e-06
4.73186744024e-06
4.73181620504e-06
4.73176778035e-06
4.73172795473e-06
4.73170176404e-06
4.73169224452e-06
4.73170062786e-06
4.73172574717e-06
4.73176458323e-06
4.73181215186e-06
4.73186262515e-06
4.73188925749e-06
4.73192154958e-06
4.73200017968e-06
4.73197961862e-06
4.73196180049e-06
4.73191985423e-06
4.73188133709e-06
4.73185043352e-06
4.73183025783e-06
4.73182294427e-06
4.73182920845e-06
4.73184836469e-06
4.73187835579e-06
4.73191599716e-06
4.73195720767e-06
4.73197447895e-06
4.73199352012e-06
4.73210841155e-06
4.73210109694e-06
4.7320837536e-06
4.73204698745e-06
4.73201684132e-06
4.7319939251e-06
4.73197938166e-06
4.73197404217e-06
4.73197838936e-06
4.73199200828e-06
4.73201400721e-06
4.73204334646e-06
4.73207934442e-06
4.73209614645e-06
4.73210207353e-06
4.73234994102e-06
4.73229074369e-06
4.73224504851e-06
4.73219835138e-06
4.73216617558e-06
4.73214372643e-06
4.7321299936e-06
4.73212507474e-06
4.7321290498e-06
4.73214186033e-06
4.73216345577e-06
4.73219477974e-06
4.7322407102e-06
4.73228574082e-06
4.73234385154e-06
4.01681482117e-06
4.01687274801e-06
4.0169417742e-06
4.01701286395e-06
4.01707742602e-06
4.01712862948e-06
4.01716172676e-06
4.01717363801e-06
4.01716310457e-06
4.01713115155e-06
4.01708060748e-06
4.01701604807e-06
4.01694456185e-06
4.01687432678e-06
4.01681668632e-06
4.0169040307e-06
4.01696265593e-06
4.01703346679e-06
4.01710605667e-06
4.01717226511e-06
4.01722492458e-06
4.01725904916e-06
4.0172713653e-06
4.01726052312e-06
4.01722762605e-06
4.01717567071e-06
4.01710945161e-06
4.0170363227e-06
4.01696436575e-06
4.01690553313e-06
4.0169458026e-06
4.01700205051e-06
4.01707149287e-06
4.01714260572e-06
4.01720796263e-06
4.01726006721e-06
4.01729388308e-06
4.01730605924e-06
4.01729522843e-06
4.01726253334e-06
4.01721107766e-06
4.0171457651e-06
4.01707413891e-06
4.0170038996e-06
4.01694721231e-06
4.01697736117e-06
4.01703223606e-06
4.01710075079e-06
4.01717060595e-06
4.01723509104e-06
4.01728657481e-06
4.01732000386e-06
4.01733199182e-06
4.01732118026e-06
4.01728873135e-06
4.01723781572e-06
4.01717338886e-06
4.01710312003e-06
4.0170340016e-06
4.01697874614e-06
4.01701051711e-06
4.01706482891e-06
4.01713313865e-06
4.01720213432e-06
4.01726593092e-06
4.01731689071e-06
4.01734996295e-06
4.01736178175e-06
4.01735099322e-06
4.01731877772e-06
4.01726832945e-06
4.0172046033e-06
4.01713532125e-06
4.01706650456e-06
4.01701186594e-06
4.01704315992e-06
4.01709696475e-06
4.0171655156e-06
4.01723357675e-06
4.01729655694e-06
4.01734683484e-06
4.01737944166e-06
4.01739104918e-06
4.01738033508e-06
4.01734847232e-06
4.01729864082e-06
4.01723573111e-06
4.0171674349e-06
4.01709860103e-06
4.01704431428e-06
4.0170732483e-06
4.01712673456e-06
4.01719561167e-06
4.01726262512e-06
4.01732460071e-06
4.01737400225e-06
4.01740600009e-06
4.01741734729e-06
4.01740676858e-06
4.01737541591e-06
4.0173264093e-06
4.01726452116e-06
4.0171973187e-06
4.01712833356e-06
4.01707426834e-06
4.0171005164e-06
4.01715402333e-06
4.01722325648e-06
4.017289139e-06
4.01734989828e-06
4.01739822847e-06
4.01742947372e-06
4.01744051624e-06
4.01743013146e-06
4.01739944094e-06
4.01735146092e-06
4.01729079839e-06
4.0172247928e-06
4.01715555282e-06
4.01710149831e-06
4.01712541586e-06
4.0171792628e-06
4.01724893811e-06
4.01731360932e-06
4.01737297106e-06
4.01742006232e-06
4.01745043442e-06
4.01746113506e-06
4.01745100006e-06
4.01742110849e-06
4.01737433889e-06
4.01731509162e-06
4.01725036559e-06
4.01718076653e-06
4.01712632355e-06
4.01714854564e-06
4.01720340171e-06
4.01727361675e-06
4.01733697409e-06
4.01739474851e-06
4.01744042054e-06
4.01746980868e-06
4.01748012751e-06
4.01747029753e-06
4.01744133423e-06
4.01739595528e-06
4.01733832142e-06
4.01727497168e-06
4.01720491231e-06
4.01714942092e-06
4.01717110875e-06
4.01722794197e-06
4.01729868652e-06
4.01736054708e-06
4.01741647564e-06
4.01746054966e-06
4.0174888262e-06
4.01749873424e-06
4.01748926097e-06
4.01746136506e-06
4.01741757619e-06
4.017361799e-06
4.01730000172e-06
4.01722945044e-06
4.01717191564e-06
4.01719413153e-06
4.01725432844e-06
4.01732555547e-06
4.01738567734e-06
4.01743956985e-06
4.01748187464e-06
4.01750897176e-06
4.01751843092e-06
4.01750936747e-06
4.01748263244e-06
4.0174405871e-06
4.01738687812e-06
4.01732684522e-06
4.01725582032e-06
4.0171948448e-06
4.01721867823e-06
4.01728399291e-06
4.01735555092e-06
4.01741373835e-06
4.01746552521e-06
4.01750616936e-06
4.01753207636e-06
4.0175411403e-06
4.01753245666e-06
4.01750686983e-06
4.01746652105e-06
4.01741488717e-06
4.01735683122e-06
4.01728545067e-06
4.01721930016e-06
4.01725971161e-06
4.01733122308e-06
4.01739755481e-06
4.01745061687e-06
4.01749849582e-06
4.0175360541e-06
4.01756002133e-06
4.01756834696e-06
4.01756037426e-06
4.01753675955e-06
4.01749944375e-06
4.01745177649e-06
4.01739880779e-06
4.01733262104e-06
4.01726016804e-06
4.0174130181e-06
4.01744360199e-06
4.01747972245e-06
4.01751130247e-06
4.01754285648e-06
4.01756831852e-06
4.01758465953e-06
4.01759040544e-06
4.01758501054e-06
4.01756897991e-06
4.01754379997e-06
4.01751241391e-06
4.01748094087e-06
4.01744487232e-06
4.01741352524e-06
3.74048591531e-06
3.74046496623e-06
3.74044390107e-06
3.7404190507e-06
3.74039574367e-06
3.74037654194e-06
3.74036401316e-06
3.74035953313e-06
3.74036367781e-06
3.74037591907e-06
3.74039492721e-06
3.74041840604e-06
3.74044381089e-06
3.74046583196e-06
3.74048541715e-06
3.74053952869e-06
3.74052136616e-06
3.74050213012e-06
3.74047879255e-06
3.740456569e-06
3.74043807222e-06
3.74042591128e-06
3.74042153515e-06
3.74042554944e-06
3.74043739726e-06
3.74045570218e-06
3.74047810327e-06
3.74050202315e-06
3.74052205482e-06
3.74053900298e-06
3.74061701779e-06
3.74060261433e-06
3.74058651468e-06
3.7405655879e-06
3.74054522269e-06
3.74052801736e-06
3.74051660405e-06
3.74051247412e-06
3.74051625525e-06
3.74052737725e-06
3.74054442265e-06
3.74056495956e-06
3.74058644961e-06
3.74060313685e-06
3.74061654132e-06
3.74068076939e-06
3.74066809035e-06
3.74065403916e-06
3.74063433762e-06
3.74061494186e-06
3.74059838321e-06
3.74058732526e-06
3.7405833172e-06
3.74058700864e-06
3.74059781969e-06
3.74061427843e-06
3.74063386653e-06
3.74065405926e-06
3.74066863923e-06
3.74068029513e-06
3.74072968792e-06
3.74071731304e-06
3.74070436707e-06
3.74068503718e-06
3.74066593622e-06
3.74064953496e-06
3.74063854445e-06
3.74063456667e-06
3.74063827095e-06
3.74064906186e-06
3.74066541382e-06
3.74068472938e-06
3.74070448357e-06
3.7407179575e-06
3.74072926581e-06
3.74076823631e-06
3.74075561291e-06
3.74074315704e-06
3.74072380653e-06
3.74070470362e-06
3.74068827429e-06
3.74067725104e-06
3.74067327666e-06
3.74067703274e-06
3.74068791319e-06
3.74070435007e-06
3.74072369153e-06
3.74074341167e-06
3.74075628141e-06
3.74076797048e-06
3.74079908579e-06
3.7407858155e-06
3.740773654e-06
3.74075419152e-06
3.7407350125e-06
3.74071853486e-06
3.74070748269e-06
3.74070351985e-06
3.74070732367e-06
3.74071828976e-06
3.74073482025e-06
3.74075424847e-06
3.74077405493e-06
3.74078652723e-06
3.74079891617e-06
3.74082402273e-06
3.74081007545e-06
3.74079827763e-06
3.74077878755e-06
3.74075964279e-06
3.74074324539e-06
3.74073226446e-06
3.74072835069e-06
3.7407321666e-06
3.74074311748e-06
3.74075960496e-06
3.74077899115e-06
3.74079877339e-06
3.74081081273e-06
3.74082384543e-06
3.74084477082e-06
3.74083056523e-06
3.74081938919e-06
3.74080016619e-06
3.7407813357e-06
3.74076526526e-06
3.74075452805e-06
3.74075072178e-06
3.74075448469e-06
3.74076523695e-06
3.74078141995e-06
3.74080047521e-06
3.74081993312e-06
3.74083129457e-06
3.74084456982e-06
3.74086321698e-06
3.74084949917e-06
3.74083931759e-06
3.7408207726e-06
3.74080263038e-06
3.74078722487e-06
3.74077696034e-06
3.74077334365e-06
3.74077696141e-06
3.74078727412e-06
3.7408028026e-06
3.74082113382e-06
3.74083985094e-06
3.74085015148e-06
3.740862946e-06
3.74088113186e-06
3.74086885758e-06
3.74086010155e-06
3.74084267947e-06
3.7408256634e-06
3.7408113074e-06
3.74080178269e-06
3.74079844379e-06
3.74080181089e-06
3.74081140435e-06
3.74082587648e-06
3.74084304449e-06
3.74086058632e-06
3.74086940446e-06
3.7408807685e-06
3.74089981865e-06
3.74089013332e-06
3.74088320665e-06
3.74086732371e-06
3.74085190685e-06
3.7408390546e-06
3.74083057766e-06
3.74082762382e-06
3.74083061841e-06
3.74083915889e-06
3.74085211967e-06
3.74086764337e-06
3.74088359811e-06
3.74089057243e-06
3.7408993785e-06
3.74092072659e-06
3.74091474031e-06
3.74090972034e-06
3.74089560188e-06
3.74088228669e-06
3.7408714324e-06
3.74086437502e-06
3.74086192436e-06
3.74086440332e-06
3.74087152473e-06
3.74088244899e-06
3.74089583994e-06
3.74090999631e-06
3.74091504942e-06
3.74092021066e-06
3.74095315656e-06
3.74095100688e-06
3.74094441544e-06
3.74093041985e-06
3.74091851831e-06
3.74090936145e-06
3.74090354087e-06
3.74090154276e-06
3.74090354572e-06
3.74090939594e-06
3.74091860231e-06
3.74093053098e-06
3.7409445368e-06
3.74095115124e-06
3.74095256168e-06
3.74103891918e-06
3.74101303775e-06
3.7409933014e-06
3.74097314159e-06
3.74095844102e-06
3.74094790591e-06
3.74094145644e-06
3.7409392565e-06
3.74094141028e-06
3.74094783944e-06
3.74095836903e-06
3.74097304689e-06
3.74099317884e-06
3.74101290622e-06
3.74103824024e-06
3.26880380612e-06
3.26881640572e-06
3.26883325878e-06
3.26885150219e-06
3.26886866858e-06
3.26888252295e-06
3.2688915746e-06
3.26889501762e-06
3.26889256888e-06
3.26888450453e-06
3.26887160658e-06
3.2688551089e-06
3.26883707884e-06
3.26881945322e-06
3.26880650815e-06
3.26883926198e-06
3.26885237619e-06
3.26887021244e-06
3.26888919885e-06
3.26890709974e-06
3.26892155883e-06
3.26893102022e-06
3.26893462507e-06
3.26893206133e-06
3.26892363092e-06
3.26891016493e-06
3.26889296157e-06
3.26887416227e-06
3.26885564479e-06
3.26884175126e-06
3.26886958514e-06
3.26888308922e-06
3.26890166378e-06
3.26892096196e-06
3.26893919528e-06
3.26895388722e-06
3.26896351391e-06
3.26896716593e-06
3.2689645193e-06
3.26895588302e-06
3.26894212528e-06
3.2689245787e-06
3.2689054596e-06
3.26888645803e-06
3.26887206875e-06
3.26889527847e-06
3.26890931927e-06
3.26892851893e-06
3.26894808944e-06
3.26896652945e-06
3.26898134409e-06
3.26899105143e-06
3.26899471473e-06
3.26899200357e-06
3.26898322898e-06
3.26896928185e-06
3.2689515092e-06
3.26893218407e-06
3.26891269881e-06
3.26889789955e-06
3.26891889152e-06
3.26893343785e-06
3.26895326989e-06
3.26897307981e-06