/*--------------------------------*- C++ -*----------------------------------*\
  =========                 |
  \\      /  F ield         | OpenFOAM: The Open Source CFD Toolbox
   \\    /   O peration     | Website:  https://openfoam.org
    \\  /    A nd           | Version:  7
     \\/     M anipulation  |
\*---------------------------------------------------------------------------*/
FoamFile
{
    version     2.0;
    format      ascii;
    class       surfaceScalarField;
    location    "2";
    object      phi;
}
// * * * * * * * * * * * * * * * * * * * * * * * * * * * * * * * * * * * * * //

dimensions      [0 3 -1 0 0 0 0];

internalField   nonuniform List<scalar> 
65775
(
1.64812181416e-11
3.29457346989e-09
4.83612201763e-10
9.44394106962e-14
2.3910962638e-11
3.44931666017e-09
5.34582019697e-10
2.8034983971e-11
3.58130420887e-09
5.82673504871e-10
2.73033431757e-11
3.69527331233e-09
6.2572246943e-10
2.27057821728e-11
3.78601538182e-09
6.61645257013e-10
1.49906712401e-11
3.85237441323e-09
6.88712980211e-10
5.30965482138e-12
3.89405268655e-09
7.05790635458e-10
-5.07407373645e-12
3.90982407794e-09
7.11932113586e-10
-1.47643640191e-11
3.89400379061e-09
7.05790801163e-10
-2.24969923404e-11
3.85227932634e-09
6.88713365747e-10
-2.71224498154e-11
3.78587603074e-09
6.61645929845e-10
-2.78902372039e-11
3.69510116784e-09
6.25723535685e-10
-2.38121841327e-11
3.58111051418e-09
5.82675581398e-10
-1.6415521756e-11
3.44913901542e-09
5.34589139096e-10
3.29446941104e-09
4.83641513615e-10
1.20148890502e-13
4.47174037243e-11
5.6448154523e-09
1.22022863394e-09
1.96279424124e-13
7.3067293749e-11
5.88870355548e-09
1.34349405125e-09
8.58181247788e-11
6.09677159065e-09
1.45868739818e-09
8.43246022148e-11
6.27355527343e-09
1.56101847517e-09
7.02576358506e-11
6.41361049372e-09
1.64587919218e-09
4.64131843526e-11
6.51542462787e-09
1.70952964265e-09
1.63609718225e-11
6.57930011635e-09
1.74957741321e-09
-1.58047898236e-11
6.6035913969e-09
1.76396597232e-09
-4.58779053036e-11
6.57918491645e-09
1.74957862807e-09
-6.97628240611e-11
6.51519950726e-09
1.70953207066e-09
-8.38910935674e-11
6.41328203304e-09
1.64588281341e-09
-8.5465390673e-11
6.27314482731e-09
1.56102331364e-09
-7.28085178957e-11
6.09630998256e-09
1.45869494777e-09
-4.45380658568e-11
5.88826493508e-09
1.34351519408e-09
5.64451859037e-09
1.22030063697e-09
2.84477296358e-13
6.94200614269e-11
7.23641537531e-09
1.77453823499e-09
3.00474064044e-13
1.1550185873e-10
7.52242892217e-09
1.9511385337e-09
1.35380152426e-10
7.76737737597e-09
2.11502583103e-09
1.32841728919e-10
7.97142600238e-09
2.25983016223e-09
1.10491010665e-10
8.13216286054e-09
2.37938915368e-09
7.28962280675e-11
8.24820971492e-09
2.4687736451e-09
2.56684707724e-11
8.32092098044e-09
2.52487984451e-09
-2.48049507087e-11
8.34874070941e-09
2.54499808281e-09
-7.20665428705e-11
8.32076147626e-09
2.52488071469e-09
-1.09727699956e-10
8.24789822369e-09
2.46877542382e-09
-1.32177273762e-10
8.13171010421e-09
2.37939180901e-09
-1.34844476114e-10
7.97085824834e-09
2.25983374419e-09
-1.15110966515e-10
7.76673792233e-09
2.1150323761e-09
-6.91598729899e-11
7.52180894835e-09
1.95116271907e-09
7.23596515684e-09
1.77462990703e-09
4.26473853125e-13
9.16347581699e-11
8.21305264693e-09
2.18769961341e-09
3.6698309608e-13
1.52256553434e-10
8.50830293265e-09
2.40416008016e-09
1.78205201591e-10
8.7618286781e-09
2.60371062911e-09
1.74404266778e-10
8.96862923576e-09
2.77910856239e-09
1.4476439127e-10
9.13025641506e-09
2.92331837231e-09
9.5354788591e-11
9.24602077418e-09
3.03078966986e-09
3.35316602981e-11
9.31843342056e-09
3.09808365473e-09
-3.24491784873e-11
9.34634609583e-09
3.12215690641e-09
-9.43152672988e-11
9.31825062693e-09
3.09808338889e-09
-1.43809395147e-10
9.24566348558e-09
3.03078915854e-09
-1.73573662925e-10
9.12973877148e-09
2.92331745248e-09
-1.77533507361e-10
8.96797966652e-09
2.77910710745e-09
-1.51761260758e-10
8.76109279689e-09
2.60371054331e-09
-9.13014827005e-11
8.50757697985e-09
2.4041768945e-09
8.21248984221e-09
2.18778761267e-09
5.38299494166e-13
1.11016752497e-10
8.69682717377e-09
2.48161346499e-09
4.07358760667e-13
1.83766116145e-10
8.9787963901e-09
2.72712594329e-09
2.14839404867e-10
9.22152854075e-09
2.95194291251e-09
2.09778046648e-10
9.41506992112e-09
3.14848500692e-09
1.73814320701e-10
9.56480005548e-09
3.30937678523e-09
1.14325944354e-10
9.67104621354e-09
3.42888267626e-09
4.01528382336e-11
9.737366104e-09
3.50351460877e-09
-3.89155970588e-11
9.76316250441e-09
3.53014070892e-09
-1.13137973687e-10
9.73717695008e-09
3.50351274742e-09
-1.72722990919e-10
9.67067684624e-09
3.42887871613e-09
-2.08827501809e-10
9.5642657896e-09
3.30937029693e-09
-2.14065506387e-10
9.41439922059e-09
3.14847543476e-09
-1.83186057018e-10
9.22076300827e-09
2.95193142742e-09
-1.10616215111e-10
8.9780317444e-09
2.72712742e-09
8.69620616254e-09
2.48168232518e-09
6.29950090892e-13
1.27780262256e-10
8.79206740771e-09
2.67383697938e-09
4.28946406935e-13
2.10544683549e-10
9.04645448731e-09
2.93966264784e-09
2.4580309048e-10
9.26617796968e-09
3.18141220474e-09
2.3950849591e-10
9.43701521785e-09
3.39156913711e-09
1.98121851339e-10
9.56750246041e-09
3.56282675164e-09
1.30146362643e-10
9.65908176026e-09
3.68959015365e-09
4.56584439161e-11
9.71610177795e-09
3.76852918908e-09
-4.43129953353e-11
9.73852780691e-09
3.79660423413e-09
-1.28854051082e-10
9.71592179083e-09
3.76852526145e-09
-1.96933545195e-10
9.65873022195e-09
3.68958187034e-09
-2.38470048304e-10
9.56699464812e-09
3.56281329917e-09
-2.44950003987e-10
9.43637690703e-09
3.39154931615e-09
-2.0989175774e-10
9.26544478619e-09
3.18138607659e-09
-1.27314516871e-10
9.04571079217e-09
2.93964399365e-09
8.79144177131e-09
2.67387953759e-09
7.06966264222e-13
1.42281032184e-10
8.58779677871e-09
2.77931398393e-09
4.37227273935e-13
2.33189910485e-10
8.80686743956e-09
3.0584798977e-09
2.71735517998e-10
8.99696577437e-09
3.31059759668e-09
2.64229136043e-10
9.1406022133e-09
3.52849867315e-09
2.18227444716e-10
9.2485961933e-09
3.70523940698e-09
1.43183894972e-10
9.32341608388e-09
3.83559178091e-09
5.01832462822e-11
9.36986455375e-09
3.91651867186e-09
-4.8761835879e-11
9.3883837095e-09
3.94519689574e-09
-1.41817551671e-10
9.36970586223e-09
3.91651263947e-09
-2.1696843289e-10
9.32310613853e-09
3.83557905597e-09
-2.63123331419e-10
9.24814886064e-09
3.70521869993e-09
-2.70816605475e-10
9.14003875705e-09
3.52846798843e-09
-2.324704649e-10
8.99631360111e-09
3.31055574066e-09
-1.41749100997e-10
8.80619840825e-09
3.058439804e-09
8.58721788095e-09
2.77932878701e-09
7.75373440986e-13
1.54763944344e-10
8.1596307404e-09
2.81120523441e-09
4.35370554641e-13
2.52213694547e-10
8.34064937898e-09
3.09829174902e-09
2.93265117644e-10
8.49868987429e-09
3.35577067948e-09
2.84595951369e-10
8.61420647226e-09
3.57700759569e-09
2.34702485814e-10
8.69940032241e-09
3.75561312239e-09
1.53828710638e-10
8.75754348436e-09
3.88686363578e-09
5.38689713793e-11
8.79352476101e-09
3.96808639288e-09
-5.23921107373e-11
8.80811465872e-09
3.99674905551e-09
-1.5240719152e-10
8.79339680326e-09
3.96807851665e-09
-2.33388230483e-10
8.7572937848e-09
3.8868469728e-09
-2.83433683993e-10
8.69903990242e-09
3.75558586614e-09
-2.92286044305e-10
8.61375139552e-09
3.57696690168e-09
-2.51428311954e-10
8.49815807684e-09
3.3557141688e-09
-1.5416272133e-10
8.34009874733e-09
3.09823208457e-09
8.15914410637e-09
2.81119495788e-09
8.38543363607e-13
1.65403147712e-10
7.57126426394e-09
2.78125377919e-09
4.26390455618e-13
2.68068827658e-10
7.71503359139e-09
3.07220007094e-09
3.11018840809e-10
7.84151665363e-09
3.33138929686e-09
3.01292629654e-10
7.93042079578e-09
3.55282236959e-09
2.48151418086e-10
7.9944929302e-09
3.73076724171e-09
1.62493940209e-10
8.03748807562e-09
3.86106713962e-09
5.6864785724e-11
8.06401561214e-09
3.94143236977e-09
-5.5342838443e-11
8.07499768629e-09
3.96965524018e-09
-1.61026134582e-10
8.06392478819e-09
3.94142319986e-09
-2.46788142259e-10
8.03731111783e-09
3.86104765598e-09
-3.00076404828e-10
7.99423768775e-09
3.73073514678e-09
-3.09978609681e-10
7.93009701503e-09
3.5527740199e-09
-2.67213625394e-10
7.8411334549e-09
3.33132134084e-09
-1.64727625839e-10
7.71463437144e-09
3.0721255412e-09
7.57090803855e-09
2.78122422715e-09
8.99762925378e-13
1.74347104844e-10
6.87578445678e-09
2.69991937084e-09
4.12505211953e-13
2.81198609106e-10
6.98534261704e-09
2.99182019673e-09
3.25666038625e-10
7.08262701457e-09
3.25021351835e-09
3.15065123467e-10
7.14793655992e-09
3.46976717576e-09
2.59233625702e-10
7.19380457738e-09
3.64543698149e-09
1.69626269298e-10
7.22405338975e-09
3.77363559385e-09
5.93305670538e-11
7.24267981258e-09
3.85243463324e-09
-5.77650088556e-11
7.25058281159e-09
3.87995388618e-09
-1.68112471297e-10
7.24262945046e-09
3.85242501479e-09
-2.57819453425e-10
7.22395578049e-09
3.77361503968e-09
-3.1379057786e-10
7.1936643252e-09
3.64540280199e-09
-3.24558026872e-10
7.147757597e-09
3.46971506182e-09
-2.8026621305e-10
7.08240981893e-09
3.25013940235e-09
-1.73590266605e-10
6.98511732242e-09
2.99173799444e-09
6.87558611587e-09
2.69987880564e-09
9.6178988154e-13
1.81722701666e-10
6.11693717757e-09
2.57641277824e-09
3.95760399986e-13
2.92083412546e-10
6.19639001721e-09
2.86730614044e-09
3.37976006366e-10
6.26782831842e-09
3.12332620708e-09
3.2675952989e-10
6.3134284267e-09
3.33978156743e-09
2.68676511724e-10
6.34471618806e-09
3.51228934736e-09
1.75707287622e-10
6.36506829198e-09
3.63778953751e-09
6.14359718352e-11
6.37759948469e-09
3.71466479028e-09
-5.98206561832e-11
6.38305364921e-09
3.74134319729e-09
-1.74140466021e-10
6.37758986361e-09
3.7146558772e-09
-2.67202909544e-10
6.3650509924e-09
3.63777032981e-09
-3.25416563832e-10
6.34469289026e-09
3.51225694027e-09
-3.36789522826e-10
6.31339810056e-09
3.33973117012e-09
-2.91063909276e-10
6.26778437771e-09
3.12325321351e-09
-1.80876410482e-10
6.19635051212e-09
2.86722557125e-09
6.11691315701e-09
2.5763714524e-09
1.02725787921e-12
1.87638203257e-10
5.33038915171e-09
2.41869939738e-09
3.76545193274e-13
3.01370633031e-10
5.3837506031e-09
2.70735768908e-09
3.48941162166e-10
5.4331592216e-09
2.96015030774e-09
3.37369424514e-10
5.4634870173e-09
3.17294791356e-09
2.77271526362e-10
5.48417528892e-09
3.34196013673e-09
1.8123531098e-10
5.49759947382e-09
3.46458225474e-09
6.33524441206e-11
5.50586729952e-09
3.53943966634e-09
-6.16751375721e-11
5.50951632669e-09
3.56523514302e-09
-1.79602609008e-10
5.50589618464e-09
3.53943291571e-09
-2.75724975777e-10
5.49765773616e-09
3.46456747347e-09
-3.3594413434e-10
5.48426322951e-09
3.34193447141e-09
-3.4766305345e-10
5.46360015279e-09
3.17290631095e-09
-3.00253163782e-10
5.43328603033e-09
2.96008757109e-09
-1.8669458102e-10
5.38389840092e-09
2.70728958841e-09
5.33054635704e-09
2.41866890454e-09
1.09875254166e-12
1.92440923304e-10
4.54473639422e-09
2.23350595657e-09
3.56015667266e-13
3.10305756596e-10
4.57481880196e-09
2.51925615225e-09
3.5995790012e-10
4.60668208652e-09
2.76851110325e-09
3.4799917579e-10
4.62668818928e-09
2.97757200167e-09
2.85766499358e-10
4.64078370699e-09
3.1431503687e-09
1.86640483161e-10
4.65003840923e-09
3.26300971376e-09
6.52208644294e-11
4.6556812534e-09
3.33594058629e-09
-6.34651182651e-11
4.65811031687e-09
3.36087820158e-09
-1.8492571718e-10
4.65574356638e-09
3.33593767041e-09
-2.84130678953e-10
4.65016336932e-09
3.26300292915e-09
-3.46476208423e-10
4.6409704795e-09
3.14313730366e-09
-3.58574900686e-10
4.62693154346e-09
2.97754767157e-09
-3.09080748163e-10
4.60696791553e-09
2.76846935533e-09
-1.9139424605e-10
4.57514599437e-09
2.5192119225e-09
4.54507094434e-09
2.23349715456e-09
1.17267598773e-12
1.97834849901e-10
3.78135722731e-09
2.02634811424e-09
3.34660609592e-13
3.2126366718e-10
3.79034183178e-09
2.30897768901e-09
3.72514676269e-10
3.81097628094e-09
2.5547769664e-09
3.59309143322e-10
3.82575710095e-09
2.76033471088e-09
2.94416779063e-10
3.83661902624e-09
2.92279133613e-09
1.92017014815e-10
3.84381722547e-09
3.04018815615e-09
6.70683368766e-11
3.84808033785e-09
3.11139972511e-09
-6.52165555779e-11
3.84974733269e-09
3.13554693939e-09
-1.90202959037e-10
3.84816977751e-09
3.11140225633e-09
-2.92676010776e-10
3.84399585786e-09
3.04019285281e-09
-3.57674805765e-10
3.83688597969e-09
2.92279677677e-09
-3.71016700209e-10
3.82610810584e-09
2.76033671908e-09
-3.19924878541e-10
3.81139961948e-09
2.55476822752e-09
-1.96683620531e-10
3.79083169038e-09
2.30896864395e-09
3.7818495339e-09
2.0263685026e-09
1.25152847774e-12
2.11149151377e-10
1.80194577754e-09
3.12628145175e-13
3.04957654673e-09
3.38578042888e-10
2.08178248446e-09
3.0488045716e-09
3.88041990594e-10
2.32429307786e-09
3.06618263623e-09
3.71558892315e-10
2.52663738154e-09
3.07918577107e-09
3.0320081319e-10
2.68632359952e-09
3.08859761346e-09
1.9732455715e-10
2.80158202207e-09
3.09492817957e-09
6.88772857596e-11
2.87129534232e-09
3.09859530171e-09
-6.69136428088e-11
2.89472598329e-09
3.09982897562e-09
-1.9539732595e-10
2.87130402983e-09
3.09870509062e-09
-3.01344408922e-10
2.80159977635e-09
3.09514761246e-09
-3.69806790656e-10
2.68635047279e-09
3.08892543174e-09
-3.86426497151e-10
2.52667130415e-09
3.07961952266e-09
-3.37129663259e-10
2.32432625795e-09
3.06671519539e-09
-2.0990368807e-10
2.0818244172e-09
3.04942889404e-09
1.80198766537e-09
1.3305356963e-12
3.05020611203e-09
-6.23129146758e-12
2.02144658064e-10
2.87779932134e-10
1.89425720149e-14
-8.53743536491e-12
2.21027407349e-10
3.16025829679e-10
-9.32321358612e-12
2.41438724445e-10
3.42181259732e-10
-8.87714100147e-12
2.60087277678e-10
3.65332471023e-10
-7.29520336084e-12
2.7567710082e-10
3.8448859721e-10
-4.78887217437e-12
2.87444922597e-10
3.98838320896e-10
-1.66426709018e-12
2.94867348604e-10
4.07868619355e-10
1.68118472492e-12
2.97529611902e-10
4.11127724139e-10
4.81385863858e-12
2.94860056097e-10
4.07869359949e-10
7.334557735e-12
2.87423909911e-10
3.9883981976e-10
8.92950181437e-12
2.75629809288e-10
3.84490896517e-10
9.37703385005e-12
2.60008727135e-10
3.65335862144e-10
8.58458456384e-12
2.41348144277e-10
3.42186946284e-10
6.26333247531e-12
2.20937086534e-10
3.16038320166e-10
2.02115311439e-10
2.87814591739e-10
3.68344593045e-14
-1.10539394693e-11
5.92436894972e-10
8.41116212563e-10
6.12578733649e-14
-1.58344592949e-11
6.43276208541e-10
9.26279647616e-10
-1.74250948468e-11
6.96647812052e-10
1.00532424939e-09
-1.65810270189e-11
7.45124429731e-10
1.07535185543e-09
-1.35952423131e-11
7.85388349518e-10
1.13334027925e-09
-8.89357993802e-12
8.15592446776e-10
1.17680618934e-09
-3.05778167863e-12
8.34581016641e-10
1.20414459221e-09
3.18991701992e-12
8.41396746239e-10
1.21396760264e-09
9.03994533342e-12
8.34559083453e-10
1.20414612155e-09
1.37648144692e-11
8.15536900979e-10
1.17680935952e-09
1.6767286055e-11
7.85277681081e-10
1.13334534326e-09
1.76028045021e-11
7.44947050797e-10
1.07535978475e-09
1.59800091441e-11
6.96434729505e-10
1.00533847563e-09
1.1152116551e-11
6.43069823364e-10
9.26312924848e-10
5.92347491196e-10
8.41203072511e-10
1.13226132538e-13
-1.05446646279e-11
1.04751092659e-09
1.33009553461e-09
9.11248362692e-14
-1.54130391535e-11
1.13182458742e-09
1.46768664642e-09
-1.69998011352e-11
1.21824445838e-09
1.59524865459e-09
-1.61263258086e-11
1.29617345808e-09
1.70809969901e-09
-1.31756799722e-11
1.36053453827e-09
1.80143725646e-09
-8.58319343725e-12
1.40855849771e-09
1.87133305673e-09
-2.9093435724e-12
1.43866049536e-09
1.91523650979e-09
3.17005466157e-12
1.44946507648e-09
1.93095967838e-09
8.8600431873e-12
1.43862064101e-09
1.91523811719e-09
1.34774865104e-11
1.40846591377e-09
1.87133643677e-09
1.64428608833e-11
1.36036650337e-09
1.80144281406e-09
1.72985098132e-11
1.29591900034e-09
1.70810889444e-09
1.56595390305e-11
1.21793934314e-09
1.59526638538e-09
1.07178711438e-11
1.13153826496e-09
1.46773090538e-09
1.04737773033e-09
1.3302135608e-09
1.91990108799e-13
-6.19383494879e-12
1.49689914075e-09
1.74455248786e-09
1.21462956329e-13
-9.09096193041e-12
1.6108155787e-09
1.92827391342e-09
-9.95052066187e-12
1.72486946819e-09
2.09815230954e-09
-9.34440425892e-12
1.82678071557e-09
2.2480659256e-09
-7.56544063469e-12
1.91041225202e-09
2.37179570027e-09
-4.87299333453e-12
1.97247371265e-09
2.46429464779e-09
-1.56918491527e-12
2.01125378097e-09
2.52229198732e-09
1.98798862449e-12
2.0251714423e-09
2.54299705332e-09
5.30455120693e-12
2.01119732654e-09
2.52229259585e-09
8.0145173809e-12
1.97234969551e-09
2.46429606077e-09
9.79676752174e-12
1.91020174408e-09
2.37179840657e-09
1.03701424889e-11
1.8264770965e-09
2.24807162802e-09
9.4387630507e-12
1.72450755203e-09
2.09816655916e-09
6.44547887684e-12
1.61047888863e-09
1.92831715716e-09
1.49673220615e-09
1.74467825656e-09
2.80803748455e-13
9.86505892255e-13
1.89351635354e-09
2.08401312347e-09
1.5075451519e-13
1.59336834874e-12
2.03040245788e-09
2.30711991977e-09
2.06119925288e-12
2.16389074954e-09
2.51263505565e-09
2.17641186669e-12
2.28191680902e-09
2.69338613919e-09
1.91616107271e-12
2.37802961016e-09
2.84214204785e-09
1.36076213899e-12
2.44892028132e-09
2.95309680313e-09
6.49860310751e-13
2.49306383557e-09
3.02251429373e-09
-6.19922231794e-14
2.50890422438e-09
3.04721662957e-09
-7.66222665029e-13
2.4929967282e-09
3.02251280404e-09
-1.31606971242e-12
2.44877741883e-09
2.95309420892e-09
-1.58874571507e-12
2.37779707934e-09
2.8421388087e-09
-1.52339724881e-12
2.28159198749e-09
2.6933839066e-09
-1.14494135262e-12
2.16350659399e-09
2.51263929782e-09
-6.53077063975e-13
2.03004298805e-09
2.30715193447e-09
1.89333141564e-09
2.08412925448e-09
3.75310306623e-13
1.00584659212e-11
2.20852356167e-09
2.3487391886e-09
1.7794324425e-13
1.53128501961e-11
2.36068032431e-09
2.60429444239e-09
1.75927042597e-11
2.50459085164e-09
2.83859256622e-09
1.7078442143e-11
2.63032844932e-09
3.04380912255e-09
1.4159034883e-11
2.73177625459e-09
3.21211342238e-09
9.38937955715e-12
2.80607988037e-09
3.33730039665e-09
3.49021968512e-12
2.85216353792e-09
3.41542287034e-09
-2.73422798625e-12
2.86869619824e-09
3.44312823261e-09
-8.6338656765e-12
2.85209225081e-09
3.41541890652e-09
-1.34113721315e-11
2.80593132617e-09
3.337292836e-09
-1.6359910925e-11
2.73154166319e-09
3.21210254419e-09
-1.6940431662e-11
2.63000845645e-09
3.04379620865e-09
-1.47653343511e-11
2.50421452158e-09
2.8385824182e-09
-9.6396979213e-12
2.36032690755e-09
2.60430848019e-09
2.20833327948e-09
2.34883552578e-09
4.71512154555e-13
2.01865914564e-11
2.42726619191e-09
2.54031686528e-09
2.01628823807e-13
3.0906213032e-11
2.58705248653e-09
2.82153123452e-09
3.53698177075e-11
2.73290793088e-09
3.07795885624e-09
3.41691138783e-11
2.85865085679e-09
3.30149983569e-09
2.81974313452e-11
2.95898415815e-09
3.48410786981e-09
1.85851049168e-11
3.03187253123e-09
3.61950495159e-09
6.7321449117e-12
3.07686540949e-09
3.70375804739e-09
-5.8160962824e-12
3.09299974053e-09
3.73352716962e-09
-1.76765303418e-11
3.07679709994e-09
3.70375157244e-09
-2.73094185717e-11
3.03173225987e-09
3.61949227516e-09
-3.33256677518e-11
2.95876682937e-09
3.4840889429e-09
-3.46068341783e-11
2.85835893004e-09
3.3014753055e-09
-3.02605418346e-11
2.73256441055e-09
3.07793249641e-09
-1.96804552565e-11
2.58673033866e-09
2.82152443303e-09
2.42708735998e-09
2.54038902264e-09
5.68112766523e-13
3.06864382609e-11
2.54589918404e-09
2.66178365252e-09
2.20929108407e-13
4.7395101637e-11
2.70642621662e-09
2.96233437346e-09
5.43079887901e-11
2.84711196162e-09
3.23477767023e-09
5.24358498242e-11
2.96657646249e-09
3.47106443161e-09
4.32180720045e-11
3.06065300924e-09
3.66325880672e-09
2.84238905592e-11
3.12834193958e-09
3.8052763678e-09
1.01939896452e-11
3.16989059986e-09
3.89337436489e-09
-9.12902064125e-12
3.18477744368e-09
3.9243747795e-09
-2.73725100104e-11
3.16983122123e-09
3.89336588236e-09
-4.21982259374e-11
3.12822134235e-09
3.80525951334e-09
-5.1473521945e-11
3.06046878323e-09
3.6632330797e-09
-5.34377380605e-11
2.96633171888e-09
3.47102964295e-09
-4.66514748476e-11
2.84682357412e-09
3.23473637234e-09
-3.00917250412e-11
2.70615712726e-09
2.96230803557e-09
2.54575375734e-09
2.6618322709e-09
6.63278335096e-13
4.10284998244e-11
2.56852099775e-09
2.71747409288e-09
2.36205293159e-13
6.39822463662e-11
2.72403468999e-09
3.03174594196e-09
7.35167245236e-11
2.85419629187e-09
3.31487817879e-09
7.10500373084e-11
2.96283502224e-09
3.55912881181e-09
5.85618905306e-11
3.04707526318e-09
3.75692130451e-09
3.84850220654e-11
3.10701060292e-09
3.90255690396e-09
1.37312711547e-11
3.14355406264e-09
3.99260025113e-09
-1.25290881837e-11
3.15662766211e-09
4.02414028676e-09
-3.73013174521e-11
3.14350844783e-09
3.99259082049e-09
-5.74184030909e-11
3.10691873208e-09
3.90253794531e-09
-6.99740980305e-11
3.04693640762e-09
3.75689178408e-09
-7.25417244128e-11
2.96265171204e-09
3.55908756592e-09
-6.31410132117e-11
2.85397979963e-09
3.31482643884e-09
-4.03437917026e-11
2.7238376069e-09
3.03170540973e-09
2.56842727048e-09
2.71750421011e-09
7.55793665643e-13
5.08326567257e-11
2.5047394003e-09
2.7127159418e-09
2.47108371878e-13
8.00507100881e-11
2.65078326384e-09
3.03594563052e-09
9.23009967284e-11
2.76688420261e-09
3.32536818119e-09
8.93685352617e-11
2.86189888063e-09
3.57372270194e-09
7.37230134008e-11
2.93428350012e-09
3.77395459318e-09
4.84487000978e-11
2.98513094705e-09
3.9208649536e-09
1.72351498988e-11
3.01589110171e-09
4.0113834309e-09
-1.59065527901e-11
3.02686609403e-09
4.0429268382e-09
-4.71422640054e-11
3.01586212242e-09
4.01137464792e-09
-7.24632394443e-11
2.98507315232e-09
3.92084707328e-09
-8.81837442195e-11
2.93419732545e-09
3.77392602232e-09
-9.12236006075e-11
2.86178636176e-09
3.57368121116e-09
-7.91125767828e-11
2.76675173646e-09
3.32531358292e-09
-5.0057846461e-11
2.65067342818e-09
3.03589988223e-09
2.5047161698e-09
2.71273636255e-09
8.44986709024e-13
5.98566479345e-11
2.36766595176e-09
2.65346020382e-09
2.5471115874e-13
9.51613550864e-11
2.50107467913e-09
2.98178835661e-09
1.10166354749e-10
2.60121046941e-09
3.27407498885e-09
1.0693934588e-10
2.68136247559e-09
3.52362157638e-09
8.83491228313e-11
2.74126292408e-09
3.72397248796e-09
5.80933709138e-11
2.78277351577e-09
3.87047198001e-09
2.06304444975e-11
2.80766522596e-09
3.96042015818e-09
-1.91851613607e-11
2.81650577714e-09
3.99158381707e-09
-5.66729549127e-11
2.80765402931e-09
3.96041408826e-09
-8.69800095505e-11
2.78275203019e-09
3.87045934751e-09
-1.05650521549e-10
2.74123226905e-09
3.72395118283e-09
-1.08989727765e-10
2.68132445978e-09
3.5235882414e-09
-9.41285091585e-11
2.60116810152e-09
3.27402781041e-09
-5.89929176404e-11
2.501062167e-09
2.9817492916e-09
2.3677262371e-09
2.65348274142e-09
9.29895122517e-13
6.7974426464e-11
2.17230589965e-09
2.54590235613e-09
2.5903883803e-13
1.09057212699e-10
2.29105885774e-09
2.87635790657e-09
1.26842587445e-10
2.37461584413e-09
3.16902818229e-09
1.23520809154e-10
2.43994846393e-09
3.41775083859e-09
1.02248169683e-10
2.4878861547e-09
3.61667413433e-09
6.72941464742e-11
2.52069667518e-09
3.76167535464e-09
2.38741075769e-11
2.54019460558e-09
3.85039115917e-09
-2.23214538941e-11
2.54706518342e-09
3.88092980889e-09
-6.5768421335e-11
2.54020112172e-09
3.8503901919e-09
-1.00777457446e-10
2.5207106825e-09
3.76167284972e-09
-1.22134461852e-10
2.4879101221e-09
3.6166676081e-09
-1.25572352467e-10
2.43998405452e-09
3.41773578959e-09
-1.07934621735e-10
2.3746646682e-09
3.16900072324e-09
-6.70263546101e-11
2.29114759381e-09
2.87633914297e-09
2.17245868876e-09
2.54594056319e-09
1.00979969307e-12
7.52105673196e-11
1.93427521838e-09
2.39613398533e-09
2.60561895234e-13
1.21775438674e-10
2.0372027934e-09
2.72660522364e-09
1.42400163695e-10
2.10450470913e-09
3.01805689284e-09
1.39155135031e-10
2.15610370066e-09
3.26471973107e-09
1.15419885202e-10
2.19350858138e-09
3.46132045136e-09
7.60326278186e-11
2.21891738267e-09
3.60423236923e-09
2.69557993353e-11
2.23389635076e-09
3.69136974991e-09
-2.53057259847e-11
2.23910665117e-09
3.72115176814e-09
-7.4411761472e-11
2.23391939166e-09
3.69137631477e-09
-1.13857317599e-10
2.21896518972e-09
3.60424502452e-09
-1.37681155707e-10
2.1935836714e-09
3.4613366484e-09
-1.41045937597e-10
2.1562092112e-09
3.26473399893e-09
-1.20572734116e-10
2.10464136542e-09
3.01806255145e-09
-7.41869317149e-11
2.03739291388e-09
2.72662033265e-09
1.93452512235e-09
2.39620001331e-09
1.0794663837e-12
8.16669063025e-11
1.66890643389e-09
2.20985512306e-09
2.59817086417e-13
1.33588906194e-10
1.75514101e-09
2.53916795726e-09
1.57204046129e-10
1.80715750193e-09
2.82855974516e-09
1.54114388626e-10
1.8470625121e-09
3.07251732639e-09
1.2801414042e-10
1.87606829095e-09
3.26638255422e-09
8.43737646146e-11
1.89581575425e-09
3.40697983101e-09
2.98929683426e-11
1.90740079984e-09
3.49242531177e-09
-2.8157404539e-11
1.91134790589e-09
3.52140307583e-09
-8.26698895941e-11
1.90743969811e-09
3.49244136786e-09
-1.26373222519e-10
1.8958948104e-09
3.40701178876e-09
-1.52566881828e-10
1.87619064308e-09
3.26642834454e-09
-1.5578126186e-10
1.84723141848e-09
3.07257128076e-09
-1.32320385191e-10
1.807375923e-09
2.82861206404e-09
-8.05810193093e-11
1.75542816596e-09
2.53922917255e-09
1.66924839221e-09
2.20995600045e-09
1.14026677826e-12
8.23194075796e-11
1.99207557749e-09
2.58061416729e-13
1.39626008253e-09
1.42725513853e-10
2.32044136268e-09
1.45612149769e-09
1.70553702625e-10
2.60728756357e-09
1.49638097921e-09
1.68158240274e-10
2.84825500902e-09
1.52788550819e-09
1.40029757503e-10
3.03931424634e-09
1.55125195369e-09
9.23936131004e-11
3.17764515029e-09
1.5674340003e-09
3.27227492985e-11
3.26146178616e-09
1.57694872548e-09
-3.09161128368e-11
3.28965153859e-09
1.5801038931e-09
-9.06225648562e-11
3.26148771135e-09
1.57700320489e-09
-1.38327929134e-10
3.17769728233e-09
1.5675442275e-09
-1.66557697237e-10
3.03939153181e-09
1.55141997065e-09
-1.6908398409e-10
2.84835316279e-09
1.52811477968e-09
-1.41415475878e-10
2.60739467449e-09
1.49667510351e-09
-8.11922710378e-11
2.32056483571e-09
1.45649805393e-09
1.99219916124e-09
1.18002444887e-12
1.39669561341e-09
1.9193728972e-12
-1.46844790125e-12
2.874048633e-10
3.93527270393e-15
3.09809589241e-12
-2.32939305731e-12
3.17259468696e-10
3.74682879968e-12
-3.42751948092e-12
3.4505639506e-10
3.76972641716e-12
-4.38373577145e-12
3.6976618993e-10
3.20985341258e-12
-5.14908727845e-12
3.90280424506e-10
2.16532732909e-12
-5.71557793661e-12
4.05686118395e-10
7.94230386669e-13
-6.07165799135e-12
4.15392140956e-10
-6.98060758176e-13
-6.19979302399e-12
4.18889048029e-10
-2.07434573602e-12
-6.08744059966e-12
4.15393236067e-10
-3.1272916947e-12
-5.74178596639e-12
4.05688389698e-10
-3.69330816855e-12
-5.17778345617e-12
3.90284096851e-10
-3.67012342402e-12
-4.41270514948e-12
3.69771846184e-10
-3.03175210664e-12
-3.47273588309e-12
3.45065404675e-10
-1.8622769097e-12
-2.36546732123e-12
3.17276185226e-10
-1.49518505389e-12
2.87442760272e-10
4.42057482874e-14
4.65267145874e-12
3.87857557742e-11
7.96321237753e-10
1.35410662355e-14
7.75618582343e-12
4.19121390262e-11
8.79073857226e-10
9.39648521993e-12
4.44871410021e-11
9.55908733283e-10
9.45529955046e-12
4.70446464407e-11
1.02399028375e-09
8.0396138549e-12
4.93751936747e-11
1.08036657901e-09
5.41918056548e-12
5.12249500823e-11
1.12262298293e-09
1.9981554094e-12
5.24191075755e-11
1.14919994227e-09
-1.71463511118e-12
5.28430879523e-11
1.15874664138e-09
-5.14720442667e-12
5.2384329059e-11
1.14920286599e-09
-7.78696835187e-12
5.11646035991e-11
1.12262905572e-09
-9.22031639898e-12
4.93040565726e-11
1.08037646411e-09
-9.17361731523e-12
4.69694215322e-11
1.02400566402e-09
-7.56137430716e-12
4.4390552646e-11
9.55933608383e-10
-4.49333796735e-12
4.18253504462e-11
8.79120357609e-10
3.87273361411e-11
7.96419476393e-10
1.28798999209e-13
6.70107629128e-12
1.2420840234e-10
1.23807417347e-09
9.7158295464e-15
1.13320041981e-11
1.36531172203e-10
1.36856464764e-09
1.37208687547e-11
1.47971213604e-10
1.48949884466e-09
1.37744535584e-11
1.587551775e-10
1.59645210884e-09
1.16802662926e-11
1.6814956469e-10
1.684880347e-09
7.85668963087e-12
1.75425008126e-10
1.75108140701e-09
2.89890931092e-12
1.80071335688e-10
1.79265676885e-09
-2.46586594044e-12
1.81724951093e-10
1.80754354417e-09
-7.43828191832e-12
1.80023522955e-10
1.79266074585e-09
-1.12862924645e-11
1.75340133756e-10
1.75108975197e-09
-1.34043064884e-11
1.68045456709e-10
1.68489413076e-09
-1.33717382695e-11
1.58642019199e-10
1.59647389359e-09
-1.10209221349e-11
1.47837856676e-10
1.48953450217e-09
-6.44336404093e-12
1.36409277375e-10
1.36863132329e-09
1.24137277616e-10
1.23821289827e-09
2.04239146822e-13
8.53796806763e-12
2.41821087019e-10
1.61849632381e-09
8.49286852601e-15
1.45590180601e-11
2.66669060422e-10
1.79222402598e-09
1.76234238399e-11
2.90261108328e-10
1.95290664247e-09
1.76560806049e-11
3.12150420187e-10
2.09474563206e-09
1.49374613689e-11
3.30941027289e-10
2.21183433864e-09
1.00289797186e-11
3.45356860313e-10
2.29938184439e-09
3.70166774247e-12
3.5451530428e-10
2.35427763352e-09
-3.12707006396e-12
3.57771457326e-10
2.37387099438e-09
-9.47063904372e-12
3.54460329126e-10
2.35428168378e-09
-1.44068820204e-11
3.4525712622e-10
2.29939049455e-09
-1.71559051564e-11
3.30813808443e-10
2.2118489943e-09
-1.71550281592e-11
3.12009188508e-10
2.09476942991e-09
-1.41402253172e-11
2.90105267437e-10
1.95294643986e-09
-8.18654948254e-12
2.66530902978e-10
1.79229945743e-09
2.41746470813e-10
1.61865380239e-09
2.80793686826e-13
1.054414753e-11
3.77703972295e-10
1.93766889693e-09
1.01664365694e-14
1.80298602817e-11
4.16437354082e-10
2.14995628317e-09
2.18001497926e-11
4.53397409227e-10
2.345823934e-09
2.17989816112e-11
4.87287644616e-10
2.51834471244e-09
1.84069621675e-11
5.1607165896e-10
2.66050160908e-09
1.2337688394e-11
5.37986472115e-10
2.76663435954e-09
4.54953450939e-12
5.51841640109e-10
2.83306777621e-09
-3.83805765897e-12
5.56758350584e-10
2.85670070912e-09
-1.16437588634e-11
5.51783430026e-10
2.83307114603e-09
-1.77440192688e-11
5.37879588383e-10
2.76664176156e-09
-2.11735147658e-11
5.1593265077e-10
2.66051463561e-09
-2.12177529342e-11
4.8713208687e-10
2.51836669512e-09
-1.7509350681e-11
4.53232080465e-10
2.34586187587e-09
-1.01032469312e-11
4.16299416061e-10
2.15003081051e-09
3.77634610523e-10
1.93782898518e-09
3.58024396669e-13
1.29970740893e-11
5.17741390847e-10
2.19576822527e-09
1.40891740821e-14
2.21968800184e-11
5.69866795251e-10
2.44174366666e-09
2.67963533081e-11
6.19455541183e-10
2.66801611098e-09
2.67562871493e-11
6.64422685973e-10
2.86679711986e-09
2.25622636216e-11
7.02232318704e-10