/*--------------------------------*- C++ -*----------------------------------*\
  =========                 |
  \\      /  F ield         | OpenFOAM: The Open Source CFD Toolbox
   \\    /   O peration     | Website:  https://openfoam.org
    \\  /    A nd           | Version:  7
     \\/     M anipulation  |
\*---------------------------------------------------------------------------*/
FoamFile
{
    version     2.0;
    format      ascii;
    class       volVectorField;
    location    "2";
    object      U;
}
// * * * * * * * * * * * * * * * * * * * * * * * * * * * * * * * * * * * * * //

dimensions      [0 1 -1 0 0 0 0];

internalField   nonuniform List<vector> 
22500
(
(1.43845349972e-05 1.61931098836e-05 0.000229553053862)
(1.33316753753e-05 1.82845005417e-05 0.000240792929076)
(1.1620247127e-05 2.03671168958e-05 0.000250961699092)
(9.73787425206e-06 2.21164086054e-05 0.000259715723693)
(7.54967239698e-06 2.35523970352e-05 0.000266801107941)
(5.1600556178e-06 2.46129174146e-05 0.0002720109511)
(2.62056551962e-06 2.52643541e-05 0.00027519948445)
(3.49816526328e-09 2.54844134095e-05 0.000276278574164)
(-2.61368442228e-06 2.52646952292e-05 0.000275199606203)
(-5.15348985993e-06 2.46135545776e-05 0.000272011209486)
(-7.54365087907e-06 2.35532011049e-05 0.000266801491731)
(-9.73262188014e-06 2.21172517758e-05 0.000259716201154)
(-1.16161256825e-05 2.03677221069e-05 0.000250962384865)
(-1.33285976177e-05 1.82850182046e-05 0.00024079515657)
(-1.43829511251e-05 1.61934748903e-05 0.000229564273106)
(4.1899948728e-05 4.71712590426e-05 0.00059835660295)
(3.87783631058e-05 5.31194125605e-05 0.000623169008971)
(3.39218510842e-05 5.89905645676e-05 0.000645295034064)
(2.8403788857e-05 6.39750866289e-05 0.000664132263377)
(2.20356715204e-05 6.80710054837e-05 0.000679241921262)
(1.5061345719e-05 7.11004800591e-05 0.000690277672913)
(7.64844434224e-06 7.29635749006e-05 0.000697000688965)
(8.26510980127e-09 7.35927719532e-05 0.000699267624031)
(-7.63215018051e-06 7.29641780437e-05 0.000697001187963)
(-1.50457189501e-05 7.1101595757e-05 0.000690278684592)
(-2.20211656602e-05 6.8072385444e-05 0.000679243360489)
(-2.8390876949e-05 6.39764920524e-05 0.000664133973701)
(-3.39111978887e-05 5.89915350735e-05 0.000645297273847)
(-3.8769882612e-05 5.31203779853e-05 0.000623175557911)
(-4.18950237311e-05 4.71720699882e-05 0.000598384085266)
(6.31236799975e-05 7.09405314189e-05 0.000894518148219)
(5.81389756061e-05 7.94393234004e-05 0.000926960051893)
(5.07566152427e-05 8.7763177398e-05 0.000955505606853)
(4.23709634587e-05 9.4813095073e-05 0.000979574658527)
(3.280348118e-05 0.000100582638726 0.000998731248888)
(2.23844735443e-05 0.000104838464174 0.00101264221631)
(1.1356104166e-05 0.000107450977426 0.00102108279102)
(1.28228928884e-08 0.000108332271518 0.00102392035694)
(-1.13308014872e-05 0.000107451481526 0.00102108335918)
(-2.23601682807e-05 0.000104839348106 0.00101264336418)
(-3.27808489109e-05 0.00010058358675 0.000998732812532)
(-4.23507070969e-05 9.48137844716e-05 0.000979576350689)
(-5.07396402089e-05 8.77631402767e-05 0.000955507638603)
(-5.81252950214e-05 7.94392150371e-05 0.00092696744721)
(-6.3115403372e-05 7.0940379777e-05 0.000894553670309)
(7.93706699409e-05 8.90319780539e-05 0.00113306626838)
(7.27519656183e-05 9.90880788349e-05 0.00116906245375)
(6.33393967835e-05 0.000108890554105 0.00120028676947)
(5.27045679958e-05 0.000117145302639 0.00122634808156)
(4.07073117642e-05 0.000123870955441 0.00124692350041)
(2.77274654374e-05 0.000128814861947 0.00126177548842)
(1.40511530418e-05 0.000131842886116 0.00127074955925)
(1.60675477378e-08 0.000132863005366 0.00127375786442)
(-1.40194299914e-05 0.000131843263433 0.00127074990145)
(-2.76969581848e-05 0.000128815478113 0.0012617761596)
(-4.06788379836e-05 0.000123871483442 0.00124692422329)
(-5.26789395384e-05 0.000117145386912 0.00122634836438)
(-6.33175977974e-05 0.000108889769827 0.00120028649317)
(-7.27340351185e-05 9.90872072812e-05 0.00116906662625)
(-7.93591377797e-05 8.90311090666e-05 0.00113309988439)
(9.16677140752e-05 0.000102663897761 0.00132522166575)
(8.36411642309e-05 0.000113534418163 0.00136195071637)
(7.2601656379e-05 0.000124101849395 0.00139330989634)
(6.02196556408e-05 0.000132940658384 0.00141918743397)
(4.64010604753e-05 0.000140108395295 0.00143943645861)
(3.15484799466e-05 0.000145358211268 0.00145395647434)
(1.59698345828e-05 0.000148565915977 0.00146268996791)
(1.83594332369e-08 0.000149645140136 0.00146560909353)
(-1.59335735146e-05 0.000148566200908 0.00146268983979)
(-3.15135777031e-05 0.000145358641446 0.00145395615014)
(-4.63684197964e-05 0.000140108657824 0.00143943549901)
(-6.01901322279e-05 0.000132940403661 0.00141918503385)
(-7.2576196102e-05 0.000124100678723 0.0013933053238)
(-8.3619798415e-05 0.000113533200886 0.00136194823362)
(-9.16531391954e-05 0.000102662683831 0.00132524630303)
(0.00010056330044 0.000112462491615 0.00147963150545)
(9.13475736476e-05 0.000123543021607 0.00151515754834)
(7.90365339652e-05 0.000134301332539 0.00154494782218)
(6.53474282137e-05 0.000143234032582 0.00156920898878)
(5.02307881529e-05 0.000150440998218 0.00158799994894)
(3.40902439977e-05 0.000155699858299 0.00160137259131)
(1.723742715e-05 0.000158905112044 0.00160937425459)
(1.99603934531e-08 0.000159982113367 0.00161204037896)
(-1.71979914417e-05 0.000158905369841 0.00160937349444)
(-3.40522535013e-05 0.000155700240316 0.00160137091622)
(-5.01951873205e-05 0.00015044121631 0.00158799669889)
(-6.53150755318e-05 0.000143233757886 0.00156920292444)
(-7.90082648388e-05 0.000134300198717 0.00154493737467)
(-9.13233761367e-05 0.000123541925796 0.00151514598751)
(-0.000100545970756 0.000112461416582 0.00147964353501)
(0.000106504275017 0.000118923868982 0.00160317058655)
(9.63106678888e-05 0.000129727507205 0.00163621149678)
(8.30486523557e-05 0.000140216172535 0.0016633452519)
(6.84416784419e-05 0.000148857886563 0.00168510098787)
(5.24806579885e-05 0.00015579177323 0.00170174855622)
(3.5552155498e-05 0.000160832244776 0.00171348995175)
(1.79568470485e-05 0.000163896643504 0.00172047272177)
(2.10820178738e-08 0.000164925039544 0.00172279110715)
(-1.7915183991e-05 0.000163896974988 0.00172047124057)
(-3.55119839951e-05 0.000160832780538 0.00171348671745)
(-5.24429345839e-05 0.000155792254694 0.00170174262869)
(-6.84072363888e-05 0.000148858002857 0.00168509058627)
(-8.30181950741e-05 0.000140215587152 0.00166332783939)
(-9.62841096316e-05 0.000129727079637 0.00163618946757)
(-0.000106484477879 0.00011892348325 0.00160316861752)
(0.000109918636546 0.000122527405383 0.00170143714417)
(9.89493261236e-05 0.00013267789919 0.00173120665003)
(8.50243776669e-05 0.000142539964623 0.00175505880804)
(6.98394471153e-05 0.000150600278283 0.00177382586582)
(5.34208518238e-05 0.000157030182925 0.00178797594532)
(3.61234292397e-05 0.000161687092553 0.00179784689221)
(1.82256028207e-05 0.000164511406592 0.00180367369405)
(2.18978103645e-08 0.000165458173042 0.00180560013451)
(-1.81823156205e-05 0.000164511930003 0.00180367146467)
(-3.60816504293e-05 0.000161688021573 0.00179784202056)
(-5.33815299745e-05 0.000157031282301 0.0017879671639)
(-6.98033780299e-05 0.00015060125054 0.00177381078006)
(-8.49921278057e-05 0.000142540482628 0.00175503388816)
(-9.89207581959e-05 0.000132678746466 0.00173117377657)
(-0.000109896651622 0.000122528293339 0.00170142139302)
(0.000111197542881 0.000123714477915 0.00177906550024)
(9.96429696351e-05 0.000132931036656 0.00180515615242)
(8.5312679282e-05 0.000141897256543 0.00182544983975)
(6.98445880602e-05 0.00014916446675 0.00184104769855)
(5.32944033551e-05 0.000154927481833 0.00185259124642)
(3.59738729129e-05 0.000159087501714 0.00186053215438)
(1.81310488528e-05 0.00016160503631 0.00186517530261)
(2.25576006181e-08 0.000162448217662 0.00186670227341)
(-1.80864415432e-05 0.000161605875301 0.00186517235819)
(-3.59307685229e-05 0.000159089072627 0.00186052570111)
(-5.32537291894e-05 0.00015492956621 0.00185257966894)
(-6.98071011577e-05 0.000149166768603 0.00184102796848)
(-8.52788286258e-05 0.000141899437543 0.00182541750963)
(-9.96126084634e-05 0.00013293375435 0.00180511310221)
(-0.000111173617836 0.000123717225157 0.00177903751424)
(0.000110688364074 0.000122878710323 0.00183992564316)
(9.87248827991e-05 0.000130957712252 0.00186221514843)
(8.42191096751e-05 0.000138829222562 0.00187893144917)
(6.87231882151e-05 0.000145154299357 0.00189140147047)
(5.23138267302e-05 0.000150142206662 0.00190040731222)
(3.5251587327e-05 0.000153733503752 0.00190648767859)
(1.77492071804e-05 0.000155903418212 0.0019099974436)
(2.31925191339e-08 0.000156629805688 0.00191114342094)
(-1.77033219886e-05 0.00015590468339 0.00190999389642)
(-3.52071788323e-05 0.000153735937749 0.00190647988039)
(-5.22717965504e-05 0.000150145605506 0.00190039332257)
(-6.86842606996e-05 0.000145158357275 0.00189137767134)
(-8.41836534026e-05 0.000138833568586 0.00187889263137)
(-9.86927968391e-05 0.000130962838741 0.00186216378318)
(-0.000110662662764 0.000122883858063 0.00183988832699)
(0.00010869742915 0.000120370270306 0.00188724813666)
(9.64854821329e-05 0.000127165271521 0.00190581974809)
(8.20099983196e-05 0.000133796988527 0.00191912498432)
(6.67078024486e-05 0.000139080412115 0.00192866731924)
(5.06644348962e-05 0.000143228978594 0.00193533066077)
(3.40850798203e-05 0.00014621253791 0.00193971077319)
(1.71457804905e-05 0.000148014005372 0.00194219171922)
(2.39151938611e-08 0.000148617074333 0.00194299318716)
(-1.70984340575e-05 0.000148015776168 0.00194218780711)
(-3.40391636017e-05 0.000146215997194 0.00193970215361)
(-5.0620823189e-05 0.000143233937298 0.00193531515608)
(-6.66672055718e-05 0.000139086552758 0.00192864084069)
(-8.19727544692e-05 0.000133803888203 0.00191908176056)
(-9.64515960685e-05 0.000127173234878 0.0019057634382)
(-0.000108669994349 0.000120378246931 0.00188720609744)
(0.000105491374213 0.00011649959044 0.00192369374005)
(9.31773694386e-05 0.000121898300423 0.00193876686669)
(7.89201466572e-05 0.00012718547349 0.00194895682938)
(6.40038156706e-05 0.000131369357617 0.00195588519154)
(4.85081902871e-05 0.000134650652138 0.00196049188244)
(3.25852026012e-05 0.000137012801189 0.00196339669773)
(1.63769372575e-05 0.000138439552043 0.00196499171354)
(2.48160539089e-08 0.000138917467267 0.00196549781455)
(-1.6327763899e-05 0.000138441860166 0.00196498787332)
(-3.25373914313e-05 0.000137017348467 0.00196338823284)
(-4.84625914982e-05 0.000134657277792 0.00196047656462)
(-6.39611496732e-05 0.000131377740765 0.00195585867817)
(-7.88807839396e-05 0.000127195138467 0.00194891296315)
(-9.31414840276e-05 0.00012190935016 0.00193871091903)
(-0.000105462103835 0.000116510686239 0.00192365382295)
(0.000101294818207 0.000111520069742 0.00195137211465)
(8.90302248524e-05 0.000115429704432 0.00196324737907)
(7.51680111648e-05 0.000119312278029 0.00197071380335)
(6.07969589015e-05 0.000122380436853 0.00197543059868)
(4.59857756778e-05 0.000124796979185 0.00197833804866)
(3.08452008543e-05 0.000126541278174 0.00198004346306)
(1.54890557942e-05 0.000127595429268 0.00198092546709)
(2.5958006837e-08 0.000127948850955 0.00198119525713)
(-1.54375692755e-05 0.000127598233962 0.00198092241263)
(-3.07949879127e-05 0.00012654684085 0.00198003676036)
(-4.59376610753e-05 0.000124805180344 0.00197832576152)
(-6.07517058361e-05 0.000122390984778 0.00197540852977)
(-7.51260923962e-05 0.000119324663238 0.00197067550543)
(-8.89920465562e-05 0.000115443838863 0.0019631994683)
(-0.000101263535505 0.000111534283814 0.00195134315469)
(9.6339496451e-05 0.000105612549316 0.00197180008109)
(8.43098289182e-05 0.000108010502462 0.00198084750114)
(7.09758892758e-05 0.000110462300593 0.0019860768166)
(5.72492446858e-05 0.000112444309628 0.00198906853596)
(4.32084330612e-05 0.000114015743632 0.00199070144564)
(2.89346128207e-05 0.000115150183004 0.00199153097142)
(1.45158230106e-05 0.000115834328866 0.00199190090135)
(2.73598463272e-08 0.000116063779288 0.00199200269436)
(-1.44614943588e-05 0.000115837505923 0.00199189963507)
(-2.88814526196e-05 0.000115156518525 0.00199152830431)
(-4.31572379656e-05 0.000114025170223 0.00199069630483)
(-5.72008451558e-05 0.000112456614294 0.00198905770855)
(-7.09309359399e-05 0.00011047702956 0.00198605389471)
(-8.42690284724e-05 0.000108027389333 0.00198081855711)
(-9.6305886523e-05 0.000105629614448 0.0019717919532)
(9.09599669153e-05 9.92936867475e-05 0.00198578960562)
(7.93465421592e-05 9.95345351754e-05 0.00199259954089)
(6.64766592772e-05 0.000100734280903 0.00199617415161)
(5.34395947862e-05 0.000101697672924 0.00199801333809)
(4.02232499417e-05 0.000102457006185 0.00199886390264)
(2.68828061067e-05 0.000102996909999 0.00199918818439)
(1.34719491237e-05 0.000103319096092 0.0019992746235)
(2.89976388582e-08 0.000103427149492 0.00199928574362)
(-1.34143085364e-05 0.000103322396355 0.00199927604968)
(-2.68262285982e-05 0.000103003516859 0.00199919163717)
(-4.01684899994e-05 0.00010246690656 0.00199886984348)
(-5.33875278875e-05 0.000101710774892 0.00199802100745)
(-6.64281767949e-05 0.000100750259432 0.00199617828668)
(-7.93029502687e-05 9.95532703287e-05 0.0019926098767)
(-9.09234598837e-05 9.93127516014e-05 0.00198580127317)
(3.32700475687e-07 5.63264810518e-07 0.000153277396485)
(1.80502354629e-07 7.42415780719e-07 0.000160632476083)
(1.08579220403e-07 8.40909463485e-07 0.000167162049169)
(4.95797933606e-08 9.09004597402e-07 0.000172735886557)
(1.20743633648e-08 9.50957114491e-07 0.000177227932834)
(-5.22200474413e-09 9.74395016956e-07 0.000180523305113)
(-6.92727540515e-09 9.85650678663e-07 0.000182538748268)
(2.21396154423e-10 9.88972718913e-07 0.000183221933688)
(7.48985936094e-09 9.85720832178e-07 0.000182538740503)
(6.14176370492e-09 9.74557909979e-07 0.000180523330022)
(-1.06575130617e-08 9.51214684639e-07 0.000177228055123)
(-4.78349939524e-08 9.09313251353e-07 0.00017273622703)
(-1.06863219595e-07 8.41288780006e-07 0.000167163011168)
(-1.79024188849e-07 7.42774962778e-07 0.000160636002585)
(-3.31985702884e-07 5.63680829305e-07 0.000153290860345)
(3.12817437393e-06 3.88788725351e-06 0.000443045856321)
(2.64304543943e-06 4.7695439915e-06 0.000463257674016)
(2.2562443382e-06 5.48543415462e-06 0.000481129060082)
(1.83704721734e-06 6.08658758839e-06 0.000496329063937)
(1.39400647267e-06 6.55720142152e-06 0.000508544060096)
(9.36703210913e-07 6.89437333837e-06 0.000517488623167)
(4.70870349311e-07 7.09705404629e-06 0.0005229513917)
(1.8817875864e-09 7.164871067e-06 0.000524797464906)
(-4.66872016761e-07 7.09724665828e-06 0.00052295141011)
(-9.32027639887e-07 6.89477236912e-06 0.000517488763691)
(-1.38843833617e-06 6.55777274173e-06 0.000508544493272)
(-1.83097010933e-06 6.08723746599e-06 0.000496330113346)
(-2.2505498102e-06 5.48617886315e-06 0.00048113187665)
(-2.63832151321e-06 4.77032590459e-06 0.000463267888783)
(-3.12577214479e-06 3.88886555698e-06 0.000443081016346)
(7.48061857549e-06 8.79820619671e-06 0.000716376714761)
(6.60151647266e-06 1.05761499882e-05 0.000747790390937)
(5.76254580061e-06 1.2127899232e-05 0.000775425054934)
(4.7913698942e-06 1.34656324662e-05 0.000798831290909)
(3.70152809291e-06 1.45402257189e-05 0.00081757677562)
(2.52120651653e-06 1.5325442407e-05 0.000831269701952)
(1.27808700511e-06 1.58039699827e-05 0.000839617121899)
(3.76151977654e-09 1.59650714565e-05 0.000842431490082)
(-1.27027663813e-06 1.58042934927e-05 0.000839616848405)
(-2.51257867938e-06 1.53260681349e-05 0.000831269295171)
(-3.69183694846e-06 1.45410501251e-05 0.000817576464264)
(-4.78106300897e-06 1.34664918439e-05 0.000798831534913)
(-5.75280838982e-06 1.21288098683e-05 0.000775427536718)
(-6.59331997522e-06 1.05772901578e-05 0.000747803306566)
(-7.47603798705e-06 8.79984321372e-06 0.000716425341372)
(1.26969835621e-05 1.45400002023e-05 0.000972310956971)
(1.13627873019e-05 1.72570039858e-05 0.00101300086325)
(9.98318382013e-06 1.96796434817e-05 0.00104853863142)
(8.34439416757e-06 2.178779148e-05 0.00107846501385)
(6.47425576438e-06 2.34944479777e-05 0.00110231737678)
(4.42371352968e-06 2.47481321768e-05 0.00111967821074)
(2.24692076937e-06 2.55148158792e-05 0.00113023431698)
(6.09458729238e-09 2.5773247477e-05 0.00113378531814)
(-2.23446419323e-06 2.5515259409e-05 0.00113023341797)
(-4.41051309128e-06 2.47489731137e-05 0.00111967653756)
(-6.46013395279e-06 2.3495543182e-05 0.00110231511497)
(-8.32984752253e-06 2.17889543425e-05 0.00107846259799)
(-9.9695079562e-06 1.96808527874e-05 0.00104853791072)
(-1.13512032085e-05 1.72586647645e-05 0.00101301134254)
(-1.26900083243e-05 1.45424452544e-05 0.000972362598047)
(1.82109442978e-05 2.0500042918e-05 0.0012091439916)
(1.63786999881e-05 2.40942389145e-05 0.00125692229522)
(1.44166918723e-05 2.7304264987e-05 0.00129825552699)
(1.20615795087e-05 3.01064984459e-05 0.00133279835874)
(9.36487802637e-06 3.23791166425e-05 0.0013601568999)
(6.4016958809e-06 3.40499862994e-05 0.0013799746406)
(3.25253078224e-06 3.50722552104e-05 0.00139198411958)
(8.60032619237e-09 3.54168042766e-05 0.00139601433865)
(-3.23512490491e-06 3.50728403042e-05 0.00139198223736)
(-6.38374076725e-06 3.40510949783e-05 0.00137997094224)
(-9.34631455552e-06 3.23805887667e-05 0.00136015141341)
(-1.2042950001e-05 3.01081381614e-05 0.0013327912984)
(-1.43992918115e-05 2.73060035263e-05 0.00129824851608)
(-1.63638277338e-05 2.40965940036e-05 0.00125692533805)
(-1.82014037715e-05 2.05034280601e-05 0.00120918985233)
(2.36346545929e-05 2.62739661463e-05 0.00142531981652)
(2.12812415735e-05 3.06184893724e-05 0.00147787898553)
(1.87281823479e-05 3.44645702771e-05 0.0015228137737)
(1.56557056902e-05 3.78218132675e-05 0.00156001228053)
(1.21458280137e-05 4.05411709996e-05 0.00158924419186)
(8.29730586469e-06 4.25379513066e-05 0.00161029282014)
(4.21400345624e-06 4.37584410345e-05 0.00162299527777)
(1.10968006788e-08 4.41695226985e-05 0.00162724679167)
(-4.19168768713e-06 4.37591976511e-05 0.00162299214743)
(-8.27468956578e-06 4.25393909185e-05 0.00161028650805)
(-1.21229847356e-05 4.05431264092e-05 0.0015892344557)
(-1.56332098777e-05 3.78240790816e-05 0.00155999891438)
(-1.87072760332e-05 3.44670344417e-05 0.00152279782475)
(-2.12631713289e-05 3.0621707628e-05 0.00147787052833)
(-2.36224130162e-05 2.62783746875e-05 0.00142535387676)
(2.86795417879e-05 3.15709485784e-05 0.00161986325644)
(2.58020763146e-05 3.64957472277e-05 0.00167494832305)
(2.26758257237e-05 4.07881895723e-05 0.00172138069036)
(1.89223159951e-05 4.45264734531e-05 0.00175938463616)
(1.46572085157e-05 4.75447123909e-05 0.00178897016138)
(1.00007860632e-05 4.97551257774e-05 0.00181012065103)
(5.0754568338e-06 5.11037289671e-05 0.00182282118096)
(1.34750344521e-08 5.15575104777e-05 0.00182705945674)
(-5.04847140034e-06 5.11046848861e-05 0.00182281666513)
(-9.9737534372e-06 4.97569580159e-05 0.0018101114056)
(-1.46303276398e-05 4.7547250957e-05 0.00178895557605)
(-1.88961820758e-05 4.45295038578e-05 0.00175936391065)
(-2.26515945778e-05 4.07915459608e-05 0.00172135403857)
(-2.57809060504e-05 3.64999990254e-05 0.00167492578486)
(-2.86644897528e-05 3.15764436237e-05 0.00161988199075)
(3.3134223226e-05 3.61838755983e-05 0.00179251128405)
(2.97496136969e-05 4.14933892925e-05 0.00184806481921)
(2.60901928389e-05 4.60270169997e-05 0.00189412378501)
(2.17215057457e-05 4.99590709648e-05 0.00193132361709)
(1.67919817649e-05 5.31186661121e-05 0.00195996476313)
(1.14399712387e-05 5.54241541376e-05 0.00198026645849)
(5.80058146014e-06 5.68273409589e-05 0.00199238576179)
(1.56871054839e-08 5.7298926827e-05 0.00199641645986)
(-5.76925148692e-06 5.68285230768e-05 0.0019923799088)
(-1.14088241445e-05 5.54264379859e-05 0.00198025434494)
(-1.67613237196e-05 5.312188083e-05 0.00195994534288)
(-2.16919463397e-05 4.99629924016e-05 0.0019312953704)
(-2.6062782365e-05 4.60314227049e-05 0.00189408594196)
(-2.97254275684e-05 4.14988244614e-05 0.0018480275127)
(-3.31163295785e-05 3.6190562891e-05 0.00179251368235)
(3.68562324012e-05 3.99783750051e-05 0.00194367580772)
(3.29991775283e-05 4.5466514721e-05 0.00199793743164)
(2.88645181366e-05 5.00384010773e-05 0.00204207860244)
(2.39685658793e-05 5.39802284044e-05 0.00207718672917)
(1.8487885511e-05 5.71283972125e-05 0.00210387198111)
(1.25743083653e-05 5.94152340069e-05 0.00212259895655)
(6.36944543678e-06 6.0803049236e-05 0.00213370093798)
(1.77231527736e-08 6.12688592042e-05 0.00213737899258)
(-6.33410916942e-06 6.08044755156e-05 0.00213369403299)
(-1.25393440478e-05 5.94180095313e-05 0.00212258453886)
(-1.8453684416e-05 5.71323567344e-05 0.00210384854587)
(-2.3935748872e-05 5.39851374898e-05 0.00207715197637)
(-2.88340403201e-05 5.004398865e-05 0.00204203072659)
(-3.2972041238e-05 4.54732620939e-05 0.00199788693242)
(-3.68355116728e-05 3.99863647181e-05 0.00194366355645)
(3.97625324115e-05 4.28814367978e-05 0.00207431859413)
(3.54825403916e-05 4.83434551162e-05 0.00212587657681)
(3.0944184303e-05 5.27650593208e-05 0.00216692832147)
(2.56239175966e-05 5.65473057037e-05 0.00219901588676)
(1.97187920581e-05 5.95457964328e-05 0.00222304622553)
(1.33884908866e-05 6.17125845104e-05 0.00223971366913)
(6.77510578706e-06 6.30233241911e-05 0.0022495141196)
(1.95961419318e-08 6.34626709145e-05 0.00225274639352)
(-6.73607367421e-06 6.30249959576e-05 0.00224950674777)
(-1.33499736134e-05 6.1715858252e-05 0.00223969814688)
(-1.96812453006e-05 5.95505198769e-05 0.00222302062785)
(-2.55879726005e-05 5.65532414167e-05 0.00219897714484)
(-3.09107218364e-05 5.27718992843e-05 0.00216687361244)
(-3.54525220539e-05 4.83516000798e-05 0.00212581711011)
(-3.97390180861e-05 4.28908119708e-05 0.00207429640305)
(4.18190935715e-05 4.48700273968e-05 0.0021857818932)
(3.71771146147e-05 5.01109183475e-05 0.00223358403882)
(3.23161563229e-05 5.42147461782e-05 0.00227075763217)
(2.66833484149e-05 5.76893910277e-05 0.00229925821469)
(2.04864388002e-05 6.04203319911e-05 0.00232024467085)
(1.38863910392e-05 6.23824662391e-05 0.00233460359912)
(7.02037770893e-06 6.35653890434e-05 0.0023429654372)
(2.13223077547e-08 6.3961377354e-05 0.0023457088526)
(-6.97792814434e-06 6.35672790303e-05 0.00234295855688)
(-1.3844554585e-05 6.2386190214e-05 0.00233458896786)
(-2.04457149116e-05 6.04257599603e-05 0.00232022006538)
(-2.66443821086e-05 5.7696299723e-05 0.00229921988703)
(-3.22797824946e-05 5.42228095959e-05 0.00227070177393)
(-3.71442885555e-05 5.01204649764e-05 0.00223352288782)
(-4.17928448508e-05 4.48808036782e-05 0.00218575797638)
(4.30287849098e-05 4.59584418002e-05 0.00227959425036)
(3.80944235892e-05 5.079762962e-05 0.00232293466757)
(3.29990359313e-05 5.4439655494e-05 0.00235581632388)
(2.71695217375e-05 5.74838265312e-05 0.00238050990298)
(2.08133907083e-05 5.98532898941e-05 0.00239835301175)
(1.40858999843e-05 6.15455542494e-05 0.00241037130596)
(7.11508028417e-06 6.25623280147e-05 0.00241729152022)
(2.29089844056e-08 6.29022935469e-05 0.00241954843328)
(-7.06947938795e-06 6.25643781594e-05 0.0024172865283)
(-1.40409750151e-05 6.15496131906e-05 0.0024103605074)
(-2.07696692844e-05 5.98592665003e-05 0.00239833412877)
(-2.71276614067e-05 5.74915289228e-05 0.0023804787041)
(-3.29598500938e-05 5.44487747972e-05 0.00235576796812)
(-3.80588978363e-05 5.08084384121e-05 0.00232288246316)
(-4.29998753124e-05 4.59705266182e-05 0.00227958071305)
(4.34168289417e-05 4.61783908102e-05 0.00235725214825)
(3.82709545222e-05 5.04539166037e-05 0.0023957727794)
(3.30378522479e-05 5.35179473113e-05 0.00242431968395)
(2.71276291402e-05 5.60370532267e-05 0.00244530537505)
(2.07388691158e-05 5.79781022734e-05 0.00246016257918)
(1.40155600291e-05 5.93563779269e-05 0.00246999743457)
(7.07414927115e-06 6.01817527322e-05 0.00247558912224)
(2.43482220192e-08 6.04574341975e-05 0.00247740110473)
(-7.02568844889e-06 6.01838714477e-05 0.00247558785887)
(-1.39678166758e-05 5.93605960878e-05 0.00246999438784)
(-2.06923866706e-05 5.798437156e-05 0.00246015585291)
(-2.70830775967e-05 5.60452448131e-05 0.00244529068057)
(-3.29960368897e-05 5.35278019693e-05 0.00242429097162)
(-3.82329141304e-05 5.04656981823e-05 0.00239574348094)
(-4.33854209407e-05 4.61915228387e-05 0.00235726389713)
(4.30433664943e-05 4.55729931532e-05 0.00241996260676)
(3.77841589268e-05 4.92017654208e-05 0.00245377965621)
(3.25158034406e-05 5.15768595459e-05 0.00247832276896)
(2.66281902896e-05 5.34988752258e-05 0.00249596884407)
(2.03179350786e-05 5.496501629e-05 0.00250820751074)
(1.37127201339e-05 5.5999866767e-05 0.00251616998105)
(6.91636966243e-06 5.66171951964e-05 0.00252064032265)
(2.56130189888e-08 5.68231302246e-05 0.00252208062526)
(-6.86539388762e-06 5.66192713e-05 0.00252064490385)
(-1.36625038292e-05 5.60040195368e-05 0.00251617924796)
(-2.02690306158e-05 5.49712437327e-05 0.00250822066601)
(-2.65812743362e-05 5.35071297512e-05 0.00249598256945)
(-3.24716712747e-05 5.15869980203e-05 0.00247833001762)
(-3.77438932434e-05 4.92140809889e-05 0.00245379089116)
(-4.30096263288e-05 4.55868470145e-05 0.00242001495219)
(4.19581301618e-05 4.48067537229e-05 0.00246844624234)
(3.67401321663e-05 4.73077309204e-05 0.00249868084205)
(3.15106013429e-05 4.88384679919e-05 0.00251971439171)
(2.57323261192e-05 5.0069270152e-05 0.00253453984251)
(1.95969467864e-05 5.09900299164e-05 0.00254466645473)
(1.32081877017e-05 5.16323802276e-05 0.00255117513607)
(6.6570833095e-06 5.2012314741e-05 0.00255479777702)
(2.66676006233e-08 5.21386614497e-05 0.00255596181896)
(-6.60402146258e-06 5.20141824582e-05 0.00255480985038)
(-1.31559392792e-05 5.16361356354e-05 0.00255120030005)
(-1.95460764424e-05 5.09957150931e-05 0.00254470582417)
(-2.56834963504e-05 5.00769298424e-05 0.00253459296432)
(-3.1464572701e-05 4.88480888194e-05 0.00251977469419)
(-3.66981793419e-05 4.73198142958e-05 0.00249876105747)
(-4.19221216636e-05 4.48204422435e-05 0.00246853833224)
(-7.21146112379e-08 -1.39738504359e-07 0.000106707705148)
(-2.46756197422e-08 -1.97400242429e-07 0.000111759400108)
(7.71121465741e-09 -2.32715854116e-07 0.000116166739487)
(3.03404124159e-08 -2.5333487085e-07 0.000119896869156)
(3.88956749046e-08 -2.62234893069e-07 0.000122883970423)
(3.49272021662e-08 -2.64480593824e-07 0.000125066551924)
(2.09953220999e-08 -2.64015494775e-07 0.000126398633312)
(1.42984923879e-09 -2.63482198983e-07 0.000126850490401)
(-1.82108808532e-08 -2.63840341261e-07 0.000126399105575)
(-3.23544340925e-08 -2.64123649371e-07 0.000125067485273)
(-3.65801353817e-08 -2.61667001702e-07 0.000122885372347)
(-2.80789087551e-08 -2.52493519238e-07 0.000119898893886)
(-5.5456861846e-09 -2.31788273552e-07 0.000116169954477)
(2.65537668818e-08 -1.96320332326e-07 0.00011176565284)
(7.35060611123e-08 -1.38764274254e-07 0.000106723053666)
(1.49539776694e-07 2.95683546977e-08 0.000323000976034)
(2.51659398565e-07 -2.92994521413e-08 0.000338188229032)
(3.06701882349e-07 -3.94461657986e-08 0.000351474107739)
(3.2274089271e-07 -1.81721593711e-08 0.000362715694469)
(2.931717391e-07 2.17603245662e-08 0.000371716174272)
(2.23206595412e-07 6.37487935331e-08 0.000378292540355)
(1.22261431011e-07 9.4817388432e-08 0.000382304826302)
(4.20611679046e-09 1.06380728987e-07 0.00038366128737)
(-1.14009023503e-07 9.52897440524e-08 0.000382306037018)
(-2.15406073262e-07 6.47121772565e-08 0.0003782949458)
(-2.85947765876e-07 2.32666846375e-08 0.00037171983485)
(-3.15842694824e-07 -1.60320717884e-08 0.000362721110754)
(-3.00228886593e-07 -3.70344948543e-08 0.000351482991426)
(-2.46092586373e-07 -2.65028019703e-08 0.000338206059168)
(-1.45500098241e-07 3.21856444563e-08 0.000323042297699)
(7.74599595128e-07 6.80048726828e-07 0.000539675450188)
(8.93687084102e-07 7.33368210642e-07 0.000564891348372)
(9.25604247042e-07 8.49382532513e-07 0.000586952317479)
(8.79877054571e-07 1.00038227414e-06 0.000605602422395)
(7.50633023041e-07 1.1598059945e-06 0.000620521600523)
(5.48708741318e-07 1.2977065542e-06 0.000631415676319)
(2.92337397375e-07 1.390740464e-06 0.000638057555148)
(6.4153199325e-09 1.4237863969e-06 0.000640298405984)
(-2.79694430402e-07 1.39137011461e-06 0.000638059155975)
(-5.36591735044e-07 1.29901816742e-06 0.00063141888028)
(-7.39196555409e-07 1.16191742886e-06 0.00062052654618)
(-8.6891232145e-07 1.00341491814e-06 0.000605609924948)
(-9.15266428546e-07 8.52963340026e-07 0.000586964994155)
(-8.84582041905e-07 7.37567321858e-07 0.000564917451718)
(-7.67851472359e-07 6.84271053189e-07 0.0005397360932)
(1.87773001795e-06 1.88378781345e-06 0.000755091159108)
(1.97951507707e-06 2.16592009234e-06 0.000789953750299)
(1.94030390689e-06 2.51759543867e-06 0.000820397172131)
(1.77099186978e-06 2.89406528431e-06 0.000846081934319)
(1.46873185505e-06 3.25099126549e-06 0.000866590310171)
(1.05273050075e-06 3.54237168497e-06 0.000881543674272)
(5.53025328014e-07 3.73263546305e-06 0.000890649217006)
(8.50119251398e-09 3.79903919226e-06 0.000893715892008)
(-5.36216036521e-07 3.73343129687e-06 0.000890650698368)
(-1.03646250088e-06 3.54402880816e-06 0.000881546677313)
(-1.45319870636e-06 3.25364712696e-06 0.000866595063501)
(-1.75610713115e-06 2.89784608032e-06 0.000846089489758)
(-1.92633109749e-06 2.52219646975e-06 0.000820410722778)
(-1.96709386448e-06 2.17139181299e-06 0.000789983365568)
(-1.86835060633e-06 1.88956368449e-06 0.000755162340854)
(3.39103912434e-06 3.55009421717e-06 0.000967191865003)
(3.44367645147e-06 4.14250330223e-06 0.00101097435054)
(3.29032475648e-06 4.80517891628e-06 0.00104905538769)
(2.94339073084e-06 5.47099634381e-06 0.00108107247437)
(2.40519162752e-06 6.07592132474e-06 0.00110655798177)
(1.70574128271e-06 6.55706996584e-06 0.0011250945385)
(8.89178660927e-07 6.86636824219e-06 0.00113636079338)
(1.05164219976e-08 6.97339597137e-06 0.00114014854762)
(-8.68340165742e-07 6.86734481095e-06 0.00113636168257)
(-1.68545220244e-06 6.55908732138e-06 0.00112509639589)
(-2.38569281987e-06 6.07910840974e-06 0.00110656109713)
(-2.92473552532e-06 5.47547410997e-06 0.00108107800332)
(-3.27289748688e-06 4.81072192801e-06 0.00104906673947)
(-3.42814670052e-06 4.14920002762e-06 0.00101100275552)
(-3.37907781155e-06 3.55732238754e-06 0.000967266053086)
(5.22494643729e-06 5.56687683569e-06 0.00117365848647)
(5.19907692292e-06 6.51318969157e-06 0.00122527213944)
(4.89467388183e-06 7.52316936548e-06 0.00126989036835)