/*--------------------------------*- C++ -*----------------------------------*\
  =========                 |
  \\      /  F ield         | OpenFOAM: The Open Source CFD Toolbox
   \\    /   O peration     | Website:  https://openfoam.org
    \\  /    A nd           | Version:  7
     \\/     M anipulation  |
\*---------------------------------------------------------------------------*/
FoamFile
{
    version     2.0;
    format      ascii;
    class       volScalarField;
    location    "2.48";
    object      p;
}
// * * * * * * * * * * * * * * * * * * * * * * * * * * * * * * * * * * * * * //

dimensions      [0 2 -2 0 0 0 0];

internalField   nonuniform List<scalar> 
22500
(
1.88188799081e-05
1.8816004736e-05
1.88151259443e-05
1.88138481694e-05
1.88128930527e-05
1.88121566228e-05
1.88117064496e-05
1.88115568716e-05
1.88117318096e-05
1.88122064707e-05
1.88129662203e-05
1.88139405105e-05
1.8815233244e-05
1.88161145336e-05
1.881898377e-05
1.87817968718e-05
1.87770313584e-05
1.87745533511e-05
1.87718769918e-05
1.87697866321e-05
1.87682142644e-05
1.87672535012e-05
1.87669336579e-05
1.87672796555e-05
1.87682657152e-05
1.87698619529e-05
1.87719724196e-05
1.87746636938e-05
1.87771445902e-05
1.87819045049e-05
1.87461162669e-05
1.87396118536e-05
1.87357773545e-05
1.87318775644e-05
1.87288115157e-05
1.87265205597e-05
1.87251217756e-05
1.8724655049e-05
1.87251468092e-05
1.87265697725e-05
1.87288833699e-05
1.87319687528e-05
1.87358827919e-05
1.87397207722e-05
1.87462217714e-05
1.87143542983e-05
1.87064157725e-05
1.87015190445e-05
1.86966794156e-05
1.86928672393e-05
1.86900318768e-05
1.86883023858e-05
1.86877246881e-05
1.86883256114e-05
1.86900775461e-05
1.86929337766e-05
1.86967638513e-05
1.87016170871e-05
1.87065179233e-05
1.87144561088e-05
1.8684782634e-05
1.86756179771e-05
1.86698357261e-05
1.86642475315e-05
1.86598404115e-05
1.86565766367e-05
1.86545880411e-05
1.8653923705e-05
1.86546094854e-05
1.86566187865e-05
1.86599017949e-05
1.86643254728e-05
1.86699266438e-05
1.86757134582e-05
1.86848799823e-05
1.86570044799e-05
1.86468207855e-05
1.86403121625e-05
1.86341461621e-05
1.86292791187e-05
1.86256894868e-05
1.86235048824e-05
1.86227751077e-05
1.86235244649e-05
1.86257280232e-05
1.8629335237e-05
1.86342175343e-05
1.86403956291e-05
1.86469095844e-05
1.86570972914e-05
1.86311283406e-05
1.86201429324e-05
1.86130606863e-05
1.8606478436e-05
1.86012786444e-05
1.85974584296e-05
1.85951361142e-05
1.85943604922e-05
1.85951539387e-05
1.85974935299e-05
1.86013298035e-05
1.86065436471e-05
1.86131372332e-05
1.86202251414e-05
1.86312165857e-05
1.86071618187e-05
1.8595582315e-05
1.85880619443e-05
1.8581205029e-05
1.85757834603e-05
1.85718144811e-05
1.85694043087e-05
1.85685995546e-05
1.85694204584e-05
1.85718462996e-05
1.85758299322e-05
1.85812644234e-05
1.85881319668e-05
1.85956583648e-05
1.8607245868e-05
1.85850222785e-05
1.85730390094e-05
1.85651985686e-05
1.85581880921e-05
1.85526396531e-05
1.85485904829e-05
1.85461341375e-05
1.85453142048e-05
1.85461487637e-05
1.85486193315e-05
1.85526818751e-05
1.85582422921e-05
1.85652627576e-05
1.85731096348e-05
1.85851023769e-05
1.85646034358e-05
1.85523898165e-05
1.85443364533e-05
1.85372774719e-05
1.8531684449e-05
1.85276133342e-05
1.85251460847e-05
1.85243227354e-05
1.85251593351e-05
1.85276395116e-05
1.85317228581e-05
1.85373270138e-05
1.85443955076e-05
1.85524557134e-05
1.85646804866e-05
1.85457916108e-05
1.85335055851e-05
1.85253439236e-05
1.85183299721e-05
1.85127652496e-05
1.85087226924e-05
1.85062750221e-05
1.85054584661e-05
1.85062870641e-05
1.85087465055e-05
1.85128003162e-05
1.85183754394e-05
1.85253985081e-05
1.85335674249e-05
1.85458660944e-05
1.85284496345e-05
1.85162539414e-05
1.85081007131e-05
1.85012173471e-05
1.84957453086e-05
1.84917752853e-05
1.84893739002e-05
1.84885731459e-05
1.8489384879e-05
1.84917970715e-05
1.84957774577e-05
1.85012592999e-05
1.85081514599e-05
1.85163123311e-05
1.85285218816e-05
1.85123645699e-05
1.85005092477e-05
1.84925151372e-05
1.8485836918e-05
1.84805110692e-05
1.8476651683e-05
1.8474320615e-05
1.84735438168e-05
1.8474330709e-05
1.84766716647e-05
1.84805407451e-05
1.8485875852e-05
1.84925626361e-05
1.85005648021e-05
1.85124349808e-05
1.84974151168e-05
1.84862220233e-05
1.84784953669e-05
1.84720723192e-05
1.846693874e-05
1.84632319692e-05
1.84609995897e-05
1.84602568995e-05
1.84610088842e-05
1.84632504556e-05
1.84669662815e-05
1.84721087948e-05
1.84785402272e-05
1.8486275352e-05
1.84974840879e-05
1.84847619221e-05
1.84730355322e-05
1.84656645411e-05
1.84595101227e-05
1.84546460376e-05
1.84511695148e-05
1.84490875789e-05
1.84483965715e-05
1.84490962237e-05
1.84511866832e-05
1.84546717564e-05
1.84595444626e-05
1.84657074323e-05
1.84730871104e-05
1.84848276035e-05
1.42672493578e-05
1.4268233874e-05
1.42689338886e-05
1.42695710821e-05
1.42701108811e-05
1.42705194387e-05
1.4270773173e-05
1.42708526791e-05
1.42707517664e-05
1.42704779503e-05
1.42700525777e-05
1.42695019949e-05
1.42688583302e-05
1.42681598035e-05
1.42671794416e-05
1.4271387641e-05
1.4272544041e-05
1.42734178382e-05
1.4274213607e-05
1.42748864094e-05
1.42753946168e-05
1.42757102356e-05
1.42758108162e-05
1.42756884802e-05
1.42753524704e-05
1.42748271949e-05
1.42741433015e-05
1.42733418181e-05
1.42724692476e-05
1.42713176591e-05
1.42762814376e-05
1.42777928679e-05
1.42789697598e-05
1.42800529298e-05
1.42809715446e-05
1.42816671194e-05
1.42821004085e-05
1.42822413778e-05
1.42820791893e-05
1.42816260068e-05
1.42809136872e-05
1.42799837742e-05
1.42788949997e-05
1.42777185397e-05
1.4276211784e-05
1.42823875235e-05
1.42845130751e-05
1.42861859489e-05
1.42877294974e-05
1.42890404579e-05
1.4290034509e-05
1.42906548565e-05
1.42908598784e-05
1.42906345091e-05
1.42899950615e-05
1.4288984753e-05
1.42876623197e-05
1.42861128347e-05
1.42844397691e-05
1.42823182944e-05
1.42901894062e-05
1.42931668037e-05
1.4295503103e-05
1.42976505652e-05
1.42994705198e-05
1.4300848707e-05
1.43017083355e-05
1.43019949863e-05
1.43016889949e-05
1.43008112023e-05
1.42994174016e-05
1.42975860903e-05
1.42954323031e-05
1.42930952171e-05
1.4290121011e-05
1.42996666881e-05
1.43036645425e-05
1.43067672326e-05
1.43096002916e-05
1.43119908011e-05
1.43137958233e-05
1.43149196074e-05
1.43152960925e-05
1.43149014598e-05
1.43137606034e-05
1.43119407662e-05
1.43095391164e-05
1.43066994728e-05
1.43035949386e-05
1.42995998359e-05
1.431056795e-05
1.43156734084e-05
1.4319580766e-05
1.43231189642e-05
1.43260886439e-05
1.43283227388e-05
1.43297101829e-05
1.43301760391e-05
1.4329693368e-05
1.43282900659e-05
1.43260420985e-05
1.43230616709e-05
1.43195167663e-05
1.43156066444e-05
1.43105030605e-05
1.43225718614e-05
1.43287944625e-05
1.43334883338e-05
1.4337698419e-05
1.43412122176e-05
1.43438449877e-05
1.43454754332e-05
1.43460233831e-05
1.43454600503e-05
1.43438150581e-05
1.43411694316e-05
1.43376453876e-05
1.43334284523e-05
1.43287310471e-05
1.43225091885e-05
1.43353422762e-05
1.4342623154e-05
1.43480404671e-05
1.43528492825e-05
1.43568400713e-05
1.43598177306e-05
1.43616562872e-05
1.43622742527e-05
1.43616423809e-05
1.43597906351e-05
1.43568011902e-05
1.43528007611e-05
1.4347985069e-05
1.43425635113e-05
1.43352823526e-05
1.43485561587e-05
1.43567804255e-05
1.43628250242e-05
1.43681324694e-05
1.43725124271e-05
1.43757666008e-05
1.43777697135e-05
1.43784427041e-05
1.43777572811e-05
1.43757423305e-05
1.43724774567e-05
1.43680885063e-05
1.43627742343e-05
1.43567247901e-05
1.43484992123e-05
1.43619192866e-05
1.43709289999e-05
1.43774823606e-05
1.43831740352e-05
1.43878450207e-05
1.43913003091e-05
1.43934203552e-05
1.43941320532e-05
1.43934093471e-05
1.43912787696e-05
1.43878138618e-05
1.43831345862e-05
1.43774362539e-05
1.43708776324e-05
1.4361865706e-05
1.43751642439e-05
1.43847730453e-05
1.43917071813e-05
1.43976677996e-05
1.44025309555e-05
1.44061113601e-05
1.44083004356e-05
1.44090344094e-05
1.44082907603e-05
1.44060923768e-05
1.440250338e-05
1.43976326666e-05
1.43916656907e-05
1.43847261525e-05
1.43751145552e-05
1.43880410368e-05
1.43980654049e-05
1.44052614407e-05
1.44113838109e-05
1.44163437919e-05
1.4419974983e-05
1.44221860051e-05
1.44229262345e-05
1.44221775196e-05
1.44199583058e-05
1.44163195045e-05
1.44113527042e-05
1.44052243747e-05
1.43980229555e-05
1.43879953593e-05
1.44004928796e-05
1.44107884718e-05
1.44180793978e-05
1.44242297218e-05
1.44291639001e-05
1.44327511304e-05
1.44349257344e-05
1.44356521582e-05
1.44349183e-05
1.44327364743e-05
1.44291424622e-05
1.44242022029e-05
1.44180464913e-05
1.44107505555e-05
1.44004513282e-05
1.4413431904e-05
1.44230241381e-05
1.44301344242e-05
1.44361187532e-05
1.44408474253e-05
1.44442576321e-05
1.44463151759e-05
1.44470011923e-05
1.44463086167e-05
1.44442447399e-05
1.4440828535e-05
1.44360944727e-05
1.44301053195e-05
1.44229908681e-05
1.44133948517e-05
1.50541999451e-05
1.50538899893e-05
1.5053478824e-05
1.50530257261e-05
1.50526007405e-05
1.50522615333e-05
1.50520450687e-05
1.50519726205e-05
1.5052051847e-05
1.50522741762e-05
1.50526174611e-05
1.50530449277e-05
1.5053502219e-05
1.50539153893e-05
1.50542288539e-05
1.50545618871e-05
1.50542756548e-05
1.50538858426e-05
1.50534502455e-05
1.50530384058e-05
1.5052707589e-05
1.50524955306e-05
1.50524243965e-05
1.50525023583e-05
1.50527203462e-05
1.50530553256e-05
1.50534697474e-05
1.50539090592e-05
1.50543013949e-05
1.50545908071e-05
1.50552030327e-05
1.50549541563e-05
1.50546003579e-05
1.50541946226e-05
1.50538061807e-05
1.50534915055e-05
1.50532886536e-05
1.50532204492e-05
1.50532953957e-05
1.50535041752e-05
1.50538231859e-05
1.50542144844e-05
1.50546236304e-05
1.50549800244e-05
1.50552318319e-05
1.50556609184e-05
1.50554311151e-05
1.50550975162e-05
1.50547094332e-05
1.50543353822e-05
1.50540309737e-05
1.50538340492e-05
1.50537677127e-05
1.50538406255e-05
1.50540434229e-05
1.50543523504e-05
1.50547295189e-05
1.50551207605e-05
1.50554566946e-05
1.50556896531e-05
1.50559406965e-05
1.50557242489e-05
1.50554065296e-05
1.50550354218e-05
1.50546768787e-05
1.50543846531e-05
1.50541953649e-05
1.50541315743e-05
1.50542017656e-05
1.50543968326e-05
1.50546936546e-05
1.50550555133e-05
1.50554297361e-05
1.50557495432e-05
1.50559693201e-05
1.50561443581e-05
1.50559509816e-05
1.5055658052e-05
1.50553147134e-05
1.50549825919e-05
1.50547117936e-05
1.50545363237e-05
1.50544772343e-05
1.5054542491e-05
1.50547235923e-05
1.50549990118e-05
1.50553345814e-05
1.50556809571e-05
1.50559759963e-05
1.50561726018e-05
1.50563474036e-05
1.50561961118e-05
1.5055943062e-05
1.50556434453e-05
1.50553525612e-05
1.5055115053e-05
1.50549611067e-05
1.50549093841e-05
1.50549670135e-05
1.50551263999e-05
1.50553684872e-05
1.50556629129e-05
1.50559655433e-05
1.50562207644e-05
1.50563753005e-05
1.50566031966e-05
1.50565164703e-05
1.50563199778e-05
1.50560803056e-05
1.50558451876e-05
1.50556522913e-05
1.50555270668e-05
1.50554851778e-05
1.50555326814e-05
1.5055663123e-05
1.50558605199e-05
1.50560992445e-05
1.50563419367e-05
1.50565406554e-05
1.50566308187e-05
1.50569494627e-05
1.50569481584e-05
1.50568231004e-05
1.50566566235e-05
1.50564887212e-05
1.50563491193e-05
1.50562580439e-05
1.50562278369e-05
1.50562633493e-05
1.50563593988e-05
1.50565033849e-05
1.50566749275e-05
1.50568444854e-05
1.50569718547e-05
1.50569767268e-05
1.5057407829e-05
1.50575074783e-05
1.50574643541e-05
1.5057379274e-05
1.50572854141e-05
1.50572041003e-05
1.50571502064e-05
1.50571326966e-05
1.50571551979e-05
1.50572138122e-05
1.50572993779e-05
1.50573968961e-05
1.50574851209e-05
1.50575306913e-05
1.50574347536e-05
1.50579846456e-05
1.50581924429e-05
1.50582358944e-05
1.50582348144e-05
1.50582168478e-05
1.50581949718e-05
1.50581788475e-05
1.50581742165e-05
1.50581835243e-05
1.50582041067e-05
1.50582300853e-05
1.50582517014e-05
1.5058255983e-05
1.50582151052e-05
1.505801116e-05
1.50586694649e-05
1.50589835661e-05
1.50591129406e-05
1.50591940222e-05
1.50592498645e-05
1.50592855932e-05
1.50593059405e-05
1.50593137271e-05
1.5059310303e-05
1.50592941526e-05
1.50592623618e-05
1.50592101342e-05
1.50591322939e-05
1.50590055759e-05
1.50586954242e-05
1.5059437865e-05
1.50598515094e-05
1.50600630077e-05
1.50602206969e-05
1.50603450503e-05
1.50604341527e-05
1.50604882165e-05
1.50605074515e-05
1.50604922634e-05
1.50604421298e-05
1.50603567782e-05
1.50602359803e-05
1.50600815426e-05
1.50598727751e-05
1.50594631425e-05
1.50603142548e-05
1.50608189353e-05
1.50610836249e-05
1.50612974126e-05
1.5061473299e-05
1.50616030765e-05
1.50616828804e-05
1.50617108429e-05
1.50616866158e-05
1.50616104385e-05
1.50614842158e-05
1.50613117763e-05
1.50611012428e-05
1.50608393955e-05
1.50603385907e-05
1.50615855794e-05
1.50619007202e-05
1.50621477339e-05
1.50623741192e-05
1.50625671472e-05
1.50627121397e-05
1.50628018894e-05
1.50628332121e-05
1.50628053127e-05
1.50627189402e-05
1.50625772708e-05
1.50623875876e-05
1.50621645079e-05
1.50619206385e-05
1.50616090439e-05
1.30561944167e-05
1.30564036488e-05
1.30566641401e-05
1.30569285273e-05
1.30571678632e-05
1.30573552764e-05
1.30574740899e-05
1.30575134803e-05
1.30574694855e-05
1.30573464069e-05
1.30571555747e-05
1.30569147658e-05
1.30566502096e-05
1.30563926268e-05
1.30561851385e-05
1.30563732664e-05
1.30565840851e-05
1.30568487143e-05
1.3057118643e-05
1.30573637362e-05
1.30575563153e-05
1.30576786465e-05
1.30577192515e-05
1.30576738028e-05
1.305754698e-05
1.30573508249e-05
1.30571041169e-05
1.30568343451e-05
1.30565724439e-05
1.30563641356e-05
1.30563716747e-05
1.30565706505e-05
1.30568259159e-05
1.30570889533e-05
1.30573297866e-05
1.30575202032e-05
1.30576416368e-05
1.30576820964e-05
1.30576370085e-05
1.30575112988e-05
1.30573175018e-05
1.30570750221e-05
1.30568122317e-05
1.30565591162e-05
1.30563628218e-05
1.30563585312e-05
1.30565476618e-05
1.30567954481e-05
1.30570510329e-05
1.30572867846e-05
1.30574741339e-05
1.30575940431e-05
1.30576341691e-05
1.30575897839e-05
1.3057465956e-05
1.30572755119e-05
1.30570381573e-05
1.30567826987e-05
1.30565366509e-05
1.30563499456e-05
1.30563644992e-05
1.30565456374e-05
1.30567881201e-05
1.30570363145e-05
1.3057266551e-05
1.30574501426e-05
1.30575679904e-05
1.30576075635e-05
1.30575640803e-05
1.3057442652e-05
1.30572562231e-05
1.3057024494e-05
1.30567762814e-05
1.30565353065e-05
1.30563562725e-05
1.30563744319e-05
1.30565482362e-05
1.30567859425e-05
1.30570263578e-05
1.30572502912e-05
1.30574294083e-05
1.30575446692e-05
1.30575835252e-05
1.30575411555e-05
1.3057422679e-05
1.30572410128e-05
1.30570156674e-05
1.30567751529e-05
1.30565384546e-05
1.30563668005e-05
1.30563828158e-05
1.30565501049e-05
1.30567844685e-05
1.30570176623e-05
1.3057235502e-05
1.30574101931e-05
1.30575228456e-05
1.30575609649e-05
1.30575197244e-05
1.30574042162e-05
1.30572272589e-05
1.30570081066e-05
1.30567747773e-05
1.30565410124e-05
1.30563757492e-05
1.30563927826e-05
1.30565560708e-05
1.30567895501e-05
1.30570172093e-05
1.3057230249e-05
1.3057401418e-05
1.30575120075e-05
1.3057549564e-05
1.30575092881e-05
1.30573962129e-05
1.30572230446e-05
1.3057008789e-05
1.30567808648e-05
1.30565476865e-05
1.30563861204e-05
1.30564097527e-05
1.30565733309e-05
1.30568088925e-05
1.30570335787e-05
1.30572437166e-05
1.30574127076e-05
1.30575220005e-05
1.30575592376e-05
1.30575196667e-05
1.30574082363e-05
1.30572375062e-05
1.30570262539e-05
1.30568011973e-05
1.30565656528e-05
1.30564035571e-05
1.30564396434e-05
1.30566088356e-05
1.30568493281e-05
1.30570735522e-05
1.30572825546e-05
1.30574505553e-05
1.30575592026e-05
1.30575963156e-05
1.30575572312e-05
1.30574467722e-05
1.30572772696e-05
1.30570672391e-05
1.30568425411e-05
1.30566017965e-05
1.30564338573e-05
1.30564873107e-05
1.30566676777e-05
1.30569152029e-05
1.30571407771e-05
1.30573497545e-05
1.30575173775e-05
1.30576256315e-05
1.30576626672e-05
1.30576239862e-05
1.3057514215e-05
1.3057345313e-05
1.30571354095e-05
1.30569092985e-05
1.30566613156e-05
1.3056481989e-05
1.3056554044e-05
1.30567510694e-05
1.30570069124e-05
1.30572349221e-05
1.30574443409e-05
1.3057611633e-05
1.3057719366e-05
1.30577562251e-05
1.30577180024e-05
1.30576090103e-05
1.3057440633e-05
1.30572304007e-05
1.30570018413e-05
1.30567454503e-05
1.3056549316e-05
1.30566363053e-05
1.30568554315e-05
1.3057120855e-05
1.30573522227e-05
1.30575625638e-05
1.30577295542e-05
1.30578365197e-05
1.30578730918e-05
1.30578353909e-05
1.30577273712e-05
1.30575594883e-05
1.30573484422e-05
1.30571165703e-05
1.30568505718e-05
1.30566322008e-05
1.30567599847e-05
1.30570078284e-05
1.30572714912e-05
1.30574996573e-05
1.30577060154e-05
1.30578685135e-05
1.30579719284e-05
1.30580071425e-05
1.30579709803e-05
1.30578666884e-05
1.30577034217e-05
1.30574965046e-05
1.30572679298e-05
1.30570038322e-05
1.30567566081e-05
1.30571900731e-05
1.30573401895e-05
1.30575367705e-05
1.30577149963e-05
1.30578810185e-05
1.30580119153e-05
1.30580949282e-05
1.30581231488e-05
1.3058094136e-05
1.30580103958e-05
1.30578788842e-05
1.30577124342e-05
1.30575339849e-05
1.30573372635e-05
1.30571875512e-05
1.26595412165e-05
1.26594270081e-05
1.26592834477e-05
1.26591250343e-05
1.26589769522e-05
1.26588574023e-05
1.26587808133e-05
1.26587548472e-05
1.26587821684e-05
1.26588595696e-05
1.26589789123e-05
1.26591266893e-05
1.26592858444e-05
1.26594292803e-05
1.26595463898e-05
1.26596180133e-05
1.2659510673e-05
1.26593730801e-05
1.26592187977e-05
1.26590735141e-05
1.26589556872e-05
1.26588798955e-05
1.26588541287e-05
1.26588812394e-05
1.26589578468e-05
1.26590755156e-05
1.26592204073e-05
1.26593752905e-05
1.26595131588e-05
1.26596231664e-05
1.26597945293e-05
1.26596986662e-05
1.26595729447e-05
1.26594275565e-05
1.26592892994e-05
1.26591762631e-05
1.26591031469e-05
1.26590782133e-05
1.2659104477e-05
1.2659178464e-05
1.26592915223e-05
1.26594295258e-05
1.26595753533e-05
1.26597014802e-05
1.26597996619e-05
1.26599404745e-05
1.26598505688e-05
1.2659732344e-05
1.26595923442e-05
1.2659458352e-05
1.26593482033e-05
1.26592766229e-05
1.26592521439e-05
1.26592779317e-05
1.26593504498e-05
1.26594608414e-05
1.26595946997e-05
1.26597349877e-05
1.26598534819e-05
1.26599456314e-05
1.26600435201e-05
1.26599551558e-05
1.26598409991e-05
1.26597038307e-05
1.26595721341e-05
1.2659463497e-05
1.26593926833e-05
1.26593684261e-05
1.26593939751e-05
1.26594657646e-05
1.26595747884e-05
1.26597064747e-05
1.26598439091e-05
1.26599581565e-05
1.26600487742e-05
1.26601183727e-05
1.26600292273e-05
1.26599179769e-05
1.2659782754e-05
1.26596529141e-05
1.26595456749e-05
1.26594756469e-05
1.26594516298e-05
1.26594769054e-05
1.26595479276e-05
1.26596556717e-05
1.26597855956e-05
1.26599210399e-05
1.26600323952e-05
1.26601235425e-05
1.26601740613e-05
1.26600837682e-05
1.26599754272e-05
1.26598425601e-05
1.26597152569e-05
1.26596101379e-05
1.26595414602e-05
1.26595178957e-05
1.2659542676e-05
1.26596123452e-05
1.26597180423e-05
1.26598455291e-05
1.26599785998e-05
1.26600870864e-05
1.26601792454e-05
1.2660217112e-05
1.26601266878e-05
1.26600222741e-05
1.26598932263e-05
1.26597700441e-05
1.26596685146e-05
1.26596022192e-05
1.26595794797e-05
1.26596033831e-05
1.26596706548e-05
1.26597728201e-05
1.26598962832e-05
1.26600255546e-05
1.26601301167e-05
1.26602224188e-05
1.26602542957e-05
1.26601657467e-05
1.26600672137e-05
1.26599442998e-05
1.26598275455e-05
1.26597316403e-05
1.26596691242e-05
1.26596477072e-05
1.26596702317e-05
1.26597336988e-05
1.26598302783e-05
1.26599473994e-05
1.2660070602e-05
1.26601692981e-05
1.26602597078e-05
1.26602921177e-05
1.26602083005e-05
1.26601181258e-05
1.26600041082e-05
1.26598965386e-05
1.26598086371e-05
1.2659751514e-05
1.26597319895e-05
1.26597525668e-05
1.26598106158e-05
1.26598992233e-05
1.26600072516e-05
1.26601216283e-05
1.26602120193e-05
1.26602976421e-05
1.26603361749e-05
1.26602602663e-05
1.26601808914e-05
1.26600785808e-05
1.26599830239e-05
1.26599055703e-05
1.26598554856e-05
1.26598384358e-05
1.26598564881e-05
1.26599074741e-05
1.26599856587e-05
1.26600817546e-05
1.26601844974e-05
1.26602641455e-05
1.2660341801e-05
1.26603897522e-05
1.26603245633e-05
1.26602579436e-05
1.26601699371e-05
1.26600891586e-05
1.26600245537e-05
1.26599831114e-05
1.26599690965e-05
1.26599840716e-05
1.26600263936e-05
1.26600917562e-05
1.2660173148e-05
1.26602616553e-05
1.26603285733e-05
1.26603954248e-05
1.26604547191e-05
1.26604015005e-05
1.26603486261e-05
1.26602769808e-05
1.2660213536e-05
1.2660164006e-05
1.26601326613e-05
1.26601221976e-05
1.26601335827e-05
1.26601657948e-05
1.26602161024e-05
1.26602802213e-05
1.26603524363e-05
1.2660405643e-05
1.26604604359e-05
1.26605447949e-05
1.2660503262e-05
1.26604586853e-05
1.26604016874e-05
1.26603553291e-05
1.26603207431e-05
1.26602993781e-05
1.26602923893e-05
1.26603002694e-05
1.26603224851e-05
1.26603578646e-05
1.2660404955e-05
1.26604625812e-05
1.26605075508e-05
1.26605504334e-05
1.26607281479e-05
1.26606536415e-05
1.26605970696e-05
1.26605433753e-05
1.26605055085e-05
1.26604789979e-05
1.26604631295e-05
1.26604581019e-05
1.2660464022e-05
1.26604807606e-05
1.26605081053e-05
1.26605467659e-05
1.26606012268e-05
1.26606583797e-05
1.26607338676e-05
1.14046320062e-05
1.14046965357e-05
1.14047758084e-05
1.14048565528e-05
1.14049298291e-05
1.1404987321e-05
1.14050235338e-05
1.14050351005e-05
1.14050208971e-05
1.14049822563e-05
1.14049227684e-05
1.1404848106e-05
1.14047664801e-05
1.14046879652e-05
1.14046233846e-05
1.14046921795e-05
1.140475793e-05
1.14048389093e-05
1.14049218979e-05
1.14049974018e-05
1.14050568015e-05
1.14050942905e-05
1.14051062956e-05
1.14050915613e-05
1.14050515543e-05
1.14049901043e-05
1.14049132208e-05
1.14048295078e-05
1.14047491701e-05
1.14046838866e-05
1.14046982097e-05
1.14047612405e-05
1.14048397888e-05
1.1404921491e-05
1.14049963827e-05
1.14050556873e-05
1.14050932917e-05
1.14051054147e-05
1.14050906961e-05
1.14050506967e-05
1.1404989439e-05
1.14049131861e-05
1.14048308479e-05
1.14047525682e-05
1.14046902018e-05
1.14047011477e-05
1.14047623016e-05
1.1404839324e-05
1.14049198546e-05
1.14049942202e-05
1.14050534171e-05
1.14050911248e-05
1.14051033835e-05
1.14050887418e-05
1.14050488297e-05
1.14049878158e-05
1.14049121501e-05
1.14048309614e-05
1.14047540061e-05
1.14046933961e-05
1.14047118563e-05
1.14047722061e-05
1.14048487076e-05
1.14049284001e-05
1.14050023897e-05
1.14050614693e-05
1.14050992309e-05
1.14051115824e-05
1.1405097029e-05
1.14050572303e-05
1.14049964572e-05
1.14049212534e-05
1.1404840867e-05
1.14047643705e-05
1.14047044254e-05
1.14047261484e-05
1.1404786339e-05
1.14048623706e-05
1.14049411445e-05
1.14050144761e-05
1.14050731594e-05
1.14051107634e-05
1.14051231412e-05
1.14051087602e-05
1.14050692954e-05
1.14050090514e-05
1.14049345819e-05
1.14048551356e-05
1.14047788658e-05
1.14047192377e-05
1.14047415931e-05
1.14048015937e-05
1.14048771752e-05
1.14049547341e-05
1.14050269924e-05
1.14050848948e-05
1.14051220624e-05
1.14051343601e-05
1.14051202437e-05
1.14050813827e-05
1.14050220504e-05
1.14049487294e-05
1.14048705481e-05
1.14047945456e-05
1.14047351725e-05
1.14047573631e-05
1.14048170524e-05
1.1404892119e-05
1.14049680374e-05
1.14050387767e-05
1.14050954985e-05
1.14051319624e-05
1.14051440801e-05
1.14051303284e-05
1.14050923389e-05
1.14050343083e-05
1.14049625732e-05
1.14048860279e-05
1.14048104433e-05
1.14047513242e-05
1.14047728471e-05
1.14048322888e-05
1.14049066572e-05
1.14049805634e-05
1.14050493668e-05
1.14051045519e-05
1.14051400589e-05
1.14051519017e-05
1.14051385947e-05
1.14051017149e-05
1.14050453392e-05
1.14049756052e-05
1.14049010654e-05
1.14048261048e-05
1.14047672313e-05
1.14047878735e-05
1.14048471856e-05
1.1404920613e-05
1.14049921535e-05
1.14050586365e-05
1.14051119649e-05
1.14051462968e-05
1.14051577828e-05
1.14051449875e-05
1.14051094239e-05
1.14050550095e-05
1.14049876488e-05
1.1404915463e-05
1.14048413633e-05
1.14047826471e-05
1.14048024223e-05
1.14048618138e-05
1.14049340735e-05
1.14050029404e-05
1.14050667871e-05
1.14051179977e-05
1.14051509676e-05
1.14051620231e-05
1.14051497961e-05
1.14051157206e-05
1.14050635236e-05
1.14049988557e-05
1.14049293443e-05
1.14048563677e-05
1.1404797603e-05
1.14048162095e-05
1.1404876083e-05
1.14049470424e-05
1.14050130918e-05
1.14050741639e-05
1.14051231124e-05
1.14051546121e-05
1.14051651817e-05
1.14051535577e-05
1.14051210636e-05
1.14050712115e-05
1.14050093822e-05
1.14049427074e-05
1.14048710415e-05
1.14048118476e-05
1.14048283832e-05
1.14048892357e-05
1.14049590808e-05
1.14050226002e-05
1.14050811681e-05
1.14051280464e-05
1.14051581174e-05
1.14051682162e-05
1.14051571639e-05
1.14051261799e-05
1.1405078491e-05
1.14050192127e-05
1.14049551177e-05
1.14048846089e-05
1.14048244724e-05
1.14048462839e-05
1.14049096299e-05
1.14049757297e-05
1.14050353788e-05
1.1405090562e-05
1.14051344866e-05
1.14051625365e-05
1.1405171912e-05
1.14051616588e-05
1.14051327829e-05
1.14050880925e-05
1.14050322854e-05
1.14049721117e-05
1.14049054676e-05
1.14048429022e-05
1.14049471715e-05
1.14049823148e-05
1.14050261719e-05
1.14050683052e-05
1.1405109012e-05
1.14051415309e-05
1.14051621947e-05
1.14051690448e-05
1.14051614065e-05
1.14051399917e-05
1.14051067979e-05
1.14050655238e-05
1.14050229749e-05
1.14049786858e-05
1.1404944139e-05
1.06362626934e-05
1.06362306547e-05
1.06361863853e-05
1.06361368681e-05
1.06360910071e-05
1.06360542128e-05
1.06360303647e-05
1.06360218719e-05
1.06360296004e-05
1.06360525958e-05
1.06360883679e-05
1.06361327767e-05
1.06361804935e-05
1.06362231688e-05
1.06362569428e-05
1.06362921603e-05
1.06362622664e-05
1.06362201877e-05
1.06361722968e-05
1.0636127585e-05
1.06360914936e-05
1.06360680225e-05
1.06360596434e-05
1.06360672721e-05
1.06360899038e-05
1.06361249594e-05
1.06361682063e-05
1.06362142835e-05
1.06362549123e-05
1.06362863351e-05
1.06363477122e-05
1.06363209814e-05
1.06362826905e-05
1.06362376494e-05
1.06361951118e-05
1.06361604487e-05
1.06361377858e-05
1.06361296717e-05
1.06361370496e-05
1.06361588825e-05
1.06361925216e-05
1.06362336529e-05
1.06362769537e-05
1.0636314033e-05
1.0636342e-05
1.06363925653e-05
1.0636367404e-05
1.06363313457e-05
1.06362880743e-05
1.06362467919e-05
1.06362128903e-05
1.06361906382e-05
1.0636182653e-05
1.06361899007e-05
1.06362113156e-05
1.06362441848e-05
1.06362841138e-05
1.06363258047e-05
1.063636069e-05
1.06363870143e-05
1.06364241856e-05
1.0636399356e-05
1.06363644487e-05
1.06363221024e-05
1.06362814584e-05
1.06362479339e-05
1.06362258776e-05
1.0636217951e-05
1.06362251395e-05
1.06362463618e-05
1.06362788587e-05
1.06363181923e-05
1.06363590949e-05
1.06363928267e-05
1.06364188263e-05
1.06364473365e-05
1.06364220262e-05
1.06363879387e-05
1.06363462394e-05
1.06363060966e-05
1.06362729109e-05
1.06362510407e-05
1.06362431719e-05
1.06362502908e-05
1.06362713192e-05
1.06363034858e-05
1.06363423656e-05
1.0636382755e-05
1.06364157743e-05
1.06364420501e-05
1.0636464622e-05
1.06364387609e-05
1.06364054254e-05
1.06363643767e-05
1.06363248821e-05
1.06362922191e-05
1.06362706817e-05
1.06362629259e-05
1.06362699234e-05
1.06362906171e-05
1.06363222787e-05
1.06363605658e-05
1.06364003894e-05
1.06364327875e-05
1.06364595078e-05
1.06364778652e-05
1.06364517172e-05
1.06364192334e-05
1.06363791599e-05
1.06363406949e-05
1.06363089101e-05
1.06362879557e-05
1.06362804029e-05
1.06362871887e-05
1.06363073018e-05
1.06363381156e-05
1.0636375459e-05
1.06364144219e-05
1.06364460417e-05
1.06364730507e-05
1.06364888672e-05
1.06364628313e-05
1.06364315443e-05
1.06363929357e-05
1.06363560162e-05
1.06363255941e-05
1.06363055632e-05
1.06362983393e-05
1.06363047964e-05
1.06363239996e-05
1.06363534904e-05
1.06363893702e-05
1.06364269897e-05
1.06364574781e-05
1.06364843802e-05
1.06364991488e-05
1.06364737294e-05
1.06364441121e-05
1.06364075671e-05
1.06363728524e-05
1.06363443807e-05
1.06363256773e-05
1.06363189307e-05
1.06363249253e-05
1.06363428271e-05
1.06363704259e-05
1.0636404205e-05
1.06364398786e-05
1.0636468775e-05
1.06364950209e-05
1.06365098716e-05
1.06364856309e-05
1.0636458172e-05
1.06364243318e-05
1.06363925276e-05
1.06363666401e-05
1.06363497079e-05
1.06363435995e-05
1.06363489859e-05
1.06363651577e-05
1.06363902376e-05
1.06364212096e-05
1.06364542836e-05
1.06364811009e-05
1.06365061352e-05
1.06365215161e-05
1.06364988956e-05
1.06364740035e-05
1.06364435551e-05
1.06364154406e-05
1.06363928488e-05
1.06363781642e-05
1.06363728729e-05
1.06363774893e-05
1.0636391471e-05
1.06364133373e-05
1.06364407221e-05
1.06364705033e-05
1.06364947899e-05
1.0636518165e-05
1.06365339393e-05
1.0636513077e-05
1.06364911319e-05
1.06364647671e-05
1.06364412022e-05
1.0636422641e-05
1.06364107225e-05
1.06364064201e-05
1.06364101114e-05
1.06364214069e-05
1.06364393191e-05
1.063646226e-05
1.06364880429e-05
1.06365094253e-05
1.06365310174e-05
1.06365499135e-05
1.06365308673e-05
1.06365108156e-05
1.0636488434e-05
1.06364696479e-05
1.06364553683e-05
1.06364463256e-05
1.06364430781e-05
1.06364458044e-05
1.06364542971e-05
1.06364680354e-05
1.06364862826e-05
1.06365081518e-05
1.06365276693e-05
1.0636547328e-05
1.06365881199e-05
1.06365587183e-05
1.06365358634e-05
1.0636514746e-05
1.06364986664e-05
1.06364869507e-05
1.06364797019e-05
1.06364771222e-05
1.063647929e-05
1.06364861145e-05
1.06364973863e-05
1.06365130319e-05
1.06365337473e-05
1.06365561388e-05
1.06365858604e-05
9.63758412401e-06
9.63759849695e-06
9.6376166126e-06
9.63763444394e-06
9.63765048936e-06
9.6376629494e-06
9.63767070944e-06
9.63767291138e-06
9.6376692516e-06
9.63766003737e-06
9.63764612406e-06
9.63762886323e-06
9.63761017337e-06
9.63759225189e-06
9.6375778109e-06
9.63759956602e-06
9.63761482024e-06
9.63763354667e-06
9.63765218589e-06
9.63766897724e-06
9.63768206226e-06
9.63769023463e-06
9.63769257061e-06
9.63768874222e-06
9.63767908095e-06
9.63766451204e-06
9.63764647397e-06
9.63762700623e-06
9.63760836393e-06
9.63759346997e-06
9.63760562592e-06
9.63762082118e-06
9.63763938738e-06
9.63765827589e-06
9.63767539462e-06
9.63768883884e-06
9.63769726345e-06
9.63769970708e-06
9.63769581413e-06
9.63768594865e-06
9.63767109387e-06
9.63765276924e-06
9.63763312219e-06
9.63761441568e-06
9.63759969087e-06
9.637611326e-06
9.63762643482e-06
9.63764505819e-06
9.63766408759e-06
9.63768149456e-06
9.63769525992e-06
9.63770391781e-06
9.63770646744e-06
9.6377025322e-06
9.63769250285e-06
9.63767741172e-06
9.63765884185e-06
9.63763902812e-06
9.63762015167e-06
9.63760540186e-06
9.63761850374e-06
9.63763370947e-06