/*--------------------------------*- C++ -*----------------------------------*\
  =========                 |
  \\      /  F ield         | OpenFOAM: The Open Source CFD Toolbox
   \\    /   O peration     | Website:  https://openfoam.org
    \\  /    A nd           | Version:  7
     \\/     M anipulation  |
\*---------------------------------------------------------------------------*/
FoamFile
{
    version     2.0;
    format      ascii;
    class       volScalarField;
    location    "1.92";
    object      p;
}
// * * * * * * * * * * * * * * * * * * * * * * * * * * * * * * * * * * * * * //

dimensions      [0 2 -2 0 0 0 0];

internalField   nonuniform List<scalar> 
22500
(
1.47303502321e-05
1.47285962196e-05
1.4727900361e-05
1.47269540386e-05
1.47262139456e-05
1.47256421507e-05
1.47252898886e-05
1.47251718707e-05
1.47253047094e-05
1.47256714005e-05
1.47262571938e-05
1.47270096902e-05
1.47279670269e-05
1.47286682948e-05
1.47304292618e-05
1.47098315604e-05
1.47070408532e-05
1.4705466131e-05
1.47037487745e-05
1.47023791441e-05
1.47013423177e-05
1.470070533e-05
1.47004923839e-05
1.47007207009e-05
1.47013726748e-05
1.4702423934e-05
1.47038065354e-05
1.4705535027e-05
1.47071154362e-05
1.47099131e-05
1.46902889665e-05
1.46865670755e-05
1.46842585173e-05
1.46818784013e-05
1.4679977611e-05
1.46785483517e-05
1.46776716135e-05
1.46773783065e-05
1.46776865629e-05
1.4678577868e-05
1.46800210725e-05
1.46819344884e-05
1.46843254034e-05
1.46866397689e-05
1.46903694775e-05
1.46729964465e-05
1.46685200929e-05
1.46656367337e-05
1.4662749793e-05
1.46604444797e-05
1.4658719247e-05
1.46576623362e-05
1.4657308649e-05
1.46576765709e-05
1.4658747357e-05
1.4660485799e-05
1.46628030753e-05
1.46657004034e-05
1.4668589541e-05
1.4673074708e-05
1.4656990683e-05
1.46518809109e-05
1.46485183991e-05
1.46452300324e-05
1.4642603706e-05
1.46406468453e-05
1.46394496153e-05
1.46390490899e-05
1.46394631536e-05
1.46406735695e-05
1.46426429574e-05
1.46452806123e-05
1.46485789059e-05
1.46519470755e-05
1.46570662163e-05
1.46420233424e-05
1.46363962755e-05
1.46326408853e-05
1.46290450387e-05
1.4626172449e-05
1.46240410686e-05
1.46227388294e-05
1.46223033731e-05
1.46227516569e-05
1.46240663997e-05
1.46262096248e-05
1.46290929356e-05
1.46326981294e-05
1.46364592178e-05
1.46420961868e-05
1.46281288946e-05
1.46221035711e-05
1.46180392601e-05
1.46142252432e-05
1.46111775494e-05
1.46089253204e-05
1.46075511317e-05
1.46070918808e-05
1.46075632909e-05
1.46089493298e-05
1.46112127712e-05
1.46142706203e-05
1.4618093453e-05
1.46221633681e-05
1.4628199198e-05
1.46153035614e-05
1.46089930487e-05
1.46046964329e-05
1.46007440839e-05
1.45975850117e-05
1.45952592932e-05
1.45938422289e-05
1.45933689618e-05
1.45938537719e-05
1.4595282077e-05
1.45976184427e-05
1.4600787157e-05
1.46047478342e-05
1.46090500383e-05
1.46153716565e-05
1.46035021829e-05
1.4597009821e-05
1.45925496861e-05
1.45885288376e-05
1.45853143894e-05
1.45829560571e-05
1.45815211488e-05
1.45810422673e-05
1.45815321545e-05
1.45829777829e-05
1.45853462737e-05
1.4588569964e-05
1.45925987265e-05
1.45970645376e-05
1.46035685197e-05
1.45926676305e-05
1.45860861604e-05
1.45815259398e-05
1.45774982868e-05
1.4574278118e-05
1.45719227863e-05
1.45704917354e-05
1.4570014516e-05
1.45705022985e-05
1.45719436475e-05
1.45743087608e-05
1.45775378672e-05
1.45815731602e-05
1.45861392411e-05
1.45927329747e-05
1.45827356191e-05
1.45761471268e-05
1.4571548832e-05
1.45675703439e-05
1.45643893716e-05
1.45620686478e-05
1.45606606657e-05
1.45601915396e-05
1.45606708907e-05
1.45620888567e-05
1.45644191088e-05
1.45676088577e-05
1.45715948511e-05
1.45761993205e-05
1.4582800825e-05
1.45736202132e-05
1.45671077587e-05
1.45625409812e-05
1.45586647459e-05
1.45555640531e-05
1.45533065378e-05
1.45519389839e-05
1.45514838402e-05
1.45519489676e-05
1.45533263248e-05
1.45555932454e-05
1.45587027113e-05
1.45625864995e-05
1.45671598969e-05
1.45736861424e-05
1.45651751276e-05
1.45588751717e-05
1.45544330995e-05
1.45507091589e-05
1.45477254595e-05
1.45455573962e-05
1.45442467649e-05
1.45438111043e-05
1.45442566199e-05
1.45455769362e-05
1.45477544481e-05
1.45507470958e-05
1.45544788779e-05
1.45589281726e-05
1.45652427114e-05
1.45573107435e-05
1.45514073378e-05
1.45471565517e-05
1.45436214969e-05
1.45407866201e-05
1.45387360162e-05
1.45375007514e-05
1.45370912217e-05
1.45375105217e-05
1.45387554719e-05
1.45408156808e-05
1.45436599205e-05
1.45472033751e-05
1.45514623276e-05
1.45573804755e-05
1.45508350914e-05
1.45444851741e-05
1.45404680003e-05
1.45371281368e-05
1.45344839791e-05
1.45325937486e-05
1.45314627581e-05
1.45310890635e-05
1.45314725586e-05
1.45326133029e-05
1.45345133808e-05
1.45371674937e-05
1.45405170275e-05
1.45445438302e-05
1.45509064446e-05
1.21247926853e-05
1.2125210404e-05
1.21254754768e-05
1.21256993559e-05
1.21258832358e-05
1.21260214252e-05
1.21261076911e-05
1.21261355614e-05
1.21261027725e-05
1.21260121626e-05
1.21258710453e-05
1.21256863284e-05
1.21254624415e-05
1.21251986696e-05
1.21247828698e-05
1.21267556935e-05
1.21272520588e-05
1.21276005477e-05
1.21279006821e-05
1.21281479849e-05
1.21283331368e-05
1.2128448323e-05
1.21284860663e-05
1.21284434503e-05
1.21283239904e-05
1.212813599e-05
1.212788796e-05
1.21275883078e-05
1.21272408941e-05
1.21267465846e-05
1.21288578403e-05
1.21294926503e-05
1.2129963171e-05
1.21303800952e-05
1.21307275425e-05
1.21309890057e-05
1.21311520979e-05
1.21312062977e-05
1.21311474491e-05
1.21309802581e-05
1.21307159676e-05
1.21303675697e-05
1.21299511342e-05
1.21294812714e-05
1.21288488044e-05
1.21313437447e-05
1.21322194388e-05
1.21328887845e-05
1.21334922156e-05
1.21340000591e-05
1.21343843109e-05
1.21346246593e-05
1.21347053545e-05
1.21346202965e-05
1.2134376069e-05
1.21339890134e-05
1.21334799551e-05
1.21328768125e-05
1.21322078803e-05
1.21313347465e-05
1.21344844488e-05
1.21357050014e-05
1.21366491947e-05
1.21375056942e-05
1.21382293913e-05
1.21387779906e-05
1.21391213023e-05
1.21392371858e-05
1.21391172348e-05
1.21387702896e-05
1.21382189697e-05
1.21374939281e-05
1.21366374707e-05
1.21356934956e-05
1.21344756273e-05
1.21383179786e-05
1.21399646256e-05
1.2141237382e-05
1.21423917213e-05
1.21433667936e-05
1.21441054654e-05
1.2144567237e-05
1.21447234958e-05
1.21445635123e-05
1.21440983989e-05
1.21433571566e-05
1.21423806717e-05
1.21412261927e-05
1.21399532778e-05
1.21383096792e-05
1.21427749531e-05
1.21448979506e-05
1.2146527407e-05
1.21479991771e-05
1.21492392357e-05
1.21501766872e-05
1.2150761625e-05
1.21509597316e-05
1.21507582647e-05
1.21501703002e-05
1.21492304809e-05
1.21479890193e-05
1.21465169994e-05
1.21448870532e-05
1.2142767342e-05
1.21477473824e-05
1.21503648571e-05
1.2152354756e-05
1.21541400502e-05
1.21556388125e-05
1.21567685877e-05
1.21574719059e-05
1.21577101036e-05
1.21574689307e-05
1.21567629286e-05
1.21556310183e-05
1.21541309214e-05
1.21523452546e-05
1.21503546661e-05
1.21477405113e-05
1.21531103246e-05
1.21562099097e-05
1.21585425808e-05
1.21606179245e-05
1.21623528511e-05
1.21636563183e-05
1.21644656715e-05
1.21647396301e-05
1.21644630714e-05
1.2163651376e-05
1.21623460261e-05
1.21606098921e-05
1.21585341134e-05
1.21562006036e-05
1.21531044688e-05
1.21587340669e-05
1.21622761618e-05
1.2164916463e-05
1.21672435751e-05
1.21691801762e-05
1.21706299374e-05
1.21715276043e-05
1.21718311739e-05
1.21715253571e-05
1.21706256724e-05
1.21691742861e-05
1.21672366268e-05
1.2164909063e-05
1.21622678505e-05
1.21587293042e-05
1.21644920097e-05
1.21684142519e-05
1.21713139071e-05
1.2173845171e-05
1.21759416262e-05
1.21775048985e-05
1.21784698766e-05
1.21787957843e-05
1.21784679314e-05
1.21775012158e-05
1.21759365608e-05
1.21738392331e-05
1.21713075682e-05
1.21684070234e-05
1.2164488548e-05
1.21702602352e-05
1.21744836905e-05
1.2177587737e-05
1.21802729605e-05
1.21824850816e-05
1.2184127139e-05
1.2185137148e-05
1.21854777002e-05
1.21851354248e-05
1.21841238979e-05
1.21824806507e-05
1.2180267848e-05
1.2177582336e-05
1.21744775705e-05
1.21702581358e-05
1.21759134122e-05
1.21803582214e-05
1.21836153282e-05
1.21864071518e-05
1.21886912815e-05
1.21903771133e-05
1.2191409621e-05
1.21917569865e-05
1.21914080215e-05
1.21903740901e-05
1.21886872137e-05
1.21864025496e-05
1.21836106197e-05
1.21803530342e-05
1.21759125131e-05
1.21814186308e-05
1.21860243831e-05
1.21893587699e-05
1.2192194827e-05
1.21944920669e-05
1.21961749882e-05
1.21972005356e-05
1.21975446467e-05
1.21971989352e-05
1.21961719826e-05
1.21944880163e-05
1.21921903758e-05
1.21893543869e-05
1.21860200529e-05
1.21814184997e-05
1.21872845184e-05
1.21915651808e-05
1.21948309836e-05
1.21976027663e-05
1.21998132027e-05
1.22014180232e-05
1.22023906381e-05
1.22027160429e-05
1.22023890382e-05
1.22014149774e-05
1.21998091033e-05
1.21975982862e-05
1.21948269462e-05
1.21915620364e-05
1.21872848367e-05
1.24985467493e-05
1.24983574792e-05
1.24981331771e-05
1.24978938206e-05
1.24976735065e-05
1.24974991154e-05
1.24973881307e-05
1.24973503807e-05
1.24973894838e-05
1.24975014426e-05
1.2497676073e-05
1.24978960913e-05
1.24981369205e-05
1.24983613655e-05
1.2498552939e-05
1.24985669012e-05
1.24983858045e-05
1.24981682291e-05
1.24979340424e-05
1.24977175189e-05
1.24975453313e-05
1.24974353742e-05
1.24973979206e-05
1.24974368796e-05
1.2497547974e-05
1.24977205638e-05
1.24979369586e-05
1.24981723767e-05
1.24983904665e-05
1.2498573706e-05
1.2498774496e-05
1.24986116095e-05
1.24984122758e-05
1.24981927979e-05
1.24979879237e-05
1.24978237615e-05
1.24977183827e-05
1.24976823934e-05
1.24977198888e-05
1.24978264526e-05
1.24979911726e-05
1.24981961299e-05
1.24984166666e-05
1.2498616591e-05
1.24987816568e-05
1.24989212727e-05
1.24987660891e-05
1.24985765019e-05
1.24983649795e-05
1.24981665259e-05
1.24980067973e-05
1.24979038966e-05
1.24978686767e-05
1.24979053541e-05
1.24980094546e-05
1.24981699022e-05
1.24983686462e-05
1.24985811044e-05
1.24987711247e-05
1.24989288702e-05
1.24989818311e-05
1.24988272173e-05
1.24986418962e-05
1.24984347001e-05
1.24982402584e-05
1.24980836035e-05
1.2497982572e-05
1.24979479689e-05
1.24979839997e-05
1.24980862412e-05
1.24982437128e-05
1.24984385998e-05
1.24986467202e-05
1.24988323049e-05
1.24989898645e-05
1.24989937329e-05
1.24988389214e-05
1.2498658165e-05
1.24984566142e-05
1.24982681298e-05
1.24981165182e-05
1.24980187921e-05
1.24979853326e-05
1.2498020187e-05
1.24981191297e-05
1.24982716477e-05
1.24984607094e-05
1.24986631559e-05
1.24988441786e-05
1.24990020869e-05
1.24989866099e-05
1.24988353551e-05
1.24986625407e-05
1.24984707769e-05
1.24982924746e-05
1.24981495189e-05
1.24980575495e-05
1.24980261047e-05
1.24980589179e-05
1.24981521033e-05
1.24982960254e-05
1.24984750153e-05
1.24986676639e-05
1.24988407625e-05
1.2498995361e-05
1.24989817725e-05
1.24988401459e-05
1.24986801179e-05
1.24985033878e-05
1.24983403013e-05
1.24982101458e-05
1.24981266616e-05
1.24980981875e-05
1.24981280053e-05
1.24982127069e-05
1.24983438876e-05
1.2498507774e-05
1.24986854047e-05
1.24988457198e-05
1.24989910045e-05
1.24989959585e-05
1.24988706471e-05
1.24987285075e-05
1.24985719214e-05
1.24984287734e-05
1.24983152215e-05
1.24982426962e-05
1.2498218055e-05
1.24982440186e-05
1.24983177645e-05
1.24984323877e-05
1.24985764375e-05
1.24987339759e-05
1.24988764287e-05
1.2499005671e-05
1.24990408368e-05
1.24989376892e-05
1.24988176836e-05
1.24986852557e-05
1.24985657285e-05
1.24984717141e-05
1.24984120257e-05
1.24983918689e-05
1.24984133346e-05
1.24984742498e-05
1.24985693876e-05
1.24986899221e-05
1.24988233672e-05
1.24989437568e-05
1.24990510547e-05
1.24991223661e-05
1.24990451046e-05
1.24989498604e-05
1.24988440745e-05
1.24987504667e-05
1.24986777998e-05
1.24986321013e-05
1.2498616817e-05
1.2498633398e-05
1.24986803288e-05
1.24987541636e-05
1.24988488839e-05
1.2498955758e-05
1.2499051484e-05
1.24991331062e-05
1.2499239728e-05
1.24991891039e-05
1.24991195815e-05
1.24990416545e-05
1.24989751409e-05
1.24989247624e-05
1.24988935938e-05
1.2498883376e-05
1.24988948727e-05
1.24989272781e-05
1.24989788668e-05
1.24990465833e-05
1.24991256828e-05
1.2499195773e-05
1.24992509119e-05
1.24993869106e-05
1.24993608819e-05
1.24993169441e-05
1.24992670583e-05
1.24992279431e-05
1.24991999784e-05
1.24991833891e-05
1.24991781923e-05
1.24991846396e-05
1.24992024515e-05
1.24992316379e-05
1.24992720434e-05
1.24993231804e-05
1.24993678089e-05
1.24993984564e-05
1.24995713634e-05
1.24995682396e-05
1.24995426722e-05
1.24995162614e-05
1.24995006436e-05
1.24994918203e-05
1.24994874607e-05
1.24994865104e-05
1.24994886719e-05
1.24994941955e-05
1.2499504248e-05
1.24995211844e-05
1.24995489426e-05
1.24995754116e-05
1.24995830017e-05
1.24998708843e-05
1.24998192548e-05
1.24997918088e-05
1.24997759289e-05
1.24997725797e-05
1.24997735361e-05
1.24997753133e-05
1.24997764305e-05
1.24997765185e-05
1.24997759272e-05
1.24997761874e-05
1.24997809307e-05
1.24997983594e-05
1.24998271256e-05
1.24998824156e-05
1.1091614594e-05
1.10917242316e-05
1.10918496416e-05
1.1091975797e-05
1.1092088184e-05
1.10921753027e-05
1.10922299472e-05
1.10922474846e-05
1.10922261521e-05
1.109216798e-05
1.10920779786e-05
1.10919640674e-05
1.10918372796e-05
1.10917127816e-05
1.10916029348e-05
1.1091644119e-05
1.10917513394e-05
1.10918765406e-05
1.10920038097e-05
1.10921176785e-05
1.10922063365e-05
1.10922620934e-05
1.10922800298e-05
1.10922582055e-05
1.10921988454e-05
1.10921072829e-05
1.10919919017e-05
1.10918643182e-05
1.10917399685e-05
1.10916331859e-05
1.10915366225e-05
1.10916316537e-05
1.10917462936e-05
1.10918656417e-05
1.10919736902e-05
1.10920586281e-05
1.10921123544e-05
1.10921297297e-05
1.10921086862e-05
1.10920515596e-05
1.10919638748e-05
1.10918542813e-05
1.10917346655e-05
1.10916204648e-05
1.10915262176e-05
1.10914282013e-05
1.10915132616e-05
1.10916189651e-05
1.1091730782e-05
1.10918332086e-05
1.10919144322e-05
1.1091966099e-05
1.10919829112e-05
1.10919627233e-05
1.10919079299e-05
1.109182417e-05
1.10917202233e-05
1.10916080461e-05
1.10915025161e-05
1.10914183117e-05
1.10913407294e-05
1.10914181472e-05
1.10915168955e-05
1.10916220154e-05
1.10917192433e-05
1.10917968344e-05
1.10918464337e-05
1.10918626486e-05
1.10918433187e-05
1.10917908386e-05
1.10917108825e-05
1.10916121944e-05
1.10915065973e-05
1.10914078847e-05
1.10913313895e-05
1.10912623085e-05
1.10913330484e-05
1.10914252985e-05
1.1091523775e-05
1.10916155305e-05
1.10916891805e-05
1.10917364508e-05
1.10917519824e-05
1.10917336075e-05
1.10916837061e-05
1.10916078898e-05
1.10915147332e-05
1.10914157388e-05
1.10913232131e-05
1.10912537366e-05
1.10911869376e-05
1.10912512411e-05
1.10913374611e-05
1.10914292748e-05
1.10915153458e-05
1.10915847883e-05
1.10916295222e-05
1.10916442874e-05
1.1091626937e-05
1.10915798044e-05
1.10915083767e-05
1.10914209646e-05
1.10913286154e-05
1.10912418741e-05
1.10911790944e-05
1.10911133232e-05
1.10911715478e-05
1.10912524058e-05
1.10913377802e-05
1.10914182973e-05
1.10914835608e-05
1.10915257606e-05
1.1091539747e-05
1.10915234303e-05
1.10914790665e-05
1.10914119897e-05
1.10913302023e-05
1.10912442227e-05
1.10911626927e-05
1.10911061092e-05
1.10910411717e-05
1.10910941669e-05
1.10911704385e-05
1.10912499699e-05
1.10913253531e-05
1.1091386714e-05
1.10914265226e-05
1.10914397668e-05
1.10914244257e-05
1.10913826653e-05
1.10913196472e-05
1.1091243063e-05
1.10911628719e-05
1.10910858039e-05
1.10910346383e-05
1.10909707697e-05
1.10910195645e-05
1.10910920953e-05
1.10911665668e-05
1.1091237423e-05
1.10912953223e-05
1.10913329819e-05
1.10913455587e-05
1.10913311016e-05
1.10912916837e-05
1.10912322756e-05
1.10911602767e-05
1.10910850971e-05
1.1091011658e-05
1.10909648747e-05
1.10909023368e-05
1.10909481263e-05
1.10910177902e-05
1.1091088075e-05
1.1091155116e-05
1.10912100312e-05
1.10912458135e-05
1.10912577894e-05
1.1091244122e-05
1.10912067555e-05
1.10911504595e-05
1.10910823517e-05
1.10910113311e-05
1.10909407131e-05
1.1090897125e-05
1.10908354583e-05
1.10908794926e-05
1.10909471837e-05
1.10910143084e-05
1.10910783421e-05
1.10911308389e-05
1.10911650171e-05
1.10911764786e-05
1.10911634882e-05
1.10911278724e-05
1.10910741206e-05
1.1091009084e-05
1.10909412332e-05
1.10908726015e-05
1.1090830973e-05
1.1090767511e-05
1.10908109182e-05
1.10908781051e-05
1.10909437396e-05
1.1091006166e-05
1.10910570985e-05
1.109109016e-05
1.10911012108e-05
1.10910887662e-05
1.10910544026e-05
1.10910023002e-05
1.10909389636e-05
1.10908726242e-05
1.1090804566e-05
1.10907637403e-05
1.1090699113e-05
1.10907449147e-05
1.10908120197e-05
1.10908771831e-05
1.10909386516e-05
1.10909882729e-05
1.1091020142e-05
1.10910307818e-05
1.10910188761e-05
1.10909857874e-05
1.10909351098e-05
1.10908727796e-05
1.10908069791e-05
1.10907391363e-05
1.10906960949e-05
1.10907090358e-05
1.10907384892e-05
1.10907882971e-05
1.1090838162e-05
1.10908863269e-05
1.1090925022e-05
1.10909497436e-05
1.10909579056e-05
1.10909486179e-05
1.10909228351e-05
1.1090883171e-05
1.10908342559e-05
1.10907838673e-05
1.10907334747e-05
1.10907062355e-05
1.08065709928e-05
1.08064928254e-05
1.08063993963e-05
1.08063024967e-05
1.08062133032e-05
1.08061420727e-05
1.08060965071e-05
1.08060806282e-05
1.08060958366e-05
1.08061404103e-05
1.08062100489e-05
1.08062978203e-05
1.08063943588e-05
1.08064866065e-05
1.08065658249e-05
1.08065281255e-05
1.08064516016e-05
1.080635903e-05
1.08062621972e-05
1.08061727102e-05
1.08061011065e-05
1.08060551818e-05
1.08060391584e-05
1.08060545673e-05
1.08060995676e-05
1.08061696755e-05
1.08062577371e-05
1.0806354145e-05
1.08064458897e-05
1.08065233234e-05
1.08065704914e-05
1.08065010845e-05
1.08064152187e-05
1.08063235565e-05
1.08062381664e-05
1.08061694372e-05
1.0806125133e-05
1.08061096158e-05
1.08061245147e-05
1.08061679456e-05
1.0806235325e-05
1.08063193805e-05
1.08064104565e-05
1.08064956124e-05
1.08065657518e-05
1.08066157151e-05
1.08065514819e-05
1.08064707184e-05
1.08063833491e-05
1.08063014162e-05
1.08062351733e-05
1.08061922606e-05
1.08061771708e-05
1.08061916159e-05
1.0806233694e-05
1.08062987472e-05
1.08063794265e-05
1.08064660822e-05
1.08065460545e-05
1.08066110747e-05
1.08066471386e-05
1.08065859863e-05
1.08065085677e-05
1.08064244129e-05
1.08063451386e-05
1.08062808254e-05
1.08062390178e-05
1.08062242737e-05
1.08062383497e-05
1.08062793406e-05
1.08063425571e-05
1.08064206468e-05
1.08065040386e-05
1.08065805394e-05
1.08066426207e-05
1.08066708853e-05
1.0806611541e-05
1.08065368507e-05
1.08064555236e-05
1.08063787501e-05
1.08063163519e-05
1.08062756822e-05
1.08062613039e-05
1.08062749828e-05
1.08063148405e-05
1.08063762201e-05
1.08064518682e-05
1.08065323917e-05
1.08066061936e-05
1.08066663973e-05
1.08066907512e-05
1.08066328165e-05
1.08065605598e-05
1.08064820466e-05
1.08064079389e-05
1.08063476656e-05
1.08063083252e-05
1.08062943899e-05
1.08063075933e-05
1.08063461142e-05
1.08064054134e-05
1.08064784516e-05
1.08065561287e-05
1.08066275374e-05
1.0806686388e-05
1.08067083972e-05
1.08066517417e-05
1.08065818603e-05
1.08065064032e-05
1.08064353347e-05
1.08063775776e-05
1.08063398651e-05
1.08063264851e-05
1.08063390995e-05
1.08063759821e-05
1.08064328048e-05
1.08065028709e-05
1.0806577503e-05
1.08066465546e-05
1.0806704283e-05
1.0806725302e-05
1.08066699444e-05
1.08066026309e-05
1.08065306453e-05
1.08064631345e-05
1.08064084025e-05
1.08063726995e-05
1.08063600162e-05
1.08063719042e-05
1.08064067683e-05
1.0806460593e-05
1.08065271624e-05
1.08065983649e-05
1.08066648755e-05
1.0806721469e-05
1.08067428012e-05
1.08066888564e-05
1.08066244775e-05
1.08065564928e-05
1.08064931885e-05
1.08064420994e-05
1.08064088423e-05
1.08063970233e-05
1.08064080282e-05
1.08064404416e-05
1.08064906586e-05
1.08065530891e-05
1.08066203483e-05
1.08066839819e-05
1.08067392935e-05
1.08067618954e-05
1.08067095262e-05
1.08066484796e-05
1.0806585067e-05
1.08065266778e-05
1.08064798776e-05
1.08064495402e-05
1.0806438751e-05
1.08064487178e-05
1.08064782191e-05
1.08065241744e-05
1.08065817605e-05
1.08066444984e-05
1.08067048717e-05
1.08067587462e-05
1.08067832821e-05
1.08067323429e-05
1.08066748604e-05
1.08066165745e-05
1.08065637876e-05
1.08065219584e-05
1.08064949854e-05
1.0806485412e-05
1.08064941706e-05
1.08065203216e-05
1.08065613561e-05
1.08066133863e-05
1.08066710544e-05
1.08067278961e-05
1.08067804622e-05
1.08068079349e-05
1.08067573644e-05
1.08067032845e-05
1.08066504444e-05
1.0806603863e-05
1.08065674786e-05
1.08065442776e-05
1.08065360147e-05
1.0806543485e-05
1.08065659134e-05
1.0806601516e-05
1.08066474252e-05
1.0806699663e-05
1.08067531467e-05
1.08068054524e-05
1.08068339255e-05
1.08067822802e-05
1.08067321649e-05
1.08066854508e-05
1.08066455761e-05
1.08066151038e-05
1.08065958097e-05
1.08065890001e-05
1.080659508e-05
1.08066136217e-05
1.08066434082e-05
1.08066826107e-05
1.08067287796e-05
1.08067782938e-05
1.08068317625e-05
1.08068262054e-05
1.08067886142e-05
1.08067493066e-05
1.08067140045e-05
1.08066846984e-05
1.08066624922e-05
1.08066485488e-05
1.0806643586e-05
1.0806647914e-05
1.08066612339e-05
1.08066828053e-05
1.080671155e-05
1.08067463199e-05
1.0806785014e-05
1.0806824043e-05
9.80755919125e-06
9.80760584544e-06
9.80766050598e-06
9.80771659127e-06
9.80776693883e-06
9.80780616133e-06
9.80783057565e-06
9.8078380379e-06
9.807827818e-06
9.80780088425e-06
9.80775964336e-06
9.80770800233e-06
9.80765117709e-06
9.80759694803e-06
9.80754941386e-06
9.80756438671e-06
9.80760970498e-06
9.80766344408e-06
9.8077192008e-06
9.8077694519e-06
9.80780872815e-06
9.80783322123e-06
9.80784069895e-06
9.80783036637e-06
9.80780327113e-06
9.80776193732e-06
9.80771041897e-06
9.80765408074e-06
9.80760071595e-06
9.80755499882e-06
9.80751560658e-06
9.80755578178e-06
9.80760441836e-06
9.8076563697e-06
9.80770370629e-06
9.80774107391e-06
9.80776451704e-06
9.80777170775e-06
9.80776178724e-06
9.80773584817e-06
9.80769648368e-06
9.80764783777e-06
9.80759529462e-06
9.80754669469e-06
9.80750633308e-06
9.80746793071e-06
9.8075040908e-06
9.80754869726e-06
9.8075973874e-06
9.80764227418e-06
9.80767802332e-06
9.80770058687e-06
9.80770755674e-06
9.80769802332e-06
9.80767310558e-06
9.80763544794e-06
9.80758925311e-06
9.80753988785e-06
9.80749514024e-06
9.80745871373e-06
9.80743039172e-06
9.80746385037e-06
9.80750553859e-06
9.80755162132e-06
9.8075945115e-06
9.80762888847e-06
9.80765070021e-06
9.80765747298e-06
9.80764827958e-06
9.80762423863e-06
9.8075880201e-06
9.80754382869e-06
9.80749696449e-06
9.80745505689e-06
9.80742125944e-06
9.8073981155e-06
9.80742961518e-06
9.80746863963e-06
9.80751235929e-06
9.80755329405e-06
9.8075862641e-06
9.80760725931e-06
9.80761380912e-06
9.80760497466e-06
9.80758186715e-06
9.80754713323e-06
9.80750491743e-06
9.8074603884e-06
9.80742093723e-06
9.80738924996e-06
9.80736839235e-06
9.80739804142e-06
9.80743455345e-06
9.80747586311e-06
9.80751467949e-06
9.80754605465e-06
9.80756608591e-06
9.80757235394e-06
9.80756392829e-06
9.80754189105e-06
9.80750881963e-06
9.80746872864e-06
9.80742659124e-06
9.80738949415e-06
9.80735976092e-06
9.80733995362e-06
9.80736762254e-06
9.80740167443e-06
9.80744041068e-06
9.80747690394e-06
9.807506459e-06
9.80752536022e-06
9.80753127831e-06
9.80752332114e-06
9.80750251642e-06
9.80747132898e-06
9.80743357639e-06
9.80739397449e-06
9.80735925396e-06
9.80733148948e-06
9.80731165932e-06
9.8073373099e-06
9.80736882898e-06
9.80740480388e-06
9.80743872747e-06
9.8074662142e-06
9.80748380349e-06
9.80748929979e-06
9.8074818705e-06
9.80746246934e-06
9.80743340225e-06
9.80739822848e-06
9.80736134879e-06
9.80732909535e-06
9.80730342977e-06
9.8072827232e-06
9.80730620588e-06
9.80733508973e-06
9.80736813004e-06
9.80739924843e-06
9.80742444635e-06
9.80744054962e-06
9.80744556222e-06
9.80743871538e-06
9.80742088016e-06
9.80739415708e-06
9.80736179003e-06
9.80732781065e-06
9.80729812845e-06
9.80727471839e-06
9.80725249365e-06
9.80727373711e-06
9.807299974e-06
9.80732995417e-06
9.80735809227e-06
9.8073807913e-06
9.80739526449e-06
9.80739972779e-06
9.80739351669e-06
9.80737738752e-06
9.80735320292e-06
9.80732383228e-06
9.80729288233e-06
9.80726582101e-06
9.80724477428e-06
9.8072207044e-06
9.80723978244e-06
9.80726346067e-06
9.80729036059e-06
9.80731536485e-06
9.80733543155e-06
9.8073481336e-06
9.8073520116e-06
9.8073464693e-06
9.80733217185e-06
9.80731068004e-06
9.80728443855e-06
9.80725656122e-06
9.80723205615e-06
9.80721331923e-06
9.80718680797e-06
9.80720411517e-06
9.80722562681e-06
9.80724960792e-06
9.80727156457e-06
9.80728890566e-06
9.80729983399e-06
9.80730307233e-06
9.80729824597e-06
9.8072858165e-06
9.80726706092e-06
9.80724392089e-06
9.80721893048e-06
9.80719661297e-06
9.8071797906e-06
9.80714943231e-06
9.80716598983e-06
9.80718623975e-06
9.80720791181e-06
9.80722704275e-06
9.80724193797e-06
9.80725112972e-06
9.80725382477e-06
9.80724964938e-06
9.80723899993e-06
9.80722279577e-06
9.80720245654e-06
9.80717980579e-06
9.80715874308e-06
9.80714292276e-06
9.8071195928e-06
9.80713609761e-06
9.80715378798e-06
9.807171167e-06
9.80718592098e-06
9.80719710774e-06
9.80720393534e-06
9.80720581117e-06
9.80720255562e-06
9.80719439841e-06
9.80718193421e-06
9.80716604346e-06
9.80714764305e-06
9.80712907483e-06
9.80711320018e-06
9.25636798207e-06
9.25633945698e-06
9.25630443366e-06
9.25626855754e-06
9.25623638599e-06
9.25621116384e-06
9.25619505558e-06
9.25618952593e-06
9.25619513306e-06
9.2562112829e-06
9.25623647807e-06
9.25626830445e-06
9.2563035029e-06
9.25633757446e-06
9.25636736752e-06
9.25635260795e-06
9.25632447532e-06
9.25628955504e-06
9.25625341157e-06
9.25622085003e-06
9.25619522903e-06
9.25617883914e-06
9.2561732059e-06
9.25617893165e-06
9.25619537834e-06
9.25622096204e-06
9.25625316527e-06
9.2562885957e-06
9.25632271916e-06
9.2563519563e-06
9.25637104997e-06
9.25634548994e-06
9.25631316004e-06
9.25627888257e-06
9.25624766497e-06
9.25622289378e-06
9.25620697394e-06
9.25620148199e-06
9.25620704196e-06
9.25622298667e-06
9.25624768084e-06
9.25627854026e-06
9.25631211541e-06
9.25634385812e-06
9.25637027372e-06
9.25639067695e-06
9.25636717267e-06
9.25633684504e-06
9.25630425526e-06
9.25627422097e-06
9.25625020217e-06
9.25623470243e-06
9.25622933332e-06
9.25623472979e-06
9.25625020302e-06
9.25627408026e-06
9.25630373332e-06
9.25633568819e-06
9.25636548745e-06
9.25638982715e-06
9.25640525584e-06
9.25638310832e-06
9.25635416871e-06
9.25632292727e-06
9.25629387068e-06
9.25627050418e-06
9.25625537164e-06
9.25625010777e-06
9.25625535137e-06
9.256270407e-06
9.25629357996e-06
9.25632223249e-06
9.25635290305e-06
9.25638131519e-06
9.2564042904e-06
9.25641734538e-06
9.25639605753e-06
9.2563684002e-06
9.25633842818e-06
9.25631036284e-06
9.25628769617e-06
9.25627297314e-06
9.25626782854e-06
9.25627289662e-06
9.2562874857e-06
9.25630990298e-06
9.25633754058e-06
9.25636699444e-06
9.25639423785e-06
9.25641616425e-06
9.25642829822e-06
9.25640781469e-06
9.25638135715e-06
9.25635266245e-06
9.25632569617e-06
9.25630385114e-06
9.25628962802e-06
9.25628463388e-06
9.25628949471e-06
9.25630352995e-06
9.25632508288e-06
9.25635161104e-06
9.25637981104e-06
9.25640595717e-06
9.25642696916e-06
9.25643862429e-06
9.25641896373e-06
9.25639365356e-06
9.25636633215e-06
9.25634060125e-06
9.25631971153e-06
9.25630608354e-06
9.25630127578e-06
9.2563058939e-06
9.25631928264e-06
9.25633984641e-06
9.256365147e-06
9.25639202364e-06
9.25641708866e-06
9.25643725816e-06
9.2564487915e-06
9.25642992527e-06
9.25640577135e-06
9.25637991659e-06
9.25635555546e-06
9.25633576433e-06
9.25632283637e-06
9.25631825823e-06
9.25632259915e-06
9.25633524851e-06
9.25635469411e-06
9.2563786397e-06
9.25640410458e-06
9.25642806443e-06
9.25644741066e-06
9.25645912123e-06
9.25644103038e-06
9.2564180896e-06
9.25639379951e-06
9.2563709547e-06
9.2563523994e-06
9.25634027611e-06
9.25633596634e-06
9.2563400023e-06
9.25635181955e-06
9.25637002091e-06
9.25639248222e-06
9.25641644149e-06
9.2564392476e-06
9.25645777571e-06
9.25646988348e-06
9.2564525724e-06
9.25643087921e-06
9.25640822814e-06
9.25638701672e-06
9.25636982806e-06
9.25635860719e-06
9.2563546093e-06
9.25635831367e-06
9.25636921286e-06
9.25638605441e-06
9.25640691318e-06
9.25642928019e-06
9.25645088647e-06
9.25646859769e-06
9.25648136776e-06
9.25646475281e-06
9.25644426522e-06
9.25642327897e-06
9.25640378701e-06
9.25638806147e-06
9.25637783085e-06
9.25637418107e-06
9.25637753181e-06
9.25638744969e-06
9.2564028345e-06
9.25642200998e-06
9.25644275157e-06
9.25646315461e-06
9.25648012724e-06
9.25649414819e-06
9.25647795264e-06
9.25645845574e-06
9.25643899817e-06
9.25642116781e-06
9.25640693001e-06
9.25639770777e-06
9.25639443066e-06
9.25639742868e-06
9.25640634281e-06
9.25642027635e-06
9.25643781089e-06
9.25645704417e-06
9.25647645428e-06
9.25649296455e-06
9.25650782463e-06
9.25649138457e-06
9.25647287619e-06
9.25645491683e-06
9.25643878838e-06
9.25642607062e-06
9.2564179275e-06
9.25641504419e-06
9.25641768212e-06
9.25642555828e-06
9.25643799389e-06
9.25645386464e-06
9.25647160381e-06
9.25648999554e-06
9.25650672236e-06
9.25650516078e-06
9.25649397805e-06
9.25647988617e-06
9.25646633367e-06
9.25645423201e-06
9.2564447783e-06
9.25643875611e-06
9.2564366373e-06
9.25643856406e-06
9.25644436953e-06
9.25645359092e-06
9.25646546653e-06
9.25647879233e-06
9.25649270594e-06
9.25650411798e-06
8.42375232782e-06
8.42377153484e-06
8.42379452357e-06
8.42381773909e-06
8.42383850632e-06
8.42385473197e-06
8.42386500807e-06
8.42386833289e-06
8.4238643218e-06
8.42385335344e-06
8.42383643729e-06
8.42381522607e-06
8.42379194795e-06
8.42376982362e-06
8.42375081959e-06
8.42375648718e-06
8.42377545143e-06
8.42379797972e-06
8.42382097672e-06
8.42384161106e-06
8.42385778854e-06
8.42386805065e-06
8.42387135695e-06
8.42386730363e-06
8.42385629231e-06
8.42383937625e-06
8.42381825996e-06
8.42379522175e-06
8.42377346788e-06
8.4237551456e-06
8.42374107214e-06
8.42375820164e-06
8.42377872224e-06
8.42380030239e-06
8.42381986621e-06
8.42383535888e-06
8.42384522431e-06
8.42384840989e-06
8.42384449532e-06
8.42383390383e-06
8.4238177148e-06
8.42379766461e-06
8.42377603838e-06
8.42375603995e-06
8.42373965028e-06
8.42372605996e-06
8.42374166496e-06
8.42376066577e-06
8.42378100585e-06
8.42379968322e-06
8.42381461132e-06
8.42382415622e-06
8.42382725047e-06
8.42382346394e-06
8.42381323412e-06
8.42379766005e-06
8.42377849936e-06
8.42375803094e-06
8.42373941615e-06
8.42372440654e-06
8.42371470507e-06
8.42372927604e-06
8.42374719221e-06
8.42376653877e-06