/*--------------------------------*- C++ -*----------------------------------*\
  =========                 |
  \\      /  F ield         | OpenFOAM: The Open Source CFD Toolbox
   \\    /   O peration     | Website:  https://openfoam.org
    \\  /    A nd           | Version:  7
     \\/     M anipulation  |
\*---------------------------------------------------------------------------*/
FoamFile
{
    version     2.0;
    format      ascii;
    class       volScalarField;
    location    "1";
    object      p;
}
// * * * * * * * * * * * * * * * * * * * * * * * * * * * * * * * * * * * * * //

dimensions      [0 2 -2 0 0 0 0];

internalField   nonuniform List<scalar> 
22500
(
-7.43016504764e-06
-7.43072001619e-06
-7.42956456076e-06
-7.42867581906e-06
-7.42776151552e-06
-7.42706069073e-06
-7.42661800014e-06
-7.42648109961e-06
-7.42665190085e-06
-7.4271277779e-06
-7.42786157202e-06
-7.42880577156e-06
-7.42972287325e-06
-7.43089213472e-06
-7.43035906618e-06
-7.45046572539e-06
-7.45210884605e-06
-7.45182418821e-06
-7.45167882203e-06
-7.45135534555e-06
-7.45108182332e-06
-7.45089782537e-06
-7.45084736297e-06
-7.45093385015e-06
-7.45115318866e-06
-7.45146141206e-06
-7.45181686082e-06
-7.45199109303e-06
-7.45229045943e-06
-7.45066928639e-06
-7.47050745634e-06
-7.47319918448e-06
-7.47370159003e-06
-7.47425375143e-06
-7.4744735045e-06
-7.47459398955e-06
-7.47464743529e-06
-7.47467543961e-06
-7.47468216106e-06
-7.4746627833e-06
-7.47457548136e-06
-7.47438657004e-06
-7.47386208407e-06
-7.47337478564e-06
-7.47070801294e-06
-7.48866634704e-06
-7.49226609917e-06
-7.49343355617e-06
-7.4945677475e-06
-7.49524243474e-06
-7.49569175889e-06
-7.49594327869e-06
-7.4960363265e-06
-7.49597576331e-06
-7.49575616783e-06
-7.49533772508e-06
-7.49469172495e-06
-7.49358379316e-06
-7.49243125119e-06
-7.48885964653e-06
-7.50596417159e-06
-7.51037947206e-06
-7.51214387053e-06
-7.51378173701e-06
-7.51485523507e-06
-7.51559129633e-06
-7.516015663e-06
-7.51616542322e-06
-7.51604604855e-06
-7.51565153871e-06
-7.51494430349e-06
-7.51389750463e-06
-7.51228436082e-06
-7.51053431515e-06
-7.50614859986e-06
-7.52257100394e-06
-7.52770055674e-06
-7.52999103686e-06
-7.53205158947e-06
-7.53346412894e-06
-7.53444215861e-06
-7.53501254224e-06
-7.53521006445e-06
-7.53504085808e-06
-7.53449835629e-06
-7.53354715092e-06
-7.53215947096e-06
-7.53012173803e-06
-7.52784556366e-06
-7.52274680456e-06
-7.53834752054e-06
-7.54407317286e-06
-7.54680905074e-06
-7.54920552914e-06
-7.55089141743e-06
-7.55206301426e-06
-7.55275032487e-06
-7.55298602808e-06
-7.55277678075e-06
-7.55211552913e-06
-7.55096896577e-06
-7.54930626842e-06
-7.54693090344e-06
-7.54420881863e-06
-7.53851537246e-06
-7.55322414481e-06
-7.55942289551e-06
-7.5625245701e-06
-7.56517245627e-06
-7.56706754254e-06
-7.56838630446e-06
-7.56916268517e-06
-7.56942744234e-06
-7.56918751152e-06
-7.56843556221e-06
-7.56714030582e-06
-7.56526694055e-06
-7.56263862646e-06
-7.55955050033e-06
-7.55338527379e-06
-7.56719257899e-06
-7.57374232736e-06
-7.57713319293e-06
-7.57995406896e-06
-7.58199923362e-06
-7.58342335971e-06
-7.58426397617e-06
-7.58454969838e-06
-7.58428747859e-06
-7.58346999573e-06
-7.58206811343e-06
-7.58004358281e-06
-7.57724098091e-06
-7.57386376936e-06
-7.56734860447e-06
-7.58026225226e-06
-7.58704335476e-06
-7.59064841929e-06
-7.59357145092e-06
-7.5957141188e-06
-7.59720797511e-06
-7.59809183643e-06
-7.59839175738e-06
-7.59811435241e-06
-7.59725267032e-06
-7.5957801695e-06
-7.59365734658e-06
-7.5907517454e-06
-7.58716075292e-06
-7.58041567865e-06
-7.59244971334e-06
-7.59934265731e-06
-7.60308581927e-06
-7.60604899946e-06
-7.60824582047e-06
-7.60978169684e-06
-7.61069288528e-06
-7.61100188903e-06
-7.610714772e-06
-7.60982516345e-06
-7.6083101397e-06
-7.60613281898e-06
-7.60318665234e-06
-7.59945839508e-06
-7.59260327585e-06
-7.60378628474e-06
-7.6106522191e-06
-7.61444794944e-06
-7.61740121886e-06
-7.61962259104e-06
-7.62118387319e-06
-7.62211294271e-06
-7.62242823959e-06
-7.62213451989e-06
-7.62122686464e-06
-7.61968633648e-06
-7.61748458758e-06
-7.6145484732e-06
-7.61076890677e-06
-7.60394260692e-06
-7.61433817149e-06
-7.62094683825e-06
-7.6246902788e-06
-7.62760959808e-06
-7.629849826e-06
-7.63143534314e-06
-7.6323819348e-06
-7.63270299277e-06
-7.63240359394e-06
-7.63147845027e-06
-7.62991413382e-06
-7.62769420186e-06
-7.62479290935e-06
-7.62106740749e-06
-7.61450043617e-06
-7.62393354207e-06
-7.62999403133e-06
-7.63368484045e-06
-7.63661731631e-06
-7.63891417994e-06
-7.64054498783e-06
-7.64151836114e-06
-7.64184884279e-06
-7.641540307e-06
-7.64058889191e-06
-7.63898016642e-06
-7.63670509498e-06
-7.63379227099e-06
-7.63012202621e-06
-7.62410394711e-06
-7.63076486334e-06
-7.63770846664e-06
-7.64149100399e-06
-7.64458614961e-06
-7.6470003393e-06
-7.64870000433e-06
-7.6497107157e-06
-7.65005277953e-06
-7.64973338358e-06
-7.64874541705e-06
-7.64706909111e-06
-7.64467882697e-06
-7.6416071813e-06
-7.637848841e-06
-7.63094153592e-06
-8.8655562938e-06
-8.86482910642e-06
-8.86416769027e-06
-8.86355381549e-06
-8.86304337667e-06
-8.86266134658e-06
-8.86242265929e-06
-8.86233761877e-06
-8.86240967757e-06
-8.86263713213e-06
-8.86301235042e-06
-8.86352186174e-06
-8.86413568829e-06
-8.86479942169e-06
-8.86552731743e-06
-8.86278712352e-06
-8.86198642442e-06
-8.86125355933e-06
-8.86057540629e-06
-8.86000618408e-06
-8.85957772713e-06
-8.85930921822e-06
-8.85921384298e-06
-8.85929634903e-06
-8.85955383644e-06
-8.8599757707e-06
-8.86054464318e-06
-8.86122454841e-06
-8.86195906035e-06
-8.8627609275e-06
-8.8597096453e-06
-8.85876132876e-06
-8.85791171297e-06
-8.8571260411e-06
-8.85646236649e-06
-8.85596158739e-06
-8.8556476096e-06
-8.85553681874e-06
-8.85563517114e-06
-8.85593835798e-06
-8.85643229536e-06
-8.85709459021e-06
-8.85788193172e-06
-8.85873202575e-06
-8.85968277121e-06
-8.85634457237e-06
-8.85513026148e-06
-8.85408412566e-06
-8.85312300716e-06
-8.85231091234e-06
-8.85169876197e-06
-8.85131573443e-06
-8.85118168871e-06
-8.85130381479e-06
-8.85167630654e-06
-8.85228119859e-06
-8.85309064642e-06
-8.85405265675e-06
-8.85509879585e-06
-8.85631657688e-06
-8.8522943079e-06
-8.85067990763e-06
-8.84934601624e-06
-8.84813315742e-06
-8.84711321162e-06
-8.84634700994e-06
-8.84586930827e-06
-8.84570345933e-06
-8.84585789701e-06
-8.84632538711e-06
-8.8470841363e-06
-8.8481006465e-06
-8.84931347496e-06
-8.85064706913e-06
-8.85226552353e-06
-8.84741313135e-06
-8.84527826389e-06
-8.84357680001e-06
-8.84204794325e-06
-8.84077093844e-06
-8.8398163097e-06
-8.83922371816e-06
-8.83901946875e-06
-8.8392129715e-06
-8.83979584598e-06
-8.84074307323e-06
-8.84201609792e-06
-8.84354424134e-06
-8.84524451331e-06
-8.84738483974e-06
-8.84171384987e-06
-8.83896272099e-06
-8.83683533039e-06
-8.83494599053e-06
-8.83337947183e-06
-8.83221471662e-06
-8.83149495275e-06
-8.83124835449e-06
-8.83148497139e-06
-8.83219563436e-06
-8.83335327628e-06
-8.83491556809e-06
-8.83680379577e-06
-8.83892918571e-06
-8.84168675056e-06
-8.83527097864e-06
-8.83184065809e-06
-8.82925293907e-06
-8.826980763e-06
-8.82511069377e-06
-8.8237277982e-06
-8.82287707223e-06
-8.82258707836e-06
-8.82286799751e-06
-8.82371040677e-06
-8.82508663759e-06
-8.82695246322e-06
-8.82922310429e-06
-8.83180848237e-06
-8.83524545591e-06
-8.8281917976e-06
-8.82405608709e-06
-8.8209978834e-06
-8.81834341635e-06
-8.81617402331e-06
-8.81457819818e-06
-8.81360066331e-06
-8.81326884832e-06
-8.81359253339e-06
-8.81456261833e-06
-8.81615238621e-06
-8.81831780197e-06
-8.8209705391e-06
-8.82402618098e-06
-8.82816907913e-06
-8.82060417304e-06
-8.81577282766e-06
-8.81225792406e-06
-8.80924273262e-06
-8.80679473825e-06
-8.80500305829e-06
-8.80390996686e-06
-8.80354028332e-06
-8.80390284506e-06
-8.80498939572e-06
-8.80677570877e-06
-8.80922008587e-06
-8.8122335117e-06
-8.81574583084e-06
-8.82058478026e-06
-8.81264351193e-06
-8.80716142893e-06
-8.80322691263e-06
-8.79989084245e-06
-8.79719908186e-06
-8.79523832548e-06
-8.79404663244e-06
-8.79364482591e-06
-8.79404044455e-06
-8.79522644274e-06
-8.79718253913e-06
-8.79987120228e-06
-8.80320568325e-06
-8.80713782004e-06
-8.81262831669e-06
-8.80445451654e-06
-8.79839772113e-06
-8.79409969943e-06
-8.79049531564e-06
-8.78760445665e-06
-8.78550825499e-06
-8.78423868963e-06
-8.78381180599e-06
-8.78423324207e-06
-8.78549784043e-06
-8.78758997061e-06
-8.79047828686e-06
-8.79408142584e-06
-8.79837768785e-06
-8.80444371812e-06
-8.7961930763e-06
-8.78964883034e-06
-8.78505442792e-06
-8.78124448903e-06
-8.77820762983e-06
-8.77601532103e-06
-8.77469187709e-06
-8.7742477428e-06
-8.77468693009e-06
-8.77600575861e-06
-8.77819449803e-06
-8.78122921704e-06
-8.78503843791e-06
-8.78963183452e-06
-8.79618631968e-06
-8.78783793467e-06
-8.78090138054e-06
-8.77615875314e-06
-8.77225007288e-06
-8.76915509995e-06
-8.7669293026e-06
-8.76558879232e-06
-8.76513967976e-06
-8.76558399095e-06
-8.76692009868e-06
-8.76914240038e-06
-8.77223565966e-06
-8.77614394864e-06
-8.78088702495e-06
-8.78783420539e-06
-8.77850773892e-06
-8.77214938374e-06
-8.76752745363e-06
-8.76368484997e-06
-8.76066652351e-06
-8.75850177766e-06
-8.757199689e-06
-8.7567636509e-06
-8.75719500187e-06
-8.75849261636e-06
-8.7606538748e-06
-8.76367041149e-06
-8.76751344764e-06
-8.77213750647e-06
-8.77850528342e-06
-7.7879174603e-06
-7.78796823583e-06
-7.7879852286e-06
-7.78802129225e-06
-7.78805127404e-06
-7.78808085535e-06
-7.78810425167e-06
-7.78811603463e-06
-7.78811303105e-06
-7.78809726549e-06
-7.78807292471e-06
-7.78804623051e-06
-7.78801958818e-06
-7.78800668855e-06
-7.78796523376e-06
-7.78740563591e-06
-7.78743756106e-06
-7.78744284552e-06
-7.7874671095e-06
-7.78748819202e-06
-7.78751074763e-06
-7.78752973097e-06
-7.78754013076e-06
-7.78753897783e-06
-7.78752813272e-06
-7.78751129725e-06
-7.787494031e-06
-7.78747819553e-06
-7.78747835492e-06
-7.787454931e-06
-7.78675140509e-06
-7.78676057576e-06
-7.78674516432e-06
-7.78675269422e-06
-7.78676077786e-06
-7.78677333727e-06
-7.78678577202e-06
-7.78679377868e-06
-7.7867947317e-06
-7.78679031616e-06
-7.78678373613e-06
-7.78677998374e-06
-7.78678000164e-06
-7.78680119775e-06
-7.78680039023e-06
-7.78625206812e-06
-7.78625507417e-06
-7.78622873214e-06
-7.78622962033e-06
-7.78623300494e-06
-7.78624191962e-06
-7.78625168022e-06
-7.78625851269e-06
-7.78626013279e-06
-7.78625810578e-06
-7.7862554077e-06
-7.78625681166e-06
-7.78626277212e-06
-7.78629439086e-06
-7.78630085458e-06
-7.78590266782e-06
-7.78590956795e-06
-7.78587948259e-06
-7.78588021311e-06
-7.78588356043e-06
-7.78589214163e-06
-7.78590138448e-06
-7.78590783054e-06
-7.78590940962e-06
-7.78590760503e-06
-7.78590524837e-06
-7.78590694226e-06
-7.78591278207e-06
-7.7859475652e-06
-7.7859510894e-06
-7.78565341999e-06
-7.78566469922e-06
-7.78563235377e-06
-7.78563285218e-06
-7.7856358011e-06
-7.78564365799e-06
-7.78565209608e-06
-7.78565805516e-06
-7.78565969375e-06
-7.78565839627e-06
-7.78565674871e-06
-7.78565900268e-06
-7.78566471406e-06
-7.78570182659e-06
-7.78570093921e-06
-7.78546481682e-06
-7.78547475678e-06
-7.78543581998e-06
-7.78543141519e-06
-7.78542971864e-06
-7.78543349815e-06
-7.78543907021e-06
-7.78544385663e-06
-7.78544628555e-06
-7.78544754464e-06
-7.78544986455e-06
-7.78545684823e-06
-7.78546717393e-06
-7.78551094157e-06
-7.78551168288e-06
-7.78530059166e-06
-7.78529688672e-06
-7.78524284576e-06
-7.78522553599e-06
-7.78521247408e-06
-7.78520713613e-06
-7.78520672989e-06
-7.78520930977e-06
-7.78521360332e-06
-7.78522056263e-06
-7.78523191561e-06
-7.78525037089e-06
-7.78527341964e-06
-7.78533225315e-06
-7.78534714482e-06
-7.78512542963e-06
-7.78509059803e-06
-7.78501058036e-06
-7.78497074248e-06
-7.78493850536e-06
-7.78491837675e-06
-7.78490860457e-06
-7.78490788067e-06
-7.78491520282e-06
-7.7849312939e-06
-7.78495732161e-06
-7.78499502231e-06
-7.78504055407e-06
-7.7851253651e-06
-7.78517172595e-06
-7.78490695595e-06
-7.78482130209e-06
-7.78470413424e-06
-7.78463260307e-06
-7.78457417944e-06
-7.78453432575e-06
-7.7845122491e-06
-7.7845072662e-06
-7.78451861803e-06
-7.78454682357e-06
-7.78459251928e-06
-7.78465651003e-06
-7.78473375404e-06
-7.78485583149e-06
-7.78495319457e-06
-7.78461870977e-06
-7.78446324016e-06
-7.78429955538e-06
-7.78418963895e-06
-7.7841002549e-06
-7.78403737617e-06
-7.7840011165e-06
-7.78399123524e-06
-7.78400728341e-06
-7.78404950923e-06
-7.78411817003e-06
-7.7842132441e-06
-7.78432891741e-06
-7.7844976745e-06
-7.78466504401e-06
-7.7842440776e-06
-7.78400206132e-06
-7.78378559763e-06
-7.78363417193e-06
-7.78351193205e-06
-7.78342488369e-06
-7.78337368389e-06
-7.7833587325e-06
-7.78337965202e-06
-7.78343668348e-06
-7.7835294722e-06
-7.78365747887e-06
-7.78381474716e-06
-7.7840363434e-06
-7.7842902771e-06
-7.78377278872e-06
-7.78342895797e-06
-7.78315884959e-06
-7.78296857624e-06
-7.78281560041e-06
-7.78270542795e-06
-7.78264000722e-06
-7.78262001866e-06
-7.78264577675e-06
-7.78271685763e-06
-7.78283265173e-06
-7.78299148563e-06
-7.78318763731e-06
-7.78346301526e-06
-7.78381871459e-06
-7.78312033359e-06
-7.78267393566e-06
-7.78238939943e-06
-7.78218479495e-06
-7.7820169754e-06
-7.78189399882e-06
-7.78181980877e-06
-7.78179685605e-06
-7.78182536939e-06
-7.78190492768e-06
-7.78203345748e-06
-7.78220705114e-06
-7.78241759199e-06
-7.78270769833e-06
-7.78316527547e-06
-7.7818842917e-06
-7.78168120852e-06
-7.78148770628e-06
-7.78132497092e-06
-7.78117866336e-06
-7.7810664724e-06
-7.78099754305e-06
-7.78097597308e-06
-7.78100288567e-06
-7.78107706648e-06
-7.78119454972e-06
-7.78134665173e-06
-7.78151559616e-06
-7.78171550395e-06
-7.78192831184e-06
-8.09796194516e-06
-8.09783773141e-06
-8.09769008817e-06
-8.09754059372e-06
-8.09740600027e-06
-8.0972987738e-06
-8.09722936588e-06
-8.09720385762e-06
-8.09722486207e-06
-8.09729055608e-06
-8.09739607895e-06
-8.09753336716e-06
-8.09768758222e-06
-8.09784443322e-06
-8.09797034469e-06
-8.09766914113e-06
-8.09754311845e-06
-8.09739091924e-06
-8.09723910004e-06
-8.0971009952e-06
-8.0969906187e-06
-8.09691882826e-06
-8.09689225412e-06
-8.09691373377e-06
-8.09698129433e-06
-8.09708967914e-06
-8.09723039188e-06
-8.09738805882e-06
-8.09754918764e-06
-8.09767932168e-06
-8.0974686482e-06
-8.09734705786e-06
-8.09719572129e-06
-8.09704704029e-06
-8.09691045347e-06
-8.09680149621e-06
-8.09673061754e-06
-8.09670455024e-06
-8.09672609123e-06
-8.09679323607e-06
-8.09690050909e-06
-8.09703929392e-06
-8.09719376557e-06
-8.09735236662e-06
-8.09747923093e-06
-8.09731114873e-06
-8.09719290177e-06
-8.09704226574e-06
-8.09689656258e-06
-8.09676224421e-06
-8.09665543643e-06
-8.09658608373e-06
-8.09656083192e-06
-8.09658237609e-06
-8.09664873414e-06
-8.09675434821e-06
-8.09689066217e-06
-8.09704155401e-06
-8.09719842335e-06
-8.0973219268e-06
-8.09717068815e-06
-8.09705567068e-06
-8.09690515897e-06
-8.09676231562e-06
-8.09663063957e-06
-8.09652613368e-06
-8.09645847363e-06
-8.09643401515e-06
-8.09645542959e-06
-8.09652070305e-06
-8.09662434284e-06
-8.09675794816e-06
-8.09690529049e-06
-8.09706152156e-06
-8.09718162965e-06
-8.09704983554e-06
-8.09693976446e-06
-8.09678836118e-06
-8.09664910681e-06
-8.09652064069e-06
-8.09641908258e-06
-8.09635349268e-06
-8.09633000667e-06
-8.09635113524e-06
-8.09641494279e-06
-8.09651605743e-06
-8.09664637604e-06
-8.09678974406e-06
-8.09694566388e-06
-8.09706166486e-06
-8.09695158403e-06
-8.09684602001e-06
-8.09669323697e-06
-8.09655751031e-06
-8.09643233054e-06
-8.0963337908e-06
-8.09627034593e-06
-8.09624784238e-06
-8.09626860818e-06
-8.09633079582e-06
-8.09642923839e-06
-8.09655618424e-06
-8.09669573192e-06
-8.09685206162e-06
-8.09696399355e-06
-8.09687240724e-06
-8.09676883472e-06
-8.09661322052e-06
-8.09647951715e-06
-8.09635683434e-06
-8.09626071984e-06
-8.09619913889e-06
-8.09617750013e-06
-8.0961979996e-06
-8.0962588511e-06
-8.09635517306e-06
-8.09647957042e-06
-8.09661659314e-06
-8.09677514453e-06
-8.09688489442e-06
-8.09680434254e-06
-8.09669875039e-06
-8.09653735497e-06
-8.09640330896e-06
-8.09628141606e-06
-8.09618646901e-06
-8.09612597662e-06
-8.09610492076e-06
-8.09612534948e-06
-8.09618555467e-06
-8.09628095273e-06
-8.0964045021e-06
-8.09654142269e-06
-8.09670520891e-06
-8.09681704533e-06
-8.09673789396e-06
-8.09662346178e-06
-8.09645240317e-06
-8.09631496358e-06
-8.09619166728e-06
-8.09609634862e-06
-8.09603598148e-06
-8.09601518786e-06
-8.09603580575e-06
-8.09609625378e-06
-8.09619223995e-06
-8.09631708671e-06
-8.09645698294e-06
-8.09662988856e-06
-8.09675061202e-06
-8.09666097462e-06
-8.09652875807e-06
-8.09634430401e-06
-8.09620069409e-06
-8.09607412688e-06
-8.09597698927e-06
-8.09591589108e-06
-8.09589500315e-06
-8.0959160565e-06
-8.09597752704e-06
-8.09607547012e-06
-8.09620355762e-06
-8.09634928783e-06
-8.09653526513e-06
-8.09667386766e-06
-8.09656254835e-06
-8.09640188587e-06
-8.09620098721e-06
-8.09604937689e-06
-8.09591817596e-06
-8.09581827333e-06
-8.09575571898e-06
-8.09573451838e-06
-8.09575611856e-06
-8.09581922867e-06
-8.09592007149e-06
-8.09605271655e-06
-8.09620626172e-06
-8.09640855684e-06
-8.0965757831e-06
-8.09643191027e-06
-8.09623084402e-06
-8.09601248804e-06
-8.0958529605e-06
-8.09571686873e-06
-8.09561348886e-06
-8.09554915568e-06
-8.09552732852e-06
-8.09554967972e-06
-8.09561471125e-06
-8.09571900604e-06
-8.0958565985e-06
-8.09601791641e-06
-8.09623772602e-06
-8.09644543676e-06
-8.09620979956e-06
-8.0959636527e-06
-8.09574972147e-06
-8.09559479067e-06
-8.09546086588e-06
-8.09535873262e-06
-8.09529494096e-06
-8.09527348623e-06
-8.09529554944e-06
-8.09535995759e-06
-8.09546310673e-06
-8.09559842317e-06
-8.09575519572e-06
-8.0959708872e-06
-8.09622376397e-06
-8.09559918886e-06
-8.09548828036e-06
-8.09535967603e-06
-8.09525738937e-06
-8.09515882858e-06
-8.09508074852e-06
-8.09503141314e-06
-8.09501470258e-06
-8.0950320153e-06
-8.09508206596e-06
-8.09516103599e-06
-8.0952610725e-06
-8.09536536853e-06
-8.09549637394e-06
-8.09561304475e-06
-7.4569423048e-06
-7.45697443634e-06
-7.45698745537e-06
-7.45700772104e-06
-7.45702122793e-06
-7.45703156022e-06
-7.45704009609e-06
-7.45704496263e-06
-7.45704459818e-06
-7.45703920793e-06
-7.45702940711e-06
-7.45701668519e-06
-7.45700075877e-06
-7.4569877872e-06
-7.45696338534e-06
-7.45677202304e-06
-7.45679673458e-06
-7.45680673918e-06
-7.45682369353e-06
-7.45683486608e-06
-7.45684391282e-06
-7.45685165733e-06
-7.45685628103e-06
-7.45685628385e-06
-7.45685184736e-06
-7.4568435984e-06
-7.45683308215e-06
-7.45682011181e-06
-7.45681150657e-06
-7.45679391081e-06
-7.45653843579e-06
-7.45655282741e-06
-7.45655499984e-06
-7.45656563599e-06
-7.45657273791e-06
-7.45657927893e-06
-7.45658536997e-06
-7.45658933773e-06
-7.45658985232e-06
-7.45658714287e-06
-7.45658184881e-06
-7.45657563256e-06
-7.45656819573e-06
-7.45656781918e-06
-7.45655970549e-06
-7.45634343662e-06
-7.4563530288e-06
-7.45634942531e-06
-7.4563566099e-06
-7.45636187428e-06
-7.45636770885e-06
-7.45637321573e-06
-7.45637685575e-06
-7.4563774869e-06
-7.4563754025e-06
-7.4563713325e-06
-7.45636714397e-06
-7.45636250516e-06
-7.45636750657e-06
-7.45636421925e-06
-7.45618916177e-06
-7.45619802245e-06
-7.45619098171e-06
-7.45619732866e-06
-7.45620260408e-06
-7.45620887221e-06
-7.45621460077e-06
-7.45621822553e-06
-7.4562186963e-06
-7.45621636608e-06
-7.45621211756e-06
-7.45620805873e-06
-7.45620391206e-06
-7.45621176532e-06
-7.45620949471e-06
-7.45606471713e-06
-7.4560741079e-06
-7.45606568392e-06
-7.4560725314e-06
-7.45607886517e-06
-7.45608631079e-06
-7.45609271445e-06
-7.45609648106e-06
-7.45609660972e-06
-7.45609353336e-06
-7.4560883055e-06
-7.45608328746e-06
-7.45607832269e-06
-7.45608761165e-06
-7.45608413464e-06
-7.45596368087e-06
-7.45597514334e-06
-7.45596604325e-06
-7.45597402408e-06
-7.45598191871e-06
-7.45599076974e-06
-7.45599802877e-06
-7.45600200452e-06
-7.45600171697e-06
-7.45599766251e-06
-7.4559910897e-06
-7.45598459226e-06
-7.45597820246e-06
-7.45598825502e-06
-7.45598245489e-06
-7.45588163395e-06
-7.45589537484e-06
-7.4558854209e-06
-7.45589462348e-06
-7.45590409321e-06
-7.45591428101e-06
-7.45592234662e-06
-7.45592651272e-06
-7.45592581655e-06
-7.45592081168e-06
-7.45591293773e-06
-7.45590498713e-06
-7.45589726114e-06
-7.45590815069e-06
-7.45590015757e-06
-7.45581355707e-06
-7.45582802164e-06
-7.4558163534e-06
-7.45582613662e-06
-7.45583658296e-06
-7.45584759101e-06
-7.45585616498e-06
-7.45586041655e-06
-7.455859411e-06
-7.45585373858e-06
-7.45584501354e-06
-7.45583617944e-06
-7.45582788722e-06
-7.45584050013e-06
-7.45583183312e-06
-7.45575291774e-06
-7.45576487818e-06
-7.45575008115e-06
-7.45575925924e-06
-7.45576974079e-06
-7.45578081604e-06
-7.45578938271e-06
-7.45579356357e-06
-7.45579241383e-06
-7.45578658198e-06
-7.45577777971e-06
-7.45576902607e-06
-7.45576142594e-06
-7.45577729062e-06
-7.45577101079e-06
-7.45569234725e-06
-7.45569736955e-06
-7.45567766462e-06
-7.4556848631e-06
-7.45569427292e-06
-7.45570441838e-06
-7.45571237963e-06
-7.45571624385e-06
-7.45571520092e-06
-7.45570982843e-06
-7.45570189668e-06
-7.45569434287e-06
-7.45568879398e-06
-7.45570974138e-06
-7.45571028925e-06
-7.45562495175e-06
-7.45561726272e-06
-7.45559085923e-06
-7.45559498551e-06
-7.45560209922e-06
-7.45561034737e-06
-7.4556168914e-06
-7.45562024615e-06
-7.45561952502e-06
-7.45561541674e-06
-7.45560939958e-06
-7.45560416939e-06
-7.45560180813e-06
-7.45562946782e-06
-7.45564254247e-06
-7.45554138669e-06
-7.4555149752e-06
-7.45548183046e-06
-7.45548280089e-06
-7.4554869784e-06
-7.45549205341e-06
-7.45549656869e-06
-7.45549895668e-06
-7.45549902379e-06
-7.45549689684e-06
-7.45549388671e-06
-7.45549178287e-06
-7.45549254689e-06
-7.4555270243e-06
-7.45555853598e-06
-7.455401552e-06
-7.45535580205e-06
-7.45533001106e-06
-7.45533555179e-06
-7.45534007705e-06
-7.45534427376e-06
-7.45534743519e-06
-7.455349468e-06
-7.4553498065e-06
-7.45534879272e-06
-7.45534680287e-06
-7.45534417837e-06
-7.45534056954e-06
-7.45536768675e-06
-7.45541795973e-06
-7.45505537408e-06
-7.45509151075e-06
-7.45511719074e-06
-7.45514987515e-06
-7.45516969825e-06
-7.45518270186e-06
-7.45519083274e-06
-7.45519426964e-06
-7.45519311666e-06
-7.45518722619e-06
-7.45517627089e-06
-7.45515860492e-06
-7.45512790074e-06
-7.45510406419e-06
-7.45507130798e-06
-7.33923740092e-06
-7.33918907372e-06
-7.33913326346e-06
-7.33907441066e-06
-7.33902053055e-06
-7.33897687936e-06
-7.33894754375e-06
-7.33893541899e-06
-7.33894193696e-06
-7.33896640621e-06
-7.3390068185e-06
-7.33905983607e-06
-7.33911941671e-06
-7.33917984577e-06
-7.33922747984e-06
-7.33910362308e-06
-7.33905505901e-06
-7.33899716066e-06
-7.33893763517e-06
-7.33888268689e-06
-7.33883797336e-06
-7.3388077737e-06
-7.33879519584e-06
-7.33880174204e-06
-7.33882670755e-06
-7.33886798935e-06
-7.33892214737e-06
-7.33898301763e-06
-7.33904528782e-06
-7.33909512964e-06
-7.33900028663e-06
-7.33895284691e-06
-7.33889391899e-06
-7.33883527876e-06
-7.33878077318e-06
-7.33873670445e-06
-7.33870706661e-06
-7.33869487965e-06
-7.33870154189e-06
-7.33872637286e-06
-7.33876724792e-06
-7.33882077509e-06
-7.33888070439e-06
-7.33894258359e-06
-7.33899218069e-06
-7.33891734373e-06
-7.33886998755e-06
-7.33881044115e-06
-7.33875253279e-06
-7.33869883247e-06
-7.33865569145e-06
-7.33862685966e-06
-7.33861521198e-06
-7.33862200907e-06
-7.33864660705e-06
-7.33868690842e-06
-7.33873962419e-06
-7.33879846753e-06
-7.33886019469e-06
-7.33890937736e-06
-7.33884333423e-06
-7.33879601686e-06
-7.33873579748e-06
-7.33867839716e-06
-7.33862550132e-06
-7.33858322757e-06
-7.33855518964e-06
-7.33854402001e-06
-7.33855091249e-06
-7.33857521716e-06
-7.33861491362e-06
-7.33866683512e-06
-7.33872471111e-06
-7.33878674863e-06
-7.33883558466e-06
-7.33877725196e-06
-7.33873099898e-06
-7.33866940595e-06
-7.33861289944e-06
-7.33856099643e-06
-7.33851977506e-06
-7.33849259894e-06
-7.33848193591e-06
-7.33848885791e-06
-7.33851276007e-06
-7.33855170511e-06
-7.33860269772e-06
-7.33865953947e-06
-7.33872206101e-06
-7.33877039495e-06
-7.33872048576e-06
-7.33867507036e-06
-7.33861215499e-06
-7.33855659128e-06
-7.33850572516e-06
-7.33846561975e-06
-7.33843935133e-06
-7.33842919723e-06
-7.33843610092e-06
-7.33845950234e-06
-7.33849758217e-06
-7.33854753887e-06
-7.33860332599e-06
-7.33866648777e-06
-7.33871430308e-06
-7.33867236654e-06
-7.33862692175e-06
-7.33856269286e-06
-7.3385078757e-06
-7.3384580986e-06
-7.33841913729e-06
-7.33839381289e-06
-7.33838415221e-06
-7.33839100487e-06
-7.33841384155e-06
-7.33845100412e-06
-7.33849990589e-06
-7.33855475242e-06
-7.33861884873e-06
-7.33866648904e-06
-7.33863068657e-06
-7.33858463122e-06
-7.3385187025e-06
-7.33846437366e-06
-7.33841559063e-06
-7.33837770663e-06
-7.33835328979e-06
-7.33834408597e-06
-7.33835085585e-06
-7.33837310456e-06
-7.33840935566e-06
-7.33845726472e-06
-7.33851142e-06
-7.33857691004e-06
-7.33862528714e-06
-7.33859340372e-06
-7.33854515462e-06
-7.33847694479e-06
-7.33842285423e-06
-7.33837497382e-06
-7.33833816063e-06
-7.33831459779e-06
-7.33830583398e-06
-7.33831248386e-06
-7.33833412994e-06
-7.33836947724e-06
-7.33841645021e-06
-7.33847018461e-06
-7.33853765996e-06
-7.33858832983e-06
-7.33855703648e-06
-7.33850438416e-06
-7.33843353161e-06
-7.33837959516e-06
-7.33833274167e-06
-7.338296981e-06
-7.33827429139e-06
-7.33826591123e-06
-7.33827241395e-06
-7.33829339683e-06
-7.33832777741e-06
-7.33837374725e-06
-7.33842716834e-06
-7.33849715728e-06
-7.33855244545e-06
-7.3385182835e-06
-7.33845816214e-06
-7.3383844285e-06
-7.33833091973e-06
-7.33828519578e-06
-7.33825065779e-06
-7.3382287651e-06
-7.33822079086e-06
-7.3382270688e-06
-7.3382473649e-06
-7.33828067636e-06
-7.3383254519e-06
-7.3383784007e-06
-7.3384512591e-06
-7.33851429078e-06
-7.33847287936e-06
-7.33840146008e-06
-7.33832536365e-06
-7.33827296159e-06
-7.33822889457e-06
-7.33819536145e-06
-7.33817437946e-06
-7.33816661437e-06
-7.33817277106e-06
-7.33819235787e-06
-7.3382245717e-06
-7.33826786622e-06
-7.33831959297e-06
-7.33839493473e-06
-7.3384694654e-06
-7.33839379657e-06
-7.3383103722e-06
-7.33824181424e-06
-7.33819655513e-06
-7.3381570811e-06
-7.33812696106e-06
-7.33810772725e-06
-7.33810076281e-06
-7.33810624818e-06
-7.33812398892e-06
-7.33815303566e-06
-7.33819155492e-06
-7.33823633994e-06
-7.33830430305e-06
-7.33839123343e-06
-7.33815344092e-06
-7.33813149424e-06
-7.33810609759e-06
-7.33808880895e-06
-7.3380690179e-06
-7.33805238818e-06
-7.3380414861e-06
-7.33803721707e-06
-7.33804001995e-06
-7.3380496082e-06
-7.3380650334e-06
-7.33808407665e-06
-7.33810087792e-06
-7.33812609925e-06
-7.33815088848e-06
-6.90077556905e-06
-6.90077785459e-06
-6.900764659e-06
-6.90075483686e-06
-6.90074698224e-06
-6.90074219489e-06
-6.90073950599e-06
-6.9007389359e-06
-6.900740359e-06
-6.90074379224e-06
-6.90074910159e-06
-6.90075618939e-06
-6.90076384669e-06
-6.90077333461e-06
-6.90077667346e-06
-6.9006797311e-06
-6.90067827776e-06
-6.90066363782e-06
-6.90065229472e-06
-6.90064334177e-06
-6.90063778506e-06
-6.9006347097e-06
-6.90063404934e-06
-6.90063567217e-06
-6.90063959908e-06
-6.90064567373e-06
-6.90065383087e-06
-6.90066287712e-06
-6.90067442741e-06
-6.90068089297e-06
-6.90057076403e-06
-6.90056526798e-06
-6.90054884075e-06
-6.90053604433e-06
-6.90052595317e-06
-6.90051950013e-06
-6.90051589246e-06
-6.90051504921e-06
-6.9005168209e-06
-6.9005212103e-06
-6.90052806949e-06
-6.9005374014e-06
-6.90054797837e-06
-6.90056214891e-06
-6.90057174249e-06
-6.9004820301e-06
-6.90047526227e-06
-6.90045752352e-06
-6.90044462449e-06
-6.90043425429e-06
-6.90042754711e-06
-6.90042381663e-06
-6.90042291387e-06
-6.90042465702e-06
-6.90042902792e-06
-6.90043592828e-06
-6.90044547458e-06
-6.90045645084e-06
-6.90047214416e-06
-6.90048306011e-06
-6.9004109233e-06
-6.90040445606e-06
-6.90038603818e-06
-6.90037386026e-06
-6.90036393396e-06
-6.90035758223e-06
-6.90035409608e-06
-6.90035325169e-06
-6.90035482672e-06
-6.90035881903e-06
-6.90036519966e-06
-6.90037423038e-06
-6.90038475145e-06
-6.900401096e-06
-6.90041183572e-06
-6.90035338272e-06
-6.90034735631e-06
-6.90032923527e-06
-6.90031824602e-06
-6.90030921973e-06
-6.90030356108e-06
-6.90030052549e-06
-6.90029979755e-06
-6.9003011124e-06
-6.90030449176e-06
-6.90030999561e-06
-6.90031804664e-06
-6.90032758996e-06
-6.9003440696e-06
-6.90035375958e-06
-6.90030674766e-06
-6.90030197466e-06
-6.90028439374e-06
-6.90027474671e-06
-6.90026693616e-06
-6.90026222228e-06
-6.90025979323e-06
-6.90025922264e-06
-6.90026022681e-06
-6.90026284255e-06
-6.90026726543e-06
-6.9002740724e-06
-6.90028235986e-06
-6.90029868918e-06
-6.90030683619e-06
-6.90026916318e-06
-6.90026597655e-06
-6.90024881761e-06
-6.90024064668e-06
-6.90023420026e-06
-6.90023052567e-06
-6.90022874851e-06
-6.90022834764e-06
-6.90022901513e-06
-6.90023081928e-06
-6.90023409464e-06
-6.90023958138e-06
-6.90024658635e-06
-6.90026274755e-06
-6.90026937329e-06
-6.90023881569e-06
-6.90023659823e-06
-6.90021956802e-06
-6.90021270233e-06
-6.90020755111e-06
-6.90020490052e-06
-6.90020376435e-06
-6.90020354102e-06
-6.90020388038e-06
-6.90020491808e-06
-6.90020711247e-06
-6.90021137758e-06
-6.90021729444e-06
-6.90023353257e-06
-6.90023919035e-06
-6.90021302213e-06
-6.9002104955e-06
-6.90019320034e-06
-6.90018733883e-06
-6.90018336088e-06
-6.90018161626e-06
-6.90018105609e-06
-6.90018098064e-06
-6.90018104629e-06
-6.90018141684e-06
-6.9001826875e-06
-6.90018592749e-06
-6.90019108195e-06
-6.90020784064e-06
-6.90021372635e-06
-6.90018889761e-06
-6.90018430055e-06
-6.90016618578e-06
-6.90016099705e-06
-6.90015798336e-06
-6.90015700367e-06
-6.90015691411e-06
-6.90015697115e-06
-6.90015682898e-06
-6.9001566724e-06
-6.90015721924e-06
-6.90015964438e-06
-6.90016433061e-06
-6.90018213465e-06
-6.90018999984e-06
-6.90016375369e-06
-6.90015462377e-06
-6.90013512308e-06
-6.90013042003e-06
-6.90012820509e-06
-6.9001277628e-06
-6.90012800768e-06
-6.90012814954e-06
-6.90012788616e-06
-6.90012742547e-06
-6.90012746913e-06
-6.90012927526e-06
-6.90013366743e-06
-6.90015291811e-06
-6.90016516905e-06
-6.90013375479e-06
-6.90011726439e-06
-6.90009656533e-06
-6.90009265851e-06
-6.90009108982e-06
-6.90009097168e-06
-6.90009127098e-06
-6.90009144602e-06
-6.9000911931e-06
-6.90009067062e-06
-6.90009053639e-06
-6.90009181592e-06
-6.90009555079e-06
-6.90011606705e-06
-6.90013544769e-06
-6.90007931932e-06
-6.90005511759e-06
-6.90004037777e-06
-6.90004117057e-06
-6.90004228279e-06
-6.90004347219e-06