/*--------------------------------*- C++ -*----------------------------------*\
  =========                 |
  \\      /  F ield         | OpenFOAM: The Open Source CFD Toolbox
   \\    /   O peration     | Website:  https://openfoam.org
    \\  /    A nd           | Version:  7
     \\/     M anipulation  |
\*---------------------------------------------------------------------------*/
FoamFile
{
    version     2.0;
    format      ascii;
    class       surfaceScalarField;
    location    "1";
    object      phi;
}
// * * * * * * * * * * * * * * * * * * * * * * * * * * * * * * * * * * * * * //

dimensions      [0 3 -1 0 0 0 0];

internalField   nonuniform List<scalar> 
65775
(
3.41577055674e-12
2.66694690967e-09
3.20269545186e-10
4.42798094589e-13
2.64022725166e-12
2.79508731438e-09
3.52045513457e-10
2.7450623937e-12
2.90478269036e-09
3.80933604091e-10
2.38133486453e-12
2.99974346387e-09
4.06255616222e-10
1.98826234558e-12
3.07553872449e-09
4.27127759742e-10
1.46161097213e-12
3.13104694177e-09
4.42742220296e-10
8.61679303498e-13
3.16588818974e-09
4.52569751629e-10
2.05261011327e-13
3.17897189183e-09
4.56120069172e-10
-4.38053185402e-13
3.16564772726e-09
4.52569304205e-10
-1.04791832795e-12
3.13057926715e-09
4.4274170699e-10
-1.57482277655e-12
3.07485397638e-09
4.2712760643e-10
-2.1112128911e-12
2.99890246813e-09
4.06256666821e-10
-2.22579549561e-12
2.90384199157e-09
3.80939112503e-10
-3.16200698113e-12
2.79423533626e-09
3.52072922555e-10
2.66645258314e-09
3.20388353503e-10
5.21145708793e-13
1.29013914848e-11
4.66678187342e-09
8.36464418837e-10
1.01746412352e-12
1.89347160539e-11
4.87721385632e-09
9.16871707399e-10
2.06949500482e-11
5.05768129285e-09
9.88993794744e-10
1.96465311506e-11
5.21171452355e-09
1.05152600418e-09
1.62529687923e-11
5.33435198006e-09
1.10262993629e-09
1.10576390779e-11
5.42380021617e-09
1.14063034589e-09
4.71091773847e-12
5.4798855938e-09
1.16446149403e-09
-2.03754977306e-12
5.50095473423e-09
1.17306077625e-09
-8.49065833576e-12
5.47932822774e-09
1.16446229793e-09
-1.38954983029e-11
5.42271258424e-09
1.14063262479e-09
-1.76109216779e-11
5.33276977205e-09
1.10263427066e-09
-1.90845044948e-11
5.20974907286e-09
1.05153388877e-09
-1.78221262217e-11
5.05548919199e-09
9.8901372742e-10
-1.22129440999e-11
4.87515568863e-09
9.16951081879e-10
4.66540330028e-09
8.36755587075e-10
1.27875631476e-12
2.4746640879e-11
6.09908775895e-09
1.25014851236e-09
1.45859826046e-12
3.8253626757e-11
6.356723617e-09
1.36979334609e-09
4.18592539096e-11
6.57838562295e-09
1.4762160845e-09
3.96042858001e-11
6.76448653704e-09
1.56784327726e-09
3.24745311809e-11
6.91223470971e-09
1.64230118984e-09
2.17727735461e-11
7.0195357432e-09
1.69743877774e-09
8.8330351812e-12
7.08675784421e-09
1.73191477822e-09
-4.853428332e-12
7.11205863918e-09
1.74432396653e-09
-1.79535344338e-11
7.08598219214e-09
1.73191380931e-09
-2.89733319261e-11
7.01802435953e-09
1.69743785595e-09
-3.6581680334e-11
6.91004599196e-09
1.64230095436e-09
-3.94640191206e-11
6.76175898274e-09
1.56784557784e-09
-3.65698790859e-11
6.57534334089e-09
1.47623228812e-09
-2.37045666307e-11
6.35381191943e-09
1.36988744698e-09
6.0970020204e-09
1.25052455709e-09
1.88835668956e-12
3.81812033659e-11
7.04853598945e-09
1.5777504085e-09
1.74692064319e-12
5.91504726722e-11
7.32698708336e-09
1.7293292425e-09
6.49045640598e-11
7.56678013356e-09
1.86322788941e-09
6.10978555296e-11
7.76472939916e-09
1.97779578402e-09
4.97799433688e-11
7.92118181432e-09
2.07041460962e-09
3.30573993808e-11
8.03427085596e-09
2.13873464537e-09
1.30243262531e-11
8.1050439423e-09
2.18132557606e-09
-8.09157418163e-12
8.13175571935e-09
2.19660980001e-09
-2.8324137439e-11
8.10414797267e-09
2.18131944027e-09
-4.54427703342e-11
8.03252491589e-09
2.13872351572e-09
-5.73484965434e-11
7.91866338763e-09
2.07039886835e-09
-6.19117374321e-11
7.76159056004e-09
1.97777690962e-09
-5.70047185111e-11
7.56326221816e-09
1.8632172478e-09
-3.68124836032e-11
7.32356394566e-09
1.72939527643e-09
7.04592148275e-09
1.57811632808e-09
2.37922807841e-12
5.1988164489e-11
7.59216483641e-09
1.82801871115e-09
1.92594914025e-12
8.04458200067e-11
7.87168596664e-09
2.00517045764e-09
8.85363957862e-11
8.11228661801e-09
2.1606540215e-09
8.30983512946e-11
8.30741788333e-09
2.2928789272e-09
6.7422948449e-11
8.46069064798e-09
2.39921779906e-09
4.44820714917e-11
8.57089507035e-09
2.47734600904e-09
1.71711514881e-11
8.63977452996e-09
2.52589604257e-09
-1.15510649449e-11
8.66585755553e-09
2.54325943554e-09
-3.90890505343e-11
8.6388387039e-09
2.52588193007e-09
-6.24789594889e-11
8.56907412444e-09
2.47731877299e-09
-7.88134071669e-11
8.45806980292e-09
2.39917714968e-09
-8.50847388782e-11
8.30415203099e-09
2.29282507295e-09
-7.79167564046e-11
8.10860205004e-09
2.16059584891e-09
-5.03134301491e-11
7.86805828333e-09
2.00517438712e-09
7.58926408051e-09
1.82830990583e-09
2.7893800911e-12
6.56546379731e-11
7.80008341879e-09
2.00840344565e-09
2.02343694144e-12
1.01422057303e-10
8.0664987049e-09
2.20552738259e-09
1.11874535058e-10
8.2955001402e-09
2.37744981151e-09
1.04812550636e-10
8.47776911275e-09
2.52274603734e-09
8.47929391534e-11
8.61980322578e-09
2.63897054494e-09
5.56790525713e-11
8.72132505054e-09
2.72400367117e-09
2.1170488435e-11
8.78468063385e-09
2.7766620047e-09
-1.50636051257e-11
8.80876658115e-09
2.7954221153e-09
-4.98162359354e-11
8.78377933834e-09
2.77663825868e-09
-7.94114348041e-11
8.71957198999e-09
2.72395675306e-09
-1.00129411108e-10
8.61728494892e-09
2.63889905963e-09
-1.08062007978e-10
8.47462954423e-09
2.52264805927e-09
-9.85584500749e-11
8.29193948961e-09
2.3773301414e-09
-6.36800545944e-11
8.06294008454e-09
2.2054483547e-09
7.79713553451e-09
2.00858819355e-09
3.13824548444e-12
7.89653162935e-11
7.73569982247e-09
2.12579911883e-09
2.06132895968e-12
1.2171904851e-10
7.9796089348e-09
2.33802497682e-09
1.34470806506e-10
8.18880574561e-09
2.52195852014e-09
1.25837004647e-10
8.35194666901e-09
2.67641813514e-09
1.01590913129e-10
8.47785482328e-09
2.79928664488e-09
6.6477446826e-11
8.56727398714e-09
2.88878450313e-09
2.49841438911e-11
8.62298234356e-09
2.94400067672e-09
-1.85356020924e-11
8.64425641995e-09
2.96358594137e-09
-6.0281244241e-11
8.62217403019e-09
2.94396685501e-09
-9.58900223879e-11
8.56570279784e-09
2.88871688823e-09
-1.20847947457e-10
8.47560139554e-09
2.79918239703e-09
-1.30357190109e-10
8.34913435445e-09
2.67627257359e-09
-1.18549250152e-10
8.18559646863e-09
2.52177175255e-09
-7.66860548233e-11
7.9763668909e-09
2.33785606486e-09
7.73293684533e-09
2.12586880815e-09
3.44951931714e-12
9.17554401868e-11
7.45591346974e-09
2.18687168036e-09
2.05239903031e-12
1.41143923669e-10
7.67184137867e-09
2.41007433798e-09
1.56134174558e-10
7.85642456983e-09
2.60232738826e-09
1.46045114599e-10
7.99720291836e-09
2.76274076054e-09
1.17755603449e-10
8.10465683772e-09
2.88962511242e-09
7.68634583995e-11
8.18047007015e-09
2.98162799574e-09
2.86259765826e-11
8.22762627163e-09
3.03816287874e-09
-2.19336159372e-11
8.24572294711e-09
3.05811580372e-09
-7.04240083493e-11
8.2269570149e-09
3.03811974078e-09
-1.11809714903e-10
8.17917107218e-09
2.98154131005e-09
-1.40803403739e-10
8.10279521074e-09
2.88949051511e-09
-1.51748542074e-10
7.99487715381e-09
2.76255067744e-09
-1.37673470239e-10
7.85375113657e-09
2.60207736379e-09
-8.91593336376e-11
7.6691175399e-09
2.4098222551e-09
7.45354054264e-09
2.18683515418e-09
3.73566609446e-12
1.03920934083e-10
7.01121743644e-09
2.1981156984e-09
2.00965205204e-12
1.59657531622e-10
7.19671279115e-09
2.42891759891e-09
1.76916189861e-10
7.35450999186e-09
2.62653685295e-09
1.65571709775e-10
7.47202326111e-09
2.79040049572e-09
1.33449757446e-10
7.56067818678e-09
2.91929682824e-09
8.69714235265e-11
7.62286791318e-09
3.01233598802e-09
3.21596631702e-11
7.6615049259e-09
3.06926860113e-09
-2.52787511633e-11
7.6764055331e-09
3.08924790793e-09
-8.03370839787e-11
7.66100619737e-09
3.06921860642e-09
-1.27294744666e-10
7.6219020355e-09
3.01223508774e-09
-1.60095843322e-10
7.55929629634e-09
2.91913927637e-09
-1.72260565296e-10
7.47029289244e-09
2.79017581385e-09
-1.55874537005e-10
7.35250429467e-09
2.62623672073e-09
-1.00989674416e-10
7.1946588661e-09
2.42860111001e-09
7.00940869247e-09
2.19799577508e-09
4.0095132194e-12
1.15439580366e-10
6.44590100978e-09
2.16576175371e-09
1.94308077955e-12
1.77403373311e-10
6.60063809986e-09
2.40148785859e-09
1.97139587356e-10
6.73139915908e-09
2.60222634166e-09
1.84834867834e-10
6.82646875038e-09
2.76772274998e-09
1.49074076082e-10
6.89747237221e-09
2.8972394299e-09
9.70879986017e-11
6.94711499409e-09
2.99032968324e-09
3.57000892828e-11
6.97795075177e-09
3.04705290697e-09
-2.86475277625e-11
6.98988852387e-09
3.06683141177e-09
-9.02701738841e-11
6.97763951888e-09
3.04699988455e-09
-1.42711302831e-10
6.9465153202e-09
2.99022249329e-09
-1.79114586011e-10
6.89661837251e-09
2.89707118006e-09
-1.92192892247e-10
6.82539840244e-09
2.76748052257e-09
-1.732824872e-10
6.73014241293e-09
2.60189874775e-09
-1.12147335915e-10
6.59935743621e-09
2.40113694337e-09
6.44478026709e-09
2.16559230527e-09
4.28151305995e-12
1.26365920944e-10
5.79838443201e-09
2.09560574165e-09
1.86160649038e-12
1.94746746806e-10
5.92331196464e-09
2.33418704808e-09
2.17442977297e-10
6.02810903574e-09
2.53643415471e-09
2.04562336013e-10
6.10283376884e-09
2.70238320448e-09
1.65267184536e-10
6.15842170274e-09
2.83170717846e-09
1.07645681956e-10
6.19734979167e-09
2.92432423113e-09
3.94090592534e-11
6.22154782731e-09
2.98053078132e-09
-3.21679798031e-11
6.23092253561e-09
2.99999023798e-09
-1.00623562873e-10
6.22142641381e-09
2.98048037144e-09
-1.5866907953e-10
6.19712260794e-09
2.92422211967e-09
-1.98562930722e-10
6.15810673076e-09
2.83154574702e-09
-2.12167428535e-10
6.10244287281e-09
2.70214756808e-09
-1.90252754294e-10
6.02763567662e-09
2.53611041111e-09
-1.22683807814e-10
5.92285939493e-09
2.3338409654e-09
5.79802752851e-09
2.09542958717e-09
4.56180352125e-12
1.36843350129e-10
5.10176026826e-09
1.99280692724e-09
1.76651570735e-12
2.12389557194e-10
5.19824553294e-09
2.23264092624e-09
2.38869477068e-10
5.27913960972e-09
2.43533236934e-09
2.25794704902e-10
5.33666509625e-09
2.60112950273e-09
1.8286453906e-10
5.379835011e-09
2.72997942216e-09
1.19177170954e-10
5.41029931862e-09
2.82202462817e-09
4.34788222365e-11
5.42924062459e-09
2.87768429217e-09
-3.60046636305e-11
5.43652224311e-09
2.89680659879e-09
-1.1190354031e-10
5.4292996077e-09
2.87764333267e-09
-1.75981197356e-10
5.41042437446e-09
2.82194169038e-09
-2.19464634746e-10
5.38003496329e-09
2.72984697122e-09
-2.33216697686e-10
5.33693199552e-09
2.60093132445e-09
-2.07483558073e-10
5.27943997744e-09
2.43505164918e-09
-1.32744292502e-10
5.19863021574e-09
2.23234557949e-09
5.10220215391e-09
1.99267286001e-09
4.86001913035e-12
1.47370606616e-10
4.38431911199e-09
1.86168518449e-09
1.66248638048e-12
2.31732682985e-10
4.45340410026e-09
2.10148873395e-09
2.62939497579e-10
4.51376299098e-09
2.30402856071e-09
2.49737321185e-10
4.5581983783e-09
2.46958269257e-09
2.0269454008e-10
4.59229768819e-09
2.59815102848e-09
1.3217263627e-10
4.61657110121e-09
2.68990254508e-09
4.80741044919e-11
4.631571508e-09
2.74522899688e-09
-4.03019756493e-11
4.63722810669e-09
2.76408365704e-09
-1.24584062831e-10
4.63178835314e-09
2.74520510987e-09
-1.95462150153e-10
4.61700949724e-09
2.68985476041e-09
-2.43017396733e-10
4.59295836865e-09
2.59807324726e-09
-2.56859433274e-10
4.55906571903e-09
2.46945848036e-09
-2.26380198449e-10
4.51478667322e-09
2.303836529e-09
-1.42835927193e-10
4.45459321491e-09
2.10129240783e-09
4.38554755799e-09
1.86163916883e-09
5.16090343971e-12
1.5976350729e-10
3.66923506051e-09
1.70555142493e-09
1.55072560629e-12
2.55070171731e-10
3.71269292052e-09
1.94431161138e-09
2.91008495469e-10
3.75816307945e-09
2.14654455892e-09
2.76936621798e-10
3.7940232343e-09
2.31220751898e-09
2.24938220955e-10
3.82191929093e-09
2.44107248982e-09
1.46682904783e-10
3.84173573928e-09
2.53310511253e-09
5.32178143524e-11
3.85380294784e-09
2.5885010627e-09
-4.5075009271e-11
3.85818568359e-09
2.60722486807e-09
-1.38708406615e-10
3.85414964594e-09
2.58850146339e-09
-2.17292941018e-10
3.84242975253e-09
2.53310783454e-09
-2.69771985059e-10
3.82295875139e-09
2.44107491247e-09
-2.84462348036e-10
3.79539271525e-09
2.31219579465e-09
-2.4924904321e-10
3.75981765865e-09
2.14649174535e-09
-1.54790705139e-10
3.7146152372e-09
1.94426195625e-09
3.67117070644e-09
1.70562568186e-09
5.47284826105e-12
1.7839039685e-10
1.52679455344e-09
1.42948802721e-12
2.97290736432e-09
2.84298891986e-10
1.76410252429e-09
2.99950667734e-09
3.22686462043e-10
1.96623001744e-09
3.03747711738e-09
3.0636219917e-10
2.13261016234e-09
3.06775053507e-09
2.48738238008e-10
2.26252909522e-09
3.09084230832e-09
1.62216767088e-10
2.35553843175e-09
3.1071186903e-09
5.8740547059e-11
2.4114798876e-09
3.11686183606e-09
-5.01590019019e-11
2.43023521529e-09
3.12023861157e-09
-1.53796584701e-10
2.41150788979e-09
3.11730723122e-09
-2.40633700099e-10
2.35559883365e-09
3.10800992599e-09
-2.98724472869e-10
2.2626245982e-09
3.09217411886e-09
-3.15661644387e-10
2.13273464614e-09
3.06951267575e-09
-2.78024893327e-10
1.96635370941e-09
3.0396394751e-09
-1.7302127588e-10
1.76426466305e-09
3.00204274275e-09
1.52695946441e-09
5.77573914563e-12
2.97546963424e-09
-7.8227390337e-12
1.58362119937e-10
1.70062123361e-10
4.8752195112e-14
-1.22917748538e-11
1.72612659668e-10
1.84530417585e-10
-1.44169068124e-11
1.87265997632e-10
1.96372223325e-10
-1.42364975576e-11
2.00638282079e-10
2.05942714182e-10
-1.1939495808e-11
2.11814115679e-10
2.13352147819e-10
-7.92593288832e-12
2.20320297226e-10
2.18654178539e-10
-2.77998970937e-12
2.25740921324e-10
2.21921979161e-10
2.77354344747e-12
2.27702863751e-10
2.23123301997e-10
7.95715533826e-12
2.25735052845e-10
2.21924623151e-10
1.20404881525e-11
2.20279381544e-10
2.18659420111e-10
1.44082929376e-11
2.11679283533e-10
2.13360125985e-10
1.46129991573e-11
2.00374873014e-10
2.05954759281e-10
1.24803059565e-11
1.86951472652e-10
1.96393675678e-10
7.95940490669e-12
1.72279665265e-10
1.84580179749e-10
1.58261317779e-10
1.70202293811e-10
1.38049927166e-13
-1.66956860565e-11
4.84163505284e-10
5.27917222966e-10
1.60467030608e-13
-2.77910060462e-11
5.24806237226e-10
5.76729128971e-10
-3.35054048375e-11
5.65112198678e-10
6.17786450714e-10
-3.36256889412e-11
6.0142512976e-10
6.51605817998e-10
-2.8459676093e-11
6.31623685959e-10
6.78175337759e-10
-1.89518050302e-11
6.54467761662e-10
6.97389756118e-10
-6.5738154105e-12
6.68963234633e-10
7.09269301929e-10
6.84046260198e-12
6.74200643816e-10
7.13581509095e-10
1.92956355677e-11
6.68918369901e-10
7.09274454518e-10
2.89391655866e-11
6.5432445126e-10
6.97400108893e-10
3.42336110597e-11
6.31280937211e-10
6.78191894724e-10
3.41434897654e-11
6.00813364318e-10
6.51633063058e-10
2.83595633785e-11
5.64347470013e-10
6.17839696203e-10
1.71087578119e-11
5.24039986533e-10
5.76861905899e-10
4.83837602819e-10
5.28269556052e-10
4.12066088394e-13
-2.0413032352e-11
8.8480982106e-10
8.70344867221e-10
2.55820969017e-13
-3.53709575633e-11
9.5548583623e-10
9.54927703289e-10
-4.36874250284e-11
1.02363347803e-09
1.02685618611e-09
-4.45050375349e-11
1.08424301102e-09
1.08650907016e-09
-3.80043113219e-11
1.13432013002e-09
1.13358564317e-09
-2.5397279421e-11
1.17196774502e-09
1.16772657193e-09
-8.72680081381e-12
1.1957661132e-09
1.18883084561e-09
9.41691351524e-12
1.20435128867e-09
1.19643863557e-09
2.61782877928e-11
1.19565829487e-09
1.18883548873e-09
3.89396190292e-11
1.17169179967e-09
1.16773598786e-09
4.55765630583e-11
1.13376698584e-09
1.13360167024e-09
4.47714588926e-11
1.08334276128e-09
1.08653872805e-09
3.63215420298e-11
1.022515254e-09
1.02692163199e-09
2.11199582824e-11
9.54413752743e-10
9.55104764722e-10
8.843136629e-10
8.70825272305e-10
7.0487840809e-13
-1.99322410772e-11
1.29917730744e-09
1.18360435865e-09
3.60576953914e-13
-3.60917609555e-11
1.39856888807e-09
1.30318539098e-09
-4.58882543615e-11
1.49191452239e-09
1.40549375405e-09
-4.76182829873e-11
1.57375517917e-09
1.4906067413e-09
-4.11162208176e-11
1.64080748672e-09
1.55787836966e-09
-2.75951282594e-11
1.69087453876e-09
1.6066934228e-09
-9.35393204498e-12
1.72239880867e-09
1.63683144531e-09
1.06068131283e-11
1.7337571562e-09
1.64763439061e-09
2.89298687789e-11
1.72222273495e-09
1.63683118847e-09
4.25836099159e-11
1.69046894837e-09
1.60669310717e-09
4.91865951805e-11
1.64007918646e-09
1.55788052553e-09
4.74222576727e-11
1.57265425418e-09
1.49062000612e-09
3.74258314143e-11
1.49056473366e-09
1.40554376474e-09
2.09418624981e-11
1.39729376499e-09
1.30335881391e-09
1.29854532034e-09
1.18411882598e-09
1.03911722011e-12
-1.59270622759e-11
1.68265789517e-09
1.46058778043e-09
4.69539645071e-13
-3.09515744285e-11
1.80635330171e-09
1.61311788568e-09
-4.10848082965e-11
1.91931638995e-09
1.74404071252e-09
-4.38045620881e-11
2.01682039808e-09
1.85306681923e-09
-3.84392992299e-11
2.09585508598e-09
1.93922481574e-09
-2.5959456379e-11
2.15440852683e-09
2.00170057216e-09
-8.61826338142e-12
2.19111401847e-09
2.0402004732e-09
1.05079185149e-11
2.20432875742e-09
2.05392988801e-09
2.790858415e-11
2.19088523948e-09
2.04019142704e-09
4.04766674519e-11
2.15390918827e-09
2.00168278349e-09
4.58842698349e-11
2.09501561505e-09
1.93920112012e-09
4.30668936225e-11
2.01561131175e-09
1.85304627187e-09
3.26694590918e-11
1.91785787181e-09
1.74404926881e-09
1.72508057701e-11
1.80497078852e-09
1.61324640803e-09
1.68194664491e-09
1.46106571081e-09
1.40022949772e-12
-9.08120605214e-12
2.00462877022e-09
1.69549760657e-09
5.7875851709e-13
-2.0916969078e-11
2.14642229685e-09
1.87790864273e-09
-3.02612129864e-11
2.27202123344e-09
2.03467157475e-09
-3.39244168294e-11
2.37857011282e-09
2.16514544259e-09
-3.06325055621e-11
2.46382156236e-09
2.26811144196e-09
-2.09091751419e-11
2.5263928377e-09
2.3426541916e-09
-6.67795258549e-12
2.56541277945e-09
2.38848103909e-09
9.23095282701e-12
2.57945029945e-09
2.40474214678e-09
2.34927422822e-11
2.56515271207e-09
2.38846048457e-09
3.32496755888e-11
2.52584426771e-09
2.34261352327e-09
3.65150925279e-11
2.46294017725e-09
2.26805339981e-09
3.26870650047e-11
2.37734582501e-09
2.16507849655e-09
2.30161601616e-11
2.27056353558e-09
2.03461987034e-09
1.07334841326e-11
2.14504183045e-09
1.87796387373e-09
2.00388193239e-09
1.69589630239e-09
1.77448298471e-12
-8.94206123372e-14
2.24616597791e-09
1.88418577344e-09
6.81142403214e-13
-6.9622441308e-12
2.39913465907e-09
2.09272217095e-09
-1.44636964697e-11
2.53011280754e-09
2.2718877703e-09
-1.89201288342e-11
2.63912525725e-09
2.4207591712e-09
-1.8431625825e-11
2.72501137132e-09
2.53798197606e-09
-1.29132932443e-11
2.78734632423e-09
2.62265276456e-09
-3.70432478402e-12
2.8259746627e-09
2.67456085288e-09
6.91400504753e-12
2.83986075567e-09
2.69288723634e-09
1.61233324248e-11
2.82571067392e-09
2.67452797367e-09
2.16196710412e-11
2.78680203779e-09
2.6225878283e-09
2.20129139014e-11
2.72416179131e-09
2.53788733627e-09
1.73275306538e-11
2.63797406733e-09
2.42064140108e-09
9.44331748608e-12
2.52875022744e-09
2.27176741572e-09
2.07854671596e-12
2.39785124021e-09
2.09269104664e-09
2.24544537242e-09
1.88448533667e-09
2.15684081461e-12
1.04104189322e-11
2.39805931242e-09
2.0242506579e-09
7.71844869849e-13
9.96599525716e-12
2.55531174322e-09
2.25481043915e-09
5.24919314672e-12
2.68497940545e-09
2.45263295422e-09
2.26688141016e-13
2.79067952933e-09
2.61660904895e-09
-2.61665723009e-12
2.87246299569e-09
2.74536833962e-09
-2.47143732888e-12
2.93103124591e-09
2.83812307474e-09
1.24951997711e-13
2.96704528128e-09
2.8948114609e-09
3.71525802216e-12
2.97997758022e-09
2.91472064324e-09
6.28395245067e-12
2.96680189305e-09
2.89476795584e-09
6.35578442416e-12
2.93053804965e-09
2.83803727139e-09
3.35479768913e-12
2.87171019542e-09
2.74524142294e-09
-1.95450338214e-12
2.78967920456e-09
2.61644467042e-09
-7.10042136993e-12
2.68380227976e-09
2.45244740008e-09
-8.07898976179e-12
2.55421167782e-09
2.25469635543e-09
2.39745230367e-09
2.02445129615e-09
2.53922531089e-12
2.18557057863e-11
2.45894857965e-09
2.11492715532e-09
8.50793954079e-13
2.89781743999e-11
2.614150739e-09
2.36336119583e-09
2.78525418578e-11
2.73693940273e-09
2.57610054744e-09
2.25379516065e-11
2.83480013547e-09
2.75195523704e-09
1.60212534237e-11
2.90896599598e-09
2.88963556731e-09
9.90501688005e-12
2.96125050334e-09
2.98853858424e-09
4.6302267948e-12
2.99309787541e-09
3.04878771783e-09
-1.95940776828e-13
3.00451477166e-09
3.06982909962e-09
-5.52223316936e-12
2.99289772116e-09
3.04873680432e-09
-1.17555738731e-11
2.96085016607e-09
2.98843915325e-09
-1.8482439893e-11
2.90836553717e-09
2.88948771269e-09
-2.41327872953e-11
2.83401356372e-09
2.75175953777e-09
-2.57274353541e-11
2.73601877481e-09
2.57586796695e-09
-1.91754608975e-11
2.61331166697e-09
2.36318491147e-09
2.45852702924e-09
2.11504783151e-09
2.91516938103e-12
3.376561594e-11
2.4335431452e-09
2.15684426741e-09
9.14735056544e-13
4.92671847903e-11
2.58130068662e-09
2.41917976768e-09
5.23817782173e-11
2.69305341589e-09
2.6433422039e-09
4.70681240752e-11
2.78000495047e-09
2.82815371958e-09
3.67032169301e-11
2.84441125018e-09
2.97245906521e-09
2.37072772422e-11
2.88900677212e-09
3.07585512384e-09
9.63429092713e-12
2.91586391705e-09
3.13863870329e-09
-4.64514847645e-12
2.92546385868e-09
3.16043493226e-09
-1.8789380456e-11
2.91572186341e-09
3.13858839461e-09
-3.19378926312e-11
2.88872692043e-09
3.07575675969e-09
-4.25557754964e-11
2.84400037187e-09
2.97231109859e-09
-4.82450187478e-11
2.77947780302e-09
2.82795278592e-09
-4.56331441597e-11
2.69244498017e-09
2.64309348216e-09
-3.07359162512e-11
2.58078837529e-09
2.41897714796e-09
2.43338522133e-09
2.1569197193e-09
3.28043886572e-12
4.57500390439e-11
2.33106473592e-09
2.15168669281e-09
9.66671325561e-13
7.01217139183e-11
2.46714313281e-09
2.42426475052e-09
7.79508883839e-11
2.56518404146e-09
2.65677266852e-09
7.29182525332e-11
2.63961128652e-09
2.84809599673e-09
5.86662915291e-11
2.69344401557e-09
2.99719945169e-09
3.84277694217e-11
2.73000732448e-09
3.10382726353e-09
1.49586703137e-11
2.75173820895e-09
3.1683841549e-09
-9.45575220852e-12
2.75946829782e-09
3.19065492033e-09
-3.30119265849e-11
2.75166266525e-09
3.16834377975e-09
-5.3430990093e-11
2.7298638409e-09
3.10374831606e-09
-6.79695950828e-11
2.69324299335e-09
2.99707850062e-09
-7.34101947672e-11
2.63936772952e-09
2.847925122e-09
-6.61129071605e-11
2.56492017859e-09
2.65655023209e-09
-4.23753322329e-11
2.46700375565e-09
2.42408423998e-09
2.33122576617e-09
2.15176465091e-09
3.62940805912e-12
5.75001203274e-11
2.16384457153e-09
2.10180685777e-09
1.00578930934e-12
9.09243418445e-11
2.28526685313e-09
2.38134352572e-09
1.03753708711e-10
2.3683008622e-09
2.61964312139e-09
9.92284825014e-11
2.42990403494e-09
2.81561513853e-09
8.11508708139e-11
2.47350515834e-09
2.96824191506e-09
5.35454151647e-11
2.50258614318e-09
3.07729159784e-09
2.04183951498e-11
2.51962832287e-09
3.14315884908e-09
-1.44453823454e-11
2.52563828508e-09
3.16573193914e-09
-4.7672196747e-11
2.51962251654e-09
3.14313906307e-09
-7.54813025501e-11
2.50258231097e-09
3.07725343237e-09
-9.38726991491e-11
2.47351895924e-09
2.96818024657e-09
-9.88329867935e-11
2.42994955272e-09
2.81551709393e-09
-8.65606358141e-11
2.36839409689e-09
2.61949822529e-09
-5.37983861619e-11
2.28552178589e-09
2.38124131993e-09
2.16436362341e-09
2.10194292754e-09
3.95804363072e-12
6.88287301136e-11
1.94609826225e-09
2.00982642951e-09
1.0327310335e-12
1.11214527323e-10
2.05113032175e-09
2.29345621903e-09
1.29103012942e-10
2.1190646678e-09
2.53560009313e-09
1.25181378571e-10
2.1686444901e-09
2.73498396514e-09
1.0338202877e-10
2.20325345718e-09
2.89042222942e-09
6.85095052754e-11
2.22604967966e-09
3.00152911241e-09
2.58117484096e-11
2.23923570548e-09
3.06853230442e-09
-1.94172715867e-11
2.24382369373e-09
3.0913390069e-09
-6.22273935241e-11
2.23929777741e-09
3.06854387555e-09
-9.73231708636e-11
2.22618400869e-09
3.00155371717e-09
-1.1946173083e-10
2.20347485627e-09
2.89045398646e-09
-1.23842039869e-10
2.16897186712e-09
2.7350054692e-09
-1.06534143306e-10
2.11950860272e-09
2.53558893387e-09
-6.48341221319e-11
2.05178595355e-09
2.29348902777e-09
1.94699745081e-09
2.01007135996e-09
4.24511713654e-12
7.95359922342e-11
1.69303112536e-09
1.87827886425e-09
1.04883494612e-12
1.30452276051e-10
1.78096362906e-09
2.16375269712e-09
1.53208172745e-10
1.83456958999e-09
2.40847626619e-09
1.49835522423e-10
1.87380524462e-09
2.61061756593e-09
1.24468028744e-10
1.90125348183e-09
2.76863542783e-09
8.26863498967e-11
1.91933476763e-09
2.88179597912e-09
3.09105366503e-11
1.92971739298e-09
2.94998864532e-09
-2.41517565096e-11
1.93325705832e-09
2.97304109639e-09
-7.6052011074e-11
1.92984634079e-09
2.95004031134e-09
-1.18079775399e-10
1.91960023936e-09
2.88190157935e-09
-1.43811145212e-10
1.90167175257e-09
2.76879031579e-09
-1.47668561164e-10
1.87439373766e-09
2.61080271731e-09
-1.25510358026e-10
1.83534548146e-09
2.40865586141e-09
-7.52994370668e-11
1.78200736801e-09
2.16397231355e-09
1.6942941994e-09
1.8786634784e-09
4.49625312698e-12
8.42824488106e-11
1.70934380349e-09
1.05815975077e-12
1.42537302471e-09
1.45532611829e-10
1.995825043e-09
1.48816397628e-09
1.73774300793e-10
2.2423756519e-09
1.53035861976e-09
1.71426913571e-10
2.44701160538e-09
1.56192511989e-09
1.43160148928e-10
2.60767520246e-09
1.58455209293e-09
9.53320306944e-11
2.72309475416e-09
1.59978326122e-09
3.54619020698e-11
2.7926568945e-09
1.60858238742e-09
-2.8404806837e-11
2.81601093258e-09
1.61151729511e-09
-8.84156031498e-11
2.79275079699e-09
1.60877759792e-09
-1.36516193476e-10
2.72328604355e-09
1.60018033956e-09
-1.65180492339e-10
2.60796254903e-09
1.58516193818e-09
-1.68039965546e-10
2.44738065587e-09
1.56276461385e-09
-1.40421308094e-10
2.24278116695e-09
1.53144565112e-09
-7.98826586589e-11
1.99629912808e-09
1.48957010458e-09
1.70982216434e-09
4.66517716877e-12
1.42700937492e-09
2.96484742121e-15
9.19584107652e-12
1.61172498725e-10
5.84272485204e-15
-3.9230688765e-13
9.47562349038e-12
1.75760855336e-10
-6.58781748798e-13
9.27600453623e-12
1.87724409652e-10
-8.01753070172e-13
8.97743152432e-12
1.97370389136e-10
-7.08651327707e-13
8.77033471614e-12
2.04804545442e-10
-4.24625998349e-13
8.61859582463e-12
2.1009904273e-10
-3.31706028436e-14
8.50529450637e-12
2.13349454042e-10
3.82850013589e-13
8.44515271932e-12
2.14540363993e-10
7.5383416377e-13
8.4421532491e-12
2.13352860702e-10
1.00524379309e-12
8.51749017703e-12
2.10106202326e-10
1.07807272009e-12
8.66857854023e-12
2.04816457847e-10
9.45271297381e-13
8.88380669225e-12
1.97389620739e-10
6.44523428711e-13
9.11387570034e-12
1.87756917724e-10
2.19021967455e-13
9.34811476036e-12
1.75825013032e-10
9.09143196538e-12
1.61323466111e-10
1.64224910397e-13
-5.15877880758e-14
6.26946649494e-11
4.74952148961e-10
6.14832840633e-15
-9.3907511458e-13
6.79135335445e-11
5.1970421937e-10
-1.7527403617e-12
7.1603090571e-11
5.56788905426e-10
-2.19293484674e-12
7.46637212843e-11
5.86822103269e-10
-2.00840895399e-12
7.72554408148e-11
6.1002426205e-10
-1.24576668877e-12
7.92207679278e-11
6.26567416743e-10
-1.16461173827e-13
8.04388799672e-11
6.36707726601e-10
1.11907367324e-12
8.08382864922e-11
6.40391084046e-10
2.20350419888e-12
8.03007106419e-11
6.36716453637e-10
2.89428867913e-12
7.89868733226e-11
6.26585928359e-10
3.02545147305e-12
7.69925995467e-11
6.10055570942e-10
2.56884774471e-12
7.43988283115e-11
5.86873714479e-10
1.67631639802e-12
7.12506257828e-11
5.56878303243e-10
6.75211817925e-13
6.7593774672e-11
5.19882614029e-10
6.24678085243e-11
4.75343483466e-10
4.69237354275e-13
1.02763702998e-13
1.57849066476e-10
7.75533623498e-10
-1.18781855124e-14
-9.86780415508e-13
1.72482279874e-10
8.51932260293e-10
-2.22877902992e-12
1.84237589582e-10
9.1591724411e-10
-2.98554300042e-12
1.94269171472e-10
9.68091454761e-10
-2.84631766048e-12
2.02586343617e-10
1.00858983858e-09
-1.80294784043e-12
2.08845096011e-10
1.0375533717e-09
-1.43787791423e-13
2.12767269267e-10
1.05530289061e-09
1.71134418937e-12
2.14125057001e-10
1.06170222536e-09
3.31394570013e-12
2.12578632777e-10
1.05531397873e-09
4.26632973926e-12
2.0851744658e-10
1.0375773481e-09
4.32902452377e-12
2.02199462189e-10
1.00863165142e-09
3.52153822286e-12
1.93863512573e-10
9.6816274539e-10
2.16393012808e-12
1.83751281717e-10
9.16043984839e-10
8.92228142447e-13
1.72031022946e-10
8.52187182323e-10
1.57576168509e-10
7.7608589566e-10
7.51035131147e-13
6.79836765982e-13
2.82603507148e-10
1.05859086009e-09
-2.33294017302e-14
-2.22320110644e-13
3.09583778762e-10
1.16739441909e-09
-1.65652120521e-12
3.32214001901e-10
1.25935125227e-09
-2.7131965574e-12
3.51546955368e-10
1.33478697882e-09
-2.79259538713e-12
3.6739134926e-10
1.3935827192e-09
-1.78468198006e-12
3.79226776148e-10
1.4357408516e-09
1.27416243494e-14
3.86640590102e-10
1.46156953997e-09
2.07691075548e-12
3.8924120331e-10
1.47082186917e-09
3.81302370469e-12
3.86424956023e-10
1.46157909951e-09
4.71978633646e-12
3.78842878993e-10
1.43576254093e-09
4.5410700757e-12
3.66915883745e-10
1.3936232241e-09
3.39397606981e-12
3.51033703293e-10
1.3348609317e-09
1.80278065523e-12
3.31645647562e-10
1.25948949963e-09
6.67935872104e-13
3.09074774351e-10
1.1676807706e-09
2.8232066774e-10
1.05921681754e-09
1.03415033408e-12
1.90831150834e-12
4.24155422343e-10
1.31751080452e-09
-2.49206992524e-14
1.71772574023e-12
4.64792638711e-10
1.45843432011e-09
4.09391642609e-13
4.99522644488e-10
1.57839205696e-09
-9.04829041369e-13
5.29022584804e-10
1.67725857877e-09
-1.426030416e-12
5.52962545135e-10
1.7545530758e-09
-8.93040295226e-13
5.70706093786e-10
1.81007453596e-09
4.66587875078e-13
5.81776153109e-10
1.84407100826e-09
2.11927006186e-12
5.85673369844e-10
1.85617912156e-09
3.41498148715e-12
5.81548597821e-10
1.84407592917e-09
3.83825204846e-12
5.70294655188e-10
1.81008764486e-09
3.1943277781e-12
5.52440118149e-10
1.75458233546e-09
1.74921265442e-12
5.28451474148e-10
1.67732015839e-09
2.40127380032e-13
4.98917588156e-10
1.57851824607e-09
-2.25765789053e-13
4.64287978959e-10
1.45871362329e-09
4.23895169344e-10
1.31814498184e-09
1.31750108662e-12
3.98178837984e-12
5.69440024904e-10
1.54654399351e-09
-1.73655316369e-14
5.16850310408e-12
6.2345683024e-10
1.71834782382e-09
4.39554347101e-12
6.69893197194e-10
1.86537204835e-09
2.90323611462e-12
7.09017207915e-10
1.98695335919e-09
1.67298611484e-12
7.40434510656e-10