/*--------------------------------*- C++ -*----------------------------------*\
  =========                 |
  \\      /  F ield         | OpenFOAM: The Open Source CFD Toolbox
   \\    /   O peration     | Website:  https://openfoam.org
    \\  /    A nd           | Version:  7
     \\/     M anipulation  |
\*---------------------------------------------------------------------------*/
FoamFile
{
    version     2.0;
    format      ascii;
    class       volVectorField;
    location    "1";
    object      U;
}
// * * * * * * * * * * * * * * * * * * * * * * * * * * * * * * * * * * * * * //

dimensions      [0 1 -1 0 0 0 0];

internalField   nonuniform List<vector> 
22500
(
(1.14734307492e-05 1.31958823126e-05 0.000161295486892)
(1.03922064231e-05 1.50572053855e-05 0.00016858879703)
(8.86889241499e-06 1.67950181897e-05 0.000174919475038)
(7.30423866986e-06 1.81859149083e-05 0.000180285063068)
(5.58408323806e-06 1.92846264605e-05 0.000184605106163)
(3.78146140904e-06 2.00724748124e-05 0.000187777196022)
(1.91490684548e-06 2.05474368841e-05 0.000189718495575)
(1.58282080388e-08 2.07068027367e-05 0.000190376195344)
(-1.88378585257e-06 2.05489310183e-05 0.000189718781279)
(-3.75183392865e-06 2.00752512446e-05 0.000187777876632)
(-5.55707729211e-06 1.92880801566e-05 0.000184606172645)
(-7.2809555138e-06 1.81894455667e-05 0.000180286458293)
(-8.85099820715e-06 1.67973111164e-05 0.000174921814396)
(-1.03793758155e-05 1.5058830328e-05 0.000168597856935)
(-1.14673398503e-05 1.31966749384e-05 0.000161341446176)
(3.38739529885e-05 3.87918580749e-05 0.000431969620002)
(3.07490020519e-05 4.40854064987e-05 0.000448684881522)
(2.64173859875e-05 4.90313365118e-05 0.000462819144349)
(2.17873961818e-05 5.30610445511e-05 0.000474594207249)
(1.66999927244e-05 5.62636555287e-05 0.000483965741712)
(1.13231904084e-05 5.85730086445e-05 0.000490795453015)
(5.73555697715e-06 5.99703486254e-05 0.000494954998231)
(3.96721063198e-08 6.04391049345e-05 0.000496358592707)
(-5.65739778536e-06 5.99729269585e-05 0.000494956189513)
(-1.12484658649e-05 5.85777174185e-05 0.000490798114815)
(-1.66311711096e-05 5.62692508534e-05 0.000483969676416)
(-2.17271071397e-05 5.30663116509e-05 0.000474599021635)
(-2.6369033656e-05 4.90338922693e-05 0.000462826400984)
(-3.0712512399e-05 4.40869400045e-05 0.000448711011394)
(-3.38545958022e-05 3.87920769119e-05 0.000432082758205)
(5.21561991738e-05 5.95065822834e-05 0.000659555422341)
(4.71988233519e-05 6.72693582264e-05 0.000682119358334)
(4.05304581859e-05 7.44869667102e-05 0.000700738031551)
(3.33587944608e-05 8.03735705975e-05 0.000716004666073)
(2.55376438164e-05 8.50411388103e-05 0.000728025512565)
(1.72963800058e-05 8.84025183693e-05 0.000736725493423)
(8.75467905877e-06 9.04340582063e-05 0.000742000498694)
(5.90372871371e-08 9.11144682305e-05 0.000743774391051)
(-8.63819048813e-06 9.04358156856e-05 0.000742001724772)
(-1.71845888232e-05 8.84055044359e-05 0.000736728392198)
(-2.54338905166e-05 8.50439277171e-05 0.000728029636806)
(-3.32666568876e-05 8.03747034451e-05 0.000716009150339)
(-4.04544384459e-05 7.44842508906e-05 0.000700744457208)
(-4.71393731694e-05 6.72655786713e-05 0.000682149788111)
(-5.21219002929e-05 5.95022949464e-05 0.000659703589892)
(6.69030067736e-05 7.60823858524e-05 0.000850875534002)
(6.03372714589e-05 8.55213238121e-05 0.000876645454823)
(5.1730749704e-05 9.42663365656e-05 0.000897355070211)
(4.24724554746e-05 0.000101378766795 0.000914035888335)
(3.24571914956e-05 0.000107001171664 0.000927012489074)
(2.19514753407e-05 0.000111040603571 0.0009363314034)
(1.11004678076e-05 0.000113477732393 0.00094195371087)
(7.31585210616e-08 0.000114292780813 0.000943837657069)
(-1.09559946819e-05 0.000113478584159 0.000941953628829)
(-2.18125418281e-05 0.000111041770384 0.000936331800931)
(-3.2327699183e-05 0.000107001264489 0.000927012575733)
(-4.23564246128e-05 0.000101376288421 0.000914034057867)
(-5.16330737944e-05 9.42594574394e-05 0.000897351762325)
(-6.02586219469e-05 8.55135227824e-05 0.000876663226324)
(-6.68539679546e-05 7.60745734888e-05 0.000851018211898)
(7.87072049404e-05 8.92630618115e-05 0.00101153664792)
(7.07467639302e-05 9.97488450378e-05 0.001038549241)
(6.0535383373e-05 0.000109438940745 0.00105961066666)
(4.95762633792e-05 0.000117287706533 0.0010762129749)
(3.78147389174e-05 0.00012347084429 0.0010889391149)
(2.55367443885e-05 0.000127901481531 0.00109799135048)
(1.29010004885e-05 0.000130569673476 0.00110341997303)
(8.33371176251e-08 0.00013146084552 0.00110523159873)
(-1.27363472194e-05 0.000130569877282 0.00110341740038)
(-2.53781980406e-05 0.000127901386826 0.00109798677837)
(-3.76665420174e-05 0.000123469185152 0.00108893125264)
(-4.94426068394e-05 0.000117283084655 0.00107619907392)
(-6.04210132886e-05 0.000109429741692 0.0010595888753)
(-7.06523941504e-05 9.97390361247e-05 0.00103853956943)
(-7.86442714571e-05 8.92534056149e-05 0.00101164412231)
(8.7842689312e-05 9.9383591617e-05 0.00114613242048)
(7.86903281284e-05 0.000110373057952 0.00117292997268)
(6.71759642436e-05 0.000120507479583 0.00119308064547)
(5.48704529365e-05 0.000128675486824 0.00120853413081)
(4.17696529912e-05 0.000135084228396 0.00122015285676)
(2.81637164552e-05 0.000139663443084 0.00122831354272)
(1.42141106712e-05 0.000142415637461 0.00123316885358)
(9.05405822815e-08 0.000143333805587 0.00123478083858)
(-1.40351576076e-05 0.000142415557813 0.00123316296681)
(-2.79912164147e-05 0.000139662835782 0.00122830220967)
(-4.16080089007e-05 0.000135081977927 0.00122013407042)
(-5.47238476844e-05 0.000128670335643 0.00120850354011)
(-6.70486533764e-05 0.000120498016763 0.00119303319328)
(-7.85828741496e-05 0.000110363422586 0.00117288199829)
(-8.77670728496e-05 9.93742468958e-05 0.00114618836558)
(9.45434278773e-05 0.000106715711493 0.00125854039846)
(8.43929433812e-05 0.000117742229266 0.00128406154691)
(7.18555961856e-05 0.000127890547256 0.00130240620791)
(5.85318640792e-05 0.000136023537904 0.00131596397755)
(4.44638364257e-05 0.000142375607344 0.00132588425557)
(2.99322840614e-05 0.000146900780887 0.00133272626795)
(1.50917447171e-05 0.000149614952348 0.00133675060638)
(9.55874237085e-08 0.00015051957234 0.00133807705714)
(-1.49027601826e-05 0.000149615092417 0.00133674093587)
(-2.9749932246e-05 0.000146900658539 0.00133270707534)
(-4.42925516024e-05 0.000142374264774 0.00132585257918)
(-5.83756926514e-05 0.000136019826561 0.0013159134444)
(-7.17181976203e-05 0.000127883219638 0.00130232801044)
(-8.42745561724e-05 0.00011773526499 0.00128396869028)
(-9.44563920105e-05 0.000106709120546 0.00125853757773)
(9.90584209852e-05 0.000111546917753 0.00135211886012)
(8.80952273491e-05 0.000122220637908 0.00137562580575)
(7.47948103533e-05 0.000132022079442 0.00139156361848)
(6.07533068476e-05 0.000139828193679 0.00140273690838)
(4.60525960452e-05 0.000145894861614 0.00141057943859)
(3.09518856e-05 0.000150204172813 0.0014158327749)
(1.55907509187e-05 0.000152783963114 0.00141886513073)
(9.91765576683e-08 0.000153643248513 0.00141985286948)
(-1.53946142645e-05 0.000152784892144 0.00141885153974)
(-3.07624316912e-05 0.000150205677143 0.00141580530479)
(-4.58741994635e-05 0.00014589609797 0.00141053396846)
(-6.05898176931e-05 0.00013982808521 0.00140266475242)
(-7.46492566054e-05 0.000132019427699 0.00139145209402)
(-8.79675986553e-05 0.000122219080614 0.00137548591893)
(-9.89612541855e-05 0.000111545665442 0.00135205695303)
(0.000101631618434 0.000114158375662 0.00142982167923)
(9.00328117009e-05 0.000124158816445 0.0014508437989)
(7.62111131129e-05 0.000133315392966 0.00146401431894)
(6.17261532671e-05 0.000140559573866 0.00147252601878)
(4.66906353601e-05 0.000146161687785 0.00147808608599)
(3.1331659827e-05 0.000150131326971 0.00148161060813)
(1.57678073377e-05 0.000152504296343 0.00148356981138)
(1.01936488081e-07 0.000153294605791 0.00148419263751)
(-1.55661422147e-05 0.00015250660221 0.00148355249821)
(-3.11366283232e-05 0.000150135627153 0.0014815751678)
(-4.65064901625e-05 0.00014616720731 0.00147802713354)
(-6.15565366044e-05 0.000140565236974 0.0014724324656)
(-7.6058496744e-05 0.000133319942818 0.00146386988377)
(-8.98970971426e-05 0.000124165313083 0.00145065944803)
(-0.00010152552825 0.000114165039067 0.00142970638575)
(0.000102491679238 0.000114812576718 0.00149425017551)
(9.04263694256e-05 0.000123877304617 0.00151253071887)
(7.63101238958e-05 0.000132144708113 0.00152276946089)
(6.16331132197e-05 0.000138641491678 0.00152852073887)
(4.65263624877e-05 0.000143644233535 0.00153174433224)
(3.11763854594e-05 0.000147184382878 0.00153351338397)
(1.56772782275e-05 0.000149299340863 0.00153438832074)
(1.04433738541e-07 0.000150004207788 0.00153464373439)
(-1.54705782758e-05 0.000149303547094 0.00153436789121)
(-3.09761811048e-05 0.000147192512357 0.00153347120242)
(-4.63367633634e-05 0.000143655551957 0.00153167382231)
(-6.14575735159e-05 0.000138654856011 0.00152840857326)
(-7.61507121718e-05 0.000132158695278 0.00152259635655)
(-9.02831132709e-05 0.000123894221909 0.0015123098885)
(-0.000102377553453 0.000114829512484 0.00149409342762)
(0.000101850063169 0.000113752571718 0.00154764544738)
(8.94805236842e-05 0.000121663299575 0.0015630812098)
(7.52857395465e-05 0.000128841617997 0.0015703822129)
(6.06486649675e-05 0.000134449278796 0.0015734338081)
(4.57018202012e-05 0.000138757665284 0.00157440944176)
(3.05859988825e-05 0.000141808415766 0.00157450633654)
(1.53708248597e-05 0.000143632374837 0.00157435441199)
(1.07167780595e-07 0.000144241379024 0.00157426320942)
(-1.51585859087e-05 0.000143638860505 0.00157433207081)
(-3.03800374164e-05 0.000141821136768 0.00157445999985)
(-4.55060965345e-05 0.000138775913047 0.00157433168199)
(-6.04665229225e-05 0.000134471818112 0.0015733095203)
(-7.51190514381e-05 0.000128866761748 0.00157018987578)
(-8.93296831437e-05 0.000121692501125 0.00156283858572)
(-0.000101728309253 0.000113781618003 0.00154746679639)
(9.98986715612e-05 0.00011120010997 0.00159180861221)
(8.73856875913e-05 0.000117766623124 0.0016043761617)
(7.33244111927e-05 0.000123694492065 0.00160886848078)
(5.89417365828e-05 0.000128313371161 0.00160944641733)
(4.43530025013e-05 0.000131868885004 0.0016084202576)
(2.96547474979e-05 0.000134395483869 0.00160705249279)
(1.48966530449e-05 0.000135909734001 0.0016060089765)
(1.10550365982e-07 0.000136416924936 0.00160561854204)
(-1.4677542229e-05 0.000135918664935 0.00160598682608)
(-2.94416162281e-05 0.000134413116726 0.00160700661206)
(-4.41496805739e-05 0.000131894584771 0.00160834310761)
(-5.87515606099e-05 0.000128345830914 0.00160932196193)
(-7.31493211356e-05 0.000123731747114 0.00160867361226)
(-8.72267023265e-05 0.000117809211755 0.00160413478049)
(-9.97691209606e-05 0.000111242540487 0.00159163726335)
(9.68069089e-05 0.000107335379913 0.00162791392245)
(8.43317584045e-05 0.000112390865949 0.00163759082993)
(7.0617489042e-05 0.00011695896414 0.00163955505919)
(5.66792301586e-05 0.000120535922061 0.0016380998246)
(4.26077510048e-05 0.00012331254571 0.00163552379309)
(2.84679100451e-05 0.00012529787422 0.00163305922011)
(1.42974015327e-05 0.000126491774806 0.00163135916824)
(1.14884476684e-07 0.000126893512179 0.00163075087912)
(-1.40695053768e-05 0.00012650300184 0.00163134051553)
(-2.82456225399e-05 0.000125320158078 0.00163302112887)
(-4.23947731868e-05 0.000123345374417 0.00163545997589)
(-5.64790356498e-05 0.000120578045842 0.00163799488074)
(-7.04323772534e-05 0.000117008211209 0.00163938460089)
(-8.41636333835e-05 0.00011244690414 0.00163738365691)
(-9.66690699277e-05 0.000107391283364 0.00162778749601)
(9.27795162087e-05 0.000102286730352 0.00165615102731)
(8.05681170148e-05 0.000105768746428 0.00166290110695)
(6.73785921005e-05 0.000108911561227 0.00166288695945)
(5.40163928866e-05 0.000111441045489 0.00166016543608)
(4.05717595451e-05 0.00011342755219 0.00165677800763)
(2.70909514561e-05 0.000114855176488 0.00165379777698)
(1.36046608915e-05 0.00011571554968 0.00165180632034)
(1.20293237649e-07 0.000116006739748 0.00165110545281)
(-1.33657935291e-05 0.000115728564841 0.00165179569078)
(-2.68572635349e-05 0.000114881124465 0.00165377759485)
(-4.0346821697e-05 0.0001134660911 0.00165674550622)
(-5.38039277875e-05 0.00011149119231 0.00166010917503)
(-6.71815794781e-05 0.000108971311801 0.00166278250996)
(-8.03896236576e-05 0.000105836948535 0.00166277437934)
(-9.26322859647e-05 0.000102355104376 0.00165611145764)
(8.81345100681e-05 9.67470944393e-05 0.00167506001128)
(7.64076344053e-05 9.79525719122e-05 0.0016792153546)
(6.37274463125e-05 9.97798691055e-05 0.00167833157757)
(5.10173194643e-05 0.000101267608457 0.00167558624817)
(3.82784632709e-05 0.000102437971785 0.00167248860834)
(2.5542826039e-05 0.0001032752381 0.00166982816537)
(1.28274659706e-05 0.000103778828941 0.00166806202342)
(1.26715383026e-07 0.000103950925991 0.00166744403923)
(-1.25756063086e-05 0.000103792570149 0.00166806353783)
(-2.5295704771e-05 0.000103302732123 0.00166983521233)
(-3.80394578415e-05 0.000102479084703 0.00167250459329)
(-5.0790309635e-05 0.000101321839773 0.00167560954868)
(-6.3516372327e-05 9.98457152666e-05 0.00167834214752)
(-7.62179698261e-05 9.80294090079e-05 0.0016792529652)
(-8.79756262436e-05 9.68247194937e-05 0.00167510514031)
(1.86342447856e-07 4.38592150988e-07 9.48327543479e-05)
(-1.42203337369e-08 6.22101273565e-07 9.85189329675e-05)
(-1.34762518523e-07 7.06820032414e-07 0.000101276464644)
(-2.04536924758e-07 7.37144380095e-07 0.000103380291889)
(-2.16999105442e-07 7.31679690939e-07 0.000104962951915)
(-1.77794654247e-07 7.11272725933e-07 0.000106077361044)
(-9.96452117795e-08 6.9213977765e-07 0.000106744191016)
(-2.12897610139e-10 6.84655139042e-07 0.000106969348352)
(9.9764362729e-08 6.92329291902e-07 0.000106743981734)
(1.79571096705e-07 7.11772115259e-07 0.000106077074576)
(2.21200066597e-07 7.32560979423e-07 0.000104962818928)
(2.1058457379e-07 7.38283889071e-07 0.000103380881259)
(1.41250683154e-07 7.08428467921e-07 0.00010127968765)
(2.0163750023e-08 6.2375369786e-07 9.8533041185e-05)
(-1.83180502252e-07 4.40643524093e-07 9.4887666093e-05)
(2.38480699671e-06 3.1978248767e-06 0.000286928745934)
(1.7668537536e-06 4.02931264057e-06 0.000298089797879)
(1.26106836061e-06 4.62726408104e-06 0.000306452480872)
(8.3658192079e-07 5.0484337352e-06 0.000312808248585)
(5.09793849678e-07 5.32128055085e-06 0.000317566961703)
(2.7838649593e-07 5.48429786879e-06 0.000320906415316)
(1.20623616008e-07 5.56882807128e-06 0.000322898756864)
(3.64227222405e-09 5.59499718064e-06 0.000323566892435)
(-1.12152876807e-07 5.56938327999e-06 0.000322898079894)
(-2.66401515207e-07 5.48553939242e-06 0.000320905407669)
(-4.92811819307e-07 5.32322484153e-06 0.000317566288597)
(-8.15760159762e-07 5.05083117715e-06 0.000312809537136)
(-1.23996469278e-06 4.63053449623e-06 0.000306461290343)
(-1.74821196003e-06 4.03307093011e-06 0.000298130155055)
(-2.37453400535e-06 3.20280600438e-06 0.000287072150661)
(6.02213545638e-06 7.42668504611e-06 0.000480747665469)
(4.95232868447e-06 9.08220947455e-06 0.000499451156162)
(3.94803126995e-06 1.0395917478e-05 0.000513467483787)
(2.99369041296e-06 1.1404019338e-05 0.000524088271852)
(2.12510773341e-06 1.2129143704e-05 0.000532006817851)
(1.35321245028e-06 1.26115100279e-05 0.000537544267611)
(6.5939838093e-07 1.28861637394e-05 0.0005408382802)
(9.80310296438e-09 1.2975669387e-05 0.000541937950496)
(-6.38323526365e-07 1.28871885186e-05 0.000540836225293)
(-1.32784049694e-06 1.26135551616e-05 0.000537540606234)
(-2.09369357653e-06 1.21319658795e-05 0.000532002481465)
(-2.95751891835e-06 1.14071400829e-05 0.00052408563125)
(-3.91177066693e-06 1.03997541732e-05 0.000513474694678)
(-4.92035563181e-06 9.08742953502e-06 0.00049950333149)
(-6.00325049667e-06 7.43437608236e-06 0.000480947853368)
(1.06163893672e-05 1.25993609765e-05 0.00067327017016)
(9.0618311631e-06 1.51442348611e-05 0.000699116541565)
(7.48465996406e-06 1.72440088614e-05 0.000718405562722)
(5.88327417044e-06 1.89129515532e-05 0.000732925475681)
(4.32210923147e-06 2.01587333881e-05 0.000743672656062)
(2.83220217238e-06 2.10150482948e-05 0.000751143442049)
(1.40621365428e-06 2.15149325312e-05 0.000755567612074)
(1.80931970912e-08 2.16798134347e-05 0.000757038084501)
(-1.368579762e-06 2.15163597448e-05 0.000755562749505)
(-2.79039431371e-06 2.10178027035e-05 0.000751134066635)
(-4.27456765937e-06 2.01624291803e-05 0.000743659647571)
(-5.83140234911e-06 1.8917066043e-05 0.000732911364332)
(-7.43351340442e-06 1.72488118894e-05 0.000718399597014)
(-9.01684386169e-06 1.51513933069e-05 0.000699159779265)
(-1.05881430612e-05 1.26101781161e-05 0.000673485095919)
(1.56843286694e-05 1.81849236853e-05 0.000861364560474)
(1.36270177129e-05 2.15877548591e-05 0.000893518666007)
(1.14451955862e-05 2.44361193105e-05 0.00091729659989)
(9.13996532213e-06 2.6739660042e-05 0.00093499854558)
(6.8112662159e-06 2.84885390222e-05 0.000947956286453)
(4.51428537223e-06 2.97079800491e-05 0.000956882682554)
(2.25760287294e-06 3.04272899434e-05 0.000962134569996)
(2.75226947208e-08 3.06657016794e-05 0.000963871478488)
(-2.2013232261e-06 3.04291513811e-05 0.000962125394297)
(-4.45451106684e-06 2.97115578228e-05 0.00095686435958)
(-6.74687521534e-06 2.84934128057e-05 0.000947929242815)
(-9.07252207962e-06 2.67453231932e-05 0.000934964732001)
(-1.13797312397e-05 2.44426794729e-05 0.000917264747911)
(-1.35692776098e-05 2.15973702776e-05 0.000893532336437)
(-1.56460781559e-05 1.81992545086e-05 0.000861558324063)
(2.0870569455e-05 2.38031519428e-05 0.00104208771734)
(1.83072509308e-05 2.79658007664e-05 0.00107937331621)
(1.55205235428e-05 3.14552751723e-05 0.00110655173044)
(1.25002591872e-05 3.43022194876e-05 0.00112646291206)
(9.38518087773e-06 3.64813344187e-05 0.0011408117995)
(6.25628563081e-06 3.80112501866e-05 0.00115057107561)
(3.14016538206e-06 3.89181925353e-05 0.00115626107232)
(3.73693313949e-08 3.92195114507e-05 0.00115813135233)
(-3.06451301003e-06 3.89205838607e-05 0.00115624629388)
(-6.17811090211e-06 3.80158655801e-05 0.00115054104413)
(-9.30391189127e-06 3.64877603334e-05 0.00114076608119)
(-1.24176058953e-05 3.43099559875e-05 0.00112640210707)
(-1.54413111644e-05 3.14642894508e-05 0.00110648264857)
(-1.82369751979e-05 2.7978442231e-05 0.00107934022088)
(-2.08217427203e-05 2.38212175054e-05 0.00104223488741)
(2.58897001196e-05 2.9156694973e-05 0.00121299397864)
(2.28315737239e-05 3.39317017759e-05 0.00125402662902)
(1.94653303702e-05 3.7907831745e-05 0.00128334747521)
(1.57562741921e-05 4.11639503729e-05 0.00130436632599)
(1.18813819233e-05 4.36644911462e-05 0.00131919597335)
(7.94672907624e-06 4.54253192004e-05 0.00132910607026)
(3.99700531365e-06 4.64715122136e-05 0.00133481155536)
(4.71258874062e-08 4.68195319332e-05 0.00133667186154)
(-3.90219712881e-06 4.64745483647e-05 0.00133479029613)
(-7.85045840922e-06 4.54312233741e-05 0.00132906250897)
(-1.17836399883e-05 4.3672862879e-05 0.00131912847421)
(-1.56589016731e-05 4.11742886235e-05 0.001304273444)
(-1.93728218414e-05 3.79199085472e-05 0.00128323308504)
(-2.27490247047e-05 3.39479838581e-05 0.00125393524734)
(-2.58298004008e-05 2.91786512376e-05 0.00121307877196)
(3.05113394164e-05 3.40100541381e-05 0.0013722759043)
(2.69839731531e-05 3.92156170374e-05 0.00141559699867)
(2.30850667765e-05 4.34959503282e-05 0.00144576685317)
(1.87446711913e-05 4.70022462066e-05 0.00146678790381)
(1.41734054631e-05 4.96954525393e-05 0.0014812046533)
(9.49956869762e-06 5.15931200034e-05 0.00149060702059)
(4.78448666725e-06 5.27214019991e-05 0.00149592430205)
(5.64931033802e-08 5.30969955775e-05 0.00149763861219)
(-4.67128887285e-06 5.27252016779e-05 0.00149589625986)
(-9.38592893755e-06 5.16005673638e-05 0.00149054950736)
(-1.40598346282e-05 4.97061581467e-05 0.00148111461727)
(-1.86331353056e-05 4.70156929343e-05 0.00146666130155)
(-2.29796532922e-05 4.35116974061e-05 0.00144560404445)
(-2.68893793111e-05 3.92360910695e-05 0.00141544339356)
(-3.04401860586e-05 3.40362669762e-05 0.00137229249275)
(3.45585124131e-05 3.81862721247e-05 0.00151876929212)
(3.06008126539e-05 4.36198858199e-05 0.00156295939834)
(2.6233786752e-05 4.80106760206e-05 0.00159276164718)
(2.13444341364e-05 5.15991665996e-05 0.00161278441034)
(1.6168670679e-05 5.43501293568e-05 0.00162600570511)
(1.08524686523e-05 5.62866912352e-05 0.00163433715746)
(5.47123644101e-06 5.74377927352e-05 0.00163892613838)
(6.53137979958e-08 5.78211657876e-05 0.00164038078327)
(-5.34069732257e-06 5.74424540576e-05 0.00163889171941)
(-1.07223797327e-05 5.62958836072e-05 0.00163426711166)
(-1.60399886217e-05 5.43634908124e-05 0.00162589577185)
(-2.12192453047e-05 5.16161455249e-05 0.00161262790715)
(-2.61158131258e-05 4.80306408846e-05 0.00159255488721)
(-3.04943715453e-05 4.36450507507e-05 0.00156274925693)
(-3.44761181798e-05 3.82171569442e-05 0.00151872345866)
(3.79045983889e-05 4.15625227159e-05 0.00165186544829)
(3.35672237971e-05 4.70132527534e-05 0.00169561710582)
(2.8810588049e-05 5.13231614167e-05 0.0017239939405)
(2.34731160103e-05 5.48296379888e-05 0.00174220676713)
(1.78050683538e-05 5.75082792361e-05 0.00175363809667)
(1.1964162508e-05 5.93902604932e-05 0.00176049247511)
(6.03668850979e-06 6.05080037887e-05 0.00176411628019)
(7.35421301699e-08 6.08804410998e-05 0.00176523441234)
(-5.8899458444e-06 6.05135702847e-05 0.00176407842293)
(-1.18186056677e-05 5.94012863201e-05 0.00176041545886)
(-1.76620162344e-05 5.75244431716e-05 0.00175351645602)
(-2.33347651004e-05 5.48503670213e-05 0.0017420310504)
(-2.86803674724e-05 5.13476709249e-05 0.00172375638055)
(-3.34491955155e-05 4.70434679144e-05 0.00169536729301)
(-3.78110710228e-05 4.15984043762e-05 0.00165177557624)
(4.04684653131e-05 4.40644460252e-05 0.00177133683097)
(3.58121187714e-05 4.9323374778e-05 0.00181348467725)
(3.07544897794e-05 5.3373712446e-05 0.00183959645837)
(2.50817741387e-05 5.664741928e-05 0.0018554473376)
(1.90463206228e-05 5.9136537147e-05 0.00186474790303)
(1.28108182347e-05 6.08808579086e-05 0.0018699273038)
(6.46904639012e-06 6.19156888985e-05 0.00187248483675)
(8.11524898702e-08 6.22607165176e-05 0.00187323708292)
(-6.30728104367e-06 6.19220861476e-05 0.00187244801135)
(-1.26508041098e-05 6.08935882435e-05 0.00186985230412)
(-1.88896495346e-05 5.91553476742e-05 0.00186462833671)
(-2.49307543634e-05 5.66717708431e-05 0.00185527113148)
(-3.06123615702e-05 5.34027313265e-05 0.00183935175844)
(-3.568282582e-05 4.9358714835e-05 0.00181322495531)
(-4.03640525581e-05 4.41054171053e-05 0.00177123604762)
(4.22073800269e-05 4.56580124671e-05 0.00187707325136)
(3.73011369521e-05 5.05267833428e-05 0.00191658765)
(3.20379737057e-05 5.41591140355e-05 0.00193986662499)
(2.61489116997e-05 5.70701316388e-05 0.00195313377161)
(1.98765943514e-05 5.92711342784e-05 0.00196028025978)
(1.3381921074e-05 6.08090058747e-05 0.00196384286945)
(6.76302838249e-06 6.17201849036e-05 0.00196539782235)
(8.8109737962e-08 6.20242329586e-05 0.00196581205236)
(-6.58749364337e-06 6.17272201849e-05 0.00196536832852)
(-1.32085520539e-05 6.08230548195e-05 0.0019637828724)
(-1.97071816698e-05 5.92920698768e-05 0.00196018320754)
(-2.5985858678e-05 5.70975039012e-05 0.00195298555753)
(-3.18844200909e-05 5.41920839878e-05 0.00193965095381)
(-3.71610584725e-05 5.05667745174e-05 0.00191636189909)
(-4.20924075284e-05 4.57037390385e-05 0.00187701103474)
(4.31071189703e-05 4.63334166046e-05 0.00196869848409)
(3.80306501917e-05 5.06352501339e-05 0.00200468911215)
(3.26627946669e-05 5.37215809071e-05 0.00202493148255)
(2.66759655577e-05 5.61665632076e-05 0.00203581313059)
(2.02959088178e-05 5.80035468003e-05 0.00204116695555)
(1.36766037275e-05 5.92826593967e-05 0.00204347153534)
(6.91782655252e-06 6.00392165059e-05 0.00204427736626)
(9.43450352183e-08 6.02919224281e-05 0.00204444669153)
(-6.72994379779e-06 6.00465666192e-05 0.00204426332814)
(-1.34911916285e-05 5.92974066286e-05 0.00204344359508)
(-2.01148934141e-05 5.80256972252e-05 0.0020411199686)
(-2.6501834319e-05 5.61958732389e-05 0.00203573248343)
(-3.2498639289e-05 5.37573565629e-05 0.0020247955586)
(-3.7880579254e-05 5.06788465902e-05 0.00200455521032)
(-4.29822725158e-05 4.63829178487e-05 0.00196873624269)
(4.31996680345e-05 4.6107779971e-05 0.00204501044116)
(3.80429245503e-05 4.97544021221e-05 0.00207691551626)
(3.26674713392e-05 5.21773849669e-05 0.00209447216788)
(2.66862506181e-05 5.40732122132e-05 0.00210369480144)
(2.03169248333e-05 5.54855049157e-05 0.00210805965866)
(1.37005589451e-05 5.64635066291e-05 0.00210979339452)
(6.93536244061e-06 5.70399848045e-05 0.00211030526312)
(9.97401381032e-08 5.72326954194e-05 0.00211039105816)
(-6.73678374041e-06 5.70472446472e-05 0.00211031590913)
(-1.35047218619e-05 5.6478130276e-05 0.00210981718185)
(-2.01258418929e-05 5.55076461876e-05 0.00210809559553)
(-2.65024601978e-05 5.4102896867e-05 0.00210373176167)
(-3.2494016044e-05 5.22143127628e-05 0.00209448392012)
(-3.78840349769e-05 4.97999857137e-05 0.00207694664366)
(-4.30656448422e-05 4.61598317651e-05 0.00204521187664)
(4.25139422165e-05 4.56160601627e-05 0.00210323659996)
(3.73980014754e-05 4.81405934836e-05 0.00213176836512)
(3.20715554929e-05 4.97441993314e-05 0.00214770390782)
(2.61850633554e-05 5.09821280682e-05 0.00215656776866)
(1.99389509524e-05 5.18838209561e-05 0.0021611822091)
(1.34508593157e-05 5.24987444205e-05 0.00216333515457)
(6.81332010085e-06 5.28574393085e-05 0.00216418757407)
(1.04167900602e-07 5.29772996409e-05 0.0021644100177)
(-6.60599875743e-06 5.28639915171e-05 0.00216423016042)
(-1.32465531837e-05 5.25120028006e-05 0.00216342627081)
(-1.97397534647e-05 5.19040767921e-05 0.00216132821605)
(-2.59934727591e-05 5.10097145282e-05 0.00215676860042)
(-3.18904731007e-05 4.97792612222e-05 0.00214793459723)
(-3.72323754396e-05 4.81852805253e-05 0.00213208185536)
(-4.23710102081e-05 4.56672703078e-05 0.00210360064001)
(-5.14047194009e-08 -6.2332008503e-08 5.93953306967e-05)
(-5.67970332964e-08 -7.47811133115e-08 6.13265534877e-05)
(-6.65023927018e-08 -8.69204650769e-08 6.2406442466e-05)
(-6.73246041756e-08 -1.03774534762e-07 6.29833214252e-05)
(-6.02687909528e-08 -1.20564269396e-07 6.32673796264e-05)
(-4.36075773177e-08 -1.35561291442e-07 6.33916618389e-05)
(-2.06739741978e-08 -1.45778352234e-07 6.34385081229e-05)
(5.20312796641e-09 -1.49217181768e-07 6.34523303621e-05)
(3.07875118499e-08 -1.45187816388e-07 6.34401462184e-05)
(5.28986436505e-08 -1.34336301392e-07 6.33948811673e-05)
(6.86012449687e-08 -1.18548312501e-07 6.32722495112e-05)
(7.56372135585e-08 -1.00654043873e-07 6.29905350354e-05)
(7.46858113077e-08 -8.34447122308e-08 6.2418399194e-05)
(6.40135660313e-08 -7.06359602164e-08 6.13509279979e-05)
(5.68528876759e-08 -5.85623375577e-08 5.94565675197e-05)
(2.37977887594e-07 2.63161241101e-07 0.00019315362654)
(2.01512641289e-07 3.19102431286e-07 0.000200285221084)
(1.38899980696e-07 3.65887959736e-07 0.000204784335325)
(8.52249235597e-08 3.92388946028e-07 0.000207589259694)
(4.47898773916e-08 4.06087773541e-07 0.000209299534044)
(2.32612804588e-08 4.09779932528e-07 0.000210296852274)
(1.56196264361e-08 4.09474327681e-07 0.00021081564949)
(1.48861341636e-08 4.0939891116e-07 0.00021098127575)
(1.35370971307e-08 4.11018634257e-07 0.000210819760091)
(4.17631447866e-09 4.13025894403e-07 0.000210304958208)
(-1.9388145721e-08 4.11408008897e-07 0.000209311999251)
(-6.04685911048e-08 4.00342494663e-07 0.000207608342152)
(-1.14882509736e-07 3.75057409832e-07 0.000204817317197)
(-1.80262144991e-07 3.300735114e-07 0.000200354842626)
(-2.22076941248e-07 2.73576147969e-07 0.000193318846431)
(9.56034341382e-07 1.07351372705e-06 0.000339743748779)
(8.68221288897e-07 1.29180448828e-06 0.000353212161803)
(7.15873733369e-07 1.48447861593e-06 0.000362198192786)
(5.55658077371e-07 1.63417553123e-06 0.000368152623281)
(4.00279104192e-07 1.74513291313e-06 0.000372027287026)
(2.62085309169e-07 1.81826055754e-06 0.000374434534578)
(1.38707636543e-07 1.85941186688e-06 0.00037575001786)
(2.32344333603e-08 1.87326819483e-06 0.000376174361685)
(-9.29555632754e-08 1.86150022727e-06 0.000375755240072)
(-2.18325104831e-07 1.82274922068e-06 0.000374444884867)
(-3.58942735326e-07 1.75267674881e-06 0.000372043533684)
(-5.15523824215e-07 1.64546272182e-06 0.000368178502216)
(-6.77229215747e-07 1.49805705142e-06 0.000362244976206)
(-8.33542513736e-07 1.30803055462e-06 0.000353314185464)
(-9.29871867026e-07 1.08996596597e-06 0.000339986760225)
(2.13874573806e-06 2.40439979479e-06 0.000496715576924)
(1.97946597157e-06 2.87860368963e-06 0.000517298953451)
(1.6996255081e-06 3.30762017607e-06 0.000531505932523)
(1.37665788073e-06 3.66215874314e-06 0.000541241635329)
(1.03373336232e-06 3.93896358546e-06 0.000547781647538)
(6.93182871979e-07 4.13359414259e-06 0.000551958846339)
(3.59712879492e-07 4.24879046161e-06 0.000554286503568)
(3.09247263861e-08 4.28768752237e-06 0.000555039897246)
(-2.9857882691e-07 4.25145784433e-06 0.000554290792806)
(-6.34040123952e-07 4.13931450878e-06 0.000551967455755)
(-9.77148648342e-07 3.94849158081e-06 0.000547795821233)
(-1.32190294672e-06 3.67621282778e-06 0.000541266311961)
(-1.64740458817e-06 3.32504743182e-06 0.000531555091161)
(-1.93232470715e-06 2.89963970352e-06 0.000517414682118)
(-2.10265478383e-06 2.42675769638e-06 0.000497001581309)
(3.72319100309e-06 4.17610057904e-06 0.000661447637448)
(3.47398607933e-06 4.97205318115e-06 0.000689528716784)
(3.03446833966e-06 5.70159263019e-06 0.000709311953564)
(2.50078156792e-06 6.31799959969e-06 0.00072312616446)
(1.90802662411e-06 6.80825149472e-06 0.00073255679444)
(1.29131074722e-06 7.16026787779e-06 0.000738658008489)
(6.6603430434e-07 7.37186880379e-06 0.000742086078198)
(3.82236531102e-08 7.44342049466e-06 0.000743196111109)
(-5.90272130343e-07 7.37516543589e-06 0.000742087385566)
(-1.21747694837e-06 7.1672521699e-06 0.000738660893856)
(-1.83684076241e-06 6.81965857081e-06 0.000732562922215)
(-2.43207582872e-06 6.33454688241e-06 0.0007231411945)
(-2.96943428593e-06 5.72249357146e-06 0.000709351142111)
(-3.41525558739e-06 4.99769778461e-06 0.000689639306167)
(-3.67740009893e-06 4.20396265723e-06 0.000661746405322)
(5.63230561301e-06 6.29382165151e-06 0.000831149593864)
(5.27699614867e-06 7.44687095254e-06 0.000866686718479)